<event>
 4    2  0.3972096E+000  0.1736487E+03  0.7546771E-02  0.1174095E+00
         21   -1    0    0  503  502  0.00000000000E+00  0.00000000000E+00  0.23940038212E+02  0.23940038212E+02  0.00000000000E+00 0.  1.
         21   -1    0    0  501  503 -0.00000000000E+00 -0.00000000000E+00 -0.17654359351E+04  0.17654359351E+04  0.00000000000E+00 0.  1.
          6    1    1    2  501    0  0.11825671906E+02 -0.92204389484E+01 -0.13496741072E+04  0.13607990515E+04  0.17300000000E+03 0.  1.
         -6    1    1    2    0  502 -0.11825671906E+02  0.92204389484E+01 -0.39182178976E+03  0.42857692185E+03  0.17300000000E+03 0.  1.
<mgrwt>
<rscale>  2 0.17364868E+03</rscale>
<asrwt>0</asrwt>
<pdfrwt beam="1">  1       21 0.36830810E-02 0.17364868E+03</pdfrwt>
<pdfrwt beam="2">  1       21 0.27160566E+00 0.17364868E+03</pdfrwt>
<totfact> 0.22793063E+04</totfact>
</mgrwt>
</event>
<event>
 4    2  0.3972096E+000  0.2054566E+03  0.7546771E-02  0.1145215E+00
         21   -1    0    0  501  502  0.00000000000E+00  0.00000000000E+00  0.34263598322E+03  0.34263598322E+03  0.00000000000E+00 0. -1.
         21   -1    0    0  502  503 -0.00000000000E+00 -0.00000000000E+00 -0.70043992028E+03  0.70043992028E+03  0.00000000000E+00 0.  1.
          6    1    1    2  501    0  0.22985974940E+02 -0.10842069627E+03  0.29455338992E+03  0.35912964502E+03  0.17300000000E+03 0. -1.
         -6    1    1    2    0  503 -0.22985974940E+02  0.10842069627E+03 -0.65235732698E+03  0.68394625848E+03  0.17300000000E+03 0.  1.
<mgrwt>
<rscale>  2 0.20545657E+03</rscale>
<asrwt>0</asrwt>
<pdfrwt beam="1">  1       21 0.52713228E-01 0.20545657E+03</pdfrwt>
<pdfrwt beam="2">  1       21 0.10775999E+00 0.20545657E+03</pdfrwt>
<totfact> 0.23150781E+03</totfact>
</mgrwt>
</event>
<event>
 4    2  0.3972096E+000  0.1813403E+03  0.7546771E-02  0.1166512E+00
         21   -1    0    0  503  502  0.00000000000E+00  0.00000000000E+00  0.10233532211E+03  0.10233532211E+03  0.00000000000E+00 0.  1.
         21   -1    0    0  501  503 -0.00000000000E+00 -0.00000000000E+00 -0.53993769787E+03  0.53993769787E+03  0.00000000000E+00 0.  1.
          6    1    1    2  501    0 -0.42286619370E+02  0.34163713689E+02 -0.42313571886E+03  0.46035655104E+03  0.17300000000E+03 0.  1.
         -6    1    1    2    0  502  0.42286619370E+02 -0.34163713689E+02 -0.14466656902E+02  0.18191646894E+03  0.17300000000E+03 0.  1.
<mgrwt>
<rscale>  2 0.18134034E+03</rscale>
<asrwt>0</asrwt>
<pdfrwt beam="1">  1       21 0.15743895E-01 0.18134034E+03</pdfrwt>
<pdfrwt beam="2">  1       21 0.83067340E-01 0.18134034E+03</pdfrwt>
<totfact> 0.45607503E+04</totfact>
</mgrwt>
</event>
<event>
 4    2  0.3972096E+000  0.2074466E+03  0.7546771E-02  0.1143604E+00
         21   -1    0    0  501  502  0.00000000000E+00  0.00000000000E+00  0.25032227668E+03  0.25032227668E+03  0.00000000000E+00 0. -1.
         21   -1    0    0  502  503 -0.00000000000E+00 -0.00000000000E+00 -0.52267612546E+03  0.52267612546E+03  0.00000000000E+00 0. -1.
          6    1    1    2  501    0 -0.10704199934E+03  0.40584695684E+02  0.18044290664E+03  0.27494317541E+03  0.17300000000E+03 0. -1.
         -6    1    1    2    0  503  0.10704199934E+03 -0.40584695684E+02 -0.45279675543E+03  0.49805522673E+03  0.17300000000E+03 0. -1.
<mgrwt>
<rscale>  2 0.20744664E+03</rscale>
<asrwt>0</asrwt>
<pdfrwt beam="1">  1       21 0.38511120E-01 0.20744664E+03</pdfrwt>
<pdfrwt beam="2">  1       21 0.80411711E-01 0.20744664E+03</pdfrwt>
<totfact> 0.87474365E+03</totfact>
</mgrwt>
</event>
<event>
 4    2  0.3972096E+000  0.1830123E+03  0.7546771E-02  0.1164919E+00
         21   -1    0    0  503  502  0.00000000000E+00  0.00000000000E+00  0.51855058983E+02  0.51855058983E+02  0.00000000000E+00 0.  1.
         21   -1    0    0  501  503 -0.00000000000E+00 -0.00000000000E+00 -0.71396202358E+03  0.71396202358E+03  0.00000000000E+00 0.  1.
          6    1    1    2  501    0  0.56796925345E+02 -0.18401070080E+02 -0.44927349615E+03  0.48511871171E+03  0.17300000000E+03 0.  1.
         -6    1    1    2    0  502 -0.56796925345E+02  0.18401070080E+02 -0.21283346845E+03  0.28069837085E+03  0.17300000000E+03 0.  1.
<mgrwt>
<rscale>  2 0.18301227E+03</rscale>
<asrwt>0</asrwt>
<pdfrwt beam="1">  1       21 0.79777020E-02 0.18301227E+03</pdfrwt>
<pdfrwt beam="2">  1       21 0.10984030E+00 0.18301227E+03</pdfrwt>
<totfact> 0.79375545E+04</totfact>
</mgrwt>
</event>
<event>
 4    2  0.3972096E+000  0.2541121E+03  0.7546771E-02  0.1110733E+00
         21   -1    0    0  501  502  0.00000000000E+00  0.00000000000E+00  0.19075752259E+04  0.19075752259E+04  0.00000000000E+00 0.  1.
         21   -1    0    0  502  503 -0.00000000000E+00 -0.00000000000E+00 -0.84397369133E+02  0.84397369133E+02  0.00000000000E+00 0. -1.
          6    1    1    2  501    0  0.18612245352E+03 -0.15452934674E+01  0.16823765513E+04  0.17014593195E+04  0.17300000000E+03 0.  1.
         -6    1    1    2    0  503 -0.18612245352E+03  0.15452934674E+01  0.14080130550E+03  0.29051327555E+03  0.17300000000E+03 0. -1.
<mgrwt>
<rscale>  2 0.25411209E+03</rscale>
<asrwt>0</asrwt>
<pdfrwt beam="1">  1       21 0.29347308E+00 0.25411209E+03</pdfrwt>
<pdfrwt beam="2">  1       21 0.12984212E-01 0.25411209E+03</pdfrwt>
<totfact> 0.17715822E+03</totfact>
</mgrwt>
</event>
<event>
 4    2  0.3972096E+000  0.2320019E+03  0.7546771E-02  0.1125239E+00
         21   -1    0    0  501  502  0.00000000000E+00  0.00000000000E+00  0.96991409366E+03  0.96991409366E+03  0.00000000000E+00 0.  1.
         21   -1    0    0  502  503 -0.00000000000E+00 -0.00000000000E+00 -0.82562317890E+02  0.82562317890E+02  0.00000000000E+00 0.  1.
          6    1    1    2  501    0  0.12267932107E+03  0.94051353406E+02  0.74498916214E+03  0.78027797905E+03  0.17300000000E+03 0.  1.
         -6    1    1    2    0  503 -0.12267932107E+03 -0.94051353406E+02  0.14236261364E+03  0.27219843250E+03  0.17300000000E+03 0.  1.
<mgrwt>
<rscale>  2 0.23200188E+03</rscale>
<asrwt>0</asrwt>
<pdfrwt beam="1">  1       21 0.14921754E+00 0.23200188E+03</pdfrwt>
<pdfrwt beam="2">  1       21 0.12701896E-01 0.23200188E+03</pdfrwt>
<totfact> 0.15646305E+04</totfact>
</mgrwt>
</event>
<event>
 4    2  0.3972096E+000  0.2409415E+03  0.7546771E-02  0.1119167E+00
         21   -1    0    0  503  502  0.00000000000E+00  0.00000000000E+00  0.66747424826E+02  0.66747424826E+02  0.00000000000E+00 0. -1.
         21   -1    0    0  501  503 -0.00000000000E+00 -0.00000000000E+00 -0.14058529157E+04  0.14058529157E+04  0.00000000000E+00 0.  1.
          6    1    1    2  501    0  0.12075746038E+03 -0.11636763474E+03 -0.11242410552E+04  0.11497698643E+04  0.17300000000E+03 0.  1.
         -6    1    1    2    0  502 -0.12075746038E+03  0.11636763474E+03 -0.21486443562E+03  0.32283047617E+03  0.17300000000E+03 0. -1.
<mgrwt>
<rscale>  2 0.24094147E+03</rscale>
<asrwt>0</asrwt>
<pdfrwt beam="1">  1       21 0.10268835E-01 0.24094147E+03</pdfrwt>
<pdfrwt beam="2">  1       21 0.21628506E+00 0.24094147E+03</pdfrwt>
<totfact> 0.78887691E+03</totfact>
</mgrwt>
</event>
<event>
 4    2  0.3972096E+000  0.1769022E+03  0.7546771E-02  0.1170835E+00
         21   -1    0    0  501  502  0.00000000000E+00  0.00000000000E+00  0.29910196556E+03  0.29910196556E+03  0.00000000000E+00 0. -1.
         21   -1    0    0  502  503 -0.00000000000E+00 -0.00000000000E+00 -0.18049525523E+03  0.18049525523E+03  0.00000000000E+00 0. -1.
          6    1    1    2  501    0 -0.74878687071E+01  0.36184688545E+02  0.21477147330E+03  0.27824662730E+03  0.17300000000E+03 0. -1.
         -6    1    1    2    0  503  0.74878687071E+01 -0.36184688545E+02 -0.96164762961E+02  0.20135059349E+03  0.17300000000E+03 0. -1.
<mgrwt>
<rscale>  2 0.17690223E+03</rscale>
<asrwt>0</asrwt>
<pdfrwt beam="1">  1       21 0.46015687E-01 0.17690223E+03</pdfrwt>
<pdfrwt beam="2">  1       21 0.27768501E-01 0.17690223E+03</pdfrwt>
<totfact> 0.56439735E+04</totfact>
</mgrwt>
</event>
<event>
 4    2  0.3972096E+000  0.1852548E+03  0.7546771E-02  0.1162812E+00
         21   -1    0    0  501  502  0.00000000000E+00  0.00000000000E+00  0.24708422478E+03  0.24708422478E+03  0.00000000000E+00 0.  1.
         21   -1    0    0  502  503 -0.00000000000E+00 -0.00000000000E+00 -0.20720102504E+03  0.20720102504E+03  0.00000000000E+00 0.  1.
          6    1    1    2  501    0  0.48756788031E+02  0.44867959675E+02  0.15035569857E+03  0.23859210858E+03  0.17300000000E+03 0.  1.
         -6    1    1    2    0  503 -0.48756788031E+02 -0.44867959675E+02 -0.11047249883E+03  0.21569314125E+03  0.17300000000E+03 0.  1.
<mgrwt>
<rscale>  2 0.18525485E+03</rscale>
<asrwt>0</asrwt>
<pdfrwt beam="1">  1       21 0.38012958E-01 0.18525485E+03</pdfrwt>
<pdfrwt beam="2">  1       21 0.31877081E-01 0.18525485E+03</pdfrwt>
<totfact> 0.63363306E+04</totfact>
</mgrwt>
</event>
<event>
 4    2  0.3972096E+000  0.1928525E+03  0.7546771E-02  0.1155913E+00
         21   -1    0    0  503  502  0.00000000000E+00  0.00000000000E+00  0.52556988012E+02  0.52556988012E+02  0.00000000000E+00 0. -1.
         21   -1    0    0  501  503 -0.00000000000E+00 -0.00000000000E+00 -0.10448730480E+04  0.10448730480E+04  0.00000000000E+00 0. -1.
          6    1    1    2  501    0  0.72956323335E+02  0.44050670704E+02 -0.80788333936E+03  0.83058267302E+03  0.17300000000E+03 0. -1.
         -6    1    1    2    0  502 -0.72956323335E+02 -0.44050670704E+02 -0.18443272067E+03  0.26684736303E+03  0.17300000000E+03 0. -1.
<mgrwt>
<rscale>  2 0.19285250E+03</rscale>
<asrwt>0</asrwt>
<pdfrwt beam="1">  1       21 0.80856912E-02 0.19285250E+03</pdfrwt>
<pdfrwt beam="2">  1       21 0.16074969E+00 0.19285250E+03</pdfrwt>
<totfact> 0.29274537E+04</totfact>
</mgrwt>
</event>
<event>
 4    2  0.3972096E+000  0.1903743E+03  0.7546771E-02  0.1158124E+00
         21   -1    0    0  503  502  0.00000000000E+00  0.00000000000E+00  0.96077992947E+02  0.96077992947E+02  0.00000000000E+00 0. -1.
         21   -1    0    0  501  503 -0.00000000000E+00 -0.00000000000E+00 -0.10824987721E+04  0.10824987721E+04  0.00000000000E+00 0. -1.
          6    1    1    2  501    0  0.62551467729E+02 -0.48997004951E+02 -0.96886866094E+03  0.98739499430E+03  0.17300000000E+03 0. -1.
         -6    1    1    2    0  502 -0.62551467729E+02  0.48997004951E+02 -0.17552118201E+02  0.19118177074E+03  0.17300000000E+03 0. -1.
<mgrwt>
<rscale>  2 0.19037435E+03</rscale>
<asrwt>0</asrwt>
<pdfrwt beam="1">  1       21 0.14781230E-01 0.19037435E+03</pdfrwt>
<pdfrwt beam="2">  1       21 0.16653827E+00 0.19037435E+03</pdfrwt>
<totfact> 0.91129492E+03</totfact>
</mgrwt>
</event>
<event>
 4    2  0.3972096E+000  0.1752722E+03  0.7546771E-02  0.1172459E+00
         21   -1    0    0  503  502  0.00000000000E+00  0.00000000000E+00  0.21154332179E+03  0.21154332179E+03  0.00000000000E+00 0. -1.
         21   -1    0    0  501  503 -0.00000000000E+00 -0.00000000000E+00 -0.15033999152E+03  0.15033999152E+03  0.00000000000E+00 0. -1.
          6    1    1    2  501    0  0.20134124982E+01 -0.28058846780E+02 -0.27893484627E+01  0.17529441856E+03  0.17300000000E+03 0.  1.
         -6    1    1    2    0  502 -0.20134124982E+01  0.28058846780E+02  0.63992678728E+02  0.18658889475E+03  0.17300000000E+03 0.  1.
<mgrwt>
<rscale>  2 0.17527222E+03</rscale>
<asrwt>0</asrwt>
<pdfrwt beam="1">  1       21 0.32545127E-01 0.17527222E+03</pdfrwt>
<pdfrwt beam="2">  1       21 0.23129229E-01 0.17527222E+03</pdfrwt>
<totfact> 0.16042751E+05</totfact>
</mgrwt>
</event>
<event>
 4    2  0.3972096E+000  0.1740977E+03  0.7546771E-02  0.1173641E+00
         21   -1    0    0  503  502  0.00000000000E+00  0.00000000000E+00  0.17642253311E+04  0.17642253311E+04  0.00000000000E+00 0.  1.
         21   -1    0    0  501  503 -0.00000000000E+00 -0.00000000000E+00 -0.17246069291E+02  0.17246069291E+02  0.00000000000E+00 0.  1.
          6    1    1    2  501    0  0.11701600959E+02  0.15623301546E+02  0.92847388523E+03  0.94465537132E+03  0.17300000000E+03 0. -1.
         -6    1    1    2    0  502 -0.11701600959E+02 -0.15623301546E+02  0.81850537662E+03  0.83681602911E+03  0.17300000000E+03 0. -1.
<mgrwt>
<rscale>  2 0.17409772E+03</rscale>
<asrwt>0</asrwt>
<pdfrwt beam="1">  1       21 0.27141914E+00 0.17409772E+03</pdfrwt>
<pdfrwt beam="2">  1       21 0.26532428E-02 0.17409772E+03</pdfrwt>
<totfact> 0.39293603E+04</totfact>
</mgrwt>
</event>
<event>
 4    2  0.3972096E+000  0.2007143E+03  0.7546771E-02  0.1149138E+00
         21   -1    0    0  501  502  0.00000000000E+00  0.00000000000E+00  0.13440649945E+03  0.13440649945E+03  0.00000000000E+00 0. -1.
         21   -1    0    0  502  503 -0.00000000000E+00 -0.00000000000E+00 -0.30461993814E+03  0.30461993814E+03  0.00000000000E+00 0.  1.
          6    1    1    2  501    0  0.95874799589E+02  0.34135785107E+02 -0.57306697152E+02  0.20873496727E+03  0.17300000000E+03 0.  1.
         -6    1    1    2    0  503 -0.95874799589E+02 -0.34135785107E+02 -0.11290674153E+03  0.23029147033E+03  0.17300000000E+03 0.  1.
<mgrwt>
<rscale>  2 0.20071430E+03</rscale>
<asrwt>0</asrwt>
<pdfrwt beam="1">  1       21 0.20677923E-01 0.20071430E+03</pdfrwt>
<pdfrwt beam="2">  1       21 0.46864605E-01 0.20071430E+03</pdfrwt>
<totfact> 0.94212428E+04</totfact>
</mgrwt>
</event>
<event>
 4    2  0.3972096E+000  0.2146359E+03  0.7546771E-02  0.1137947E+00
         21   -1    0    0  501  502  0.00000000000E+00  0.00000000000E+00  0.35092048028E+03  0.35092048028E+03  0.00000000000E+00 0.  1.
         21   -1    0    0  502  503 -0.00000000000E+00 -0.00000000000E+00 -0.15940341608E+03  0.15940341608E+03  0.00000000000E+00 0.  1.
          6    1    1    2  501    0  0.10555545979E+03 -0.70693914165E+02  0.20293680818E+03  0.29538438128E+03  0.17300000000E+03 0.  1.
         -6    1    1    2    0  503 -0.10555545979E+03  0.70693914165E+02 -0.11419743976E+02  0.21493951508E+03  0.17300000000E+03 0.  1.
<mgrwt>
<rscale>  2 0.21463593E+03</rscale>
<asrwt>0</asrwt>
<pdfrwt beam="1">  1       21 0.53987766E-01 0.21463593E+03</pdfrwt>
<pdfrwt beam="2">  1       21 0.24523603E-01 0.21463593E+03</pdfrwt>
<totfact> 0.50438356E+04</totfact>
</mgrwt>
</event>
<event>
 4    2  0.3972096E+000  0.1826518E+03  0.7546771E-02  0.1165261E+00
         21   -1    0    0  503  502  0.00000000000E+00  0.00000000000E+00  0.26209555543E+03  0.26209555543E+03  0.00000000000E+00 0. -1.
         21   -1    0    0  501  503 -0.00000000000E+00 -0.00000000000E+00 -0.24445026899E+03  0.24445026899E+03  0.00000000000E+00 0. -1.
          6    1    1    2  501    0 -0.35582125060E+02  0.46546801896E+02 -0.16651971881E+03  0.24716494319E+03  0.17300000000E+03 0. -1.
         -6    1    1    2    0  502  0.35582125060E+02 -0.46546801896E+02  0.18416500525E+03  0.25938088123E+03  0.17300000000E+03 0. -1.
<mgrwt>
<rscale>  2 0.18265183E+03</rscale>
<asrwt>0</asrwt>
<pdfrwt beam="1">  1       21 0.40322393E-01 0.18265183E+03</pdfrwt>
<pdfrwt beam="2">  1       21 0.37607734E-01 0.18265183E+03</pdfrwt>
<totfact> 0.40613719E+04</totfact>
</mgrwt>
</event>
<event>
 4    2  0.3972096E+000  0.1756619E+03  0.7546771E-02  0.1172069E+00
         21   -1    0    0  501  502  0.00000000000E+00  0.00000000000E+00  0.24428963526E+03  0.24428963526E+03  0.00000000000E+00 0. -1.
         21   -1    0    0  502  503 -0.00000000000E+00 -0.00000000000E+00 -0.12714569164E+03  0.12714569164E+03  0.00000000000E+00 0. -1.
          6    1    1    2  501    0  0.20888688341E+02  0.22175907049E+02  0.43548069458E+02  0.18097939802E+03  0.17300000000E+03 0.  1.
         -6    1    1    2    0  503 -0.20888688341E+02 -0.22175907049E+02  0.73595874157E+02  0.19045592888E+03  0.17300000000E+03 0.  1.
<mgrwt>
<rscale>  2 0.17566191E+03</rscale>
<asrwt>0</asrwt>
<pdfrwt beam="1">  1       21 0.37583021E-01 0.17566191E+03</pdfrwt>
<pdfrwt beam="2">  1       21 0.19560876E-01 0.17566191E+03</pdfrwt>
<totfact> 0.16514688E+05</totfact>
</mgrwt>
</event>
<event>
 4    2  0.3972096E+000  0.1836186E+03  0.7546771E-02  0.1164346E+00
         21   -1    0    0  503  502  0.00000000000E+00  0.00000000000E+00  0.78192708235E+02  0.78192708235E+02  0.00000000000E+00 0.  1.
         21   -1    0    0  501  503 -0.00000000000E+00 -0.00000000000E+00 -0.46301060853E+03  0.46301060853E+03  0.00000000000E+00 0.  1.
          6    1    1    2  501    0  0.83845976048E+01 -0.60962916875E+02 -0.26335055652E+03  0.32104406914E+03  0.17300000000E+03 0.  1.
         -6    1    1    2    0  502 -0.83845976048E+01  0.60962916875E+02 -0.12146734378E+03  0.22015924763E+03  0.17300000000E+03 0.  1.
<mgrwt>
<rscale>  2 0.18361857E+03</rscale>
<asrwt>0</asrwt>
<pdfrwt beam="1">  1       21 0.12029647E-01 0.18361857E+03</pdfrwt>
<pdfrwt beam="2">  1       21 0.71232402E-01 0.18361857E+03</pdfrwt>
<totfact> 0.10452010E+05</totfact>
</mgrwt>
</event>
<event>
 4    2  0.3972096E+000  0.1767136E+03  0.7546771E-02  0.1171022E+00
         21   -1    0    0  501  502  0.00000000000E+00  0.00000000000E+00  0.18541153191E+03  0.18541153191E+03  0.00000000000E+00 0. -1.
         21   -1    0    0  502  503 -0.00000000000E+00 -0.00000000000E+00 -0.17819736827E+03  0.17819736827E+03  0.00000000000E+00 0. -1.
          6    1    1    2  501    0  0.35987145468E+02  0.18996561290E+01  0.46184978996E+02  0.18264921466E+03  0.17300000000E+03 0. -1.
         -6    1    1    2    0  503 -0.35987145468E+02 -0.18996561290E+01 -0.38970815362E+02  0.18095968552E+03  0.17300000000E+03 0. -1.
<mgrwt>
<rscale>  2 0.17671356E+03</rscale>
<asrwt>0</asrwt>
<pdfrwt beam="1">  1       21 0.28524851E-01 0.17671356E+03</pdfrwt>
<pdfrwt beam="2">  1       21 0.27414980E-01 0.17671356E+03</pdfrwt>
<totfact> 0.14992575E+05</totfact>
</mgrwt>
</event>
<event>
 4    2  0.3972096E+000  0.1981563E+03  0.7546771E-02  0.1151304E+00
         21   -1    0    0  503  502  0.00000000000E+00  0.00000000000E+00  0.23005916426E+03  0.23005916426E+03  0.00000000000E+00 0.  1.
         21   -1    0    0  501  503 -0.00000000000E+00 -0.00000000000E+00 -0.29711741542E+03  0.29711741542E+03  0.00000000000E+00 0. -1.
          6    1    1    2  501    0 -0.57230693538E+02  0.77856057980E+02 -0.20547992272E+03  0.28546088469E+03  0.17300000000E+03 0. -1.
         -6    1    1    2    0  502  0.57230693538E+02 -0.77856057980E+02  0.13842167157E+03  0.24171569499E+03  0.17300000000E+03 0.  1.
<mgrwt>
<rscale>  2 0.19815630E+03</rscale>
<asrwt>0</asrwt>
<pdfrwt beam="1">  1       21 0.35393718E-01 0.19815630E+03</pdfrwt>
<pdfrwt beam="2">  1       21 0.45710371E-01 0.19815630E+03</pdfrwt>
<totfact> 0.35212358E+04</totfact>
</mgrwt>
</event>
<event>
 4    2  0.3972096E+000  0.2410332E+03  0.7546771E-02  0.1119106E+00
         21   -1    0    0  501  502  0.00000000000E+00  0.00000000000E+00  0.21927871174E+03  0.21927871174E+03  0.00000000000E+00 0.  1.
         21   -1    0    0  502  503 -0.00000000000E+00 -0.00000000000E+00 -0.35939088102E+03  0.35939088102E+03  0.00000000000E+00 0.  1.
          6    1    1    2  501    0  0.85496332533E+02 -0.14442423215E+03  0.78266309715E+02  0.25342177678E+03  0.17300000000E+03 0.  1.
         -6    1    1    2    0  503 -0.85496332533E+02  0.14442423215E+03 -0.21837847900E+03  0.32524781598E+03  0.17300000000E+03 0.  1.
<mgrwt>
<rscale>  2 0.24103315E+03</rscale>
<asrwt>0</asrwt>
<pdfrwt beam="1">  1       21 0.33735186E-01 0.24103315E+03</pdfrwt>
<pdfrwt beam="2">  1       21 0.55290905E-01 0.24103315E+03</pdfrwt>
<totfact> 0.25448622E+04</totfact>
</mgrwt>
</event>
<event>
 4    2  0.3972096E+000  0.2744118E+03  0.7546771E-02  0.1098781E+00
         21   -1    0    0  503  502  0.00000000000E+00  0.00000000000E+00  0.14482819131E+03  0.14482819131E+03  0.00000000000E+00 0. -1.
         21   -1    0    0  501  503 -0.00000000000E+00 -0.00000000000E+00 -0.53028119977E+03  0.53028119977E+03  0.00000000000E+00 0.  1.
          6    1    1    2  501    0  0.18869001072E+03 -0.98837744319E+02 -0.23986744456E+03  0.36446976665E+03  0.17300000000E+03 0. -1.
         -6    1    1    2    0  502 -0.18869001072E+03  0.98837744319E+02 -0.14558556390E+03  0.31063962442E+03  0.17300000000E+03 0.  1.
<mgrwt>
<rscale>  2 0.27441177E+03</rscale>
<asrwt>0</asrwt>
<pdfrwt beam="1">  1       21 0.22281260E-01 0.27441177E+03</pdfrwt>
<pdfrwt beam="2">  1       21 0.81581723E-01 0.27441177E+03</pdfrwt>
<totfact> 0.23786052E+04</totfact>
</mgrwt>
</event>
<event>
 4    2  0.3972096E+000  0.1869595E+03  0.7546771E-02  0.1161233E+00
         21   -1    0    0  501  502  0.00000000000E+00  0.00000000000E+00  0.20624193445E+03  0.20624193445E+03  0.00000000000E+00 0. -1.
         21   -1    0    0  502  503 -0.00000000000E+00 -0.00000000000E+00 -0.21990060954E+03  0.21990060954E+03  0.00000000000E+00 0.  1.
          6    1    1    2  501    0  0.54616543305E+02 -0.45187436389E+02  0.95197864049E+02  0.20980110707E+03  0.17300000000E+03 0. -1.
         -6    1    1    2    0  503 -0.54616543305E+02  0.45187436389E+02 -0.10885653914E+03  0.21634143691E+03  0.17300000000E+03 0.  1.
<mgrwt>
<rscale>  2 0.18695954E+03</rscale>
<asrwt>0</asrwt>
<pdfrwt beam="1">  1       21 0.31729529E-01 0.18695954E+03</pdfrwt>
<pdfrwt beam="2">  1       21 0.33830863E-01 0.18695954E+03</pdfrwt>
<totfact> 0.80569447E+04</totfact>
</mgrwt>
</event>
<event>
 4    2  0.3972096E+000  0.1802984E+03  0.7546771E-02  0.1167515E+00
         21   -1    0    0  503  502  0.00000000000E+00  0.00000000000E+00  0.44435591556E+02  0.44435591556E+02  0.00000000000E+00 0. -1.
         21   -1    0    0  501  503 -0.00000000000E+00 -0.00000000000E+00 -0.77460194810E+03  0.77460194810E+03  0.00000000000E+00 0. -1.
          6    1    1    2  501    0 -0.47023231714E+02  0.19165776918E+02 -0.26855443784E+03  0.32346405891E+03  0.17300000000E+03 0. -1.
         -6    1    1    2    0  502  0.47023231714E+02 -0.19165776918E+02 -0.46161191871E+03  0.49557348075E+03  0.17300000000E+03 0. -1.
<mgrwt>
<rscale>  2 0.18029840E+03</rscale>
<asrwt>0</asrwt>
<pdfrwt beam="1">  1       21 0.68362458E-02 0.18029840E+03</pdfrwt>
<pdfrwt beam="2">  1       21 0.11916951E+00 0.18029840E+03</pdfrwt>
<totfact> 0.85133481E+04</totfact>
</mgrwt>
</event>
<event>
 4    2  0.3972096E+000  0.1815838E+03  0.7546771E-02  0.1166279E+00
         21   -1    0    0  501  502  0.00000000000E+00  0.00000000000E+00  0.29738361171E+03  0.29738361171E+03  0.00000000000E+00 0.  1.
         21   -1    0    0  502  503 -0.00000000000E+00 -0.00000000000E+00 -0.18750188644E+03  0.18750188644E+03  0.00000000000E+00 0.  1.
          6    1    1    2  501    0  0.39114161430E+02 -0.38907091213E+02  0.20992754516E+03  0.27756486375E+03  0.17300000000E+03 0.  1.
         -6    1    1    2    0  503 -0.39114161430E+02  0.38907091213E+02 -0.10004581989E+03  0.20732063440E+03  0.17300000000E+03 0.  1.
<mgrwt>
<rscale>  2 0.18158381E+03</rscale>
<asrwt>0</asrwt>
<pdfrwt beam="1">  1       21 0.45751325E-01 0.18158381E+03</pdfrwt>
<pdfrwt beam="2">  1       21 0.28846444E-01 0.18158381E+03</pdfrwt>
<totfact> 0.52942636E+04</totfact>
</mgrwt>
</event>
<event>
 4    2  0.3972096E+000  0.1787769E+03  0.7546771E-02  0.1168992E+00
         21   -1    0    0  503  502  0.00000000000E+00  0.00000000000E+00  0.22038616733E+03  0.22038616733E+03  0.00000000000E+00 0.  1.
         21   -1    0    0  501  503 -0.00000000000E+00 -0.00000000000E+00 -0.17646203378E+03  0.17646203378E+03  0.00000000000E+00 0.  1.
          6    1    1    2  501    0 -0.39276475890E+02 -0.22125283949E+02 -0.61790868079E+02  0.18915412003E+03  0.17300000000E+03 0.  1.
         -6    1    1    2    0  502  0.39276475890E+02  0.22125283949E+02  0.10571500163E+03  0.20769408108E+03  0.17300000000E+03 0.  1.
<mgrwt>
<rscale>  2 0.17877687E+03</rscale>
<asrwt>0</asrwt>
<pdfrwt beam="1">  1       21 0.33905564E-01 0.17877687E+03</pdfrwt>
<pdfrwt beam="2">  1       21 0.27148005E-01 0.17877687E+03</pdfrwt>
<totfact> 0.10893081E+05</totfact>
</mgrwt>
</event>
<event>
 4    2  0.3972096E+000  0.1878998E+03  0.7546771E-02  0.1160369E+00
         21   -1    0    0  501  502  0.00000000000E+00  0.00000000000E+00  0.21777770588E+03  0.21777770588E+03  0.00000000000E+00 0.  1.
         21   -1    0    0  502  503 -0.00000000000E+00 -0.00000000000E+00 -0.48383001336E+03  0.48383001336E+03  0.00000000000E+00 0. -1.
          6    1    1    2  501    0 -0.46403061946E+02 -0.56781235400E+02  0.15302883955E+03  0.24233072151E+03  0.17300000000E+03 0.  1.
         -6    1    1    2    0  503  0.46403061946E+02  0.56781235400E+02 -0.41908114703E+03  0.45927699774E+03  0.17300000000E+03 0. -1.
<mgrwt>
<rscale>  2 0.18789985E+03</rscale>
<asrwt>0</asrwt>
<pdfrwt beam="1">  1       21 0.33504263E-01 0.18789985E+03</pdfrwt>
<pdfrwt beam="2">  1       21 0.74435386E-01 0.18789985E+03</pdfrwt>
<totfact> 0.13916300E+04</totfact>
</mgrwt>
</event>
<event>
 4    2  0.3972096E+000  0.2415273E+03  0.7546771E-02  0.1118780E+00
         21   -1    0    0  503  502  0.00000000000E+00  0.00000000000E+00  0.30236777966E+03  0.30236777966E+03  0.00000000000E+00 0. -1.
         21   -1    0    0  501  503 -0.00000000000E+00 -0.00000000000E+00 -0.28509228509E+03  0.28509228509E+03  0.00000000000E+00 0.  1.
          6    1    1    2  501    0  0.15025382529E+03 -0.76356008253E+02 -0.15836940546E+03  0.28881883698E+03  0.17300000000E+03 0.  1.
         -6    1    1    2    0  502 -0.15025382529E+03  0.76356008253E+02  0.17564490003E+03  0.29864122776E+03  0.17300000000E+03 0. -1.
<mgrwt>
<rscale>  2 0.24152733E+03</rscale>
<asrwt>0</asrwt>
<pdfrwt beam="1">  1       21 0.46518120E-01 0.24152733E+03</pdfrwt>
<pdfrwt beam="2">  1       21 0.43860352E-01 0.24152733E+03</pdfrwt>
<totfact> 0.21521784E+04</totfact>
</mgrwt>
</event>
<event>
 4    2  0.3972096E+000  0.1953160E+03  0.7546771E-02  0.1153752E+00
         21   -1    0    0  503  502  0.00000000000E+00  0.00000000000E+00  0.43700129575E+02  0.43700129575E+02  0.00000000000E+00 0.  1.
         21   -1    0    0  501  503 -0.00000000000E+00 -0.00000000000E+00 -0.93167891357E+03  0.93167891357E+03  0.00000000000E+00 0.  1.
          6    1    1    2  501    0  0.37519299862E+01 -0.90582893384E+02 -0.56642566233E+03  0.59915471166E+03  0.17300000000E+03 0. -1.
         -6    1    1    2    0  502 -0.37519299862E+01  0.90582893384E+02 -0.32155312167E+03  0.37622433149E+03  0.17300000000E+03 0. -1.
<mgrwt>
<rscale>  2 0.19531599E+03</rscale>
<asrwt>0</asrwt>
<pdfrwt beam="1">  1       21 0.67230968E-02 0.19531599E+03</pdfrwt>
<pdfrwt beam="2">  1       21 0.14333522E+00 0.19531599E+03</pdfrwt>
<totfact> 0.54515902E+04</totfact>
</mgrwt>
</event>
<event>
 4    2  0.3972096E+000  0.1948262E+03  0.7546771E-02  0.1154179E+00
         21   -1    0    0  501  502  0.00000000000E+00  0.00000000000E+00  0.91983756959E+03  0.91983756959E+03  0.00000000000E+00 0.  1.
         21   -1    0    0  502  503 -0.00000000000E+00 -0.00000000000E+00 -0.41542378483E+02  0.41542378483E+02  0.00000000000E+00 0. -1.
          6    1    1    2  501    0  0.76189492427E+02  0.47153067939E+02  0.47841437567E+03  0.51656322500E+03  0.17300000000E+03 0.  1.
         -6    1    1    2    0  503 -0.76189492427E+02 -0.47153067939E+02  0.39988081543E+03  0.44481672307E+03  0.17300000000E+03 0. -1.
<mgrwt>
<rscale>  2 0.19482621E+03</rscale>
<asrwt>0</asrwt>
<pdfrwt beam="1">  1       21 0.14151346E+00 0.19482621E+03</pdfrwt>
<pdfrwt beam="2">  1       21 0.63911358E-02 0.19482621E+03</pdfrwt>
<totfact> 0.61506701E+04</totfact>
</mgrwt>
</event>
<event>
 4    2  0.3972096E+000  0.2564446E+03  0.7546771E-02  0.1109298E+00
         21   -1    0    0  503  502  0.00000000000E+00  0.00000000000E+00  0.44851247675E+03  0.44851247675E+03  0.00000000000E+00 0. -1.
         21   -1    0    0  501  503 -0.00000000000E+00 -0.00000000000E+00 -0.27260845655E+03  0.27260845655E+03  0.00000000000E+00 0. -1.
          6    1    1    2  501    0  0.27060414373E+02  0.18735685838E+03 -0.15715879222E+03  0.30077025182E+03  0.17300000000E+03 0. -1.
         -6    1    1    2    0  502 -0.27060414373E+02 -0.18735685838E+03  0.33306281242E+03  0.42035068148E+03  0.17300000000E+03 0. -1.
<mgrwt>
<rscale>  2 0.25644465E+03</rscale>
<asrwt>0</asrwt>
<pdfrwt beam="1">  1       21 0.69001920E-01 0.25644465E+03</pdfrwt>
<pdfrwt beam="2">  1       21 0.41939763E-01 0.25644465E+03</pdfrwt>
<totfact> 0.10062671E+04</totfact>
</mgrwt>
</event>
<event>
 4    2  0.3972096E+000  0.2714872E+03  0.7546771E-02  0.1100431E+00
         21   -1    0    0  501  502  0.00000000000E+00  0.00000000000E+00  0.87250395207E+02  0.87250395207E+02  0.00000000000E+00 0. -1.
         21   -1    0    0  502  503 -0.00000000000E+00 -0.00000000000E+00 -0.10893445124E+04  0.10893445124E+04  0.00000000000E+00 0.  1.
          6    1    1    2  501    0  0.96314456756E+02 -0.18574126637E+03 -0.22228581432E+03  0.35087928959E+03  0.17300000000E+03 0. -1.
         -6    1    1    2    0  503 -0.96314456756E+02  0.18574126637E+03 -0.77980830289E+03  0.82571561804E+03  0.17300000000E+03 0.  1.
<mgrwt>
<rscale>  2 0.27148719E+03</rscale>
<asrwt>0</asrwt>
<pdfrwt beam="1">  1       21 0.13423138E-01 0.27148719E+03</pdfrwt>
<pdfrwt beam="2">  1       21 0.16759146E+00 0.27148719E+03</pdfrwt>
<totfact> 0.10095359E+04</totfact>
</mgrwt>
</event>
<event>
 4    2  0.3972096E+000  0.2637586E+03  0.7546771E-02  0.1104906E+00
         21   -1    0    0  503  502  0.00000000000E+00  0.00000000000E+00  0.25022162525E+03  0.25022162525E+03  0.00000000000E+00 0.  1.
         21   -1    0    0  501  503 -0.00000000000E+00 -0.00000000000E+00 -0.34234494534E+03  0.34234494534E+03  0.00000000000E+00 0.  1.
          6    1    1    2  501    0 -0.38239378682E+02 -0.19539025008E+03 -0.17448327914E+03  0.31624834325E+03  0.17300000000E+03 0.  1.
         -6    1    1    2    0  502  0.38239378682E+02  0.19539025008E+03  0.82359959053E+02  0.27631822735E+03  0.17300000000E+03 0.  1.
<mgrwt>
<rscale>  2 0.26375860E+03</rscale>
<asrwt>0</asrwt>
<pdfrwt beam="1">  1       21 0.38495634E-01 0.26375860E+03</pdfrwt>
<pdfrwt beam="2">  1       21 0.52668453E-01 0.26375860E+03</pdfrwt>
<totfact> 0.21427570E+04</totfact>
</mgrwt>
</event>
<event>
 4    2  0.3972096E+000  0.1784928E+03  0.7546771E-02  0.1169270E+00
         21   -1    0    0  501  502  0.00000000000E+00  0.00000000000E+00  0.51333128565E+02  0.51333128565E+02  0.00000000000E+00 0.  1.
         21   -1    0    0  502  503 -0.00000000000E+00 -0.00000000000E+00 -0.90416251447E+03  0.90416251447E+03  0.00000000000E+00 0.  1.
          6    1    1    2  501    0 -0.43929786491E+02  0.91746152244E+00 -0.15888922035E+03  0.23896747105E+03  0.17300000000E+03 0. -1.
         -6    1    1    2    0  503  0.43929786491E+02 -0.91746152244E+00 -0.69394016556E+03  0.71652817199E+03  0.17300000000E+03 0. -1.
<mgrwt>
<rscale>  2 0.17849277E+03</rscale>
<asrwt>0</asrwt>
<pdfrwt beam="1">  1       21 0.78974042E-02 0.17849277E+03</pdfrwt>
<pdfrwt beam="2">  1       21 0.13910193E+00 0.17849277E+03</pdfrwt>
<totfact> 0.45007086E+04</totfact>
</mgrwt>
</event>
<event>
 4    2  0.3972096E+000  0.2559726E+03  0.7546771E-02  0.1109587E+00
         21   -1    0    0  501  502  0.00000000000E+00  0.00000000000E+00  0.43443920042E+03  0.43443920042E+03  0.00000000000E+00 0.  1.
         21   -1    0    0  502  503 -0.00000000000E+00 -0.00000000000E+00 -0.29322178402E+03  0.29322178402E+03  0.00000000000E+00 0.  1.
          6    1    1    2  501    0 -0.13513452209E+03 -0.13164962231E+03 -0.18293874240E+03  0.31462445167E+03  0.17300000000E+03 0.  1.
         -6    1    1    2    0  503  0.13513452209E+03  0.13164962231E+03  0.32415615880E+03  0.41303653277E+03  0.17300000000E+03 0.  1.
<mgrwt>
<rscale>  2 0.25597258E+03</rscale>
<asrwt>0</asrwt>
<pdfrwt beam="1">  1       21 0.66836800E-01 0.25597258E+03</pdfrwt>
<pdfrwt beam="2">  1       21 0.45111044E-01 0.25597258E+03</pdfrwt>
<totfact> 0.92951198E+03</totfact>
</mgrwt>
</event>
<event>
 4    2  0.3972096E+000  0.2401967E+03  0.7546771E-02  0.1119662E+00
         21   -1    0    0  501  502  0.00000000000E+00  0.00000000000E+00  0.79034011855E+03  0.79034011855E+03  0.00000000000E+00 0.  1.
         21   -1    0    0  502  503 -0.00000000000E+00 -0.00000000000E+00 -0.82841197653E+02  0.82841197653E+02  0.00000000000E+00 0. -1.
          6    1    1    2  501    0 -0.60351087503E+02 -0.15531646324E+03  0.50423182018E+03  0.55851963797E+03  0.17300000000E+03 0.  1.
         -6    1    1    2    0  503  0.60351087503E+02  0.15531646324E+03  0.20326710072E+03  0.31466167823E+03  0.17300000000E+03 0. -1.
<mgrwt>
<rscale>  2 0.24019671E+03</rscale>
<asrwt>0</asrwt>
<pdfrwt beam="1">  1       21 0.12159078E+00 0.24019671E+03</pdfrwt>
<pdfrwt beam="2">  1       21 0.12744800E-01 0.24019671E+03</pdfrwt>
<totfact> 0.26209886E+04</totfact>
</mgrwt>
</event>
<event>
 4    2  0.3972096E+000  0.1880419E+03  0.7546771E-02  0.1160239E+00
         21   -1    0    0  501  502  0.00000000000E+00  0.00000000000E+00  0.81131480355E+02  0.81131480355E+02  0.00000000000E+00 0. -1.
         21   -1    0    0  502  503 -0.00000000000E+00 -0.00000000000E+00 -0.50339961297E+03  0.50339961297E+03  0.00000000000E+00 0. -1.
          6    1    1    2  501    0 -0.65009188629E+02 -0.34706604292E+02 -0.10405894268E+03  0.21491395147E+03  0.17300000000E+03 0. -1.
         -6    1    1    2    0  503  0.65009188629E+02  0.34706604292E+02 -0.31820918994E+03  0.36961714185E+03  0.17300000000E+03 0. -1.
<mgrwt>
<rscale>  2 0.18804186E+03</rscale>
<asrwt>0</asrwt>
<pdfrwt beam="1">  1       21 0.12481766E-01 0.18804186E+03</pdfrwt>
<pdfrwt beam="2">  1       21 0.77446096E-01 0.18804186E+03</pdfrwt>
<totfact> 0.81073618E+04</totfact>
</mgrwt>
</event>
<event>
 4    2  0.3972096E+000  0.2034700E+03  0.7546771E-02  0.1146844E+00
         21   -1    0    0  501  502  0.00000000000E+00  0.00000000000E+00  0.11317222101E+03  0.11317222101E+03  0.00000000000E+00 0. -1.
         21   -1    0    0  502  503 -0.00000000000E+00 -0.00000000000E+00 -0.37453259796E+03  0.37453259796E+03  0.00000000000E+00 0. -1.
          6    1    1    2  501    0 -0.65533929118E+02 -0.84713309579E+02 -0.93475914094E+02  0.22391468733E+03  0.17300000000E+03 0. -1.
         -6    1    1    2    0  503  0.65533929118E+02  0.84713309579E+02 -0.16788446285E+03  0.26379013164E+03  0.17300000000E+03 0. -1.
<mgrwt>
<rscale>  2 0.20347000E+03</rscale>
<asrwt>0</asrwt>
<pdfrwt beam="1">  1       21 0.17411111E-01 0.20347000E+03</pdfrwt>
<pdfrwt beam="2">  1       21 0.57620400E-01 0.20347000E+03</pdfrwt>
<totfact> 0.83965614E+04</totfact>
</mgrwt>
</event>
<event>
 4    2  0.3972096E+000  0.2364754E+03  0.7546771E-02  0.1122163E+00
         21   -1    0    0  503  502  0.00000000000E+00  0.00000000000E+00  0.48484092372E+03  0.48484092372E+03  0.00000000000E+00 0.  1.
         21   -1    0    0  501  503 -0.00000000000E+00 -0.00000000000E+00 -0.27874897829E+03  0.27874897829E+03  0.00000000000E+00 0.  1.
          6    1    1    2  501    0 -0.10903106696E+03  0.11875956692E+03 -0.18927776491E+03  0.30289714523E+03  0.17300000000E+03 0.  1.
         -6    1    1    2    0  502  0.10903106696E+03 -0.11875956692E+03  0.39536971035E+03  0.46069275679E+03  0.17300000000E+03 0.  1.
<mgrwt>
<rscale>  2 0.23647539E+03</rscale>
<asrwt>0</asrwt>
<pdfrwt beam="1">  1       21 0.74590911E-01 0.23647539E+03</pdfrwt>
<pdfrwt beam="2">  1       21 0.42884458E-01 0.23647539E+03</pdfrwt>
<totfact> 0.81733767E+03</totfact>
</mgrwt>
</event>
<event>
 4    2  0.3972096E+000  0.1734369E+03  0.7546771E-02  0.1174310E+00
         21   -1    0    0  503  502  0.00000000000E+00  0.00000000000E+00  0.91611598741E+03  0.91611598741E+03  0.00000000000E+00 0.  1.
         21   -1    0    0  501  503 -0.00000000000E+00 -0.00000000000E+00 -0.66484210787E+02  0.66484210787E+02  0.00000000000E+00 0.  1.
          6    1    1    2  501    0  0.68493064023E+01 -0.10219080030E+02  0.75291624589E+02  0.18907451263E+03  0.17300000000E+03 0.  1.
         -6    1    1    2    0  502 -0.68493064023E+01  0.10219080030E+02  0.77434015204E+03  0.79352568557E+03  0.17300000000E+03 0.  1.
<mgrwt>
<rscale>  2 0.17343685E+03</rscale>
<asrwt>0</asrwt>
<pdfrwt beam="1">  1       21 0.14094091E+00 0.17343685E+03</pdfrwt>
<pdfrwt beam="2">  1       21 0.10228341E-01 0.17343685E+03</pdfrwt>
<totfact> 0.27755328E+04</totfact>
</mgrwt>
</event>
<event>
 4    2  0.3972096E+000  0.2477703E+03  0.7546771E-02  0.1114722E+00
         21   -1    0    0  503  502  0.00000000000E+00  0.00000000000E+00  0.51793720554E+02  0.51793720554E+02  0.00000000000E+00 0.  1.
         21   -1    0    0  501  503 -0.00000000000E+00 -0.00000000000E+00 -0.12679984913E+04  0.12679984913E+04  0.00000000000E+00 0. -1.
          6    1    1    2  501    0  0.13538922280E+03 -0.11459003780E+03 -0.77664688907E+03  0.81521194098E+03  0.17300000000E+03 0. -1.
         -6    1    1    2    0  502 -0.13538922280E+03  0.11459003780E+03 -0.43955788168E+03  0.50458027088E+03  0.17300000000E+03 0.  1.
<mgrwt>
<rscale>  2 0.24777029E+03</rscale>
<asrwt>0</asrwt>
<pdfrwt beam="1">  1       21 0.79682642E-02 0.24777029E+03</pdfrwt>
<pdfrwt beam="2">  1       21 0.19507670E+00 0.24777029E+03</pdfrwt>
<totfact> 0.16798128E+04</totfact>
</mgrwt>
</event>
<event>
 4    2  0.3972096E+000  0.3533269E+03  0.7546771E-02  0.1061258E+00
         21   -1    0    0  503  502  0.00000000000E+00  0.00000000000E+00  0.75166999341E+03  0.75166999341E+03  0.00000000000E+00 0. -1.
         21   -1    0    0  501  503 -0.00000000000E+00 -0.00000000000E+00 -0.22798044310E+03  0.22798044310E+03  0.00000000000E+00 0. -1.
          6    1    1    2  501    0 -0.12907870729E+03 -0.27973132841E+03  0.66174322210E+01  0.35338890641E+03  0.17300000000E+03 0. -1.
         -6    1    1    2    0  502  0.12907870729E+03  0.27973132841E+03  0.51707211809E+03  0.62626153010E+03  0.17300000000E+03 0. -1.
<mgrwt>
<rscale>  2 0.35332694E+03</rscale>
<asrwt>0</asrwt>
<pdfrwt beam="1">  1       21 0.11564154E+00 0.35332694E+03</pdfrwt>
<pdfrwt beam="2">  1       21 0.35073915E-01 0.35332694E+03</pdfrwt>
<totfact> 0.41090006E+03</totfact>
</mgrwt>
</event>
<event>
 4    2  0.3972096E+000  0.1817457E+03  0.7546771E-02  0.1166124E+00
         21   -1    0    0  503  502  0.00000000000E+00  0.00000000000E+00  0.89837274748E+03  0.89837274748E+03  0.00000000000E+00 0. -1.
         21   -1    0    0  501  503 -0.00000000000E+00 -0.00000000000E+00 -0.10442813264E+03  0.10442813264E+03  0.00000000000E+00 0.  1.
          6    1    1    2  501    0 -0.55182320507E+02  0.75764114277E+01 -0.66191300130E+01  0.18186616890E+03  0.17300000000E+03 0.  1.
         -6    1    1    2    0  502  0.55182320507E+02 -0.75764114277E+01  0.80056374485E+03  0.82093471122E+03  0.17300000000E+03 0. -1.
<mgrwt>
<rscale>  2 0.18174568E+03</rscale>
<asrwt>0</asrwt>
<pdfrwt beam="1">  1       21 0.13821119E+00 0.18174568E+03</pdfrwt>
<pdfrwt beam="2">  1       21 0.16065867E-01 0.18174568E+03</pdfrwt>
<totfact> 0.12901379E+04</totfact>
</mgrwt>
</event>
<event>
 4    2  0.3972096E+000  0.1789256E+03  0.7546771E-02  0.1168847E+00
         21   -1    0    0  503  502  0.00000000000E+00  0.00000000000E+00  0.98705903534E+02  0.98705903534E+02  0.00000000000E+00 0. -1.
         21   -1    0    0  501  503 -0.00000000000E+00 -0.00000000000E+00 -0.65924550062E+03  0.65924550062E+03  0.00000000000E+00 0. -1.
          6    1    1    2  501    0  0.33614316843E+02  0.30910357171E+02 -0.55038452623E+03  0.57873785014E+03  0.17300000000E+03 0. -1.
         -6    1    1    2    0  502 -0.33614316843E+02 -0.30910357171E+02 -0.10155070858E+02  0.17921355401E+03  0.17300000000E+03 0. -1.
<mgrwt>
<rscale>  2 0.17892561E+03</rscale>
<asrwt>0</asrwt>
<pdfrwt beam="1">  1       21 0.15185523E-01 0.17892561E+03</pdfrwt>
<pdfrwt beam="2">  1       21 0.10142239E+00 0.17892561E+03</pdfrwt>
<totfact> 0.30687663E+04</totfact>
</mgrwt>
</event>
<event>
 4    2  0.3972096E+000  0.1899912E+03  0.7546771E-02  0.1158469E+00
         21   -1    0    0  501  502  0.00000000000E+00  0.00000000000E+00  0.37346907927E+02  0.37346907927E+02  0.00000000000E+00 0. -1.
         21   -1    0    0  502  503 -0.00000000000E+00 -0.00000000000E+00 -0.10140367900E+04  0.10140367900E+04  0.00000000000E+00 0. -1.
          6    1    1    2  501    0 -0.77104352156E+02  0.14919549419E+02 -0.37455320422E+03  0.41998425788E+03  0.17300000000E+03 0. -1.
         -6    1    1    2    0  503  0.77104352156E+02 -0.14919549419E+02 -0.60213667787E+03  0.63139944006E+03  0.17300000000E+03 0. -1.
<mgrwt>
<rscale>  2 0.18999125E+03</rscale>
<asrwt>0</asrwt>
<pdfrwt beam="1">  1       21 0.57456794E-02 0.18999125E+03</pdfrwt>
<pdfrwt beam="2">  1       21 0.15600563E+00 0.18999125E+03</pdfrwt>
<totfact> 0.57283315E+04</totfact>
</mgrwt>
</event>
<event>
 4    2  0.3972096E+000  0.2819889E+03  0.7546771E-02  0.1094608E+00
         21   -1    0    0  501  502  0.00000000000E+00  0.00000000000E+00  0.99412654766E+02  0.99412654766E+02  0.00000000000E+00 0. -1.
         21   -1    0    0  502  503 -0.00000000000E+00 -0.00000000000E+00 -0.17669831091E+04  0.17669831091E+04  0.00000000000E+00 0.  1.
          6    1    1    2  501    0 -0.11830883002E+03 -0.18865780976E+03 -0.14339451188E+03  0.31635381218E+03  0.17300000000E+03 0. -1.
         -6    1    1    2    0  503  0.11830883002E+03  0.18865780976E+03 -0.15241759424E+04  0.15500419517E+04  0.17300000000E+03 0.  1.
<mgrwt>
<rscale>  2 0.28198892E+03</rscale>
<asrwt>0</asrwt>
<pdfrwt beam="1">  1       21 0.15294255E-01 0.28198892E+03</pdfrwt>
<pdfrwt beam="2">  1       21 0.27184354E+00 0.28198892E+03</pdfrwt>
<totfact> 0.17165405E+03</totfact>
</mgrwt>
</event>
<event>
 4    2  0.3972096E+000  0.2052593E+03  0.7546771E-02  0.1145376E+00
         21   -1    0    0  503  502  0.00000000000E+00  0.00000000000E+00  0.12866180561E+03  0.12866180561E+03  0.00000000000E+00 0.  1.
         21   -1    0    0  501  503 -0.00000000000E+00 -0.00000000000E+00 -0.36432766683E+03  0.36432766683E+03  0.00000000000E+00 0.  1.
          6    1    1    2  501    0  0.97393663558E+02 -0.52123639032E+02 -0.19624688325E+03  0.28397929261E+03  0.17300000000E+03 0.  1.
         -6    1    1    2    0  502 -0.97393663558E+02  0.52123639032E+02 -0.39418977963E+02  0.20901017983E+03  0.17300000000E+03 0.  1.
<mgrwt>
<rscale>  2 0.20525935E+03</rscale>
<asrwt>0</asrwt>
<pdfrwt beam="1">  1       21 0.19794124E-01 0.20525935E+03</pdfrwt>
<pdfrwt beam="2">  1       21 0.56050410E-01 0.20525935E+03</pdfrwt>
<totfact> 0.70122873E+04</totfact>
</mgrwt>
</event>
<event>
 4    2  0.3972096E+000  0.1814089E+03  0.7546771E-02  0.1166446E+00
         21   -1    0    0  503  502  0.00000000000E+00  0.00000000000E+00  0.15278710625E+03  0.15278710625E+03  0.00000000000E+00 0.  1.
         21   -1    0    0  501  503 -0.00000000000E+00 -0.00000000000E+00 -0.42129407199E+03  0.42129407199E+03  0.00000000000E+00 0.  1.
          6    1    1    2  501    0 -0.53982813379E+02  0.81267834924E+01 -0.33492259319E+03  0.38089674740E+03  0.17300000000E+03 0.  1.
         -6    1    1    2    0  502  0.53982813379E+02 -0.81267834924E+01  0.66415627455E+02  0.19318443084E+03  0.17300000000E+03 0.  1.
<mgrwt>
<rscale>  2 0.18140890E+03</rscale>
<asrwt>0</asrwt>
<pdfrwt beam="1">  1       21 0.23505709E-01 0.18140890E+03</pdfrwt>
<pdfrwt beam="2">  1       21 0.64814472E-01 0.18140890E+03</pdfrwt>
<totfact> 0.37568302E+04</totfact>
</mgrwt>
</event>
<event>
 4    2  0.3972096E+000  0.2104351E+03  0.7546771E-02  0.1141222E+00
         21   -1    0    0  501  502  0.00000000000E+00  0.00000000000E+00  0.19402125023E+03  0.19402125023E+03  0.00000000000E+00 0. -1.
         21   -1    0    0  502  503 -0.00000000000E+00 -0.00000000000E+00 -0.31204955680E+03  0.31204955680E+03  0.00000000000E+00 0. -1.
          6    1    1    2  501    0  0.11059115206E+03  0.46081896799E+02  0.72122018119E+02  0.22245118481E+03  0.17300000000E+03 0. -1.
         -6    1    1    2    0  503 -0.11059115206E+03 -0.46081896799E+02 -0.19015032469E+03  0.28361962221E+03  0.17300000000E+03 0. -1.
<mgrwt>
<rscale>  2 0.21043513E+03</rscale>
<asrwt>0</asrwt>
<pdfrwt beam="1">  1       21 0.29849423E-01 0.21043513E+03</pdfrwt>
<pdfrwt beam="2">  1       21 0.48007624E-01 0.21043513E+03</pdfrwt>
<totfact> 0.44228437E+04</totfact>
</mgrwt>
</event>
<event>
 4    2  0.3972096E+000  0.2767831E+03  0.7546771E-02  0.1097459E+00
         21   -1    0    0  501  502  0.00000000000E+00  0.00000000000E+00  0.12304197820E+03  0.12304197820E+03  0.00000000000E+00 0.  1.
         21   -1    0    0  502  503 -0.00000000000E+00 -0.00000000000E+00 -0.84659579095E+03  0.84659579095E+03  0.00000000000E+00 0.  1.
          6    1    1    2  501    0  0.16122479391E+03 -0.14382784749E+03 -0.11241036927E+03  0.29873897470E+03  0.17300000000E+03 0.  1.
         -6    1    1    2    0  503 -0.16122479391E+03  0.14382784749E+03 -0.61114344348E+03  0.67089879445E+03  0.17300000000E+03 0.  1.
<mgrwt>
<rscale>  2 0.27678310E+03</rscale>
<asrwt>0</asrwt>
<pdfrwt beam="1">  1       21 0.18929535E-01 0.27678310E+03</pdfrwt>
<pdfrwt beam="2">  1       21 0.13024551E+00 0.27678310E+03</pdfrwt>
<totfact> 0.10441235E+04</totfact>
</mgrwt>
</event>
<event>
 4    2  0.3972096E+000  0.3993597E+03  0.7546771E-02  0.1044002E+00
         21   -1    0    0  503  502  0.00000000000E+00  0.00000000000E+00  0.40372722152E+03  0.40372722152E+03  0.00000000000E+00 0. -1.
         21   -1    0    0  501  503 -0.00000000000E+00 -0.00000000000E+00 -0.39594066103E+03  0.39594066103E+03  0.00000000000E+00 0. -1.
          6    1    1    2  501    0  0.31218080104E+03 -0.17917113695E+03  0.22969669258E+02  0.40001969271E+03  0.17300000000E+03 0. -1.
         -6    1    1    2    0  502 -0.31218080104E+03  0.17917113695E+03 -0.15183108770E+02  0.39964818984E+03  0.17300000000E+03 0. -1.
<mgrwt>
<rscale>  2 0.39935967E+03</rscale>
<asrwt>0</asrwt>
<pdfrwt beam="1">  1       21 0.62111881E-01 0.39935967E+03</pdfrwt>
<pdfrwt beam="2">  1       21 0.60913948E-01 0.39935967E+03</pdfrwt>
<totfact> 0.54102302E+03</totfact>
</mgrwt>
</event>
<event>
 4    2  0.3972096E+000  0.2097148E+03  0.7546771E-02  0.1141792E+00
         21   -1    0    0  501  502  0.00000000000E+00  0.00000000000E+00  0.21041417670E+03  0.21041417670E+03  0.00000000000E+00 0. -1.
         21   -1    0    0  502  503 -0.00000000000E+00 -0.00000000000E+00 -0.30203933515E+03  0.30203933515E+03  0.00000000000E+00 0. -1.
          6    1    1    2  501    0  0.92427968690E+02  0.74218427331E+02  0.96382484530E+02  0.23080270292E+03  0.17300000000E+03 0. -1.
         -6    1    1    2    0  503 -0.92427968690E+02 -0.74218427331E+02 -0.18800764297E+03  0.28165080893E+03  0.17300000000E+03 0. -1.
<mgrwt>
<rscale>  2 0.20971482E+03</rscale>
<asrwt>0</asrwt>
<pdfrwt beam="1">  1       21 0.32371412E-01 0.20971482E+03</pdfrwt>
<pdfrwt beam="2">  1       21 0.46467590E-01 0.20971482E+03</pdfrwt>
<totfact> 0.40375396E+04</totfact>
</mgrwt>
</event>
<event>
 4    2  0.3972096E+000  0.1783125E+03  0.7546771E-02  0.1169446E+00
         21   -1    0    0  503  502  0.00000000000E+00  0.00000000000E+00  0.69276494190E+03  0.69276494190E+03  0.00000000000E+00 0.  1.
         21   -1    0    0  501  503 -0.00000000000E+00 -0.00000000000E+00 -0.26724007446E+03  0.26724007446E+03  0.00000000000E+00 0.  1.
          6    1    1    2  501    0  0.41820979478E+02  0.10832364127E+02 -0.22408158032E+03  0.28637019585E+03  0.17300000000E+03 0.  1.
         -6    1    1    2    0  502 -0.41820979478E+02 -0.10832364127E+02  0.64960644775E+03  0.67363482050E+03  0.17300000000E+03 0.  1.
<mgrwt>
<rscale>  2 0.17831246E+03</rscale>
<asrwt>0</asrwt>
<pdfrwt beam="1">  1       21 0.10657922E+00 0.17831246E+03</pdfrwt>
<pdfrwt beam="2">  1       21 0.41113858E-01 0.17831246E+03</pdfrwt>
<totfact> 0.40649237E+03</totfact>
</mgrwt>
</event>
<event>
 4    2  0.3972096E+000  0.1745036E+03  0.7546771E-02  0.1173231E+00
         21   -1    0    0  503  502  0.00000000000E+00  0.00000000000E+00  0.63360090988E+03  0.63360090988E+03  0.00000000000E+00 0.  1.
         21   -1    0    0  501  503 -0.00000000000E+00 -0.00000000000E+00 -0.85035334921E+02  0.85035334921E+02  0.00000000000E+00 0.  1.
          6    1    1    2  501    0  0.20632838791E+02  0.98376046404E+01  0.37347579038E+02  0.17845541225E+03  0.17300000000E+03 0.  1.
         -6    1    1    2    0  502 -0.20632838791E+02 -0.98376046404E+01  0.51121799592E+03  0.54018083255E+03  0.17300000000E+03 0.  1.
<mgrwt>
<rscale>  2 0.17450356E+03</rscale>
<asrwt>0</asrwt>
<pdfrwt beam="1">  1       21 0.97477060E-01 0.17450356E+03</pdfrwt>
<pdfrwt beam="2">  1       21 0.13082360E-01 0.17450356E+03</pdfrwt>
<totfact> 0.44239414E+04</totfact>
</mgrwt>
</event>
<event>
 4    2  0.3972096E+000  0.2467843E+03  0.7546771E-02  0.1115354E+00
         21   -1    0    0  501  502  0.00000000000E+00  0.00000000000E+00  0.88316940887E+02  0.88316940887E+02  0.00000000000E+00 0. -1.
         21   -1    0    0  502  503 -0.00000000000E+00 -0.00000000000E+00 -0.83731598926E+03  0.83731598926E+03  0.00000000000E+00 0.  1.
          6    1    1    2  501    0  0.14740137014E+03 -0.96157821183E+02 -0.18010126332E+03  0.30551424769E+03  0.17300000000E+03 0. -1.
         -6    1    1    2    0  503 -0.14740137014E+03  0.96157821183E+02 -0.56889778505E+03  0.62011868245E+03  0.17300000000E+03 0.  1.
<mgrwt>
<rscale>  2 0.24678430E+03</rscale>
<asrwt>0</asrwt>
<pdfrwt beam="1">  1       21 0.13587222E-01 0.24678430E+03</pdfrwt>
<pdfrwt beam="2">  1       21 0.12881785E+00 0.24678430E+03</pdfrwt>
<totfact> 0.20107716E+04</totfact>
</mgrwt>
</event>
<event>
 4    2  0.3972096E+000  0.1850290E+03  0.7546771E-02  0.1163023E+00
         21   -1    0    0  501  502  0.00000000000E+00  0.00000000000E+00  0.41820540021E+03  0.41820540021E+03  0.00000000000E+00 0. -1.
         21   -1    0    0  502  503 -0.00000000000E+00 -0.00000000000E+00 -0.85212061255E+02  0.85212061255E+02  0.00000000000E+00 0. -1.
          6    1    1    2  501    0 -0.56516844455E+02 -0.33355234127E+02  0.21639452679E+03  0.28471444743E+03  0.17300000000E+03 0. -1.
         -6    1    1    2    0  503  0.56516844455E+02  0.33355234127E+02  0.11659881217E+03  0.21870301404E+03  0.17300000000E+03 0. -1.
<mgrwt>
<rscale>  2 0.18502899E+03</rscale>
<asrwt>0</asrwt>
<pdfrwt beam="1">  1       21 0.64339291E-01 0.18502899E+03</pdfrwt>
<pdfrwt beam="2">  1       21 0.13109548E-01 0.18502899E+03</pdfrwt>
<totfact> 0.11188930E+05</totfact>
</mgrwt>
</event>
<event>
 4    2  0.3972096E+000  0.1752400E+03  0.7546771E-02  0.1172491E+00
         21   -1    0    0  501  502  0.00000000000E+00  0.00000000000E+00  0.98756127398E+03  0.98756127398E+03  0.00000000000E+00 0. -1.
         21   -1    0    0  502  503 -0.00000000000E+00 -0.00000000000E+00 -0.35965025254E+02  0.35965025254E+02  0.00000000000E+00 0. -1.
          6    1    1    2  501    0 -0.35864946408E+01 -0.27698461466E+02  0.66410061140E+03  0.68683235929E+03  0.17300000000E+03 0. -1.
         -6    1    1    2    0  503  0.35864946408E+01  0.27698461466E+02  0.28749563733E+03  0.33669393995E+03  0.17300000000E+03 0. -1.
<mgrwt>
<rscale>  2 0.17524003E+03</rscale>
<asrwt>0</asrwt>
<pdfrwt beam="1">  1       21 0.15193248E+00 0.17524003E+03</pdfrwt>
<pdfrwt beam="2">  1       21 0.55330816E-02 0.17524003E+03</pdfrwt>
<totfact> 0.66049883E+04</totfact>
</mgrwt>
</event>
<event>
 4    2  0.3972096E+000  0.2115007E+03  0.7546771E-02  0.1140383E+00
         21   -1    0    0  501  502  0.00000000000E+00  0.00000000000E+00  0.21427863941E+04  0.21427863941E+04  0.00000000000E+00 0. -1.
         21   -1    0    0  502  503 -0.00000000000E+00 -0.00000000000E+00 -0.25414084004E+02  0.25414084004E+02  0.00000000000E+00 0. -1.
          6    1    1    2  501    0 -0.63922952784E+02 -0.10352492618E+03  0.15168007824E+04  0.15314754872E+04  0.17300000000E+03 0. -1.
         -6    1    1    2    0  503  0.63922952784E+02  0.10352492618E+03  0.60057152770E+03  0.63672499097E+03  0.17300000000E+03 0. -1.
<mgrwt>
<rscale>  2 0.21150072E+03</rscale>
<asrwt>0</asrwt>
<pdfrwt beam="1">  1       21 0.32965930E+00 0.21150072E+03</pdfrwt>
<pdfrwt beam="2">  1       21 0.39098608E-02 0.21150072E+03</pdfrwt>
<totfact> 0.91714371E+03</totfact>
</mgrwt>
</event>
<event>
 4    2  0.3972096E+000  0.2455929E+03  0.7546771E-02  0.1116122E+00
         21   -1    0    0  501  502  0.00000000000E+00  0.00000000000E+00  0.12391207410E+03  0.12391207410E+03  0.00000000000E+00 0. -1.
         21   -1    0    0  502  503 -0.00000000000E+00 -0.00000000000E+00 -0.51844745877E+03  0.51844745877E+03  0.00000000000E+00 0. -1.
          6    1    1    2  501    0  0.17371903972E+03  0.14441408973E+02 -0.27666694197E+03  0.36994655807E+03  0.17300000000E+03 0. -1.
         -6    1    1    2    0  503 -0.17371903972E+03 -0.14441408973E+02 -0.11786844270E+03  0.27241297480E+03  0.17300000000E+03 0. -1.
<mgrwt>
<rscale>  2 0.24559287E+03</rscale>
<asrwt>0</asrwt>
<pdfrwt beam="1">  1       21 0.19063396E-01 0.24559287E+03</pdfrwt>
<pdfrwt beam="2">  1       21 0.79761148E-01 0.24559287E+03</pdfrwt>
<totfact> 0.34037556E+04</totfact>
</mgrwt>
</event>
<event>
 4    2  0.3972096E+000  0.1924382E+03  0.7546771E-02  0.1156280E+00
         21   -1    0    0  503  502  0.00000000000E+00  0.00000000000E+00  0.11867321619E+04  0.11867321619E+04  0.00000000000E+00 0. -1.
         21   -1    0    0  501  503 -0.00000000000E+00 -0.00000000000E+00 -0.31296963737E+02  0.31296963737E+02  0.00000000000E+00 0.  1.
          6    1    1    2  501    0  0.20364927057E+02  0.81784736122E+02  0.61065545583E+03  0.64025975905E+03  0.17300000000E+03 0.  1.
         -6    1    1    2    0  502 -0.20364927057E+02 -0.81784736122E+02  0.54477974235E+03  0.57776936661E+03  0.17300000000E+03 0. -1.
<mgrwt>
<rscale>  2 0.19243823E+03</rscale>
<asrwt>0</asrwt>
<pdfrwt beam="1">  1       21 0.18257414E+00 0.19243823E+03</pdfrwt>
<pdfrwt beam="2">  1       21 0.48149184E-02 0.19243823E+03</pdfrwt>
<totfact> 0.50128794E+04</totfact>
</mgrwt>
</event>
<event>
 4    2  0.3972096E+000  0.1959405E+03  0.7546771E-02  0.1153210E+00
         21   -1    0    0  503  502  0.00000000000E+00  0.00000000000E+00  0.64372690374E+03  0.64372690374E+03  0.00000000000E+00 0. -1.
         21   -1    0    0  501  503 -0.00000000000E+00 -0.00000000000E+00 -0.69395865589E+02  0.69395865589E+02  0.00000000000E+00 0. -1.
          6    1    1    2  501    0 -0.87188199410E+02  0.29358118085E+02  0.15348366823E+03  0.24889740382E+03  0.17300000000E+03 0. -1.
         -6    1    1    2    0  502  0.87188199410E+02 -0.29358118085E+02  0.42084736992E+03  0.46422536551E+03  0.17300000000E+03 0. -1.
<mgrwt>
<rscale>  2 0.19594050E+03</rscale>
<asrwt>0</asrwt>
<pdfrwt beam="1">  1       21 0.99034904E-01 0.19594050E+03</pdfrwt>
<pdfrwt beam="2">  1       21 0.10676287E-01 0.19594050E+03</pdfrwt>
<totfact> 0.60610109E+04</totfact>
</mgrwt>
</event>
<event>
 4    2  0.3972096E+000  0.2824099E+03  0.7546771E-02  0.1094380E+00
         21   -1    0    0  501  502  0.00000000000E+00  0.00000000000E+00  0.16303166287E+03  0.16303166287E+03  0.00000000000E+00 0.  1.
         21   -1    0    0  502  503 -0.00000000000E+00 -0.00000000000E+00 -0.48930244581E+03  0.48930244581E+03  0.00000000000E+00 0. -1.
          6    1    1    2  501    0 -0.14333144807E+03  0.17112119874E+03 -0.15845547642E+03  0.32382635265E+03  0.17300000000E+03 0. -1.
         -6    1    1    2    0  503  0.14333144807E+03 -0.17112119874E+03 -0.16781530653E+03  0.32850775603E+03  0.17300000000E+03 0. -1.
<mgrwt>
<rscale>  2 0.28240993E+03</rscale>
<asrwt>0</asrwt>
<pdfrwt beam="1">  1       21 0.25081794E-01 0.28240993E+03</pdfrwt>
<pdfrwt beam="2">  1       21 0.75277299E-01 0.28240993E+03</pdfrwt>
<totfact> 0.22688228E+04</totfact>
</mgrwt>
</event>
<event>
 4    2  0.3972096E+000  0.1944839E+03  0.7546771E-02  0.1154478E+00
         21   -1    0    0  503  502  0.00000000000E+00  0.00000000000E+00  0.19448013102E+03  0.19448013102E+03  0.00000000000E+00 0.  1.
         21   -1    0    0  501  503 -0.00000000000E+00 -0.00000000000E+00 -0.34187095327E+03  0.34187095327E+03  0.00000000000E+00 0.  1.
          6    1    1    2  501    0 -0.88602399275E+02  0.66792513094E+01 -0.24977625199E+03  0.31656306420E+03  0.17300000000E+03 0.  1.
         -6    1    1    2    0  502  0.88602399275E+02 -0.66792513094E+01  0.10238542974E+03  0.21978802010E+03  0.17300000000E+03 0.  1.
<mgrwt>
<rscale>  2 0.19448393E+03</rscale>
<asrwt>0</asrwt>
<pdfrwt beam="1">  1       21 0.29920020E-01 0.19448393E+03</pdfrwt>
<pdfrwt beam="2">  1       21 0.52595531E-01 0.19448393E+03</pdfrwt>
<totfact> 0.36680542E+04</totfact>
</mgrwt>
</event>
<event>
 4    2  0.3972096E+000  0.2241364E+03  0.7546771E-02  0.1130836E+00
         21   -1    0    0  503  502  0.00000000000E+00  0.00000000000E+00  0.22412022987E+03  0.22412022987E+03  0.00000000000E+00 0. -1.
         21   -1    0    0  501  503 -0.00000000000E+00 -0.00000000000E+00 -0.24003445167E+03  0.24003445167E+03  0.00000000000E+00 0. -1.
          6    1    1    2  501    0 -0.14250656896E+03  0.13411099237E+00  0.51738999216E+02  0.23003057236E+03  0.17300000000E+03 0. -1.
         -6    1    1    2    0  502  0.14250656896E+03 -0.13411099237E+00 -0.67653221016E+02  0.23412410917E+03  0.17300000000E+03 0. -1.
<mgrwt>
<rscale>  2 0.22413643E+03</rscale>
<asrwt>0</asrwt>
<pdfrwt beam="1">  1       21 0.34480035E-01 0.22413643E+03</pdfrwt>
<pdfrwt beam="2">  1       21 0.36928377E-01 0.22413643E+03</pdfrwt>
<totfact> 0.56515921E+04</totfact>
</mgrwt>
</event>
<event>
 4    2  0.3972096E+000  0.2057329E+03  0.7546771E-02  0.1144990E+00
         21   -1    0    0  501  502  0.00000000000E+00  0.00000000000E+00  0.11428953206E+04  0.11428953206E+04  0.00000000000E+00 0.  1.
         21   -1    0    0  502  503 -0.00000000000E+00 -0.00000000000E+00 -0.49083508537E+02  0.49083508537E+02  0.00000000000E+00 0. -1.
          6    1    1    2  501    0 -0.69633743428E+02 -0.86880189725E+02  0.25161180020E+03  0.32501465135E+03  0.17300000000E+03 0. -1.
         -6    1    1    2    0  503  0.69633743428E+02  0.86880189725E+02  0.84220001189E+03  0.86696417782E+03  0.17300000000E+03 0.  1.
<mgrwt>
<rscale>  2 0.20573290E+03</rscale>
<asrwt>0</asrwt>
<pdfrwt beam="1">  1       21 0.17583003E+00 0.20573290E+03</pdfrwt>
<pdfrwt beam="2">  1       21 0.75513098E-02 0.20573290E+03</pdfrwt>
<totfact> 0.25552598E+04</totfact>
</mgrwt>
</event>
<event>
 4    2  0.3972096E+000  0.1936668E+03  0.7546771E-02  0.1155195E+00
         21   -1    0    0  501  502  0.00000000000E+00  0.00000000000E+00  0.20637948554E+03  0.20637948554E+03  0.00000000000E+00 0.  1.
         21   -1    0    0  502  503 -0.00000000000E+00 -0.00000000000E+00 -0.25424788143E+03  0.25424788143E+03  0.00000000000E+00 0.  1.
          6    1    1    2  501    0  0.29546999190E+02  0.81882768665E+02  0.99062175919E+02  0.21753190033E+03  0.17300000000E+03 0.  1.
         -6    1    1    2    0  503 -0.29546999190E+02 -0.81882768665E+02 -0.14693057181E+03  0.24309546663E+03  0.17300000000E+03 0.  1.
<mgrwt>
<rscale>  2 0.19366676E+03</rscale>
<asrwt>0</asrwt>
<pdfrwt beam="1">  1       21 0.31750690E-01 0.19366676E+03</pdfrwt>
<pdfrwt beam="2">  1       21 0.39115059E-01 0.19366676E+03</pdfrwt>
<totfact> 0.60077552E+04</totfact>
</mgrwt>
</event>
<event>
 4    2  0.3972096E+000  0.1972646E+03  0.7546771E-02  0.1152068E+00
         21   -1    0    0  501  502  0.00000000000E+00  0.00000000000E+00  0.88303349763E+03  0.88303349763E+03  0.00000000000E+00 0.  1.
         21   -1    0    0  502  503 -0.00000000000E+00 -0.00000000000E+00 -0.45952910189E+02  0.45952910189E+02  0.00000000000E+00 0.  1.
          6    1    1    2  501    0  0.88110030800E+02  0.34941980911E+02  0.51261965415E+03  0.54926517219E+03  0.17300000000E+03 0.  1.
         -6    1    1    2    0  503 -0.88110030800E+02 -0.34941980911E+02  0.32446093329E+03  0.37972123563E+03  0.17300000000E+03 0.  1.
<mgrwt>
<rscale>  2 0.19726459E+03</rscale>
<asrwt>0</asrwt>
<pdfrwt beam="1">  1       21 0.13585129E+00 0.19726459E+03</pdfrwt>
<pdfrwt beam="2">  1       21 0.70696791E-02 0.19726459E+03</pdfrwt>
<totfact> 0.57346034E+04</totfact>
</mgrwt>
</event>
<event>
 4    2  0.3972096E+000  0.1870136E+03  0.7546771E-02  0.1161183E+00
         21   -1    0    0  501  502  0.00000000000E+00  0.00000000000E+00  0.15268558488E+03  0.15268558488E+03  0.00000000000E+00 0.  1.
         21   -1    0    0  502  503 -0.00000000000E+00 -0.00000000000E+00 -0.26790210217E+03  0.26790210217E+03  0.00000000000E+00 0.  1.
          6    1    1    2  501    0  0.52519855991E+01 -0.70834207006E+02  0.22466054787E+02  0.18835814783E+03  0.17300000000E+03 0.  1.
         -6    1    1    2    0  503 -0.52519855991E+01  0.70834207006E+02 -0.13768257208E+03  0.23222953923E+03  0.17300000000E+03 0.  1.
<mgrwt>
<rscale>  2 0.18701355E+03</rscale>
<asrwt>0</asrwt>
<pdfrwt beam="1">  1       21 0.23490090E-01 0.18701355E+03</pdfrwt>
<pdfrwt beam="2">  1       21 0.41215708E-01 0.18701355E+03</pdfrwt>
<totfact> 0.96886055E+04</totfact>
</mgrwt>
</event>
<event>
 4    2  0.3972096E+000  0.1763057E+03  0.7546771E-02  0.1171427E+00
         21   -1    0    0  503  502  0.00000000000E+00  0.00000000000E+00  0.10521344167E+03  0.10521344167E+03  0.00000000000E+00 0.  1.
         21   -1    0    0  501  503 -0.00000000000E+00 -0.00000000000E+00 -0.30237871922E+03  0.30237871922E+03  0.00000000000E+00 0.  1.
          6    1    1    2  501    0 -0.20198089114E+02  0.27326433230E+02 -0.67699096672E+02  0.18885672995E+03  0.17300000000E+03 0. -1.
         -6    1    1    2    0  502  0.20198089114E+02 -0.27326433230E+02 -0.12946618088E+03  0.21873543094E+03  0.17300000000E+03 0. -1.
<mgrwt>
<rscale>  2 0.17630569E+03</rscale>
<asrwt>0</asrwt>
<pdfrwt beam="1">  1       21 0.16186683E-01 0.17630569E+03</pdfrwt>
<pdfrwt beam="2">  1       21 0.46519803E-01 0.17630569E+03</pdfrwt>
<totfact> 0.15186922E+05</totfact>
</mgrwt>
</event>
<event>
 4    2  0.3972096E+000  0.3660590E+03  0.7546771E-02  0.1056210E+00
         21   -1    0    0  501  502  0.00000000000E+00  0.00000000000E+00  0.11849628941E+04  0.11849628941E+04  0.00000000000E+00 0. -1.
         21   -1    0    0  502  503 -0.00000000000E+00 -0.00000000000E+00 -0.11866913949E+03  0.11866913949E+03  0.00000000000E+00 0. -1.
          6    1    1    2  501    0  0.22849909497E+03  0.22772425480E+03  0.67456711765E+03  0.76748939331E+03  0.17300000000E+03 0. -1.
         -6    1    1    2    0  503 -0.22849909497E+03 -0.22772425480E+03  0.39172663697E+03  0.53614264029E+03  0.17300000000E+03 0. -1.
<mgrwt>
<rscale>  2 0.36605897E+03</rscale>
<asrwt>0</asrwt>
<pdfrwt beam="1">  1       21 0.18230198E+00 0.36605897E+03</pdfrwt>
<pdfrwt beam="2">  1       21 0.18256792E-01 0.36605897E+03</pdfrwt>
<totfact> 0.42857016E+03</totfact>
</mgrwt>
</event>
<event>
 4    2  0.3972096E+000  0.2301258E+03  0.7546771E-02  0.1126551E+00
         21   -1    0    0  501  502  0.00000000000E+00  0.00000000000E+00  0.18070983305E+04  0.18070983305E+04  0.00000000000E+00 0. -1.
         21   -1    0    0  502  503 -0.00000000000E+00 -0.00000000000E+00 -0.29754430104E+02  0.29754430104E+02  0.00000000000E+00 0. -1.
          6    1    1    2  501    0  0.81216738571E+02 -0.12819027511E+03  0.10014856586E+04  0.10275852421E+04  0.17300000000E+03 0. -1.
         -6    1    1    2    0  503 -0.81216738571E+02  0.12819027511E+03  0.77585824179E+03  0.80926751857E+03  0.17300000000E+03 0. -1.
<mgrwt>
<rscale>  2 0.23012585E+03</rscale>
<asrwt>0</asrwt>
<pdfrwt beam="1">  1       21 0.27801504E+00 0.23012585E+03</pdfrwt>
<pdfrwt beam="2">  1       21 0.45776060E-02 0.23012585E+03</pdfrwt>
<totfact> 0.13784707E+04</totfact>
</mgrwt>
</event>
<event>
 4    2  0.3972096E+000  0.2075352E+03  0.7546771E-02  0.1143533E+00
         21   -1    0    0  501  502  0.00000000000E+00  0.00000000000E+00  0.74757236163E+02  0.74757236163E+02  0.00000000000E+00 0. -1.
         21   -1    0    0  502  503 -0.00000000000E+00 -0.00000000000E+00 -0.58081443671E+03  0.58081443671E+03  0.00000000000E+00 0. -1.
          6    1    1    2  501    0 -0.11252709042E+03 -0.21897654804E+02 -0.28242538255E+03  0.35047817346E+03  0.17300000000E+03 0. -1.
         -6    1    1    2    0  503  0.11252709042E+03  0.21897654804E+02 -0.22363181800E+03  0.30509349942E+03  0.17300000000E+03 0. -1.
<mgrwt>
<rscale>  2 0.20753519E+03</rscale>
<asrwt>0</asrwt>
<pdfrwt beam="1">  1       21 0.11501113E-01 0.20753519E+03</pdfrwt>
<pdfrwt beam="2">  1       21 0.89356068E-01 0.20753519E+03</pdfrwt>
<totfact> 0.67152531E+04</totfact>
</mgrwt>
</event>
<event>
 4    2  0.3972096E+000  0.1754725E+03  0.7546771E-02  0.1172258E+00
         21   -1    0    0  503  502  0.00000000000E+00  0.00000000000E+00  0.57116412041E+02  0.57116412041E+02  0.00000000000E+00 0.  1.
         21   -1    0    0  501  503 -0.00000000000E+00 -0.00000000000E+00 -0.55752233779E+03  0.55752233779E+03  0.00000000000E+00 0.  1.
          6    1    1    2  501    0  0.12267042549E+02 -0.26666648415E+02 -0.19431605530E+03  0.26181925028E+03  0.17300000000E+03 0.  1.
         -6    1    1    2    0  502 -0.12267042549E+02  0.26666648415E+02 -0.30608987045E+03  0.35281949955E+03  0.17300000000E+03 0.  1.
<mgrwt>
<rscale>  2 0.17547248E+03</rscale>
<asrwt>0</asrwt>
<pdfrwt beam="1">  1       21 0.87871402E-02 0.17547248E+03</pdfrwt>
<pdfrwt beam="2">  1       21 0.85772668E-01 0.17547248E+03</pdfrwt>
<totfact> 0.12033916E+05</totfact>
</mgrwt>
</event>
<event>
 4    2  0.3972096E+000  0.1840101E+03  0.7546771E-02  0.1163978E+00
         21   -1    0    0  501  502  0.00000000000E+00  0.00000000000E+00  0.11742025752E+03  0.11742025752E+03  0.00000000000E+00 0. -1.
         21   -1    0    0  502  503 -0.00000000000E+00 -0.00000000000E+00 -0.32482780972E+03  0.32482780972E+03  0.00000000000E+00 0.  1.
          6    1    1    2  501    0 -0.62688759752E+02 -0.90483981246E+00 -0.29616400432E+02  0.18637819215E+03  0.17300000000E+03 0.  1.
         -6    1    1    2    0  503  0.62688759752E+02  0.90483981246E+00 -0.17779115177E+03  0.25586987510E+03  0.17300000000E+03 0.  1.
<mgrwt>
<rscale>  2 0.18401005E+03</rscale>
<asrwt>0</asrwt>
<pdfrwt beam="1">  1       21 0.18064655E-01 0.18401005E+03</pdfrwt>
<pdfrwt beam="2">  1       21 0.49973508E-01 0.18401005E+03</pdfrwt>
<totfact> 0.10673034E+05</totfact>
</mgrwt>
</event>
<event>
 4    2  0.3972096E+000  0.1978007E+03  0.7546771E-02  0.1151608E+00
         21   -1    0    0  503  502  0.00000000000E+00  0.00000000000E+00  0.13230171557E+03  0.13230171557E+03  0.00000000000E+00 0.  1.
         21   -1    0    0  501  503 -0.00000000000E+00 -0.00000000000E+00 -0.30982896407E+03  0.30982896407E+03  0.00000000000E+00 0.  1.
          6    1    1    2  501    0  0.37917017043E+02  0.88081779582E+02 -0.13592753963E+03  0.24000290854E+03  0.17300000000E+03 0.  1.
         -6    1    1    2    0  502 -0.37917017043E+02 -0.88081779582E+02 -0.41599708866E+02  0.20212777111E+03  0.17300000000E+03 0.  1.
<mgrwt>
<rscale>  2 0.19780066E+03</rscale>
<asrwt>0</asrwt>
<pdfrwt beam="1">  1       21 0.20354110E-01 0.19780066E+03</pdfrwt>
<pdfrwt beam="2">  1       21 0.47665994E-01 0.19780066E+03</pdfrwt>
<totfact> 0.93808260E+04</totfact>
</mgrwt>
</event>
<event>
 4    2  0.3972096E+000  0.4641012E+03  0.7546771E-02  0.1023598E+00
         21   -1    0    0  501  502  0.00000000000E+00  0.00000000000E+00  0.55298885020E+03  0.55298885020E+03  0.00000000000E+00 0. -1.
         21   -1    0    0  502  503 -0.00000000000E+00 -0.00000000000E+00 -0.99128172088E+03  0.99128172088E+03  0.00000000000E+00 0.  1.
          6    1    1    2  501    0 -0.37125070102E+03 -0.21825185552E+03  0.38246187348E+03  0.60138759557E+03  0.17300000000E+03 0. -1.
         -6    1    1    2    0  503  0.37125070102E+03  0.21825185552E+03 -0.82075474415E+03  0.94288297550E+03  0.17300000000E+03 0.  1.
<mgrwt>
<rscale>  2 0.46410123E+03</rscale>
<asrwt>0</asrwt>
<pdfrwt beam="1">  1       21 0.85075209E-01 0.46410123E+03</pdfrwt>
<pdfrwt beam="2">  1       21 0.15250488E+00 0.46410123E+03</pdfrwt>
<totfact> 0.27945617E+02</totfact>
</mgrwt>
</event>
<event>
 4    2  0.3972096E+000  0.2078004E+03  0.7546771E-02  0.1143320E+00
         21   -1    0    0  501  502  0.00000000000E+00  0.00000000000E+00  0.44789607601E+03  0.44789607601E+03  0.00000000000E+00 0. -1.
         21   -1    0    0  502  503 -0.00000000000E+00 -0.00000000000E+00 -0.97221027426E+02  0.97221027426E+02  0.00000000000E+00 0. -1.
          6    1    1    2  501    0  0.11230285314E+03 -0.25299327159E+02  0.20025476551E+03  0.28858786857E+03  0.17300000000E+03 0. -1.
         -6    1    1    2    0  503 -0.11230285314E+03  0.25299327159E+02  0.15042028308E+03  0.25652923486E+03  0.17300000000E+03 0. -1.
<mgrwt>
<rscale>  2 0.20780035E+03</rscale>
<asrwt>0</asrwt>
<pdfrwt beam="1">  1       21 0.68907088E-01 0.20780035E+03</pdfrwt>
<pdfrwt beam="2">  1       21 0.14957081E-01 0.20780035E+03</pdfrwt>
<totfact> 0.75135844E+04</totfact>
</mgrwt>
</event>
<event>
 4    2  0.3972096E+000  0.1748273E+03  0.7546771E-02  0.1172905E+00
         21   -1    0    0  501  502  0.00000000000E+00  0.00000000000E+00  0.55428739387E+03  0.55428739387E+03  0.00000000000E+00 0. -1.
         21   -1    0    0  502  503 -0.00000000000E+00 -0.00000000000E+00 -0.11137202116E+03  0.11137202116E+03  0.00000000000E+00 0. -1.
          6    1    1    2  501    0 -0.56372496764E+01  0.24572578418E+02  0.45795032974E+03  0.49018679572E+03  0.17300000000E+03 0. -1.
         -6    1    1    2    0  503  0.56372496764E+01 -0.24572578418E+02 -0.15034957022E+02  0.17547261931E+03  0.17300000000E+03 0. -1.
<mgrwt>
<rscale>  2 0.17482732E+03</rscale>
<asrwt>0</asrwt>
<pdfrwt beam="1">  1       21 0.85274982E-01 0.17482732E+03</pdfrwt>
<pdfrwt beam="2">  1       21 0.17134157E-01 0.17482732E+03</pdfrwt>
<totfact> 0.36922961E+04</totfact>
</mgrwt>
</event>
<event>
 4    2  0.3972096E+000  0.1745002E+03  0.7546771E-02  0.1173234E+00
         21   -1    0    0  503  502  0.00000000000E+00  0.00000000000E+00  0.56894748867E+02  0.56894748867E+02  0.00000000000E+00 0.  1.
         21   -1    0    0  501  503 -0.00000000000E+00 -0.00000000000E+00 -0.20435010219E+04  0.20435010219E+04  0.00000000000E+00 0.  1.
          6    1    1    2  501    0  0.22831909221E+02  0.16765490035E+00 -0.18955535262E+04  0.19035686210E+04  0.17300000000E+03 0.  1.
         -6    1    1    2    0  502 -0.22831909221E+02 -0.16765490035E+00 -0.91052746877E+02  0.19682714981E+03  0.17300000000E+03 0.  1.
<mgrwt>
<rscale>  2 0.17450021E+03</rscale>
<asrwt>0</asrwt>
<pdfrwt beam="1">  1       21 0.87530373E-02 0.17450021E+03</pdfrwt>
<pdfrwt beam="2">  1       21 0.31438481E+00 0.17450021E+03</pdfrwt>
<totfact> 0.29626195E+03</totfact>
</mgrwt>
</event>
<event>
 4    2  0.3972096E+000  0.1767632E+03  0.7546771E-02  0.1170973E+00
         21   -1    0    0  503  502  0.00000000000E+00  0.00000000000E+00  0.55077547161E+02  0.55077547161E+02  0.00000000000E+00 0. -1.
         21   -1    0    0  501  503 -0.00000000000E+00 -0.00000000000E+00 -0.65635750744E+03  0.65635750744E+03  0.00000000000E+00 0. -1.
          6    1    1    2  501    0 -0.24837984016E+02 -0.26444202524E+02 -0.43167347067E+03  0.46646243855E+03  0.17300000000E+03 0. -1.
         -6    1    1    2    0  502  0.24837984016E+02  0.26444202524E+02 -0.16960648961E+03  0.24497261605E+03  0.17300000000E+03 0. -1.
<mgrwt>
<rscale>  2 0.17676318E+03</rscale>
<asrwt>0</asrwt>
<pdfrwt beam="1">  1       21 0.84734681E-02 0.17676318E+03</pdfrwt>
<pdfrwt beam="2">  1       21 0.10097809E+00 0.17676318E+03</pdfrwt>
<totfact> 0.87676970E+04</totfact>
</mgrwt>
</event>
<event>
 4    2  0.3972096E+000  0.1763367E+03  0.7546771E-02  0.1171396E+00
         21   -1    0    0  503  502  0.00000000000E+00  0.00000000000E+00  0.29075611288E+03  0.29075611288E+03  0.00000000000E+00 0. -1.
         21   -1    0    0  501  503 -0.00000000000E+00 -0.00000000000E+00 -0.10755017021E+03  0.10755017021E+03  0.00000000000E+00 0. -1.
          6    1    1    2  501    0 -0.22894852853E+02  0.25327230731E+02  0.76652570932E+02  0.19227651842E+03  0.17300000000E+03 0. -1.
         -6    1    1    2    0  502  0.22894852853E+02 -0.25327230731E+02  0.10655337173E+03  0.20602976467E+03  0.17300000000E+03 0. -1.
<mgrwt>
<rscale>  2 0.17633673E+03</rscale>
<asrwt>0</asrwt>
<pdfrwt beam="1">  1       21 0.44731709E-01 0.17633673E+03</pdfrwt>
<pdfrwt beam="2">  1       21 0.16546180E-01 0.17633673E+03</pdfrwt>
<totfact> 0.15810761E+05</totfact>
</mgrwt>
</event>
<event>
 4    2  0.3972096E+000  0.2275146E+03  0.7546771E-02  0.1128401E+00
         21   -1    0    0  501  502  0.00000000000E+00  0.00000000000E+00  0.24410463366E+03  0.24410463366E+03  0.00000000000E+00 0. -1.
         21   -1    0    0  502  503 -0.00000000000E+00 -0.00000000000E+00 -0.21923046087E+03  0.21923046087E+03  0.00000000000E+00 0. -1.
          6    1    1    2  501    0 -0.13995948586E+03 -0.47384004615E+02  0.54357660732E+02  0.23391805585E+03  0.17300000000E+03 0. -1.
         -6    1    1    2    0  503  0.13995948586E+03  0.47384004615E+02 -0.29483487936E+02  0.22941703868E+03  0.17300000000E+03 0. -1.
<mgrwt>
<rscale>  2 0.22751462E+03</rscale>
<asrwt>0</asrwt>
<pdfrwt beam="1">  1       21 0.37554559E-01 0.22751462E+03</pdfrwt>
<pdfrwt beam="2">  1       21 0.33727763E-01 0.22751462E+03</pdfrwt>
<totfact> 0.57005338E+04</totfact>
</mgrwt>
</event>
<event>
 4    2  0.3972096E+000  0.1928554E+03  0.7546771E-02  0.1155911E+00
         21   -1    0    0  503  502  0.00000000000E+00  0.00000000000E+00  0.32664633005E+03  0.32664633005E+03  0.00000000000E+00 0.  1.
         21   -1    0    0  501  503 -0.00000000000E+00 -0.00000000000E+00 -0.25553615302E+03  0.25553615302E+03  0.00000000000E+00 0.  1.
          6    1    1    2  501    0 -0.11461538416E+02  0.84456208402E+02 -0.18118806888E+03  0.26461733561E+03  0.17300000000E+03 0.  1.
         -6    1    1    2    0  502  0.11461538416E+02 -0.84456208402E+02  0.25229824591E+03  0.31756514747E+03  0.17300000000E+03 0.  1.
<mgrwt>
<rscale>  2 0.19285543E+03</rscale>
<asrwt>0</asrwt>
<pdfrwt beam="1">  1       21 0.50253282E-01 0.19285543E+03</pdfrwt>
<pdfrwt beam="2">  1       21 0.39313254E-01 0.19285543E+03</pdfrwt>
<totfact> 0.23518203E+04</totfact>
</mgrwt>
</event>
<event>
 4    2  0.3972096E+000  0.2209468E+03  0.7546771E-02  0.1133179E+00
         21   -1    0    0  503  502  0.00000000000E+00  0.00000000000E+00  0.30222838714E+03  0.30222838714E+03  0.00000000000E+00 0. -1.
         21   -1    0    0  501  503 -0.00000000000E+00 -0.00000000000E+00 -0.20439046358E+03  0.20439046358E+03  0.00000000000E+00 0.  1.
          6    1    1    2  501    0  0.12520454116E+03 -0.56677194433E+02  0.16492326670E+03  0.27571210600E+03  0.17300000000E+03 0. -1.
         -6    1    1    2    0  502 -0.12520454116E+03  0.56677194433E+02 -0.67085343133E+02  0.23090674472E+03  0.17300000000E+03 0.  1.
<mgrwt>
<rscale>  2 0.22094678E+03</rscale>
<asrwt>0</asrwt>
<pdfrwt beam="1">  1       21 0.46496675E-01 0.22094678E+03</pdfrwt>
<pdfrwt beam="2">  1       21 0.31444687E-01 0.22094678E+03</pdfrwt>
<totfact> 0.42466370E+04</totfact>
</mgrwt>
</event>
<event>
 4    2  0.3972096E+000  0.1872152E+03  0.7546771E-02  0.1160997E+00
         21   -1    0    0  503  502  0.00000000000E+00  0.00000000000E+00  0.47160567699E+03  0.47160567699E+03  0.00000000000E+00 0. -1.
         21   -1    0    0  501  503 -0.00000000000E+00 -0.00000000000E+00 -0.86409181425E+02  0.86409181425E+02  0.00000000000E+00 0.  1.
          6    1    1    2  501    0 -0.53353012275E+00 -0.71555844150E+02  0.88236274048E+02  0.20696657591E+03  0.17300000000E+03 0. -1.
         -6    1    1    2    0  502  0.53353012275E+00  0.71555844150E+02  0.29696022152E+03  0.35104828251E+03  0.17300000000E+03 0.  1.
<mgrwt>
<rscale>  2 0.18721518E+03</rscale>
<asrwt>0</asrwt>
<pdfrwt beam="1">  1       21 0.72554718E-01 0.18721518E+03</pdfrwt>
<pdfrwt beam="2">  1       21 0.13293721E-01 0.18721518E+03</pdfrwt>
<totfact> 0.83758996E+04</totfact>
</mgrwt>
</event>
<event>
 4    2  0.3972096E+000  0.1961140E+03  0.7546771E-02  0.1153060E+00
         21   -1    0    0  503  502  0.00000000000E+00  0.00000000000E+00  0.17287054369E+02  0.17287054369E+02  0.00000000000E+00 0. -1.
         21   -1    0    0  501  503 -0.00000000000E+00 -0.00000000000E+00 -0.23484152304E+04  0.23484152304E+04  0.00000000000E+00 0.  1.
          6    1    1    2  501    0  0.87881502422E+02  0.28435175830E+02 -0.14369141642E+04  0.14502355095E+04  0.17300000000E+03 0.  1.
         -6    1    1    2    0  502 -0.87881502422E+02 -0.28435175830E+02 -0.89421401183E+03  0.91546677528E+03  0.17300000000E+03 0.  1.
<mgrwt>
<rscale>  2 0.19611404E+03</rscale>
<asrwt>0</asrwt>
<pdfrwt beam="1">  1       21 0.26595465E-02 0.19611404E+03</pdfrwt>
<pdfrwt beam="2">  1       21 0.36129469E+00 0.19611404E+03</pdfrwt>
<totfact> 0.11520880E+04</totfact>
</mgrwt>
</event>
<event>
 4    2  0.3972096E+000  0.4455934E+03  0.7546771E-02  0.1029044E+00
         21   -1    0    0  503  502  0.00000000000E+00  0.00000000000E+00  0.96178619795E+03  0.96178619795E+03  0.00000000000E+00 0. -1.
         21   -1    0    0  501  503 -0.00000000000E+00 -0.00000000000E+00 -0.27033722281E+03  0.27033722281E+03  0.00000000000E+00 0.  1.
          6    1    1    2  501    0  0.37275876146E+03 -0.17226538902E+03  0.46219470442E+02  0.44798403760E+03  0.17300000000E+03 0.  1.
         -6    1    1    2    0  502 -0.37275876146E+03  0.17226538902E+03  0.64522950469E+03  0.78413938316E+03  0.17300000000E+03 0. -1.
<mgrwt>
<rscale>  2 0.44559338E+03</rscale>
<asrwt>0</asrwt>
<pdfrwt beam="1">  1       21 0.14796711E+00 0.44559338E+03</pdfrwt>
<pdfrwt beam="2">  1       21 0.41590342E-01 0.44559338E+03</pdfrwt>
<totfact> 0.14708358E+03</totfact>
</mgrwt>
</event>
<event>
 4    2  0.3972096E+000  0.1848782E+03  0.7546771E-02  0.1163164E+00
         21   -1    0    0  503  502  0.00000000000E+00  0.00000000000E+00  0.15545249158E+03  0.15545249158E+03  0.00000000000E+00 0.  1.
         21   -1    0    0  501  503 -0.00000000000E+00 -0.00000000000E+00 -0.23430826643E+03  0.23430826643E+03  0.00000000000E+00 0. -1.
          6    1    1    2  501    0 -0.36326828334E+02 -0.54141409974E+02 -0.87797722997E+02  0.20466648698E+03  0.17300000000E+03 0. -1.
         -6    1    1    2    0  502  0.36326828334E+02  0.54141409974E+02  0.89419481473E+01  0.18509427103E+03  0.17300000000E+03 0.  1.
<mgrwt>
<rscale>  2 0.18487815E+03</rscale>
<asrwt>0</asrwt>
<pdfrwt beam="1">  1       21 0.23915768E-01 0.18487815E+03</pdfrwt>
<pdfrwt beam="2">  1       21 0.36047426E-01 0.18487815E+03</pdfrwt>
<totfact> 0.12264356E+05</totfact>
</mgrwt>
</event>
<event>
 4    2  0.3972096E+000  0.1948584E+03  0.7546771E-02  0.1154151E+00
         21   -1    0    0  501  502  0.00000000000E+00  0.00000000000E+00  0.13726972242E+03  0.13726972242E+03  0.00000000000E+00 0. -1.
         21   -1    0    0  502  503 -0.00000000000E+00 -0.00000000000E+00 -0.42968494726E+03  0.42968494726E+03  0.00000000000E+00 0. -1.
          6    1    1    2  501    0  0.84536178486E+02 -0.29906776402E+02  0.22992027615E+02  0.19621012737E+03  0.17300000000E+03 0. -1.
         -6    1    1    2    0  503 -0.84536178486E+02  0.29906776402E+02 -0.31540725246E+03  0.37074454231E+03  0.17300000000E+03 0. -1.
<mgrwt>
<rscale>  2 0.19485836E+03</rscale>
<asrwt>0</asrwt>
<pdfrwt beam="1">  1       21 0.21118419E-01 0.19485836E+03</pdfrwt>
<pdfrwt beam="2">  1       21 0.66105377E-01 0.19485836E+03</pdfrwt>
<totfact> 0.43748675E+04</totfact>
</mgrwt>
</event>
<event>
 4    2  0.3972096E+000  0.1953923E+03  0.7546771E-02  0.1153686E+00
         21   -1    0    0  501  502  0.00000000000E+00  0.00000000000E+00  0.13902111953E+03  0.13902111953E+03  0.00000000000E+00 0. -1.
         21   -1    0    0  502  503 -0.00000000000E+00 -0.00000000000E+00 -0.31001350244E+03  0.31001350244E+03  0.00000000000E+00 0. -1.
          6    1    1    2  501    0 -0.73447107607E+02 -0.53429170293E+02 -0.96360551943E+01  0.19562977129E+03  0.17300000000E+03 0. -1.
         -6    1    1    2    0  503  0.73447107607E+02  0.53429170293E+02 -0.16135632771E+03  0.25340485068E+03  0.17300000000E+03 0. -1.
<mgrwt>
<rscale>  2 0.19539231E+03</rscale>
<asrwt>0</asrwt>
<pdfrwt beam="1">  1       21 0.21387865E-01 0.19539231E+03</pdfrwt>
<pdfrwt beam="2">  1       21 0.47694384E-01 0.19539231E+03</pdfrwt>
<totfact> 0.85464683E+04</totfact>
</mgrwt>
</event>
<event>
 4    2  0.3972096E+000  0.2227001E+03  0.7546771E-02  0.1131886E+00
         21   -1    0    0  503  502  0.00000000000E+00  0.00000000000E+00  0.10756646518E+03  0.10756646518E+03  0.00000000000E+00 0. -1.
         21   -1    0    0  501  503 -0.00000000000E+00 -0.00000000000E+00 -0.50921149409E+03  0.50921149409E+03  0.00000000000E+00 0. -1.
          6    1    1    2  501    0 -0.10358969169E+03 -0.94527842590E+02 -0.29564765398E+03  0.37013899086E+03  0.17300000000E+03 0. -1.
         -6    1    1    2    0  502  0.10358969169E+03  0.94527842590E+02 -0.10599737493E+03  0.24663896842E+03  0.17300000000E+03 0. -1.
<mgrwt>
<rscale>  2 0.22270011E+03</rscale>
<asrwt>0</asrwt>
<pdfrwt beam="1">  1       21 0.16548687E-01 0.22270011E+03</pdfrwt>
<pdfrwt beam="2">  1       21 0.78340228E-01 0.22270011E+03</pdfrwt>
<totfact> 0.46574413E+04</totfact>
</mgrwt>
</event>
<event>
 4    2  0.3972096E+000  0.2692098E+03  0.7546771E-02  0.1101733E+00
         21   -1    0    0  503  502  0.00000000000E+00  0.00000000000E+00  0.42025693084E+03  0.42025693084E+03  0.00000000000E+00 0. -1.
         21   -1    0    0  501  503 -0.00000000000E+00 -0.00000000000E+00 -0.45012685791E+03  0.45012685791E+03  0.00000000000E+00 0.  1.
          6    1    1    2  501    0  0.42551714681E+02  0.20182735723E+03  0.32687287549E+03  0.42346169517E+03  0.17300000000E+03 0. -1.
         -6    1    1    2    0  502 -0.42551714681E+02 -0.20182735723E+03 -0.35674280256E+03  0.44692209357E+03  0.17300000000E+03 0.  1.
<mgrwt>
<rscale>  2 0.26920983E+03</rscale>
<asrwt>0</asrwt>
<pdfrwt beam="1">  1       21 0.64654913E-01 0.26920983E+03</pdfrwt>
<pdfrwt beam="2">  1       21 0.69250285E-01 0.26920983E+03</pdfrwt>
<totfact> 0.39653863E+03</totfact>
</mgrwt>
</event>
<event>
 4    2  0.3972096E+000  0.2206368E+03  0.7546771E-02  0.1133409E+00
         21   -1    0    0  501  502  0.00000000000E+00  0.00000000000E+00  0.25727137752E+02  0.25727137752E+02  0.00000000000E+00 0.  1.
         21   -1    0    0  502  503 -0.00000000000E+00 -0.00000000000E+00 -0.19348250380E+04  0.19348250380E+04  0.00000000000E+00 0. -1.
          6    1    1    2  501    0  0.13623900304E+03  0.13802568881E+02 -0.11000687062E+04  0.11219767089E+04  0.17300000000E+03 0. -1.
         -6    1    1    2    0  503 -0.13623900304E+03 -0.13802568881E+02 -0.80902919401E+03  0.83857546686E+03  0.17300000000E+03 0. -1.
<mgrwt>
<rscale>  2 0.22063675E+03</rscale>
<asrwt>0</asrwt>
<pdfrwt beam="1">  1       21 0.39580196E-02 0.22063675E+03</pdfrwt>
<pdfrwt beam="2">  1       21 0.29766551E+00 0.22063675E+03</pdfrwt>
<totfact> 0.13661903E+04</totfact>
</mgrwt>
</event>
<event>
 4    2  0.3972096E+000  0.1842389E+03  0.7546771E-02  0.1163763E+00
         21   -1    0    0  501  502  0.00000000000E+00  0.00000000000E+00  0.27075535611E+04  0.27075535611E+04  0.00000000000E+00 0.  1.
         21   -1    0    0  502  503 -0.00000000000E+00 -0.00000000000E+00 -0.10704623809E+03  0.10704623809E+03  0.00000000000E+00 0.  1.
          6    1    1    2  501    0 -0.60630721931E+02  0.18408936013E+02  0.26225798946E+04  0.26290434148E+04  0.17300000000E+03 0.  1.
         -6    1    1    2    0  503  0.60630721931E+02 -0.18408936013E+02 -0.22072571591E+02  0.18555638438E+03  0.17300000000E+03 0.  1.
<mgrwt>
<rscale>  2 0.18423890E+03</rscale>
<asrwt>0</asrwt>
<pdfrwt beam="1">  1       21 0.41654665E+00 0.18423890E+03</pdfrwt>
<pdfrwt beam="2">  1       21 0.16468654E-01 0.18423890E+03</pdfrwt>
<totfact> 0.23026644E+02</totfact>
</mgrwt>
</event>
<event>
 4    2  0.3972096E+000  0.1862524E+03  0.7546771E-02  0.1161886E+00
         21   -1    0    0  503  502  0.00000000000E+00  0.00000000000E+00  0.67353471796E+02  0.67353471796E+02  0.00000000000E+00 0.  1.
         21   -1    0    0  501  503 -0.00000000000E+00 -0.00000000000E+00 -0.58443549625E+03  0.58443549625E+03  0.00000000000E+00 0.  1.
          6    1    1    2  501    0  0.51893986801E+02 -0.45474767394E+02 -0.14624490899E+03  0.23680691236E+03  0.17300000000E+03 0.  1.
         -6    1    1    2    0  502 -0.51893986801E+02  0.45474767394E+02 -0.37083711547E+03  0.41498205569E+03  0.17300000000E+03 0.  1.
<mgrwt>
<rscale>  2 0.18625236E+03</rscale>
<asrwt>0</asrwt>
<pdfrwt beam="1">  1       21 0.10362073E-01 0.18625236E+03</pdfrwt>
<pdfrwt beam="2">  1       21 0.89913152E-01 0.18625236E+03</pdfrwt>
<totfact> 0.80450835E+04</totfact>
</mgrwt>
</event>
<event>
 4    2  0.3972096E+000  0.2145626E+03  0.7546771E-02  0.1138003E+00
         21   -1    0    0  501  502  0.00000000000E+00  0.00000000000E+00  0.68095685818E+03  0.68095685818E+03  0.00000000000E+00 0. -1.
         21   -1    0    0  502  503 -0.00000000000E+00 -0.00000000000E+00 -0.82147523871E+02  0.82147523871E+02  0.00000000000E+00 0.  1.
          6    1    1    2  501    0 -0.18762472744E+02 -0.12552320038E+03  0.45993397383E+03  0.50751981686E+03  0.17300000000E+03 0. -1.
         -6    1    1    2    0  503  0.18762472744E+02  0.12552320038E+03  0.13887536048E+03  0.25558456519E+03  0.17300000000E+03 0. -1.
<mgrwt>
<rscale>  2 0.21456259E+03</rscale>
<asrwt>0</asrwt>
<pdfrwt beam="1">  1       21 0.10476259E+00 0.21456259E+03</pdfrwt>
<pdfrwt beam="2">  1       21 0.12638081E-01 0.21456259E+03</pdfrwt>
<totfact> 0.38825514E+04</totfact>
</mgrwt>
</event>
<event>
 4    2  0.3972096E+000  0.1843813E+03  0.7546771E-02  0.1163629E+00
         21   -1    0    0  503  502  0.00000000000E+00  0.00000000000E+00  0.39153856924E+03  0.39153856924E+03  0.00000000000E+00 0.  1.
         21   -1    0    0  501  503 -0.00000000000E+00 -0.00000000000E+00 -0.31570676341E+03  0.31570676341E+03  0.00000000000E+00 0.  1.
          6    1    1    2  501    0 -0.26706976332E+01 -0.63720679293E+02 -0.26317735424E+03  0.32133903806E+03  0.17300000000E+03 0.  1.
         -6    1    1    2    0  502  0.26706976332E+01  0.63720679293E+02  0.33900916007E+03  0.38590629459E+03  0.17300000000E+03 0.  1.
<mgrwt>
<rscale>  2 0.18438128E+03</rscale>
<asrwt>0</asrwt>
<pdfrwt beam="1">  1       21 0.60236703E-01 0.18438128E+03</pdfrwt>
<pdfrwt beam="2">  1       21 0.48570271E-01 0.18438128E+03</pdfrwt>
<totfact> 0.10458449E+04</totfact>
</mgrwt>
</event>
<event>
 4    2  0.3972096E+000  0.1814378E+03  0.7546771E-02  0.1166419E+00
         21   -1    0    0  501  502  0.00000000000E+00  0.00000000000E+00  0.79676164366E+02  0.79676164366E+02  0.00000000000E+00 0.  1.
         21   -1    0    0  502  503 -0.00000000000E+00 -0.00000000000E+00 -0.77585717263E+03  0.77585717263E+03  0.00000000000E+00 0.  1.
          6    1    1    2  501    0  0.26819956741E+02  0.47658762052E+02 -0.55619275059E+02  0.18977136622E+03  0.17300000000E+03 0.  1.
         -6    1    1    2    0  503 -0.26819956741E+02 -0.47658762052E+02 -0.64056173320E+03  0.66576197077E+03  0.17300000000E+03 0.  1.
<mgrwt>
<rscale>  2 0.18143778E+03</rscale>
<asrwt>0</asrwt>
<pdfrwt beam="1">  1       21 0.12257871E-01 0.18143778E+03</pdfrwt>
<pdfrwt beam="2">  1       21 0.11936264E+00 0.18143778E+03</pdfrwt>
<totfact> 0.30426539E+04</totfact>
</mgrwt>
</event>
<event>
 4    2  0.3972096E+000  0.2693051E+03  0.7546771E-02  0.1101678E+00
         21   -1    0    0  503  502  0.00000000000E+00  0.00000000000E+00  0.41827623964E+03  0.41827623964E+03  0.00000000000E+00 0. -1.
         21   -1    0    0  501  503 -0.00000000000E+00 -0.00000000000E+00 -0.17878406321E+03  0.17878406321E+03  0.00000000000E+00 0.  1.
          6    1    1    2  501    0  0.12843208022E+03  0.16155947429E+03  0.67896115272E+02  0.27773214692E+03  0.17300000000E+03 0. -1.
         -6    1    1    2    0  502 -0.12843208022E+03 -0.16155947429E+03  0.17159606116E+03  0.31932815593E+03  0.17300000000E+03 0. -1.
<mgrwt>
<rscale>  2 0.26930515E+03</rscale>
<asrwt>0</asrwt>
<pdfrwt beam="1">  1       21 0.64350191E-01 0.26930515E+03</pdfrwt>
<pdfrwt beam="2">  1       21 0.27505241E-01 0.26930515E+03</pdfrwt>
<totfact> 0.27046897E+04</totfact>
</mgrwt>
</event>
<event>
 4    2  0.3972096E+000  0.2809951E+03  0.7546771E-02  0.1095147E+00
         21   -1    0    0  501  502  0.00000000000E+00  0.00000000000E+00  0.85921763893E+02  0.85921763893E+02  0.00000000000E+00 0. -1.
         21   -1    0    0  502  503 -0.00000000000E+00 -0.00000000000E+00 -0.10140194194E+04  0.10140194194E+04  0.00000000000E+00 0.  1.
          6    1    1    2  501    0 -0.12646937719E+03  0.18175469408E+03 -0.63244194260E+03  0.69205569353E+03  0.17300000000E+03 0.  1.
         -6    1    1    2    0  503  0.12646937719E+03 -0.18175469408E+03 -0.29565571290E+03  0.40788548976E+03  0.17300000000E+03 0. -1.
<mgrwt>
<rscale>  2 0.28099515E+03</rscale>
<asrwt>0</asrwt>
<pdfrwt beam="1">  1       21 0.13218733E-01 0.28099515E+03</pdfrwt>
<pdfrwt beam="2">  1       21 0.15600299E+00 0.28099515E+03</pdfrwt>
<totfact> 0.12572771E+04</totfact>
</mgrwt>
</event>
<event>
 4    2  0.3972096E+000  0.1774139E+03  0.7546771E-02  0.1170330E+00
         21   -1    0    0  501  502  0.00000000000E+00  0.00000000000E+00  0.41476402989E+02  0.41476402989E+02  0.00000000000E+00 0. -1.
         21   -1    0    0  502  503 -0.00000000000E+00 -0.00000000000E+00 -0.76675285186E+03  0.76675285186E+03  0.00000000000E+00 0. -1.
          6    1    1    2  501    0  0.38449445510E+02  0.82669806108E+01 -0.40358153604E+03  0.44085571230E+03  0.17300000000E+03 0. -1.
         -6    1    1    2    0  503 -0.38449445510E+02 -0.82669806108E+01 -0.32169491282E+03  0.36737354255E+03  0.17300000000E+03 0. -1.
<mgrwt>
<rscale>  2 0.17741393E+03</rscale>
<asrwt>0</asrwt>
<pdfrwt beam="1">  1       21 0.63809852E-02 0.17741393E+03</pdfrwt>
<pdfrwt beam="2">  1       21 0.11796197E+00 0.17741393E+03</pdfrwt>
<totfact> 0.98397733E+04</totfact>
</mgrwt>
</event>
<event>
 4    2  0.3972096E+000  0.1801057E+03  0.7546771E-02  0.1167701E+00
         21   -1    0    0  503  502  0.00000000000E+00  0.00000000000E+00  0.14271908565E+03  0.14271908565E+03  0.00000000000E+00 0. -1.
         21   -1    0    0  501  503 -0.00000000000E+00 -0.00000000000E+00 -0.28334267923E+03  0.28334267923E+03  0.00000000000E+00 0. -1.
          6    1    1    2  501    0 -0.24967573812E+02  0.43424324371E+02 -0.16506637627E+03  0.24430505575E+03  0.17300000000E+03 0. -1.
         -6    1    1    2    0  502  0.24967573812E+02 -0.43424324371E+02  0.24442782685E+02  0.18175670913E+03  0.17300000000E+03 0. -1.
<mgrwt>
<rscale>  2 0.18010567E+03</rscale>
<asrwt>0</asrwt>
<pdfrwt beam="1">  1       21 0.21956782E-01 0.18010567E+03</pdfrwt>
<pdfrwt beam="2">  1       21 0.43591181E-01 0.18010567E+03</pdfrwt>
<totfact> 0.98460606E+04</totfact>
</mgrwt>
</event>
<event>
 4    2  0.3972096E+000  0.2124144E+03  0.7546771E-02  0.1139668E+00
         21   -1    0    0  501  502  0.00000000000E+00  0.00000000000E+00  0.13118193826E+03  0.13118193826E+03  0.00000000000E+00 0.  1.
         21   -1    0    0  502  503 -0.00000000000E+00 -0.00000000000E+00 -0.56016866813E+03  0.56016866813E+03  0.00000000000E+00 0.  1.
          6    1    1    2  501    0  0.37973160733E+02  0.11725579843E+03 -0.42925497213E+03  0.47893602318E+03  0.17300000000E+03 0.  1.
         -6    1    1    2    0  503 -0.37973160733E+02 -0.11725579843E+03  0.26824226238E+00  0.21241458320E+03  0.17300000000E+03 0.  1.
<mgrwt>
<rscale>  2 0.21241441E+03</rscale>
<asrwt>0</asrwt>
<pdfrwt beam="1">  1       21 0.20181837E-01 0.21241441E+03</pdfrwt>
<pdfrwt beam="2">  1       21 0.86179795E-01 0.21241441E+03</pdfrwt>
<totfact> 0.26054104E+04</totfact>
</mgrwt>
</event>
<event>
 4    2  0.3972096E+000  0.1863159E+03  0.7546771E-02  0.1161827E+00
         21   -1    0    0  501  502  0.00000000000E+00  0.00000000000E+00  0.38928776295E+03  0.38928776295E+03  0.00000000000E+00 0. -1.
         21   -1    0    0  502  503 -0.00000000000E+00 -0.00000000000E+00 -0.23045135306E+03  0.23045135306E+03  0.00000000000E+00 0. -1.
          6    1    1    2  501    0  0.63403546317E+02  0.27651686858E+02  0.32203921417E+03  0.37205225565E+03  0.17300000000E+03 0. -1.
         -6    1    1    2    0  503 -0.63403546317E+02 -0.27651686858E+02 -0.16320280428E+03  0.24768686036E+03  0.17300000000E+03 0. -1.
<mgrwt>
<rscale>  2 0.18631593E+03</rscale>
<asrwt>0</asrwt>
<pdfrwt beam="1">  1       21 0.59890425E-01 0.18631593E+03</pdfrwt>
<pdfrwt beam="2">  1       21 0.35454054E-01 0.18631593E+03</pdfrwt>
<totfact> 0.20028937E+04</totfact>
</mgrwt>
</event>
<event>
 4    2  0.3972096E+000  0.1786470E+03  0.7546771E-02  0.1169119E+00
         21   -1    0    0  501  502  0.00000000000E+00  0.00000000000E+00  0.92477074835E+02  0.92477074835E+02  0.00000000000E+00 0.  1.
         21   -1    0    0  502  503 -0.00000000000E+00 -0.00000000000E+00 -0.10614301113E+04  0.10614301113E+04  0.00000000000E+00 0.  1.
          6    1    1    2  501    0 -0.43684995966E+02 -0.87966639608E+01 -0.10508800111E+02  0.17895584665E+03  0.17300000000E+03 0.  1.
         -6    1    1    2    0  503  0.43684995966E+02  0.87966639608E+01 -0.95844423636E+03  0.97495133949E+03  0.17300000000E+03 0.  1.
<mgrwt>
<rscale>  2 0.17864703E+03</rscale>
<asrwt>0</asrwt>
<pdfrwt beam="1">  1       21 0.14227242E-01 0.17864703E+03</pdfrwt>
<pdfrwt beam="2">  1       21 0.16329695E+00 0.17864703E+03</pdfrwt>
<totfact> 0.10399831E+04</totfact>
</mgrwt>
</event>
<event>
 4    2  0.3972096E+000  0.2006986E+03  0.7546771E-02  0.1149151E+00
         21   -1    0    0  503  502  0.00000000000E+00  0.00000000000E+00  0.14130807831E+03  0.14130807831E+03  0.00000000000E+00 0. -1.
         21   -1    0    0  501  503 -0.00000000000E+00 -0.00000000000E+00 -0.51722012123E+03  0.51722012123E+03  0.00000000000E+00 0. -1.
          6    1    1    2  501    0 -0.99149828053E+02 -0.22808834846E+02 -0.40855800775E+03  0.45519180248E+03  0.17300000000E+03 0. -1.
         -6    1    1    2    0  502  0.99149828053E+02  0.22808834846E+02  0.32645964829E+02  0.20333639706E+03  0.17300000000E+03 0. -1.
<mgrwt>
<rscale>  2 0.20069861E+03</rscale>
<asrwt>0</asrwt>
<pdfrwt beam="1">  1       21 0.21739704E-01 0.20069861E+03</pdfrwt>
<pdfrwt beam="2">  1       21 0.79572326E-01 0.20069861E+03</pdfrwt>
<totfact> 0.27355112E+04</totfact>
</mgrwt>
</event>
<event>
 4    2  0.3972096E+000  0.1975413E+03  0.7546771E-02  0.1151830E+00
         21   -1    0    0  503  502  0.00000000000E+00  0.00000000000E+00  0.47313931676E+03  0.47313931676E+03  0.00000000000E+00 0.  1.
         21   -1    0    0  501  503 -0.00000000000E+00 -0.00000000000E+00 -0.82856933103E+02  0.82856933103E+02  0.00000000000E+00 0. -1.
          6    1    1    2  501    0 -0.86516058737E+02 -0.40106338967E+02  0.17628682547E+03  0.26476327479E+03  0.17300000000E+03 0. -1.
         -6    1    1    2    0  502  0.86516058737E+02  0.40106338967E+02  0.21399555819E+03  0.29123297507E+03  0.17300000000E+03 0.  1.
<mgrwt>
<rscale>  2 0.19754125E+03</rscale>
<asrwt>0</asrwt>
<pdfrwt beam="1">  1       21 0.72790662E-01 0.19754125E+03</pdfrwt>
<pdfrwt beam="2">  1       21 0.12747221E-01 0.19754125E+03</pdfrwt>
<totfact> 0.89300752E+04</totfact>
</mgrwt>
</event>
<event>
 4    2  0.3972096E+000  0.1836063E+03  0.7546771E-02  0.1164358E+00
         21   -1    0    0  501  502  0.00000000000E+00  0.00000000000E+00  0.69449153828E+02  0.69449153828E+02  0.00000000000E+00 0. -1.
         21   -1    0    0  502  503 -0.00000000000E+00 -0.00000000000E+00 -0.78256698703E+03  0.78256698703E+03  0.00000000000E+00 0. -1.
          6    1    1    2  501    0 -0.61500159001E+02  0.14582465149E+00 -0.94046240332E+02  0.20629102293E+03  0.17300000000E+03 0. -1.
         -6    1    1    2    0  503  0.61500159001E+02 -0.14582465149E+00 -0.61907159287E+03  0.64572511792E+03  0.17300000000E+03 0. -1.
<mgrwt>
<rscale>  2 0.18360635E+03</rscale>
<asrwt>0</asrwt>
<pdfrwt beam="1">  1       21 0.10684485E-01 0.18360635E+03</pdfrwt>
<pdfrwt beam="2">  1       21 0.12039492E+00 0.18360635E+03</pdfrwt>
<totfact> 0.37992404E+04</totfact>
</mgrwt>
</event>
<event>
 4    2  0.3972096E+000  0.1928567E+03  0.7546771E-02  0.1155910E+00
         21   -1    0    0  501  502  0.00000000000E+00  0.00000000000E+00  0.10930094911E+03  0.10930094911E+03  0.00000000000E+00 0.  1.
         21   -1    0    0  502  503 -0.00000000000E+00 -0.00000000000E+00 -0.34686046324E+03  0.34686046324E+03  0.00000000000E+00 0.  1.
          6    1    1    2  501    0  0.80032265637E+02 -0.29318102143E+02 -0.87381796289E+02  0.21172929174E+03  0.17300000000E+03 0.  1.
         -6    1    1    2    0  503 -0.80032265637E+02  0.29318102143E+02 -0.15017771784E+03  0.24443212062E+03  0.17300000000E+03 0.  1.
<mgrwt>
<rscale>  2 0.19285672E+03</rscale>
<asrwt>0</asrwt>
<pdfrwt beam="1">  1       21 0.16815531E-01 0.19285672E+03</pdfrwt>
<pdfrwt beam="2">  1       21 0.53363148E-01 0.19285672E+03</pdfrwt>
<totfact> 0.10581734E+05</totfact>
</mgrwt>
</event>
<event>
 4    2  0.3972096E+000  0.2043438E+03  0.7546771E-02  0.1146125E+00
         21   -1    0    0  503  502  0.00000000000E+00  0.00000000000E+00  0.20606849506E+03  0.20606849506E+03  0.00000000000E+00 0. -1.
         21   -1    0    0  501  503 -0.00000000000E+00 -0.00000000000E+00 -0.23713393757E+03  0.23713393757E+03  0.00000000000E+00 0. -1.
          6    1    1    2  501    0 -0.36451895981E+01 -0.10869274394E+03 -0.10005807296E+03  0.22752586217E+03  0.17300000000E+03 0. -1.
         -6    1    1    2    0  502  0.36451895981E+01  0.10869274394E+03  0.68992630449E+02  0.21567657047E+03  0.17300000000E+03 0. -1.
<mgrwt>
<rscale>  2 0.20434383E+03</rscale>
<asrwt>0</asrwt>
<pdfrwt beam="1">  1       21 0.31702846E-01 0.20434383E+03</pdfrwt>
<pdfrwt beam="2">  1       21 0.36482144E-01 0.20434383E+03</pdfrwt>
<totfact> 0.68952118E+04</totfact>
</mgrwt>
</event>
<event>
 4    2  0.3972096E+000  0.2295944E+03  0.7546771E-02  0.1126926E+00
         21   -1    0    0  501  502  0.00000000000E+00  0.00000000000E+00  0.64341095982E+03  0.64341095982E+03  0.00000000000E+00 0.  1.
         21   -1    0    0  502  503 -0.00000000000E+00 -0.00000000000E+00 -0.94339562360E+02  0.94339562360E+02  0.00000000000E+00 0. -1.
          6    1    1    2  501    0 -0.11794982183E+03 -0.94193636103E+02  0.40833061633E+03  0.46845223212E+03  0.17300000000E+03 0.  1.
         -6    1    1    2    0  503  0.11794982183E+03  0.94193636103E+02  0.14074078113E+03  0.26929829005E+03  0.17300000000E+03 0. -1.
<mgrwt>
<rscale>  2 0.22959443E+03</rscale>
<asrwt>0</asrwt>
<pdfrwt beam="1">  1       21 0.98986299E-01 0.22959443E+03</pdfrwt>
<pdfrwt beam="2">  1       21 0.14513779E-01 0.22959443E+03</pdfrwt>
<totfact> 0.34349449E+04</totfact>
</mgrwt>
</event>
<event>
 4    2  0.3972096E+000  0.1795287E+03  0.7546771E-02  0.1168260E+00
         21   -1    0    0  501  502  0.00000000000E+00  0.00000000000E+00  0.40226428409E+03  0.40226428409E+03  0.00000000000E+00 0.  1.
         21   -1    0    0  502  503 -0.00000000000E+00 -0.00000000000E+00 -0.12058315585E+03  0.12058315585E+03  0.00000000000E+00 0.  1.
          6    1    1    2  501    0 -0.35151523115E+02 -0.32648265343E+02  0.29227217514E+03  0.34300665178E+03  0.17300000000E+03 0.  1.
         -6    1    1    2    0  503  0.35151523115E+02  0.32648265343E+02 -0.10591046900E+02  0.17984078815E+03  0.17300000000E+03 0.  1.
<mgrwt>
<rscale>  2 0.17952866E+03</rscale>
<asrwt>0</asrwt>
<pdfrwt beam="1">  1       21 0.61886812E-01 0.17952866E+03</pdfrwt>
<pdfrwt beam="2">  1       21 0.18551255E-01 0.17952866E+03</pdfrwt>
<totfact> 0.64735652E+04</totfact>
</mgrwt>
</event>
<event>
 4    2  0.3972096E+000  0.1913331E+03  0.7546771E-02  0.1157264E+00
         21   -1    0    0  501  502  0.00000000000E+00  0.00000000000E+00  0.18387922392E+03  0.18387922392E+03  0.00000000000E+00 0.  1.
         21   -1    0    0  502  503 -0.00000000000E+00 -0.00000000000E+00 -0.24769023499E+03  0.24769023499E+03  0.00000000000E+00 0.  1.
          6    1    1    2  501    0  0.64184192845E+02  0.50593799707E+02  0.63679466396E+02  0.20165172357E+03  0.17300000000E+03 0.  1.
         -6    1    1    2    0  503 -0.64184192845E+02 -0.50593799707E+02 -0.12749047746E+03  0.22991773534E+03  0.17300000000E+03 0.  1.
<mgrwt>
<rscale>  2 0.19133307E+03</rscale>
<asrwt>0</asrwt>
<pdfrwt beam="1">  1       21 0.28289112E-01 0.19133307E+03</pdfrwt>
<pdfrwt beam="2">  1       21 0.38106190E-01 0.19133307E+03</pdfrwt>
<totfact> 0.79368131E+04</totfact>
</mgrwt>
</event>
<event>
 4    2  0.3972096E+000  0.2455807E+03  0.7546771E-02  0.1116130E+00
         21   -1    0    0  503  502  0.00000000000E+00  0.00000000000E+00  0.46571914207E+03  0.46571914207E+03  0.00000000000E+00 0. -1.
         21   -1    0    0  501  503 -0.00000000000E+00 -0.00000000000E+00 -0.26304077322E+03  0.26304077322E+03  0.00000000000E+00 0. -1.
          6    1    1    2  501    0  0.37803915943E+02  0.17015215255E+03 -0.15828937531E+03  0.29217360835E+03  0.17300000000E+03 0. -1.
         -6    1    1    2    0  502 -0.37803915943E+02 -0.17015215255E+03  0.36096774416E+03  0.43658630693E+03  0.17300000000E+03 0. -1.
<mgrwt>
<rscale>  2 0.24558072E+03</rscale>
<asrwt>0</asrwt>
<pdfrwt beam="1">  1       21 0.71649099E-01 0.24558072E+03</pdfrwt>
<pdfrwt beam="2">  1       21 0.40467811E-01 0.24558072E+03</pdfrwt>
<totfact> 0.10014837E+04</totfact>
</mgrwt>
</event>
<event>
 4    2  0.3972096E+000  0.2071404E+03  0.7546771E-02  0.1143851E+00
         21   -1    0    0  503  502  0.00000000000E+00  0.00000000000E+00  0.12841496293E+04  0.12841496293E+04  0.00000000000E+00 0.  1.
         21   -1    0    0  501  503 -0.00000000000E+00 -0.00000000000E+00 -0.33638685613E+02  0.33638685613E+02  0.00000000000E+00 0. -1.
          6    1    1    2  501    0 -0.93517307582E+02 -0.65059038424E+02  0.67923668869E+03  0.71011945795E+03  0.17300000000E+03 0.  1.
         -6    1    1    2    0  502  0.93517307582E+02  0.65059038424E+02  0.57127425497E+03  0.60766885693E+03  0.17300000000E+03 0.  1.
<mgrwt>
<rscale>  2 0.20714045E+03</rscale>
<asrwt>0</asrwt>
<pdfrwt beam="1">  1       21 0.19756144E+00 0.20714045E+03</pdfrwt>
<pdfrwt beam="2">  1       21 0.51751834E-02 0.20714045E+03</pdfrwt>
<totfact> 0.34973059E+04</totfact>
</mgrwt>
</event>
<event>
 4    2  0.3972096E+000  0.2094880E+03  0.7546771E-02  0.1141972E+00
         21   -1    0    0  501  502  0.00000000000E+00  0.00000000000E+00  0.16916534311E+03  0.16916534311E+03  0.00000000000E+00 0.  1.
         21   -1    0    0  502  503 -0.00000000000E+00 -0.00000000000E+00 -0.31739380090E+03  0.31739380090E+03  0.00000000000E+00 0.  1.
          6    1    1    2  501    0  0.23589412363E+02 -0.11575728826E+03  0.29857400895E+02  0.21160499651E+03  0.17300000000E+03 0.  1.
         -6    1    1    2    0  503 -0.23589412363E+02  0.11575728826E+03 -0.17808585869E+03  0.27495414750E+03  0.17300000000E+03 0.  1.
<mgrwt>
<rscale>  2 0.20948797E+03</rscale>
<asrwt>0</asrwt>
<pdfrwt beam="1">  1       21 0.26025437E-01 0.20948797E+03</pdfrwt>
<pdfrwt beam="2">  1       21 0.48829816E-01 0.20948797E+03</pdfrwt>
<totfact> 0.55700045E+04</totfact>
</mgrwt>
</event>
<event>
 4    2  0.3972096E+000  0.1759063E+03  0.7546771E-02  0.1171825E+00
         21   -1    0    0  501  502  0.00000000000E+00  0.00000000000E+00  0.80113721617E+02  0.80113721617E+02  0.00000000000E+00 0. -1.
         21   -1    0    0  502  503 -0.00000000000E+00 -0.00000000000E+00 -0.39190202669E+03  0.39190202669E+03  0.00000000000E+00 0. -1.
          6    1    1    2  501    0 -0.27614444831E+02 -0.15857363589E+02 -0.12752303210E+03  0.21726743258E+03  0.17300000000E+03 0. -1.
         -6    1    1    2    0  503  0.27614444831E+02  0.15857363589E+02 -0.18426527298E+03  0.25474831573E+03  0.17300000000E+03 0. -1.
<mgrwt>
<rscale>  2 0.17590626E+03</rscale>
<asrwt>0</asrwt>
<pdfrwt beam="1">  1       21 0.12325188E-01 0.17590626E+03</pdfrwt>
<pdfrwt beam="2">  1       21 0.60292619E-01 0.17590626E+03</pdfrwt>
<totfact> 0.14425425E+05</totfact>
</mgrwt>
</event>
<event>
 4    2  0.3972096E+000  0.1891546E+03  0.7546771E-02  0.1159226E+00
         21   -1    0    0  501  502  0.00000000000E+00  0.00000000000E+00  0.45462157469E+02  0.45462157469E+02  0.00000000000E+00 0.  1.
         21   -1    0    0  502  503 -0.00000000000E+00 -0.00000000000E+00 -0.10686865815E+04  0.10686865815E+04  0.00000000000E+00 0.  1.
          6    1    1    2  501    0  0.26326261365E+02 -0.71814958379E+02 -0.22561717898E+03  0.29441904106E+03  0.17300000000E+03 0.  1.
         -6    1    1    2    0  503 -0.26326261365E+02  0.71814958379E+02 -0.79760724503E+03  0.81972969789E+03  0.17300000000E+03 0.  1.
<mgrwt>
<rscale>  2 0.18915459E+03</rscale>
<asrwt>0</asrwt>
<pdfrwt beam="1">  1       21 0.69941784E-02 0.18915459E+03</pdfrwt>
<pdfrwt beam="2">  1       21 0.16441331E+00 0.18915459E+03</pdfrwt>
<totfact> 0.35495681E+04</totfact>
</mgrwt>
</event>
<event>
 4    2  0.3972096E+000  0.2253950E+03  0.7546771E-02  0.1129924E+00
         21   -1    0    0  501  502  0.00000000000E+00  0.00000000000E+00  0.60132508942E+03  0.60132508942E+03  0.00000000000E+00 0. -1.
         21   -1    0    0  502  503 -0.00000000000E+00 -0.00000000000E+00 -0.11632198976E+03  0.11632198976E+03  0.00000000000E+00 0.  1.
          6    1    1    2  501    0  0.39505497532E+02  0.13897197690E+03  0.43022418539E+03  0.48569099682E+03  0.17300000000E+03 0.  1.
         -6    1    1    2    0  503 -0.39505497532E+02 -0.13897197690E+03  0.54778914269E+02  0.23195608237E+03  0.17300000000E+03 0.  1.
<mgrwt>
<rscale>  2 0.22539497E+03</rscale>
<asrwt>0</asrwt>
<pdfrwt beam="1">  1       21 0.92511550E-01 0.22539497E+03</pdfrwt>
<pdfrwt beam="2">  1       21 0.17895691E-01 0.22539497E+03</pdfrwt>
<totfact> 0.27465808E+04</totfact>
</mgrwt>
</event>
<event>
 4    2  0.3972096E+000  0.2322685E+03  0.7546771E-02  0.1125053E+00
         21   -1    0    0  501  502  0.00000000000E+00  0.00000000000E+00  0.25565892602E+03  0.25565892602E+03  0.00000000000E+00 0. -1.
         21   -1    0    0  502  503 -0.00000000000E+00 -0.00000000000E+00 -0.21229988150E+03  0.21229988150E+03  0.00000000000E+00 0. -1.
          6    1    1    2  501    0  0.24520463880E+02  0.15303078540E+03  0.39859809212E+02  0.23566391073E+03  0.17300000000E+03 0. -1.
         -6    1    1    2    0  503 -0.24520463880E+02 -0.15303078540E+03  0.34992353129E+01  0.23229489680E+03  0.17300000000E+03 0. -1.
<mgrwt>
<rscale>  2 0.23226854E+03</rscale>
<asrwt>0</asrwt>
<pdfrwt beam="1">  1       21 0.39332143E-01 0.23226854E+03</pdfrwt>
<pdfrwt beam="2">  1       21 0.32661520E-01 0.23226854E+03</pdfrwt>
<totfact> 0.55229835E+04</totfact>
</mgrwt>
</event>
<event>
 4    2  0.3972096E+000  0.1919676E+03  0.7546771E-02  0.1156699E+00
         21   -1    0    0  503  502  0.00000000000E+00  0.00000000000E+00  0.12061798851E+04  0.12061798851E+04  0.00000000000E+00 0.  1.
         21   -1    0    0  501  503 -0.00000000000E+00 -0.00000000000E+00 -0.43579551076E+02  0.43579551076E+02  0.00000000000E+00 0.  1.
          6    1    1    2  501    0 -0.39648207829E+02  0.73147548646E+02  0.23964987508E+03  0.30705635783E+03  0.17300000000E+03 0.  1.
         -6    1    1    2    0  502  0.39648207829E+02 -0.73147548646E+02  0.92295045891E+03  0.94270307831E+03  0.17300000000E+03 0.  1.
<mgrwt>
<rscale>  2 0.19196756E+03</rscale>
<asrwt>0</asrwt>
<pdfrwt beam="1">  1       21 0.18556611E+00 0.19196756E+03</pdfrwt>
<pdfrwt beam="2">  1       21 0.67045472E-02 0.19196756E+03</pdfrwt>
<totfact> 0.27209265E+04</totfact>
</mgrwt>
</event>
<event>
 4    2  0.3972096E+000  0.3242477E+03  0.7546771E-02  0.1073711E+00
         21   -1    0    0  501  502  0.00000000000E+00  0.00000000000E+00  0.10179477689E+04  0.10179477689E+04  0.00000000000E+00 0. -1.
         21   -1    0    0  502  503 -0.00000000000E+00 -0.00000000000E+00 -0.12845332705E+03  0.12845332705E+03  0.00000000000E+00 0.  1.
          6    1    1    2  501    0  0.27023452707E+03 -0.46700100677E+02  0.69848153193E+03  0.77007340525E+03  0.17300000000E+03 0. -1.
         -6    1    1    2    0  503 -0.27023452707E+03  0.46700100677E+02  0.19101290989E+03  0.37632769068E+03  0.17300000000E+03 0.  1.
<mgrwt>
<rscale>  2 0.32424774E+03</rscale>
<asrwt>0</asrwt>
<pdfrwt beam="1">  1       21 0.15660734E+00 0.32424774E+03</pdfrwt>
<pdfrwt beam="2">  1       21 0.19762051E-01 0.32424774E+03</pdfrwt>
<totfact> 0.57802600E+03</totfact>
</mgrwt>
</event>
<event>
 4    2  0.3972096E+000  0.1737924E+03  0.7546771E-02  0.1173950E+00
         21   -1    0    0  501  502  0.00000000000E+00  0.00000000000E+00  0.85677276883E+02  0.85677276883E+02  0.00000000000E+00 0. -1.
         21   -1    0    0  502  503 -0.00000000000E+00 -0.00000000000E+00 -0.71911121672E+03  0.71911121672E+03  0.00000000000E+00 0.  1.
          6    1    1    2  501    0  0.18324599646E+01 -0.16475403237E+02 -0.29414784516E+02  0.17626408134E+03  0.17300000000E+03 0. -1.
         -6    1    1    2    0  503 -0.18324599646E+01  0.16475403237E+02 -0.60401915532E+03  0.62852441227E+03  0.17300000000E+03 0.  1.
<mgrwt>
<rscale>  2 0.17379240E+03</rscale>
<asrwt>0</asrwt>
<pdfrwt beam="1">  1       21 0.13181119E-01 0.17379240E+03</pdfrwt>
<pdfrwt beam="2">  1       21 0.11063250E+00 0.17379240E+03</pdfrwt>
<totfact> 0.32281800E+04</totfact>
</mgrwt>
</event>
<event>
 4    2  0.3972096E+000  0.1828168E+03  0.7546771E-02  0.1165104E+00
         21   -1    0    0  503  502  0.00000000000E+00  0.00000000000E+00  0.84761196121E+03  0.84761196121E+03  0.00000000000E+00 0.  1.
         21   -1    0    0  501  503 -0.00000000000E+00 -0.00000000000E+00 -0.51030119820E+02  0.51030119820E+02  0.00000000000E+00 0.  1.
          6    1    1    2  501    0  0.53189225007E+02 -0.25765935616E+02  0.18407062191E+03  0.25943008875E+03  0.17300000000E+03 0.  1.
         -6    1    1    2    0  502 -0.53189225007E+02  0.25765935616E+02  0.61251121948E+03  0.63921199229E+03  0.17300000000E+03 0.  1.
<mgrwt>
<rscale>  2 0.18281679E+03</rscale>
<asrwt>0</asrwt>
<pdfrwt beam="1">  1       21 0.13040183E+00 0.18281679E+03</pdfrwt>
<pdfrwt beam="2">  1       21 0.78507883E-02 0.18281679E+03</pdfrwt>
<totfact> 0.53456483E+04</totfact>
</mgrwt>
</event>
<event>
 4    2  0.3972096E+000  0.1858413E+03  0.7546771E-02  0.1162267E+00
         21   -1    0    0  501  502  0.00000000000E+00  0.00000000000E+00  0.36540077014E+03  0.36540077014E+03  0.00000000000E+00 0. -1.
         21   -1    0    0  502  503 -0.00000000000E+00 -0.00000000000E+00 -0.11550029525E+03  0.11550029525E+03  0.00000000000E+00 0. -1.
          6    1    1    2  501    0 -0.84383456322E+01  0.67355526729E+02  0.22743517747E+03  0.29370688213E+03  0.17300000000E+03 0. -1.
         -6    1    1    2    0  503  0.84383456322E+01 -0.67355526729E+02  0.22465297425E+02  0.18719418326E+03  0.17300000000E+03 0. -1.
<mgrwt>
<rscale>  2 0.18584126E+03</rscale>
<asrwt>0</asrwt>
<pdfrwt beam="1">  1       21 0.56215502E-01 0.18584126E+03</pdfrwt>
<pdfrwt beam="2">  1       21 0.17769276E-01 0.18584126E+03</pdfrwt>
<totfact> 0.85859099E+04</totfact>
</mgrwt>
</event>
<event>
 4    2  0.3972096E+000  0.1997815E+03  0.7546771E-02  0.1149924E+00
         21   -1    0    0  503  502  0.00000000000E+00  0.00000000000E+00  0.99152634451E+02  0.99152634451E+02  0.00000000000E+00 0. -1.
         21   -1    0    0  501  503 -0.00000000000E+00 -0.00000000000E+00 -0.40276750124E+03  0.40276750124E+03  0.00000000000E+00 0. -1.
          6    1    1    2  501    0  0.37220037863E+02  0.92727062863E+02 -0.15780641491E+03  0.25458889212E+03  0.17300000000E+03 0.  1.
         -6    1    1    2    0  502 -0.37220037863E+02 -0.92727062863E+02 -0.14580845188E+03  0.24733124357E+03  0.17300000000E+03 0.  1.
<mgrwt>
<rscale>  2 0.19978148E+03</rscale>
<asrwt>0</asrwt>
<pdfrwt beam="1">  1       21 0.15254251E-01 0.19978148E+03</pdfrwt>
<pdfrwt beam="2">  1       21 0.61964232E-01 0.19978148E+03</pdfrwt>
<totfact> 0.91702480E+04</totfact>
</mgrwt>
</event>
<event>
 4    2  0.3972096E+000  0.2698542E+03  0.7546771E-02  0.1101363E+00
         21   -1    0    0  501  502  0.00000000000E+00  0.00000000000E+00  0.47874323655E+02  0.47874323655E+02  0.00000000000E+00 0.  1.
         21   -1    0    0  502  503 -0.00000000000E+00 -0.00000000000E+00 -0.19808928729E+04  0.19808928729E+04  0.00000000000E+00 0. -1.
          6    1    1    2  501    0 -0.20690676711E+03 -0.90489116351E+01 -0.47779367527E+03  0.54873316758E+03  0.17300000000E+03 0.  1.
         -6    1    1    2    0  503  0.20690676711E+03  0.90489116351E+01 -0.14552248740E+04  0.14800340289E+04  0.17300000000E+03 0. -1.
<mgrwt>
<rscale>  2 0.26985421E+03</rscale>
<asrwt>0</asrwt>
<pdfrwt beam="1">  1       21 0.73652815E-02 0.26985421E+03</pdfrwt>
<pdfrwt beam="2">  1       21 0.30475271E+00 0.26985421E+03</pdfrwt>
<totfact> 0.41077082E+03</totfact>
</mgrwt>
</event>
<event>
 4    2  0.3972096E+000  0.1818070E+03  0.7546771E-02  0.1166066E+00
         21   -1    0    0  501  502  0.00000000000E+00  0.00000000000E+00  0.51031097701E+02  0.51031097701E+02  0.00000000000E+00 0.  1.
         21   -1    0    0  502  503 -0.00000000000E+00 -0.00000000000E+00 -0.65234085854E+03  0.65234085854E+03  0.00000000000E+00 0.  1.
          6    1    1    2  501    0 -0.30880139049E+02  0.46596032672E+02 -0.27105013251E+03  0.32637700223E+03  0.17300000000E+03 0.  1.
         -6    1    1    2    0  503  0.30880139049E+02 -0.46596032672E+02 -0.33025962833E+03  0.37699495401E+03  0.17300000000E+03 0.  1.
<mgrwt>
<rscale>  2 0.18180697E+03</rscale>
<asrwt>0</asrwt>
<pdfrwt beam="1">  1       21 0.78509379E-02 0.18180697E+03</pdfrwt>
<pdfrwt beam="2">  1       21 0.10036014E+00 0.18180697E+03</pdfrwt>
<totfact> 0.10137717E+05</totfact>
</mgrwt>
</event>
<event>
 4    2  0.3972096E+000  0.2168362E+03  0.7546771E-02  0.1136264E+00
         21   -1    0    0  501  502  0.00000000000E+00  0.00000000000E+00  0.43962282519E+02  0.43962282519E+02  0.00000000000E+00 0.  1.
         21   -1    0    0  502  503 -0.00000000000E+00 -0.00000000000E+00 -0.13494999004E+04  0.13494999004E+04  0.00000000000E+00 0. -1.
          6    1    1    2  501    0  0.98136685532E+02  0.86360375622E+02 -0.33540816197E+03  0.39939524114E+03  0.17300000000E+03 0.  1.
         -6    1    1    2    0  503 -0.98136685532E+02 -0.86360375622E+02 -0.97012945595E+03  0.99406694183E+03  0.17300000000E+03 0. -1.
<mgrwt>
<rscale>  2 0.21683617E+03</rscale>
<asrwt>0</asrwt>
<pdfrwt beam="1">  1       21 0.67634289E-02 0.21683617E+03</pdfrwt>
<pdfrwt beam="2">  1       21 0.20761534E+00 0.21683617E+03</pdfrwt>
<totfact> 0.18928674E+04</totfact>
</mgrwt>
</event>
<event>
 4    2  0.3972096E+000  0.1882877E+03  0.7546771E-02  0.1160015E+00
         21   -1    0    0  503  502  0.00000000000E+00  0.00000000000E+00  0.12699854267E+03  0.12699854267E+03  0.00000000000E+00 0. -1.
         21   -1    0    0  501  503 -0.00000000000E+00 -0.00000000000E+00 -0.71710833459E+03  0.71710833459E+03  0.00000000000E+00 0. -1.
          6    1    1    2  501    0  0.68760983005E+02 -0.28199135505E+02 -0.62488404318E+03  0.65263491436E+03  0.17300000000E+03 0. -1.
         -6    1    1    2    0  502 -0.68760983005E+02  0.28199135505E+02  0.34774251255E+02  0.19147196290E+03  0.17300000000E+03 0. -1.
<mgrwt>
<rscale>  2 0.18828772E+03</rscale>
<asrwt>0</asrwt>
<pdfrwt beam="1">  1       21 0.19538237E-01 0.18828772E+03</pdfrwt>
<pdfrwt beam="2">  1       21 0.11032436E+00 0.18828772E+03</pdfrwt>
<totfact> 0.15680226E+04</totfact>
</mgrwt>
</event>
<event>
 4    2  0.3972096E+000  0.1906427E+03  0.7546771E-02  0.1157883E+00
         21   -1    0    0  501  502  0.00000000000E+00  0.00000000000E+00  0.10114460154E+03  0.10114460154E+03  0.00000000000E+00 0.  1.
         21   -1    0    0  502  503 -0.00000000000E+00 -0.00000000000E+00 -0.38396673403E+03  0.38396673403E+03  0.00000000000E+00 0.  1.
          6    1    1    2  501    0 -0.58897154231E+02  0.54284098726E+02 -0.79974656907E+02  0.20673795950E+03  0.17300000000E+03 0.  1.
         -6    1    1    2    0  503  0.58897154231E+02 -0.54284098726E+02 -0.20284747559E+03  0.27837337607E+03  0.17300000000E+03 0.  1.
<mgrwt>
<rscale>  2 0.19064270E+03</rscale>
<asrwt>0</asrwt>
<pdfrwt beam="1">  1       21 0.15560708E-01 0.19064270E+03</pdfrwt>
<pdfrwt beam="2">  1       21 0.59071805E-01 0.19064270E+03</pdfrwt>
<totfact> 0.98379758E+04</totfact>
</mgrwt>
</event>
<event>
 4    2  0.3972096E+000  0.1802883E+03  0.7546771E-02  0.1167524E+00
         21   -1    0    0  501  502  0.00000000000E+00  0.00000000000E+00  0.40508622865E+02  0.40508622865E+02  0.00000000000E+00 0. -1.
         21   -1    0    0  502  503 -0.00000000000E+00 -0.00000000000E+00 -0.11685047284E+04  0.11685047284E+04  0.00000000000E+00 0. -1.
          6    1    1    2  501    0 -0.23533502805E+02 -0.44956162801E+02 -0.22562793831E+03  0.28881109549E+03  0.17300000000E+03 0. -1.
         -6    1    1    2    0  503  0.23533502805E+02  0.44956162801E+02 -0.90236816721E+03  0.92020225577E+03  0.17300000000E+03 0. -1.
<mgrwt>
<rscale>  2 0.18028833E+03</rscale>
<asrwt>0</asrwt>
<pdfrwt beam="1">  1       21 0.62320962E-02 0.18028833E+03</pdfrwt>
<pdfrwt beam="2">  1       21 0.17976995E+00 0.18028833E+03</pdfrwt>
<totfact> 0.34018896E+04</totfact>
</mgrwt>
</event>
<event>
 4    2  0.3972096E+000  0.1775435E+03  0.7546771E-02  0.1170202E+00
         21   -1    0    0  503  502  0.00000000000E+00  0.00000000000E+00  0.64268786670E+03  0.64268786670E+03  0.00000000000E+00 0.  1.
         21   -1    0    0  501  503 -0.00000000000E+00 -0.00000000000E+00 -0.12342229494E+03  0.12342229494E+03  0.00000000000E+00 0.  1.
          6    1    1    2  501    0  0.25058930662E+00 -0.39907839074E+02 -0.37725290248E+02  0.18150728894E+03  0.17300000000E+03 0.  1.
         -6    1    1    2    0  502 -0.25058930662E+00  0.39907839074E+02  0.55699086201E+03  0.58460287270E+03  0.17300000000E+03 0.  1.
<mgrwt>
<rscale>  2 0.17754351E+03</rscale>
<asrwt>0</asrwt>
<pdfrwt beam="1">  1       21 0.98875054E-01 0.17754351E+03</pdfrwt>
<pdfrwt beam="2">  1       21 0.18988046E-01 0.17754351E+03</pdfrwt>
<totfact> 0.21640617E+04</totfact>
</mgrwt>
</event>
<event>
 4    2  0.3972096E+000  0.2400478E+03  0.7546771E-02  0.1119761E+00
         21   -1    0    0  501  502  0.00000000000E+00  0.00000000000E+00  0.16700633351E+03  0.16700633351E+03  0.00000000000E+00 0. -1.
         21   -1    0    0  502  503 -0.00000000000E+00 -0.00000000000E+00 -0.34508084276E+03  0.34508084276E+03  0.00000000000E+00 0.  1.
          6    1    1    2  501    0  0.11126784058E+02  0.16604256154E+03 -0.86068305275E+02  0.25501115807E+03  0.17300000000E+03 0.  1.
         -6    1    1    2    0  503 -0.11126784058E+02 -0.16604256154E+03 -0.92006203970E+02  0.25707601820E+03  0.17300000000E+03 0. -1.
<mgrwt>
<rscale>  2 0.24004778E+03</rscale>
<asrwt>0</asrwt>
<pdfrwt beam="1">  1       21 0.25693283E-01 0.24004778E+03</pdfrwt>
<pdfrwt beam="2">  1       21 0.53089359E-01 0.24004778E+03</pdfrwt>
<totfact> 0.47265847E+04</totfact>
</mgrwt>
</event>
<event>
 4    2  0.3972096E+000  0.1782312E+03  0.7546771E-02  0.1169526E+00
         21   -1    0    0  503  502  0.00000000000E+00  0.00000000000E+00  0.89590975281E+03  0.89590975281E+03  0.00000000000E+00 0. -1.
         21   -1    0    0  501  503 -0.00000000000E+00 -0.00000000000E+00 -0.35884411825E+02  0.35884411825E+02  0.00000000000E+00 0. -1.
          6    1    1    2  501    0  0.18512630857E+02  0.38660487893E+02  0.48085385921E+03  0.51282237153E+03  0.17300000000E+03 0. -1.
         -6    1    1    2    0  502 -0.18512630857E+02 -0.38660487893E+02  0.37917148177E+03  0.41897179310E+03  0.17300000000E+03 0. -1.
<mgrwt>
<rscale>  2 0.17823117E+03</rscale>
<asrwt>0</asrwt>
<pdfrwt beam="1">  1       21 0.13783225E+00 0.17823117E+03</pdfrwt>
<pdfrwt beam="2">  1       21 0.55206794E-02 0.17823117E+03</pdfrwt>
<totfact> 0.85263572E+04</totfact>
</mgrwt>
</event>
<event>
 4    2  0.3972096E+000  0.2659323E+03  0.7546771E-02  0.1103630E+00
         21   -1    0    0  501  502  0.00000000000E+00  0.00000000000E+00  0.57938447288E+03  0.57938447288E+03  0.00000000000E+00 0.  1.
         21   -1    0    0  502  503 -0.00000000000E+00 -0.00000000000E+00 -0.16495881022E+03  0.16495881022E+03  0.00000000000E+00 0.  1.
          6    1    1    2  501    0  0.11645472557E+03 -0.16501296927E+03  0.39700373661E+03  0.47784092543E+03  0.17300000000E+03 0.  1.
         -6    1    1    2    0  503 -0.11645472557E+03  0.16501296927E+03  0.17421926046E+02  0.26650235767E+03  0.17300000000E+03 0.  1.
<mgrwt>
<rscale>  2 0.26593229E+03</rscale>
<asrwt>0</asrwt>
<pdfrwt beam="1">  1       21 0.89136072E-01 0.26593229E+03</pdfrwt>
<pdfrwt beam="2">  1       21 0.25378279E-01 0.26593229E+03</pdfrwt>
<totfact> 0.15167682E+04</totfact>
</mgrwt>
</event>
<event>
 4    2  0.3972096E+000  0.1761771E+03  0.7546771E-02  0.1171555E+00
         21   -1    0    0  503  502  0.00000000000E+00  0.00000000000E+00  0.98966627219E+02  0.98966627219E+02  0.00000000000E+00 0. -1.
         21   -1    0    0  501  503 -0.00000000000E+00 -0.00000000000E+00 -0.60355418515E+03  0.60355418515E+03  0.00000000000E+00 0. -1.
          6    1    1    2  501    0 -0.33013604624E+02  0.44111297994E+01 -0.49574806775E+03  0.52612213680E+03  0.17300000000E+03 0. -1.
         -6    1    1    2    0  502  0.33013604624E+02 -0.44111297994E+01 -0.88394901856E+01  0.17639867557E+03  0.17300000000E+03 0. -1.
<mgrwt>
<rscale>  2 0.17617706E+03</rscale>
<asrwt>0</asrwt>
<pdfrwt beam="1">  1       21 0.15225635E-01 0.17617706E+03</pdfrwt>
<pdfrwt beam="2">  1       21 0.92854490E-01 0.17617706E+03</pdfrwt>
<totfact> 0.37631692E+04</totfact>
</mgrwt>
</event>
<event>
 4    2  0.3972096E+000  0.1961595E+03  0.7546771E-02  0.1153020E+00
         21   -1    0    0  501  502  0.00000000000E+00  0.00000000000E+00  0.99637710372E+03  0.99637710372E+03  0.00000000000E+00 0. -1.
         21   -1    0    0  502  503 -0.00000000000E+00 -0.00000000000E+00 -0.42115559642E+02  0.42115559642E+02  0.00000000000E+00 0. -1.
          6    1    1    2  501    0  0.48888037652E+02 -0.78482654067E+02  0.62675607317E+03  0.65673567169E+03  0.17300000000E+03 0. -1.
         -6    1    1    2    0  503 -0.48888037652E+02  0.78482654067E+02  0.32750547091E+03  0.38175699167E+03  0.17300000000E+03 0. -1.
<mgrwt>
<rscale>  2 0.19615955E+03</rscale>
<asrwt>0</asrwt>
<pdfrwt beam="1">  1       21 0.15328877E+00 0.19615955E+03</pdfrwt>
<pdfrwt beam="2">  1       21 0.64793176E-02 0.19615955E+03</pdfrwt>
<totfact> 0.48683321E+04</totfact>
</mgrwt>
</event>
<event>
 4    2  0.3972096E+000  0.1864762E+03  0.7546771E-02  0.1161679E+00
         21   -1    0    0  501  502  0.00000000000E+00  0.00000000000E+00  0.12324087737E+04  0.12324087737E+04  0.00000000000E+00 0. -1.
         21   -1    0    0  502  503 -0.00000000000E+00 -0.00000000000E+00 -0.43301445156E+02  0.43301445156E+02  0.00000000000E+00 0. -1.
          6    1    1    2  501    0 -0.18439368374E+02 -0.67114447097E+02  0.97104350044E+03  0.98878654879E+03  0.17300000000E+03 0. -1.
         -6    1    1    2    0  503  0.18439368374E+02  0.67114447097E+02  0.21806382808E+03  0.28692367004E+03  0.17300000000E+03 0. -1.
<mgrwt>
<rscale>  2 0.18647616E+03</rscale>
<asrwt>0</asrwt>
<pdfrwt beam="1">  1       21 0.18960132E+00 0.18647616E+03</pdfrwt>
<pdfrwt beam="2">  1       21 0.66617617E-02 0.18647616E+03</pdfrwt>
<totfact> 0.25966350E+04</totfact>
</mgrwt>
</event>
<event>
 4    2  0.3972096E+000  0.1965505E+03  0.7546771E-02  0.1152682E+00
         21   -1    0    0  501  502  0.00000000000E+00  0.00000000000E+00  0.14312900793E+03  0.14312900793E+03  0.00000000000E+00 0.  1.
         21   -1    0    0  502  503 -0.00000000000E+00 -0.00000000000E+00 -0.29550059613E+03  0.29550059613E+03  0.00000000000E+00 0. -1.
          6    1    1    2  501    0 -0.22001136774E+01 -0.93264541864E+02 -0.14072434326E+03  0.24173426744E+03  0.17300000000E+03 0. -1.
         -6    1    1    2    0  503  0.22001136774E+01  0.93264541864E+02 -0.11647244951E+02  0.19689533662E+03  0.17300000000E+03 0.  1.
<mgrwt>
<rscale>  2 0.19655054E+03</rscale>
<asrwt>0</asrwt>
<pdfrwt beam="1">  1       21 0.22019847E-01 0.19655054E+03</pdfrwt>
<pdfrwt beam="2">  1       21 0.45461630E-01 0.19655054E+03</pdfrwt>
<totfact> 0.89277107E+04</totfact>
</mgrwt>
</event>
<event>
 4    2  0.3972096E+000  0.2314121E+03  0.7546771E-02  0.1125650E+00
         21   -1    0    0  501  502  0.00000000000E+00  0.00000000000E+00  0.81189389017E+02  0.81189389017E+02  0.00000000000E+00 0. -1.
         21   -1    0    0  502  503 -0.00000000000E+00 -0.00000000000E+00 -0.69376310221E+03  0.69376310221E+03  0.00000000000E+00 0. -1.
          6    1    1    2  501    0 -0.49760282078E+02 -0.14541831963E+03 -0.39228564063E+03  0.45545537345E+03  0.17300000000E+03 0. -1.
         -6    1    1    2    0  503  0.49760282078E+02  0.14541831963E+03 -0.22028807257E+03  0.31949711778E+03  0.17300000000E+03 0. -1.
<mgrwt>
<rscale>  2 0.23141213E+03</rscale>
<asrwt>0</asrwt>
<pdfrwt beam="1">  1       21 0.12490675E-01 0.23141213E+03</pdfrwt>
<pdfrwt beam="2">  1       21 0.10673279E+00 0.23141213E+03</pdfrwt>
<totfact> 0.37592109E+04</totfact>
</mgrwt>
</event>
<event>
 4    2  0.3972096E+000  0.2285207E+03  0.7546771E-02  0.1127685E+00
         21   -1    0    0  503  502  0.00000000000E+00  0.00000000000E+00  0.90556271386E+03  0.90556271386E+03  0.00000000000E+00 0. -1.
         21   -1    0    0  501  503 -0.00000000000E+00 -0.00000000000E+00 -0.64303702287E+02  0.64303702287E+02  0.00000000000E+00 0. -1.
          6    1    1    2  501    0  0.12328038890E+03  0.84229717539E+02  0.26484728251E+03  0.34980820839E+03  0.17300000000E+03 0. -1.
         -6    1    1    2    0  502 -0.12328038890E+03 -0.84229717539E+02  0.57641172906E+03  0.62005820776E+03  0.17300000000E+03 0. -1.
<mgrwt>
<rscale>  2 0.22852068E+03</rscale>
<asrwt>0</asrwt>
<pdfrwt beam="1">  1       21 0.13931733E+00 0.22852068E+03</pdfrwt>
<pdfrwt beam="2">  1       21 0.98928780E-02 0.22852068E+03</pdfrwt>
<totfact> 0.29345572E+04</totfact>
</mgrwt>
</event>
<event>
 4    2  0.3972096E+000  0.1805730E+03  0.7546771E-02  0.1167250E+00
         21   -1    0    0  501  502  0.00000000000E+00  0.00000000000E+00  0.88749086997E+03  0.88749086997E+03  0.00000000000E+00 0. -1.
         21   -1    0    0  502  503 -0.00000000000E+00 -0.00000000000E+00 -0.41078145360E+02  0.41078145360E+02  0.00000000000E+00 0. -1.
          6    1    1    2  501    0  0.44228039170E+02  0.26860771384E+02  0.57408203307E+03  0.60181126708E+03  0.17300000000E+03 0. -1.
         -6    1    1    2    0  503 -0.44228039170E+02 -0.26860771384E+02  0.27233069154E+03  0.32675774825E+03  0.17300000000E+03 0. -1.
<mgrwt>
<rscale>  2 0.18057303E+03</rscale>
<asrwt>0</asrwt>
<pdfrwt beam="1">  1       21 0.13653704E+00 0.18057303E+03</pdfrwt>
<pdfrwt beam="2">  1       21 0.63197153E-02 0.18057303E+03</pdfrwt>
<totfact> 0.69265280E+04</totfact>
</mgrwt>
</event>
<event>
 4    2  0.3972096E+000  0.2095232E+03  0.7546771E-02  0.1141944E+00
         21   -1    0    0  503  502  0.00000000000E+00  0.00000000000E+00  0.11610623618E+03  0.11610623618E+03  0.00000000000E+00 0.  1.
         21   -1    0    0  501  503 -0.00000000000E+00 -0.00000000000E+00 -0.42886580671E+03  0.42886580671E+03  0.00000000000E+00 0.  1.
          6    1    1    2  501    0 -0.11815563689E+03  0.31996180521E+01 -0.25012754617E+03  0.32628788123E+03  0.17300000000E+03 0.  1.
         -6    1    1    2    0  502  0.11815563689E+03 -0.31996180521E+01 -0.62632024361E+02  0.21868416166E+03  0.17300000000E+03 0.  1.
<mgrwt>
<rscale>  2 0.20952325E+03</rscale>
<asrwt>0</asrwt>
<pdfrwt beam="1">  1       21 0.17862497E-01 0.20952325E+03</pdfrwt>
<pdfrwt beam="2">  1       21 0.65979356E-01 0.20952325E+03</pdfrwt>
<totfact> 0.59601432E+04</totfact>
</mgrwt>
</event>
<event>
 4    2  0.3972096E+000  0.1735408E+03  0.7546771E-02  0.1174205E+00
         21   -1    0    0  501  502  0.00000000000E+00  0.00000000000E+00  0.68584947625E+03  0.68584947625E+03  0.00000000000E+00 0. -1.
         21   -1    0    0  502  503 -0.00000000000E+00 -0.00000000000E+00 -0.83640771247E+02  0.83640771247E+02  0.00000000000E+00 0. -1.
          6    1    1    2  501    0 -0.15115191102E+01  0.13605788583E+02  0.56627266061E+03  0.59226778430E+03  0.17300000000E+03 0. -1.
         -6    1    1    2    0  503  0.15115191102E+01 -0.13605788583E+02  0.35936044395E+02  0.17722246319E+03  0.17300000000E+03 0. -1.
<mgrwt>
<rscale>  2 0.17354078E+03</rscale>
<asrwt>0</asrwt>
<pdfrwt beam="1">  1       21 0.10551530E+00 0.17354078E+03</pdfrwt>
<pdfrwt beam="2">  1       21 0.12867811E-01 0.17354078E+03</pdfrwt>
<totfact> 0.37778868E+04</totfact>
</mgrwt>
</event>
<event>
 4    2  0.3972096E+000  0.1990037E+03  0.7546771E-02  0.1150582E+00
         21   -1    0    0  501  502  0.00000000000E+00  0.00000000000E+00  0.37038706778E+03  0.37038706778E+03  0.00000000000E+00 0.  1.
         21   -1    0    0  502  503 -0.00000000000E+00 -0.00000000000E+00 -0.10810494198E+03  0.10810494198E+03  0.00000000000E+00 0.  1.
          6    1    1    2  501    0 -0.84567994395E+02  0.50216659508E+02  0.10611243221E+03  0.22552673198E+03  0.17300000000E+03 0.  1.
         -6    1    1    2    0  503  0.84567994395E+02 -0.50216659508E+02  0.15616969358E+03  0.25296527778E+03  0.17300000000E+03 0.  1.
<mgrwt>
<rscale>  2 0.19900366E+03</rscale>
<asrwt>0</asrwt>
<pdfrwt beam="1">  1       21 0.56982625E-01 0.19900366E+03</pdfrwt>
<pdfrwt beam="2">  1       21 0.16631530E-01 0.19900366E+03</pdfrwt>
<totfact> 0.93729177E+04</totfact>
</mgrwt>
</event>
<event>
 4    2  0.3972096E+000  0.1796244E+03  0.7546771E-02  0.1168167E+00
         21   -1    0    0  501  502  0.00000000000E+00  0.00000000000E+00  0.10104141053E+04  0.10104141053E+04  0.00000000000E+00 0.  1.
         21   -1    0    0  502  503 -0.00000000000E+00 -0.00000000000E+00 -0.89233498541E+02  0.89233498541E+02  0.00000000000E+00 0. -1.
          6    1    1    2  501    0 -0.20368322546E+02 -0.43829822389E+02  0.90118690790E+03  0.91891390503E+03  0.17300000000E+03 0.  1.
         -6    1    1    2    0  503  0.20368322546E+02  0.43829822389E+02  0.19993698870E+02  0.18073369882E+03  0.17300000000E+03 0. -1.
<mgrwt>
<rscale>  2 0.17962439E+03</rscale>
<asrwt>0</asrwt>
<pdfrwt beam="1">  1       21 0.15544832E+00 0.17962439E+03</pdfrwt>
<pdfrwt beam="2">  1       21 0.13728231E-01 0.17962439E+03</pdfrwt>
<totfact> 0.12652125E+04</totfact>
</mgrwt>
</event>
<event>
 4    2  0.3972096E+000  0.1743266E+03  0.7546771E-02  0.1173410E+00
         21   -1    0    0  501  502  0.00000000000E+00  0.00000000000E+00  0.62121703899E+03  0.62121703899E+03  0.00000000000E+00 0. -1.
         21   -1    0    0  502  503 -0.00000000000E+00 -0.00000000000E+00 -0.34520237536E+03  0.34520237536E+03  0.00000000000E+00 0. -1.
          6    1    1    2  501    0 -0.20380684618E+02 -0.67371410035E+01  0.58567103115E+03  0.61106490499E+03  0.17300000000E+03 0. -1.
         -6    1    1    2    0  503  0.20380684618E+02  0.67371410035E+01 -0.30965636752E+03  0.35535450936E+03  0.17300000000E+03 0. -1.
<mgrwt>
<rscale>  2 0.17432659E+03</rscale>
<asrwt>0</asrwt>
<pdfrwt beam="1">  1       21 0.95571852E-01 0.17432659E+03</pdfrwt>
<pdfrwt beam="2">  1       21 0.53108058E-01 0.17432659E+03</pdfrwt>
<totfact> 0.31174184E+03</totfact>
</mgrwt>
</event>
<event>
 4    2  0.3972096E+000  0.2722964E+03  0.7546771E-02  0.1099972E+00
         21   -1    0    0  503  502  0.00000000000E+00  0.00000000000E+00  0.16739714479E+03  0.16739714479E+03  0.00000000000E+00 0.  1.
         21   -1    0    0  501  503 -0.00000000000E+00 -0.00000000000E+00 -0.55125848907E+03  0.55125848907E+03  0.00000000000E+00 0.  1.
          6    1    1    2  501    0 -0.16826474193E+03 -0.12610827091E+03 -0.35121876585E+03  0.44440965432E+03  0.17300000000E+03 0.  1.
         -6    1    1    2    0  502  0.16826474193E+03  0.12610827091E+03 -0.32642578420E+02  0.27424597954E+03  0.17300000000E+03 0.  1.
<mgrwt>
<rscale>  2 0.27229638E+03</rscale>
<asrwt>0</asrwt>
<pdfrwt beam="1">  1       21 0.25753407E-01 0.27229638E+03</pdfrwt>
<pdfrwt beam="2">  1       21 0.84808999E-01 0.27229638E+03</pdfrwt>
<totfact> 0.16498502E+04</totfact>
</mgrwt>
</event>
<event>
 4    2  0.3972096E+000  0.1896988E+03  0.7546771E-02  0.1158733E+00
         21   -1    0    0  503  502  0.00000000000E+00  0.00000000000E+00  0.14688836148E+03  0.14688836148E+03  0.00000000000E+00 0.  1.
         21   -1    0    0  501  503 -0.00000000000E+00 -0.00000000000E+00 -0.28719372213E+03  0.28719372213E+03  0.00000000000E+00 0. -1.
          6    1    1    2  501    0  0.66024216175E+02 -0.41200019571E+02 -0.15335754511E+03  0.24393477689E+03  0.17300000000E+03 0.  1.
         -6    1    1    2    0  502 -0.66024216175E+02  0.41200019571E+02  0.13052184460E+02  0.19014730672E+03  0.17300000000E+03 0.  1.
<mgrwt>
<rscale>  2 0.18969881E+03</rscale>
<asrwt>0</asrwt>
<pdfrwt beam="1">  1       21 0.22598209E-01 0.18969881E+03</pdfrwt>
<pdfrwt beam="2">  1       21 0.44183650E-01 0.18969881E+03</pdfrwt>
<totfact> 0.90387688E+04</totfact>
</mgrwt>
</event>
<event>
 4    2  0.3972096E+000  0.3004794E+03  0.7546771E-02  0.1085001E+00
         21   -1    0    0  503  502  0.00000000000E+00  0.00000000000E+00  0.57110428873E+03  0.57110428873E+03  0.00000000000E+00 0.  1.
         21   -1    0    0  501  503 -0.00000000000E+00 -0.00000000000E+00 -0.20117013534E+03  0.20117013534E+03  0.00000000000E+00 0.  1.
          6    1    1    2  501    0  0.19747909392E+03 -0.14615356536E+03  0.36364913810E+03  0.47172932159E+03  0.17300000000E+03 0.  1.
         -6    1    1    2    0  502 -0.19747909392E+03  0.14615356536E+03  0.62850152815E+01  0.30054510247E+03  0.17300000000E+03 0.  1.
<mgrwt>
<rscale>  2 0.30047938E+03</rscale>
<asrwt>0</asrwt>
<pdfrwt beam="1">  1       21 0.87862198E-01 0.30047938E+03</pdfrwt>
<pdfrwt beam="2">  1       21 0.30949252E-01 0.30047938E+03</pdfrwt>
<totfact> 0.10477930E+04</totfact>
</mgrwt>
</event>
<event>
 4    2  0.3972096E+000  0.1752603E+03  0.7546771E-02  0.1172471E+00
         21   -1    0    0  503  502  0.00000000000E+00  0.00000000000E+00  0.24327326250E+03  0.24327326250E+03  0.00000000000E+00 0. -1.
         21   -1    0    0  501  503 -0.00000000000E+00 -0.00000000000E+00 -0.16715110558E+03  0.16715110558E+03  0.00000000000E+00 0. -1.
          6    1    1    2  501    0 -0.27156009658E+01 -0.27924922514E+02 -0.63435678499E+02  0.18638739521E+03  0.17300000000E+03 0. -1.
         -6    1    1    2    0  502  0.27156009658E+01  0.27924922514E+02  0.13955783542E+03  0.22403697287E+03  0.17300000000E+03 0. -1.
<mgrwt>
<rscale>  2 0.17526031E+03</rscale>
<asrwt>0</asrwt>
<pdfrwt beam="1">  1       21 0.37426656E-01 0.17526031E+03</pdfrwt>
<pdfrwt beam="2">  1       21 0.25715555E-01 0.17526031E+03</pdfrwt>
<totfact> 0.99465287E+04</totfact>
</mgrwt>
</event>
<event>
 4    2  0.3972096E+000  0.1938460E+03  0.7546771E-02  0.1155037E+00
         21   -1    0    0  503  502  0.00000000000E+00  0.00000000000E+00  0.12999769431E+04  0.12999769431E+04  0.00000000000E+00 0.  1.
         21   -1    0    0  501  503 -0.00000000000E+00 -0.00000000000E+00 -0.71740904957E+02  0.71740904957E+02  0.00000000000E+00 0.  1.
          6    1    1    2  501    0 -0.49466588970E+02  0.72113404867E+02  0.84145226081E+02  0.21132133271E+03  0.17300000000E+03 0.  1.
         -6    1    1    2    0  502  0.49466588970E+02 -0.72113404867E+02  0.11440908121E+04  0.11603965154E+04  0.17300000000E+03 0.  1.
<mgrwt>
<rscale>  2 0.19384604E+03</rscale>
<asrwt>0</asrwt>
<pdfrwt beam="1">  1       21 0.19999644E+00 0.19384604E+03</pdfrwt>
<pdfrwt beam="2">  1       21 0.11037063E-01 0.19384604E+03</pdfrwt>
<totfact> 0.91383975E+03</totfact>
</mgrwt>
</event>
<event>
 4    2  0.3972096E+000  0.1731626E+03  0.7546771E-02  0.1174589E+00
         21   -1    0    0  501  502  0.00000000000E+00  0.00000000000E+00  0.16057719495E+03  0.16057719495E+03  0.00000000000E+00 0.  1.
         21   -1    0    0  502  503 -0.00000000000E+00 -0.00000000000E+00 -0.27503281319E+03  0.27503281319E+03  0.00000000000E+00 0.  1.
          6    1    1    2  501    0 -0.74710814039E+01 -0.68024699754E+00  0.66182700233E+02  0.18537915094E+03  0.17300000000E+03 0.  1.
         -6    1    1    2    0  503  0.74710814039E+01  0.68024699754E+00 -0.18063831848E+03  0.25023085720E+03  0.17300000000E+03 0.  1.
<mgrwt>
<rscale>  2 0.17316258E+03</rscale>
<asrwt>0</asrwt>
<pdfrwt beam="1">  1       21 0.24704184E-01 0.17316258E+03</pdfrwt>
<pdfrwt beam="2">  1       21 0.42312740E-01 0.17316258E+03</pdfrwt>
<totfact> 0.83937291E+04</totfact>
</mgrwt>
</event>
<event>
 4    2  0.3972096E+000  0.1732910E+03  0.7546771E-02  0.1174459E+00
         21   -1    0    0  501  502  0.00000000000E+00  0.00000000000E+00  0.22394118411E+03  0.22394118411E+03  0.00000000000E+00 0.  1.
         21   -1    0    0  502  503 -0.00000000000E+00 -0.00000000000E+00 -0.22795059137E+03  0.22795059137E+03  0.00000000000E+00 0.  1.
          6    1    1    2  501    0 -0.45097395135E+01  0.89679599360E+01  0.14297604670E+03  0.22465954684E+03  0.17300000000E+03 0.  1.
         -6    1    1    2    0  503  0.45097395135E+01 -0.89679599360E+01 -0.14698545397E+03  0.22723222864E+03  0.17300000000E+03 0.  1.
<mgrwt>
<rscale>  2 0.17329098E+03</rscale>
<asrwt>0</asrwt>
<pdfrwt beam="1">  1       21 0.34452490E-01 0.17329098E+03</pdfrwt>
<pdfrwt beam="2">  1       21 0.35069322E-01 0.17329098E+03</pdfrwt>
<totfact> 0.64190463E+04</totfact>
</mgrwt>
</event>
<event>
 4    2  0.3972096E+000  0.2032116E+03  0.7546771E-02  0.1147057E+00
         21   -1    0    0  501  502  0.00000000000E+00  0.00000000000E+00  0.21310501422E+03  0.21310501422E+03  0.00000000000E+00 0. -1.
         21   -1    0    0  502  503 -0.00000000000E+00 -0.00000000000E+00 -0.36383741928E+03  0.36383741928E+03  0.00000000000E+00 0. -1.
          6    1    1    2  501    0  0.10366701956E+03 -0.24881451682E+02  0.12185332094E+03  0.23694549881E+03  0.17300000000E+03 0. -1.
         -6    1    1    2    0  503 -0.10366701956E+03  0.24881451682E+02 -0.27258572599E+03  0.33999693469E+03  0.17300000000E+03 0. -1.
<mgrwt>
<rscale>  2 0.20321156E+03</rscale>
<asrwt>0</asrwt>
<pdfrwt beam="1">  1       21 0.32785387E-01 0.20321156E+03</pdfrwt>
<pdfrwt beam="2">  1       21 0.55974988E-01 0.20321156E+03</pdfrwt>
<totfact> 0.26751100E+04</totfact>
</mgrwt>
</event>
<event>
 4    2  0.3972096E+000  0.2204683E+03  0.7546771E-02  0.1133534E+00
         21   -1    0    0  501  502  0.00000000000E+00  0.00000000000E+00  0.68939081645E+03  0.68939081645E+03  0.00000000000E+00 0. -1.
         21   -1    0    0  502  503 -0.00000000000E+00 -0.00000000000E+00 -0.10802009154E+03  0.10802009154E+03  0.00000000000E+00 0.  1.
          6    1    1    2  501    0 -0.89573784641E+02 -0.10321721075E+03  0.52564678553E+03  0.57000947240E+03  0.17300000000E+03 0. -1.
         -6    1    1    2    0  503  0.89573784641E+02  0.10321721075E+03  0.55723939382E+02  0.22740143559E+03  0.17300000000E+03 0.  1.
<mgrwt>
<rscale>  2 0.22046826E+03</rscale>
<asrwt>0</asrwt>
<pdfrwt beam="1">  1       21 0.10606012E+00 0.22046826E+03</pdfrwt>
<pdfrwt beam="2">  1       21 0.16618476E-01 0.22046826E+03</pdfrwt>
<totfact> 0.22818629E+04</totfact>
</mgrwt>
</event>
<event>
 4    2  0.3972096E+000  0.1834688E+03  0.7546771E-02  0.1164487E+00
         21   -1    0    0  501  502  0.00000000000E+00  0.00000000000E+00  0.31832773851E+03  0.31832773851E+03  0.00000000000E+00 0. -1.
         21   -1    0    0  502  503 -0.00000000000E+00 -0.00000000000E+00 -0.23795158175E+03  0.23795158175E+03  0.00000000000E+00 0. -1.
          6    1    1    2  501    0 -0.19257624294E+02 -0.57973786369E+02  0.24751181773E+03  0.30809562788E+03  0.17300000000E+03 0. -1.
         -6    1    1    2    0  503  0.19257624294E+02  0.57973786369E+02 -0.16713566097E+03  0.24818369239E+03  0.17300000000E+03 0. -1.
<mgrwt>
<rscale>  2 0.18346884E+03</rscale>
<asrwt>0</asrwt>
<pdfrwt beam="1">  1       21 0.48973498E-01 0.18346884E+03</pdfrwt>
<pdfrwt beam="2">  1       21 0.36607936E-01 0.18346884E+03</pdfrwt>
<totfact> 0.28774547E+04</totfact>
</mgrwt>
</event>
<event>
 4    2  0.3972096E+000  0.1734517E+03  0.7546771E-02  0.1174295E+00
         21   -1    0    0  503  502  0.00000000000E+00  0.00000000000E+00  0.50626980695E+03  0.50626980695E+03  0.00000000000E+00 0. -1.
         21   -1    0    0  501  503 -0.00000000000E+00 -0.00000000000E+00 -0.78269385172E+02  0.78269385172E+02  0.00000000000E+00 0. -1.
          6    1    1    2  501    0  0.12343488118E+02 -0.20360754949E+01  0.70593652600E+02  0.18726711161E+03  0.17300000000E+03 0. -1.
         -6    1    1    2    0  502 -0.12343488118E+02  0.20360754949E+01  0.35740676917E+03  0.39727208051E+03  0.17300000000E+03 0. -1.
<mgrwt>
<rscale>  2 0.17345174E+03</rscale>
<asrwt>0</asrwt>
<pdfrwt beam="1">  1       21 0.77887661E-01 0.17345174E+03</pdfrwt>
<pdfrwt beam="2">  1       21 0.12041444E-01 0.17345174E+03</pdfrwt>
<totfact> 0.85886335E+04</totfact>
</mgrwt>
</event>
<event>
 4    2  0.3972096E+000  0.1757814E+03  0.7546771E-02  0.1171949E+00
         21   -1    0    0  503  502  0.00000000000E+00  0.00000000000E+00  0.55637050941E+03  0.55637050941E+03  0.00000000000E+00 0.  1.
         21   -1    0    0  501  503 -0.00000000000E+00 -0.00000000000E+00 -0.65470336693E+02  0.65470336693E+02  0.00000000000E+00 0.  1.
          6    1    1    2  501    0 -0.26090793178E+01  0.31037236140E+02  0.36655890974E+03  0.40652743035E+03  0.17300000000E+03 0.  1.
         -6    1    1    2    0  502  0.26090793178E+01 -0.31037236140E+02  0.12434126298E+03  0.21531341575E+03  0.17300000000E+03 0.  1.
<mgrwt>
<rscale>  2 0.17578145E+03</rscale>
<asrwt>0</asrwt>
<pdfrwt beam="1">  1       21 0.85595460E-01 0.17578145E+03</pdfrwt>
<pdfrwt beam="2">  1       21 0.10072360E-01 0.17578145E+03</pdfrwt>
<totfact> 0.95132095E+04</totfact>
</mgrwt>
</event>
<event>
 4    2  0.3972096E+000  0.1927555E+03  0.7546771E-02  0.1155999E+00
         21   -1    0    0  501  502  0.00000000000E+00  0.00000000000E+00  0.76856019449E+03  0.76856019449E+03  0.00000000000E+00 0.  1.
         21   -1    0    0  502  503 -0.00000000000E+00 -0.00000000000E+00 -0.16016262778E+03  0.16016262778E+03  0.00000000000E+00 0.  1.
          6    1    1    2  501    0 -0.82890861957E+02  0.18836048624E+02  0.69220088681E+03  0.71853793180E+03  0.17300000000E+03 0.  1.
         -6    1    1    2    0  503  0.82890861957E+02 -0.18836048624E+02 -0.83803320106E+02  0.21018489048E+03  0.17300000000E+03 0.  1.
<mgrwt>
<rscale>  2 0.19275552E+03</rscale>
<asrwt>0</asrwt>
<pdfrwt beam="1">  1       21 0.11824003E+00 0.19275552E+03</pdfrwt>
<pdfrwt beam="2">  1       21 0.24640405E-01 0.19275552E+03</pdfrwt>
<totfact> 0.85292594E+03</totfact>
</mgrwt>
</event>
<event>
 4    2  0.3972096E+000  0.2594874E+03  0.7546771E-02  0.1107452E+00
         21   -1    0    0  503  502  0.00000000000E+00  0.00000000000E+00  0.14536067944E+03  0.14536067944E+03  0.00000000000E+00 0.  1.
         21   -1    0    0  501  503 -0.00000000000E+00 -0.00000000000E+00 -0.15584641935E+04  0.15584641935E+04  0.00000000000E+00 0.  1.
          6    1    1    2  501    0  0.42597934165E+02 -0.18865343344E+03 -0.14207230590E+04  0.14442256445E+04  0.17300000000E+03 0.  1.
         -6    1    1    2    0  502 -0.42597934165E+02  0.18865343344E+03  0.76195449013E+01  0.25959922844E+03  0.17300000000E+03 0.  1.
<mgrwt>
<rscale>  2 0.25948738E+03</rscale>
<asrwt>0</asrwt>
<pdfrwt beam="1">  1       21 0.22363180E-01 0.25948738E+03</pdfrwt>
<pdfrwt beam="2">  1       21 0.23976374E+00 0.25948738E+03</pdfrwt>
<totfact> 0.13364714E+03</totfact>
</mgrwt>
</event>
<event>
 4    2  0.3972096E+000  0.1834299E+03  0.7546771E-02  0.1164524E+00
         21   -1    0    0  501  502  0.00000000000E+00  0.00000000000E+00  0.25963608921E+03  0.25963608921E+03  0.00000000000E+00 0. -1.
         21   -1    0    0  502  503 -0.00000000000E+00 -0.00000000000E+00 -0.18481929976E+03  0.18481929976E+03  0.00000000000E+00 0. -1.
          6    1    1    2  501    0  0.51930244803E+02 -0.31949387398E+02  0.15888849916E+03  0.24267688156E+03  0.17300000000E+03 0. -1.
         -6    1    1    2    0  503 -0.51930244803E+02  0.31949387398E+02 -0.84071709703E+02  0.20177850741E+03  0.17300000000E+03 0. -1.
<mgrwt>
<rscale>  2 0.18342986E+03</rscale>
<asrwt>0</asrwt>
<pdfrwt beam="1">  1       21 0.39944014E-01 0.18342986E+03</pdfrwt>
<pdfrwt beam="2">  1       21 0.28433739E-01 0.18342986E+03</pdfrwt>
<totfact> 0.71714679E+04</totfact>
</mgrwt>
</event>
<event>
 4    2  0.3972096E+000  0.1944152E+03  0.7546771E-02  0.1154538E+00
         21   -1    0    0  501  502  0.00000000000E+00  0.00000000000E+00  0.36264856235E+03  0.36264856235E+03  0.00000000000E+00 0.  1.
         21   -1    0    0  502  503 -0.00000000000E+00 -0.00000000000E+00 -0.35060330113E+03  0.35060330113E+03  0.00000000000E+00 0.  1.
          6    1    1    2  501    0  0.79484597951E+01 -0.88346467342E+02  0.30497747018E+03  0.36167462397E+03  0.17300000000E+03 0.  1.
         -6    1    1    2    0  503 -0.79484597951E+01  0.88346467342E+02 -0.29293220896E+03  0.35157723952E+03  0.17300000000E+03 0.  1.
<mgrwt>
<rscale>  2 0.19441522E+03</rscale>
<asrwt>0</asrwt>
<pdfrwt beam="1">  1       21 0.55792087E-01 0.19441522E+03</pdfrwt>
<pdfrwt beam="2">  1       21 0.53938969E-01 0.19441522E+03</pdfrwt>
<totfact> 0.98240394E+03</totfact>
</mgrwt>
</event>
<event>
 4    2  0.3972096E+000  0.2011120E+03  0.7546771E-02  0.1148804E+00
         21   -1    0    0  501  502  0.00000000000E+00  0.00000000000E+00  0.49268304395E+03  0.49268304395E+03  0.00000000000E+00 0. -1.
         21   -1    0    0  502  503 -0.00000000000E+00 -0.00000000000E+00 -0.86838995392E+02  0.86838995392E+02  0.00000000000E+00 0.  1.
          6    1    1    2  501    0  0.95844353487E+01  0.10210381639E+03  0.27065897499E+03  0.33719776314E+03  0.17300000000E+03 0. -1.
         -6    1    1    2    0  503 -0.95844353487E+01 -0.10210381639E+03  0.13518507356E+03  0.24232427620E+03  0.17300000000E+03 0.  1.
<mgrwt>
<rscale>  2 0.20111204E+03</rscale>
<asrwt>0</asrwt>
<pdfrwt beam="1">  1       21 0.75797390E-01 0.20111204E+03</pdfrwt>
<pdfrwt beam="2">  1       21 0.13359846E-01 0.20111204E+03</pdfrwt>
<totfact> 0.74853224E+04</totfact>
</mgrwt>
</event>
<event>
 4    2  0.3972096E+000  0.2157560E+03  0.7546771E-02  0.1137087E+00
         21   -1    0    0  501  502  0.00000000000E+00  0.00000000000E+00  0.61525950235E+03  0.61525950235E+03  0.00000000000E+00 0.  1.
         21   -1    0    0  502  503 -0.00000000000E+00 -0.00000000000E+00 -0.88110395715E+02  0.88110395715E+02  0.00000000000E+00 0. -1.
          6    1    1    2  501    0 -0.12876131308E+03 -0.64947090454E+01  0.39577359166E+03  0.45076312277E+03  0.17300000000E+03 0.  1.
         -6    1    1    2    0  503  0.12876131308E+03  0.64947090454E+01  0.13137551497E+03  0.25260677530E+03  0.17300000000E+03 0. -1.
<mgrwt>
<rscale>  2 0.21575601E+03</rscale>
<asrwt>0</asrwt>
<pdfrwt beam="1">  1       21 0.94655305E-01 0.21575601E+03</pdfrwt>
<pdfrwt beam="2">  1       21 0.13555446E-01 0.21575601E+03</pdfrwt>
<totfact> 0.43517426E+04</totfact>
</mgrwt>
</event>
<event>
 4    2  0.3972096E+000  0.1773068E+03  0.7546771E-02  0.1170435E+00
         21   -1    0    0  503  502  0.00000000000E+00  0.00000000000E+00  0.11572204184E+04  0.11572204184E+04  0.00000000000E+00 0.  1.
         21   -1    0    0  501  503 -0.00000000000E+00 -0.00000000000E+00 -0.59281453990E+02  0.59281453990E+02  0.00000000000E+00 0. -1.
          6    1    1    2  501    0 -0.33574126788E+02  0.19531932558E+02  0.10128041435E+03  0.20419461479E+03  0.17300000000E+03 0. -1.
         -6    1    1    2    0  502  0.33574126788E+02 -0.19531932558E+02  0.99665855001E+03  0.10123072576E+04  0.17300000000E+03 0.  1.
<mgrwt>
<rscale>  2 0.17730685E+03</rscale>
<asrwt>0</asrwt>
<pdfrwt beam="1">  1       21 0.17803389E+00 0.17730685E+03</pdfrwt>
<pdfrwt beam="2">  1       21 0.91202245E-02 0.17730685E+03</pdfrwt>
<totfact> 0.18115925E+04</totfact>
</mgrwt>
</event>
<event>
 4    2  0.3972096E+000  0.1788484E+03  0.7546771E-02  0.1168922E+00
         21   -1    0    0  501  502  0.00000000000E+00  0.00000000000E+00  0.49241375719E+02  0.49241375719E+02  0.00000000000E+00 0.  1.
         21   -1    0    0  502  503 -0.00000000000E+00 -0.00000000000E+00 -0.67522048871E+03  0.67522048871E+03  0.00000000000E+00 0.  1.
          6    1    1    2  501    0 -0.38498158634E+02  0.23992527395E+02 -0.38356173807E+03  0.42320958933E+03  0.17300000000E+03 0.  1.
         -6    1    1    2    0  503  0.38498158634E+02 -0.23992527395E+02 -0.24241737492E+03  0.30125227510E+03  0.17300000000E+03 0.  1.
<mgrwt>
<rscale>  2 0.17884840E+03</rscale>
<asrwt>0</asrwt>
<pdfrwt beam="1">  1       21 0.75755964E-02 0.17884840E+03</pdfrwt>
<pdfrwt beam="2">  1       21 0.10388007E+00 0.17884840E+03</pdfrwt>
<totfact> 0.99468994E+04</totfact>
</mgrwt>
</event>
<event>
 4    2  0.3972096E+000  0.1909677E+03  0.7546771E-02  0.1157591E+00
         21   -1    0    0  503  502  0.00000000000E+00  0.00000000000E+00  0.15374620068E+03  0.15374620068E+03  0.00000000000E+00 0.  1.
         21   -1    0    0  501  503 -0.00000000000E+00 -0.00000000000E+00 -0.44976842905E+03  0.44976842905E+03  0.00000000000E+00 0. -1.
          6    1    1    2  501    0 -0.38884686754E+01 -0.80774741722E+02 -0.35546050838E+03  0.40351065922E+03  0.17300000000E+03 0. -1.
         -6    1    1    2    0  502  0.38884686754E+01  0.80774741722E+02  0.59438280002E+02  0.20000397051E+03  0.17300000000E+03 0.  1.
<mgrwt>
<rscale>  2 0.19096774E+03</rscale>
<asrwt>0</asrwt>
<pdfrwt beam="1">  1       21 0.23653262E-01 0.19096774E+03</pdfrwt>
<pdfrwt beam="2">  1       21 0.69195143E-01 0.19096774E+03</pdfrwt>
<totfact> 0.32020283E+04</totfact>
</mgrwt>
</event>
<event>
 4    2  0.3972096E+000  0.1924844E+03  0.7546771E-02  0.1156239E+00
         21   -1    0    0  501  502  0.00000000000E+00  0.00000000000E+00  0.39974379038E+03  0.39974379038E+03  0.00000000000E+00 0. -1.
         21   -1    0    0  502  503 -0.00000000000E+00 -0.00000000000E+00 -0.24502551873E+03  0.24502551873E+03  0.00000000000E+00 0.  1.
          6    1    1    2  501    0  0.46193902606E+00  0.84386154873E+02  0.33155968075E+03  0.38338239190E+03  0.17300000000E+03 0. -1.
         -6    1    1    2    0  503 -0.46193902606E+00 -0.84386154873E+02 -0.17684140909E+03  0.26138691721E+03  0.17300000000E+03 0.  1.
<mgrwt>
<rscale>  2 0.19248438E+03</rscale>
<asrwt>0</asrwt>
<pdfrwt beam="1">  1       21 0.61499045E-01 0.19248438E+03</pdfrwt>
<pdfrwt beam="2">  1       21 0.37696234E-01 0.19248438E+03</pdfrwt>
<totfact> 0.16679605E+04</totfact>
</mgrwt>
</event>
<event>
 4    2  0.3972096E+000  0.1871102E+03  0.7546771E-02  0.1161094E+00
         21   -1    0    0  501  502  0.00000000000E+00  0.00000000000E+00  0.61173862073E+02  0.61173862073E+02  0.00000000000E+00 0. -1.
         21   -1    0    0  502  503 -0.00000000000E+00 -0.00000000000E+00 -0.61633308096E+03  0.61633308096E+03  0.00000000000E+00 0. -1.
          6    1    1    2  501    0  0.70793068433E+02  0.83400972846E+01 -0.18704135119E+03  0.26456508238E+03  0.17300000000E+03 0. -1.
         -6    1    1    2    0  503 -0.70793068433E+02 -0.83400972846E+01 -0.36811786770E+03  0.41294186065E+03  0.17300000000E+03 0. -1.
<mgrwt>
<rscale>  2 0.18711017E+03</rscale>
<asrwt>0</asrwt>
<pdfrwt beam="1">  1       21 0.94113637E-02 0.18711017E+03</pdfrwt>
<pdfrwt beam="2">  1       21 0.94820470E-01 0.18711017E+03</pdfrwt>
<totfact> 0.84224193E+04</totfact>
</mgrwt>
</event>
<event>
 4    2  0.3972096E+000  0.1940317E+03  0.7546771E-02  0.1154874E+00
         21   -1    0    0  501  502  0.00000000000E+00  0.00000000000E+00  0.12017437699E+03  0.12017437699E+03  0.00000000000E+00 0. -1.
         21   -1    0    0  502  503 -0.00000000000E+00 -0.00000000000E+00 -0.31569920992E+03  0.31569920992E+03  0.00000000000E+00 0.  1.
          6    1    1    2  501    0 -0.60314556756E+01  0.87652206132E+02 -0.78686447403E+02  0.20937966640E+03  0.17300000000E+03 0. -1.
         -6    1    1    2    0  503  0.60314556756E+01 -0.87652206132E+02 -0.11683838553E+03  0.22649392051E+03  0.17300000000E+03 0.  1.
<mgrwt>
<rscale>  2 0.19403167E+03</rscale>
<asrwt>0</asrwt>
<pdfrwt beam="1">  1       21 0.18488366E-01 0.19403167E+03</pdfrwt>
<pdfrwt beam="2">  1       21 0.48569109E-01 0.19403167E+03</pdfrwt>
<totfact> 0.10809647E+05</totfact>
</mgrwt>
</event>
<event>
 4    2  0.3972096E+000  0.3139514E+03  0.7546771E-02  0.1078467E+00
         21   -1    0    0  503  502  0.00000000000E+00  0.00000000000E+00  0.35346453739E+03  0.35346453739E+03  0.00000000000E+00 0.  1.
         21   -1    0    0  501  503 -0.00000000000E+00 -0.00000000000E+00 -0.28657174976E+03  0.28657174976E+03  0.00000000000E+00 0. -1.
          6    1    1    2  501    0 -0.28519742690E+02 -0.26042874680E+03 -0.19066123437E+02  0.31452984746E+03  0.17300000000E+03 0. -1.
         -6    1    1    2    0  502  0.28519742690E+02  0.26042874680E+03  0.85958911072E+02  0.32550643968E+03  0.17300000000E+03 0.  1.
<mgrwt>
<rscale>  2 0.31395144E+03</rscale>
<asrwt>0</asrwt>
<pdfrwt beam="1">  1       21 0.54379160E-01 0.31395144E+03</pdfrwt>
<pdfrwt beam="2">  1       21 0.44087961E-01 0.31395144E+03</pdfrwt>
<totfact> 0.14843648E+04</totfact>
</mgrwt>
</event>
<event>
 4    2  0.3972096E+000  0.2059202E+03  0.7546771E-02  0.1144838E+00
         21   -1    0    0  503  502  0.00000000000E+00  0.00000000000E+00  0.35129355265E+03  0.35129355265E+03  0.00000000000E+00 0. -1.
         21   -1    0    0  501  503 -0.00000000000E+00 -0.00000000000E+00 -0.36918557620E+03  0.36918557620E+03  0.00000000000E+00 0.  1.
          6    1    1    2  501    0 -0.10967958812E+03 -0.21083466411E+02 -0.30448493120E+03  0.36757883227E+03  0.17300000000E+03 0.  1.
         -6    1    1    2    0  502  0.10967958812E+03  0.21083466411E+02  0.28659290766E+03  0.35290029658E+03  0.17300000000E+03 0. -1.
<mgrwt>
<rscale>  2 0.20592019E+03</rscale>
<asrwt>0</asrwt>
<pdfrwt beam="1">  1       21 0.54045162E-01 0.20592019E+03</pdfrwt>
<pdfrwt beam="2">  1       21 0.56797781E-01 0.20592019E+03</pdfrwt>
<totfact> 0.93438317E+03</totfact>
</mgrwt>
</event>
<event>
 4    2  0.3972096E+000  0.3604443E+03  0.7546771E-02  0.1058408E+00
         21   -1    0    0  501  502  0.00000000000E+00  0.00000000000E+00  0.12706779957E+03  0.12706779957E+03  0.00000000000E+00 0.  1.
         21   -1    0    0  502  503 -0.00000000000E+00 -0.00000000000E+00 -0.14549442503E+04  0.14549442503E+04  0.00000000000E+00 0. -1.
          6    1    1    2  501    0  0.28798687895E+03 -0.13059346147E+03 -0.23266919336E+03  0.42901637285E+03  0.17300000000E+03 0.  1.
         -6    1    1    2    0  503 -0.28798687895E+03  0.13059346147E+03 -0.10952072573E+04  0.11529956770E+04  0.17300000000E+03 0. -1.
<mgrwt>
<rscale>  2 0.36044430E+03</rscale>
<asrwt>0</asrwt>
<pdfrwt beam="1">  1       21 0.19548892E-01 0.36044430E+03</pdfrwt>
<pdfrwt beam="2">  1       21 0.22383758E+00 0.36044430E+03</pdfrwt>
<totfact> 0.20141853E+03</totfact>
</mgrwt>
</event>
<event>
 4    2  0.3972096E+000  0.1919334E+03  0.7546771E-02  0.1156729E+00
         21   -1    0    0  503  502  0.00000000000E+00  0.00000000000E+00  0.10179040780E+03  0.10179040780E+03  0.00000000000E+00 0. -1.
         21   -1    0    0  501  503 -0.00000000000E+00 -0.00000000000E+00 -0.46754087865E+03  0.46754087865E+03  0.00000000000E+00 0. -1.
          6    1    1    2  501    0  0.11857446983E+02 -0.82272889117E+02 -0.31818576528E+03  0.37159199205E+03  0.17300000000E+03 0. -1.
         -6    1    1    2    0  502 -0.11857446983E+02  0.82272889117E+02 -0.47564705575E+02  0.19773929440E+03  0.17300000000E+03 0. -1.
<mgrwt>
<rscale>  2 0.19193339E+03</rscale>
<asrwt>0</asrwt>
<pdfrwt beam="1">  1       21 0.15660063E-01 0.19193339E+03</pdfrwt>
<pdfrwt beam="2">  1       21 0.71929366E-01 0.19193339E+03</pdfrwt>
<totfact> 0.63299773E+04</totfact>
</mgrwt>
</event>
<event>
 4    2  0.3972096E+000  0.2903968E+03  0.7546771E-02  0.1090142E+00
         21   -1    0    0  501  502  0.00000000000E+00  0.00000000000E+00  0.36305649077E+03  0.36305649077E+03  0.00000000000E+00 0. -1.
         21   -1    0    0  502  503 -0.00000000000E+00 -0.00000000000E+00 -0.23440646039E+03  0.23440646039E+03  0.00000000000E+00 0.  1.
          6    1    1    2  501    0 -0.18493788939E+03 -0.14212423609E+03  0.35864114498E+02  0.29260306924E+03  0.17300000000E+03 0. -1.
         -6    1    1    2    0  503  0.18493788939E+03  0.14212423609E+03  0.92785915882E+02  0.30485988192E+03  0.17300000000E+03 0. -1.
<mgrwt>
<rscale>  2 0.29039683E+03</rscale>
<asrwt>0</asrwt>
<pdfrwt beam="1">  1       21 0.55854845E-01 0.29039683E+03</pdfrwt>
<pdfrwt beam="2">  1       21 0.36062532E-01 0.29039683E+03</pdfrwt>
<totfact> 0.21326031E+04</totfact>
</mgrwt>
</event>
<event>
 4    2  0.3972096E+000  0.2645472E+03  0.7546771E-02  0.1104442E+00
         21   -1    0    0  503  502  0.00000000000E+00  0.00000000000E+00  0.38026501885E+03  0.38026501885E+03  0.00000000000E+00 0. -1.
         21   -1    0    0  501  503 -0.00000000000E+00 -0.00000000000E+00 -0.32165817507E+03  0.32165817507E+03  0.00000000000E+00 0. -1.
          6    1    1    2  501    0 -0.13640939205E+03 -0.14645382277E+03 -0.20025589647E+03  0.33179461797E+03  0.17300000000E+03 0. -1.
         -6    1    1    2    0  502  0.13640939205E+03  0.14645382277E+03  0.25886274025E+03  0.37012857595E+03  0.17300000000E+03 0. -1.
<mgrwt>
<rscale>  2 0.26454724E+03</rscale>
<asrwt>0</asrwt>
<pdfrwt beam="1">  1       21 0.58502311E-01 0.26454724E+03</pdfrwt>
<pdfrwt beam="2">  1       21 0.49485873E-01 0.26454724E+03</pdfrwt>
<totfact> 0.10199371E+04</totfact>
</mgrwt>
</event>
<event>
 4    2  0.3972096E+000  0.2028262E+03  0.7546771E-02  0.1147376E+00
         21   -1    0    0  503  502  0.00000000000E+00  0.00000000000E+00  0.18236511184E+04  0.18236511184E+04  0.00000000000E+00 0.  1.
         21   -1    0    0  501  503 -0.00000000000E+00 -0.00000000000E+00 -0.49877790340E+02  0.49877790340E+02  0.00000000000E+00 0.  1.
          6    1    1    2  501    0 -0.98688104547E+02 -0.38342328396E+02  0.19359964929E+03  0.28039133426E+03  0.17300000000E+03 0.  1.
         -6    1    1    2    0  502  0.98688104547E+02  0.38342328396E+02  0.15801736788E+04  0.15931375745E+04  0.17300000000E+03 0.  1.
<mgrwt>
<rscale>  2 0.20282622E+03</rscale>
<asrwt>0</asrwt>
<pdfrwt beam="1">  1       21 0.28056166E+00 0.20282622E+03</pdfrwt>
<pdfrwt beam="2">  1       21 0.76735076E-02 0.20282622E+03</pdfrwt>
<totfact> 0.56367872E+03</totfact>
</mgrwt>
</event>
<event>
 4    2  0.3972096E+000  0.1912855E+03  0.7546771E-02  0.1157307E+00
         21   -1    0    0  501  502  0.00000000000E+00  0.00000000000E+00  0.39645991601E+03  0.39645991601E+03  0.00000000000E+00 0. -1.
         21   -1    0    0  502  503 -0.00000000000E+00 -0.00000000000E+00 -0.10976713394E+03  0.10976713394E+03  0.00000000000E+00 0. -1.
          6    1    1    2  501    0  0.81244005979E+02  0.77827626981E+01  0.42354408688E+02  0.19591849284E+03  0.17300000000E+03 0. -1.
         -6    1    1    2    0  503 -0.81244005979E+02 -0.77827626981E+01  0.24433837338E+03  0.31030855710E+03  0.17300000000E+03 0. -1.
<mgrwt>
<rscale>  2 0.19128555E+03</rscale>
<asrwt>0</asrwt>
<pdfrwt beam="1">  1       21 0.60993832E-01 0.19128555E+03</pdfrwt>
<pdfrwt beam="2">  1       21 0.16887252E-01 0.19128555E+03</pdfrwt>
<totfact> 0.79040825E+04</totfact>
</mgrwt>
</event>
<event>
 4    2  0.3972096E+000  0.1947419E+03  0.7546771E-02  0.1154253E+00
         21   -1    0    0  501  502  0.00000000000E+00  0.00000000000E+00  0.10709949379E+03  0.10709949379E+03  0.00000000000E+00 0. -1.
         21   -1    0    0  502  503 -0.00000000000E+00 -0.00000000000E+00 -0.95358284752E+03  0.95358284752E+03  0.00000000000E+00 0. -1.
          6    1    1    2  501    0 -0.58781637810E+02  0.67380349902E+02 -0.27446333210E+01  0.19476120124E+03  0.17300000000E+03 0. -1.
         -6    1    1    2    0  503  0.58781637810E+02 -0.67380349902E+02 -0.84373872041E+03  0.86592114007E+03  0.17300000000E+03 0. -1.
<mgrwt>
<rscale>  2 0.19474186E+03</rscale>
<asrwt>0</asrwt>
<pdfrwt beam="1">  1       21 0.16476845E-01 0.19474186E+03</pdfrwt>
<pdfrwt beam="2">  1       21 0.14670506E+00 0.19474186E+03</pdfrwt>
<totfact> 0.10452730E+04</totfact>
</mgrwt>
</event>
<event>
 4    2  0.3972096E+000  0.1996793E+03  0.7546771E-02  0.1150010E+00
         21   -1    0    0  503  502  0.00000000000E+00  0.00000000000E+00  0.52843063601E+03  0.52843063601E+03  0.00000000000E+00 0.  1.
         21   -1    0    0  501  503 -0.00000000000E+00 -0.00000000000E+00 -0.13182998782E+03  0.13182998782E+03  0.00000000000E+00 0.  1.
          6    1    1    2  501    0 -0.80904973518E+02  0.58285662478E+02 -0.17587470704E+02  0.20045236920E+03  0.17300000000E+03 0.  1.
         -6    1    1    2    0  502  0.80904973518E+02 -0.58285662478E+02  0.41418811889E+03  0.45980825463E+03  0.17300000000E+03 0.  1.
<mgrwt>
<rscale>  2 0.19967933E+03</rscale>
<asrwt>0</asrwt>
<pdfrwt beam="1">  1       21 0.81297020E-01 0.19967933E+03</pdfrwt>
<pdfrwt beam="2">  1       21 0.20281537E-01 0.19967933E+03</pdfrwt>
<totfact> 0.29705142E+04</totfact>
</mgrwt>
</event>
<event>
 4    2  0.3972096E+000  0.2542355E+03  0.7546771E-02  0.1110657E+00
         21   -1    0    0  501  502  0.00000000000E+00  0.00000000000E+00  0.54446889389E+03  0.54446889389E+03  0.00000000000E+00 0. -1.
         21   -1    0    0  502  503 -0.00000000000E+00 -0.00000000000E+00 -0.22740474216E+03  0.22740474216E+03  0.00000000000E+00 0. -1.
          6    1    1    2  501    0 -0.16513254539E+02 -0.18556402778E+03  0.42534947137E+03  0.49553795896E+03  0.17300000000E+03 0. -1.
         -6    1    1    2    0  503  0.16513254539E+02  0.18556402778E+03 -0.10828531965E+03  0.27633567709E+03  0.17300000000E+03 0. -1.
<mgrwt>
<rscale>  2 0.25423551E+03</rscale>
<asrwt>0</asrwt>
<pdfrwt beam="1">  1       21 0.83764445E-01 0.25423551E+03</pdfrwt>
<pdfrwt beam="2">  1       21 0.34985345E-01 0.25423551E+03</pdfrwt>
<totfact> 0.93869390E+03</totfact>
</mgrwt>
</event>
<event>
 4    2  0.3972096E+000  0.2244945E+03  0.7546771E-02  0.1130576E+00
         21   -1    0    0  501  502  0.00000000000E+00  0.00000000000E+00  0.24611990875E+03  0.24611990875E+03  0.00000000000E+00 0.  1.
         21   -1    0    0  502  503 -0.00000000000E+00 -0.00000000000E+00 -0.41656763522E+03  0.41656763522E+03  0.00000000000E+00 0. -1.
          6    1    1    2  501    0  0.77754151685E+02 -0.12009611142E+03  0.15104004996E+03  0.27057509267E+03  0.17300000000E+03 0.  1.
         -6    1    1    2    0  503 -0.77754151685E+02  0.12009611142E+03 -0.32148777642E+03  0.39211245131E+03  0.17300000000E+03 0. -1.
<mgrwt>
<rscale>  2 0.22449451E+03</rscale>
<asrwt>0</asrwt>
<pdfrwt beam="1">  1       21 0.37864602E-01 0.22449451E+03</pdfrwt>
<pdfrwt beam="2">  1       21 0.64087328E-01 0.22449451E+03</pdfrwt>
<totfact> 0.14825372E+04</totfact>
</mgrwt>
</event>
<event>
 4    2  0.3972096E+000  0.2065993E+03  0.7546771E-02  0.1144288E+00
         21   -1    0    0  503  502  0.00000000000E+00  0.00000000000E+00  0.61798216413E+03  0.61798216413E+03  0.00000000000E+00 0.  1.
         21   -1    0    0  501  503 -0.00000000000E+00 -0.00000000000E+00 -0.13350803233E+03  0.13350803233E+03  0.00000000000E+00 0. -1.
          6    1    1    2  501    0 -0.10605056532E+03 -0.38827140341E+02 -0.18807645596E+02  0.20745360147E+03  0.17300000000E+03 0. -1.
         -6    1    1    2    0  502  0.10605056532E+03  0.38827140341E+02  0.50328177739E+03  0.54403659499E+03  0.17300000000E+03 0.  1.
<mgrwt>
<rscale>  2 0.20659930E+03</rscale>
<asrwt>0</asrwt>
<pdfrwt beam="1">  1       21 0.95074177E-01 0.20659930E+03</pdfrwt>
<pdfrwt beam="2">  1       21 0.20539698E-01 0.20659930E+03</pdfrwt>
<totfact> 0.20133867E+04</totfact>
</mgrwt>
</event>
<event>
 4    2  0.3972096E+000  0.2028208E+03  0.7546771E-02  0.1147381E+00
         21   -1    0    0  503  502  0.00000000000E+00  0.00000000000E+00  0.60906193419E+03  0.60906193419E+03  0.00000000000E+00 0. -1.
         21   -1    0    0  501  503 -0.00000000000E+00 -0.00000000000E+00 -0.69983771179E+02  0.69983771179E+02  0.00000000000E+00 0. -1.
          6    1    1    2  501    0  0.45029270945E+02  0.95810542599E+02  0.33297917305E+03  0.38988642577E+03  0.17300000000E+03 0. -1.
         -6    1    1    2    0  502 -0.45029270945E+02 -0.95810542599E+02  0.20609898996E+03  0.28915927960E+03  0.17300000000E+03 0. -1.
<mgrwt>
<rscale>  2 0.20282085E+03</rscale>
<asrwt>0</asrwt>
<pdfrwt beam="1">  1       21 0.93701833E-01 0.20282085E+03</pdfrwt>
<pdfrwt beam="2">  1       21 0.10766734E-01 0.20282085E+03</pdfrwt>
<totfact> 0.67778778E+04</totfact>
</mgrwt>
</event>
<event>
 4    2  0.3972096E+000  0.1838038E+03  0.7546771E-02  0.1164172E+00
         21   -1    0    0  503  502  0.00000000000E+00  0.00000000000E+00  0.12068253026E+03  0.12068253026E+03  0.00000000000E+00 0.  1.
         21   -1    0    0  501  503 -0.00000000000E+00 -0.00000000000E+00 -0.38405729694E+03  0.38405729694E+03  0.00000000000E+00 0. -1.
          6    1    1    2  501    0  0.13119201384E+02  0.60685545275E+02 -0.26308918911E+03  0.32093577282E+03  0.17300000000E+03 0. -1.
         -6    1    1    2    0  502 -0.13119201384E+02 -0.60685545275E+02 -0.28557757082E+00  0.18380405438E+03  0.17300000000E+03 0. -1.
<mgrwt>
<rscale>  2 0.18380383E+03</rscale>
<asrwt>0</asrwt>
<pdfrwt beam="1">  1       21 0.18566543E-01 0.18380383E+03</pdfrwt>
<pdfrwt beam="2">  1       21 0.59085737E-01 0.18380383E+03</pdfrwt>
<totfact> 0.71260268E+04</totfact>
</mgrwt>
</event>
<event>
 4    2  0.3972096E+000  0.2057852E+03  0.7546771E-02  0.1144948E+00
         21   -1    0    0  501  502  0.00000000000E+00  0.00000000000E+00  0.11007479399E+03  0.11007479399E+03  0.00000000000E+00 0.  1.
         21   -1    0    0  502  503 -0.00000000000E+00 -0.00000000000E+00 -0.92566976034E+03  0.92566976034E+03  0.00000000000E+00 0.  1.
          6    1    1    2  501    0  0.86578567248E+02  0.70162033624E+02 -0.80368755095E+03  0.82961511487E+03  0.17300000000E+03 0.  1.
         -6    1    1    2    0  503 -0.86578567248E+02 -0.70162033624E+02 -0.11907415394E+02  0.20612943946E+03  0.17300000000E+03 0.  1.
<mgrwt>
<rscale>  2 0.20578523E+03</rscale>
<asrwt>0</asrwt>
<pdfrwt beam="1">  1       21 0.16934585E-01 0.20578523E+03</pdfrwt>
<pdfrwt beam="2">  1       21 0.14241073E+00 0.20578523E+03</pdfrwt>
<totfact> 0.10653037E+04</totfact>
</mgrwt>
</event>
<event>
 4    2  0.3972096E+000  0.2240437E+03  0.7546771E-02  0.1130904E+00
         21   -1    0    0  501  502  0.00000000000E+00  0.00000000000E+00  0.69905462906E+02  0.69905462906E+02  0.00000000000E+00 0. -1.
         21   -1    0    0  502  503 -0.00000000000E+00 -0.00000000000E+00 -0.93536497464E+03  0.93536497464E+03  0.00000000000E+00 0. -1.
          6    1    1    2  501    0  0.13861262187E+03 -0.32452105609E+02 -0.19045538755E+03  0.29405586672E+03  0.17300000000E+03 0. -1.
         -6    1    1    2    0  503 -0.13861262187E+03  0.32452105609E+02 -0.67500412418E+03  0.71121457083E+03  0.17300000000E+03 0. -1.
<mgrwt>
<rscale>  2 0.22404374E+03</rscale>
<asrwt>0</asrwt>
<pdfrwt beam="1">  1       21 0.10754687E-01 0.22404374E+03</pdfrwt>
<pdfrwt beam="2">  1       21 0.14390230E+00 0.22404374E+03</pdfrwt>
<totfact> 0.23308628E+04</totfact>
</mgrwt>
</event>
<event>
 4    2  0.3972096E+000  0.2130147E+03  0.7546771E-02  0.1139201E+00
         21   -1    0    0  501  502  0.00000000000E+00  0.00000000000E+00  0.79866066385E+02  0.79866066385E+02  0.00000000000E+00 0. -1.
         21   -1    0    0  502  503 -0.00000000000E+00 -0.00000000000E+00 -0.16374952948E+04  0.16374952948E+04  0.00000000000E+00 0. -1.
          6    1    1    2  501    0 -0.89616791245E+02 -0.86110938415E+02 -0.84906003291E+02  0.22931265203E+03  0.17300000000E+03 0. -1.
         -6    1    1    2    0  503  0.89616791245E+02  0.86110938415E+02 -0.14727232251E+04  0.14880487091E+04  0.17300000000E+03 0. -1.
<mgrwt>
<rscale>  2 0.21301470E+03</rscale>
<asrwt>0</asrwt>
<pdfrwt beam="1">  1       21 0.12287088E-01 0.21301470E+03</pdfrwt>
<pdfrwt beam="2">  1       21 0.25192234E+00 0.21301470E+03</pdfrwt>
<totfact> 0.35675987E+03</totfact>
</mgrwt>
</event>
<event>
 4    2  0.3972096E+000  0.2825519E+03  0.7546771E-02  0.1094303E+00
         21   -1    0    0  503  502  0.00000000000E+00  0.00000000000E+00  0.23057788868E+03  0.23057788868E+03  0.00000000000E+00 0. -1.
         21   -1    0    0  501  503 -0.00000000000E+00 -0.00000000000E+00 -0.11562244051E+04  0.11562244051E+04  0.00000000000E+00 0.  1.
          6    1    1    2  501    0 -0.89915538243E+02  0.20450366467E+03 -0.10431886550E+04  0.10807766294E+04  0.17300000000E+03 0.  1.
         -6    1    1    2    0  502  0.89915538243E+02 -0.20450366467E+03  0.11754213857E+03  0.30602566432E+03  0.17300000000E+03 0. -1.
<mgrwt>
<rscale>  2 0.28255186E+03</rscale>
<asrwt>0</asrwt>
<pdfrwt beam="1">  1       21 0.35473521E-01 0.28255186E+03</pdfrwt>
<pdfrwt beam="2">  1       21 0.17788068E+00 0.28255186E+03</pdfrwt>
<totfact> 0.13324919E+03</totfact>
</mgrwt>
</event>
<event>
 4    2  0.3972096E+000  0.1806339E+03  0.7546771E-02  0.1167191E+00
         21   -1    0    0  503  502  0.00000000000E+00  0.00000000000E+00  0.53476188173E+03  0.53476188173E+03  0.00000000000E+00 0. -1.
         21   -1    0    0  501  503 -0.00000000000E+00 -0.00000000000E+00 -0.90925640931E+02  0.90925640931E+02  0.00000000000E+00 0. -1.
          6    1    1    2  501    0  0.51608070775E+02  0.60175526121E+01  0.42487850319E+02  0.18556352371E+03  0.17300000000E+03 0. -1.
         -6    1    1    2    0  502 -0.51608070775E+02 -0.60175526121E+01  0.40134839048E+03  0.44012399895E+03  0.17300000000E+03 0. -1.
<mgrwt>
<rscale>  2 0.18063389E+03</rscale>
<asrwt>0</asrwt>
<pdfrwt beam="1">  1       21 0.82271057E-01 0.18063389E+03</pdfrwt>
<pdfrwt beam="2">  1       21 0.13988560E-01 0.18063389E+03</pdfrwt>
<totfact> 0.57802696E+04</totfact>
</mgrwt>
</event>
<event>
 4    2  0.3972096E+000  0.1756307E+03  0.7546771E-02  0.1172100E+00
         21   -1    0    0  501  502  0.00000000000E+00  0.00000000000E+00  0.42640955957E+02  0.42640955957E+02  0.00000000000E+00 0. -1.
         21   -1    0    0  502  503 -0.00000000000E+00 -0.00000000000E+00 -0.72478707699E+03  0.72478707699E+03  0.00000000000E+00 0. -1.
          6    1    1    2  501    0  0.39230307915E+01  0.30029129668E+02 -0.32424026272E+03  0.36875179561E+03  0.17300000000E+03 0. -1.
         -6    1    1    2    0  503 -0.39230307915E+01 -0.30029129668E+02 -0.35790585831E+03  0.39867623733E+03  0.17300000000E+03 0. -1.
<mgrwt>
<rscale>  2 0.17563069E+03</rscale>
<asrwt>0</asrwt>
<pdfrwt beam="1">  1       21 0.65601466E-02 0.17563069E+03</pdfrwt>
<pdfrwt beam="2">  1       21 0.11150571E+00 0.17563069E+03</pdfrwt>
<totfact> 0.10766997E+05</totfact>
</mgrwt>
</event>
<event>
 4    2  0.3972096E+000  0.2158187E+03  0.7546771E-02  0.1137039E+00
         21   -1    0    0  503  502  0.00000000000E+00  0.00000000000E+00  0.96407639190E+02  0.96407639190E+02  0.00000000000E+00 0. -1.
         21   -1    0    0  501  503 -0.00000000000E+00 -0.00000000000E+00 -0.48317024239E+03  0.48317024239E+03  0.00000000000E+00 0. -1.
          6    1    1    2  501    0 -0.12265062255E+03  0.40069348110E+02 -0.19084275439E+03  0.28809492320E+03  0.17300000000E+03 0. -1.
         -6    1    1    2    0  502  0.12265062255E+03 -0.40069348110E+02 -0.19591984881E+03  0.29148295838E+03  0.17300000000E+03 0. -1.
<mgrwt>
<rscale>  2 0.21581874E+03</rscale>
<asrwt>0</asrwt>
<pdfrwt beam="1">  1       21 0.14831944E-01 0.21581874E+03</pdfrwt>
<pdfrwt beam="2">  1       21 0.74333886E-01 0.21581874E+03</pdfrwt>
<totfact> 0.64256721E+04</totfact>
</mgrwt>
</event>
<event>
 4    2  0.3972096E+000  0.2274520E+03  0.7546771E-02  0.1128446E+00
         21   -1    0    0  503  502  0.00000000000E+00  0.00000000000E+00  0.35804616359E+03  0.35804616359E+03  0.00000000000E+00 0.  1.
         21   -1    0    0  501  503 -0.00000000000E+00 -0.00000000000E+00 -0.21978981834E+03  0.21978981834E+03  0.00000000000E+00 0. -1.
          6    1    1    2  501    0  0.11825666876E+03  0.88435254694E+02 -0.99980155678E+02  0.24845616416E+03  0.17300000000E+03 0. -1.
         -6    1    1    2    0  502 -0.11825666876E+03 -0.88435254694E+02  0.23823650093E+03  0.32937981777E+03  0.17300000000E+03 0.  1.
<mgrwt>
<rscale>  2 0.22745205E+03</rscale>
<asrwt>0</asrwt>
<pdfrwt beam="1">  1       21 0.55084025E-01 0.22745205E+03</pdfrwt>
<pdfrwt beam="2">  1       21 0.33813818E-01 0.22745205E+03</pdfrwt>
<totfact> 0.25704333E+04</totfact>
</mgrwt>
</event>
<event>
 4    2  0.3972096E+000  0.2034189E+03  0.7546771E-02  0.1146886E+00
         21   -1    0    0  503  502  0.00000000000E+00  0.00000000000E+00  0.15330729027E+03  0.15330729027E+03  0.00000000000E+00 0.  1.
         21   -1    0    0  501  503 -0.00000000000E+00 -0.00000000000E+00 -0.33411049822E+03  0.33411049822E+03  0.00000000000E+00 0. -1.
          6    1    1    2  501    0 -0.92397260889E+02 -0.53972003129E+02 -0.19723184020E+03  0.28333660146E+03  0.17300000000E+03 0. -1.
         -6    1    1    2    0  502  0.92397260889E+02  0.53972003129E+02  0.16428632249E+02  0.20408118703E+03  0.17300000000E+03 0.  1.
<mgrwt>
<rscale>  2 0.20341886E+03</rscale>
<asrwt>0</asrwt>
<pdfrwt beam="1">  1       21 0.23585737E-01 0.20341886E+03</pdfrwt>
<pdfrwt beam="2">  1       21 0.51401615E-01 0.20341886E+03</pdfrwt>
<totfact> 0.60557302E+04</totfact>
</mgrwt>
</event>
<event>
 4    2  0.3972096E+000  0.2836800E+03  0.7546771E-02  0.1093696E+00
         21   -1    0    0  501  502  0.00000000000E+00  0.00000000000E+00  0.24127439468E+03  0.24127439468E+03  0.00000000000E+00 0.  1.
         21   -1    0    0  502  503 -0.00000000000E+00 -0.00000000000E+00 -0.74844982961E+03  0.74844982961E+03  0.00000000000E+00 0. -1.
          6    1    1    2  501    0  0.13843748252E+03 -0.17714511431E+03 -0.62203931412E+03  0.68367187774E+03  0.17300000000E+03 0. -1.
         -6    1    1    2    0  503 -0.13843748252E+03  0.17714511431E+03  0.11486387919E+03  0.30605234656E+03  0.17300000000E+03 0.  1.
<mgrwt>
<rscale>  2 0.28367997E+03</rscale>
<asrwt>0</asrwt>
<pdfrwt beam="1">  1       21 0.37119138E-01 0.28367997E+03</pdfrwt>
<pdfrwt beam="2">  1       21 0.11514613E+00 0.28367997E+03</pdfrwt>
<totfact> 0.38380333E+03</totfact>
</mgrwt>
</event>
<event>
 4    2  0.3972096E+000  0.1767914E+03  0.7546771E-02  0.1170945E+00
         21   -1    0    0  503  502  0.00000000000E+00  0.00000000000E+00  0.51458957048E+02  0.51458957048E+02  0.00000000000E+00 0.  1.
         21   -1    0    0  501  503 -0.00000000000E+00 -0.00000000000E+00 -0.61127236378E+03  0.61127236378E+03  0.00000000000E+00 0.  1.
          6    1    1    2  501    0  0.73473455383E+01  0.35668129253E+02 -0.25346835155E+03  0.30903301469E+03  0.17300000000E+03 0.  1.
         -6    1    1    2    0  502 -0.73473455383E+01 -0.35668129253E+02 -0.30634505518E+03  0.35369830614E+03  0.17300000000E+03 0.  1.
<mgrwt>
<rscale>  2 0.17679140E+03</rscale>
<asrwt>0</asrwt>
<pdfrwt beam="1">  1       21 0.79167624E-02 0.17679140E+03</pdfrwt>
<pdfrwt beam="2">  1       21 0.94041904E-01 0.17679140E+03</pdfrwt>
<totfact> 0.11663754E+05</totfact>
</mgrwt>
</event>
<event>
 4    2  0.3972096E+000  0.2061899E+03  0.7546771E-02  0.1144619E+00
         21   -1    0    0  503  502  0.00000000000E+00  0.00000000000E+00  0.81915348513E+02  0.81915348513E+02  0.00000000000E+00 0.  1.
         21   -1    0    0  501  503 -0.00000000000E+00 -0.00000000000E+00 -0.11864994594E+04  0.11864994594E+04  0.00000000000E+00 0. -1.
          6    1    1    2  501    0 -0.19086492541E+02 -0.11054850218E+03 -0.10279800620E+04  0.10484547073E+04  0.17300000000E+03 0. -1.
         -6    1    1    2    0  502  0.19086492541E+02  0.11054850218E+03 -0.76604048905E+02  0.21996010056E+03  0.17300000000E+03 0.  1.
<mgrwt>
<rscale>  2 0.20618988E+03</rscale>
<asrwt>0</asrwt>
<pdfrwt beam="1">  1       21 0.12602362E-01 0.20618988E+03</pdfrwt>
<pdfrwt beam="2">  1       21 0.18253837E+00 0.20618988E+03</pdfrwt>
<totfact> 0.92983065E+03</totfact>
</mgrwt>
</event>
<event>
 4    2  0.3972096E+000  0.2303769E+03  0.7546771E-02  0.1126375E+00
         21   -1    0    0  501  502  0.00000000000E+00  0.00000000000E+00  0.10625633883E+03  0.10625633883E+03  0.00000000000E+00 0.  1.
         21   -1    0    0  502  503 -0.00000000000E+00 -0.00000000000E+00 -0.57637583578E+03  0.57637583578E+03  0.00000000000E+00 0. -1.
          6    1    1    2  501    0 -0.13900844737E+03 -0.61815528612E+02 -0.11039617965E+03  0.25546198249E+03  0.17300000000E+03 0. -1.
         -6    1    1    2    0  503  0.13900844737E+03  0.61815528612E+02 -0.35972331730E+03  0.42717019211E+03  0.17300000000E+03 0. -1.
<mgrwt>
<rscale>  2 0.23037688E+03</rscale>
<asrwt>0</asrwt>
<pdfrwt beam="1">  1       21 0.16347129E-01 0.23037688E+03</pdfrwt>
<pdfrwt beam="2">  1       21 0.88673204E-01 0.23037688E+03</pdfrwt>
<totfact> 0.35744641E+04</totfact>
</mgrwt>
</event>
<event>
 4    2  0.3972096E+000  0.2135669E+03  0.7546771E-02  0.1138772E+00
         21   -1    0    0  503  502  0.00000000000E+00  0.00000000000E+00  0.17209135955E+03  0.17209135955E+03  0.00000000000E+00 0. -1.
         21   -1    0    0  501  503 -0.00000000000E+00 -0.00000000000E+00 -0.27282105536E+03  0.27282105536E+03  0.00000000000E+00 0. -1.
          6    1    1    2  501    0 -0.45899130859E+02 -0.11651211747E+03 -0.87937503790E+02  0.23096278554E+03  0.17300000000E+03 0. -1.
         -6    1    1    2    0  502  0.45899130859E+02  0.11651211747E+03 -0.12792192029E+02  0.21394962937E+03  0.17300000000E+03 0. -1.
<mgrwt>
<rscale>  2 0.21356686E+03</rscale>
<asrwt>0</asrwt>
<pdfrwt beam="1">  1       21 0.26475594E-01 0.21356686E+03</pdfrwt>
<pdfrwt beam="2">  1       21 0.41972470E-01 0.21356686E+03</pdfrwt>
<totfact> 0.73478630E+04</totfact>
</mgrwt>
</event>
<event>
 4    2  0.3972096E+000  0.2272435E+03  0.7546771E-02  0.1128595E+00
         21   -1    0    0  503  502  0.00000000000E+00  0.00000000000E+00  0.39689067605E+03  0.39689067605E+03  0.00000000000E+00 0.  1.
         21   -1    0    0  501  503 -0.00000000000E+00 -0.00000000000E+00 -0.30106316056E+03  0.30106316056E+03  0.00000000000E+00 0. -1.
          6    1    1    2  501    0  0.13905754870E+03  0.48719840755E+02 -0.21505605049E+03  0.31287174622E+03  0.17300000000E+03 0. -1.
         -6    1    1    2    0  502 -0.13905754870E+03 -0.48719840755E+02  0.31088356598E+03  0.38508209038E+03  0.17300000000E+03 0.  1.
<mgrwt>
<rscale>  2 0.22724354E+03</rscale>
<asrwt>0</asrwt>
<pdfrwt beam="1">  1       21 0.61060104E-01 0.22724354E+03</pdfrwt>
<pdfrwt beam="2">  1       21 0.46317410E-01 0.22724354E+03</pdfrwt>
<totfact> 0.10896905E+04</totfact>
</mgrwt>
</event>
<event>
 4    2  0.3972096E+000  0.2479538E+03  0.7546771E-02  0.1114605E+00
         21   -1    0    0  501  502  0.00000000000E+00  0.00000000000E+00  0.14680355797E+03  0.14680355797E+03  0.00000000000E+00 0. -1.
         21   -1    0    0  502  503 -0.00000000000E+00 -0.00000000000E+00 -0.42548795129E+03  0.42548795129E+03  0.00000000000E+00 0.  1.
          6    1    1    2  501    0  0.51036738297E+02 -0.17013914333E+03 -0.10346270797E+03  0.26867379606E+03  0.17300000000E+03 0.  1.
         -6    1    1    2    0  503 -0.51036738297E+02  0.17013914333E+03 -0.17522168536E+03  0.30361771320E+03  0.17300000000E+03 0. -1.
<mgrwt>
<rscale>  2 0.24795378E+03</rscale>
<asrwt>0</asrwt>
<pdfrwt beam="1">  1       21 0.22585163E-01 0.24795378E+03</pdfrwt>
<pdfrwt beam="2">  1       21 0.65459684E-01 0.24795378E+03</pdfrwt>
<totfact> 0.38396173E+04</totfact>
</mgrwt>
</event>
<event>
 4    2  0.3972096E+000  0.1911887E+03  0.7546771E-02  0.1157394E+00
         21   -1    0    0  503  502  0.00000000000E+00  0.00000000000E+00  0.16742375111E+03  0.16742375111E+03  0.00000000000E+00 0. -1.
         21   -1    0    0  501  503 -0.00000000000E+00 -0.00000000000E+00 -0.36528073575E+03  0.36528073575E+03  0.00000000000E+00 0. -1.
          6    1    1    2  501    0  0.54692173612E+02 -0.60273281751E+02 -0.26786888244E+03  0.32910004638E+03  0.17300000000E+03 0. -1.
         -6    1    1    2    0  502 -0.54692173612E+02  0.60273281751E+02  0.70011897798E+02  0.20360444047E+03  0.17300000000E+03 0. -1.
<mgrwt>
<rscale>  2 0.19118866E+03</rscale>
<asrwt>0</asrwt>
<pdfrwt beam="1">  1       21 0.25757500E-01 0.19118866E+03</pdfrwt>
<pdfrwt beam="2">  1       21 0.56197036E-01 0.19118866E+03</pdfrwt>
<totfact> 0.42666427E+04</totfact>
</mgrwt>
</event>
<event>
 4    2  0.3972096E+000  0.1883290E+03  0.7546771E-02  0.1159977E+00
         21   -1    0    0  503  502  0.00000000000E+00  0.00000000000E+00  0.12463830964E+03  0.12463830964E+03  0.00000000000E+00 0. -1.
         21   -1    0    0  501  503 -0.00000000000E+00 -0.00000000000E+00 -0.29615395885E+03  0.29615395885E+03  0.00000000000E+00 0. -1.
          6    1    1    2  501    0 -0.72286729449E+02 -0.17704450292E+02 -0.44139612428E+02  0.19343247969E+03  0.17300000000E+03 0. -1.
         -6    1    1    2    0  502  0.72286729449E+02  0.17704450292E+02 -0.12737603679E+03  0.22735978880E+03  0.17300000000E+03 0. -1.
<mgrwt>
<rscale>  2 0.18832902E+03</rscale>
<asrwt>0</asrwt>
<pdfrwt beam="1">  1       21 0.19175125E-01 0.18832902E+03</pdfrwt>
<pdfrwt beam="2">  1       21 0.45562147E-01 0.18832902E+03</pdfrwt>
<totfact> 0.11551627E+05</totfact>
</mgrwt>
</event>
<event>
 4    2  0.3972096E+000  0.1770955E+03  0.7546771E-02  0.1170644E+00
         21   -1    0    0  503  502  0.00000000000E+00  0.00000000000E+00  0.11921717363E+03  0.11921717363E+03  0.00000000000E+00 0. -1.
         21   -1    0    0  501  503 -0.00000000000E+00 -0.00000000000E+00 -0.40789257859E+03  0.40789257859E+03  0.00000000000E+00 0. -1.
          6    1    1    2  501    0 -0.29727239658E+01  0.37748920667E+02 -0.30137825385E+03  0.34955925105E+03  0.17300000000E+03 0. -1.
         -6    1    1    2    0  502  0.29727239658E+01 -0.37748920667E+02  0.12702848887E+02  0.17755050118E+03  0.17300000000E+03 0. -1.
<mgrwt>
<rscale>  2 0.17709551E+03</rscale>
<asrwt>0</asrwt>
<pdfrwt beam="1">  1       21 0.18341104E-01 0.17709551E+03</pdfrwt>
<pdfrwt beam="2">  1       21 0.62752704E-01 0.17709551E+03</pdfrwt>
<totfact> 0.64233580E+04</totfact>
</mgrwt>
</event>
<event>
 4    2  0.3972096E+000  0.1840466E+03  0.7546771E-02  0.1163943E+00
         21   -1    0    0  503  502  0.00000000000E+00  0.00000000000E+00  0.78788065155E+02  0.78788065155E+02  0.00000000000E+00 0.  1.
         21   -1    0    0  501  503 -0.00000000000E+00 -0.00000000000E+00 -0.95700450103E+03  0.95700450103E+03  0.00000000000E+00 0.  1.
          6    1    1    2  501    0 -0.53836629518E+02 -0.32338558362E+02 -0.82345459281E+03  0.84377167021E+03  0.17300000000E+03 0.  1.
         -6    1    1    2    0  502  0.53836629518E+02  0.32338558362E+02 -0.54761843068E+02  0.19202089598E+03  0.17300000000E+03 0.  1.
<mgrwt>
<rscale>  2 0.18404664E+03</rscale>
<asrwt>0</asrwt>
<pdfrwt beam="1">  1       21 0.12121241E-01 0.18404664E+03</pdfrwt>
<pdfrwt beam="2">  1       21 0.14723146E+00 0.18404664E+03</pdfrwt>
<totfact> 0.18197278E+04</totfact>
</mgrwt>
</event>
<event>
 4    2  0.3972096E+000  0.2047148E+03  0.7546771E-02  0.1145821E+00
         21   -1    0    0  501  502  0.00000000000E+00  0.00000000000E+00  0.51620965147E+02  0.51620965147E+02  0.00000000000E+00 0.  1.
         21   -1    0    0  502  503 -0.00000000000E+00 -0.00000000000E+00 -0.81201942422E+03  0.81201942422E+03  0.00000000000E+00 0.  1.
          6    1    1    2  501    0 -0.10849927916E+03  0.14389988417E+02 -0.37385036638E+03  0.42623029196E+03  0.17300000000E+03 0.  1.
         -6    1    1    2    0  503  0.10849927916E+03 -0.14389988417E+02 -0.38654809270E+03  0.43741009741E+03  0.17300000000E+03 0.  1.
<mgrwt>
<rscale>  2 0.20471484E+03</rscale>
<asrwt>0</asrwt>
<pdfrwt beam="1">  1       21 0.79416881E-02 0.20471484E+03</pdfrwt>
<pdfrwt beam="2">  1       21 0.12492605E+00 0.20471484E+03</pdfrwt>
<totfact> 0.57700864E+04</totfact>
</mgrwt>
</event>
<event>
 4    2  0.3972096E+000  0.2210955E+03  0.7546771E-02  0.1133069E+00
         21   -1    0    0  503  502  0.00000000000E+00  0.00000000000E+00  0.22368782229E+02  0.22368782229E+02  0.00000000000E+00 0. -1.
         21   -1    0    0  501  503 -0.00000000000E+00 -0.00000000000E+00 -0.23957281345E+04  0.23957281345E+04  0.00000000000E+00 0.  1.
          6    1    1    2  501    0 -0.13680627400E+03 -0.15435766141E+02 -0.15449770627E+04  0.15607169326E+04  0.17300000000E+03 0.  1.
         -6    1    1    2    0  502  0.13680627400E+03  0.15435766141E+02 -0.82838228957E+03  0.85737998412E+03  0.17300000000E+03 0. -1.
<mgrwt>
<rscale>  2 0.22109550E+03</rscale>
<asrwt>0</asrwt>
<pdfrwt beam="1">  1       21 0.34413491E-02 0.22109550E+03</pdfrwt>
<pdfrwt beam="2">  1       21 0.36857378E+00 0.22109550E+03</pdfrwt>
<totfact> 0.66008708E+03</totfact>
</mgrwt>
</event>
<event>
 4    2  0.3972096E+000  0.4661258E+03  0.7546771E-02  0.1023019E+00
         21   -1    0    0  503  502  0.00000000000E+00  0.00000000000E+00  0.26329164678E+03  0.26329164678E+03  0.00000000000E+00 0. -1.
         21   -1    0    0  501  503 -0.00000000000E+00 -0.00000000000E+00 -0.18789342454E+04  0.18789342454E+04  0.00000000000E+00 0. -1.
          6    1    1    2  501    0 -0.25528431225E+03 -0.34953421645E+03 -0.16099445879E+04  0.16760652805E+04  0.17300000000E+03 0. -1.
         -6    1    1    2    0  502  0.25528431225E+03  0.34953421645E+03 -0.56980107696E+01  0.46616061168E+03  0.17300000000E+03 0. -1.
<mgrwt>
<rscale>  2 0.46612579E+03</rscale>
<asrwt>0</asrwt>
<pdfrwt beam="1">  1       21 0.40506407E-01 0.46612579E+03</pdfrwt>
<pdfrwt beam="2">  1       21 0.28906681E+00 0.46612579E+03</pdfrwt>
<totfact> 0.18007991E+02</totfact>
</mgrwt>
</event>
<event>
 4    2  0.3972096E+000  0.1870258E+03  0.7546771E-02  0.1161171E+00
         21   -1    0    0  503  502  0.00000000000E+00  0.00000000000E+00  0.12322669309E+03  0.12322669309E+03  0.00000000000E+00 0. -1.
         21   -1    0    0  501  503 -0.00000000000E+00 -0.00000000000E+00 -0.35230110735E+03  0.35230110735E+03  0.00000000000E+00 0. -1.
          6    1    1    2  501    0 -0.16620741075E+02  0.69089924708E+02 -0.21933673603E+03  0.28824862620E+03  0.17300000000E+03 0. -1.
         -6    1    1    2    0  502  0.16620741075E+02 -0.69089924708E+02 -0.97376782289E+01  0.18727917425E+03  0.17300000000E+03 0. -1.
<mgrwt>
<rscale>  2 0.18702585E+03</rscale>
<asrwt>0</asrwt>
<pdfrwt beam="1">  1       21 0.18957953E-01 0.18702585E+03</pdfrwt>
<pdfrwt beam="2">  1       21 0.54200170E-01 0.18702585E+03</pdfrwt>
<totfact> 0.82237064E+04</totfact>
</mgrwt>
</event>
<event>
 4    2  0.3972096E+000  0.2305160E+03  0.7546771E-02  0.1126277E+00
         21   -1    0    0  503  502  0.00000000000E+00  0.00000000000E+00  0.96224152043E+03  0.96224152043E+03  0.00000000000E+00 0.  1.
         21   -1    0    0  501  503 -0.00000000000E+00 -0.00000000000E+00 -0.80074541713E+02  0.80074541713E+02  0.00000000000E+00 0. -1.
          6    1    1    2  501    0 -0.14961010454E+03  0.28730820939E+02  0.15074750227E+03  0.27543139417E+03  0.17300000000E+03 0. -1.
         -6    1    1    2    0  502  0.14961010454E+03 -0.28730820939E+02  0.73141947645E+03  0.76688466798E+03  0.17300000000E+03 0.  1.
<mgrwt>
<rscale>  2 0.23051604E+03</rscale>
<asrwt>0</asrwt>
<pdfrwt beam="1">  1       21 0.14803715E+00 0.23051604E+03</pdfrwt>
<pdfrwt beam="2">  1       21 0.12319161E-01 0.23051604E+03</pdfrwt>
<totfact> 0.16899404E+04</totfact>
</mgrwt>
</event>
<event>
 4    2  0.3972096E+000  0.1737898E+03  0.7546771E-02  0.1173952E+00
         21   -1    0    0  503  502  0.00000000000E+00  0.00000000000E+00  0.24629044643E+03  0.24629044643E+03  0.00000000000E+00 0.  1.
         21   -1    0    0  501  503 -0.00000000000E+00 -0.00000000000E+00 -0.12279411164E+03  0.12279411164E+03  0.00000000000E+00 0.  1.
          6    1    1    2  501    0  0.55885698149E+01  0.15578018731E+02  0.68468775081E+02  0.18679100605E+03  0.17300000000E+03 0.  1.
         -6    1    1    2    0  502 -0.55885698149E+01 -0.15578018731E+02  0.55027559703E+02  0.18229355202E+03  0.17300000000E+03 0.  1.
<mgrwt>
<rscale>  2 0.17378984E+03</rscale>
<asrwt>0</asrwt>
<pdfrwt beam="1">  1       21 0.37890838E-01 0.17378984E+03</pdfrwt>
<pdfrwt beam="2">  1       21 0.18891402E-01 0.17378984E+03</pdfrwt>
<totfact> 0.17343193E+05</totfact>
</mgrwt>
</event>
<event>
 4    2  0.3972096E+000  0.2786119E+03  0.7546771E-02  0.1096450E+00
         21   -1    0    0  503  502  0.00000000000E+00  0.00000000000E+00  0.13461238241E+03  0.13461238241E+03  0.00000000000E+00 0. -1.
         21   -1    0    0  501  503 -0.00000000000E+00 -0.00000000000E+00 -0.66614587565E+03  0.66614587565E+03  0.00000000000E+00 0. -1.
          6    1    1    2  501    0 -0.14950241168E+03 -0.15919996140E+03 -0.11901555797E+03  0.30296749305E+03  0.17300000000E+03 0. -1.
         -6    1    1    2    0  502  0.14950241168E+03  0.15919996140E+03 -0.41251793527E+03  0.49779076501E+03  0.17300000000E+03 0. -1.
<mgrwt>
<rscale>  2 0.27861191E+03</rscale>
<asrwt>0</asrwt>
<pdfrwt beam="1">  1       21 0.20709598E-01 0.27861191E+03</pdfrwt>
<pdfrwt beam="2">  1       21 0.10248398E+00 0.27861191E+03</pdfrwt>
<totfact> 0.15963522E+04</totfact>
</mgrwt>
</event>
<event>
 4    2  0.3972096E+000  0.1782354E+03  0.7546771E-02  0.1169522E+00
         21   -1    0    0  503  502  0.00000000000E+00  0.00000000000E+00  0.35140667145E+03  0.35140667145E+03  0.00000000000E+00 0.  1.
         21   -1    0    0  501  503 -0.00000000000E+00 -0.00000000000E+00 -0.92066122305E+02  0.92066122305E+02  0.00000000000E+00 0.  1.
          6    1    1    2  501    0 -0.52639137392E+01  0.42557722795E+02  0.15948142245E+03  0.23916979881E+03  0.17300000000E+03 0. -1.
         -6    1    1    2    0  502  0.52639137392E+01 -0.42557722795E+02  0.99859126693E+02  0.20430299494E+03  0.17300000000E+03 0. -1.
<mgrwt>
<rscale>  2 0.17823543E+03</rscale>
<asrwt>0</asrwt>
<pdfrwt beam="1">  1       21 0.54062564E-01 0.17823543E+03</pdfrwt>
<pdfrwt beam="2">  1       21 0.14164019E-01 0.17823543E+03</pdfrwt>
<totfact> 0.14150193E+05</totfact>
</mgrwt>
</event>
<event>
 4    2  0.3972096E+000  0.2165022E+03  0.7546771E-02  0.1136518E+00
         21   -1    0    0  501  502  0.00000000000E+00  0.00000000000E+00  0.64355566528E+03  0.64355566528E+03  0.00000000000E+00 0.  1.
         21   -1    0    0  502  503 -0.00000000000E+00 -0.00000000000E+00 -0.14768980834E+03  0.14768980834E+03  0.00000000000E+00 0. -1.
          6    1    1    2  501    0 -0.60287445036E+02 -0.11536741894E+03  0.52958733473E+03  0.57213281892E+03  0.17300000000E+03 0.  1.
         -6    1    1    2    0  503  0.60287445036E+02  0.11536741894E+03 -0.33721477792E+02  0.21911265469E+03  0.17300000000E+03 0. -1.
<mgrwt>
<rscale>  2 0.21650223E+03</rscale>
<asrwt>0</asrwt>
<pdfrwt beam="1">  1       21 0.99008562E-01 0.21650223E+03</pdfrwt>
<pdfrwt beam="2">  1       21 0.22721509E-01 0.21650223E+03</pdfrwt>
<totfact> 0.15035360E+04</totfact>
</mgrwt>
</event>
<event>
 4    2  0.3972096E+000  0.2108325E+03  0.7546771E-02  0.1140908E+00
         21   -1    0    0  501  502  0.00000000000E+00  0.00000000000E+00  0.38042245980E+03  0.38042245980E+03  0.00000000000E+00 0.  1.
         21   -1    0    0  502  503 -0.00000000000E+00 -0.00000000000E+00 -0.13244298950E+03  0.13244298950E+03  0.00000000000E+00 0.  1.
          6    1    1    2  501    0  0.80343351005E+02  0.89812608379E+02  0.21199265135E+03  0.29898368333E+03  0.17300000000E+03 0.  1.
         -6    1    1    2    0  503 -0.80343351005E+02 -0.89812608379E+02  0.35986818953E+02  0.21388176597E+03  0.17300000000E+03 0.  1.
<mgrwt>
<rscale>  2 0.21083254E+03</rscale>
<asrwt>0</asrwt>
<pdfrwt beam="1">  1       21 0.58526532E-01 0.21083254E+03</pdfrwt>
<pdfrwt beam="2">  1       21 0.20375845E-01 0.21083254E+03</pdfrwt>
<totfact> 0.60417492E+04</totfact>
</mgrwt>
</event>
<event>
 4    2  0.3972096E+000  0.1736795E+03  0.7546771E-02  0.1174064E+00
         21   -1    0    0  501  502  0.00000000000E+00  0.00000000000E+00  0.20374581977E+03  0.20374581977E+03  0.00000000000E+00 0.  1.
         21   -1    0    0  502  503 -0.00000000000E+00 -0.00000000000E+00 -0.18659586145E+03  0.18659586145E+03  0.00000000000E+00 0.  1.
          6    1    1    2  501    0  0.54285016527E+01  0.14355895966E+02  0.97280987062E+02  0.19906820646E+03  0.17300000000E+03 0.  1.
         -6    1    1    2    0  503 -0.54285016527E+01 -0.14355895966E+02 -0.80131028741E+02  0.19127347476E+03  0.17300000000E+03 0.  1.
<mgrwt>
<rscale>  2 0.17367948E+03</rscale>
<asrwt>0</asrwt>
<pdfrwt beam="1">  1       21 0.31345511E-01 0.17367948E+03</pdfrwt>
<pdfrwt beam="2">  1       21 0.28707056E-01 0.17367948E+03</pdfrwt>
<totfact> 0.11432781E+05</totfact>
</mgrwt>
</event>
<event>
 4    2  0.3972096E+000  0.2080028E+03  0.7546771E-02  0.1143157E+00
         21   -1    0    0  503  502  0.00000000000E+00  0.00000000000E+00  0.19250592616E+04  0.19250592616E+04  0.00000000000E+00 0.  1.
         21   -1    0    0  501  503 -0.00000000000E+00 -0.00000000000E+00 -0.27352353545E+02  0.27352353545E+02  0.00000000000E+00 0. -1.
          6    1    1    2  501    0 -0.52379041719E+02 -0.10292042570E+03  0.53661510894E+03  0.57551798684E+03  0.17300000000E+03 0. -1.
         -6    1    1    2    0  502  0.52379041719E+02  0.10292042570E+03  0.13610917991E+04  0.13768936283E+04  0.17300000000E+03 0. -1.
<mgrwt>
<rscale>  2 0.20800283E+03</rscale>
<asrwt>0</asrwt>
<pdfrwt beam="1">  1       21 0.29616286E+00 0.20800283E+03</pdfrwt>
<pdfrwt beam="2">  1       21 0.42080559E-02 0.20800283E+03</pdfrwt>
<totfact> 0.12726887E+04</totfact>
</mgrwt>
</event>
<event>
 4    2  0.3972096E+000  0.2214148E+03  0.7546771E-02  0.1132833E+00
         21   -1    0    0  501  502  0.00000000000E+00  0.00000000000E+00  0.26068057950E+02  0.26068057950E+02  0.00000000000E+00 0.  1.
         21   -1    0    0  502  503 -0.00000000000E+00 -0.00000000000E+00 -0.18831669332E+04  0.18831669332E+04  0.00000000000E+00 0. -1.
          6    1    1    2  501    0  0.11170739445E+03  0.81344770601E+02 -0.96354985376E+03  0.98866214369E+03  0.17300000000E+03 0.  1.
         -6    1    1    2    0  503 -0.11170739445E+03 -0.81344770601E+02 -0.89354902153E+03  0.92057284750E+03  0.17300000000E+03 0.  1.
<mgrwt>
<rscale>  2 0.22141480E+03</rscale>
<asrwt>0</asrwt>
<pdfrwt beam="1">  1       21 0.40104700E-02 0.22141480E+03</pdfrwt>
<pdfrwt beam="2">  1       21 0.28971803E+00 0.22141480E+03</pdfrwt>
<totfact> 0.14848489E+04</totfact>
</mgrwt>
</event>
<event>
 4    2  0.3972096E+000  0.2023499E+03  0.7546771E-02  0.1147771E+00
         21   -1    0    0  503  502  0.00000000000E+00  0.00000000000E+00  0.54750616353E+02  0.54750616353E+02  0.00000000000E+00 0.  1.
         21   -1    0    0  501  503 -0.00000000000E+00 -0.00000000000E+00 -0.97104990862E+03  0.97104990862E+03  0.00000000000E+00 0. -1.
          6    1    1    2  501    0 -0.52527663224E+02  0.90869882746E+02 -0.70404755847E+03  0.73254928543E+03  0.17300000000E+03 0. -1.
         -6    1    1    2    0  502  0.52527663224E+02 -0.90869882746E+02 -0.21225173379E+03  0.29325123954E+03  0.17300000000E+03 0.  1.
<mgrwt>
<rscale>  2 0.20234992E+03</rscale>
<asrwt>0</asrwt>
<pdfrwt beam="1">  1       21 0.84231731E-02 0.20234992E+03</pdfrwt>
<pdfrwt beam="2">  1       21 0.14939227E+00 0.20234992E+03</pdfrwt>
<totfact> 0.32940696E+04</totfact>
</mgrwt>
</event>
<event>
 4    2  0.3972096E+000  0.1878454E+03  0.7546771E-02  0.1160419E+00
         21   -1    0    0  503  502  0.00000000000E+00  0.00000000000E+00  0.40708868917E+03  0.40708868917E+03  0.00000000000E+00 0.  1.
         21   -1    0    0  501  503 -0.00000000000E+00 -0.00000000000E+00 -0.11447983864E+03  0.11447983864E+03  0.00000000000E+00 0.  1.
          6    1    1    2  501    0 -0.26982225671E+02 -0.68035645323E+02  0.17790933886E+02  0.18868600071E+03  0.17300000000E+03 0. -1.
         -6    1    1    2    0  502  0.26982225671E+02  0.68035645323E+02  0.27481791665E+03  0.33288252710E+03  0.17300000000E+03 0. -1.
<mgrwt>
<rscale>  2 0.18784539E+03</rscale>
<asrwt>0</asrwt>
<pdfrwt beam="1">  1       21 0.62629029E-01 0.18784539E+03</pdfrwt>
<pdfrwt beam="2">  1       21 0.17612283E-01 0.18784539E+03</pdfrwt>
<totfact> 0.69193663E+04</totfact>
</mgrwt>
</event>
<event>
 4    2  0.3972096E+000  0.1910048E+03  0.7546771E-02  0.1157558E+00
         21   -1    0    0  501  502  0.00000000000E+00  0.00000000000E+00  0.48125434240E+03  0.48125434240E+03  0.00000000000E+00 0. -1.
         21   -1    0    0  502  503 -0.00000000000E+00 -0.00000000000E+00 -0.89610429148E+02  0.89610429148E+02  0.00000000000E+00 0.  1.
          6    1    1    2  501    0 -0.74102831623E+02 -0.32597793137E+02  0.30784424991E+03  0.36228569938E+03  0.17300000000E+03 0. -1.
         -6    1    1    2    0  503  0.74102831623E+02  0.32597793137E+02  0.83799663346E+02  0.20857907217E+03  0.17300000000E+03 0.  1.
<mgrwt>
<rscale>  2 0.19100483E+03</rscale>
<asrwt>0</asrwt>
<pdfrwt beam="1">  1       21 0.74039128E-01 0.19100483E+03</pdfrwt>
<pdfrwt beam="2">  1       21 0.13786220E-01 0.19100483E+03</pdfrwt>
<totfact> 0.74866867E+04</totfact>
</mgrwt>
</event>
<event>
 4    2  0.3972096E+000  0.1884802E+03  0.7546771E-02  0.1159839E+00
         21   -1    0    0  503  502  0.00000000000E+00  0.00000000000E+00  0.48757937584E+03  0.48757937584E+03  0.00000000000E+00 0. -1.
         21   -1    0    0  501  503 -0.00000000000E+00 -0.00000000000E+00 -0.79774717384E+02  0.79774717384E+02  0.00000000000E+00 0. -1.
          6    1    1    2  501    0  0.64619942570E+02  0.37683350189E+02  0.12038134252E+03  0.22364355454E+03  0.17300000000E+03 0. -1.
         -6    1    1    2    0  502 -0.64619942570E+02 -0.37683350189E+02  0.28742331594E+03  0.34371053869E+03  0.17300000000E+03 0. -1.
<mgrwt>
<rscale>  2 0.18848016E+03</rscale>
<asrwt>0</asrwt>
<pdfrwt beam="1">  1       21 0.75012210E-01 0.18848016E+03</pdfrwt>
<pdfrwt beam="2">  1       21 0.12273034E-01 0.18848016E+03</pdfrwt>
<totfact> 0.89735428E+04</totfact>
</mgrwt>
</event>
<event>
 4    2  0.3972096E+000  0.1733032E+03  0.7546771E-02  0.1174446E+00
         21   -1    0    0  501  502  0.00000000000E+00  0.00000000000E+00  0.22118274399E+03  0.22118274399E+03  0.00000000000E+00 0. -1.
         21   -1    0    0  502  503 -0.00000000000E+00 -0.00000000000E+00 -0.18396428919E+03  0.18396428919E+03  0.00000000000E+00 0. -1.
          6    1    1    2  501    0  0.27996278441E+01  0.98565297244E+01  0.12227419908E+03  0.21209660265E+03  0.17300000000E+03 0. -1.
         -6    1    1    2    0  503 -0.27996278441E+01 -0.98565297244E+01 -0.85055744279E+02  0.19305043053E+03  0.17300000000E+03 0. -1.
<mgrwt>
<rscale>  2 0.17330317E+03</rscale>
<asrwt>0</asrwt>
<pdfrwt beam="1">  1       21 0.34028115E-01 0.17330317E+03</pdfrwt>
<pdfrwt beam="2">  1       21 0.28302198E-01 0.17330317E+03</pdfrwt>
<totfact> 0.10002863E+05</totfact>
</mgrwt>
</event>
<event>
 4    2  0.3972096E+000  0.2076519E+03  0.7546771E-02  0.1143439E+00
         21   -1    0    0  501  502  0.00000000000E+00  0.00000000000E+00  0.83757990490E+02  0.83757990490E+02  0.00000000000E+00 0. -1.
         21   -1    0    0  502  503 -0.00000000000E+00 -0.00000000000E+00 -0.51488703590E+03  0.51488703590E+03  0.00000000000E+00 0. -1.
          6    1    1    2  501    0  0.10842541244E+03 -0.37871191327E+02 -0.21185986469E+03  0.29665451196E+03  0.17300000000E+03 0. -1.
         -6    1    1    2    0  503 -0.10842541244E+03  0.37871191327E+02 -0.21926918071E+03  0.30199051443E+03  0.17300000000E+03 0. -1.
<mgrwt>
<rscale>  2 0.20765187E+03</rscale>
<asrwt>0</asrwt>
<pdfrwt beam="1">  1       21 0.12885845E-01 0.20765187E+03</pdfrwt>
<pdfrwt beam="2">  1       21 0.79213389E-01 0.20765187E+03</pdfrwt>
<totfact> 0.72139287E+04</totfact>
</mgrwt>
</event>
<event>
 4    2  0.3972096E+000  0.2417170E+03  0.7546771E-02  0.1118654E+00
         21   -1    0    0  501  502  0.00000000000E+00  0.00000000000E+00  0.51260265364E+03  0.51260265364E+03  0.00000000000E+00 0.  1.
         21   -1    0    0  502  503 -0.00000000000E+00 -0.00000000000E+00 -0.11454240862E+03  0.11454240862E+03  0.00000000000E+00 0. -1.
          6    1    1    2  501    0 -0.16277264734E+02 -0.16802730745E+03  0.22097695615E+03  0.32750258098E+03  0.17300000000E+03 0.  1.
         -6    1    1    2    0  503  0.16277264734E+02  0.16802730745E+03  0.17708328887E+03  0.29964248129E+03  0.17300000000E+03 0.  1.
<mgrwt>
<rscale>  2 0.24171704E+03</rscale>
<asrwt>0</asrwt>
<pdfrwt beam="1">  1       21 0.78861945E-01 0.24171704E+03</pdfrwt>
<pdfrwt beam="2">  1       21 0.17621909E-01 0.24171704E+03</pdfrwt>
<totfact> 0.40501761E+04</totfact>
</mgrwt>
</event>
<event>
 4    2  0.3972096E+000  0.2318112E+03  0.7546771E-02  0.1125371E+00
         21   -1    0    0  501  502  0.00000000000E+00  0.00000000000E+00  0.61654556393E+03  0.61654556393E+03  0.00000000000E+00 0.  1.
         21   -1    0    0  502  503 -0.00000000000E+00 -0.00000000000E+00 -0.13152838061E+03  0.13152838061E+03  0.00000000000E+00 0.  1.
          6    1    1    2  501    0 -0.70506600374E+02 -0.13724518614E+03  0.45975619621E+03  0.51489045609E+03  0.17300000000E+03 0.  1.
         -6    1    1    2    0  503  0.70506600374E+02  0.13724518614E+03  0.25260987114E+02  0.23318348845E+03  0.17300000000E+03 0.  1.
<mgrwt>
<rscale>  2 0.23181118E+03</rscale>
<asrwt>0</asrwt>
<pdfrwt beam="1">  1       21 0.94853162E-01 0.23181118E+03</pdfrwt>
<pdfrwt beam="2">  1       21 0.20235136E-01 0.23181118E+03</pdfrwt>
<totfact> 0.20524082E+04</totfact>
</mgrwt>
</event>
<event>
 4    2  0.3972096E+000  0.1884944E+03  0.7546771E-02  0.1159826E+00
         21   -1    0    0  501  502  0.00000000000E+00  0.00000000000E+00  0.38135849911E+03  0.38135849911E+03  0.00000000000E+00 0.  1.
         21   -1    0    0  502  503 -0.00000000000E+00 -0.00000000000E+00 -0.10454184620E+03  0.10454184620E+03  0.00000000000E+00 0.  1.
          6    1    1    2  501    0 -0.32078330029E+02 -0.67617347792E+02  0.21854660434E+03  0.28860482194E+03  0.17300000000E+03 0.  1.
         -6    1    1    2    0  503  0.32078330029E+02  0.67617347792E+02  0.58270048571E+02  0.19729552337E+03  0.17300000000E+03 0.  1.
<mgrwt>
<rscale>  2 0.18849436E+03</rscale>
<asrwt>0</asrwt>
<pdfrwt beam="1">  1       21 0.58670538E-01 0.18849436E+03</pdfrwt>
<pdfrwt beam="2">  1       21 0.16083361E-01 0.18849436E+03</pdfrwt>
<totfact> 0.94050741E+04</totfact>
</mgrwt>
</event>
<event>
 4    2  0.3972096E+000  0.1894055E+03  0.7546771E-02  0.1158999E+00
         21   -1    0    0  503  502  0.00000000000E+00  0.00000000000E+00  0.56258820761E+03  0.56258820761E+03  0.00000000000E+00 0.  1.
         21   -1    0    0  501  503 -0.00000000000E+00 -0.00000000000E+00 -0.69344760715E+02  0.69344760715E+02  0.00000000000E+00 0.  1.
          6    1    1    2  501    0  0.67797034080E+02  0.36728918596E+02  0.15700856026E+03  0.24602060744E+03  0.17300000000E+03 0.  1.
         -6    1    1    2    0  502 -0.67797034080E+02 -0.36728918596E+02  0.33623488664E+03  0.38591236088E+03  0.17300000000E+03 0.  1.
<mgrwt>
<rscale>  2 0.18940552E+03</rscale>
<asrwt>0</asrwt>
<pdfrwt beam="1">  1       21 0.86552029E-01 0.18940552E+03</pdfrwt>
<pdfrwt beam="2">  1       21 0.10668425E-01 0.18940552E+03</pdfrwt>
<totfact> 0.83301201E+04</totfact>
</mgrwt>
</event>
<event>
 4    2  0.3972096E+000  0.1755596E+03  0.7546771E-02  0.1172171E+00
         21   -1    0    0  501  502  0.00000000000E+00  0.00000000000E+00  0.22686331151E+03  0.22686331151E+03  0.00000000000E+00 0.  1.
         21   -1    0    0  502  503 -0.00000000000E+00 -0.00000000000E+00 -0.40045046664E+03  0.40045046664E+03  0.00000000000E+00 0.  1.
          6    1    1    2  501    0  0.14783427058E+02  0.25953973546E+02  0.16816480841E+03  0.24310606995E+03  0.17300000000E+03 0.  1.
         -6    1    1    2    0  503 -0.14783427058E+02 -0.25953973546E+02 -0.34175196354E+03  0.38420770820E+03  0.17300000000E+03 0.  1.
<mgrwt>
<rscale>  2 0.17555956E+03</rscale>
<asrwt>0</asrwt>
<pdfrwt beam="1">  1       21 0.34902049E-01 0.17555956E+03</pdfrwt>
<pdfrwt beam="2">  1       21 0.61607763E-01 0.17555956E+03</pdfrwt>
<totfact> 0.19572729E+04</totfact>
</mgrwt>
</event>
<event>
 4    2  0.3972096E+000  0.2297536E+03  0.7546771E-02  0.1126813E+00
         21   -1    0    0  503  502  0.00000000000E+00  0.00000000000E+00  0.60730380189E+03  0.60730380189E+03  0.00000000000E+00 0. -1.
         21   -1    0    0  501  503 -0.00000000000E+00 -0.00000000000E+00 -0.94137991464E+02  0.94137991464E+02  0.00000000000E+00 0.  1.
          6    1    1    2  501    0  0.14782318396E+03  0.31717625241E+02  0.15946606511E+03  0.27967146331E+03  0.17300000000E+03 0.  1.
         -6    1    1    2    0  502 -0.14782318396E+03 -0.31717625241E+02  0.35369974532E+03  0.42177033004E+03  0.17300000000E+03 0. -1.
<mgrwt>
<rscale>  2 0.22975357E+03</rscale>
<asrwt>0</asrwt>
<pdfrwt beam="1">  1       21 0.93431352E-01 0.22975357E+03</pdfrwt>
<pdfrwt beam="2">  1       21 0.14482768E-01 0.22975357E+03</pdfrwt>
<totfact> 0.39515209E+04</totfact>
</mgrwt>
</event>
<event>
 4    2  0.3972096E+000  0.1737104E+03  0.7546771E-02  0.1174033E+00
         21   -1    0    0  503  502  0.00000000000E+00  0.00000000000E+00  0.50180091526E+02  0.50180091526E+02  0.00000000000E+00 0. -1.
         21   -1    0    0  501  503 -0.00000000000E+00 -0.00000000000E+00 -0.63868063076E+03  0.63868063076E+03  0.00000000000E+00 0. -1.
          6    1    1    2  501    0 -0.11803971102E+02  0.10341884003E+02 -0.37753229899E+03  0.41557902387E+03  0.17300000000E+03 0.  1.
         -6    1    1    2    0  502  0.11803971102E+02 -0.10341884003E+02 -0.21096824024E+03  0.27328169841E+03  0.17300000000E+03 0.  1.
<mgrwt>
<rscale>  2 0.17371036E+03</rscale>
<asrwt>0</asrwt>
<pdfrwt beam="1">  1       21 0.77200137E-02 0.17371036E+03</pdfrwt>
<pdfrwt beam="2">  1       21 0.98258563E-01 0.17371036E+03</pdfrwt>
<totfact> 0.11009320E+05</totfact>
</mgrwt>
</event>
<event>
 4    2  0.3972096E+000  0.1760941E+03  0.7546771E-02  0.1171638E+00
         21   -1    0    0  501  502  0.00000000000E+00  0.00000000000E+00  0.11801162790E+04  0.11801162790E+04  0.00000000000E+00 0.  1.
         21   -1    0    0  502  503 -0.00000000000E+00 -0.00000000000E+00 -0.38115728412E+02  0.38115728412E+02  0.00000000000E+00 0.  1.
          6    1    1    2  501    0  0.38175036770E+01  0.32642697765E+02  0.91047919000E+03  0.92735186120E+03  0.17300000000E+03 0.  1.
         -6    1    1    2    0  503 -0.38175036770E+01 -0.32642697765E+02  0.23152136060E+03  0.29088014622E+03  0.17300000000E+03 0.  1.
<mgrwt>
<rscale>  2 0.17609406E+03</rscale>
<asrwt>0</asrwt>
<pdfrwt beam="1">  1       21 0.18155632E+00 0.17609406E+03</pdfrwt>
<pdfrwt beam="2">  1       21 0.58639591E-02 0.17609406E+03</pdfrwt>
<totfact> 0.36819560E+04</totfact>
</mgrwt>
</event>
<event>
 4    2  0.3972096E+000  0.1895474E+03  0.7546771E-02  0.1158870E+00
         21   -1    0    0  501  502  0.00000000000E+00  0.00000000000E+00  0.12937611193E+03  0.12937611193E+03  0.00000000000E+00 0. -1.
         21   -1    0    0  502  503 -0.00000000000E+00 -0.00000000000E+00 -0.29726776421E+03  0.29726776421E+03  0.00000000000E+00 0. -1.
          6    1    1    2  501    0 -0.76681950322E+02 -0.10913456552E+02 -0.13867150360E+03  0.23485742685E+03  0.17300000000E+03 0. -1.
         -6    1    1    2    0  503  0.76681950322E+02  0.10913456552E+02 -0.29220148687E+02  0.19178644928E+03  0.17300000000E+03 0. -1.
<mgrwt>
<rscale>  2 0.18954742E+03</rscale>
<asrwt>0</asrwt>
<pdfrwt beam="1">  1       21 0.19904017E-01 0.18954742E+03</pdfrwt>
<pdfrwt beam="2">  1       21 0.45733502E-01 0.18954742E+03</pdfrwt>
<totfact> 0.10688552E+05</totfact>
</mgrwt>
</event>
<event>
 4    2  0.3972096E+000  0.1866088E+03  0.7546771E-02  0.1161556E+00
         21   -1    0    0  503  502  0.00000000000E+00  0.00000000000E+00  0.96967604260E+03  0.96967604260E+03  0.00000000000E+00 0. -1.
         21   -1    0    0  501  503 -0.00000000000E+00 -0.00000000000E+00 -0.60226342054E+02  0.60226342054E+02  0.00000000000E+00 0. -1.
          6    1    1    2  501    0 -0.54425652516E+02 -0.43951118985E+02  0.12753072308E+03  0.22602419747E+03  0.17300000000E+03 0. -1.
         -6    1    1    2    0  502  0.54425652516E+02  0.43951118985E+02  0.78191897747E+03  0.80387818719E+03  0.17300000000E+03 0. -1.
<mgrwt>
<rscale>  2 0.18660882E+03</rscale>
<asrwt>0</asrwt>
<pdfrwt beam="1">  1       21 0.14918092E+00 0.18660882E+03</pdfrwt>
<pdfrwt beam="2">  1       21 0.92655918E-02 0.18660882E+03</pdfrwt>
<totfact> 0.28252959E+04</totfact>
</mgrwt>
</event>
<event>
 4    2  0.3972096E+000  0.2272818E+03  0.7546771E-02  0.1128568E+00
         21   -1    0    0  503  502  0.00000000000E+00  0.00000000000E+00  0.26844337752E+03  0.26844337752E+03  0.00000000000E+00 0. -1.
         21   -1    0    0  501  503 -0.00000000000E+00 -0.00000000000E+00 -0.24054704731E+03  0.24054704731E+03  0.00000000000E+00 0. -1.
          6    1    1    2  501    0 -0.14695273511E+03 -0.11529193743E+02 -0.99872519281E+02  0.24825702159E+03  0.17300000000E+03 0. -1.
         -6    1    1    2    0  502  0.14695273511E+03  0.11529193743E+02  0.12776884949E+03  0.26073340324E+03  0.17300000000E+03 0. -1.
<mgrwt>
<rscale>  2 0.22728183E+03</rscale>
<asrwt>0</asrwt>
<pdfrwt beam="1">  1       21 0.41298981E-01 0.22728183E+03</pdfrwt>
<pdfrwt beam="2">  1       21 0.37007238E-01 0.22728183E+03</pdfrwt>
<totfact> 0.39085090E+04</totfact>
</mgrwt>
</event>
<event>
 4    2  0.3972096E+000  0.2960314E+03  0.7546771E-02  0.1087241E+00
         21   -1    0    0  503  502  0.00000000000E+00  0.00000000000E+00  0.26559938286E+03  0.26559938286E+03  0.00000000000E+00 0.  1.
         21   -1    0    0  501  503 -0.00000000000E+00 -0.00000000000E+00 -0.40613275702E+03  0.40613275702E+03  0.00000000000E+00 0. -1.
          6    1    1    2  501    0 -0.87801606354E+02 -0.22359892305E+03  0.75198665242E+02  0.30543320010E+03  0.17300000000E+03 0.  1.
         -6    1    1    2    0  502  0.87801606354E+02  0.22359892305E+03 -0.21573203940E+03  0.36629893979E+03  0.17300000000E+03 0. -1.
<mgrwt>
<rscale>  2 0.29603142E+03</rscale>
<asrwt>0</asrwt>
<pdfrwt beam="1">  1       21 0.40861444E-01 0.29603142E+03</pdfrwt>
<pdfrwt beam="2">  1       21 0.62481962E-01 0.29603142E+03</pdfrwt>
<totfact> 0.12954280E+04</totfact>
</mgrwt>
</event>
<event>
 4    2  0.3972096E+000  0.1865670E+03  0.7546771E-02  0.1161595E+00
         21   -1    0    0  503  502  0.00000000000E+00  0.00000000000E+00  0.99746004599E+02  0.99746004599E+02  0.00000000000E+00 0. -1.
         21   -1    0    0  501  503 -0.00000000000E+00 -0.00000000000E+00 -0.10080881434E+04  0.10080881434E+04  0.00000000000E+00 0. -1.
          6    1    1    2  501    0  0.47001722332E+02 -0.51663311588E+02 -0.90207077482E+03  0.92116173523E+03  0.17300000000E+03 0. -1.
         -6    1    1    2    0  502 -0.47001722332E+02  0.51663311588E+02 -0.62713639358E+01  0.18667241272E+03  0.17300000000E+03 0. -1.
<mgrwt>
<rscale>  2 0.18656704E+03</rscale>
<asrwt>0</asrwt>
<pdfrwt beam="1">  1       21 0.15345541E-01 0.18656704E+03</pdfrwt>
<pdfrwt beam="2">  1       21 0.15509047E+00 0.18656704E+03</pdfrwt>
<totfact> 0.10346366E+04</totfact>
</mgrwt>
</event>
<event>
 4    2  0.3972096E+000  0.2361429E+03  0.7546771E-02  0.1122389E+00
         21   -1    0    0  501  502  0.00000000000E+00  0.00000000000E+00  0.89945858451E+03  0.89945858451E+03  0.00000000000E+00 0.  1.
         21   -1    0    0  502  503 -0.00000000000E+00 -0.00000000000E+00 -0.78070699229E+02  0.78070699229E+02  0.00000000000E+00 0.  1.
          6    1    1    2  501    0 -0.14336725569E+03  0.72665688999E+02  0.63247149831E+03  0.67511752202E+03  0.17300000000E+03 0.  1.
         -6    1    1    2    0  503  0.14336725569E+03 -0.72665688999E+02  0.18891638697E+03  0.30241176172E+03  0.17300000000E+03 0.  1.
<mgrwt>
<rscale>  2 0.23614291E+03</rscale>
<asrwt>0</asrwt>
<pdfrwt beam="1">  1       21 0.13837824E+00 0.23614291E+03</pdfrwt>
<pdfrwt beam="2">  1       21 0.12010877E-01 0.23614291E+03</pdfrwt>
<totfact> 0.21037059E+04</totfact>
</mgrwt>
</event>
<event>
 4    2  0.3972096E+000  0.2483051E+03  0.7546771E-02  0.1114381E+00
         21   -1    0    0  501  502  0.00000000000E+00  0.00000000000E+00  0.11342675943E+04  0.11342675943E+04  0.00000000000E+00 0.  1.
         21   -1    0    0  502  503 -0.00000000000E+00 -0.00000000000E+00 -0.61284482933E+02  0.61284482933E+02  0.00000000000E+00 0. -1.
          6    1    1    2  501    0  0.16827305116E+03 -0.58400174590E+02  0.73747047906E+03  0.77815044023E+03  0.17300000000E+03 0.  1.
         -6    1    1    2    0  503 -0.16827305116E+03  0.58400174590E+02  0.33551263231E+03  0.41740163701E+03  0.17300000000E+03 0. -1.
<mgrwt>
<rscale>  2 0.24830505E+03</rscale>
<asrwt>0</asrwt>
<pdfrwt beam="1">  1       21 0.17450269E+00 0.24830505E+03</pdfrwt>
<pdfrwt beam="2">  1       21 0.94283828E-02 0.24830505E+03</pdfrwt>
<totfact> 0.17221167E+04</totfact>
</mgrwt>
</event>
<event>
 4    2  0.3972096E+000  0.2115818E+03  0.7546771E-02  0.1140319E+00
         21   -1    0    0  501  502  0.00000000000E+00  0.00000000000E+00  0.44771960808E+04  0.44771960808E+04  0.00000000000E+00 0. -1.
         21   -1    0    0  502  503 -0.00000000000E+00 -0.00000000000E+00 -0.10085602224E+02  0.10085602224E+02  0.00000000000E+00 0.  1.
          6    1    1    2  501    0  0.12028670970E+03  0.19208166327E+02  0.24416320264E+04  0.24507822830E+04  0.17300000000E+03 0. -1.
         -6    1    1    2    0  503 -0.12028670970E+03 -0.19208166327E+02  0.20254784522E+04  0.20364994000E+04  0.17300000000E+03 0.  1.
<mgrwt>
<rscale>  2 0.21158177E+03</rscale>
<asrwt>0</asrwt>
<pdfrwt beam="1">  1       21 0.68879781E+00 0.21158177E+03</pdfrwt>
<pdfrwt beam="2">  1       21 0.15516347E-02 0.21158177E+03</pdfrwt>
<totfact> 0.11260078E+02</totfact>
</mgrwt>
</event>
<event>
 4    2  0.3972096E+000  0.2396781E+03  0.7546771E-02  0.1120007E+00
         21   -1    0    0  501  502  0.00000000000E+00  0.00000000000E+00  0.99289857820E+02  0.99289857820E+02  0.00000000000E+00 0.  1.
         21   -1    0    0  502  503 -0.00000000000E+00 -0.00000000000E+00 -0.79375067546E+03  0.79375067546E+03  0.00000000000E+00 0.  1.
          6    1    1    2  501    0 -0.13741024671E+03 -0.92924678481E+02 -0.11473924095E+03  0.26572667383E+03  0.17300000000E+03 0.  1.
         -6    1    1    2    0  503  0.13741024671E+03  0.92924678481E+02 -0.57972157670E+03  0.62731385945E+03  0.17300000000E+03 0.  1.
<mgrwt>
<rscale>  2 0.23967806E+03</rscale>
<asrwt>0</asrwt>
<pdfrwt beam="1">  1       21 0.15275362E-01 0.23967806E+03</pdfrwt>
<pdfrwt beam="2">  1       21 0.12211549E+00 0.23967806E+03</pdfrwt>
<totfact> 0.18653266E+04</totfact>
</mgrwt>
</event>
<event>
 4    2  0.3972096E+000  0.2792432E+03  0.7546771E-02  0.1096103E+00
         21   -1    0    0  503  502  0.00000000000E+00  0.00000000000E+00  0.27695329834E+03  0.27695329834E+03  0.00000000000E+00 0. -1.
         21   -1    0    0  501  503 -0.00000000000E+00 -0.00000000000E+00 -0.39239896263E+03  0.39239896263E+03  0.00000000000E+00 0.  1.
          6    1    1    2  501    0 -0.13535789482E+03  0.17241237107E+03 -0.23560093868E+03  0.36535542653E+03  0.17300000000E+03 0.  1.
         -6    1    1    2    0  502  0.13535789482E+03 -0.17241237107E+03  0.12015527438E+03  0.30399683444E+03  0.17300000000E+03 0. -1.
<mgrwt>
<rscale>  2 0.27924324E+03</rscale>
<asrwt>0</asrwt>
<pdfrwt beam="1">  1       21 0.42608200E-01 0.27924324E+03</pdfrwt>
<pdfrwt beam="2">  1       21 0.60369071E-01 0.27924324E+03</pdfrwt>
<totfact> 0.12909725E+04</totfact>
</mgrwt>
</event>
<event>
 4    2  0.3972096E+000  0.1832742E+03  0.7546771E-02  0.1164671E+00
         21   -1    0    0  501  502  0.00000000000E+00  0.00000000000E+00  0.40728335334E+02  0.40728335334E+02  0.00000000000E+00 0.  1.
         21   -1    0    0  502  503 -0.00000000000E+00 -0.00000000000E+00 -0.12243281069E+04  0.12243281069E+04  0.00000000000E+00 0.  1.
          6    1    1    2  501    0  0.44466319103E+02 -0.41026521901E+02 -0.23043269049E+03  0.29442936994E+03  0.17300000000E+03 0.  1.
         -6    1    1    2    0  503 -0.44466319103E+02  0.41026521901E+02 -0.95316708107E+03  0.97062707229E+03  0.17300000000E+03 0.  1.
<mgrwt>
<rscale>  2 0.18327419E+03</rscale>
<asrwt>0</asrwt>
<pdfrwt beam="1">  1       21 0.62658991E-02 0.18327419E+03</pdfrwt>
<pdfrwt beam="2">  1       21 0.18835813E+00 0.18327419E+03</pdfrwt>
<totfact> 0.29464344E+04</totfact>
</mgrwt>
</event>
<event>
 4    2  0.3972096E+000  0.1777183E+03  0.7546771E-02  0.1170030E+00
         21   -1    0    0  503  502  0.00000000000E+00  0.00000000000E+00  0.82347220930E+02  0.82347220930E+02  0.00000000000E+00 0. -1.
         21   -1    0    0  501  503 -0.00000000000E+00 -0.00000000000E+00 -0.42409365338E+03  0.42409365338E+03  0.00000000000E+00 0. -1.
          6    1    1    2  501    0  0.20175793420E+02 -0.35323336836E+02 -0.24917294418E+03  0.30605711375E+03  0.17300000000E+03 0. -1.
         -6    1    1    2    0  502 -0.20175793420E+02  0.35323336836E+02 -0.92573488269E+02  0.20038376056E+03  0.17300000000E+03 0. -1.
<mgrwt>
<rscale>  2 0.17771832E+03</rscale>
<asrwt>0</asrwt>
<pdfrwt beam="1">  1       21 0.12668803E-01 0.17771832E+03</pdfrwt>
<pdfrwt beam="2">  1       21 0.65245176E-01 0.17771832E+03</pdfrwt>
<totfact> 0.11573462E+05</totfact>
</mgrwt>
</event>
<event>
 4    2  0.3972096E+000  0.2337714E+03  0.7546771E-02  0.1124013E+00
         21   -1    0    0  503  502  0.00000000000E+00  0.00000000000E+00  0.93115338882E+03  0.93115338882E+03  0.00000000000E+00 0. -1.
         21   -1    0    0  501  503 -0.00000000000E+00 -0.00000000000E+00 -0.17315600576E+03  0.17315600576E+03  0.00000000000E+00 0.  1.
          6    1    1    2  501    0 -0.10627044939E+03  0.11587355539E+03 -0.69933629173E+02  0.24400779033E+03  0.17300000000E+03 0.  1.
         -6    1    1    2    0  502  0.10627044939E+03 -0.11587355539E+03  0.82793101224E+03  0.86030160425E+03  0.17300000000E+03 0. -1.
<mgrwt>
<rscale>  2 0.23377145E+03</rscale>
<asrwt>0</asrwt>
<pdfrwt beam="1">  1       21 0.14325436E+00 0.23377145E+03</pdfrwt>
<pdfrwt beam="2">  1       21 0.26639386E-01 0.23377145E+03</pdfrwt>
<totfact> 0.43762184E+03</totfact>
</mgrwt>
</event>
<event>
 4    2  0.3972096E+000  0.1736099E+03  0.7546771E-02  0.1174135E+00
         21   -1    0    0  503  502  0.00000000000E+00  0.00000000000E+00  0.95674568403E+02  0.95674568403E+02  0.00000000000E+00 0. -1.
         21   -1    0    0  501  503 -0.00000000000E+00 -0.00000000000E+00 -0.31724396073E+03  0.31724396073E+03  0.00000000000E+00 0. -1.
          6    1    1    2  501    0 -0.62263526172E+01 -0.13138560790E+02 -0.93538555133E+02  0.19720509766E+03  0.17300000000E+03 0. -1.
         -6    1    1    2    0  502  0.62263526172E+01  0.13138560790E+02 -0.12803083720E+03  0.21571343148E+03  0.17300000000E+03 0. -1.
<mgrwt>
<rscale>  2 0.17360988E+03</rscale>
<asrwt>0</asrwt>
<pdfrwt beam="1">  1       21 0.14719165E-01 0.17360988E+03</pdfrwt>
<pdfrwt beam="2">  1       21 0.48806763E-01 0.17360988E+03</pdfrwt>
<totfact> 0.16366974E+05</totfact>
</mgrwt>
</event>
<event>
 4    2  0.3972096E+000  0.1787412E+03  0.7546771E-02  0.1169027E+00
         21   -1    0    0  503  502  0.00000000000E+00  0.00000000000E+00  0.18664066010E+03  0.18664066010E+03  0.00000000000E+00 0.  1.
         21   -1    0    0  501  503 -0.00000000000E+00 -0.00000000000E+00 -0.32006673921E+03  0.32006673921E+03  0.00000000000E+00 0.  1.
          6    1    1    2  501    0  0.23508040598E+02  0.38298727586E+02 -0.23951182016E+03  0.29885503593E+03  0.17300000000E+03 0.  1.
         -6    1    1    2    0  502 -0.23508040598E+02 -0.38298727586E+02  0.10608574105E+03  0.20785236338E+03  0.17300000000E+03 0.  1.
<mgrwt>
<rscale>  2 0.17874121E+03</rscale>
<asrwt>0</asrwt>
<pdfrwt beam="1">  1       21 0.28713948E-01 0.17874121E+03</pdfrwt>
<pdfrwt beam="2">  1       21 0.49241037E-01 0.17874121E+03</pdfrwt>
<totfact> 0.45954424E+04</totfact>
</mgrwt>
</event>
<event>
 4    2  0.3972096E+000  0.2109473E+03  0.7546771E-02  0.1140818E+00
         21   -1    0    0  501  502  0.00000000000E+00  0.00000000000E+00  0.23085096564E+03  0.23085096564E+03  0.00000000000E+00 0.  1.
         21   -1    0    0  502  503 -0.00000000000E+00 -0.00000000000E+00 -0.45241592018E+03  0.45241592018E+03  0.00000000000E+00 0.  1.
          6    1    1    2  501    0  0.29413817786E+02 -0.11706652164E+03  0.14803337619E+03  0.25770646797E+03  0.17300000000E+03 0.  1.
         -6    1    1    2    0  503 -0.29413817786E+02  0.11706652164E+03 -0.36959833072E+03  0.42556041785E+03  0.17300000000E+03 0.  1.
<mgrwt>
<rscale>  2 0.21094725E+03</rscale>
<asrwt>0</asrwt>
<pdfrwt beam="1">  1       21 0.35515533E-01 0.21094725E+03</pdfrwt>
<pdfrwt beam="2">  1       21 0.69602449E-01 0.21094725E+03</pdfrwt>
<totfact> 0.14176093E+04</totfact>
</mgrwt>
</event>
<event>
 4    2  0.3972096E+000  0.2237363E+03  0.7546771E-02  0.1131128E+00
         21   -1    0    0  501  502  0.00000000000E+00  0.00000000000E+00  0.82520334837E+03  0.82520334837E+03  0.00000000000E+00 0.  1.
         21   -1    0    0  502  503 -0.00000000000E+00 -0.00000000000E+00 -0.60984314711E+02  0.60984314711E+02  0.00000000000E+00 0. -1.
          6    1    1    2  501    0  0.10483090402E+03  0.95600198933E+02  0.41435662512E+03  0.47090267493E+03  0.17300000000E+03 0.  1.
         -6    1    1    2    0  503 -0.10483090402E+03 -0.95600198933E+02  0.34986240853E+03  0.41528498815E+03  0.17300000000E+03 0.  1.
<mgrwt>
<rscale>  2 0.22373627E+03</rscale>
<asrwt>0</asrwt>
<pdfrwt beam="1">  1       21 0.12695435E+00 0.22373627E+03</pdfrwt>
<pdfrwt beam="2">  1       21 0.93822028E-02 0.22373627E+03</pdfrwt>
<totfact> 0.40966298E+04</totfact>
</mgrwt>
</event>
<event>
 4    2  0.3972096E+000  0.1980545E+03  0.7546771E-02  0.1151391E+00
         21   -1    0    0  503  502  0.00000000000E+00  0.00000000000E+00  0.26549751984E+03  0.26549751984E+03  0.00000000000E+00 0. -1.
         21   -1    0    0  501  503 -0.00000000000E+00 -0.00000000000E+00 -0.27386571671E+03  0.27386571671E+03  0.00000000000E+00 0. -1.
          6    1    1    2  501    0 -0.96412591292E+02 -0.10948510396E+01 -0.18719542148E+03  0.27252103090E+03  0.17300000000E+03 0. -1.
         -6    1    1    2    0  502  0.96412591292E+02  0.10948510396E+01  0.17882722460E+03  0.26684220565E+03  0.17300000000E+03 0. -1.
<mgrwt>
<rscale>  2 0.19805450E+03</rscale>
<asrwt>0</asrwt>
<pdfrwt beam="1">  1       21 0.40845773E-01 0.19805450E+03</pdfrwt>
<pdfrwt beam="2">  1       21 0.42133187E-01 0.19805450E+03</pdfrwt>
<totfact> 0.31209072E+04</totfact>
</mgrwt>
</event>
<event>
 4    2  0.3972096E+000  0.2148606E+03  0.7546771E-02  0.1137774E+00
         21   -1    0    0  501  502  0.00000000000E+00  0.00000000000E+00  0.30010425107E+03  0.30010425107E+03  0.00000000000E+00 0. -1.
         21   -1    0    0  502  503 -0.00000000000E+00 -0.00000000000E+00 -0.17032939643E+03  0.17032939643E+03  0.00000000000E+00 0. -1.
          6    1    1    2  501    0  0.12465969060E+03 -0.26382670759E+02  0.13809492327E+03  0.25541200366E+03  0.17300000000E+03 0. -1.
         -6    1    1    2    0  503 -0.12465969060E+03  0.26382670759E+02 -0.83200686410E+01  0.21502164384E+03  0.17300000000E+03 0. -1.
<mgrwt>
<rscale>  2 0.21486061E+03</rscale>
<asrwt>0</asrwt>
<pdfrwt beam="1">  1       21 0.46169885E-01 0.21486061E+03</pdfrwt>
<pdfrwt beam="2">  1       21 0.26204523E-01 0.21486061E+03</pdfrwt>
<totfact> 0.61595766E+04</totfact>
</mgrwt>
</event>
<event>
 4    2  0.3972096E+000  0.2140074E+03  0.7546771E-02  0.1138431E+00
         21   -1    0    0  501  502  0.00000000000E+00  0.00000000000E+00  0.69052839082E+03  0.69052839082E+03  0.00000000000E+00 0.  1.
         21   -1    0    0  502  503 -0.00000000000E+00 -0.00000000000E+00 -0.76528101756E+02  0.76528101756E+02  0.00000000000E+00 0. -1.
          6    1    1    2  501    0  0.10869581768E+03 -0.63681832826E+02  0.44704181233E+03  0.49562641029E+03  0.17300000000E+03 0.  1.
         -6    1    1    2    0  503 -0.10869581768E+03  0.63681832826E+02  0.16695847674E+03  0.27143008229E+03  0.17300000000E+03 0. -1.
<mgrwt>
<rscale>  2 0.21400738E+03</rscale>
<asrwt>0</asrwt>
<pdfrwt beam="1">  1       21 0.10623513E+00 0.21400738E+03</pdfrwt>
<pdfrwt beam="2">  1       21 0.11773555E-01 0.21400738E+03</pdfrwt>
<totfact> 0.42646418E+04</totfact>
</mgrwt>
</event>
<event>
 4    2  0.3972096E+000  0.2366623E+03  0.7546771E-02  0.1122036E+00
         21   -1    0    0  503  502  0.00000000000E+00  0.00000000000E+00  0.15318375000E+04  0.15318375000E+04  0.00000000000E+00 0.  1.
         21   -1    0    0  501  503 -0.00000000000E+00 -0.00000000000E+00 -0.39070091506E+02  0.39070091506E+02  0.00000000000E+00 0. -1.
          6    1    1    2  501    0  0.49237304668E+02  0.15380421018E+03  0.54742781881E+03  0.59639438633E+03  0.17300000000E+03 0. -1.
         -6    1    1    2    0  502 -0.49237304668E+02 -0.15380421018E+03  0.94533958973E+03  0.97451320522E+03  0.17300000000E+03 0. -1.
<mgrwt>
<rscale>  2 0.23666231E+03</rscale>
<asrwt>0</asrwt>
<pdfrwt beam="1">  1       21 0.23566726E+00 0.23666231E+03</pdfrwt>
<pdfrwt beam="2">  1       21 0.60107845E-02 0.23666231E+03</pdfrwt>
<totfact> 0.15340848E+04</totfact>
</mgrwt>
</event>
<event>
 4    2  0.3972096E+000  0.1857441E+03  0.7546771E-02  0.1162357E+00
         21   -1    0    0  503  502  0.00000000000E+00  0.00000000000E+00  0.85768120939E+02  0.85768120939E+02  0.00000000000E+00 0.  1.
         21   -1    0    0  501  503 -0.00000000000E+00 -0.00000000000E+00 -0.42611384299E+03  0.42611384299E+03  0.00000000000E+00 0.  1.
          6    1    1    2  501    0  0.49649995268E+02  0.45899199306E+02 -0.23073206435E+03  0.29620625254E+03  0.17300000000E+03 0.  1.
         -6    1    1    2    0  502 -0.49649995268E+02 -0.45899199306E+02 -0.10961365770E+03  0.21567571139E+03  0.17300000000E+03 0.  1.
<mgrwt>
<rscale>  2 0.18574407E+03</rscale>
<asrwt>0</asrwt>
<pdfrwt beam="1">  1       21 0.13195095E-01 0.18574407E+03</pdfrwt>
<pdfrwt beam="2">  1       21 0.65555976E-01 0.18574407E+03</pdfrwt>
<totfact> 0.10614530E+05</totfact>
</mgrwt>
</event>
<event>
 4    2  0.3972096E+000  0.2151087E+03  0.7546771E-02  0.1137583E+00
         21   -1    0    0  501  502  0.00000000000E+00  0.00000000000E+00  0.48996180860E+03  0.48996180860E+03  0.00000000000E+00 0. -1.
         21   -1    0    0  502  503 -0.00000000000E+00 -0.00000000000E+00 -0.31399085815E+03  0.31399085815E+03  0.00000000000E+00 0. -1.
          6    1    1    2  501    0  0.36096311518E+02 -0.12263694876E+03  0.42411759390E+03  0.47554968022E+03  0.17300000000E+03 0. -1.
         -6    1    1    2    0  503 -0.36096311518E+02  0.12263694876E+03 -0.24814664345E+03  0.32840298653E+03  0.17300000000E+03 0. -1.
<mgrwt>
<rscale>  2 0.21510873E+03</rscale>
<asrwt>0</asrwt>
<pdfrwt beam="1">  1       21 0.75378739E-01 0.21510873E+03</pdfrwt>
<pdfrwt beam="2">  1       21 0.48306286E-01 0.21510873E+03</pdfrwt>
<totfact> 0.63306819E+03</totfact>
</mgrwt>
</event>
<event>
 4    2  0.3972096E+000  0.1885804E+03  0.7546771E-02  0.1159748E+00
         21   -1    0    0  501  502  0.00000000000E+00  0.00000000000E+00  0.49994777981E+02  0.49994777981E+02  0.00000000000E+00 0.  1.
         21   -1    0    0  502  503 -0.00000000000E+00 -0.00000000000E+00 -0.94824450034E+03  0.94824450034E+03  0.00000000000E+00 0.  1.
          6    1    1    2  501    0  0.14599753100E+00  0.75056871308E+02 -0.19963980709E+03  0.27462448511E+03  0.17300000000E+03 0.  1.
         -6    1    1    2    0  503 -0.14599753100E+00 -0.75056871308E+02 -0.69860991526E+03  0.72361479321E+03  0.17300000000E+03 0.  1.
<mgrwt>
<rscale>  2 0.18858037E+03</rscale>
<asrwt>0</asrwt>
<pdfrwt beam="1">  1       21 0.76915039E-02 0.18858037E+03</pdfrwt>
<pdfrwt beam="2">  1       21 0.14588378E+00 0.18858037E+03</pdfrwt>
<totfact> 0.41411215E+04</totfact>
</mgrwt>
</event>
<event>
 4    2  0.3972096E+000  0.2068285E+03  0.7546771E-02  0.1144102E+00
         21   -1    0    0  503  502  0.00000000000E+00  0.00000000000E+00  0.55829471097E+03  0.55829471097E+03  0.00000000000E+00 0. -1.
         21   -1    0    0  501  503 -0.00000000000E+00 -0.00000000000E+00 -0.16153374070E+03  0.16153374070E+03  0.00000000000E+00 0. -1.
          6    1    1    2  501    0  0.60040923720E+02  0.96146376172E+02 -0.62564836610E+02  0.21608423578E+03  0.17300000000E+03 0. -1.
         -6    1    1    2    0  502 -0.60040923720E+02 -0.96146376172E+02  0.45932580688E+03  0.50374421589E+03  0.17300000000E+03 0. -1.
<mgrwt>
<rscale>  2 0.20682852E+03</rscale>
<asrwt>0</asrwt>
<pdfrwt beam="1">  1       21 0.85891493E-01 0.20682852E+03</pdfrwt>
<pdfrwt beam="2">  1       21 0.24851345E-01 0.20682852E+03</pdfrwt>
<totfact> 0.17766386E+04</totfact>
</mgrwt>
</event>
<event>
 4    2  0.3972096E+000  0.2326604E+03  0.7546771E-02  0.1124781E+00
         21   -1    0    0  503  502  0.00000000000E+00  0.00000000000E+00  0.18038111754E+03  0.18038111754E+03  0.00000000000E+00 0.  1.
         21   -1    0    0  501  503 -0.00000000000E+00 -0.00000000000E+00 -0.45671277353E+03  0.45671277353E+03  0.00000000000E+00 0. -1.
          6    1    1    2  501    0  0.13068007619E+03  0.84407295119E+02 -0.32470798010E+03  0.39945731452E+03  0.17300000000E+03 0. -1.
         -6    1    1    2    0  502 -0.13068007619E+03 -0.84407295119E+02  0.48376324111E+02  0.23763657656E+03  0.17300000000E+03 0.  1.
<mgrwt>
<rscale>  2 0.23266043E+03</rscale>
<asrwt>0</asrwt>
<pdfrwt beam="1">  1       21 0.27750941E-01 0.23266043E+03</pdfrwt>
<pdfrwt beam="2">  1       21 0.70263504E-01 0.23266043E+03</pdfrwt>
<totfact> 0.22274897E+04</totfact>
</mgrwt>
</event>
<event>
 4    2  0.3972096E+000  0.1742228E+03  0.7546771E-02  0.1173514E+00
         21   -1    0    0  503  502  0.00000000000E+00  0.00000000000E+00  0.14120213466E+03  0.14120213466E+03  0.00000000000E+00 0. -1.
         21   -1    0    0  501  503 -0.00000000000E+00 -0.00000000000E+00 -0.32126218114E+03  0.32126218114E+03  0.00000000000E+00 0. -1.
          6    1    1    2  501    0 -0.18360804425E+01 -0.20523592673E+02 -0.22303817542E+03  0.28301875688E+03  0.17300000000E+03 0. -1.
         -6    1    1    2    0  502  0.18360804425E+01  0.20523592673E+02  0.42978128945E+02  0.17944555892E+03  0.17300000000E+03 0. -1.
<mgrwt>
<rscale>  2 0.17422281E+03</rscale>
<asrwt>0</asrwt>
<pdfrwt beam="1">  1       21 0.21723406E-01 0.17422281E+03</pdfrwt>
<pdfrwt beam="2">  1       21 0.49424950E-01 0.17422281E+03</pdfrwt>
<totfact> 0.77760036E+04</totfact>
</mgrwt>
</event>
<event>
 4    2  0.3972096E+000  0.2013025E+03  0.7546771E-02  0.1148645E+00
         21   -1    0    0  503  502  0.00000000000E+00  0.00000000000E+00  0.11075947374E+03  0.11075947374E+03  0.00000000000E+00 0.  1.
         21   -1    0    0  501  503 -0.00000000000E+00 -0.00000000000E+00 -0.79582097456E+03  0.79582097456E+03  0.00000000000E+00 0. -1.
          6    1    1    2  501    0  0.31648884378E+02  0.97939032747E+02 -0.67571316003E+03  0.70506097655E+03  0.17300000000E+03 0. -1.
         -6    1    1    2    0  502 -0.31648884378E+02 -0.97939032747E+02 -0.93483407897E+01  0.20151947175E+03  0.17300000000E+03 0.  1.
<mgrwt>
<rscale>  2 0.20130252E+03</rscale>
<asrwt>0</asrwt>
<pdfrwt beam="1">  1       21 0.17039919E-01 0.20130252E+03</pdfrwt>
<pdfrwt beam="2">  1       21 0.12243400E+00 0.20130252E+03</pdfrwt>
<totfact> 0.15514897E+04</totfact>
</mgrwt>
</event>
<event>
 4    2  0.3972096E+000  0.2073928E+03  0.7546771E-02  0.1143647E+00
         21   -1    0    0  501  502  0.00000000000E+00  0.00000000000E+00  0.22305668009E+03  0.22305668009E+03  0.00000000000E+00 0. -1.
         21   -1    0    0  502  503 -0.00000000000E+00 -0.00000000000E+00 -0.10030489607E+04  0.10030489607E+04  0.00000000000E+00 0. -1.
          6    1    1    2  501    0  0.50617453403E+02  0.10257021417E+03  0.16098701682E+03  0.26254255847E+03  0.17300000000E+03 0. -1.
         -6    1    1    2    0  503 -0.50617453403E+02 -0.10257021417E+03 -0.94097929745E+03  0.96356308234E+03  0.17300000000E+03 0. -1.
<mgrwt>
<rscale>  2 0.20739280E+03</rscale>
<asrwt>0</asrwt>
<pdfrwt beam="1">  1       21 0.34316412E-01 0.20739280E+03</pdfrwt>
<pdfrwt beam="2">  1       21 0.15431523E+00 0.20739280E+03</pdfrwt>
<totfact> 0.22383315E+03</totfact>
</mgrwt>
</event>
<event>
 4    2  0.3972096E+000  0.2949031E+03  0.7546771E-02  0.1087817E+00
         21   -1    0    0  501  502  0.00000000000E+00  0.00000000000E+00  0.81479661730E+03  0.81479661730E+03  0.00000000000E+00 0.  1.
         21   -1    0    0  502  503 -0.00000000000E+00 -0.00000000000E+00 -0.21176260860E+03  0.21176260860E+03  0.00000000000E+00 0.  1.
          6    1    1    2  501    0 -0.20877939209E+03  0.11597414624E+03  0.66299327597E+03  0.72562243704E+03  0.17300000000E+03 0.  1.
         -6    1    1    2    0  503  0.20877939209E+03 -0.11597414624E+03 -0.59959267265E+02  0.30093678886E+03  0.17300000000E+03 0.  1.
<mgrwt>
<rscale>  2 0.29490310E+03</rscale>
<asrwt>0</asrwt>
<pdfrwt beam="1">  1       21 0.12535332E+00 0.29490310E+03</pdfrwt>
<pdfrwt beam="2">  1       21 0.32578863E-01 0.29490310E+03</pdfrwt>
<totfact> 0.40028895E+03</totfact>
</mgrwt>
</event>
<event>
 4    2  0.3972096E+000  0.2021832E+03  0.7546771E-02  0.1147910E+00
         21   -1    0    0  501  502  0.00000000000E+00  0.00000000000E+00  0.20219155474E+03  0.20219155474E+03  0.00000000000E+00 0.  1.
         21   -1    0    0  502  503 -0.00000000000E+00 -0.00000000000E+00 -0.50105300072E+03  0.50105300072E+03  0.00000000000E+00 0. -1.
          6    1    1    2  501    0 -0.87338390556E+02  0.57628650636E+02  0.12213915803E+03  0.23621183240E+03  0.17300000000E+03 0.  1.
         -6    1    1    2    0  503  0.87338390556E+02 -0.57628650636E+02 -0.42100060401E+03  0.46703272306E+03  0.17300000000E+03 0. -1.
<mgrwt>
<rscale>  2 0.20218322E+03</rscale>
<asrwt>0</asrwt>
<pdfrwt beam="1">  1       21 0.31106393E-01 0.20218322E+03</pdfrwt>
<pdfrwt beam="2">  1       21 0.77085077E-01 0.20218322E+03</pdfrwt>
<totfact> 0.14754689E+04</totfact>
</mgrwt>
</event>
<event>
 4    2  0.3972096E+000  0.1838191E+03  0.7546771E-02  0.1164157E+00
         21   -1    0    0  501  502  0.00000000000E+00  0.00000000000E+00  0.93005698173E+03  0.93005698173E+03  0.00000000000E+00 0.  1.
         21   -1    0    0  502  503 -0.00000000000E+00 -0.00000000000E+00 -0.22569448592E+03  0.22569448592E+03  0.00000000000E+00 0. -1.
          6    1    1    2  501    0  0.16457024953E-01  0.62132715776E+02  0.88150651847E+03  0.90046833189E+03  0.17300000000E+03 0.  1.
         -6    1    1    2    0  503 -0.16457024953E-01 -0.62132715776E+02 -0.17714402265E+03  0.25528313576E+03  0.17300000000E+03 0. -1.
<mgrwt>
<rscale>  2 0.18381914E+03</rscale>
<asrwt>0</asrwt>
<pdfrwt beam="1">  1       21 0.14308569E+00 0.18381914E+03</pdfrwt>
<pdfrwt beam="2">  1       21 0.34722229E-01 0.18381914E+03</pdfrwt>
<totfact> 0.27257736E+03</totfact>
</mgrwt>
</event>
<event>
 4    2  0.3972096E+000  0.1831406E+03  0.7546771E-02  0.1164798E+00
         21   -1    0    0  503  502  0.00000000000E+00  0.00000000000E+00  0.33994335295E+02  0.33994335295E+02  0.00000000000E+00 0. -1.
         21   -1    0    0  501  503 -0.00000000000E+00 -0.00000000000E+00 -0.11347245834E+04  0.11347245834E+04  0.00000000000E+00 0. -1.
          6    1    1    2  501    0 -0.42765022023E+02  0.42221428719E+02 -0.76145905306E+03  0.78317327945E+03  0.17300000000E+03 0. -1.
         -6    1    1    2    0  502  0.42765022023E+02 -0.42221428719E+02 -0.33927119500E+03  0.38554563920E+03  0.17300000000E+03 0. -1.
<mgrwt>
<rscale>  2 0.18314065E+03</rscale>
<asrwt>0</asrwt>
<pdfrwt beam="1">  1       21 0.52298981E-02 0.18314065E+03</pdfrwt>
<pdfrwt beam="2">  1       21 0.17457300E+00 0.18314065E+03</pdfrwt>
<totfact> 0.49699276E+04</totfact>
</mgrwt>
</event>
<event>
 4    2  0.3972096E+000  0.2020996E+03  0.7546771E-02  0.1147980E+00
         21   -1    0    0  503  502  0.00000000000E+00  0.00000000000E+00  0.34425053691E+03  0.34425053691E+03  0.00000000000E+00 0.  1.
         21   -1    0    0  501  503 -0.00000000000E+00 -0.00000000000E+00 -0.12653606998E+03  0.12653606998E+03  0.00000000000E+00 0. -1.
          6    1    1    2  501    0  0.63980135167E+02  0.82594122274E+02  0.50080753561E+02  0.20821222012E+03  0.17300000000E+03 0. -1.
         -6    1    1    2    0  502 -0.63980135167E+02 -0.82594122274E+02  0.16763371337E+03  0.26257438677E+03  0.17300000000E+03 0.  1.
<mgrwt>
<rscale>  2 0.20209960E+03</rscale>
<asrwt>0</asrwt>
<pdfrwt beam="1">  1       21 0.52961620E-01 0.20209960E+03</pdfrwt>
<pdfrwt beam="2">  1       21 0.19467088E-01 0.20209960E+03</pdfrwt>
<totfact> 0.81666830E+04</totfact>
</mgrwt>
</event>
<event>
 4    2  0.3972096E+000  0.2885761E+03  0.7546771E-02  0.1091095E+00
         21   -1    0    0  501  502  0.00000000000E+00  0.00000000000E+00  0.19943142653E+04  0.19943142653E+04  0.00000000000E+00 0. -1.
         21   -1    0    0  502  503 -0.00000000000E+00 -0.00000000000E+00 -0.41776903754E+02  0.41776903754E+02  0.00000000000E+00 0. -1.
          6    1    1    2  501    0 -0.16446842548E+03  0.16216451099E+03  0.95393886308E+03  0.99663210168E+03  0.17300000000E+03 0. -1.
         -6    1    1    2    0  503  0.16446842548E+03 -0.16216451099E+03  0.99859849844E+03  0.10394590673E+04  0.17300000000E+03 0. -1.
<mgrwt>
<rscale>  2 0.28857615E+03</rscale>
<asrwt>0</asrwt>
<pdfrwt beam="1">  1       21 0.30681751E+00 0.28857615E+03</pdfrwt>
<pdfrwt beam="2">  1       21 0.64272175E-02 0.28857615E+03</pdfrwt>
<totfact> 0.49862660E+03</totfact>
</mgrwt>
</event>
<event>
 4    2  0.3972096E+000  0.2049157E+03  0.7546771E-02  0.1145657E+00
         21   -1    0    0  503  502  0.00000000000E+00  0.00000000000E+00  0.49338387891E+02  0.49338387891E+02  0.00000000000E+00 0. -1.
         21   -1    0    0  501  503 -0.00000000000E+00 -0.00000000000E+00 -0.11663305254E+04  0.11663305254E+04  0.00000000000E+00 0. -1.
          6    1    1    2  501    0  0.42207809959E+01 -0.10974339461E+03 -0.87451216941E+03  0.89819928863E+03  0.17300000000E+03 0. -1.
         -6    1    1    2    0  502 -0.42207809959E+01  0.10974339461E+03 -0.24247996811E+03  0.31746962467E+03  0.17300000000E+03 0. -1.
<mgrwt>
<rscale>  2 0.20491566E+03</rscale>
<asrwt>0</asrwt>
<pdfrwt beam="1">  1       21 0.75905217E-02 0.20491566E+03</pdfrwt>
<pdfrwt beam="2">  1       21 0.17943545E+00 0.20491566E+03</pdfrwt>
<totfact> 0.23930944E+04</totfact>
</mgrwt>
</event>
<event>
 4    2  0.3972096E+000  0.1817873E+03  0.7546771E-02  0.1166084E+00
         21   -1    0    0  501  502  0.00000000000E+00  0.00000000000E+00  0.25758515143E+03  0.25758515143E+03  0.00000000000E+00 0.  1.
         21   -1    0    0  502  503 -0.00000000000E+00 -0.00000000000E+00 -0.12953824198E+03  0.12953824198E+03  0.00000000000E+00 0.  1.
          6    1    1    2  501    0 -0.52932793730E+02 -0.17768730310E+02  0.45052592644E+02  0.18728679754E+03  0.17300000000E+03 0.  1.
         -6    1    1    2    0  503  0.52932793730E+02  0.17768730310E+02  0.82994316802E+02  0.19983659587E+03  0.17300000000E+03 0.  1.
<mgrwt>
<rscale>  2 0.18178726E+03</rscale>
<asrwt>0</asrwt>
<pdfrwt beam="1">  1       21 0.39628485E-01 0.18178726E+03</pdfrwt>
<pdfrwt beam="2">  1       21 0.19928960E-01 0.18178726E+03</pdfrwt>
<totfact> 0.14313948E+05</totfact>
</mgrwt>
</event>
<event>
 4    2  0.3972096E+000  0.1984694E+03  0.7546771E-02  0.1151037E+00
         21   -1    0    0  501  502  0.00000000000E+00  0.00000000000E+00  0.38841760469E+02  0.38841760469E+02  0.00000000000E+00 0.  1.
         21   -1    0    0  502  503 -0.00000000000E+00 -0.00000000000E+00 -0.16364350010E+04  0.16364350010E+04  0.00000000000E+00 0.  1.
          6    1    1    2  501    0 -0.56119872203E+02  0.79445976759E+02 -0.28224557168E+03  0.34504009334E+03  0.17300000000E+03 0.  1.
         -6    1    1    2    0  503  0.56119872203E+02 -0.79445976759E+02 -0.13153476689E+04  0.13302366681E+04  0.17300000000E+03 0.  1.
<mgrwt>
<rscale>  2 0.19846940E+03</rscale>
<asrwt>0</asrwt>
<pdfrwt beam="1">  1       21 0.59756562E-02 0.19846940E+03</pdfrwt>
<pdfrwt beam="2">  1       21 0.25175920E+00 0.19846940E+03</pdfrwt>
<totfact> 0.12822855E+04</totfact>
</mgrwt>
</event>
<event>
 4    2  0.3972096E+000  0.2119834E+03  0.7546771E-02  0.1140005E+00
         21   -1    0    0  501  502  0.00000000000E+00  0.00000000000E+00  0.13219170967E+03  0.13219170967E+03  0.00000000000E+00 0.  1.
         21   -1    0    0  502  503 -0.00000000000E+00 -0.00000000000E+00 -0.45972758259E+03  0.45972758259E+03  0.00000000000E+00 0.  1.
          6    1    1    2  501    0 -0.12027466467E+03  0.23280506808E+02 -0.12693194775E+02  0.21236311863E+03  0.17300000000E+03 0.  1.
         -6    1    1    2    0  503  0.12027466467E+03 -0.23280506808E+02 -0.31484267814E+03  0.37955617363E+03  0.17300000000E+03 0.  1.
<mgrwt>
<rscale>  2 0.21198344E+03</rscale>
<asrwt>0</asrwt>
<pdfrwt beam="1">  1       21 0.20337186E-01 0.21198344E+03</pdfrwt>
<pdfrwt beam="2">  1       21 0.70727320E-01 0.21198344E+03</pdfrwt>
<totfact> 0.40118973E+04</totfact>
</mgrwt>
</event>
<event>
 4    2  0.3972096E+000  0.2215086E+03  0.7546771E-02  0.1132763E+00
         21   -1    0    0  503  502  0.00000000000E+00  0.00000000000E+00  0.15377984428E+03  0.15377984428E+03  0.00000000000E+00 0. -1.
         21   -1    0    0  501  503 -0.00000000000E+00 -0.00000000000E+00 -0.42899395915E+03  0.42899395915E+03  0.00000000000E+00 0. -1.
          6    1    1    2  501    0 -0.13646906092E+03 -0.22655085066E+02 -0.28510866427E+03  0.36104432957E+03  0.17300000000E+03 0. -1.
         -6    1    1    2    0  502  0.13646906092E+03  0.22655085066E+02  0.98945494004E+01  0.22172947386E+03  0.17300000000E+03 0. -1.
<mgrwt>
<rscale>  2 0.22150859E+03</rscale>
<asrwt>0</asrwt>
<pdfrwt beam="1">  1       21 0.23658438E-01 0.22150859E+03</pdfrwt>
<pdfrwt beam="2">  1       21 0.65999070E-01 0.22150859E+03</pdfrwt>
<totfact> 0.34941394E+04</totfact>
</mgrwt>
</event>
<event>
 4    2  0.3972096E+000  0.1858690E+03  0.7546771E-02  0.1162241E+00
         21   -1    0    0  503  502  0.00000000000E+00  0.00000000000E+00  0.17611163651E+03  0.17611163651E+03  0.00000000000E+00 0. -1.
         21   -1    0    0  501  503 -0.00000000000E+00 -0.00000000000E+00 -0.25981746292E+03  0.25981746292E+03  0.00000000000E+00 0. -1.
          6    1    1    2  501    0  0.67912410266E+02  0.24841721596E+01 -0.14973589958E+03  0.23867992417E+03  0.17300000000E+03 0. -1.
         -6    1    1    2    0  502 -0.67912410266E+02 -0.24841721596E+01  0.66030073171E+02  0.19724917526E+03  0.17300000000E+03 0. -1.
<mgrwt>
<rscale>  2 0.18586895E+03</rscale>
<asrwt>0</asrwt>
<pdfrwt beam="1">  1       21 0.27094098E-01 0.18586895E+03</pdfrwt>
<pdfrwt beam="2">  1       21 0.39971917E-01 0.18586895E+03</pdfrwt>
<totfact> 0.78524881E+04</totfact>
</mgrwt>
</event>
<event>
 4    2  0.3972096E+000  0.1943257E+03  0.7546771E-02  0.1154617E+00
         21   -1    0    0  503  502  0.00000000000E+00  0.00000000000E+00  0.30620743431E+02  0.30620743431E+02  0.00000000000E+00 0.  1.
         21   -1    0    0  501  503 -0.00000000000E+00 -0.00000000000E+00 -0.13628912045E+04  0.13628912045E+04  0.00000000000E+00 0.  1.
          6    1    1    2  501    0 -0.86434414817E+02  0.19041325873E+02 -0.88104284857E+03  0.90221892086E+03  0.17300000000E+03 0.  1.
         -6    1    1    2    0  502  0.86434414817E+02 -0.19041325873E+02 -0.45122761246E+03  0.49129302703E+03  0.17300000000E+03 0.  1.
<mgrwt>
<rscale>  2 0.19432571E+03</rscale>
<asrwt>0</asrwt>
<pdfrwt beam="1">  1       21 0.47108830E-02 0.19432571E+03</pdfrwt>
<pdfrwt beam="2">  1       21 0.20967560E+00 0.19432571E+03</pdfrwt>
<totfact> 0.34646038E+04</totfact>
</mgrwt>
</event>
<event>
 4    2  0.3972096E+000  0.2219262E+03  0.7546771E-02  0.1132455E+00
         21   -1    0    0  503  502  0.00000000000E+00  0.00000000000E+00  0.23940683129E+04  0.23940683129E+04  0.00000000000E+00 0. -1.
         21   -1    0    0  501  503 -0.00000000000E+00 -0.00000000000E+00 -0.21781123969E+02  0.21781123969E+02  0.00000000000E+00 0. -1.
          6    1    1    2  501    0  0.10742889748E+03  0.88211434887E+02  0.90156565089E+03  0.92847824322E+03  0.17300000000E+03 0. -1.
         -6    1    1    2    0  502 -0.10742889748E+03 -0.88211434887E+02  0.14707215381E+04  0.14873711937E+04  0.17300000000E+03 0. -1.
<mgrwt>
<rscale>  2 0.22192617E+03</rscale>
<asrwt>0</asrwt>
<pdfrwt beam="1">  1       21 0.36831799E+00 0.22192617E+03</pdfrwt>
<pdfrwt beam="2">  1       21 0.33509440E-02 0.22192617E+03</pdfrwt>
<totfact> 0.69188369E+03</totfact>
</mgrwt>
</event>
<event>
 4    2  0.3972096E+000  0.3582093E+03  0.7546771E-02  0.1059295E+00
         21   -1    0    0  501  502  0.00000000000E+00  0.00000000000E+00  0.28235855753E+03  0.28235855753E+03  0.00000000000E+00 0.  1.
         21   -1    0    0  502  503 -0.00000000000E+00 -0.00000000000E+00 -0.59671558438E+03  0.59671558438E+03  0.00000000000E+00 0. -1.
          6    1    1    2  501    0 -0.19085412746E+02  0.31308252782E+03 -0.37180482297E+03  0.51628746701E+03  0.17300000000E+03 0. -1.
         -6    1    1    2    0  503  0.19085412746E+02 -0.31308252782E+03  0.57447796124E+02  0.36278667490E+03  0.17300000000E+03 0.  1.
<mgrwt>
<rscale>  2 0.35820933E+03</rscale>
<asrwt>0</asrwt>
<pdfrwt beam="1">  1       21 0.43439779E-01 0.35820933E+03</pdfrwt>
<pdfrwt beam="2">  1       21 0.91802397E-01 0.35820933E+03</pdfrwt>
<totfact> 0.46410555E+03</totfact>
</mgrwt>
</event>
<event>
 4    2  0.3972096E+000  0.2130357E+03  0.7546771E-02  0.1139184E+00
         21   -1    0    0  503  502  0.00000000000E+00  0.00000000000E+00  0.30245675921E+02  0.30245675921E+02  0.00000000000E+00 0.  1.
         21   -1    0    0  501  503 -0.00000000000E+00 -0.00000000000E+00 -0.18547739141E+04  0.18547739141E+04  0.00000000000E+00 0.  1.
          6    1    1    2  501    0 -0.94448631655E+02 -0.80837212000E+02 -0.13241705553E+04  0.13411979192E+04  0.17300000000E+03 0.  1.
         -6    1    1    2    0  502  0.94448631655E+02  0.80837212000E+02 -0.50035768282E+03  0.54382167079E+03  0.17300000000E+03 0.  1.
<mgrwt>
<rscale>  2 0.21303568E+03</rscale>
<asrwt>0</asrwt>
<pdfrwt beam="1">  1       21 0.46531800E-02 0.21303568E+03</pdfrwt>
<pdfrwt beam="2">  1       21 0.28534989E+00 0.21303568E+03</pdfrwt>
<totfact> 0.12343856E+04</totfact>
</mgrwt>
</event>
<event>
 4    2  0.3972096E+000  0.2050343E+03  0.7546771E-02  0.1145560E+00
         21   -1    0    0  503  502  0.00000000000E+00  0.00000000000E+00  0.48214785364E+02  0.48214785364E+02  0.00000000000E+00 0. -1.
         21   -1    0    0  501  503 -0.00000000000E+00 -0.00000000000E+00 -0.87516664574E+03  0.87516664574E+03  0.00000000000E+00 0.  1.
          6    1    1    2  501    0 -0.33952608596E+02  0.10467703623E+03 -0.38532183588E+03  0.43647677917E+03  0.17300000000E+03 0. -1.
         -6    1    1    2    0  502  0.33952608596E+02 -0.10467703623E+03 -0.44163002449E+03  0.48690465193E+03  0.17300000000E+03 0.  1.
<mgrwt>
<rscale>  2 0.20503429E+03</rscale>
<asrwt>0</asrwt>
<pdfrwt beam="1">  1       21 0.74176599E-02 0.20503429E+03</pdfrwt>
<pdfrwt beam="2">  1       21 0.13464101E+00 0.20503429E+03</pdfrwt>
<totfact> 0.53759614E+04</totfact>
</mgrwt>
</event>
<event>
 4    2  0.3972096E+000  0.1755557E+03  0.7546771E-02  0.1172175E+00
         21   -1    0    0  501  502  0.00000000000E+00  0.00000000000E+00  0.28418176025E+02  0.28418176025E+02  0.00000000000E+00 0.  1.
         21   -1    0    0  502  503 -0.00000000000E+00 -0.00000000000E+00 -0.14684300521E+04  0.14684300521E+04  0.00000000000E+00 0.  1.
          6    1    1    2  501    0  0.29713157799E+02 -0.28186124846E+01 -0.33732120648E+03  0.38027018377E+03  0.17300000000E+03 0.  1.
         -6    1    1    2    0  503 -0.29713157799E+02  0.28186124846E+01 -0.11026906696E+04  0.11165780443E+04  0.17300000000E+03 0.  1.
<mgrwt>
<rscale>  2 0.17555574E+03</rscale>
<asrwt>0</asrwt>
<pdfrwt beam="1">  1       21 0.43720250E-02 0.17555574E+03</pdfrwt>
<pdfrwt beam="2">  1       21 0.22591242E+00 0.17555574E+03</pdfrwt>
<totfact> 0.31663700E+04</totfact>
</mgrwt>
</event>
<event>
 4    2  0.3972096E+000  0.1760252E+03  0.7546771E-02  0.1171706E+00
         21   -1    0    0  503  502  0.00000000000E+00  0.00000000000E+00  0.18214973137E+03  0.18214973137E+03  0.00000000000E+00 0. -1.
         21   -1    0    0  501  503 -0.00000000000E+00 -0.00000000000E+00 -0.31934627759E+03  0.31934627759E+03  0.00000000000E+00 0. -1.
          6    1    1    2  501    0 -0.19336354725E+02 -0.26114932515E+02 -0.24001318707E+03  0.29764276286E+03  0.17300000000E+03 0. -1.
         -6    1    1    2    0  502  0.19336354725E+02  0.26114932515E+02  0.10281664084E+03  0.20385324610E+03  0.17300000000E+03 0. -1.
<mgrwt>
<rscale>  2 0.17602524E+03</rscale>
<asrwt>0</asrwt>
<pdfrwt beam="1">  1       21 0.28023036E-01 0.17602524E+03</pdfrwt>
<pdfrwt beam="2">  1       21 0.49130197E-01 0.17602524E+03</pdfrwt>
<totfact> 0.48460471E+04</totfact>
</mgrwt>
</event>
<event>
 4    2  0.3972096E+000  0.1826945E+03  0.7546771E-02  0.1165220E+00
         21   -1    0    0  501  502  0.00000000000E+00  0.00000000000E+00  0.45698824005E+02  0.45698824005E+02  0.00000000000E+00 0.  1.
         21   -1    0    0  502  503 -0.00000000000E+00 -0.00000000000E+00 -0.10557740492E+04  0.10557740492E+04  0.00000000000E+00 0.  1.
          6    1    1    2  501    0  0.57735520731E+02  0.10718468645E+02 -0.19928759025E+03  0.27035683744E+03  0.17300000000E+03 0.  1.
         -6    1    1    2    0  503 -0.57735520731E+02 -0.10718468645E+02 -0.81078763500E+03  0.83111603581E+03  0.17300000000E+03 0.  1.
<mgrwt>
<rscale>  2 0.18269449E+03</rscale>
<asrwt>0</asrwt>
<pdfrwt beam="1">  1       21 0.70305892E-02 0.18269449E+03</pdfrwt>
<pdfrwt beam="2">  1       21 0.16242676E+00 0.18269449E+03</pdfrwt>
<totfact> 0.36504639E+04</totfact>
</mgrwt>
</event>
<event>
 4    2  0.3972096E+000  0.1829628E+03  0.7546771E-02  0.1164966E+00
         21   -1    0    0  501  502  0.00000000000E+00  0.00000000000E+00  0.74352113392E+02  0.74352113392E+02  0.00000000000E+00 0.  1.
         21   -1    0    0  502  503 -0.00000000000E+00 -0.00000000000E+00 -0.47051138457E+03  0.47051138457E+03  0.00000000000E+00 0.  1.
          6    1    1    2  501    0 -0.37610854336E+02 -0.46171409365E+02 -0.14151475426E+03  0.23130456347E+03  0.17300000000E+03 0.  1.
         -6    1    1    2    0  503  0.37610854336E+02  0.46171409365E+02 -0.25464451692E+03  0.31355893450E+03  0.17300000000E+03 0.  1.
<mgrwt>
<rscale>  2 0.18296277E+03</rscale>
<asrwt>0</asrwt>
<pdfrwt beam="1">  1       21 0.11438787E-01 0.18296277E+03</pdfrwt>
<pdfrwt beam="2">  1       21 0.72386366E-01 0.18296277E+03</pdfrwt>
<totfact> 0.11038046E+05</totfact>
</mgrwt>
</event>
<event>
 4    2  0.3972096E+000  0.2536910E+03  0.7546771E-02  0.1110994E+00
         21   -1    0    0  503  502  0.00000000000E+00  0.00000000000E+00  0.14617857243E+04  0.14617857243E+04  0.00000000000E+00 0.  1.
         21   -1    0    0  501  503 -0.00000000000E+00 -0.00000000000E+00 -0.45193294032E+02  0.45193294032E+02  0.00000000000E+00 0. -1.
          6    1    1    2  501    0  0.18427473305E+03  0.21747166708E+02  0.58729016271E+03  0.63974123809E+03  0.17300000000E+03 0. -1.
         -6    1    1    2    0  502 -0.18427473305E+03 -0.21747166708E+02  0.82930226758E+03  0.86723778026E+03  0.17300000000E+03 0.  1.
<mgrwt>
<rscale>  2 0.25369099E+03</rscale>
<asrwt>0</asrwt>
<pdfrwt beam="1">  1       21 0.22489008E+00 0.25369099E+03</pdfrwt>
<pdfrwt beam="2">  1       21 0.69528156E-02 0.25369099E+03</pdfrwt>
<totfact> 0.13718388E+04</totfact>
</mgrwt>
</event>
<event>
 4    2  0.3972096E+000  0.1849386E+03  0.7546771E-02  0.1163107E+00
         21   -1    0    0  501  502  0.00000000000E+00  0.00000000000E+00  0.67714046284E+02  0.67714046284E+02  0.00000000000E+00 0.  1.
         21   -1    0    0  502  503 -0.00000000000E+00 -0.00000000000E+00 -0.66241269419E+03  0.66241269419E+03  0.00000000000E+00 0.  1.
          6    1    1    2  501    0 -0.65195581503E+02  0.47781588019E+01 -0.11944469442E+03  0.22015751106E+03  0.17300000000E+03 0.  1.
         -6    1    1    2    0  503  0.65195581503E+02 -0.47781588019E+01 -0.47525395348E+03  0.50996922941E+03  0.17300000000E+03 0.  1.
<mgrwt>
<rscale>  2 0.18493862E+03</rscale>
<asrwt>0</asrwt>
<pdfrwt beam="1">  1       21 0.10417545E-01 0.18493862E+03</pdfrwt>
<pdfrwt beam="2">  1       21 0.10190965E+00 0.18493862E+03</pdfrwt>
<totfact> 0.59454003E+04</totfact>
</mgrwt>
</event>
<event>
 4    2  0.3972096E+000  0.2336938E+03  0.7546771E-02  0.1124067E+00
         21   -1    0    0  501  502  0.00000000000E+00  0.00000000000E+00  0.34469075043E+03  0.34469075043E+03  0.00000000000E+00 0. -1.
         21   -1    0    0  502  503 -0.00000000000E+00 -0.00000000000E+00 -0.19843972367E+03  0.19843972367E+03  0.00000000000E+00 0. -1.
          6    1    1    2  501    0 -0.14888126641E+03 -0.50181071158E+02  0.19504941561E+03  0.30439619893E+03  0.17300000000E+03 0. -1.
         -6    1    1    2    0  503  0.14888126641E+03  0.50181071158E+02 -0.48798388855E+02  0.23873427518E+03  0.17300000000E+03 0. -1.
<mgrwt>
<rscale>  2 0.23369376E+03</rscale>
<asrwt>0</asrwt>
<pdfrwt beam="1">  1       21 0.53029346E-01 0.23369376E+03</pdfrwt>
<pdfrwt beam="2">  1       21 0.30529188E-01 0.23369376E+03</pdfrwt>
<totfact> 0.33982189E+04</totfact>
</mgrwt>
</event>
<event>
 4    2  0.3972096E+000  0.2333394E+03  0.7546771E-02  0.1124311E+00
         21   -1    0    0  503  502  0.00000000000E+00  0.00000000000E+00  0.10942555050E+03  0.10942555050E+03  0.00000000000E+00 0. -1.
         21   -1    0    0  501  503 -0.00000000000E+00 -0.00000000000E+00 -0.50312925258E+03  0.50312925258E+03  0.00000000000E+00 0. -1.
          6    1    1    2  501    0  0.14629071390E+03 -0.55832943939E+02 -0.22903537518E+03  0.32696252643E+03  0.17300000000E+03 0. -1.
         -6    1    1    2    0  502 -0.14629071390E+03  0.55832943939E+02 -0.16466832689E+03  0.28559227665E+03  0.17300000000E+03 0. -1.
<mgrwt>
<rscale>  2 0.23333943E+03</rscale>
<asrwt>0</asrwt>
<pdfrwt beam="1">  1       21 0.16834700E-01 0.23333943E+03</pdfrwt>
<pdfrwt beam="2">  1       21 0.77404499E-01 0.23333943E+03</pdfrwt>
<totfact> 0.46145110E+04</totfact>
</mgrwt>
</event>
<event>
 4    2  0.3972096E+000  0.1730364E+03  0.7546771E-02  0.1174718E+00
         21   -1    0    0  503  502  0.00000000000E+00  0.00000000000E+00  0.50047799933E+02  0.50047799933E+02  0.00000000000E+00 0. -1.
         21   -1    0    0  501  503 -0.00000000000E+00 -0.00000000000E+00 -0.62692033042E+03  0.62692033042E+03  0.00000000000E+00 0. -1.
          6    1    1    2  501    0  0.35421978273E+01 -0.19524738596E+00 -0.36080890088E+03  0.40015577997E+03  0.17300000000E+03 0. -1.
         -6    1    1    2    0  502 -0.35421978273E+01  0.19524738596E+00 -0.21606362961E+03  0.27681235039E+03  0.17300000000E+03 0. -1.
<mgrwt>
<rscale>  2 0.17303637E+03</rscale>
<asrwt>0</asrwt>
<pdfrwt beam="1">  1       21 0.76996620E-02 0.17303637E+03</pdfrwt>
<pdfrwt beam="2">  1       21 0.96449276E-01 0.17303637E+03</pdfrwt>
<totfact> 0.11555902E+05</totfact>
</mgrwt>
</event>
<event>
 4    2  0.3972096E+000  0.1916708E+03  0.7546771E-02  0.1156963E+00
         21   -1    0    0  501  502  0.00000000000E+00  0.00000000000E+00  0.92953634018E+02  0.92953634018E+02  0.00000000000E+00 0.  1.
         21   -1    0    0  502  503 -0.00000000000E+00 -0.00000000000E+00 -0.39573350507E+03  0.39573350507E+03  0.00000000000E+00 0.  1.
          6    1    1    2  501    0  0.56626516995E+02  0.60017689139E+02 -0.16014086770E+03  0.24976545586E+03  0.17300000000E+03 0.  1.
         -6    1    1    2    0  503 -0.56626516995E+02 -0.60017689139E+02 -0.14263900336E+03  0.23892168323E+03  0.17300000000E+03 0.  1.
<mgrwt>
<rscale>  2 0.19167077E+03</rscale>
<asrwt>0</asrwt>
<pdfrwt beam="1">  1       21 0.14300559E-01 0.19167077E+03</pdfrwt>
<pdfrwt beam="2">  1       21 0.60882079E-01 0.19167077E+03</pdfrwt>
<totfact> 0.10748402E+05</totfact>
</mgrwt>
</event>
<event>
 4    2  0.3972096E+000  0.2059022E+03  0.7546771E-02  0.1144853E+00
         21   -1    0    0  501  502  0.00000000000E+00  0.00000000000E+00  0.16385687124E+03  0.16385687124E+03  0.00000000000E+00 0. -1.
         21   -1    0    0  502  503 -0.00000000000E+00 -0.00000000000E+00 -0.33291928130E+03  0.33291928130E+03  0.00000000000E+00 0. -1.
          6    1    1    2  501    0 -0.73255546025E+02  0.84263420262E+02 -0.20178146024E+03  0.28829057687E+03  0.17300000000E+03 0. -1.
         -6    1    1    2    0  503  0.73255546025E+02 -0.84263420262E+02  0.32719050169E+02  0.20848557567E+03  0.17300000000E+03 0. -1.
<mgrwt>
<rscale>  2 0.20590216E+03</rscale>
<asrwt>0</asrwt>
<pdfrwt beam="1">  1       21 0.25208750E-01 0.20590216E+03</pdfrwt>
<pdfrwt beam="2">  1       21 0.51218351E-01 0.20590216E+03</pdfrwt>
<totfact> 0.53678338E+04</totfact>
</mgrwt>
</event>
<event>
 4    2  0.3972096E+000  0.1802980E+03  0.7546771E-02  0.1167515E+00
         21   -1    0    0  503  502  0.00000000000E+00  0.00000000000E+00  0.24246746573E+02  0.24246746573E+02  0.00000000000E+00 0. -1.
         21   -1    0    0  501  503 -0.00000000000E+00 -0.00000000000E+00 -0.13921127039E+04  0.13921127039E+04  0.00000000000E+00 0. -1.
          6    1    1    2  501    0  0.83823649393E+01 -0.50081073311E+02 -0.54782534715E+03  0.57673216395E+03  0.17300000000E+03 0. -1.
         -6    1    1    2    0  502 -0.83823649393E+01  0.50081073311E+02 -0.82004061017E+03  0.83962728652E+03  0.17300000000E+03 0. -1.
<mgrwt>
<rscale>  2 0.18029803E+03</rscale>
<asrwt>0</asrwt>
<pdfrwt beam="1">  1       21 0.37302674E-02 0.18029803E+03</pdfrwt>
<pdfrwt beam="2">  1       21 0.21417126E+00 0.18029803E+03</pdfrwt>
<totfact> 0.48549374E+04</totfact>
</mgrwt>
</event>
<event>
 4    2  0.3972096E+000  0.2443663E+03  0.7546771E-02  0.1116918E+00
         21   -1    0    0  501  502  0.00000000000E+00  0.00000000000E+00  0.22324035652E+03  0.22324035652E+03  0.00000000000E+00 0.  1.
         21   -1    0    0  502  503 -0.00000000000E+00 -0.00000000000E+00 -0.49532525902E+03  0.49532525902E+03  0.00000000000E+00 0.  1.
          6    1    1    2  501    0 -0.17041844206E+03 -0.27266479466E+02  0.10762650333E+03  0.26701754721E+03  0.17300000000E+03 0.  1.
         -6    1    1    2    0  503  0.17041844206E+03  0.27266479466E+02 -0.37971140583E+03  0.45154806833E+03  0.17300000000E+03 0.  1.
<mgrwt>
<rscale>  2 0.24436634E+03</rscale>
<asrwt>0</asrwt>
<pdfrwt beam="1">  1       21 0.34344671E-01 0.24436634E+03</pdfrwt>
<pdfrwt beam="2">  1       21 0.76203885E-01 0.24436634E+03</pdfrwt>
<totfact> 0.12144048E+04</totfact>
</mgrwt>
</event>
<event>
 4    2  0.3972096E+000  0.1824876E+03  0.7546771E-02  0.1165417E+00
         21   -1    0    0  503  502  0.00000000000E+00  0.00000000000E+00  0.50169956809E+02  0.50169956809E+02  0.00000000000E+00 0.  1.
         21   -1    0    0  501  503 -0.00000000000E+00 -0.00000000000E+00 -0.84995834542E+03  0.84995834542E+03  0.00000000000E+00 0.  1.
          6    1    1    2  501    0  0.37950013766E+02  0.43960497431E+02 -0.61053483194E+03  0.63722406568E+03  0.17300000000E+03 0.  1.
         -6    1    1    2    0  502 -0.37950013766E+02 -0.43960497431E+02 -0.18925355667E+03  0.26290423654E+03  0.17300000000E+03 0.  1.
<mgrwt>
<rscale>  2 0.18248761E+03</rscale>
<asrwt>0</asrwt>
<pdfrwt beam="1">  1       21 0.77184550E-02 0.18248761E+03</pdfrwt>
<pdfrwt beam="2">  1       21 0.13076282E+00 0.18248761E+03</pdfrwt>
<totfact> 0.54684519E+04</totfact>
</mgrwt>
</event>
<event>
 4    2  0.3972096E+000  0.4793838E+03  0.7546771E-02  0.1019305E+00
         21   -1    0    0  501  502  0.00000000000E+00  0.00000000000E+00  0.17532632252E+03  0.17532632252E+03  0.00000000000E+00 0.  1.
         21   -1    0    0  502  503 -0.00000000000E+00 -0.00000000000E+00 -0.13656177196E+04  0.13656177196E+04  0.00000000000E+00 0.  1.
          6    1    1    2  501    0 -0.36307585521E+03  0.26087495840E+03 -0.44070765451E+03  0.65117743918E+03  0.17300000000E+03 0.  1.
         -6    1    1    2    0  503  0.36307585521E+03 -0.26087495840E+03 -0.74958374255E+03  0.88976660291E+03  0.17300000000E+03 0.  1.
<mgrwt>
<rscale>  2 0.47938379E+03</rscale>
<asrwt>0</asrwt>
<pdfrwt beam="1">  1       21 0.26973281E-01 0.47938379E+03</pdfrwt>
<pdfrwt beam="2">  1       21 0.21009503E+00 0.47938379E+03</pdfrwt>
<totfact> 0.12518268E+03</totfact>
</mgrwt>
</event>
<event>
 4    2  0.3972096E+000  0.1855697E+03  0.7546771E-02  0.1162519E+00
         21   -1    0    0  503  502  0.00000000000E+00  0.00000000000E+00  0.52725362503E+02  0.52725362503E+02  0.00000000000E+00 0.  1.
         21   -1    0    0  501  503 -0.00000000000E+00 -0.00000000000E+00 -0.78621492788E+03  0.78621492788E+03  0.00000000000E+00 0.  1.
          6    1    1    2  501    0  0.28860122098E+02 -0.60615256649E+02 -0.53933144475E+03  0.57036350101E+03  0.17300000000E+03 0.  1.
         -6    1    1    2    0  502 -0.28860122098E+02  0.60615256649E+02 -0.19415812063E+03  0.26857678938E+03  0.17300000000E+03 0.  1.
<mgrwt>
<rscale>  2 0.18556971E+03</rscale>
<asrwt>0</asrwt>
<pdfrwt beam="1">  1       21 0.81115945E-02 0.18556971E+03</pdfrwt>
<pdfrwt beam="2">  1       21 0.12095614E+00 0.18556971E+03</pdfrwt>
<totfact> 0.60867659E+04</totfact>
</mgrwt>
</event>
<event>
 4    2  0.3972096E+000  0.2865346E+03  0.7546771E-02  0.1092172E+00
         21   -1    0    0  503  502  0.00000000000E+00  0.00000000000E+00  0.12368232964E+04  0.12368232964E+04  0.00000000000E+00 0. -1.
         21   -1    0    0  501  503 -0.00000000000E+00 -0.00000000000E+00 -0.80206639152E+02  0.80206639152E+02  0.00000000000E+00 0. -1.
          6    1    1    2  501    0 -0.17687865188E+03  0.14452351677E+03  0.30490973332E+03  0.41841612046E+03  0.17300000000E+03 0. -1.
         -6    1    1    2    0  502  0.17687865188E+03 -0.14452351677E+03  0.85170692389E+03  0.89861381505E+03  0.17300000000E+03 0. -1.
<mgrwt>
<rscale>  2 0.28653465E+03</rscale>
<asrwt>0</asrwt>
<pdfrwt beam="1">  1       21 0.19028049E+00 0.28653465E+03</pdfrwt>
<pdfrwt beam="2">  1       21 0.12339484E-01 0.28653465E+03</pdfrwt>
<totfact> 0.81129482E+03</totfact>
</mgrwt>
</event>
<event>
 4    2  0.3972096E+000  0.1896713E+03  0.7546771E-02  0.1158758E+00
         21   -1    0    0  501  502  0.00000000000E+00  0.00000000000E+00  0.17366016350E+03  0.17366016350E+03  0.00000000000E+00 0.  1.
         21   -1    0    0  502  503 -0.00000000000E+00 -0.00000000000E+00 -0.21897644970E+04  0.21897644970E+04  0.00000000000E+00 0.  1.
          6    1    1    2  501    0  0.44477108866E+02 -0.63780703754E+02  0.11637482410E+03  0.22252705693E+03  0.17300000000E+03 0.  1.
         -6    1    1    2    0  503 -0.44477108866E+02  0.63780703754E+02 -0.21324791576E+04  0.21408976035E+04  0.17300000000E+03 0.  1.
<mgrwt>
<rscale>  2 0.18967127E+03</rscale>
<asrwt>0</asrwt>
<pdfrwt beam="1">  1       21 0.26716947E-01 0.18967127E+03</pdfrwt>
<pdfrwt beam="2">  1       21 0.33688686E+00 0.18967127E+03</pdfrwt>
<totfact> 0.27980351E+02</totfact>
</mgrwt>
</event>
<event>
 4    2  0.3972096E+000  0.1953529E+03  0.7546771E-02  0.1153720E+00
         21   -1    0    0  503  502  0.00000000000E+00  0.00000000000E+00  0.11651515013E+04  0.11651515013E+04  0.00000000000E+00 0.  1.
         21   -1    0    0  501  503 -0.00000000000E+00 -0.00000000000E+00 -0.32909590512E+02  0.32909590512E+02  0.00000000000E+00 0.  1.
          6    1    1    2  501    0 -0.44274709028E+02  0.79205540220E+02  0.60737841949E+03  0.63802140397E+03  0.17300000000E+03 0.  1.
         -6    1    1    2    0  502  0.44274709028E+02 -0.79205540220E+02  0.52486349129E+03  0.56003968784E+03  0.17300000000E+03 0.  1.
<mgrwt>
<rscale>  2 0.19535293E+03</rscale>
<asrwt>0</asrwt>
<pdfrwt beam="1">  1       21 0.17925405E+00 0.19535293E+03</pdfrwt>
<pdfrwt beam="2">  1       21 0.50630148E-02 0.19535293E+03</pdfrwt>
<totfact> 0.48400329E+04</totfact>
</mgrwt>
</event>
<event>
 4    2  0.3972096E+000  0.1741973E+03  0.7546771E-02  0.1173540E+00
         21   -1    0    0  501  502  0.00000000000E+00  0.00000000000E+00  0.10456204365E+03  0.10456204365E+03  0.00000000000E+00 0. -1.
         21   -1    0    0  502  503 -0.00000000000E+00 -0.00000000000E+00 -0.95815136109E+03  0.95815136109E+03  0.00000000000E+00 0. -1.
          6    1    1    2  501    0  0.16793948957E+02 -0.11561774993E+02  0.16853839022E+02  0.17501075182E+03  0.17300000000E+03 0. -1.
         -6    1    1    2    0  503 -0.16793948957E+02  0.11561774993E+02 -0.87044315646E+03  0.88770265292E+03  0.17300000000E+03 0. -1.
<mgrwt>
<rscale>  2 0.17419733E+03</rscale>
<asrwt>0</asrwt>
<pdfrwt beam="1">  1       21 0.16086469E-01 0.17419733E+03</pdfrwt>
<pdfrwt beam="2">  1       21 0.14740790E+00 0.17419733E+03</pdfrwt>
<totfact> 0.10956202E+04</totfact>
</mgrwt>
</event>
<event>
 4    2  0.3972096E+000  0.1878722E+03  0.7546771E-02  0.1160395E+00
         21   -1    0    0  501  502  0.00000000000E+00  0.00000000000E+00  0.63537880485E+02  0.63537880485E+02  0.00000000000E+00 0. -1.
         21   -1    0    0  502  503 -0.00000000000E+00 -0.00000000000E+00 -0.11664604612E+04  0.11664604612E+04  0.00000000000E+00 0.  1.
          6    1    1    2  501    0 -0.52303218118E+02 -0.51296679680E+02 -0.10637701701E+03  0.21589823001E+03  0.17300000000E+03 0. -1.
         -6    1    1    2    0  503  0.52303218118E+02  0.51296679680E+02 -0.99654556374E+03  0.10141001117E+04  0.17300000000E+03 0.  1.
<mgrwt>
<rscale>  2 0.18787223E+03</rscale>
<asrwt>0</asrwt>
<pdfrwt beam="1">  1       21 0.97750596E-02 0.18787223E+03</pdfrwt>
<pdfrwt beam="2">  1       21 0.17945544E+00 0.18787223E+03</pdfrwt>
<totfact> 0.15557942E+04</totfact>
</mgrwt>
</event>
<event>
 4    2  0.3972096E+000  0.1765306E+03  0.7546771E-02  0.1171204E+00
         21   -1    0    0  501  502  0.00000000000E+00  0.00000000000E+00  0.90171925224E+02  0.90171925224E+02  0.00000000000E+00 0. -1.
         21   -1    0    0  502  503 -0.00000000000E+00 -0.00000000000E+00 -0.41604176564E+03  0.41604176564E+03  0.00000000000E+00 0. -1.
          6    1    1    2  501    0 -0.29937378493E+02 -0.18379419290E+02 -0.58784000039E+02  0.18606076520E+03  0.17300000000E+03 0. -1.
         -6    1    1    2    0  503  0.29937378493E+02  0.18379419290E+02 -0.26708584038E+03  0.32015292567E+03  0.17300000000E+03 0. -1.
<mgrwt>
<rscale>  2 0.17653059E+03</rscale>
<asrwt>0</asrwt>
<pdfrwt beam="1">  1       21 0.13872604E-01 0.17653059E+03</pdfrwt>
<pdfrwt beam="2">  1       21 0.64006424E-01 0.17653059E+03</pdfrwt>
<totfact> 0.10251361E+05</totfact>
</mgrwt>
</event>
<event>
 4    2  0.3972096E+000  0.3154190E+03  0.7546771E-02  0.1077777E+00
         21   -1    0    0  501  502  0.00000000000E+00  0.00000000000E+00  0.63448813978E+03  0.63448813978E+03  0.00000000000E+00 0. -1.
         21   -1    0    0  502  503 -0.00000000000E+00 -0.00000000000E+00 -0.16170664571E+03  0.16170664571E+03  0.00000000000E+00 0.  1.
          6    1    1    2  501    0 -0.19188589888E+03 -0.18094185128E+03  0.30572044048E+03  0.43926545444E+03  0.17300000000E+03 0. -1.
         -6    1    1    2    0  503  0.19188589888E+03  0.18094185128E+03  0.16706105359E+03  0.35692933105E+03  0.17300000000E+03 0.  1.
<mgrwt>
<rscale>  2 0.31541901E+03</rscale>
<asrwt>0</asrwt>
<pdfrwt beam="1">  1       21 0.97613559E-01 0.31541901E+03</pdfrwt>
<pdfrwt beam="2">  1       21 0.24877946E-01 0.31541901E+03</pdfrwt>
<totfact> 0.12439058E+04</totfact>
</mgrwt>
</event>
<event>
 4    2  0.3972096E+000  0.1764624E+03  0.7546771E-02  0.1171271E+00
         21   -1    0    0  501  502  0.00000000000E+00  0.00000000000E+00  0.21978098366E+03  0.21978098366E+03  0.00000000000E+00 0.  1.
         21   -1    0    0  502  503 -0.00000000000E+00 -0.00000000000E+00 -0.14840347498E+03  0.14840347498E+03  0.00000000000E+00 0.  1.
          6    1    1    2  501    0 -0.29305527623E+02 -0.18739256459E+02  0.74867538511E+02  0.19168756351E+03  0.17300000000E+03 0.  1.
         -6    1    1    2    0  503  0.29305527623E+02  0.18739256459E+02 -0.34900298310E+01  0.17649689513E+03  0.17300000000E+03 0.  1.
<mgrwt>
<rscale>  2 0.17646239E+03</rscale>
<asrwt>0</asrwt>
<pdfrwt beam="1">  1       21 0.33812459E-01 0.17646239E+03</pdfrwt>
<pdfrwt beam="2">  1       21 0.22831304E-01 0.17646239E+03</pdfrwt>
<totfact> 0.15244078E+05</totfact>
</mgrwt>
</event>
<event>
 4    2  0.3972096E+000  0.1874069E+03  0.7546771E-02  0.1160821E+00
         21   -1    0    0  503  502  0.00000000000E+00  0.00000000000E+00  0.44192084768E+03  0.44192084768E+03  0.00000000000E+00 0.  1.
         21   -1    0    0  501  503 -0.00000000000E+00 -0.00000000000E+00 -0.88639522764E+02  0.88639522764E+02  0.00000000000E+00 0.  1.
          6    1    1    2  501    0  0.67227147430E+02  0.25939383788E+02  0.91337898195E+02  0.20848010128E+03  0.17300000000E+03 0.  1.
         -6    1    1    2    0  502 -0.67227147430E+02 -0.25939383788E+02  0.26194342672E+03  0.32208026916E+03  0.17300000000E+03 0.  1.
<mgrwt>
<rscale>  2 0.18740689E+03</rscale>
<asrwt>0</asrwt>
<pdfrwt beam="1">  1       21 0.67987822E-01 0.18740689E+03</pdfrwt>
<pdfrwt beam="2">  1       21 0.13636850E-01 0.18740689E+03</pdfrwt>
<totfact> 0.92315173E+04</totfact>
</mgrwt>
</event>
<event>
 4    2  0.3972096E+000  0.1818742E+03  0.7546771E-02  0.1166001E+00
         21   -1    0    0  501  502  0.00000000000E+00  0.00000000000E+00  0.53686272683E+02  0.53686272683E+02  0.00000000000E+00 0. -1.
         21   -1    0    0  502  503 -0.00000000000E+00 -0.00000000000E+00 -0.12811182182E+04  0.12811182182E+04  0.00000000000E+00 0. -1.
          6    1    1    2  501    0 -0.10970847593E+01  0.56107181875E+02 -0.13287992720E+03  0.22524496555E+03  0.17300000000E+03 0. -1.
         -6    1    1    2    0  503  0.10970847593E+01 -0.56107181875E+02 -0.10945520183E+04  0.11095595253E+04  0.17300000000E+03 0. -1.
<mgrwt>
<rscale>  2 0.18187419E+03</rscale>
<asrwt>0</asrwt>
<pdfrwt beam="1">  1       21 0.82594273E-02 0.18187419E+03</pdfrwt>
<pdfrwt beam="2">  1       21 0.19709509E+00 0.18187419E+03</pdfrwt>
<totfact> 0.16048585E+04</totfact>
</mgrwt>
</event>
<event>
 4    2  0.3972096E+000  0.2299766E+03  0.7546771E-02  0.1126656E+00
         21   -1    0    0  503  502  0.00000000000E+00  0.00000000000E+00  0.15990619128E+04  0.15990619128E+04  0.00000000000E+00 0.  1.
         21   -1    0    0  501  503 -0.00000000000E+00 -0.00000000000E+00 -0.33956594283E+02  0.33956594283E+02  0.00000000000E+00 0. -1.
          6    1    1    2  501    0 -0.88924673476E+02 -0.12268910418E+03  0.91410430761E+03  0.94258999519E+03  0.17300000000E+03 0. -1.
         -6    1    1    2    0  502  0.88924673476E+02  0.12268910418E+03  0.65100101096E+03  0.69042851194E+03  0.17300000000E+03 0. -1.
<mgrwt>
<rscale>  2 0.22997655E+03</rscale>
<asrwt>0</asrwt>
<pdfrwt beam="1">  1       21 0.24600947E+00 0.22997655E+03</pdfrwt>
<pdfrwt beam="2">  1       21 0.52240927E-02 0.22997655E+03</pdfrwt>
<totfact> 0.16992563E+04</totfact>
</mgrwt>
</event>
<event>
 4    2  0.3972096E+000  0.2580236E+03  0.7546771E-02  0.1108337E+00
         21   -1    0    0  501  502  0.00000000000E+00  0.00000000000E+00  0.48098090862E+03  0.48098090862E+03  0.00000000000E+00 0. -1.
         21   -1    0    0  502  503 -0.00000000000E+00 -0.00000000000E+00 -0.26955599977E+03  0.26955599977E+03  0.00000000000E+00 0.  1.
          6    1    1    2  501    0 -0.38291172946E+02 -0.18756595313E+03  0.36745997330E+03  0.44900226355E+03  0.17300000000E+03 0. -1.
         -6    1    1    2    0  503  0.38291172946E+02  0.18756595313E+03 -0.15603506445E+03  0.30153464484E+03  0.17300000000E+03 0.  1.
<mgrwt>
<rscale>  2 0.25802364E+03</rscale>
<asrwt>0</asrwt>
<pdfrwt beam="1">  1       21 0.73997063E-01 0.25802364E+03</pdfrwt>
<pdfrwt beam="2">  1       21 0.41470154E-01 0.25802364E+03</pdfrwt>
<totfact> 0.88037434E+03</totfact>
</mgrwt>
</event>
<event>
 4    2  0.3972096E+000  0.1792840E+03  0.7546771E-02  0.1168498E+00
         21   -1    0    0  503  502  0.00000000000E+00  0.00000000000E+00  0.44398142267E+03  0.44398142267E+03  0.00000000000E+00 0.  1.
         21   -1    0    0  501  503 -0.00000000000E+00 -0.00000000000E+00 -0.72729105887E+02  0.72729105887E+02  0.00000000000E+00 0.  1.
          6    1    1    2  501    0 -0.13593703813E+02 -0.45044093297E+02  0.20309414164E+03  0.27090586832E+03  0.17300000000E+03 0. -1.
         -6    1    1    2    0  502  0.13593703813E+02  0.45044093297E+02  0.16815817514E+03  0.24580466023E+03  0.17300000000E+03 0. -1.
<mgrwt>
<rscale>  2 0.17928402E+03</rscale>
<asrwt>0</asrwt>
<pdfrwt beam="1">  1       21 0.68304833E-01 0.17928402E+03</pdfrwt>
<pdfrwt beam="2">  1       21 0.11189093E-01 0.17928402E+03</pdfrwt>
<totfact> 0.13063473E+05</totfact>
</mgrwt>
</event>
<event>
 4    2  0.3972096E+000  0.2472473E+03  0.7546771E-02  0.1115057E+00
         21   -1    0    0  501  502  0.00000000000E+00  0.00000000000E+00  0.44428933338E+03  0.44428933338E+03  0.00000000000E+00 0.  1.
         21   -1    0    0  502  503 -0.00000000000E+00 -0.00000000000E+00 -0.17453025266E+03  0.17453025266E+03  0.00000000000E+00 0. -1.
          6    1    1    2  501    0 -0.73134138347E+02 -0.16079068687E+03 -0.74611519958E+01  0.24735989158E+03  0.17300000000E+03 0. -1.
         -6    1    1    2    0  503  0.73134138347E+02  0.16079068687E+03  0.27722023272E+03  0.37145969445E+03  0.17300000000E+03 0.  1.
<mgrwt>
<rscale>  2 0.24724734E+03</rscale>
<asrwt>0</asrwt>
<pdfrwt beam="1">  1       21 0.68352205E-01 0.24724734E+03</pdfrwt>
<pdfrwt beam="2">  1       21 0.26850808E-01 0.24724734E+03</pdfrwt>
<totfact> 0.25061102E+04</totfact>
</mgrwt>
</event>
<event>
 4    2  0.3972096E+000  0.1963521E+03  0.7546771E-02  0.1152854E+00
         21   -1    0    0  501  502  0.00000000000E+00  0.00000000000E+00  0.60643389527E+03  0.60643389527E+03  0.00000000000E+00 0. -1.
         21   -1    0    0  502  503 -0.00000000000E+00 -0.00000000000E+00 -0.18215696407E+03  0.18215696407E+03  0.00000000000E+00 0. -1.
          6    1    1    2  501    0 -0.51794172526E+02  0.77087583194E+02  0.53027084995E+03  0.56545672345E+03  0.17300000000E+03 0. -1.
         -6    1    1    2    0  503  0.51794172526E+02 -0.77087583194E+02 -0.10599391874E+03  0.22313413589E+03  0.17300000000E+03 0. -1.
<mgrwt>
<rscale>  2 0.19635206E+03</rscale>
<asrwt>0</asrwt>
<pdfrwt beam="1">  1       21 0.93297521E-01 0.19635206E+03</pdfrwt>
<pdfrwt beam="2">  1       21 0.28024149E-01 0.19635206E+03</pdfrwt>
<totfact> 0.11724197E+04</totfact>
</mgrwt>
</event>
<event>
 4    2  0.3972096E+000  0.3406818E+03  0.7546771E-02  0.1066506E+00
         21   -1    0    0  501  502  0.00000000000E+00  0.00000000000E+00  0.11509076426E+04  0.11509076426E+04  0.00000000000E+00 0. -1.
         21   -1    0    0  502  503 -0.00000000000E+00 -0.00000000000E+00 -0.19668414440E+03  0.19668414440E+03  0.00000000000E+00 0.  1.
          6    1    1    2  501    0  0.39000341492E+02 -0.29088496777E+03  0.94745352421E+03  0.10068427244E+04  0.17300000000E+03 0. -1.
         -6    1    1    2    0  503 -0.39000341492E+02  0.29088496777E+03  0.67699739834E+01  0.34074906260E+03  0.17300000000E+03 0.  1.
<mgrwt>
<rscale>  2 0.34068180E+03</rscale>
<asrwt>0</asrwt>
<pdfrwt beam="1">  1       21 0.17706271E+00 0.34068180E+03</pdfrwt>
<pdfrwt beam="2">  1       21 0.30259100E-01 0.34068180E+03</pdfrwt>
<totfact> 0.17858733E+03</totfact>
</mgrwt>
</event>
<event>
 4    2  0.3972096E+000  0.1813560E+03  0.7546771E-02  0.1166497E+00
         21   -1    0    0  501  502  0.00000000000E+00  0.00000000000E+00  0.13663095925E+03  0.13663095925E+03  0.00000000000E+00 0.  1.
         21   -1    0    0  502  503 -0.00000000000E+00 -0.00000000000E+00 -0.25198244501E+03  0.25198244501E+03  0.00000000000E+00 0.  1.
          6    1    1    2  501    0 -0.54169694420E+02  0.51625819671E+01 -0.16599543243E+02  0.18211412049E+03  0.17300000000E+03 0.  1.
         -6    1    1    2    0  503  0.54169694420E+02 -0.51625819671E+01 -0.98751942523E+02  0.20649928377E+03  0.17300000000E+03 0.  1.
<mgrwt>
<rscale>  2 0.18135603E+03</rscale>
<asrwt>0</asrwt>
<pdfrwt beam="1">  1       21 0.21020148E-01 0.18135603E+03</pdfrwt>
<pdfrwt beam="2">  1       21 0.38766530E-01 0.18135603E+03</pdfrwt>
<totfact> 0.13544192E+05</totfact>
</mgrwt>
</event>
<event>
 4    2  0.3972096E+000  0.1937295E+03  0.7546771E-02  0.1155140E+00
         21   -1    0    0  503  502  0.00000000000E+00  0.00000000000E+00  0.18583058919E+03  0.18583058919E+03  0.00000000000E+00 0.  1.
         21   -1    0    0  501  503 -0.00000000000E+00 -0.00000000000E+00 -0.21507822341E+03  0.21507822341E+03  0.00000000000E+00 0. -1.
          6    1    1    2  501    0 -0.77916506848E+02  0.39129534694E+02 -0.64121797688E+02  0.20406544897E+03  0.17300000000E+03 0. -1.
         -6    1    1    2    0  502  0.77916506848E+02 -0.39129534694E+02  0.34874163472E+02  0.19684336362E+03  0.17300000000E+03 0.  1.
<mgrwt>
<rscale>  2 0.19372946E+03</rscale>
<asrwt>0</asrwt>
<pdfrwt beam="1">  1       21 0.28589321E-01 0.19372946E+03</pdfrwt>
<pdfrwt beam="2">  1       21 0.33088957E-01 0.19372946E+03</pdfrwt>
<totfact> 0.10286804E+05</totfact>
</mgrwt>
</event>
<event>
 4    2  0.3972096E+000  0.1815587E+03  0.7546771E-02  0.1166303E+00
         21   -1    0    0  501  502  0.00000000000E+00  0.00000000000E+00  0.29812783490E+03  0.29812783490E+03  0.00000000000E+00 0.  1.
         21   -1    0    0  502  503 -0.00000000000E+00 -0.00000000000E+00 -0.39441312045E+03  0.39441312045E+03  0.00000000000E+00 0.  1.
          6    1    1    2  501    0  0.54475822526E+02  0.81814956320E+01  0.24560886962E+03  0.30542964648E+03  0.17300000000E+03 0.  1.
         -6    1    1    2    0  503 -0.54475822526E+02 -0.81814956320E+01 -0.34189415518E+03  0.38711130887E+03  0.17300000000E+03 0.  1.
<mgrwt>
<rscale>  2 0.18155867E+03</rscale>
<asrwt>0</asrwt>
<pdfrwt beam="1">  1       21 0.45865821E-01 0.18155867E+03</pdfrwt>
<pdfrwt beam="2">  1       21 0.60678941E-01 0.18155867E+03</pdfrwt>
<totfact> 0.11610874E+04</totfact>
</mgrwt>
</event>
<event>
 4    2  0.3972096E+000  0.1778957E+03  0.7546771E-02  0.1169855E+00
         21   -1    0    0  501  502  0.00000000000E+00  0.00000000000E+00  0.14626760391E+03  0.14626760391E+03  0.00000000000E+00 0.  1.
         21   -1    0    0  502  503 -0.00000000000E+00 -0.00000000000E+00 -0.28022683553E+03  0.28022683553E+03  0.00000000000E+00 0.  1.
          6    1    1    2  501    0 -0.96345256423E+01  0.40311779434E+02  0.34822499976E+02  0.18127181289E+03  0.17300000000E+03 0.  1.
         -6    1    1    2    0  503  0.96345256423E+01 -0.40311779434E+02 -0.16878173159E+03  0.24522262654E+03  0.17300000000E+03 0.  1.
<mgrwt>
<rscale>  2 0.17789565E+03</rscale>
<asrwt>0</asrwt>
<pdfrwt beam="1">  1       21 0.22502709E-01 0.17789565E+03</pdfrwt>
<pdfrwt beam="2">  1       21 0.43111820E-01 0.17789565E+03</pdfrwt>
<totfact> 0.96236801E+04</totfact>
</mgrwt>
</event>
<event>
 4    2  0.3972096E+000  0.2942303E+03  0.7546771E-02  0.1088161E+00
         21   -1    0    0  503  502  0.00000000000E+00  0.00000000000E+00  0.13432567429E+03  0.13432567429E+03  0.00000000000E+00 0.  1.
         21   -1    0    0  501  503 -0.00000000000E+00 -0.00000000000E+00 -0.66227131640E+03  0.66227131640E+03  0.00000000000E+00 0. -1.
          6    1    1    2  501    0 -0.23793165964E+03 -0.55692332655E+01 -0.32923752279E+03  0.44155275725E+03  0.17300000000E+03 0.  1.
         -6    1    1    2    0  502  0.23793165964E+03  0.55692332655E+01 -0.19870811932E+03  0.35504423344E+03  0.17300000000E+03 0. -1.
<mgrwt>
<rscale>  2 0.29423034E+03</rscale>
<asrwt>0</asrwt>
<pdfrwt beam="1">  1       21 0.20665488E-01 0.29423034E+03</pdfrwt>
<pdfrwt beam="2">  1       21 0.10188790E+00 0.29423034E+03</pdfrwt>
<totfact> 0.16142294E+04</totfact>
</mgrwt>
</event>
<event>
 4    2  0.3972096E+000  0.1785148E+03  0.7546771E-02  0.1169248E+00
         21   -1    0    0  503  502  0.00000000000E+00  0.00000000000E+00  0.20836839094E+03  0.20836839094E+03  0.00000000000E+00 0. -1.
         21   -1    0    0  501  503 -0.00000000000E+00 -0.00000000000E+00 -0.19239191712E+03  0.19239191712E+03  0.00000000000E+00 0. -1.
          6    1    1    2  501    0 -0.40042038260E+02  0.18307703362E+02 -0.82752840735E+02  0.19676272381E+03  0.17300000000E+03 0. -1.
         -6    1    1    2    0  502  0.40042038260E+02 -0.18307703362E+02  0.98729314548E+02  0.20399758425E+03  0.17300000000E+03 0. -1.
<mgrwt>
<rscale>  2 0.17851481E+03</rscale>
<asrwt>0</asrwt>
<pdfrwt beam="1">  1       21 0.32056676E-01 0.17851481E+03</pdfrwt>
<pdfrwt beam="2">  1       21 0.29598756E-01 0.17851481E+03</pdfrwt>
<totfact> 0.10292927E+05</totfact>
</mgrwt>
</event>
<event>
 4    2  0.3972096E+000  0.1826288E+03  0.7546771E-02  0.1165283E+00
         21   -1    0    0  501  502  0.00000000000E+00  0.00000000000E+00  0.10753812456E+03  0.10753812456E+03  0.00000000000E+00 0.  1.
         21   -1    0    0  502  503 -0.00000000000E+00 -0.00000000000E+00 -0.36529565188E+03  0.36529565188E+03  0.00000000000E+00 0.  1.
          6    1    1    2  501    0 -0.55974523884E+02 -0.17063098708E+02 -0.22073299438E+03  0.28648970570E+03  0.17300000000E+03 0.  1.
         -6    1    1    2    0  503  0.55974523884E+02  0.17063098708E+02 -0.37024532941E+02  0.18634407074E+03  0.17300000000E+03 0.  1.
<mgrwt>
<rscale>  2 0.18262885E+03</rscale>
<asrwt>0</asrwt>
<pdfrwt beam="1">  1       21 0.16544327E-01 0.18262885E+03</pdfrwt>
<pdfrwt beam="2">  1       21 0.56199331E-01 0.18262885E+03</pdfrwt>
<totfact> 0.98095264E+04</totfact>
</mgrwt>
</event>
<event>
 4    2  0.3972096E+000  0.1979577E+03  0.7546771E-02  0.1151474E+00
         21   -1    0    0  503  502  0.00000000000E+00  0.00000000000E+00  0.23186744976E+03  0.23186744976E+03  0.00000000000E+00 0. -1.
         21   -1    0    0  501  503 -0.00000000000E+00 -0.00000000000E+00 -0.18182310908E+03  0.18182310908E+03  0.00000000000E+00 0.  1.
          6    1    1    2  501    0 -0.87725191669E+02  0.39529170123E+02 -0.29893472114E+02  0.20020210843E+03  0.17300000000E+03 0.  1.
         -6    1    1    2    0  502  0.87725191669E+02 -0.39529170123E+02  0.79937812800E+02  0.21348845041E+03  0.17300000000E+03 0. -1.
<mgrwt>
<rscale>  2 0.19795773E+03</rscale>
<asrwt>0</asrwt>
<pdfrwt beam="1">  1       21 0.35671915E-01 0.19795773E+03</pdfrwt>
<pdfrwt beam="2">  1       21 0.27972786E-01 0.19795773E+03</pdfrwt>
<totfact> 0.92294578E+04</totfact>
</mgrwt>
</event>
<event>
 4    2  0.3972096E+000  0.5109729E+03  0.7546771E-02  0.1010954E+00
         21   -1    0    0  501  502  0.00000000000E+00  0.00000000000E+00  0.20901182027E+04  0.20901182027E+04  0.00000000000E+00 0. -1.
         21   -1    0    0  502  503 -0.00000000000E+00 -0.00000000000E+00 -0.12492495486E+03  0.12492495486E+03  0.00000000000E+00 0.  1.
          6    1    1    2  501    0  0.25446127460E+03  0.40793846026E+03  0.97431650315E+03  0.11001754296E+04  0.17300000000E+03 0. -1.
         -6    1    1    2    0  503 -0.25446127460E+03 -0.40793846026E+03  0.99087674466E+03  0.11148677279E+04  0.17300000000E+03 0.  1.
<mgrwt>
<rscale>  2 0.51097292E+03</rscale>
<asrwt>0</asrwt>
<pdfrwt beam="1">  1       21 0.32155662E+00 0.51097292E+03</pdfrwt>
<pdfrwt beam="2">  1       21 0.19219225E-01 0.51097292E+03</pdfrwt>
<totfact> 0.48805060E+02</totfact>
</mgrwt>
</event>
<event>
 4    2  0.3972096E+000  0.1808147E+03  0.7546771E-02  0.1167017E+00
         21   -1    0    0  503  502  0.00000000000E+00  0.00000000000E+00  0.13649209168E+04  0.13649209168E+04  0.00000000000E+00 0.  1.
         21   -1    0    0  501  503 -0.00000000000E+00 -0.00000000000E+00 -0.58391009192E+02  0.58391009192E+02  0.00000000000E+00 0.  1.
          6    1    1    2  501    0  0.18979934277E+02 -0.49037776308E+02  0.10673223852E+03  0.20996597855E+03  0.17300000000E+03 0.  1.
         -6    1    1    2    0  502 -0.18979934277E+02  0.49037776308E+02  0.11997976691E+04  0.12133459475E+04  0.17300000000E+03 0.  1.
<mgrwt>
<rscale>  2 0.18081466E+03</rscale>
<asrwt>0</asrwt>
<pdfrwt beam="1">  1       21 0.20998781E+00 0.18081466E+03</pdfrwt>
<pdfrwt beam="2">  1       21 0.89832332E-02 0.18081466E+03</pdfrwt>
<totfact> 0.11491109E+04</totfact>
</mgrwt>
</event>
<event>
 4    2  0.3972096E+000  0.1772471E+03  0.7546771E-02  0.1170494E+00
         21   -1    0    0  501  502  0.00000000000E+00  0.00000000000E+00  0.27231171420E+03  0.27231171420E+03  0.00000000000E+00 0. -1.
         21   -1    0    0  502  503 -0.00000000000E+00 -0.00000000000E+00 -0.17958780486E+03  0.17958780486E+03  0.00000000000E+00 0. -1.
          6    1    1    2  501    0  0.21848392783E+02 -0.31783497257E+02  0.18147644563E+03  0.25367349740E+03  0.17300000000E+03 0. -1.
         -6    1    1    2    0  503 -0.21848392783E+02  0.31783497257E+02 -0.88752536284E+02  0.19822602166E+03  0.17300000000E+03 0. -1.
<mgrwt>
<rscale>  2 0.17724712E+03</rscale>
<asrwt>0</asrwt>
<pdfrwt beam="1">  1       21 0.41894110E-01 0.17724712E+03</pdfrwt>
<pdfrwt beam="2">  1       21 0.27628893E-01 0.17724712E+03</pdfrwt>
<totfact> 0.69017625E+04</totfact>
</mgrwt>
</event>
<event>
 4    2  0.3972096E+000  0.2036426E+03  0.7546771E-02  0.1146702E+00
         21   -1    0    0  501  502  0.00000000000E+00  0.00000000000E+00  0.17576770580E+03  0.17576770580E+03  0.00000000000E+00 0. -1.
         21   -1    0    0  502  503 -0.00000000000E+00 -0.00000000000E+00 -0.37753054260E+03  0.37753054260E+03  0.00000000000E+00 0. -1.
          6    1    1    2  501    0 -0.10052619951E+03 -0.37891953818E+02  0.68541878969E+02  0.21486811333E+03  0.17300000000E+03 0. -1.
         -6    1    1    2    0  503  0.10052619951E+03  0.37891953818E+02 -0.27030471578E+03  0.33843013507E+03  0.17300000000E+03 0. -1.
<mgrwt>
<rscale>  2 0.20364262E+03</rscale>
<asrwt>0</asrwt>
<pdfrwt beam="1">  1       21 0.27041186E-01 0.20364262E+03</pdfrwt>
<pdfrwt beam="2">  1       21 0.58081622E-01 0.20364262E+03</pdfrwt>
<totfact> 0.35989064E+04</totfact>
</mgrwt>
</event>
<event>
 4    2  0.3972096E+000  0.2062059E+03  0.7546771E-02  0.1144606E+00
         21   -1    0    0  501  502  0.00000000000E+00  0.00000000000E+00  0.16015845787E+03  0.16015845787E+03  0.00000000000E+00 0.  1.
         21   -1    0    0  502  503 -0.00000000000E+00 -0.00000000000E+00 -0.55231470068E+03  0.55231470068E+03  0.00000000000E+00 0.  1.
          6    1    1    2  501    0  0.10411330204E+03 -0.41860595911E+02  0.60637028355E+02  0.21493659149E+03  0.17300000000E+03 0.  1.
         -6    1    1    2    0  503 -0.10411330204E+03  0.41860595911E+02 -0.45279327117E+03  0.49753656706E+03  0.17300000000E+03 0.  1.
<mgrwt>
<rscale>  2 0.20620594E+03</rscale>
<asrwt>0</asrwt>
<pdfrwt beam="1">  1       21 0.24639763E-01 0.20620594E+03</pdfrwt>
<pdfrwt beam="2">  1       21 0.84971492E-01 0.20620594E+03</pdfrwt>
<totfact> 0.18517729E+04</totfact>
</mgrwt>
</event>
<event>
 4    2  0.3972096E+000  0.3070690E+03  0.7546771E-02  0.1081759E+00
         21   -1    0    0  503  502  0.00000000000E+00  0.00000000000E+00  0.79701409775E+03  0.79701409775E+03  0.00000000000E+00 0.  1.
         21   -1    0    0  501  503 -0.00000000000E+00 -0.00000000000E+00 -0.16146600932E+03  0.16146600932E+03  0.00000000000E+00 0.  1.
          6    1    1    2  501    0  0.22425287731E+03 -0.11862979924E+03  0.70000818405E+02  0.31494681587E+03  0.17300000000E+03 0.  1.
         -6    1    1    2    0  502 -0.22425287731E+03  0.11862979924E+03  0.56554727002E+03  0.64353329120E+03  0.17300000000E+03 0.  1.
<mgrwt>
<rscale>  2 0.30706902E+03</rscale>
<asrwt>0</asrwt>
<pdfrwt beam="1">  1       21 0.12261755E+00 0.30706902E+03</pdfrwt>
<pdfrwt beam="2">  1       21 0.24840925E-01 0.30706902E+03</pdfrwt>
<totfact> 0.71527519E+03</totfact>
</mgrwt>
</event>
<event>
 4    2  0.3972096E+000  0.2152544E+03  0.7546771E-02  0.1137471E+00
         21   -1    0    0  501  502  0.00000000000E+00  0.00000000000E+00  0.89868099928E+02  0.89868099928E+02  0.00000000000E+00 0. -1.
         21   -1    0    0  502  503 -0.00000000000E+00 -0.00000000000E+00 -0.51887897963E+03  0.51887897963E+03  0.00000000000E+00 0.  1.
          6    1    1    2  501    0  0.25434335150E+02 -0.12553314849E+03 -0.19024731843E+03  0.28727777315E+03  0.17300000000E+03 0. -1.
         -6    1    1    2    0  503 -0.25434335150E+02  0.12553314849E+03 -0.23876356127E+03  0.32146930641E+03  0.17300000000E+03 0. -1.
<mgrwt>
<rscale>  2 0.21525445E+03</rscale>
<asrwt>0</asrwt>
<pdfrwt beam="1">  1       21 0.13825861E-01 0.21525445E+03</pdfrwt>
<pdfrwt beam="2">  1       21 0.79827537E-01 0.21525445E+03</pdfrwt>
<totfact> 0.62204120E+04</totfact>
</mgrwt>
</event>
<event>
 4    2  0.3972096E+000  0.2243454E+03  0.7546771E-02  0.1130684E+00
         21   -1    0    0  501  502  0.00000000000E+00  0.00000000000E+00  0.48023033551E+03  0.48023033551E+03  0.00000000000E+00 0.  1.
         21   -1    0    0  502  503 -0.00000000000E+00 -0.00000000000E+00 -0.72027631143E+03  0.72027631143E+03  0.00000000000E+00 0. -1.
          6    1    1    2  501    0 -0.82646835877E+02 -0.11649611840E+03  0.43484374902E+03  0.48930556010E+03  0.17300000000E+03 0.  1.
         -6    1    1    2    0  503  0.82646835877E+02  0.11649611840E+03 -0.67488972495E+03  0.71120108684E+03  0.17300000000E+03 0. -1.
<mgrwt>
<rscale>  2 0.22434537E+03</rscale>
<asrwt>0</asrwt>
<pdfrwt beam="1">  1       21 0.73881591E-01 0.22434537E+03</pdfrwt>
<pdfrwt beam="2">  1       21 0.11081174E+00 0.22434537E+03</pdfrwt>
<totfact> 0.10233247E+03</totfact>
</mgrwt>
</event>
<event>
 4    2  0.3972096E+000  0.1866309E+03  0.7546771E-02  0.1161536E+00
         21   -1    0    0  503  502  0.00000000000E+00  0.00000000000E+00  0.44670497415E+02  0.44670497415E+02  0.00000000000E+00 0.  1.
         21   -1    0    0  501  503 -0.00000000000E+00 -0.00000000000E+00 -0.83365022835E+03  0.83365022835E+03  0.00000000000E+00 0.  1.
          6    1    1    2  501    0 -0.49018350762E+02 -0.49993098272E+02 -0.50617379454E+03  0.53948403022E+03  0.17300000000E+03 0.  1.
         -6    1    1    2    0  502  0.49018350762E+02  0.49993098272E+02 -0.28280593640E+03  0.33883669555E+03  0.17300000000E+03 0.  1.
<mgrwt>
<rscale>  2 0.18663094E+03</rscale>
<asrwt>0</asrwt>
<pdfrwt beam="1">  1       21 0.68723843E-02 0.18663094E+03</pdfrwt>
<pdfrwt beam="2">  1       21 0.12825388E+00 0.18663094E+03</pdfrwt>
<totfact> 0.70038670E+04</totfact>
</mgrwt>
</event>
<event>
 4    2  0.3972096E+000  0.1747259E+03  0.7546771E-02  0.1173007E+00
         21   -1    0    0  501  502  0.00000000000E+00  0.00000000000E+00  0.36786904291E+03  0.36786904291E+03  0.00000000000E+00 0.  1.
         21   -1    0    0  502  503 -0.00000000000E+00 -0.00000000000E+00 -0.10075744186E+03  0.10075744186E+03  0.00000000000E+00 0.  1.
          6    1    1    2  501    0  0.55230511566E+00  0.24491673027E+02  0.35159030074E+02  0.17822823706E+03  0.17300000000E+03 0.  1.
         -6    1    1    2    0  503 -0.55230511566E+00 -0.24491673027E+02  0.23195257098E+03  0.29039824771E+03  0.17300000000E+03 0.  1.
<mgrwt>
<rscale>  2 0.17472592E+03</rscale>
<asrwt>0</asrwt>
<pdfrwt beam="1">  1       21 0.56595237E-01 0.17472592E+03</pdfrwt>
<pdfrwt beam="2">  1       21 0.15501145E-01 0.17472592E+03</pdfrwt>
<totfact> 0.10919351E+05</totfact>
</mgrwt>
</event>
<event>
 4    2  0.3972096E+000  0.1901288E+03  0.7546771E-02  0.1158345E+00
         21   -1    0    0  501  502  0.00000000000E+00  0.00000000000E+00  0.47480485037E+03  0.47480485037E+03  0.00000000000E+00 0.  1.
         21   -1    0    0  502  503 -0.00000000000E+00 -0.00000000000E+00 -0.80939312191E+02  0.80939312191E+02  0.00000000000E+00 0.  1.
          6    1    1    2  501    0  0.54523558319E+02  0.56983640898E+02  0.26463619022E+03  0.32585467147E+03  0.17300000000E+03 0.  1.
         -6    1    1    2    0  503 -0.54523558319E+02 -0.56983640898E+02  0.12922934796E+03  0.22988949109E+03  0.17300000000E+03 0.  1.
<mgrwt>
<rscale>  2 0.19012878E+03</rscale>
<asrwt>0</asrwt>
<pdfrwt beam="1">  1       21 0.73046898E-01 0.19012878E+03</pdfrwt>
<pdfrwt beam="2">  1       21 0.12452202E-01 0.19012878E+03</pdfrwt>
<totfact> 0.92698435E+04</totfact>
</mgrwt>
</event>
<event>
 4    2  0.3972096E+000  0.2484590E+03  0.7546771E-02  0.1114283E+00
         21   -1    0    0  501  502  0.00000000000E+00  0.00000000000E+00  0.78062937521E+02  0.78062937521E+02  0.00000000000E+00 0. -1.
         21   -1    0    0  502  503 -0.00000000000E+00 -0.00000000000E+00 -0.79312831917E+03  0.79312831917E+03  0.00000000000E+00 0. -1.
          6    1    1    2  501    0 -0.84580444461E+02  0.15700008346E+03 -0.38115286257E+03  0.45498283752E+03  0.17300000000E+03 0. -1.
         -6    1    1    2    0  503  0.84580444461E+02 -0.15700008346E+03 -0.33391251908E+03  0.41620841917E+03  0.17300000000E+03 0. -1.
<mgrwt>
<rscale>  2 0.24845901E+03</rscale>
<asrwt>0</asrwt>
<pdfrwt beam="1">  1       21 0.12009683E-01 0.24845901E+03</pdfrwt>
<pdfrwt beam="2">  1       21 0.12201974E+00 0.24845901E+03</pdfrwt>
<totfact> 0.28798927E+04</totfact>
</mgrwt>
</event>
<event>
 4    2  0.3972096E+000  0.2141042E+03  0.7546771E-02  0.1138357E+00
         21   -1    0    0  501  502  0.00000000000E+00  0.00000000000E+00  0.27928351994E+03  0.27928351994E+03  0.00000000000E+00 0. -1.
         21   -1    0    0  502  503 -0.00000000000E+00 -0.00000000000E+00 -0.42216655849E+03  0.42216655849E+03  0.00000000000E+00 0. -1.
          6    1    1    2  501    0  0.58972837738E+02  0.11150698942E+03  0.20275381124E+03  0.29487236604E+03  0.17300000000E+03 0. -1.
         -6    1    1    2    0  503 -0.58972837738E+02 -0.11150698942E+03 -0.34563684979E+03  0.40657771239E+03  0.17300000000E+03 0. -1.
<mgrwt>
<rscale>  2 0.21410419E+03</rscale>
<asrwt>0</asrwt>
<pdfrwt beam="1">  1       21 0.42966696E-01 0.21410419E+03</pdfrwt>
<pdfrwt beam="2">  1       21 0.64948701E-01 0.21410419E+03</pdfrwt>
<totfact> 0.11212380E+04</totfact>
</mgrwt>
</event>
<event>
 4    2  0.3972096E+000  0.2813384E+03  0.7546771E-02  0.1094960E+00
         21   -1    0    0  503  502  0.00000000000E+00  0.00000000000E+00  0.15564038462E+03  0.15564038462E+03  0.00000000000E+00 0. -1.
         21   -1    0    0  501  503 -0.00000000000E+00 -0.00000000000E+00 -0.66457274082E+03  0.66457274082E+03  0.00000000000E+00 0.  1.
          6    1    1    2  501    0 -0.19296330131E+03  0.10948716216E+03 -0.45317457458E+03  0.53340272720E+03  0.17300000000E+03 0.  1.
         -6    1    1    2    0  502  0.19296330131E+03 -0.10948716216E+03 -0.55757781620E+02  0.28681039825E+03  0.17300000000E+03 0. -1.
<mgrwt>
<rscale>  2 0.28133836E+03</rscale>
<asrwt>0</asrwt>
<pdfrwt beam="1">  1       21 0.23944675E-01 0.28133836E+03</pdfrwt>
<pdfrwt beam="2">  1       21 0.10224196E+00 0.28133836E+03</pdfrwt>
<totfact> 0.12162874E+04</totfact>
</mgrwt>
</event>
<event>
 4    2  0.3972096E+000  0.1789596E+03  0.7546771E-02  0.1168814E+00
         21   -1    0    0  503  502  0.00000000000E+00  0.00000000000E+00  0.35225015022E+03  0.35225015022E+03  0.00000000000E+00 0.  1.
         21   -1    0    0  501  503 -0.00000000000E+00 -0.00000000000E+00 -0.92851118091E+02  0.92851118091E+02  0.00000000000E+00 0.  1.
          6    1    1    2  501    0  0.45726457019E+02  0.25760524051E+01  0.16179560021E+03  0.24125580027E+03  0.17300000000E+03 0.  1.
         -6    1    1    2    0  502 -0.45726457019E+02 -0.25760524051E+01  0.97603431919E+02  0.20384546804E+03  0.17300000000E+03 0.  1.
<mgrwt>
<rscale>  2 0.17895962E+03</rscale>
<asrwt>0</asrwt>
<pdfrwt beam="1">  1       21 0.54192330E-01 0.17895962E+03</pdfrwt>
<pdfrwt beam="2">  1       21 0.14284788E-01 0.17895962E+03</pdfrwt>
<totfact> 0.13860773E+05</totfact>
</mgrwt>
</event>
<event>
 4    2  0.3972096E+000  0.1758332E+03  0.7546771E-02  0.1171898E+00
         21   -1    0    0  503  502  0.00000000000E+00  0.00000000000E+00  0.73732205231E+03  0.73732205231E+03  0.00000000000E+00 0. -1.
         21   -1    0    0  501  503 -0.00000000000E+00 -0.00000000000E+00 -0.43925262524E+02  0.43925262524E+02  0.00000000000E+00 0. -1.
          6    1    1    2  501    0  0.24210820132E+02  0.20053924820E+02  0.26348501691E+03  0.31676754545E+03  0.17300000000E+03 0. -1.
         -6    1    1    2    0  502 -0.24210820132E+02 -0.20053924820E+02  0.42991177288E+03  0.46447976939E+03  0.17300000000E+03 0. -1.
<mgrwt>
<rscale>  2 0.17583323E+03</rscale>
<asrwt>0</asrwt>
<pdfrwt beam="1">  1       21 0.11343415E+00 0.17583323E+03</pdfrwt>
<pdfrwt beam="2">  1       21 0.67577332E-02 0.17583323E+03</pdfrwt>
<totfact> 0.98146410E+04</totfact>
</mgrwt>
</event>
<event>
 4    2  0.3972096E+000  0.2903625E+03  0.7546771E-02  0.1090160E+00
         21   -1    0    0  503  502  0.00000000000E+00  0.00000000000E+00  0.27499989259E+04  0.27499989259E+04  0.00000000000E+00 0. -1.
         21   -1    0    0  501  503 -0.00000000000E+00 -0.00000000000E+00 -0.64734792855E+02  0.64734792855E+02  0.00000000000E+00 0.  1.
          6    1    1    2  501    0 -0.48066620111E+02  0.22819064041E+03  0.32153810603E+03  0.43324025894E+03  0.17300000000E+03 0.  1.
         -6    1    1    2    0  502  0.48066620111E+02 -0.22819064041E+03  0.23637260270E+04  0.23814934598E+04  0.17300000000E+03 0. -1.
<mgrwt>
<rscale>  2 0.29036248E+03</rscale>
<asrwt>0</asrwt>
<pdfrwt beam="1">  1       21 0.42307667E+00 0.29036248E+03</pdfrwt>
<pdfrwt beam="2">  1       21 0.99592010E-02 0.29036248E+03</pdfrwt>
<totfact> 0.44711963E+02</totfact>
</mgrwt>
</event>
<event>
 4    2  0.3972096E+000  0.2034059E+03  0.7546771E-02  0.1146897E+00
         21   -1    0    0  503  502  0.00000000000E+00  0.00000000000E+00  0.11252042410E+03  0.11252042410E+03  0.00000000000E+00 0.  1.
         21   -1    0    0  501  503 -0.00000000000E+00 -0.00000000000E+00 -0.40358399902E+03  0.40358399902E+03  0.00000000000E+00 0.  1.
          6    1    1    2  501    0  0.42950501450E+02  0.97980637047E+02 -0.22247685206E+03  0.30144634765E+03  0.17300000000E+03 0.  1.
         -6    1    1    2    0  502 -0.42950501450E+02 -0.97980637047E+02 -0.68586722863E+02  0.21465807547E+03  0.17300000000E+03 0.  1.
<mgrwt>
<rscale>  2 0.20340588E+03</rscale>
<asrwt>0</asrwt>
<pdfrwt beam="1">  1       21 0.17310834E-01 0.20340588E+03</pdfrwt>
<pdfrwt beam="2">  1       21 0.62089846E-01 0.20340588E+03</pdfrwt>
<totfact> 0.72279334E+04</totfact>
</mgrwt>
</event>
<event>
 4    2  0.3972096E+000  0.3266796E+03  0.7546771E-02  0.1072616E+00
         21   -1    0    0  503  502  0.00000000000E+00  0.00000000000E+00  0.25511409329E+03  0.25511409329E+03  0.00000000000E+00 0.  1.
         21   -1    0    0  501  503 -0.00000000000E+00 -0.00000000000E+00 -0.48821335124E+03  0.48821335124E+03  0.00000000000E+00 0. -1.
          6    1    1    2  501    0  0.22642312234E+03 -0.15975952673E+03 -0.25717404455E+03  0.41576198228E+03  0.17300000000E+03 0. -1.
         -6    1    1    2    0  502 -0.22642312234E+03  0.15975952673E+03  0.24074786607E+02  0.32756546226E+03  0.17300000000E+03 0.  1.
<mgrwt>
<rscale>  2 0.32667956E+03</rscale>
<asrwt>0</asrwt>
<pdfrwt beam="1">  1       21 0.39248322E-01 0.32667956E+03</pdfrwt>
<pdfrwt beam="2">  1       21 0.75109746E-01 0.32667956E+03</pdfrwt>
<totfact> 0.92187707E+03</totfact>
</mgrwt>
</event>
<event>
 4    2  0.3972096E+000  0.1743644E+03  0.7546771E-02  0.1173371E+00
         21   -1    0    0  501  502  0.00000000000E+00  0.00000000000E+00  0.17499285867E+04  0.17499285867E+04  0.00000000000E+00 0.  1.
         21   -1    0    0  502  503 -0.00000000000E+00 -0.00000000000E+00 -0.17504455198E+02  0.17504455198E+02  0.00000000000E+00 0.  1.
          6    1    1    2  501    0  0.34685975493E+01  0.21492462000E+02  0.94255284810E+03  0.95854516250E+03  0.17300000000E+03 0.  1.
         -6    1    1    2    0  503 -0.34685975493E+01 -0.21492462000E+02  0.78987128339E+03  0.80888787939E+03  0.17300000000E+03 0.  1.
<mgrwt>
<rscale>  2 0.17436444E+03</rscale>
<asrwt>0</asrwt>
<pdfrwt beam="1">  1       21 0.26921964E+00 0.17436444E+03</pdfrwt>
<pdfrwt beam="2">  1       21 0.26929945E-02 0.17436444E+03</pdfrwt>
<totfact> 0.39470079E+04</totfact>
</mgrwt>
</event>
<event>
 4    2  0.3972096E+000  0.1817068E+03  0.7546771E-02  0.1166161E+00
         21   -1    0    0  501  502  0.00000000000E+00  0.00000000000E+00  0.17744044845E+03  0.17744044845E+03  0.00000000000E+00 0. -1.
         21   -1    0    0  502  503 -0.00000000000E+00 -0.00000000000E+00 -0.18739337532E+03  0.18739337532E+03  0.00000000000E+00 0. -1.
          6    1    1    2  501    0  0.30197196819E+02 -0.46652830964E+02  0.10319985788E+02  0.18199961384E+03  0.17300000000E+03 0. -1.
         -6    1    1    2    0  503 -0.30197196819E+02  0.46652830964E+02 -0.20272912655E+02  0.18283420993E+03  0.17300000000E+03 0. -1.
<mgrwt>
<rscale>  2 0.18170679E+03</rscale>
<asrwt>0</asrwt>
<pdfrwt beam="1">  1       21 0.27298530E-01 0.18170679E+03</pdfrwt>
<pdfrwt beam="2">  1       21 0.28829750E-01 0.18170679E+03</pdfrwt>
<totfact> 0.14783806E+05</totfact>
</mgrwt>
</event>
<event>
 4    2  0.3972096E+000  0.3986793E+03  0.7546771E-02  0.1044238E+00
         21   -1    0    0  503  502  0.00000000000E+00  0.00000000000E+00  0.76530394123E+03  0.76530394123E+03  0.00000000000E+00 0. -1.
         21   -1    0    0  501  503 -0.00000000000E+00 -0.00000000000E+00 -0.22009285161E+03  0.22009285161E+03  0.00000000000E+00 0. -1.
          6    1    1    2  501    0 -0.23997242449E+03  0.26726278367E+03  0.38957099845E+03  0.55741431887E+03  0.17300000000E+03 0. -1.
         -6    1    1    2    0  502  0.23997242449E+03 -0.26726278367E+03  0.15564009117E+03  0.42798247398E+03  0.17300000000E+03 0. -1.
<mgrwt>
<rscale>  2 0.39867927E+03</rscale>
<asrwt>0</asrwt>
<pdfrwt beam="1">  1       21 0.11773907E+00 0.39867927E+03</pdfrwt>
<pdfrwt beam="2">  1       21 0.33860439E-01 0.39867927E+03</pdfrwt>
<totfact> 0.41370658E+03</totfact>
</mgrwt>
</event>
<event>
 4    2  0.3972096E+000  0.1745340E+03  0.7546771E-02  0.1173200E+00
         21   -1    0    0  501  502  0.00000000000E+00  0.00000000000E+00  0.56623708979E+02  0.56623708979E+02  0.00000000000E+00 0. -1.
         21   -1    0    0  502  503 -0.00000000000E+00 -0.00000000000E+00 -0.63993490646E+03  0.63993490646E+03  0.00000000000E+00 0. -1.
          6    1    1    2  501    0 -0.13896776998E+02 -0.18439353695E+02 -0.15263637793E+03  0.23186201509E+03  0.17300000000E+03 0. -1.
         -6    1    1    2    0  503  0.13896776998E+02  0.18439353695E+02 -0.43067481955E+03  0.46469660035E+03  0.17300000000E+03 0. -1.
<mgrwt>
<rscale>  2 0.17453404E+03</rscale>
<asrwt>0</asrwt>
<pdfrwt beam="1">  1       21 0.87113403E-02 0.17453404E+03</pdfrwt>
<pdfrwt beam="2">  1       21 0.98451519E-01 0.17453404E+03</pdfrwt>
<totfact> 0.88786511E+04</totfact>
</mgrwt>
</event>
<event>
 4    2  0.3972096E+000  0.5117724E+03  0.7546771E-02  0.1010751E+00
         21   -1    0    0  501  502  0.00000000000E+00  0.00000000000E+00  0.20778764783E+04  0.20778764783E+04  0.00000000000E+00 0.  1.
         21   -1    0    0  502  503 -0.00000000000E+00 -0.00000000000E+00 -0.12644600671E+03  0.12644600671E+03  0.00000000000E+00 0. -1.
          6    1    1    2  501    0 -0.58778536813E+02  0.47804510414E+03  0.91383728196E+03  0.10473822683E+04  0.17300000000E+03 0.  1.
         -6    1    1    2    0  503  0.58778536813E+02 -0.47804510414E+03  0.10375931897E+04  0.11569402168E+04  0.17300000000E+03 0. -1.
<mgrwt>
<rscale>  2 0.51177245E+03</rscale>
<asrwt>0</asrwt>
<pdfrwt beam="1">  1       21 0.31967328E+00 0.51177245E+03</pdfrwt>
<pdfrwt beam="2">  1       21 0.19453233E-01 0.51177245E+03</pdfrwt>
<totfact> 0.48947220E+02</totfact>
</mgrwt>
</event>
<event>
 4    2  0.3972096E+000  0.2281350E+03  0.7546771E-02  0.1127959E+00
         21   -1    0    0  501  502  0.00000000000E+00  0.00000000000E+00  0.24906308351E+03  0.24906308351E+03  0.00000000000E+00 0.  1.
         21   -1    0    0  502  503 -0.00000000000E+00 -0.00000000000E+00 -0.38447996791E+03  0.38447996791E+03  0.00000000000E+00 0. -1.
          6    1    1    2  501    0  0.46753091277E+02  0.14117621769E+03  0.14631720406E+03  0.27102453798E+03  0.17300000000E+03 0.  1.
         -6    1    1    2    0  503 -0.46753091277E+02 -0.14117621769E+03 -0.28173408845E+03  0.36251851343E+03  0.17300000000E+03 0. -1.
<mgrwt>
<rscale>  2 0.22813500E+03</rscale>
<asrwt>0</asrwt>
<pdfrwt beam="1">  1       21 0.38317397E-01 0.22813500E+03</pdfrwt>
<pdfrwt beam="2">  1       21 0.59150764E-01 0.22813500E+03</pdfrwt>
<totfact> 0.17183251E+04</totfact>
</mgrwt>
</event>
<event>
 4    2  0.3972096E+000  0.1903839E+03  0.7546771E-02  0.1158116E+00
         21   -1    0    0  501  502  0.00000000000E+00  0.00000000000E+00  0.85818494019E+03  0.85818494019E+03  0.00000000000E+00 0.  1.
         21   -1    0    0  502  503 -0.00000000000E+00 -0.00000000000E+00 -0.43089882459E+02  0.43089882459E+02  0.00000000000E+00 0. -1.
          6    1    1    2  501    0 -0.78494652621E+02  0.12473968684E+02  0.47099644138E+03  0.50801934823E+03  0.17300000000E+03 0.  1.
         -6    1    1    2    0  503  0.78494652621E+02 -0.12473968684E+02  0.34409861635E+03  0.39325547441E+03  0.17300000000E+03 0.  1.
<mgrwt>
<rscale>  2 0.19038385E+03</rscale>
<asrwt>0</asrwt>
<pdfrwt beam="1">  1       21 0.13202844E+00 0.19038385E+03</pdfrwt>
<pdfrwt beam="2">  1       21 0.66292133E-02 0.19038385E+03</pdfrwt>
<totfact> 0.69141295E+04</totfact>
</mgrwt>
</event>
<event>
 4    2  0.3972096E+000  0.2251514E+03  0.7546771E-02  0.1130100E+00
         21   -1    0    0  503  502  0.00000000000E+00  0.00000000000E+00  0.97540303411E+03  0.97540303411E+03  0.00000000000E+00 0.  1.
         21   -1    0    0  501  503 -0.00000000000E+00 -0.00000000000E+00 -0.55511942611E+02  0.55511942611E+02  0.00000000000E+00 0.  1.
          6    1    1    2  501    0 -0.12718314294E+03  0.67739093771E+02  0.32976987906E+03  0.39930102655E+03  0.17300000000E+03 0.  1.
         -6    1    1    2    0  502  0.12718314294E+03 -0.67739093771E+02  0.59012121244E+03  0.63161395016E+03  0.17300000000E+03 0.  1.
<mgrwt>
<rscale>  2 0.22515136E+03</rscale>
<asrwt>0</asrwt>
<pdfrwt beam="1">  1       21 0.15006199E+00 0.22515136E+03</pdfrwt>
<pdfrwt beam="2">  1       21 0.85402995E-02 0.22515136E+03</pdfrwt>
<totfact> 0.31355118E+04</totfact>
</mgrwt>
</event>
<event>
 4    2  0.3972096E+000  0.2105206E+03  0.7546771E-02  0.1141154E+00
         21   -1    0    0  503  502  0.00000000000E+00  0.00000000000E+00  0.47300137142E+03  0.47300137142E+03  0.00000000000E+00 0.  1.
         21   -1    0    0  501  503 -0.00000000000E+00 -0.00000000000E+00 -0.95452831665E+02  0.95452831665E+02  0.00000000000E+00 0.  1.
          6    1    1    2  501    0  0.60455249748E+02 -0.10361020054E+03  0.15022767602E+03  0.25862572479E+03  0.17300000000E+03 0.  1.
         -6    1    1    2    0  502 -0.60455249748E+02  0.10361020054E+03  0.22732086373E+03  0.30982847830E+03  0.17300000000E+03 0.  1.
<mgrwt>
<rscale>  2 0.21052057E+03</rscale>
<asrwt>0</asrwt>
<pdfrwt beam="1">  1       21 0.72769440E-01 0.21052057E+03</pdfrwt>
<pdfrwt beam="2">  1       21 0.14685051E-01 0.21052057E+03</pdfrwt>
<totfact> 0.68772553E+04</totfact>
</mgrwt>
</event>
<event>
 4    2  0.3972096E+000  0.2088719E+03  0.7546771E-02  0.1142462E+00
         21   -1    0    0  501  502  0.00000000000E+00  0.00000000000E+00  0.60903460783E+03  0.60903460783E+03  0.00000000000E+00 0.  1.
         21   -1    0    0  502  503 -0.00000000000E+00 -0.00000000000E+00 -0.71637970277E+02  0.71637970277E+02  0.00000000000E+00 0.  1.
          6    1    1    2  501    0 -0.11587293464E+03  0.16489954340E+02  0.27129894332E+03  0.34238950367E+03  0.17300000000E+03 0.  1.
         -6    1    1    2    0  503  0.11587293464E+03 -0.16489954340E+02  0.26609769423E+03  0.33828307444E+03  0.17300000000E+03 0.  1.
<mgrwt>
<rscale>  2 0.20887186E+03</rscale>
<asrwt>0</asrwt>
<pdfrwt beam="1">  1       21 0.93697629E-01 0.20887186E+03</pdfrwt>
<pdfrwt beam="2">  1       21 0.11021227E-01 0.20887186E+03</pdfrwt>
<totfact> 0.64842233E+04</totfact>
</mgrwt>
</event>
<event>
 4    2  0.3972096E+000  0.1763524E+03  0.7546771E-02  0.1171381E+00
         21   -1    0    0  501  502  0.00000000000E+00  0.00000000000E+00  0.29379472279E+03  0.29379472279E+03  0.00000000000E+00 0. -1.
         21   -1    0    0  502  503 -0.00000000000E+00 -0.00000000000E+00 -0.10625147552E+03  0.10625147552E+03  0.00000000000E+00 0. -1.
          6    1    1    2  501    0 -0.15473932326E+02 -0.30523972088E+02  0.10596316236E+03  0.20573854095E+03  0.17300000000E+03 0. -1.
         -6    1    1    2    0  503  0.15473932326E+02  0.30523972088E+02  0.81580084911E+02  0.19430765736E+03  0.17300000000E+03 0. -1.
<mgrwt>
<rscale>  2 0.17635236E+03</rscale>
<asrwt>0</asrwt>
<pdfrwt beam="1">  1       21 0.45199188E-01 0.17635236E+03</pdfrwt>
<pdfrwt beam="2">  1       21 0.16346381E-01 0.17635236E+03</pdfrwt>
<totfact> 0.15825569E+05</totfact>
</mgrwt>
</event>
<event>
 4    2  0.3972096E+000  0.2043174E+03  0.7546771E-02  0.1146147E+00
         21   -1    0    0  503  502  0.00000000000E+00  0.00000000000E+00  0.26425111520E+03  0.26425111520E+03  0.00000000000E+00 0.  1.
         21   -1    0    0  501  503 -0.00000000000E+00 -0.00000000000E+00 -0.18051707097E+03  0.18051707097E+03  0.00000000000E+00 0.  1.
          6    1    1    2  501    0 -0.20465477991E+02 -0.10676024997E+03 -0.36714899577E+02  0.20758990971E+03  0.17300000000E+03 0.  1.
         -6    1    1    2    0  502  0.20465477991E+02  0.10676024997E+03  0.12044894380E+03  0.23717827646E+03  0.17300000000E+03 0.  1.
<mgrwt>
<rscale>  2 0.20431737E+03</rscale>
<asrwt>0</asrwt>
<pdfrwt beam="1">  1       21 0.40654018E-01 0.20431737E+03</pdfrwt>
<pdfrwt beam="2">  1       21 0.27771857E-01 0.20431737E+03</pdfrwt>
<totfact> 0.71779422E+04</totfact>
</mgrwt>
</event>
<event>
 4    2  0.3972096E+000  0.2038830E+03  0.7546771E-02  0.1146504E+00
         21   -1    0    0  501  502  0.00000000000E+00  0.00000000000E+00  0.85825301241E+02  0.85825301241E+02  0.00000000000E+00 0.  1.
         21   -1    0    0  502  503 -0.00000000000E+00 -0.00000000000E+00 -0.98118858248E+03  0.98118858248E+03  0.00000000000E+00 0. -1.
          6    1    1    2  501    0  0.10730736737E+03  0.11153388163E+02 -0.68036645865E+02  0.21493546552E+03  0.17300000000E+03 0.  1.
         -6    1    1    2    0  503 -0.10730736737E+03 -0.11153388163E+02 -0.82732663538E+03  0.85207841820E+03  0.17300000000E+03 0. -1.
<mgrwt>
<rscale>  2 0.20388298E+03</rscale>
<asrwt>0</asrwt>
<pdfrwt beam="1">  1       21 0.13203893E-01 0.20388298E+03</pdfrwt>
<pdfrwt beam="2">  1       21 0.15095208E+00 0.20388298E+03</pdfrwt>
<totfact> 0.14413388E+04</totfact>
</mgrwt>
</event>
<event>
 4    2  0.3972096E+000  0.2066220E+03  0.7546771E-02  0.1144269E+00
         21   -1    0    0  503  502  0.00000000000E+00  0.00000000000E+00  0.44260588809E+02  0.44260588809E+02  0.00000000000E+00 0.  1.
         21   -1    0    0  501  503 -0.00000000000E+00 -0.00000000000E+00 -0.13003375579E+04  0.13003375579E+04  0.00000000000E+00 0. -1.
          6    1    1    2  501    0  0.55654774524E+02 -0.98316740153E+02 -0.96966448384E+03  0.99143423713E+03  0.17300000000E+03 0. -1.
         -6    1    1    2    0  502 -0.55654774524E+02  0.98316740153E+02 -0.28641248522E+03  0.35316390955E+03  0.17300000000E+03 0.  1.
<mgrwt>
<rscale>  2 0.20662196E+03</rscale>
<asrwt>0</asrwt>
<pdfrwt beam="1">  1       21 0.68093205E-02 0.20662196E+03</pdfrwt>
<pdfrwt beam="2">  1       21 0.20005196E+00 0.20662196E+03</pdfrwt>
<totfact> 0.21064756E+04</totfact>
</mgrwt>
</event>
<event>
 4    2  0.3972096E+000  0.1921853E+03  0.7546771E-02  0.1156505E+00
         21   -1    0    0  503  502  0.00000000000E+00  0.00000000000E+00  0.51665757215E+02  0.51665757215E+02  0.00000000000E+00 0. -1.
         21   -1    0    0  501  503 -0.00000000000E+00 -0.00000000000E+00 -0.83407046194E+03  0.83407046194E+03  0.00000000000E+00 0.  1.
          6    1    1    2  501    0  0.65456789619E+02  0.52168912866E+02 -0.55861209651E+03  0.59074754434E+03  0.17300000000E+03 0.  1.
         -6    1    1    2    0  502 -0.65456789619E+02 -0.52168912866E+02 -0.22379260821E+03  0.29498867481E+03  0.17300000000E+03 0. -1.
<mgrwt>
<rscale>  2 0.19218529E+03</rscale>
<asrwt>0</asrwt>
<pdfrwt beam="1">  1       21 0.79485789E-02 0.19218529E+03</pdfrwt>
<pdfrwt beam="2">  1       21 0.12831852E+00 0.19218529E+03</pdfrwt>
<totfact> 0.54221407E+04</totfact>
</mgrwt>
</event>
<event>
 4    2  0.3972096E+000  0.2068388E+03  0.7546771E-02  0.1144094E+00
         21   -1    0    0  503  502  0.00000000000E+00  0.00000000000E+00  0.67474626090E+02  0.67474626090E+02  0.00000000000E+00 0.  1.
         21   -1    0    0  501  503 -0.00000000000E+00 -0.00000000000E+00 -0.90117169202E+03  0.90117169202E+03  0.00000000000E+00 0.  1.
          6    1    1    2  501    0 -0.10552186356E+03  0.41454102731E+02 -0.68053376515E+03  0.71127245964E+03  0.17300000000E+03 0.  1.
         -6    1    1    2    0  502  0.10552186356E+03 -0.41454102731E+02 -0.15316330078E+03  0.25737385848E+03  0.17300000000E+03 0.  1.
<mgrwt>
<rscale>  2 0.20683884E+03</rscale>
<asrwt>0</asrwt>
<pdfrwt beam="1">  1       21 0.10380712E-01 0.20683884E+03</pdfrwt>
<pdfrwt beam="2">  1       21 0.13864179E+00 0.20683884E+03</pdfrwt>
<totfact> 0.27628585E+04</totfact>
</mgrwt>
</event>
<event>
 4    2  0.3972096E+000  0.2521579E+03  0.7546771E-02  0.1111949E+00
         21   -1    0    0  503  502  0.00000000000E+00  0.00000000000E+00  0.15210640057E+03  0.15210640057E+03  0.00000000000E+00 0.  1.
         21   -1    0    0  501  503 -0.00000000000E+00 -0.00000000000E+00 -0.44425432950E+03  0.44425432950E+03  0.00000000000E+00 0.  1.
          6    1    1    2  501    0  0.15653177799E+03 -0.95668257613E+02 -0.73614854203E+02  0.26268376386E+03  0.17300000000E+03 0.  1.
         -6    1    1    2    0  502 -0.15653177799E+03  0.95668257613E+02 -0.21853307473E+03  0.33367696622E+03  0.17300000000E+03 0.  1.
<mgrwt>
<rscale>  2 0.25215791E+03</rscale>
<asrwt>0</asrwt>
<pdfrwt beam="1">  1       21 0.23400985E-01 0.25215791E+03</pdfrwt>
<pdfrwt beam="2">  1       21 0.68346819E-01 0.25215791E+03</pdfrwt>
<totfact> 0.32574216E+04</totfact>
</mgrwt>
</event>
<event>
 4    2  0.3972096E+000  0.1844828E+03  0.7546771E-02  0.1163534E+00
         21   -1    0    0  503  502  0.00000000000E+00  0.00000000000E+00  0.62512950529E+03  0.62512950529E+03  0.00000000000E+00 0. -1.
         21   -1    0    0  501  503 -0.00000000000E+00 -0.00000000000E+00 -0.55598688713E+02  0.55598688713E+02  0.00000000000E+00 0. -1.
          6    1    1    2  501    0  0.38367274359E+01 -0.63954482384E+02  0.33383819593E+03  0.38142081400E+03  0.17300000000E+03 0.  1.
         -6    1    1    2    0  502 -0.38367274359E+01  0.63954482384E+02  0.23569262065E+03  0.29930738000E+03  0.17300000000E+03 0.  1.
<mgrwt>
<rscale>  2 0.18448278E+03</rscale>
<asrwt>0</asrwt>
<pdfrwt beam="1">  1       21 0.96173765E-01 0.18448278E+03</pdfrwt>
<pdfrwt beam="2">  1       21 0.85536449E-02 0.18448278E+03</pdfrwt>
<totfact> 0.96432591E+04</totfact>
</mgrwt>
</event>
<event>
 4    2  0.3972096E+000  0.1935790E+03  0.7546771E-02  0.1155272E+00
         21   -1    0    0  501  502  0.00000000000E+00  0.00000000000E+00  0.13188172162E+03  0.13188172162E+03  0.00000000000E+00 0. -1.
         21   -1    0    0  502  503 -0.00000000000E+00 -0.00000000000E+00 -0.45122505814E+03  0.45122505814E+03  0.00000000000E+00 0.  1.
          6    1    1    2  501    0 -0.15696078309E+00 -0.86854981339E+02  0.17743557599E+02  0.19439044796E+03  0.17300000000E+03 0. -1.
         -6    1    1    2    0  503  0.15696078309E+00  0.86854981339E+02 -0.33708689413E+03  0.38871633181E+03  0.17300000000E+03 0.  1.
<mgrwt>
<rscale>  2 0.19357896E+03</rscale>
<asrwt>0</asrwt>
<pdfrwt beam="1">  1       21 0.20289496E-01 0.19357896E+03</pdfrwt>
<pdfrwt beam="2">  1       21 0.69419239E-01 0.19357896E+03</pdfrwt>
<totfact> 0.42391255E+04</totfact>
</mgrwt>
</event>
<event>
 4    2  0.3972096E+000  0.1991971E+03  0.7546771E-02  0.1150418E+00
         21   -1    0    0  501  502  0.00000000000E+00  0.00000000000E+00  0.17246298994E+04  0.17246298994E+04  0.00000000000E+00 0.  1.
         21   -1    0    0  502  503 -0.00000000000E+00 -0.00000000000E+00 -0.25564455661E+02  0.25564455661E+02  0.00000000000E+00 0.  1.
          6    1    1    2  501    0  0.33022818788E+02 -0.93058905411E+02  0.57277647095E+03  0.60642588344E+03  0.17300000000E+03 0.  1.
         -6    1    1    2    0  503 -0.33022818788E+02  0.93058905411E+02  0.11262889728E+04  0.11437684716E+04  0.17300000000E+03 0.  1.
<mgrwt>
<rscale>  2 0.19919705E+03</rscale>
<asrwt>0</asrwt>
<pdfrwt beam="1">  1       21 0.26532759E+00 0.19919705E+03</pdfrwt>
<pdfrwt beam="2">  1       21 0.39329945E-02 0.19919705E+03</pdfrwt>
<totfact> 0.21683655E+04</totfact>
</mgrwt>
</event>
<event>
 4    2  0.3972096E+000  0.3952309E+03  0.7546771E-02  0.1045444E+00
         21   -1    0    0  503  502  0.00000000000E+00  0.00000000000E+00  0.37767993219E+03  0.37767993219E+03  0.00000000000E+00 0. -1.
         21   -1    0    0  501  503 -0.00000000000E+00 -0.00000000000E+00 -0.59472793802E+03  0.59472793802E+03  0.00000000000E+00 0. -1.
          6    1    1    2  501    0 -0.32265916442E+03 -0.14889423484E+03 -0.37684531231E+03  0.54609506404E+03  0.17300000000E+03 0. -1.
         -6    1    1    2    0  502  0.32265916442E+03  0.14889423484E+03  0.15979730647E+03  0.42631280617E+03  0.17300000000E+03 0. -1.
<mgrwt>
<rscale>  2 0.39523086E+03</rscale>
<asrwt>0</asrwt>
<pdfrwt beam="1">  1       21 0.58104605E-01 0.39523086E+03</pdfrwt>
<pdfrwt beam="2">  1       21 0.91496606E-01 0.39523086E+03</pdfrwt>
<totfact> 0.24845863E+03</totfact>
</mgrwt>
</event>
<event>
 4    2  0.3972096E+000  0.2905381E+03  0.7546771E-02  0.1090069E+00
         21   -1    0    0  503  502  0.00000000000E+00  0.00000000000E+00  0.56312976572E+03  0.56312976572E+03  0.00000000000E+00 0.  1.
         21   -1    0    0  501  503 -0.00000000000E+00 -0.00000000000E+00 -0.21571412004E+04  0.21571412004E+04  0.00000000000E+00 0.  1.
          6    1    1    2  501    0  0.41091108330E+02 -0.22977136582E+03 -0.21090328527E+04  0.21289508998E+04  0.17300000000E+03 0.  1.
         -6    1    1    2    0  502 -0.41091108330E+02  0.22977136582E+03  0.51502141809E+03  0.59132006631E+03  0.17300000000E+03 0.  1.
<mgrwt>
<rscale>  2 0.29053805E+03</rscale>
<asrwt>0</asrwt>
<pdfrwt beam="1">  1       21 0.86635349E-01 0.29053805E+03</pdfrwt>
<pdfrwt beam="2">  1       21 0.33186787E+00 0.29053805E+03</pdfrwt>
<totfact> 0.22056430E+01</totfact>
</mgrwt>
</event>
<event>
 4    2  0.3972096E+000  0.2138131E+03  0.7546771E-02  0.1138582E+00
         21   -1    0    0  503  502  0.00000000000E+00  0.00000000000E+00  0.57034806063E+02  0.57034806063E+02  0.00000000000E+00 0. -1.
         21   -1    0    0  501  503 -0.00000000000E+00 -0.00000000000E+00 -0.87616692772E+03  0.87616692772E+03  0.00000000000E+00 0. -1.
          6    1    1    2  501    0 -0.72169465187E+02  0.10285230224E+03 -0.54573625979E+03  0.58612634562E+03  0.17300000000E+03 0. -1.
         -6    1    1    2    0  502  0.72169465187E+02 -0.10285230224E+03 -0.27339586186E+03  0.34707538816E+03  0.17300000000E+03 0. -1.
<mgrwt>
<rscale>  2 0.21381307E+03</rscale>
<asrwt>0</asrwt>
<pdfrwt beam="1">  1       21 0.87745861E-02 0.21381307E+03</pdfrwt>
<pdfrwt beam="2">  1       21 0.13479490E+00 0.21381307E+03</pdfrwt>
<totfact> 0.39795150E+04</totfact>
</mgrwt>
</event>
<event>
 4    2  0.3972096E+000  0.2402331E+03  0.7546771E-02  0.1119638E+00
         21   -1    0    0  503  502  0.00000000000E+00  0.00000000000E+00  0.12801090051E+03  0.12801090051E+03  0.00000000000E+00 0.  1.
         21   -1    0    0  501  503 -0.00000000000E+00 -0.00000000000E+00 -0.45109928672E+03  0.45109928672E+03  0.00000000000E+00 0.  1.
          6    1    1    2  501    0  0.16286663153E+03 -0.35460010538E+02 -0.16853646599E+03  0.29345611662E+03  0.17300000000E+03 0.  1.
         -6    1    1    2    0  502 -0.16286663153E+03  0.35460010538E+02 -0.15455192022E+03  0.28565407061E+03  0.17300000000E+03 0.  1.
<mgrwt>
<rscale>  2 0.24023312E+03</rscale>
<asrwt>0</asrwt>
<pdfrwt beam="1">  1       21 0.19693984E-01 0.24023312E+03</pdfrwt>
<pdfrwt beam="2">  1       21 0.69399892E-01 0.24023312E+03</pdfrwt>
<totfact> 0.43861390E+04</totfact>
</mgrwt>
</event>
<event>
 4    2  0.3972096E+000  0.1804239E+03  0.7546771E-02  0.1167393E+00
         21   -1    0    0  501  502  0.00000000000E+00  0.00000000000E+00  0.15476812960E+03  0.15476812960E+03  0.00000000000E+00 0. -1.
         21   -1    0    0  502  503 -0.00000000000E+00 -0.00000000000E+00 -0.30500604788E+03  0.30500604788E+03  0.00000000000E+00 0. -1.
          6    1    1    2  501    0 -0.19037665836E+02 -0.47553533369E+02  0.52959067440E+02  0.18803572554E+03  0.17300000000E+03 0. -1.
         -6    1    1    2    0  503  0.19037665836E+02  0.47553533369E+02 -0.20319698572E+03  0.27173845194E+03  0.17300000000E+03 0. -1.
<mgrwt>
<rscale>  2 0.18042387E+03</rscale>
<asrwt>0</asrwt>
<pdfrwt beam="1">  1       21 0.23810482E-01 0.18042387E+03</pdfrwt>
<pdfrwt beam="2">  1       21 0.46924007E-01 0.18042387E+03</pdfrwt>
<totfact> 0.72622957E+04</totfact>
</mgrwt>
</event>
<event>
 4    2  0.3972096E+000  0.1967815E+03  0.7546771E-02  0.1152483E+00
         21   -1    0    0  503  502  0.00000000000E+00  0.00000000000E+00  0.34209920741E+03  0.34209920741E+03  0.00000000000E+00 0. -1.
         21   -1    0    0  501  503 -0.00000000000E+00 -0.00000000000E+00 -0.28533612724E+03  0.28533612724E+03  0.00000000000E+00 0. -1.
          6    1    1    2  501    0  0.86528710042E+02 -0.36148678224E+02 -0.21529095653E+03  0.29167300280E+03  0.17300000000E+03 0. -1.
         -6    1    1    2    0  502 -0.86528710042E+02  0.36148678224E+02  0.27205403670E+03  0.33576233184E+03  0.17300000000E+03 0. -1.
<mgrwt>
<rscale>  2 0.19678146E+03</rscale>
<asrwt>0</asrwt>
<pdfrwt beam="1">  1       21 0.52630647E-01 0.19678146E+03</pdfrwt>
<pdfrwt beam="2">  1       21 0.43897866E-01 0.19678146E+03</pdfrwt>
<totfact> 0.17020977E+04</totfact>
</mgrwt>
</event>
<event>
 4    2  0.3972096E+000  0.1866280E+03  0.7546771E-02  0.1161538E+00
         21   -1    0    0  503  502  0.00000000000E+00  0.00000000000E+00  0.17049924052E+03  0.17049924052E+03  0.00000000000E+00 0.  1.
         21   -1    0    0  501  503 -0.00000000000E+00 -0.00000000000E+00 -0.35577352364E+03  0.35577352364E+03  0.00000000000E+00 0. -1.
          6    1    1    2  501    0  0.68641008103E+02  0.13762986337E+02 -0.26434396923E+03  0.32358575657E+03  0.17300000000E+03 0. -1.
         -6    1    1    2    0  502 -0.68641008103E+02 -0.13762986337E+02  0.79069686104E+02  0.20268700759E+03  0.17300000000E+03 0.  1.
<mgrwt>
<rscale>  2 0.18662799E+03</rscale>
<asrwt>0</asrwt>
<pdfrwt beam="1">  1       21 0.26230652E-01 0.18662799E+03</pdfrwt>
<pdfrwt beam="2">  1       21 0.54734388E-01 0.18662799E+03</pdfrwt>
<totfact> 0.43665734E+04</totfact>
</mgrwt>
</event>
<event>
 4    2  0.3972096E+000  0.1980769E+03  0.7546771E-02  0.1151372E+00
         21   -1    0    0  501  502  0.00000000000E+00  0.00000000000E+00  0.40617786853E+03  0.40617786853E+03  0.00000000000E+00 0.  1.
         21   -1    0    0  502  503 -0.00000000000E+00 -0.00000000000E+00 -0.96986598387E+02  0.96986598387E+02  0.00000000000E+00 0.  1.
          6    1    1    2  501    0 -0.35095473664E+02 -0.89854093794E+02  0.13859435333E+03  0.24174955061E+03  0.17300000000E+03 0.  1.
         -6    1    1    2    0  503  0.35095473664E+02  0.89854093794E+02  0.17059691681E+03  0.26141491631E+03  0.17300000000E+03 0.  1.
<mgrwt>
<rscale>  2 0.19807688E+03</rscale>
<asrwt>0</asrwt>
<pdfrwt beam="1">  1       21 0.62488902E-01 0.19807688E+03</pdfrwt>
<pdfrwt beam="2">  1       21 0.14921015E-01 0.19807688E+03</pdfrwt>
<totfact> 0.93813741E+04</totfact>
</mgrwt>
</event>
<event>
 4    2  0.3972096E+000  0.2188346E+03  0.7546771E-02  0.1134755E+00
         21   -1    0    0  501  502  0.00000000000E+00  0.00000000000E+00  0.45645415839E+03  0.45645415839E+03  0.00000000000E+00 0.  1.
         21   -1    0    0  502  503 -0.00000000000E+00 -0.00000000000E+00 -0.11186751381E+03  0.11186751381E+03  0.00000000000E+00 0. -1.
          6    1    1    2  501    0  0.11546851075E+03 -0.68019264658E+02  0.24313731807E+03  0.32711519802E+03  0.17300000000E+03 0. -1.
         -6    1    1    2    0  503 -0.11546851075E+03  0.68019264658E+02  0.10144932651E+03  0.24120647419E+03  0.17300000000E+03 0. -1.
<mgrwt>
<rscale>  2 0.21883463E+03</rscale>
<asrwt>0</asrwt>
<pdfrwt beam="1">  1       21 0.70223716E-01 0.21883463E+03</pdfrwt>
<pdfrwt beam="2">  1       21 0.17210387E-01 0.21883463E+03</pdfrwt>
<totfact> 0.55428506E+04</totfact>
</mgrwt>
</event>
<event>
 4    2  0.3972096E+000  0.2497781E+03  0.7546771E-02  0.1113445E+00
         21   -1    0    0  501  502  0.00000000000E+00  0.00000000000E+00  0.25186377664E+03  0.25186377664E+03  0.00000000000E+00 0. -1.
         21   -1    0    0  502  503 -0.00000000000E+00 -0.00000000000E+00 -0.59651398749E+03  0.59651398749E+03  0.00000000000E+00 0. -1.
          6    1    1    2  501    0 -0.17914377271E+03  0.19173566704E+02  0.15204426090E+03  0.29241507183E+03  0.17300000000E+03 0. -1.
         -6    1    1    2    0  503  0.17914377271E+03 -0.19173566704E+02 -0.49669447175E+03  0.55596269230E+03  0.17300000000E+03 0. -1.
<mgrwt>
<rscale>  2 0.24977814E+03</rscale>
<asrwt>0</asrwt>
<pdfrwt beam="1">  1       21 0.38748274E-01 0.24977814E+03</pdfrwt>
<pdfrwt beam="2">  1       21 0.91771381E-01 0.24977814E+03</pdfrwt>
<totfact> 0.62011365E+03</totfact>
</mgrwt>
</event>
<event>
 4    2  0.3972096E+000  0.1890403E+03  0.7546771E-02  0.1159330E+00
         21   -1    0    0  501  502  0.00000000000E+00  0.00000000000E+00  0.12477779879E+04  0.12477779879E+04  0.00000000000E+00 0.  1.
         21   -1    0    0  502  503 -0.00000000000E+00 -0.00000000000E+00 -0.42874246967E+02  0.42874246967E+02  0.00000000000E+00 0.  1.
          6    1    1    2  501    0 -0.30166666176E+02  0.69979982489E+02  0.97428655575E+03  0.99245680934E+03  0.17300000000E+03 0.  1.
         -6    1    1    2    0  503  0.30166666176E+02 -0.69979982489E+02  0.23061718515E+03  0.29819542549E+03  0.17300000000E+03 0.  1.
<mgrwt>
<rscale>  2 0.18904028E+03</rscale>
<asrwt>0</asrwt>
<pdfrwt beam="1">  1       21 0.19196582E+00 0.18904028E+03</pdfrwt>
<pdfrwt beam="2">  1       21 0.65960389E-02 0.18904028E+03</pdfrwt>
<totfact> 0.25439233E+04</totfact>
</mgrwt>
</event>
<event>
 4    2  0.3972096E+000  0.1732978E+03  0.7546771E-02  0.1174452E+00
         21   -1    0    0  501  502  0.00000000000E+00  0.00000000000E+00  0.24368371892E+03  0.24368371892E+03  0.00000000000E+00 0. -1.
         21   -1    0    0  502  503 -0.00000000000E+00 -0.00000000000E+00 -0.64377697299E+03  0.64377697299E+03  0.00000000000E+00 0. -1.
          6    1    1    2  501    0 -0.49441018352E+01  0.88706963088E+01  0.19895646158E+03  0.26384807561E+03  0.17300000000E+03 0. -1.
         -6    1    1    2    0  503  0.49441018352E+01 -0.88706963088E+01 -0.59904971565E+03  0.62361261630E+03  0.17300000000E+03 0. -1.
<mgrwt>
<rscale>  2 0.17329782E+03</rscale>
<asrwt>0</asrwt>
<pdfrwt beam="1">  1       21 0.37489803E-01 0.17329782E+03</pdfrwt>
<pdfrwt beam="2">  1       21 0.99042611E-01 0.17329782E+03</pdfrwt>
<totfact> 0.58526563E+03</totfact>
</mgrwt>
</event>
<event>
 4    2  0.3972096E+000  0.1917211E+03  0.7546771E-02  0.1156918E+00
         21   -1    0    0  501  502  0.00000000000E+00  0.00000000000E+00  0.79781698570E+02  0.79781698570E+02  0.00000000000E+00 0.  1.
         21   -1    0    0  502  503 -0.00000000000E+00 -0.00000000000E+00 -0.47764097861E+03  0.47764097861E+03  0.00000000000E+00 0.  1.
          6    1    1    2  501    0 -0.70165626046E+02  0.43643774487E+02 -0.14647046981E+03  0.24126871462E+03  0.17300000000E+03 0.  1.
         -6    1    1    2    0  503  0.70165626046E+02 -0.43643774487E+02 -0.25138881023E+03  0.31615396255E+03  0.17300000000E+03 0.  1.
<mgrwt>
<rscale>  2 0.19172114E+03</rscale>
<asrwt>0</asrwt>
<pdfrwt beam="1">  1       21 0.12274108E-01 0.19172114E+03</pdfrwt>
<pdfrwt beam="2">  1       21 0.73483225E-01 0.19172114E+03</pdfrwt>
<totfact> 0.93815004E+04</totfact>
</mgrwt>
</event>
<event>
 4    2  0.3972096E+000  0.2443866E+03  0.7546771E-02  0.1116905E+00
         21   -1    0    0  503  502  0.00000000000E+00  0.00000000000E+00  0.66617760835E+02  0.66617760835E+02  0.00000000000E+00 0.  1.
         21   -1    0    0  501  503 -0.00000000000E+00 -0.00000000000E+00 -0.98751091662E+03  0.98751091662E+03  0.00000000000E+00 0.  1.
          6    1    1    2  501    0  0.13268082543E+03 -0.11041563186E+03 -0.30046568438E+03  0.38730406748E+03  0.17300000000E+03 0.  1.
         -6    1    1    2    0  502 -0.13268082543E+03  0.11041563186E+03 -0.62042747140E+03  0.66682460997E+03  0.17300000000E+03 0.  1.
<mgrwt>
<rscale>  2 0.24438661E+03</rscale>
<asrwt>0</asrwt>
<pdfrwt beam="1">  1       21 0.10248887E-01 0.24438661E+03</pdfrwt>
<pdfrwt beam="2">  1       21 0.15192475E+00 0.24438661E+03</pdfrwt>
<totfact> 0.21754410E+04</totfact>
</mgrwt>
</event>
<event>
 4    2  0.3972096E+000  0.2041330E+03  0.7546771E-02  0.1146298E+00
         21   -1    0    0  503  502  0.00000000000E+00  0.00000000000E+00  0.64356997973E+03  0.64356997973E+03  0.00000000000E+00 0. -1.
         21   -1    0    0  501  503 -0.00000000000E+00 -0.00000000000E+00 -0.72001041145E+02  0.72001041145E+02  0.00000000000E+00 0.  1.
          6    1    1    2  501    0  0.10830334435E+03  0.34179070245E+01  0.39933614447E+03  0.44848595604E+03  0.17300000000E+03 0. -1.
         -6    1    1    2    0  502 -0.10830334435E+03 -0.34179070245E+01  0.17223279411E+03  0.26708506483E+03  0.17300000000E+03 0.  1.
<mgrwt>
<rscale>  2 0.20413304E+03</rscale>
<asrwt>0</asrwt>
<pdfrwt beam="1">  1       21 0.99010762E-01 0.20413304E+03</pdfrwt>
<pdfrwt beam="2">  1       21 0.11077084E-01 0.20413304E+03</pdfrwt>
<totfact> 0.56567401E+04</totfact>
</mgrwt>
</event>
<event>
 4    2  0.3972096E+000  0.1771646E+03  0.7546771E-02  0.1170576E+00
         21   -1    0    0  503  502  0.00000000000E+00  0.00000000000E+00  0.69351112652E+02  0.69351112652E+02  0.00000000000E+00 0. -1.
         21   -1    0    0  501  503 -0.00000000000E+00 -0.00000000000E+00 -0.62082439876E+03  0.62082439876E+03  0.00000000000E+00 0. -1.
          6    1    1    2  501    0  0.17811355677E+02 -0.33779437117E+02 -0.45537894707E+03  0.48862795683E+03  0.17300000000E+03 0. -1.
         -6    1    1    2    0  502 -0.17811355677E+02  0.33779437117E+02 -0.96094339042E+02  0.20154755458E+03  0.17300000000E+03 0. -1.
<mgrwt>
<rscale>  2 0.17716460E+03</rscale>
<asrwt>0</asrwt>
<pdfrwt beam="1">  1       21 0.10669402E-01 0.17716460E+03</pdfrwt>
<pdfrwt beam="2">  1       21 0.95511449E-01 0.17716460E+03</pdfrwt>
<totfact> 0.66658275E+04</totfact>
</mgrwt>
</event>
<event>
 4    2  0.3972096E+000  0.1992986E+03  0.7546771E-02  0.1150332E+00
         21   -1    0    0  501  502  0.00000000000E+00  0.00000000000E+00  0.30674141086E+04  0.30674141086E+04  0.00000000000E+00 0. -1.
         21   -1    0    0  502  503 -0.00000000000E+00 -0.00000000000E+00 -0.13214634736E+02  0.13214634736E+02  0.00000000000E+00 0. -1.
          6    1    1    2  501    0  0.47977518898E+02  0.86539510072E+02  0.13087118594E+04  0.13238000832E+04  0.17300000000E+03 0. -1.
         -6    1    1    2    0  503 -0.47977518898E+02 -0.86539510072E+02  0.17454876144E+04  0.17568286602E+04  0.17300000000E+03 0. -1.
<mgrwt>
<rscale>  2 0.19929859E+03</rscale>
<asrwt>0</asrwt>
<pdfrwt beam="1">  1       21 0.47190930E+00 0.19929859E+03</pdfrwt>
<pdfrwt beam="2">  1       21 0.20330232E-02 0.19929859E+03</pdfrwt>
<totfact> 0.35190018E+03</totfact>
</mgrwt>
</event>
<event>
 4    2  0.3972096E+000  0.2061729E+03  0.7546771E-02  0.1144633E+00
         21   -1    0    0  503  502  0.00000000000E+00  0.00000000000E+00  0.17337391534E+03  0.17337391534E+03  0.00000000000E+00 0. -1.
         21   -1    0    0  501  503 -0.00000000000E+00 -0.00000000000E+00 -0.26558736342E+03  0.26558736342E+03  0.00000000000E+00 0. -1.
          6    1    1    2  501    0  0.81766262202E+02  0.76762901449E+02 -0.10695101453E+03  0.23226231761E+03  0.17300000000E+03 0. -1.
         -6    1    1    2    0  502 -0.81766262202E+02 -0.76762901449E+02  0.14737566450E+02  0.20669896114E+03  0.17300000000E+03 0. -1.
<mgrwt>
<rscale>  2 0.20617290E+03</rscale>
<asrwt>0</asrwt>
<pdfrwt beam="1">  1       21 0.26672910E-01 0.20617290E+03</pdfrwt>
<pdfrwt beam="2">  1       21 0.40859594E-01 0.20617290E+03</pdfrwt>
<totfact> 0.76745028E+04</totfact>
</mgrwt>
</event>
<event>
 4    2  0.3972096E+000  0.1918457E+03  0.7546771E-02  0.1156807E+00
         21   -1    0    0  503  502  0.00000000000E+00  0.00000000000E+00  0.16263475464E+03  0.16263475464E+03  0.00000000000E+00 0. -1.
         21   -1    0    0  501  503 -0.00000000000E+00 -0.00000000000E+00 -0.34308682965E+03  0.34308682965E+03  0.00000000000E+00 0. -1.
          6    1    1    2  501    0  0.58184432095E+02  0.59079038512E+02 -0.23775269627E+03  0.30550140018E+03  0.17300000000E+03 0. -1.
         -6    1    1    2    0  502 -0.58184432095E+02 -0.59079038512E+02  0.57300621259E+02  0.20022018411E+03  0.17300000000E+03 0. -1.
<mgrwt>
<rscale>  2 0.19184567E+03</rscale>
<asrwt>0</asrwt>
<pdfrwt beam="1">  1       21 0.25020732E-01 0.19184567E+03</pdfrwt>
<pdfrwt beam="2">  1       21 0.52782589E-01 0.19184567E+03</pdfrwt>
<totfact> 0.51469238E+04</totfact>
</mgrwt>
</event>
<event>
 4    2  0.3972096E+000  0.1762316E+03  0.7546771E-02  0.1171501E+00
         21   -1    0    0  501  502  0.00000000000E+00  0.00000000000E+00  0.25383047165E+03  0.25383047165E+03  0.00000000000E+00 0. -1.
         21   -1    0    0  502  503 -0.00000000000E+00 -0.00000000000E+00 -0.12249521791E+03  0.12249521791E+03  0.00000000000E+00 0. -1.
          6    1    1    2  501    0 -0.33592680915E+02  0.31283906496E+00  0.59313907312E+02  0.18594543737E+03  0.17300000000E+03 0. -1.
         -6    1    1    2    0  503  0.33592680915E+02 -0.31283906496E+00  0.72021346431E+02  0.19038025218E+03  0.17300000000E+03 0. -1.
<mgrwt>
<rscale>  2 0.17623157E+03</rscale>
<asrwt>0</asrwt>
<pdfrwt beam="1">  1       21 0.39050842E-01 0.17623157E+03</pdfrwt>
<pdfrwt beam="2">  1       21 0.18845418E-01 0.17623157E+03</pdfrwt>
<totfact> 0.16387383E+05</totfact>
</mgrwt>
</event>
<event>
 4    2  0.3972096E+000  0.2776160E+03  0.7546771E-02  0.1096998E+00
         21   -1    0    0  501  502  0.00000000000E+00  0.00000000000E+00  0.98703031487E+02  0.98703031487E+02  0.00000000000E+00 0. -1.
         21   -1    0    0  502  503 -0.00000000000E+00 -0.00000000000E+00 -0.96001943035E+03  0.96001943035E+03  0.00000000000E+00 0.  1.
          6    1    1    2  501    0  0.13384806174E+03  0.17095717368E+03 -0.20195946467E+03  0.34330494351E+03  0.17300000000E+03 0. -1.
         -6    1    1    2    0  503 -0.13384806174E+03 -0.17095717368E+03 -0.65935693419E+03  0.71541751833E+03  0.17300000000E+03 0.  1.
<mgrwt>
<rscale>  2 0.27761603E+03</rscale>
<asrwt>0</asrwt>
<pdfrwt beam="1">  1       21 0.15185082E-01 0.27761603E+03</pdfrwt>
<pdfrwt beam="2">  1       21 0.14769530E+00 0.27761603E+03</pdfrwt>
<totfact> 0.11318975E+04</totfact>
</mgrwt>
</event>
<event>
 4    2  0.3972096E+000  0.1985668E+03  0.7546771E-02  0.1150954E+00
         21   -1    0    0  501  502  0.00000000000E+00  0.00000000000E+00  0.12427321376E+04  0.12427321376E+04  0.00000000000E+00 0.  1.
         21   -1    0    0  502  503 -0.00000000000E+00 -0.00000000000E+00 -0.37520096117E+02  0.37520096117E+02  0.00000000000E+00 0. -1.
          6    1    1    2  501    0 -0.85268116429E+02  0.47213408552E+02  0.85412513341E+03  0.87690278888E+03  0.17300000000E+03 0.  1.
         -6    1    1    2    0  503  0.85268116429E+02 -0.47213408552E+02  0.35108690806E+03  0.40334944482E+03  0.17300000000E+03 0. -1.
<mgrwt>
<rscale>  2 0.19856676E+03</rscale>
<asrwt>0</asrwt>
<pdfrwt beam="1">  1       21 0.19118953E+00 0.19856676E+03</pdfrwt>
<pdfrwt beam="2">  1       21 0.57723234E-02 0.19856676E+03</pdfrwt>
<totfact> 0.32139083E+04</totfact>
</mgrwt>
</event>
<event>
 4    2  0.3972096E+000  0.1759570E+03  0.7546771E-02  0.1171774E+00
         21   -1    0    0  501  502  0.00000000000E+00  0.00000000000E+00  0.43849214231E+02  0.43849214231E+02  0.00000000000E+00 0. -1.
         21   -1    0    0  502  503 -0.00000000000E+00 -0.00000000000E+00 -0.14377934708E+04  0.14377934708E+04  0.00000000000E+00 0.  1.
          6    1    1    2  501    0  0.25851102450E+02  0.19068294819E+02 -0.16848193414E+03  0.24361248223E+03  0.17300000000E+03 0. -1.
         -6    1    1    2    0  503 -0.25851102450E+02 -0.19068294819E+02 -0.12254623224E+04  0.12380302028E+04  0.17300000000E+03 0.  1.
<mgrwt>
<rscale>  2 0.17595704E+03</rscale>
<asrwt>0</asrwt>
<pdfrwt beam="1">  1       21 0.67460343E-02 0.17595704E+03</pdfrwt>
<pdfrwt beam="2">  1       21 0.22119895E+00 0.17595704E+03</pdfrwt>
<totfact> 0.16175996E+04</totfact>
</mgrwt>
</event>
<event>
 4    2  0.3972096E+000  0.1787480E+03  0.7546771E-02  0.1169020E+00
         21   -1    0    0  503  502  0.00000000000E+00  0.00000000000E+00  0.24217869820E+03  0.24217869820E+03  0.00000000000E+00 0. -1.
         21   -1    0    0  501  503 -0.00000000000E+00 -0.00000000000E+00 -0.28638247110E+03  0.28638247110E+03  0.00000000000E+00 0.  1.
          6    1    1    2  501    0 -0.40114935291E+02 -0.20313898355E+02 -0.21618518132E+03  0.28051184489E+03  0.17300000000E+03 0.  1.
         -6    1    1    2    0  502  0.40114935291E+02  0.20313898355E+02  0.17198140841E+03  0.24804932441E+03  0.17300000000E+03 0. -1.
<mgrwt>
<rscale>  2 0.17874804E+03</rscale>
<asrwt>0</asrwt>
<pdfrwt beam="1">  1       21 0.37258261E-01 0.17874804E+03</pdfrwt>
<pdfrwt beam="2">  1       21 0.44058842E-01 0.17874804E+03</pdfrwt>
<totfact> 0.34630578E+04</totfact>
</mgrwt>
</event>
<event>
 4    2  0.3972096E+000  0.1869943E+03  0.7546771E-02  0.1161201E+00
         21   -1    0    0  501  502  0.00000000000E+00  0.00000000000E+00  0.84355545296E+03  0.84355545296E+03  0.00000000000E+00 0. -1.
         21   -1    0    0  502  503 -0.00000000000E+00 -0.00000000000E+00 -0.46604264140E+02  0.46604264140E+02  0.00000000000E+00 0. -1.
          6    1    1    2  501    0  0.39655088608E+02  0.58867140043E+02  0.54646611112E+03  0.57757430416E+03  0.17300000000E+03 0. -1.
         -6    1    1    2    0  503 -0.39655088608E+02 -0.58867140043E+02  0.25048507770E+03  0.31258541294E+03  0.17300000000E+03 0. -1.
<mgrwt>
<rscale>  2 0.18699429E+03</rscale>
<asrwt>0</asrwt>
<pdfrwt beam="1">  1       21 0.12977775E+00 0.18699429E+03</pdfrwt>
<pdfrwt beam="2">  1       21 0.71698874E-02 0.18699429E+03</pdfrwt>
<totfact> 0.63180261E+04</totfact>
</mgrwt>
</event>
<event>
 4    2  0.3972096E+000  0.3427978E+03  0.7546771E-02  0.1065611E+00
         21   -1    0    0  501  502  0.00000000000E+00  0.00000000000E+00  0.10839389477E+03  0.10839389477E+03  0.00000000000E+00 0.  1.
         21   -1    0    0  502  503 -0.00000000000E+00 -0.00000000000E+00 -0.12344754891E+04  0.12344754891E+04  0.00000000000E+00 0. -1.
          6    1    1    2  501    0  0.87594910963E+02 -0.28268083350E+03 -0.32870189192E+03  0.47492657938E+03  0.17300000000E+03 0.  1.
         -6    1    1    2    0  503 -0.87594910963E+02  0.28268083350E+03 -0.79737970245E+03  0.86794280453E+03  0.17300000000E+03 0. -1.
<mgrwt>
<rscale>  2 0.34279779E+03</rscale>
<asrwt>0</asrwt>
<pdfrwt beam="1">  1       21 0.16675985E-01 0.34279779E+03</pdfrwt>
<pdfrwt beam="2">  1       21 0.18991929E+00 0.34279779E+03</pdfrwt>
<totfact> 0.45532069E+03</totfact>
</mgrwt>
</event>
<event>
 4    2  0.3972096E+000  0.1936838E+03  0.7546771E-02  0.1155180E+00
         21   -1    0    0  503  502  0.00000000000E+00  0.00000000000E+00  0.15841043766E+03  0.15841043766E+03  0.00000000000E+00 0.  1.
         21   -1    0    0  501  503 -0.00000000000E+00 -0.00000000000E+00 -0.30159766430E+03  0.30159766430E+03  0.00000000000E+00 0.  1.
          6    1    1    2  501    0  0.73777343613E+02 -0.46274267684E+02 -0.17819499270E+03  0.26318597930E+03  0.17300000000E+03 0.  1.
         -6    1    1    2    0  502 -0.73777343613E+02  0.46274267684E+02  0.35007766054E+02  0.19682212265E+03  0.17300000000E+03 0.  1.
<mgrwt>
<rscale>  2 0.19368377E+03</rscale>
<asrwt>0</asrwt>
<pdfrwt beam="1">  1       21 0.24370837E-01 0.19368377E+03</pdfrwt>
<pdfrwt beam="2">  1       21 0.46399641E-01 0.19368377E+03</pdfrwt>
<totfact> 0.70718622E+04</totfact>
</mgrwt>
</event>
<event>
 4    2  0.3972096E+000  0.1767381E+03  0.7546771E-02  0.1170998E+00
         21   -1    0    0  501  502  0.00000000000E+00  0.00000000000E+00  0.55343089715E+03  0.55343089715E+03  0.00000000000E+00 0. -1.
         21   -1    0    0  502  503 -0.00000000000E+00 -0.00000000000E+00 -0.70851137357E+02  0.70851137357E+02  0.00000000000E+00 0. -1.
          6    1    1    2  501    0  0.12489352425E+02 -0.33931978380E+02  0.38205882778E+03  0.42095761184E+03  0.17300000000E+03 0. -1.
         -6    1    1    2    0  503 -0.12489352425E+02  0.33931978380E+02  0.10052093202E+03  0.20332442267E+03  0.17300000000E+03 0. -1.
<mgrwt>
<rscale>  2 0.17673812E+03</rscale>
<asrwt>0</asrwt>
<pdfrwt beam="1">  1       21 0.85143212E-01 0.17673812E+03</pdfrwt>
<pdfrwt beam="2">  1       21 0.10900175E-01 0.17673812E+03</pdfrwt>
<totfact> 0.83703151E+04</totfact>
</mgrwt>
</event>
<event>
 4    2  0.3972096E+000  0.2442271E+03  0.7546771E-02  0.1117008E+00
         21   -1    0    0  503  502  0.00000000000E+00  0.00000000000E+00  0.30759653284E+02  0.30759653284E+02  0.00000000000E+00 0. -1.
         21   -1    0    0  501  503 -0.00000000000E+00 -0.00000000000E+00 -0.20291680525E+04  0.20291680525E+04  0.00000000000E+00 0.  1.
          6    1    1    2  501    0 -0.22387343865E+02 -0.17092890598E+03 -0.78224279557E+03  0.81948195544E+03  0.17300000000E+03 0.  1.
         -6    1    1    2    0  502  0.22387343865E+02  0.17092890598E+03 -0.12161656037E+04  0.12404457504E+04  0.17300000000E+03 0.  1.
<mgrwt>
<rscale>  2 0.24422712E+03</rscale>
<asrwt>0</asrwt>
<pdfrwt beam="1">  1       21 0.47322525E-02 0.24422712E+03</pdfrwt>
<pdfrwt beam="2">  1       21 0.31217982E+00 0.24422712E+03</pdfrwt>
<totfact> 0.81386927E+03</totfact>
</mgrwt>
</event>
<event>
 4    2  0.3972096E+000  0.1789193E+03  0.7546771E-02  0.1168853E+00
         21   -1    0    0  503  502  0.00000000000E+00  0.00000000000E+00  0.58455644085E+03  0.58455644085E+03  0.00000000000E+00 0. -1.
         21   -1    0    0  501  503 -0.00000000000E+00 -0.00000000000E+00 -0.56918812951E+02  0.56918812951E+02  0.00000000000E+00 0. -1.
          6    1    1    2  501    0  0.22488296839E+02 -0.39716197309E+02  0.20139915037E+03  0.26939509571E+03  0.17300000000E+03 0. -1.
         -6    1    1    2    0  502 -0.22488296839E+02  0.39716197309E+02  0.32623847753E+03  0.37208015809E+03  0.17300000000E+03 0. -1.
<mgrwt>
<rscale>  2 0.17891926E+03</rscale>
<asrwt>0</asrwt>
<pdfrwt beam="1">  1       21 0.89931756E-01 0.17891926E+03</pdfrwt>
<pdfrwt beam="2">  1       21 0.87567409E-02 0.17891926E+03</pdfrwt>
<totfact> 0.10844360E+05</totfact>
</mgrwt>
</event>
<event>
 4    2  0.3972096E+000  0.1774900E+03  0.7546771E-02  0.1170255E+00
         21   -1    0    0  503  502  0.00000000000E+00  0.00000000000E+00  0.20665785249E+03  0.20665785249E+03  0.00000000000E+00 0.  1.
         21   -1    0    0  501  503 -0.00000000000E+00 -0.00000000000E+00 -0.15300261859E+03  0.15300261859E+03  0.00000000000E+00 0.  1.
          6    1    1    2  501    0 -0.27591370492E+02  0.28503122380E+02  0.37742388079E+02  0.18145853402E+03  0.17300000000E+03 0. -1.
         -6    1    1    2    0  502  0.27591370492E+02 -0.28503122380E+02  0.15912845824E+02  0.17820193706E+03  0.17300000000E+03 0. -1.
<mgrwt>
<rscale>  2 0.17749003E+03</rscale>
<asrwt>0</asrwt>
<pdfrwt beam="1">  1       21 0.31793516E-01 0.17749003E+03</pdfrwt>
<pdfrwt beam="2">  1       21 0.23538864E-01 0.17749003E+03</pdfrwt>
<totfact> 0.16234499E+05</totfact>
</mgrwt>
</event>
<event>
 4    2  0.3972096E+000  0.2697547E+03  0.7546771E-02  0.1101420E+00
         21   -1    0    0  503  502  0.00000000000E+00  0.00000000000E+00  0.28015217447E+03  0.28015217447E+03  0.00000000000E+00 0.  1.
         21   -1    0    0  501  503 -0.00000000000E+00 -0.00000000000E+00 -0.26447997225E+03  0.26447997225E+03  0.00000000000E+00 0.  1.
          6    1    1    2  501    0 -0.16624503687E+03  0.12329305545E+03 -0.28607681489E+02  0.27126737593E+03  0.17300000000E+03 0.  1.
         -6    1    1    2    0  502  0.16624503687E+03 -0.12329305545E+03  0.44279883711E+02  0.27336477078E+03  0.17300000000E+03 0.  1.
<mgrwt>
<rscale>  2 0.26975468E+03</rscale>
<asrwt>0</asrwt>
<pdfrwt beam="1">  1       21 0.43100335E-01 0.26975468E+03</pdfrwt>
<pdfrwt beam="2">  1       21 0.40689226E-01 0.26975468E+03</pdfrwt>
<totfact> 0.29018012E+04</totfact>
</mgrwt>
</event>
<event>
 4    2  0.3972096E+000  0.1953019E+03  0.7546771E-02  0.1153764E+00
         21   -1    0    0  503  502  0.00000000000E+00  0.00000000000E+00  0.46241404186E+03  0.46241404186E+03  0.00000000000E+00 0. -1.
         21   -1    0    0  501  503 -0.00000000000E+00 -0.00000000000E+00 -0.10313587918E+03  0.10313587918E+03  0.00000000000E+00 0. -1.
          6    1    1    2  501    0 -0.90402341656E+02  0.64238686474E+01  0.53109790917E+02  0.20239441533E+03  0.17300000000E+03 0. -1.
         -6    1    1    2    0  502  0.90402341656E+02 -0.64238686474E+01  0.30616837176E+03  0.36315550571E+03  0.17300000000E+03 0. -1.
<mgrwt>
<rscale>  2 0.19530194E+03</rscale>
<asrwt>0</asrwt>
<pdfrwt beam="1">  1       21 0.71140621E-01 0.19530194E+03</pdfrwt>
<pdfrwt beam="2">  1       21 0.15867058E-01 0.19530194E+03</pdfrwt>
<totfact> 0.63225670E+04</totfact>
</mgrwt>
</event>
<event>
 4    2  0.3972096E+000  0.1819237E+03  0.7546771E-02  0.1165954E+00
         21   -1    0    0  503  502  0.00000000000E+00  0.00000000000E+00  0.14864842621E+03  0.14864842621E+03  0.00000000000E+00 0.  1.
         21   -1    0    0  501  503 -0.00000000000E+00 -0.00000000000E+00 -0.22837049979E+03  0.22837049979E+03  0.00000000000E+00 0.  1.
          6    1    1    2  501    0  0.55492634311E+02  0.93710506264E+01 -0.69701985083E+02  0.19481944404E+03  0.17300000000E+03 0. -1.
         -6    1    1    2    0  502 -0.55492634311E+02 -0.93710506264E+01 -0.10020088503E+02  0.18219948196E+03  0.17300000000E+03 0. -1.
<mgrwt>
<rscale>  2 0.18192375E+03</rscale>
<asrwt>0</asrwt>
<pdfrwt beam="1">  1       21 0.22868989E-01 0.18192375E+03</pdfrwt>
<pdfrwt beam="2">  1       21 0.35133923E-01 0.18192375E+03</pdfrwt>
<totfact> 0.14061670E+05</totfact>
</mgrwt>
</event>
<event>
 4    2  0.3972096E+000  0.1823862E+03  0.7546771E-02  0.1165513E+00
         21   -1    0    0  503  502  0.00000000000E+00  0.00000000000E+00  0.45252400498E+02  0.45252400498E+02  0.00000000000E+00 0.  1.
         21   -1    0    0  501  503 -0.00000000000E+00 -0.00000000000E+00 -0.86770718962E+03  0.86770718962E+03  0.00000000000E+00 0. -1.
          6    1    1    2  501    0  0.54133936994E+02 -0.20131063509E+02 -0.58968260595E+03  0.61724413210E+03  0.17300000000E+03 0. -1.
         -6    1    1    2    0  502 -0.54133936994E+02  0.20131063509E+02 -0.23277218318E+03  0.29571545802E+03  0.17300000000E+03 0.  1.
<mgrwt>
<rscale>  2 0.18238625E+03</rscale>
<asrwt>0</asrwt>
<pdfrwt beam="1">  1       21 0.69619079E-02 0.18238625E+03</pdfrwt>
<pdfrwt beam="2">  1       21 0.13349341E+00 0.18238625E+03</pdfrwt>
<totfact> 0.62043481E+04</totfact>
</mgrwt>
</event>
<event>
 4    2  0.3972096E+000  0.3598068E+03  0.7546771E-02  0.1058660E+00
         21   -1    0    0  501  502  0.00000000000E+00  0.00000000000E+00  0.63564772862E+03  0.63564772862E+03  0.00000000000E+00 0. -1.
         21   -1    0    0  502  503 -0.00000000000E+00 -0.00000000000E+00 -0.20388896048E+03  0.20388896048E+03  0.00000000000E+00 0.  1.
          6    1    1    2  501    0  0.60067026051E+01 -0.31542967459E+03  0.20205363128E+03  0.41265800611E+03  0.17300000000E+03 0.  1.
         -6    1    1    2    0  503 -0.60067026051E+01  0.31542967459E+03  0.22970513686E+03  0.42687868299E+03  0.17300000000E+03 0. -1.
<mgrwt>
<rscale>  2 0.35980684E+03</rscale>
<asrwt>0</asrwt>
<pdfrwt beam="1">  1       21 0.97791958E-01 0.35980684E+03</pdfrwt>
<pdfrwt beam="2">  1       21 0.31367533E-01 0.35980684E+03</pdfrwt>
<totfact> 0.77241412E+03</totfact>
</mgrwt>
</event>
<event>
 4    2  0.3972096E+000  0.1738408E+03  0.7546771E-02  0.1173901E+00
         21   -1    0    0  501  502  0.00000000000E+00  0.00000000000E+00  0.29349506074E+03  0.29349506074E+03  0.00000000000E+00 0.  1.
         21   -1    0    0  502  503 -0.00000000000E+00 -0.00000000000E+00 -0.58984572185E+03  0.58984572185E+03  0.00000000000E+00 0.  1.
          6    1    1    2  501    0 -0.42676805785E+00 -0.17071774914E+02  0.25309678136E+03  0.30704821830E+03  0.17300000000E+03 0.  1.
         -6    1    1    2    0  503  0.42676805785E+00  0.17071774914E+02 -0.54944744246E+03  0.57629256429E+03  0.17300000000E+03 0.  1.
<mgrwt>
<rscale>  2 0.17384081E+03</rscale>
<asrwt>0</asrwt>
<pdfrwt beam="1">  1       21 0.45153087E-01 0.17384081E+03</pdfrwt>
<pdfrwt beam="2">  1       21 0.90745495E-01 0.17384081E+03</pdfrwt>
<totfact> 0.49250416E+03</totfact>
</mgrwt>
</event>
<event>
 4    2  0.3972096E+000  0.1779294E+03  0.7546771E-02  0.1169822E+00
         21   -1    0    0  503  502  0.00000000000E+00  0.00000000000E+00  0.28295514941E+03  0.28295514941E+03  0.00000000000E+00 0.  1.
         21   -1    0    0  501  503 -0.00000000000E+00 -0.00000000000E+00 -0.18641132894E+03  0.18641132894E+03  0.00000000000E+00 0.  1.
          6    1    1    2  501    0 -0.38347900871E+02 -0.16102737120E+02 -0.10011528766E+03  0.20416153033E+03  0.17300000000E+03 0.  1.
         -6    1    1    2    0  502  0.38347900871E+02  0.16102737120E+02  0.19665910813E+03  0.26520494802E+03  0.17300000000E+03 0.  1.
<mgrwt>
<rscale>  2 0.17792937E+03</rscale>
<asrwt>0</asrwt>
<pdfrwt beam="1">  1       21 0.43531562E-01 0.17792937E+03</pdfrwt>
<pdfrwt beam="2">  1       21 0.28678666E-01 0.17792937E+03</pdfrwt>
<totfact> 0.59384822E+04</totfact>
</mgrwt>
</event>
<event>
 4    2  0.3972096E+000  0.1809172E+03  0.7546771E-02  0.1166918E+00
         21   -1    0    0  501  502  0.00000000000E+00  0.00000000000E+00  0.54896212480E+02  0.54896212480E+02  0.00000000000E+00 0. -1.
         21   -1    0    0  502  503 -0.00000000000E+00 -0.00000000000E+00 -0.60825687943E+03  0.60825687943E+03  0.00000000000E+00 0. -1.
          6    1    1    2  501    0 -0.47620598985E+02  0.23115121594E+02 -0.23006479185E+03  0.29267872957E+03  0.17300000000E+03 0. -1.
         -6    1    1    2    0  503  0.47620598985E+02 -0.23115121594E+02 -0.32329587510E+03  0.37047436234E+03  0.17300000000E+03 0. -1.
<mgrwt>
<rscale>  2 0.18091719E+03</rscale>
<asrwt>0</asrwt>
<pdfrwt beam="1">  1       21 0.84455708E-02 0.18091719E+03</pdfrwt>
<pdfrwt beam="2">  1       21 0.93577986E-01 0.18091719E+03</pdfrwt>
<totfact> 0.10525872E+05</totfact>
</mgrwt>
</event>
<event>
 4    2  0.3972096E+000  0.2180505E+03  0.7546771E-02  0.1135345E+00
         21   -1    0    0  503  502  0.00000000000E+00  0.00000000000E+00  0.96685817261E+03  0.96685817261E+03  0.00000000000E+00 0. -1.
         21   -1    0    0  501  503 -0.00000000000E+00 -0.00000000000E+00 -0.79978703757E+02  0.79978703757E+02  0.00000000000E+00 0. -1.
          6    1    1    2  501    0 -0.11787760924E+03  0.61007158004E+02  0.11860847778E+03  0.24822162494E+03  0.17300000000E+03 0. -1.
         -6    1    1    2    0  502  0.11787760924E+03 -0.61007158004E+02  0.76827099108E+03  0.79861525143E+03  0.17300000000E+03 0. -1.
<mgrwt>
<rscale>  2 0.21805046E+03</rscale>
<asrwt>0</asrwt>
<pdfrwt beam="1">  1       21 0.14874740E+00 0.21805046E+03</pdfrwt>
<pdfrwt beam="2">  1       21 0.12304417E-01 0.21805046E+03</pdfrwt>
<totfact> 0.16853953E+04</totfact>
</mgrwt>
</event>
<event>
 4    2  0.3972096E+000  0.2658535E+03  0.7546771E-02  0.1103676E+00
         21   -1    0    0  503  502  0.00000000000E+00  0.00000000000E+00  0.58825995022E+03  0.58825995022E+03  0.00000000000E+00 0. -1.
         21   -1    0    0  501  503 -0.00000000000E+00 -0.00000000000E+00 -0.12280008441E+03  0.12280008441E+03  0.00000000000E+00 0. -1.
          6    1    1    2  501    0 -0.16777915962E+03 -0.11224622598E+03  0.18047855699E+03  0.32132626906E+03  0.17300000000E+03 0. -1.
         -6    1    1    2    0  502  0.16777915962E+03  0.11224622598E+03  0.28498130882E+03  0.38973376557E+03  0.17300000000E+03 0. -1.
<mgrwt>
<rscale>  2 0.26585346E+03</rscale>
<asrwt>0</asrwt>
<pdfrwt beam="1">  1       21 0.90501529E-01 0.26585346E+03</pdfrwt>
<pdfrwt beam="2">  1       21 0.18892321E-01 0.26585346E+03</pdfrwt>
<totfact> 0.25638168E+04</totfact>
</mgrwt>
</event>
<event>
 4    2  0.3972096E+000  0.2202450E+03  0.7546771E-02  0.1133701E+00
         21   -1    0    0  501  502  0.00000000000E+00  0.00000000000E+00  0.24516512206E+02  0.24516512206E+02  0.00000000000E+00 0.  1.
         21   -1    0    0  502  503 -0.00000000000E+00 -0.00000000000E+00 -0.20292374605E+04  0.20292374605E+04  0.00000000000E+00 0.  1.
          6    1    1    2  501    0 -0.13582946958E+03 -0.11367750622E+02 -0.11646070235E+04  0.11852499271E+04  0.17300000000E+03 0.  1.
         -6    1    1    2    0  503  0.13582946958E+03  0.11367750622E+02 -0.84011392482E+03  0.86850404561E+03  0.17300000000E+03 0.  1.
<mgrwt>
<rscale>  2 0.22024502E+03</rscale>
<asrwt>0</asrwt>
<pdfrwt beam="1">  1       21 0.37717714E-02 0.22024502E+03</pdfrwt>
<pdfrwt beam="2">  1       21 0.31219036E+00 0.22024502E+03</pdfrwt>
<totfact> 0.12204107E+04</totfact>
</mgrwt>
</event>
<event>
 4    2  0.3972096E+000  0.1974943E+03  0.7546771E-02  0.1151870E+00
         21   -1    0    0  501  502  0.00000000000E+00  0.00000000000E+00  0.17860253959E+03  0.17860253959E+03  0.00000000000E+00 0.  1.
         21   -1    0    0  502  503 -0.00000000000E+00 -0.00000000000E+00 -0.22499855627E+03  0.22499855627E+03  0.00000000000E+00 0.  1.
          6    1    1    2  501    0  0.56724755401E+02  0.76533013741E+02  0.11401604676E+02  0.19782314490E+03  0.17300000000E+03 0.  1.
         -6    1    1    2    0  503 -0.56724755401E+02 -0.76533013741E+02 -0.57797621354E+02  0.20577795096E+03  0.17300000000E+03 0.  1.
<mgrwt>
<rscale>  2 0.19749430E+03</rscale>
<asrwt>0</asrwt>
<pdfrwt beam="1">  1       21 0.27477314E-01 0.19749430E+03</pdfrwt>
<pdfrwt beam="2">  1       21 0.34615163E-01 0.19749430E+03</pdfrwt>
<totfact> 0.10144116E+05</totfact>
</mgrwt>
</event>
<event>
 4    2  0.3972096E+000  0.1737027E+03  0.7546771E-02  0.1174041E+00
         21   -1    0    0  503  502  0.00000000000E+00  0.00000000000E+00  0.45924062127E+02  0.45924062127E+02  0.00000000000E+00 0. -1.
         21   -1    0    0  501  503 -0.00000000000E+00 -0.00000000000E+00 -0.18442518829E+04  0.18442518829E+04  0.00000000000E+00 0. -1.
          6    1    1    2  501    0  0.11978421491E+02 -0.10006826371E+02 -0.16574472594E+04  0.16665245383E+04  0.17300000000E+03 0. -1.
         -6    1    1    2    0  502 -0.11978421491E+02  0.10006826371E+02 -0.14088056143E+03  0.22365140676E+03  0.17300000000E+03 0. -1.
<mgrwt>
<rscale>  2 0.17370267E+03</rscale>
<asrwt>0</asrwt>
<pdfrwt beam="1">  1       21 0.70652391E-02 0.17370267E+03</pdfrwt>
<pdfrwt beam="2">  1       21 0.28373111E+00 0.17370267E+03</pdfrwt>
<totfact> 0.64422207E+03</totfact>
</mgrwt>
</event>
<event>
 4    2  0.3972096E+000  0.2094780E+03  0.7546771E-02  0.1141980E+00
         21   -1    0    0  501  502  0.00000000000E+00  0.00000000000E+00  0.18489821931E+03  0.18489821931E+03  0.00000000000E+00 0. -1.
         21   -1    0    0  502  503 -0.00000000000E+00 -0.00000000000E+00 -0.25685950387E+03  0.25685950387E+03  0.00000000000E+00 0. -1.
          6    1    1    2  501    0  0.11705627302E+03  0.15806658627E+02  0.24931577353E+02  0.21095640559E+03  0.17300000000E+03 0.  1.
         -6    1    1    2    0  503 -0.11705627302E+03 -0.15806658627E+02 -0.96892861910E+02  0.23080131759E+03  0.17300000000E+03 0.  1.
<mgrwt>
<rscale>  2 0.20947797E+03</rscale>
<asrwt>0</asrwt>
<pdfrwt beam="1">  1       21 0.28445880E-01 0.20947797E+03</pdfrwt>
<pdfrwt beam="2">  1       21 0.39516846E-01 0.20947797E+03</pdfrwt>
<totfact> 0.72409378E+04</totfact>
</mgrwt>
</event>
<event>
 4    2  0.3972096E+000  0.2453051E+03  0.7546771E-02  0.1116308E+00
         21   -1    0    0  503  502  0.00000000000E+00  0.00000000000E+00  0.12176608632E+03  0.12176608632E+03  0.00000000000E+00 0. -1.
         21   -1    0    0  501  503 -0.00000000000E+00 -0.00000000000E+00 -0.10162413010E+04  0.10162413010E+04  0.00000000000E+00 0. -1.
          6    1    1    2  501    0  0.60563600295E+02 -0.16302650926E+03 -0.85506522966E+03  0.88955670947E+03  0.17300000000E+03 0. -1.
         -6    1    1    2    0  502 -0.60563600295E+02  0.16302650926E+03 -0.39409985027E+02  0.24845067785E+03  0.17300000000E+03 0. -1.
<mgrwt>
<rscale>  2 0.24530510E+03</rscale>
<asrwt>0</asrwt>
<pdfrwt beam="1">  1       21 0.18733245E-01 0.24530510E+03</pdfrwt>
<pdfrwt beam="2">  1       21 0.15634481E+00 0.24530510E+03</pdfrwt>
<totfact> 0.67159861E+03</totfact>
</mgrwt>
</event>
<event>
 4    2  0.3972096E+000  0.2014114E+03  0.7546771E-02  0.1148554E+00
         21   -1    0    0  501  502  0.00000000000E+00  0.00000000000E+00  0.21645151024E+03  0.21645151024E+03  0.00000000000E+00 0.  1.
         21   -1    0    0  502  503 -0.00000000000E+00 -0.00000000000E+00 -0.10978955571E+04  0.10978955571E+04  0.00000000000E+00 0.  1.
          6    1    1    2  501    0  0.98452694447E+02 -0.30734641580E+02  0.15773720440E+03  0.25582724032E+03  0.17300000000E+03 0.  1.
         -6    1    1    2    0  503 -0.98452694447E+02  0.30734641580E+02 -0.10391812512E+04  0.10585198270E+04  0.17300000000E+03 0.  1.
<mgrwt>
<rscale>  2 0.20141140E+03</rscale>
<asrwt>0</asrwt>
<pdfrwt beam="1">  1       21 0.33300232E-01 0.20141140E+03</pdfrwt>
<pdfrwt beam="2">  1       21 0.16890701E+00 0.20141140E+03</pdfrwt>
<totfact> 0.18699372E+03</totfact>
</mgrwt>
</event>
<event>
 4    2  0.3972096E+000  0.2874182E+03  0.7546771E-02  0.1091705E+00
         21   -1    0    0  501  502  0.00000000000E+00  0.00000000000E+00  0.29650937339E+03  0.29650937339E+03  0.00000000000E+00 0. -1.
         21   -1    0    0  502  503 -0.00000000000E+00 -0.00000000000E+00 -0.31504429123E+03  0.31504429123E+03  0.00000000000E+00 0.  1.
          6    1    1    2  501    0 -0.15187026208E+03  0.17209200006E+03  0.94724300712E+02  0.30262505867E+03  0.17300000000E+03 0. -1.
         -6    1    1    2    0  503  0.15187026208E+03 -0.17209200006E+03 -0.11325921855E+03  0.30892860595E+03  0.17300000000E+03 0.  1.
<mgrwt>
<rscale>  2 0.28741822E+03</rscale>
<asrwt>0</asrwt>
<pdfrwt beam="1">  1       21 0.45616827E-01 0.28741822E+03</pdfrwt>
<pdfrwt beam="2">  1       21 0.48468353E-01 0.28741822E+03</pdfrwt>
<totfact> 0.17837256E+04</totfact>
</mgrwt>
</event>
<event>
 4    2  0.3972096E+000  0.1888964E+03  0.7546771E-02  0.1159460E+00
         21   -1    0    0  501  502  0.00000000000E+00  0.00000000000E+00  0.98568704208E+03  0.98568704208E+03  0.00000000000E+00 0.  1.
         21   -1    0    0  502  503 -0.00000000000E+00 -0.00000000000E+00 -0.65817990870E+02  0.65817990870E+02  0.00000000000E+00 0. -1.
          6    1    1    2  501    0  0.75535065203E+02 -0.68782801949E+01  0.81261949540E+03  0.83428550336E+03  0.17300000000E+03 0.  1.
         -6    1    1    2    0  503 -0.75535065203E+02  0.68782801949E+01  0.10724955581E+03  0.21721952959E+03  0.17300000000E+03 0. -1.
<mgrwt>
<rscale>  2 0.18889642E+03</rscale>
<asrwt>0</asrwt>
<pdfrwt beam="1">  1       21 0.15164415E+00 0.18889642E+03</pdfrwt>
<pdfrwt beam="2">  1       21 0.10125845E-01 0.18889642E+03</pdfrwt>
<totfact> 0.23109062E+04</totfact>
</mgrwt>
</event>
<event>
 4    2  0.3972096E+000  0.2621327E+03  0.7546771E-02  0.1105869E+00
         21   -1    0    0  503  502  0.00000000000E+00  0.00000000000E+00  0.71885098607E+03  0.71885098607E+03  0.00000000000E+00 0. -1.
         21   -1    0    0  501  503 -0.00000000000E+00 -0.00000000000E+00 -0.10620707991E+03  0.10620707991E+03  0.00000000000E+00 0.  1.
          6    1    1    2  501    0  0.19453522638E+03 -0.30669307254E+02  0.17587909674E+03  0.31566915811E+03  0.17300000000E+03 0.  1.
         -6    1    1    2    0  502 -0.19453522638E+03  0.30669307254E+02  0.43676480942E+03  0.50938890787E+03  0.17300000000E+03 0. -1.
<mgrwt>
<rscale>  2 0.26213272E+03</rscale>
<asrwt>0</asrwt>
<pdfrwt beam="1">  1       21 0.11059246E+00 0.26213272E+03</pdfrwt>
<pdfrwt beam="2">  1       21 0.16339551E-01 0.26213272E+03</pdfrwt>
<totfact> 0.20814543E+04</totfact>
</mgrwt>
</event>
<event>
 4    2  0.3972096E+000  0.1738457E+03  0.7546771E-02  0.1173896E+00
         21   -1    0    0  503  502  0.00000000000E+00  0.00000000000E+00  0.17796665894E+03  0.17796665894E+03  0.00000000000E+00 0. -1.
         21   -1    0    0  501  503 -0.00000000000E+00 -0.00000000000E+00 -0.20597962617E+03  0.20597962617E+03  0.00000000000E+00 0. -1.
          6    1    1    2  501    0 -0.12378193562E+02 -0.11837358174E+02 -0.94440322886E+02  0.19784164706E+03  0.17300000000E+03 0. -1.
         -6    1    1    2    0  502  0.12378193562E+02  0.11837358174E+02  0.66427355652E+02  0.18610463805E+03  0.17300000000E+03 0. -1.
<mgrwt>
<rscale>  2 0.17384574E+03</rscale>
<asrwt>0</asrwt>
<pdfrwt beam="1">  1       21 0.27379486E-01 0.17384574E+03</pdfrwt>
<pdfrwt beam="2">  1       21 0.31689173E-01 0.17384574E+03</pdfrwt>
<totfact> 0.12261312E+05</totfact>
</mgrwt>
</event>
<event>
 4    2  0.3972096E+000  0.1768319E+03  0.7546771E-02  0.1170905E+00
         21   -1    0    0  503  502  0.00000000000E+00  0.00000000000E+00  0.15026856965E+04  0.15026856965E+04  0.00000000000E+00 0. -1.
         21   -1    0    0  501  503 -0.00000000000E+00 -0.00000000000E+00 -0.26384028321E+02  0.26384028321E+02  0.00000000000E+00 0. -1.
          6    1    1    2  501    0  0.10006024518E+02 -0.35219393592E+02  0.38671449741E+03  0.42522656163E+03  0.17300000000E+03 0. -1.
         -6    1    1    2    0  502 -0.10006024518E+02  0.35219393592E+02  0.10895871707E+04  0.11038431631E+04  0.17300000000E+03 0. -1.
<mgrwt>
<rscale>  2 0.17683192E+03</rscale>
<asrwt>0</asrwt>
<pdfrwt beam="1">  1       21 0.23118235E+00 0.17683192E+03</pdfrwt>
<pdfrwt beam="2">  1       21 0.40590824E-02 0.17683192E+03</pdfrwt>
<totfact> 0.33305704E+04</totfact>
</mgrwt>
</event>
<event>
 4    2  0.3972096E+000  0.1931888E+03  0.7546771E-02  0.1155616E+00
         21   -1    0    0  503  502  0.00000000000E+00  0.00000000000E+00  0.32356531581E+03  0.32356531581E+03  0.00000000000E+00 0. -1.
         21   -1    0    0  501  503 -0.00000000000E+00 -0.00000000000E+00 -0.11957260628E+03  0.11957260628E+03  0.00000000000E+00 0. -1.
          6    1    1    2  501    0 -0.54812230664E+02 -0.66246054628E+02  0.14365412702E+03  0.24074556817E+03  0.17300000000E+03 0. -1.
         -6    1    1    2    0  502  0.54812230664E+02  0.66246054628E+02  0.60338582514E+02  0.20239235392E+03  0.17300000000E+03 0. -1.
<mgrwt>
<rscale>  2 0.19318882E+03</rscale>
<asrwt>0</asrwt>
<pdfrwt beam="1">  1       21 0.49779279E-01 0.19318882E+03</pdfrwt>
<pdfrwt beam="2">  1       21 0.18395786E-01 0.19318882E+03</pdfrwt>
<totfact> 0.10369770E+05</totfact>
</mgrwt>
</event>
<event>
 4    2  0.3972096E+000  0.2997613E+03  0.7546771E-02  0.1085360E+00
         21   -1    0    0  501  502  0.00000000000E+00  0.00000000000E+00  0.29827618648E+03  0.29827618648E+03  0.00000000000E+00 0. -1.
         21   -1    0    0  502  503 -0.00000000000E+00 -0.00000000000E+00 -0.57458875039E+03  0.57458875039E+03  0.00000000000E+00 0.  1.
          6    1    1    2  501    0 -0.50830908028E+01  0.24474888375E+03  0.16285725388E+03  0.34114416168E+03  0.17300000000E+03 0. -1.
         -6    1    1    2    0  503  0.50830908028E+01 -0.24474888375E+03 -0.43916981779E+03  0.53172077519E+03  0.17300000000E+03 0.  1.
<mgrwt>
<rscale>  2 0.29976133E+03</rscale>
<asrwt>0</asrwt>
<pdfrwt beam="1">  1       21 0.45888644E-01 0.29976133E+03</pdfrwt>
<pdfrwt beam="2">  1       21 0.88398269E-01 0.29976133E+03</pdfrwt>
<totfact> 0.46517515E+03</totfact>
</mgrwt>
</event>
<event>
 4    2  0.3972096E+000  0.2823723E+03  0.7546771E-02  0.1094400E+00
         21   -1    0    0  501  502  0.00000000000E+00  0.00000000000E+00  0.12259619912E+04  0.12259619912E+04  0.00000000000E+00 0.  1.
         21   -1    0    0  502  503 -0.00000000000E+00 -0.00000000000E+00 -0.10702968458E+03  0.10702968458E+03  0.00000000000E+00 0. -1.
          6    1    1    2  501    0 -0.20645318464E+03 -0.84747945066E+02  0.97693771991E+03  0.10169274508E+04  0.17300000000E+03 0.  1.
         -6    1    1    2    0  503  0.20645318464E+03  0.84747945066E+02  0.14199458668E+03  0.31606422494E+03  0.17300000000E+03 0. -1.
<mgrwt>
<rscale>  2 0.28237233E+03</rscale>
<asrwt>0</asrwt>
<pdfrwt beam="1">  1       21 0.18860953E+00 0.28237233E+03</pdfrwt>
<pdfrwt beam="2">  1       21 0.16466106E-01 0.28237233E+03</pdfrwt>
<totfact> 0.49227194E+03</totfact>
</mgrwt>
</event>
<event>
 4    2  0.3972096E+000  0.1761368E+03  0.7546771E-02  0.1171595E+00
         21   -1    0    0  503  502  0.00000000000E+00  0.00000000000E+00  0.23296088407E+03  0.23296088407E+03  0.00000000000E+00 0. -1.
         21   -1    0    0  501  503 -0.00000000000E+00 -0.00000000000E+00 -0.16591327436E+03  0.16591327436E+03  0.00000000000E+00 0. -1.
          6    1    1    2  501    0  0.16495133308E+02  0.28689367808E+02 -0.55070237592E+02  0.18454511729E+03  0.17300000000E+03 0. -1.
         -6    1    1    2    0  502 -0.16495133308E+02 -0.28689367808E+02  0.12211784730E+03  0.21432904114E+03  0.17300000000E+03 0. -1.
<mgrwt>
<rscale>  2 0.17613679E+03</rscale>
<asrwt>0</asrwt>
<pdfrwt beam="1">  1       21 0.35840136E-01 0.17613679E+03</pdfrwt>
<pdfrwt beam="2">  1       21 0.25525119E-01 0.17613679E+03</pdfrwt>
<totfact> 0.10993888E+05</totfact>
</mgrwt>
</event>
<event>
 4    2  0.3972096E+000  0.2061790E+03  0.7546771E-02  0.1144628E+00
         21   -1    0    0  501  502  0.00000000000E+00  0.00000000000E+00  0.65103398746E+03  0.65103398746E+03  0.00000000000E+00 0.  1.
         21   -1    0    0  502  503 -0.00000000000E+00 -0.00000000000E+00 -0.69530485991E+02  0.69530485991E+02  0.00000000000E+00 0.  1.
          6    1    1    2  501    0  0.73762324218E+02 -0.84498029163E+02  0.20183883553E+03  0.28852853054E+03  0.17300000000E+03 0.  1.
         -6    1    1    2    0  503 -0.73762324218E+02  0.84498029163E+02  0.37966466594E+03  0.43203594291E+03  0.17300000000E+03 0.  1.
<mgrwt>
<rscale>  2 0.20617904E+03</rscale>
<asrwt>0</asrwt>
<pdfrwt beam="1">  1       21 0.10015907E+00 0.20617904E+03</pdfrwt>
<pdfrwt beam="2">  1       21 0.10696998E-01 0.20617904E+03</pdfrwt>
<totfact> 0.58511135E+04</totfact>
</mgrwt>
</event>
<event>
 4    2  0.3972096E+000  0.2170178E+03  0.7546771E-02  0.1136126E+00
         21   -1    0    0  503  502  0.00000000000E+00  0.00000000000E+00  0.30669094823E+03  0.30669094823E+03  0.00000000000E+00 0.  1.
         21   -1    0    0  501  503 -0.00000000000E+00 -0.00000000000E+00 -0.25672701147E+03  0.25672701147E+03  0.00000000000E+00 0. -1.
          6    1    1    2  501    0 -0.38550505108E+02  0.12522606186E+03 -0.15359554936E+03  0.26587271540E+03  0.17300000000E+03 0. -1.
         -6    1    1    2    0  502  0.38550505108E+02 -0.12522606186E+03  0.20355948612E+03  0.29754524430E+03  0.17300000000E+03 0.  1.
<mgrwt>
<rscale>  2 0.21701776E+03</rscale>
<asrwt>0</asrwt>
<pdfrwt beam="1">  1       21 0.47183223E-01 0.21701776E+03</pdfrwt>
<pdfrwt beam="2">  1       21 0.39496463E-01 0.21701776E+03</pdfrwt>
<totfact> 0.26203675E+04</totfact>
</mgrwt>
</event>
<event>
 4    2  0.3972096E+000  0.1885943E+03  0.7546771E-02  0.1159735E+00
         21   -1    0    0  501  502  0.00000000000E+00  0.00000000000E+00  0.25972720570E+03  0.25972720570E+03  0.00000000000E+00 0. -1.
         21   -1    0    0  502  503 -0.00000000000E+00 -0.00000000000E+00 -0.39371216014E+03  0.39371216014E+03  0.00000000000E+00 0. -1.
          6    1    1    2  501    0  0.45736724997E+01  0.74952650617E+02  0.19685766300E+03  0.27261833724E+03  0.17300000000E+03 0. -1.
         -6    1    1    2    0  503 -0.45736724997E+01 -0.74952650617E+02 -0.33084261743E+03  0.38082102860E+03  0.17300000000E+03 0. -1.
<mgrwt>
<rscale>  2 0.18859432E+03</rscale>
<asrwt>0</asrwt>
<pdfrwt beam="1">  1       21 0.39958032E-01 0.18859432E+03</pdfrwt>
<pdfrwt beam="2">  1       21 0.60571101E-01 0.18859432E+03</pdfrwt>
<totfact> 0.15365380E+04</totfact>
</mgrwt>
</event>
<event>
 4    2  0.3972096E+000  0.2027597E+03  0.7546771E-02  0.1147431E+00
         21   -1    0    0  503  502  0.00000000000E+00  0.00000000000E+00  0.33074044003E+03  0.33074044003E+03  0.00000000000E+00 0. -1.
         21   -1    0    0  501  503 -0.00000000000E+00 -0.00000000000E+00 -0.32801119751E+03  0.32801119751E+03  0.00000000000E+00 0. -1.
          6    1    1    2  501    0 -0.71955483221E+02 -0.77491260841E+02 -0.25820470904E+03  0.32830040944E+03  0.17300000000E+03 0. -1.
         -6    1    1    2    0  502  0.71955483221E+02  0.77491260841E+02  0.26093395156E+03  0.33045122809E+03  0.17300000000E+03 0. -1.
<mgrwt>
<rscale>  2 0.20275968E+03</rscale>
<asrwt>0</asrwt>
<pdfrwt beam="1">  1       21 0.50883145E-01 0.20275968E+03</pdfrwt>
<pdfrwt beam="2">  1       21 0.50463261E-01 0.20275968E+03</pdfrwt>
<totfact> 0.13641533E+04</totfact>
</mgrwt>
</event>
<event>
 4    2  0.3972096E+000  0.1890973E+03  0.7546771E-02  0.1159278E+00
         21   -1    0    0  501  502  0.00000000000E+00  0.00000000000E+00  0.92669513666E+03  0.92669513666E+03  0.00000000000E+00 0. -1.
         21   -1    0    0  502  503 -0.00000000000E+00 -0.00000000000E+00 -0.85049650607E+02  0.85049650607E+02  0.00000000000E+00 0.  1.
          6    1    1    2  501    0  0.68764226974E+02  0.33170462428E+02  0.79472635709E+03  0.81691357018E+03  0.17300000000E+03 0. -1.
         -6    1    1    2    0  503 -0.68764226974E+02 -0.33170462428E+02  0.46919128963E+02  0.19483121709E+03  0.17300000000E+03 0.  1.
<mgrwt>
<rscale>  2 0.18909733E+03</rscale>
<asrwt>0</asrwt>
<pdfrwt beam="1">  1       21 0.14256848E+00 0.18909733E+03</pdfrwt>
<pdfrwt beam="2">  1       21 0.13084562E-01 0.18909733E+03</pdfrwt>
<totfact> 0.17192134E+04</totfact>
</mgrwt>
</event>
<event>
 4    2  0.3972096E+000  0.1764595E+03  0.7546771E-02  0.1171274E+00
         21   -1    0    0  503  502  0.00000000000E+00  0.00000000000E+00  0.66134875545E+03  0.66134875545E+03  0.00000000000E+00 0.  1.
         21   -1    0    0  501  503 -0.00000000000E+00 -0.00000000000E+00 -0.50372899227E+02  0.50372899227E+02  0.00000000000E+00 0.  1.
          6    1    1    2  501    0  0.34308923488E+02  0.56453012507E+01  0.39643822556E+03  0.43393690595E+03  0.17300000000E+03 0.  1.
         -6    1    1    2    0  502 -0.34308923488E+02 -0.56453012507E+01  0.21453763067E+03  0.27778474873E+03  0.17300000000E+03 0.  1.
<mgrwt>
<rscale>  2 0.17645955E+03</rscale>
<asrwt>0</asrwt>
<pdfrwt beam="1">  1       21 0.10174596E+00 0.17645955E+03</pdfrwt>
<pdfrwt beam="2">  1       21 0.77496773E-02 0.17645955E+03</pdfrwt>
<totfact> 0.10058579E+05</totfact>
</mgrwt>
</event>
<event>
 4    2  0.3972096E+000  0.2935928E+03  0.7546771E-02  0.1088488E+00
         21   -1    0    0  503  502  0.00000000000E+00  0.00000000000E+00  0.11613877278E+03  0.11613877278E+03  0.00000000000E+00 0. -1.
         21   -1    0    0  501  503 -0.00000000000E+00 -0.00000000000E+00 -0.88330865126E+03  0.88330865126E+03  0.00000000000E+00 0. -1.
          6    1    1    2  501    0 -0.16350048556E+02 -0.23664402557E+03 -0.18384260461E+03  0.34640268792E+03  0.17300000000E+03 0. -1.
         -6    1    1    2    0  502  0.16350048556E+02  0.23664402557E+03 -0.58332727388E+03  0.65304473612E+03  0.17300000000E+03 0. -1.
<mgrwt>
<rscale>  2 0.29359278E+03</rscale>
<asrwt>0</asrwt>
<pdfrwt beam="1">  1       21 0.17867503E-01 0.29359278E+03</pdfrwt>
<pdfrwt beam="2">  1       21 0.13589364E+00 0.29359278E+03</pdfrwt>
<totfact> 0.10340965E+04</totfact>
</mgrwt>
</event>
<event>
 4    2  0.3972096E+000  0.2031036E+03  0.7546771E-02  0.1147147E+00
         21   -1    0    0  501  502  0.00000000000E+00  0.00000000000E+00  0.56456859479E+03  0.56456859479E+03  0.00000000000E+00 0.  1.
         21   -1    0    0  502  503 -0.00000000000E+00 -0.00000000000E+00 -0.14031826515E+03  0.14031826515E+03  0.00000000000E+00 0. -1.
          6    1    1    2  501    0 -0.83678732540E+02 -0.65726410058E+02  0.45612185254E+03  0.49929774245E+03  0.17300000000E+03 0.  1.
         -6    1    1    2    0  503  0.83678732540E+02  0.65726410058E+02 -0.31871522888E+02  0.20558911749E+03  0.17300000000E+03 0. -1.
<mgrwt>
<rscale>  2 0.20310365E+03</rscale>
<asrwt>0</asrwt>
<pdfrwt beam="1">  1       21 0.86856705E-01 0.20310365E+03</pdfrwt>
<pdfrwt beam="2">  1       21 0.21587426E-01 0.20310365E+03</pdfrwt>
<totfact> 0.22668928E+04</totfact>
</mgrwt>
</event>
<event>
 4    2  0.3972096E+000  0.3798513E+03  0.7546771E-02  0.1050989E+00
         21   -1    0    0  503  502  0.00000000000E+00  0.00000000000E+00  0.15510033116E+04  0.15510033116E+04  0.00000000000E+00 0. -1.
         21   -1    0    0  501  503 -0.00000000000E+00 -0.00000000000E+00 -0.10380175396E+03  0.10380175396E+03  0.00000000000E+00 0. -1.
          6    1    1    2  501    0 -0.31794293996E+03  0.11519661809E+03  0.99016075208E+03  0.10605212345E+04  0.17300000000E+03 0. -1.
         -6    1    1    2    0  502  0.31794293996E+03 -0.11519661809E+03  0.45704080551E+03  0.59428383100E+03  0.17300000000E+03 0. -1.
<mgrwt>
<rscale>  2 0.37985125E+03</rscale>
<asrwt>0</asrwt>
<pdfrwt beam="1">  1       21 0.23861588E+00 0.37985125E+03</pdfrwt>
<pdfrwt beam="2">  1       21 0.15969502E-01 0.37985125E+03</pdfrwt>
<totfact> 0.23549742E+03</totfact>
</mgrwt>
</event>
<event>
 4    2  0.3972096E+000  0.2320976E+03  0.7546771E-02  0.1125172E+00
         21   -1    0    0  503  502  0.00000000000E+00  0.00000000000E+00  0.75911690893E+03  0.75911690893E+03  0.00000000000E+00 0. -1.
         21   -1    0    0  501  503 -0.00000000000E+00 -0.00000000000E+00 -0.92135982982E+02  0.92135982982E+02  0.00000000000E+00 0.  1.
          6    1    1    2  501    0  0.23116157288E+02  0.15299001557E+03  0.53752505220E+03  0.58549336745E+03  0.17300000000E+03 0. -1.
         -6    1    1    2    0  502 -0.23116157288E+02 -0.15299001557E+03  0.12945587375E+03  0.26575952445E+03  0.17300000000E+03 0. -1.
<mgrwt>
<rscale>  2 0.23209761E+03</rscale>
<asrwt>0</asrwt>
<pdfrwt beam="1">  1       21 0.11678721E+00 0.23209761E+03</pdfrwt>
<pdfrwt beam="2">  1       21 0.14174767E-01 0.23209761E+03</pdfrwt>
<totfact> 0.23990383E+04</totfact>
</mgrwt>
</event>
<event>
 4    2  0.3972096E+000  0.1985943E+03  0.7546771E-02  0.1150930E+00
         21   -1    0    0  501  502  0.00000000000E+00  0.00000000000E+00  0.65699488717E+03  0.65699488717E+03  0.00000000000E+00 0.  1.
         21   -1    0    0  502  503 -0.00000000000E+00 -0.00000000000E+00 -0.61420451310E+02  0.61420451310E+02  0.00000000000E+00 0. -1.
          6    1    1    2  501    0  0.44028154856E+02  0.87018457794E+02  0.24374929109E+03  0.31440961709E+03  0.17300000000E+03 0. -1.
         -6    1    1    2    0  503 -0.44028154856E+02 -0.87018457794E+02  0.35182514478E+03  0.40400572139E+03  0.17300000000E+03 0. -1.
<mgrwt>
<rscale>  2 0.19859429E+03</rscale>
<asrwt>0</asrwt>
<pdfrwt beam="1">  1       21 0.10107613E+00 0.19859429E+03</pdfrwt>
<pdfrwt beam="2">  1       21 0.94493006E-02 0.19859429E+03</pdfrwt>
<totfact> 0.71561889E+04</totfact>
</mgrwt>
</event>
<event>
 4    2  0.3972096E+000  0.2284574E+03  0.7546771E-02  0.1127730E+00
         21   -1    0    0  501  502  0.00000000000E+00  0.00000000000E+00  0.54080295271E+03  0.54080295271E+03  0.00000000000E+00 0. -1.
         21   -1    0    0  502  503 -0.00000000000E+00 -0.00000000000E+00 -0.27238215533E+03  0.27238215533E+03  0.00000000000E+00 0. -1.
          6    1    1    2  501    0 -0.35663437784E+02 -0.14488581542E+03  0.46092526414E+03  0.51443646783E+03  0.17300000000E+03 0. -1.
         -6    1    1    2    0  503  0.35663437784E+02  0.14488581542E+03 -0.19250446677E+03  0.29874864021E+03  0.17300000000E+03 0. -1.
<mgrwt>
<rscale>  2 0.22845739E+03</rscale>
<asrwt>0</asrwt>
<pdfrwt beam="1">  1       21 0.83200454E-01 0.22845739E+03</pdfrwt>
<pdfrwt beam="2">  1       21 0.41904947E-01 0.22845739E+03</pdfrwt>
<totfact> 0.67245296E+03</totfact>
</mgrwt>
</event>
<event>
 4    2  0.3972096E+000  0.1995495E+03  0.7546771E-02  0.1150120E+00
         21   -1    0    0  503  502  0.00000000000E+00  0.00000000000E+00  0.57799501143E+02  0.57799501143E+02  0.00000000000E+00 0.  1.
         21   -1    0    0  501  503 -0.00000000000E+00 -0.00000000000E+00 -0.14729890363E+04  0.14729890363E+04  0.00000000000E+00 0.  1.
          6    1    1    2  501    0 -0.69955684533E+02  0.70690952978E+02 -0.12660120885E+04  0.12816421564E+04  0.17300000000E+03 0.  1.
         -6    1    1    2    0  502  0.69955684533E+02 -0.70690952978E+02 -0.14917744664E+03  0.24914638110E+03  0.17300000000E+03 0.  1.
<mgrwt>
<rscale>  2 0.19954951E+03</rscale>
<asrwt>0</asrwt>
<pdfrwt beam="1">  1       21 0.88922330E-02 0.19954951E+03</pdfrwt>
<pdfrwt beam="2">  1       21 0.22661365E+00 0.19954951E+03</pdfrwt>
<totfact> 0.90894355E+03</totfact>
</mgrwt>
</event>
<event>
 4    2  0.3972096E+000  0.2152756E+03  0.7546771E-02  0.1137455E+00
         21   -1    0    0  503  502  0.00000000000E+00  0.00000000000E+00  0.29501490728E+03  0.29501490728E+03  0.00000000000E+00 0.  1.
         21   -1    0    0  501  503 -0.00000000000E+00 -0.00000000000E+00 -0.16676958106E+03  0.16676958106E+03  0.00000000000E+00 0. -1.
          6    1    1    2  501    0 -0.66641107825E+02 -0.10942363420E+03  0.84933429692E+01  0.21544304549E+03  0.17300000000E+03 0. -1.
         -6    1    1    2    0  502  0.66641107825E+02  0.10942363420E+03  0.11975198324E+03  0.24634144285E+03  0.17300000000E+03 0. -1.
<mgrwt>
<rscale>  2 0.21527557E+03</rscale>
<asrwt>0</asrwt>
<pdfrwt beam="1">  1       21 0.45386909E-01 0.21527557E+03</pdfrwt>
<pdfrwt beam="2">  1       21 0.25656858E-01 0.21527557E+03</pdfrwt>
<totfact> 0.66440340E+04</totfact>
</mgrwt>
</event>
<event>
 4    2  0.3972096E+000  0.1792962E+03  0.7546771E-02  0.1168486E+00
         21   -1    0    0  501  502  0.00000000000E+00  0.00000000000E+00  0.68555650629E+02  0.68555650629E+02  0.00000000000E+00 0. -1.
         21   -1    0    0  502  503 -0.00000000000E+00 -0.00000000000E+00 -0.47297228217E+03  0.47297228217E+03  0.00000000000E+00 0. -1.
          6    1    1    2  501    0  0.34068442296E+02 -0.32518642473E+02 -0.17714613743E+03  0.25204736633E+03  0.17300000000E+03 0. -1.
         -6    1    1    2    0  503 -0.34068442296E+02  0.32518642473E+02 -0.22727049411E+03  0.28948056647E+03  0.17300000000E+03 0. -1.
<mgrwt>
<rscale>  2 0.17929618E+03</rscale>
<asrwt>0</asrwt>
<pdfrwt beam="1">  1       21 0.10547023E-01 0.17929618E+03</pdfrwt>
<pdfrwt beam="2">  1       21 0.72764967E-01 0.17929618E+03</pdfrwt>
<totfact> 0.12619607E+05</totfact>
</mgrwt>
</event>
<event>
 4    2  0.3972096E+000  0.2138135E+03  0.7546771E-02  0.1138581E+00
         21   -1    0    0  503  502  0.00000000000E+00  0.00000000000E+00  0.99564628408E+03  0.99564628408E+03  0.00000000000E+00 0. -1.
         21   -1    0    0  501  503 -0.00000000000E+00 -0.00000000000E+00 -0.54486848941E+02  0.54486848941E+02  0.00000000000E+00 0. -1.
          6    1    1    2  501    0  0.11256115890E+03 -0.55831942760E+02  0.26233344103E+03  0.33843028027E+03  0.17300000000E+03 0. -1.
         -6    1    1    2    0  502 -0.11256115890E+03  0.55831942760E+02  0.67882599411E+03  0.71170285275E+03  0.17300000000E+03 0. -1.
<mgrwt>
<rscale>  2 0.21381352E+03</rscale>
<asrwt>0</asrwt>
<pdfrwt beam="1">  1       21 0.15317634E+00 0.21381352E+03</pdfrwt>
<pdfrwt beam="2">  1       21 0.83825928E-02 0.21381352E+03</pdfrwt>
<totfact> 0.30878848E+04</totfact>
</mgrwt>
</event>
<event>
 4    2  0.3972096E+000  0.1822363E+03  0.7546771E-02  0.1165656E+00
         21   -1    0    0  503  502  0.00000000000E+00  0.00000000000E+00  0.13849120633E+03  0.13849120633E+03  0.00000000000E+00 0. -1.
         21   -1    0    0  501  503 -0.00000000000E+00 -0.00000000000E+00 -0.27389817072E+03  0.27389817072E+03  0.00000000000E+00 0. -1.
          6    1    1    2  501    0 -0.49905061864E+02  0.28117074044E+02 -0.14045688871E+03  0.23008307769E+03  0.17300000000E+03 0. -1.
         -6    1    1    2    0  502  0.49905061864E+02 -0.28117074044E+02  0.50499243227E+01  0.18230629936E+03  0.17300000000E+03 0. -1.
<mgrwt>
<rscale>  2 0.18223634E+03</rscale>
<asrwt>0</asrwt>
<pdfrwt beam="1">  1       21 0.21306340E-01 0.18223634E+03</pdfrwt>
<pdfrwt beam="2">  1       21 0.42138179E-01 0.18223634E+03</pdfrwt>
<totfact> 0.11154158E+05</totfact>
</mgrwt>
</event>
<event>
 4    2  0.3972096E+000  0.2390106E+03  0.7546771E-02  0.1120454E+00
         21   -1    0    0  503  502  0.00000000000E+00  0.00000000000E+00  0.35001760006E+03  0.35001760006E+03  0.00000000000E+00 0. -1.
         21   -1    0    0  501  503 -0.00000000000E+00 -0.00000000000E+00 -0.29954978276E+03  0.29954978276E+03  0.00000000000E+00 0.  1.
          6    1    1    2  501    0 -0.69148806861E+02  0.14971812567E+03 -0.19388121957E+03  0.30775964964E+03  0.17300000000E+03 0.  1.
         -6    1    1    2    0  502  0.69148806861E+02 -0.14971812567E+03  0.24434903687E+03  0.34180773318E+03  0.17300000000E+03 0. -1.
<mgrwt>
<rscale>  2 0.23901062E+03</rscale>
<asrwt>0</asrwt>
<pdfrwt beam="1">  1       21 0.53848862E-01 0.23901062E+03</pdfrwt>
<pdfrwt beam="2">  1       21 0.46084582E-01 0.23901062E+03</pdfrwt>
<totfact> 0.14315312E+04</totfact>
</mgrwt>
</event>
<event>
 4    2  0.3972096E+000  0.1771352E+03  0.7546771E-02  0.1170605E+00
         21   -1    0    0  503  502  0.00000000000E+00  0.00000000000E+00  0.74712650979E+02  0.74712650979E+02  0.00000000000E+00 0. -1.
         21   -1    0    0  501  503 -0.00000000000E+00 -0.00000000000E+00 -0.90759667347E+03  0.90759667347E+03  0.00000000000E+00 0. -1.
          6    1    1    2  501    0  0.37624413602E+02  0.56809045160E+01 -0.77645383065E+03  0.79640280029E+03  0.17300000000E+03 0. -1.
         -6    1    1    2    0  502 -0.37624413602E+02 -0.56809045160E+01 -0.56430191843E+02  0.18590652416E+03  0.17300000000E+03 0. -1.
<mgrwt>
<rscale>  2 0.17713517E+03</rscale>
<asrwt>0</asrwt>
<pdfrwt beam="1">  1       21 0.11494255E-01 0.17713517E+03</pdfrwt>
<pdfrwt beam="2">  1       21 0.13963025E+00 0.17713517E+03</pdfrwt>
<totfact> 0.23063249E+04</totfact>
</mgrwt>
</event>
<event>
 4    2  0.3972096E+000  0.1855342E+03  0.7546771E-02  0.1162552E+00
         21   -1    0    0  503  502  0.00000000000E+00  0.00000000000E+00  0.22041506843E+04  0.22041506843E+04  0.00000000000E+00 0. -1.
         21   -1    0    0  501  503 -0.00000000000E+00 -0.00000000000E+00 -0.82441803125E+02  0.82441803125E+02  0.00000000000E+00 0. -1.
          6    1    1    2  501    0 -0.64359259052E+02  0.18757033349E+02  0.31528733617E+02  0.18819405296E+03  0.17300000000E+03 0. -1.
         -6    1    1    2    0  502  0.64359259052E+02 -0.18757033349E+02  0.20901801475E+04  0.20983984344E+04  0.17300000000E+03 0. -1.
<mgrwt>
<rscale>  2 0.18553420E+03</rscale>
<asrwt>0</asrwt>
<pdfrwt beam="1">  1       21 0.33910006E+00 0.18553420E+03</pdfrwt>
<pdfrwt beam="2">  1       21 0.12683356E-01 0.18553420E+03</pdfrwt>
<totfact> 0.10881656E+03</totfact>
</mgrwt>
</event>
<event>
 4    2  0.3972096E+000  0.1798364E+03  0.7546771E-02  0.1167962E+00
         21   -1    0    0  503  502  0.00000000000E+00  0.00000000000E+00  0.37325073826E+03  0.37325073826E+03  0.00000000000E+00 0. -1.
         21   -1    0    0  501  503 -0.00000000000E+00 -0.00000000000E+00 -0.26731510443E+03  0.26731510443E+03  0.00000000000E+00 0. -1.
          6    1    1    2  501    0  0.55681170313E+01 -0.48796608149E+02 -0.21033929815E+03  0.27673766140E+03  0.17300000000E+03 0. -1.
         -6    1    1    2    0  502 -0.55681170313E+01  0.48796608149E+02  0.31627493198E+03  0.36382818128E+03  0.17300000000E+03 0. -1.
<mgrwt>
<rscale>  2 0.17983635E+03</rscale>
<asrwt>0</asrwt>
<pdfrwt beam="1">  1       21 0.57423191E-01 0.17983635E+03</pdfrwt>
<pdfrwt beam="2">  1       21 0.41125401E-01 0.17983635E+03</pdfrwt>
<totfact> 0.16338946E+04</totfact>
</mgrwt>
</event>
<event>
 4    2  0.3972096E+000  0.1741004E+03  0.7546771E-02  0.1173638E+00
         21   -1    0    0  503  502  0.00000000000E+00  0.00000000000E+00  0.16012710796E+03  0.16012710796E+03  0.00000000000E+00 0.  1.
         21   -1    0    0  501  503 -0.00000000000E+00 -0.00000000000E+00 -0.19545242791E+03  0.19545242791E+03  0.00000000000E+00 0.  1.
          6    1    1    2  501    0  0.15603448935E+02  0.11767643250E+02 -0.49224001007E+02  0.18092525341E+03  0.17300000000E+03 0.  1.
         -6    1    1    2    0  502 -0.15603448935E+02 -0.11767643250E+02  0.13898681054E+02  0.17465428246E+03  0.17300000000E+03 0.  1.
<mgrwt>
<rscale>  2 0.17410039E+03</rscale>
<asrwt>0</asrwt>
<pdfrwt beam="1">  1       21 0.24634940E-01 0.17410039E+03</pdfrwt>
<pdfrwt beam="2">  1       21 0.30069604E-01 0.17410039E+03</pdfrwt>
<totfact> 0.16620618E+05</totfact>
</mgrwt>
</event>
<event>
 4    2  0.3972096E+000  0.2140077E+03  0.7546771E-02  0.1138431E+00
         21   -1    0    0  501  502  0.00000000000E+00  0.00000000000E+00  0.37775637844E+03  0.37775637844E+03  0.00000000000E+00 0.  1.
         21   -1    0    0  502  503 -0.00000000000E+00 -0.00000000000E+00 -0.18023892494E+03  0.18023892494E+03  0.00000000000E+00 0.  1.
          6    1    1    2  501    0  0.10769159544E+03 -0.65366787346E+02  0.25838236265E+03  0.33550073315E+03  0.17300000000E+03 0.  1.
         -6    1    1    2    0  503 -0.10769159544E+03  0.65366787346E+02 -0.60864909152E+02  0.22249457023E+03  0.17300000000E+03 0.  1.
<mgrwt>
<rscale>  2 0.21400770E+03</rscale>
<asrwt>0</asrwt>
<pdfrwt beam="1">  1       21 0.58116366E-01 0.21400770E+03</pdfrwt>
<pdfrwt beam="2">  1       21 0.27729065E-01 0.21400770E+03</pdfrwt>
<totfact> 0.34057513E+04</totfact>
</mgrwt>
</event>
<event>
 4    2  0.3972096E+000  0.2234351E+03  0.7546771E-02  0.1131348E+00
         21   -1    0    0  501  502  0.00000000000E+00  0.00000000000E+00  0.18947207049E+04  0.18947207049E+04  0.00000000000E+00 0. -1.
         21   -1    0    0  502  503 -0.00000000000E+00 -0.00000000000E+00 -0.79587015639E+02  0.79587015639E+02  0.00000000000E+00 0.  1.
          6    1    1    2  501    0 -0.28952828723E+02 -0.13840506058E+03  0.17149437509E+04  0.17294378554E+04  0.17300000000E+03 0. -1.
         -6    1    1    2    0  503  0.28952828723E+02  0.13840506058E+03  0.10018993837E+03  0.24486986510E+03  0.17300000000E+03 0.  1.
<mgrwt>
<rscale>  2 0.22343506E+03</rscale>
<asrwt>0</asrwt>
<pdfrwt beam="1">  1       21 0.29149546E+00 0.22343506E+03</pdfrwt>
<pdfrwt beam="2">  1       21 0.12244158E-01 0.22343506E+03</pdfrwt>
<totfact> 0.20864030E+03</totfact>
</mgrwt>
</event>
<event>
 4    2  0.3972096E+000  0.1925895E+03  0.7546771E-02  0.1156146E+00
         21   -1    0    0  501  502  0.00000000000E+00  0.00000000000E+00  0.37366494499E+02  0.37366494499E+02  0.00000000000E+00 0.  1.
         21   -1    0    0  502  503 -0.00000000000E+00 -0.00000000000E+00 -0.10041984893E+04  0.10041984893E+04  0.00000000000E+00 0. -1.
          6    1    1    2  501    0 -0.64433110067E+02 -0.54864171320E+02 -0.42749357254E+03  0.46887253868E+03  0.17300000000E+03 0. -1.
         -6    1    1    2    0  503  0.64433110067E+02  0.54864171320E+02 -0.53933842228E+03  0.57269244513E+03  0.17300000000E+03 0. -1.
<mgrwt>
<rscale>  2 0.19258947E+03</rscale>
<asrwt>0</asrwt>
<pdfrwt beam="1">  1       21 0.57486929E-02 0.19258947E+03</pdfrwt>
<pdfrwt beam="2">  1       21 0.15449204E+00 0.19258947E+03</pdfrwt>
<totfact> 0.58656786E+04</totfact>
</mgrwt>
</event>
<event>
 4    2  0.3972096E+000  0.1777097E+03  0.7546771E-02  0.1170038E+00
         21   -1    0    0  503  502  0.00000000000E+00  0.00000000000E+00  0.18847777109E+03  0.18847777109E+03  0.00000000000E+00 0. -1.
         21   -1    0    0  501  503 -0.00000000000E+00 -0.00000000000E+00 -0.32325327583E+03  0.32325327583E+03  0.00000000000E+00 0. -1.
          6    1    1    2  501    0 -0.37551796443E+02  0.15543946069E+02 -0.24496182312E+03  0.30263351840E+03  0.17300000000E+03 0. -1.
         -6    1    1    2    0  502  0.37551796443E+02 -0.15543946069E+02  0.11018631838E+03  0.20909752852E+03  0.17300000000E+03 0. -1.
<mgrwt>
<rscale>  2 0.17770974E+03</rscale>
<asrwt>0</asrwt>
<pdfrwt beam="1">  1       21 0.28996580E-01 0.17770974E+03</pdfrwt>
<pdfrwt beam="2">  1       21 0.49731273E-01 0.17770974E+03</pdfrwt>
<totfact> 0.44195126E+04</totfact>
</mgrwt>
</event>
<event>
 4    2  0.3972096E+000  0.2179292E+03  0.7546771E-02  0.1135436E+00
         21   -1    0    0  503  502  0.00000000000E+00  0.00000000000E+00  0.11002219526E+03  0.11002219526E+03  0.00000000000E+00 0.  1.
         21   -1    0    0  501  503 -0.00000000000E+00 -0.00000000000E+00 -0.92304388182E+03  0.92304388182E+03  0.00000000000E+00 0.  1.
          6    1    1    2  501    0  0.10580571323E+03 -0.79807863377E+02 -0.78338253378E+03  0.81313057884E+03  0.17300000000E+03 0.  1.
         -6    1    1    2    0  502 -0.10580571323E+03  0.79807863377E+02 -0.29639152769E+02  0.21993549824E+03  0.17300000000E+03 0.  1.
<mgrwt>
<rscale>  2 0.21792922E+03</rscale>
<asrwt>0</asrwt>
<pdfrwt beam="1">  1       21 0.16926491E-01 0.21792922E+03</pdfrwt>
<pdfrwt beam="2">  1       21 0.14200675E+00 0.21792922E+03</pdfrwt>
<totfact> 0.10650671E+04</totfact>
</mgrwt>
</event>
<event>
 4    2  0.3972096E+000  0.1753222E+03  0.7546771E-02  0.1172409E+00
         21   -1    0    0  503  502  0.00000000000E+00  0.00000000000E+00  0.92010490360E+03  0.92010490360E+03  0.00000000000E+00 0. -1.
         21   -1    0    0  501  503 -0.00000000000E+00 -0.00000000000E+00 -0.53542733863E+02  0.53542733863E+02  0.00000000000E+00 0. -1.
          6    1    1    2  501    0 -0.27603581958E+02  0.68490717587E+01  0.13473857392E+03  0.22111614781E+03  0.17300000000E+03 0. -1.
         -6    1    1    2    0  502  0.27603581958E+02 -0.68490717587E+01  0.73182359582E+03  0.75253148965E+03  0.17300000000E+03 0. -1.
<mgrwt>
<rscale>  2 0.17532218E+03</rscale>
<asrwt>0</asrwt>
<pdfrwt beam="1">  1       21 0.14155459E+00 0.17532218E+03</pdfrwt>
<pdfrwt beam="2">  1       21 0.82373444E-02 0.17532218E+03</pdfrwt>
<totfact> 0.40060107E+04</totfact>
</mgrwt>
</event>
<event>
 4    2  0.3972096E+000  0.3088863E+03  0.7546771E-02  0.1080881E+00
         21   -1    0    0  503  502  0.00000000000E+00  0.00000000000E+00  0.56930632122E+03  0.56930632122E+03  0.00000000000E+00 0.  1.
         21   -1    0    0  501  503 -0.00000000000E+00 -0.00000000000E+00 -0.20646630679E+03  0.20646630679E+03  0.00000000000E+00 0.  1.
          6    1    1    2  501    0  0.11218366365E+03 -0.22999257959E+03  0.13107902774E+02  0.30916432228E+03  0.17300000000E+03 0.  1.
         -6    1    1    2    0  502 -0.11218366365E+03  0.22999257959E+03  0.34973211166E+03  0.46660830574E+03  0.17300000000E+03 0.  1.
<mgrwt>
<rscale>  2 0.30888632E+03</rscale>
<asrwt>0</asrwt>
<pdfrwt beam="1">  1       21 0.87585587E-01 0.30888632E+03</pdfrwt>
<pdfrwt beam="2">  1       21 0.31764047E-01 0.30888632E+03</pdfrwt>
<totfact> 0.99881420E+03</totfact>
</mgrwt>
</event>
<event>
 4    2  0.3972096E+000  0.2355816E+03  0.7546771E-02  0.1122772E+00
         21   -1    0    0  501  502  0.00000000000E+00  0.00000000000E+00  0.14630678343E+02  0.14630678343E+02  0.00000000000E+00 0.  1.
         21   -1    0    0  502  503 -0.00000000000E+00 -0.00000000000E+00 -0.37933116001E+04  0.37933116001E+04  0.00000000000E+00 0.  1.
          6    1    1    2  501    0  0.67619105620E+02 -0.14490466284E+03 -0.18903978867E+04  0.19050204395E+04  0.17300000000E+03 0.  1.
         -6    1    1    2    0  503 -0.67619105620E+02  0.14490466284E+03 -0.18882830351E+04  0.19029218390E+04  0.17300000000E+03 0.  1.
<mgrwt>
<rscale>  2 0.23558163E+03</rscale>
<asrwt>0</asrwt>
<pdfrwt beam="1">  1       21 0.22508760E-02 0.23558163E+03</pdfrwt>
<pdfrwt beam="2">  1       21 0.58358576E+00 0.23558163E+03</pdfrwt>
<totfact> 0.43596141E+02</totfact>
</mgrwt>
</event>
<event>
 4    2  0.3972096E+000  0.1960324E+03  0.7546771E-02  0.1153130E+00
         21   -1    0    0  503  502  0.00000000000E+00  0.00000000000E+00  0.13655496861E+04  0.13655496861E+04  0.00000000000E+00 0. -1.
         21   -1    0    0  501  503 -0.00000000000E+00 -0.00000000000E+00 -0.29032851821E+02  0.29032851821E+02  0.00000000000E+00 0. -1.
          6    1    1    2  501    0 -0.20470684050E+02 -0.89892372038E+02  0.54608371303E+03  0.58020350662E+03  0.17300000000E+03 0. -1.
         -6    1    1    2    0  502  0.20470684050E+02  0.89892372038E+02  0.79043312123E+03  0.81437903128E+03  0.17300000000E+03 0. -1.
<mgrwt>
<rscale>  2 0.19603236E+03</rscale>
<asrwt>0</asrwt>
<pdfrwt beam="1">  1       21 0.21008452E+00 0.19603236E+03</pdfrwt>
<pdfrwt beam="2">  1       21 0.44665936E-02 0.19603236E+03</pdfrwt>
<totfact> 0.37636511E+04</totfact>
</mgrwt>
</event>
<event>
 4    2  0.3972096E+000  0.2023313E+03  0.7546771E-02  0.1147787E+00
         21   -1    0    0  503  502  0.00000000000E+00  0.00000000000E+00  0.13375706346E+03  0.13375706346E+03  0.00000000000E+00 0. -1.
         21   -1    0    0  501  503 -0.00000000000E+00 -0.00000000000E+00 -0.37022532938E+03  0.37022532938E+03  0.00000000000E+00 0. -1.
          6    1    1    2  501    0  0.10863592098E+02 -0.10435968680E+03 -0.22313898125E+03  0.30121249445E+03  0.17300000000E+03 0. -1.
         -6    1    1    2    0  502 -0.10863592098E+02  0.10435968680E+03 -0.13329284672E+02  0.20276989839E+03  0.17300000000E+03 0. -1.
<mgrwt>
<rscale>  2 0.20233132E+03</rscale>
<asrwt>0</asrwt>
<pdfrwt beam="1">  1       21 0.20578010E-01 0.20233132E+03</pdfrwt>
<pdfrwt beam="2">  1       21 0.56957743E-01 0.20233132E+03</pdfrwt>
<totfact> 0.63098824E+04</totfact>
</mgrwt>
</event>
<event>
 4    2  0.3972096E+000  0.2331671E+03  0.7546771E-02  0.1124430E+00
         21   -1    0    0  503  502  0.00000000000E+00  0.00000000000E+00  0.48033229901E+03  0.48033229901E+03  0.00000000000E+00 0.  1.
         21   -1    0    0  501  503 -0.00000000000E+00 -0.00000000000E+00 -0.11877431686E+03  0.11877431686E+03  0.00000000000E+00 0.  1.
          6    1    1    2  501    0  0.77525339959E+02  0.13574879909E+03  0.11580321369E+03  0.26034073652E+03  0.17300000000E+03 0.  1.
         -6    1    1    2    0  502 -0.77525339959E+02 -0.13574879909E+03  0.24575476846E+03  0.33876587935E+03  0.17300000000E+03 0.  1.
<mgrwt>
<rscale>  2 0.23316714E+03</rscale>
<asrwt>0</asrwt>
<pdfrwt beam="1">  1       21 0.73897275E-01 0.23316714E+03</pdfrwt>
<pdfrwt beam="2">  1       21 0.18272972E-01 0.23316714E+03</pdfrwt>
<totfact> 0.43999476E+04</totfact>
</mgrwt>
</event>
<event>
 4    2  0.3972096E+000  0.2267374E+03  0.7546771E-02  0.1128957E+00
         21   -1    0    0  503  502  0.00000000000E+00  0.00000000000E+00  0.95992017380E+03  0.95992017380E+03  0.00000000000E+00 0. -1.
         21   -1    0    0  501  503 -0.00000000000E+00 -0.00000000000E+00 -0.68260579815E+02  0.68260579815E+02  0.00000000000E+00 0. -1.
          6    1    1    2  501    0 -0.12116495198E+03  0.82461454840E+02  0.20722708383E+03  0.30716917390E+03  0.17300000000E+03 0. -1.
         -6    1    1    2    0  502  0.12116495198E+03 -0.82461454840E+02  0.68443251015E+03  0.72101157971E+03  0.17300000000E+03 0. -1.
<mgrwt>
<rscale>  2 0.22673737E+03</rscale>
<asrwt>0</asrwt>
<pdfrwt beam="1">  1       21 0.14768002E+00 0.22673737E+03</pdfrwt>
<pdfrwt beam="2">  1       21 0.10501628E-01 0.22673737E+03</pdfrwt>
<totfact> 0.22681267E+04</totfact>
</mgrwt>
</event>
<event>
 4    2  0.3972096E+000  0.2255596E+03  0.7546771E-02  0.1129805E+00
         21   -1    0    0  503  502  0.00000000000E+00  0.00000000000E+00  0.55782856133E+03  0.55782856133E+03  0.00000000000E+00 0.  1.
         21   -1    0    0  501  503 -0.00000000000E+00 -0.00000000000E+00 -0.20892795044E+03  0.20892795044E+03  0.00000000000E+00 0.  1.
          6    1    1    2  501    0  0.10837305038E+03  0.95934326412E+02 -0.11332835518E+03  0.25242905760E+03  0.17300000000E+03 0.  1.
         -6    1    1    2    0  502 -0.10837305038E+03 -0.95934326412E+02  0.46222896607E+03  0.51432745417E+03  0.17300000000E+03 0.  1.
<mgrwt>
<rscale>  2 0.22555956E+03</rscale>
<asrwt>0</asrwt>
<pdfrwt beam="1">  1       21 0.85819778E-01 0.22555956E+03</pdfrwt>
<pdfrwt beam="2">  1       21 0.32142762E-01 0.22555956E+03</pdfrwt>
<totfact> 0.10679822E+04</totfact>
</mgrwt>
</event>
<event>
 4    2  0.3972096E+000  0.1951138E+03  0.7546771E-02  0.1153928E+00
         21   -1    0    0  503  502  0.00000000000E+00  0.00000000000E+00  0.34838856157E+03  0.34838856157E+03  0.00000000000E+00 0.  1.
         21   -1    0    0  501  503 -0.00000000000E+00 -0.00000000000E+00 -0.49485964653E+03  0.49485964653E+03  0.00000000000E+00 0.  1.
          6    1    1    2  501    0 -0.83535475341E+02  0.34091502993E+02 -0.44540908465E+03  0.48627015013E+03  0.17300000000E+03 0.  1.
         -6    1    1    2    0  502  0.83535475341E+02 -0.34091502993E+02  0.29893799969E+03  0.35697805797E+03  0.17300000000E+03 0.  1.
<mgrwt>
<rscale>  2 0.19511383E+03</rscale>
<asrwt>0</asrwt>
<pdfrwt beam="1">  1       21 0.53598240E-01 0.19511383E+03</pdfrwt>
<pdfrwt beam="2">  1       21 0.76132253E-01 0.19511383E+03</pdfrwt>
<totfact> 0.50549811E+03</totfact>
</mgrwt>
</event>
<event>
 4    2  0.3972096E+000  0.2558103E+03  0.7546771E-02  0.1109687E+00
         21   -1    0    0  501  502  0.00000000000E+00  0.00000000000E+00  0.26316116017E+03  0.26316116017E+03  0.00000000000E+00 0. -1.
         21   -1    0    0  502  503 -0.00000000000E+00 -0.00000000000E+00 -0.66579755723E+03  0.66579755723E+03  0.00000000000E+00 0.  1.
          6    1    1    2  501    0  0.42435806125E+02 -0.18360042966E+03  0.16633002506E+03  0.30513045185E+03  0.17300000000E+03 0. -1.
         -6    1    1    2    0  503 -0.42435806125E+02  0.18360042966E+03 -0.56896642211E+03  0.62382826555E+03  0.17300000000E+03 0.  1.
<mgrwt>
<rscale>  2 0.25581031E+03</rscale>
<asrwt>0</asrwt>
<pdfrwt beam="1">  1       21 0.40486333E-01 0.25581031E+03</pdfrwt>
<pdfrwt beam="2">  1       21 0.10243039E+00 0.25581031E+03</pdfrwt>
<totfact> 0.43544706E+03</totfact>
</mgrwt>
</event>
<event>
 4    2  0.3972096E+000  0.1773561E+03  0.7546771E-02  0.1170387E+00
         21   -1    0    0  503  502  0.00000000000E+00  0.00000000000E+00  0.13530311385E+04  0.13530311385E+04  0.00000000000E+00 0.  1.
         21   -1    0    0  501  503 -0.00000000000E+00 -0.00000000000E+00 -0.39223456450E+02  0.39223456450E+02  0.00000000000E+00 0.  1.
          6    1    1    2  501    0  0.39006698118E+02 -0.21636619944E+01  0.21263790633E+03  0.27689363145E+03  0.17300000000E+03 0. -1.
         -6    1    1    2    0  502 -0.39006698118E+02  0.21636619944E+01  0.11011697757E+04  0.11153609635E+04  0.17300000000E+03 0. -1.
<mgrwt>
<rscale>  2 0.17735615E+03</rscale>
<asrwt>0</asrwt>
<pdfrwt beam="1">  1       21 0.20815860E+00 0.17735615E+03</pdfrwt>
<pdfrwt beam="2">  1       21 0.60343789E-02 0.17735615E+03</pdfrwt>
<totfact> 0.23546120E+04</totfact>
</mgrwt>
</event>
<event>
 4    2  0.3972096E+000  0.1761431E+03  0.7546771E-02  0.1171589E+00
         21   -1    0    0  503  502  0.00000000000E+00  0.00000000000E+00  0.12145854649E+03  0.12145854649E+03  0.00000000000E+00 0.  1.
         21   -1    0    0  501  503 -0.00000000000E+00 -0.00000000000E+00 -0.25546736263E+03  0.25546736263E+03  0.00000000000E+00 0.  1.
          6    1    1    2  501    0  0.32316678162E+02  0.72822273076E+01 -0.68625590585E+02  0.18903933507E+03  0.17300000000E+03 0.  1.
         -6    1    1    2    0  502 -0.32316678162E+02 -0.72822273076E+01 -0.65383225560E+02  0.18788657405E+03  0.17300000000E+03 0.  1.
<mgrwt>
<rscale>  2 0.17614312E+03</rscale>
<asrwt>0</asrwt>
<pdfrwt beam="1">  1       21 0.18685930E-01 0.17614312E+03</pdfrwt>
<pdfrwt beam="2">  1       21 0.39302671E-01 0.17614312E+03</pdfrwt>
<totfact> 0.16434309E+05</totfact>
</mgrwt>
</event>
<event>
 4    2  0.3972096E+000  0.1855438E+03  0.7546771E-02  0.1162543E+00
         21   -1    0    0  501  502  0.00000000000E+00  0.00000000000E+00  0.60475947045E+03  0.60475947045E+03  0.00000000000E+00 0.  1.
         21   -1    0    0  502  503 -0.00000000000E+00 -0.00000000000E+00 -0.14325454156E+03  0.14325454156E+03  0.00000000000E+00 0.  1.
          6    1    1    2  501    0  0.27124875487E+02 -0.61332953769E+02  0.52108983391E+03  0.55313751011E+03  0.17300000000E+03 0.  1.
         -6    1    1    2    0  503 -0.27124875487E+02  0.61332953769E+02 -0.59584905021E+02  0.19487650190E+03  0.17300000000E+03 0.  1.
<mgrwt>
<rscale>  2 0.18554377E+03</rscale>
<asrwt>0</asrwt>
<pdfrwt beam="1">  1       21 0.93039917E-01 0.18554377E+03</pdfrwt>
<pdfrwt beam="2">  1       21 0.22039161E-01 0.18554377E+03</pdfrwt>
<totfact> 0.18793193E+04</totfact>
</mgrwt>
</event>
<event>
 4    2  0.3972096E+000  0.1944668E+03  0.7546771E-02  0.1154493E+00
         21   -1    0    0  503  502  0.00000000000E+00  0.00000000000E+00  0.12086058045E+04  0.12086058045E+04  0.00000000000E+00 0.  1.
         21   -1    0    0  501  503 -0.00000000000E+00 -0.00000000000E+00 -0.31816305378E+02  0.31816305378E+02  0.00000000000E+00 0.  1.
          6    1    1    2  501    0  0.54757722820E+02  0.69928029400E+02  0.66815975666E+03  0.69588418427E+03  0.17300000000E+03 0.  1.
         -6    1    1    2    0  502 -0.54757722820E+02 -0.69928029400E+02  0.50862974248E+03  0.54453792562E+03  0.17300000000E+03 0.  1.
<mgrwt>
<rscale>  2 0.19446680E+03</rscale>
<asrwt>0</asrwt>
<pdfrwt beam="1">  1       21 0.18593932E+00 0.19446680E+03</pdfrwt>
<pdfrwt beam="2">  1       21 0.48948171E-02 0.19446680E+03</pdfrwt>
<totfact> 0.46221839E+04</totfact>
</mgrwt>
</event>
<event>
 4    2  0.3972096E+000  0.1918862E+03  0.7546771E-02  0.1156771E+00
         21   -1    0    0  503  502  0.00000000000E+00  0.00000000000E+00  0.29081557243E+03  0.29081557243E+03  0.00000000000E+00 0. -1.
         21   -1    0    0  501  503 -0.00000000000E+00 -0.00000000000E+00 -0.14058651771E+03  0.14058651771E+03  0.00000000000E+00 0. -1.
          6    1    1    2  501    0  0.60755304274E+02  0.56569544495E+02  0.71047560346E+01  0.19201770210E+03  0.17300000000E+03 0. -1.
         -6    1    1    2    0  502 -0.60755304274E+02 -0.56569544495E+02  0.14312429869E+03  0.23938438804E+03  0.17300000000E+03 0. -1.
<mgrwt>
<rscale>  2 0.19188622E+03</rscale>
<asrwt>0</asrwt>
<pdfrwt beam="1">  1       21 0.44740857E-01 0.19188622E+03</pdfrwt>
<pdfrwt beam="2">  1       21 0.21628695E-01 0.19188622E+03</pdfrwt>
<totfact> 0.95610012E+04</totfact>
</mgrwt>
</event>
<event>
 4    2  0.3972096E+000  0.1979797E+03  0.7546771E-02  0.1151455E+00
         21   -1    0    0  501  502  0.00000000000E+00  0.00000000000E+00  0.10253009226E+03  0.10253009226E+03  0.00000000000E+00 0.  1.
         21   -1    0    0  502  503 -0.00000000000E+00 -0.00000000000E+00 -0.38464607597E+03  0.38464607597E+03  0.00000000000E+00 0.  1.
          6    1    1    2  501    0  0.82013623451E+02  0.50405748893E+02 -0.12198366829E+03  0.23254244619E+03  0.17300000000E+03 0.  1.
         -6    1    1    2    0  503 -0.82013623451E+02 -0.50405748893E+02 -0.16013231542E+03  0.25463372203E+03  0.17300000000E+03 0.  1.
<mgrwt>
<rscale>  2 0.19797973E+03</rscale>
<asrwt>0</asrwt>
<pdfrwt beam="1">  1       21 0.15773861E-01 0.19797973E+03</pdfrwt>
<pdfrwt beam="2">  1       21 0.59176318E-01 0.19797973E+03</pdfrwt>
<totfact> 0.95315463E+04</totfact>
</mgrwt>
</event>
<event>
 4    2  0.3972096E+000  0.2268547E+03  0.7546771E-02  0.1128873E+00
         21   -1    0    0  503  502  0.00000000000E+00  0.00000000000E+00  0.10564041180E+04  0.10564041180E+04  0.00000000000E+00 0. -1.
         21   -1    0    0  501  503 -0.00000000000E+00 -0.00000000000E+00 -0.54042248375E+02  0.54042248375E+02  0.00000000000E+00 0. -1.
          6    1    1    2  501    0 -0.11465235289E+03  0.91590881486E+02  0.67549796566E+03  0.71257319147E+03  0.17300000000E+03 0.  1.
         -6    1    1    2    0  502  0.11465235289E+03 -0.91590881486E+02  0.32686390399E+03  0.39787317493E+03  0.17300000000E+03 0.  1.
<mgrwt>
<rscale>  2 0.22685469E+03</rscale>
<asrwt>0</asrwt>
<pdfrwt beam="1">  1       21 0.16252369E+00 0.22685469E+03</pdfrwt>
<pdfrwt beam="2">  1       21 0.83141929E-02 0.22685469E+03</pdfrwt>
<totfact> 0.26494252E+04</totfact>
</mgrwt>
</event>
<event>
 4    2  0.3972096E+000  0.1942252E+03  0.7546771E-02  0.1154705E+00
         21   -1    0    0  503  502  0.00000000000E+00  0.00000000000E+00  0.54643464211E+02  0.54643464211E+02  0.00000000000E+00 0.  1.
         21   -1    0    0  501  503 -0.00000000000E+00 -0.00000000000E+00 -0.77045263608E+03  0.77045263608E+03  0.00000000000E+00 0.  1.
          6    1    1    2  501    0  0.81639954671E+02 -0.33605773996E+02 -0.49092226203E+03  0.52794705947E+03  0.17300000000E+03 0.  1.
         -6    1    1    2    0  502 -0.81639954671E+02  0.33605773996E+02 -0.22488690984E+03  0.29714904082E+03  0.17300000000E+03 0.  1.
<mgrwt>
<rscale>  2 0.19422520E+03</rscale>
<asrwt>0</asrwt>
<pdfrwt beam="1">  1       21 0.84066869E-02 0.19422520E+03</pdfrwt>
<pdfrwt beam="2">  1       21 0.11853117E+00 0.19422520E+03</pdfrwt>
<totfact> 0.59879971E+04</totfact>
</mgrwt>
</event>
<event>
 4    2  0.3972096E+000  0.1769569E+03  0.7546771E-02  0.1170781E+00
         21   -1    0    0  501  502  0.00000000000E+00  0.00000000000E+00  0.37010731920E+03  0.37010731920E+03  0.00000000000E+00 0. -1.
         21   -1    0    0  502  503 -0.00000000000E+00 -0.00000000000E+00 -0.16642930381E+03  0.16642930381E+03  0.00000000000E+00 0. -1.
          6    1    1    2  501    0 -0.16439319431E+02 -0.33384289525E+02  0.28993938608E+03  0.33967426987E+03  0.17300000000E+03 0. -1.
         -6    1    1    2    0  503  0.16439319431E+02  0.33384289525E+02 -0.86261370691E+02  0.19686235314E+03  0.17300000000E+03 0. -1.
<mgrwt>
<rscale>  2 0.17695695E+03</rscale>
<asrwt>0</asrwt>
<pdfrwt beam="1">  1       21 0.56939587E-01 0.17695695E+03</pdfrwt>
<pdfrwt beam="2">  1       21 0.25604508E-01 0.17695695E+03</pdfrwt>
<totfact> 0.42266410E+04</totfact>
</mgrwt>
</event>
<event>
 4    2  0.3972096E+000  0.1910549E+03  0.7546771E-02  0.1157513E+00
         21   -1    0    0  501  502  0.00000000000E+00  0.00000000000E+00  0.34288374989E+03  0.34288374989E+03  0.00000000000E+00 0.  1.
         21   -1    0    0  502  503 -0.00000000000E+00 -0.00000000000E+00 -0.21014618785E+03  0.21014618785E+03  0.00000000000E+00 0.  1.
          6    1    1    2  501    0 -0.89656295452E+01 -0.80576558840E+02  0.26060362231E+03  0.32313497538E+03  0.17300000000E+03 0.  1.
         -6    1    1    2    0  503  0.89656295452E+01  0.80576558840E+02 -0.12786606028E+03  0.22989496236E+03  0.17300000000E+03 0.  1.
<mgrwt>
<rscale>  2 0.19105487E+03</rscale>
<asrwt>0</asrwt>
<pdfrwt beam="1">  1       21 0.52751346E-01 0.19105487E+03</pdfrwt>
<pdfrwt beam="2">  1       21 0.32330183E-01 0.19105487E+03</pdfrwt>
<totfact> 0.31381048E+04</totfact>
</mgrwt>
</event>
<event>
 4    2  0.3972096E+000  0.1964606E+03  0.7546771E-02  0.1152760E+00
         21   -1    0    0  503  502  0.00000000000E+00  0.00000000000E+00  0.39785539157E+03  0.39785539157E+03  0.00000000000E+00 0.  1.
         21   -1    0    0  501  503 -0.00000000000E+00 -0.00000000000E+00 -0.18231412483E+03  0.18231412483E+03  0.00000000000E+00 0.  1.
          6    1    1    2  501    0 -0.93057990308E+02  0.28251125466E+01 -0.90653515349E+02  0.21636735120E+03  0.17300000000E+03 0.  1.
         -6    1    1    2    0  502  0.93057990308E+02 -0.28251125466E+01  0.30619478209E+03  0.36380216520E+03  0.17300000000E+03 0.  1.
<mgrwt>
<rscale>  2 0.19646061E+03</rscale>
<asrwt>0</asrwt>
<pdfrwt beam="1">  1       21 0.61208522E-01 0.19646061E+03</pdfrwt>
<pdfrwt beam="2">  1       21 0.28048327E-01 0.19646061E+03</pdfrwt>
<totfact> 0.30081009E+04</totfact>
</mgrwt>
</event>
<event>
 4    2  0.3972096E+000  0.2908066E+03  0.7546771E-02  0.1089929E+00
         21   -1    0    0  503  502  0.00000000000E+00  0.00000000000E+00  0.20063555069E+03  0.20063555069E+03  0.00000000000E+00 0. -1.
         21   -1    0    0  501  503 -0.00000000000E+00 -0.00000000000E+00 -0.45699351344E+03  0.45699351344E+03  0.00000000000E+00 0.  1.
          6    1    1    2  501    0  0.19525396197E+03 -0.12851203067E+03 -0.21981225213E+03  0.36453515315E+03  0.17300000000E+03 0.  1.
         -6    1    1    2    0  502 -0.19525396197E+03  0.12851203067E+03 -0.36545710618E+02  0.29309391099E+03  0.17300000000E+03 0. -1.
<mgrwt>
<rscale>  2 0.29080655E+03</rscale>
<asrwt>0</asrwt>
<pdfrwt beam="1">  1       21 0.30867008E-01 0.29080655E+03</pdfrwt>
<pdfrwt beam="2">  1       21 0.70306694E-01 0.29080655E+03</pdfrwt>
<totfact> 0.17580479E+04</totfact>
</mgrwt>
</event>
<event>
 4    2  0.3972096E+000  0.1877550E+03  0.7546771E-02  0.1160502E+00
         21   -1    0    0  501  502  0.00000000000E+00  0.00000000000E+00  0.33366300273E+03  0.33366300273E+03  0.00000000000E+00 0.  1.
         21   -1    0    0  502  503 -0.00000000000E+00 -0.00000000000E+00 -0.63307585144E+03  0.63307585144E+03  0.00000000000E+00 0.  1.
          6    1    1    2  501    0 -0.67307374609E+02  0.28154147086E+02  0.29148947218E+03  0.34672474827E+03  0.17300000000E+03 0.  1.
         -6    1    1    2    0  503  0.67307374609E+02 -0.28154147086E+02 -0.59090232089E+03  0.62001410589E+03  0.17300000000E+03 0.  1.
<mgrwt>
<rscale>  2 0.18775500E+03</rscale>
<asrwt>0</asrwt>
<pdfrwt beam="1">  1       21 0.51332770E-01 0.18775500E+03</pdfrwt>
<pdfrwt beam="2">  1       21 0.97396285E-01 0.18775500E+03</pdfrwt>
<totfact> 0.31645204E+03</totfact>
</mgrwt>
</event>
<event>
 4    2  0.3972096E+000  0.2052004E+03  0.7546771E-02  0.1145424E+00
         21   -1    0    0  503  502  0.00000000000E+00  0.00000000000E+00  0.41414392420E+03  0.41414392420E+03  0.00000000000E+00 0.  1.
         21   -1    0    0  501  503 -0.00000000000E+00 -0.00000000000E+00 -0.49160957610E+03  0.49160957610E+03  0.00000000000E+00 0.  1.
          6    1    1    2  501    0  0.43254515468E+02 -0.10152463777E+03 -0.44206875695E+03  0.48737253827E+03  0.17300000000E+03 0.  1.
         -6    1    1    2    0  502 -0.43254515468E+02  0.10152463777E+03  0.36460310505E+03  0.41838096204E+03  0.17300000000E+03 0.  1.
<mgrwt>
<rscale>  2 0.20520040E+03</rscale>
<asrwt>0</asrwt>
<pdfrwt beam="1">  1       21 0.63714450E-01 0.20520040E+03</pdfrwt>
<pdfrwt beam="2">  1       21 0.75632242E-01 0.20520040E+03</pdfrwt>
<totfact> 0.35152777E+03</totfact>
</mgrwt>
</event>
<event>
 4    2  0.3972096E+000  0.2460922E+03  0.7546771E-02  0.1115800E+00
         21   -1    0    0  501  502  0.00000000000E+00  0.00000000000E+00  0.69646874496E+03  0.69646874496E+03  0.00000000000E+00 0.  1.
         21   -1    0    0  502  503 -0.00000000000E+00 -0.00000000000E+00 -0.10752128748E+03  0.10752128748E+03  0.00000000000E+00 0.  1.
          6    1    1    2  501    0 -0.73564012619E+02  0.15881031976E+03  0.11866020727E+03  0.27320619759E+03  0.17300000000E+03 0.  1.
         -6    1    1    2    0  503  0.73564012619E+02 -0.15881031976E+03  0.47028725022E+03  0.53078383485E+03  0.17300000000E+03 0.  1.
<mgrwt>
<rscale>  2 0.24609222E+03</rscale>
<asrwt>0</asrwt>
<pdfrwt beam="1">  1       21 0.10714904E+00 0.24609222E+03</pdfrwt>
<pdfrwt beam="2">  1       21 0.16541737E-01 0.24609222E+03</pdfrwt>
<totfact> 0.22150168E+04</totfact>
</mgrwt>
</event>
<event>
 4    2  0.3972096E+000  0.1840392E+03  0.7546771E-02  0.1163950E+00
         21   -1    0    0  501  502  0.00000000000E+00  0.00000000000E+00  0.27802047843E+03  0.27802047843E+03  0.00000000000E+00 0.  1.
         21   -1    0    0  502  503 -0.00000000000E+00 -0.00000000000E+00 -0.19350349993E+03  0.19350349993E+03  0.00000000000E+00 0.  1.
          6    1    1    2  501    0 -0.57093549702E+02  0.26110106798E+02  0.18574717502E+03  0.26148121180E+03  0.17300000000E+03 0.  1.
         -6    1    1    2    0  503  0.57093549702E+02 -0.26110106798E+02 -0.10123019653E+03  0.21004276656E+03  0.17300000000E+03 0.  1.
<mgrwt>
<rscale>  2 0.18403916E+03</rscale>
<asrwt>0</asrwt>
<pdfrwt beam="1">  1       21 0.42772381E-01 0.18403916E+03</pdfrwt>
<pdfrwt beam="2">  1       21 0.29769769E-01 0.18403916E+03</pdfrwt>
<totfact> 0.57092213E+04</totfact>
</mgrwt>
</event>
<event>
 4    2  0.3972096E+000  0.1897256E+03  0.7546771E-02  0.1158709E+00
         21   -1    0    0  501  502  0.00000000000E+00  0.00000000000E+00  0.85878032460E+03  0.85878032460E+03  0.00000000000E+00 0. -1.
         21   -1    0    0  502  503 -0.00000000000E+00 -0.00000000000E+00 -0.55968833928E+02  0.55968833928E+02  0.00000000000E+00 0. -1.
          6    1    1    2  501    0  0.15154357136E+02  0.76401216082E+02  0.63059586293E+03  0.65851874894E+03  0.17300000000E+03 0. -1.
         -6    1    1    2    0  503 -0.15154357136E+02 -0.76401216082E+02  0.17221562774E+03  0.25623040959E+03  0.17300000000E+03 0. -1.
<mgrwt>
<rscale>  2 0.18972559E+03</rscale>
<asrwt>0</asrwt>
<pdfrwt beam="1">  1       21 0.13212004E+00 0.18972559E+03</pdfrwt>
<pdfrwt beam="2">  1       21 0.86105904E-02 0.18972559E+03</pdfrwt>
<totfact> 0.43867342E+04</totfact>
</mgrwt>
</event>
<event>
 4    2  0.3972096E+000  0.1991534E+03  0.7546771E-02  0.1150455E+00
         21   -1    0    0  503  502  0.00000000000E+00  0.00000000000E+00  0.49387103524E+03  0.49387103524E+03  0.00000000000E+00 0.  1.
         21   -1    0    0  501  503 -0.00000000000E+00 -0.00000000000E+00 -0.84898986113E+02  0.84898986113E+02  0.00000000000E+00 0.  1.
          6    1    1    2  501    0  0.98534862422E+02 -0.48937556374E+01  0.13719585290E+03  0.24183624627E+03  0.17300000000E+03 0.  1.
         -6    1    1    2    0  502 -0.98534862422E+02  0.48937556374E+01  0.27177619623E+03  0.33693377509E+03  0.17300000000E+03 0.  1.
<mgrwt>
<rscale>  2 0.19915338E+03</rscale>
<asrwt>0</asrwt>
<pdfrwt beam="1">  1       21 0.75980158E-01 0.19915338E+03</pdfrwt>
<pdfrwt beam="2">  1       21 0.13061383E-01 0.19915338E+03</pdfrwt>
<totfact> 0.77617116E+04</totfact>
</mgrwt>
</event>
<event>
 4    2  0.3972096E+000  0.2059612E+03  0.7546771E-02  0.1144805E+00
         21   -1    0    0  503  502  0.00000000000E+00  0.00000000000E+00  0.60468019871E+03  0.60468019871E+03  0.00000000000E+00 0.  1.
         21   -1    0    0  501  503 -0.00000000000E+00 -0.00000000000E+00 -0.25708473886E+03  0.25708473886E+03  0.00000000000E+00 0. -1.
          6    1    1    2  501    0 -0.68608450583E+02 -0.88226356313E+02 -0.19362196358E+03  0.28268263870E+03  0.17300000000E+03 0. -1.
         -6    1    1    2    0  502  0.68608450583E+02  0.88226356313E+02  0.54121742344E+03  0.57908229887E+03  0.17300000000E+03 0.  1.
<mgrwt>
<rscale>  2 0.20596118E+03</rscale>
<asrwt>0</asrwt>
<pdfrwt beam="1">  1       21 0.93027723E-01 0.20596118E+03</pdfrwt>
<pdfrwt beam="2">  1       21 0.39551498E-01 0.20596118E+03</pdfrwt>
<totfact> 0.59346872E+03</totfact>
</mgrwt>
</event>
<event>
 4    2  0.3972096E+000  0.1861415E+03  0.7546771E-02  0.1161988E+00
         21   -1    0    0  503  502  0.00000000000E+00  0.00000000000E+00  0.88290845455E+02  0.88290845455E+02  0.00000000000E+00 0. -1.
         21   -1    0    0  501  503 -0.00000000000E+00 -0.00000000000E+00 -0.12190875461E+04  0.12190875461E+04  0.00000000000E+00 0. -1.
          6    1    1    2  501    0  0.42878005597E+02  0.53676088562E+02 -0.11036863344E+04  0.11192730546E+04  0.17300000000E+03 0. -1.
         -6    1    1    2    0  502 -0.42878005597E+02 -0.53676088562E+02 -0.27110366203E+02  0.18810533699E+03  0.17300000000E+03 0. -1.
<mgrwt>
<rscale>  2 0.18614147E+03</rscale>
<asrwt>0</asrwt>
<pdfrwt beam="1">  1       21 0.13583208E-01 0.18614147E+03</pdfrwt>
<pdfrwt beam="2">  1       21 0.18755191E+00 0.18614147E+03</pdfrwt>
<totfact> 0.76455598E+03</totfact>
</mgrwt>
</event>
<event>
 4    2  0.3972096E+000  0.1731277E+03  0.7546771E-02  0.1174625E+00
         21   -1    0    0  501  502  0.00000000000E+00  0.00000000000E+00  0.62036523139E+03  0.62036523139E+03  0.00000000000E+00 0.  1.
         21   -1    0    0  502  503 -0.00000000000E+00 -0.00000000000E+00 -0.48315419664E+02  0.48315419664E+02  0.00000000000E+00 0.  1.
          6    1    1    2  501    0  0.45962586414E+01 -0.48021665198E+01  0.28629871703E+03  0.33457456832E+03  0.17300000000E+03 0.  1.
         -6    1    1    2    0  503 -0.45962586414E+01  0.48021665198E+01  0.28575109470E+03  0.33410608273E+03  0.17300000000E+03 0.  1.
<mgrwt>
<rscale>  2 0.17312766E+03</rscale>
<asrwt>0</asrwt>
<pdfrwt beam="1">  1       21 0.95440799E-01 0.17312766E+03</pdfrwt>
<pdfrwt beam="2">  1       21 0.74331419E-02 0.17312766E+03</pdfrwt>
<totfact> 0.12587527E+05</totfact>
</mgrwt>
</event>
<event>
 4    2  0.3972096E+000  0.1809022E+03  0.7546771E-02  0.1166933E+00
         21   -1    0    0  503  502  0.00000000000E+00  0.00000000000E+00  0.87036610127E+02  0.87036610127E+02  0.00000000000E+00 0. -1.
         21   -1    0    0  501  503 -0.00000000000E+00 -0.00000000000E+00 -0.46552302906E+03  0.46552302906E+03  0.00000000000E+00 0. -1.
          6    1    1    2  501    0 -0.21194448285E+02  0.48449856215E+02 -0.31040083738E+03  0.35926908168E+03  0.17300000000E+03 0. -1.
         -6    1    1    2    0  502  0.21194448285E+02 -0.48449856215E+02 -0.68085581550E+02  0.19329055750E+03  0.17300000000E+03 0. -1.
<mgrwt>
<rscale>  2 0.18090216E+03</rscale>
<asrwt>0</asrwt>
<pdfrwt beam="1">  1       21 0.13390248E-01 0.18090216E+03</pdfrwt>
<pdfrwt beam="2">  1       21 0.71618928E-01 0.18090216E+03</pdfrwt>
<totfact> 0.85305021E+04</totfact>
</mgrwt>
</event>
<event>
 4    2  0.3972096E+000  0.1823542E+03  0.7546771E-02  0.1165544E+00
         21   -1    0    0  501  502  0.00000000000E+00  0.00000000000E+00  0.17762978597E+03  0.17762978597E+03  0.00000000000E+00 0. -1.
         21   -1    0    0  502  503 -0.00000000000E+00 -0.00000000000E+00 -0.39064774878E+03  0.39064774878E+03  0.00000000000E+00 0. -1.
          6    1    1    2  501    0 -0.24405508391E+02 -0.52234304185E+02  0.98540999953E+02  0.20727609617E+03  0.17300000000E+03 0.  1.
         -6    1    1    2    0  503  0.24405508391E+02  0.52234304185E+02 -0.31155896276E+03  0.36100143857E+03  0.17300000000E+03 0.  1.
<mgrwt>
<rscale>  2 0.18235419E+03</rscale>
<asrwt>0</asrwt>
<pdfrwt beam="1">  1       21 0.27327660E-01 0.18235419E+03</pdfrwt>
<pdfrwt beam="2">  1       21 0.60099653E-01 0.18235419E+03</pdfrwt>
<totfact> 0.33148934E+04</totfact>
</mgrwt>
</event>
<event>
 4    2  0.3972096E+000  0.1742538E+03  0.7546771E-02  0.1173483E+00
         21   -1    0    0  501  502  0.00000000000E+00  0.00000000000E+00  0.18067558422E+03  0.18067558422E+03  0.00000000000E+00 0. -1.
         21   -1    0    0  502  503 -0.00000000000E+00 -0.00000000000E+00 -0.19956205473E+03  0.19956205473E+03  0.00000000000E+00 0. -1.
          6    1    1    2  501    0 -0.23967878985E+01 -0.20727763452E+02  0.66092734302E+02  0.18636693456E+03  0.17300000000E+03 0. -1.
         -6    1    1    2    0  503  0.23967878985E+01  0.20727763452E+02 -0.84979204815E+02  0.19387070439E+03  0.17300000000E+03 0. -1.
<mgrwt>
<rscale>  2 0.17425379E+03</rscale>
<asrwt>0</asrwt>
<pdfrwt beam="1">  1       21 0.27796244E-01 0.17425379E+03</pdfrwt>
<pdfrwt beam="2">  1       21 0.30701854E-01 0.17425379E+03</pdfrwt>
<totfact> 0.12667205E+05</totfact>
</mgrwt>
</event>
<event>
 4    2  0.3972096E+000  0.2478832E+03  0.7546771E-02  0.1114650E+00
         21   -1    0    0  503  502  0.00000000000E+00  0.00000000000E+00  0.30897477735E+03  0.30897477735E+03  0.00000000000E+00 0. -1.
         21   -1    0    0  501  503 -0.00000000000E+00 -0.00000000000E+00 -0.22328132325E+03  0.22328132325E+03  0.00000000000E+00 0. -1.
          6    1    1    2  501    0  0.77335212430E+02 -0.15980088885E+03 -0.45147271991E+02  0.25196097977E+03  0.17300000000E+03 0. -1.
         -6    1    1    2    0  502 -0.77335212430E+02  0.15980088885E+03  0.13084072609E+03  0.28029512083E+03  0.17300000000E+03 0. -1.
<mgrwt>
<rscale>  2 0.24788316E+03</rscale>
<asrwt>0</asrwt>
<pdfrwt beam="1">  1       21 0.47534581E-01 0.24788316E+03</pdfrwt>
<pdfrwt beam="2">  1       21 0.34350973E-01 0.24788316E+03</pdfrwt>
<totfact> 0.33643627E+04</totfact>
</mgrwt>
</event>
<event>
 4    2  0.3972096E+000  0.2818786E+03  0.7546771E-02  0.1094667E+00
         21   -1    0    0  503  502  0.00000000000E+00  0.00000000000E+00  0.28730101793E+04  0.28730101793E+04  0.00000000000E+00 0.  1.
         21   -1    0    0  501  503 -0.00000000000E+00 -0.00000000000E+00 -0.29398366536E+02  0.29398366536E+02  0.00000000000E+00 0. -1.
          6    1    1    2  501    0  0.19644114347E+03 -0.10458206825E+03  0.17751157145E+04  0.17973567625E+04  0.17300000000E+03 0.  1.
         -6    1    1    2    0  502 -0.19644114347E+03  0.10458206825E+03  0.10684960983E+04  0.11050517834E+04  0.17300000000E+03 0. -1.
<mgrwt>
<rscale>  2 0.28187858E+03</rscale>
<asrwt>0</asrwt>
<pdfrwt beam="1">  1       21 0.44200134E+00 0.28187858E+03</pdfrwt>
<pdfrwt beam="2">  1       21 0.45228279E-02 0.28187858E+03</pdfrwt>
<totfact> 0.13370021E+03</totfact>
</mgrwt>
</event>
<event>
 4    2  0.3972096E+000  0.2030851E+03  0.7546771E-02  0.1147162E+00
         21   -1    0    0  503  502  0.00000000000E+00  0.00000000000E+00  0.51100654226E+03  0.51100654226E+03  0.00000000000E+00 0.  1.
         21   -1    0    0  501  503 -0.00000000000E+00 -0.00000000000E+00 -0.80904669964E+02  0.80904669964E+02  0.00000000000E+00 0.  1.
          6    1    1    2  501    0 -0.14849613562E+02 -0.10532824259E+03  0.22955289527E+03  0.30649319966E+03  0.17300000000E+03 0.  1.
         -6    1    1    2    0  502  0.14849613562E+02  0.10532824259E+03  0.20054897703E+03  0.28541801257E+03  0.17300000000E+03 0.  1.
<mgrwt>
<rscale>  2 0.20308508E+03</rscale>
<asrwt>0</asrwt>
<pdfrwt beam="1">  1       21 0.78616389E-01 0.20308508E+03</pdfrwt>
<pdfrwt beam="2">  1       21 0.12446873E-01 0.20308508E+03</pdfrwt>
<totfact> 0.78261376E+04</totfact>
</mgrwt>
</event>
<event>
 4    2  0.3972096E+000  0.1967506E+03  0.7546771E-02  0.1152510E+00
         21   -1    0    0  501  502  0.00000000000E+00  0.00000000000E+00  0.37897481241E+03  0.37897481241E+03  0.00000000000E+00 0. -1.
         21   -1    0    0  502  503 -0.00000000000E+00 -0.00000000000E+00 -0.22081004442E+03  0.22081004442E+03  0.00000000000E+00 0. -1.
          6    1    1    2  501    0 -0.68841621352E+02 -0.63581701900E+02 -0.14076204572E+03  0.24191890203E+03  0.17300000000E+03 0. -1.
         -6    1    1    2    0  503  0.68841621352E+02  0.63581701900E+02  0.29892681371E+03  0.35786595480E+03  0.17300000000E+03 0. -1.
<mgrwt>
<rscale>  2 0.19675061E+03</rscale>
<asrwt>0</asrwt>
<pdfrwt beam="1">  1       21 0.58303817E-01 0.19675061E+03</pdfrwt>
<pdfrwt beam="2">  1       21 0.33970776E-01 0.19675061E+03</pdfrwt>
<totfact> 0.22949246E+04</totfact>
</mgrwt>
</event>
<event>
 4    2  0.3972096E+000  0.1866285E+03  0.7546771E-02  0.1161538E+00
         21   -1    0    0  503  502  0.00000000000E+00  0.00000000000E+00  0.65021829377E+02  0.65021829377E+02  0.00000000000E+00 0. -1.
         21   -1    0    0  501  503 -0.00000000000E+00 -0.00000000000E+00 -0.54556993967E+03  0.54556993967E+03  0.00000000000E+00 0. -1.
          6    1    1    2  501    0 -0.12101945064E+02 -0.68954728650E+02 -0.19914746635E+03  0.27292842474E+03  0.17300000000E+03 0. -1.
         -6    1    1    2    0  502  0.12101945064E+02  0.68954728650E+02 -0.28140064394E+03  0.33766334431E+03  0.17300000000E+03 0. -1.
<mgrwt>
<rscale>  2 0.18662854E+03</rscale>
<asrwt>0</asrwt>
<pdfrwt beam="1">  1       21 0.10003358E-01 0.18662854E+03</pdfrwt>
<pdfrwt beam="2">  1       21 0.83933841E-01 0.18662854E+03</pdfrwt>
<totfact> 0.10025642E+05</totfact>
</mgrwt>
</event>
<event>
 4    2  0.3972096E+000  0.1951659E+03  0.7546771E-02  0.1153883E+00
         21   -1    0    0  501  502  0.00000000000E+00  0.00000000000E+00  0.93456814146E+03  0.93456814146E+03  0.00000000000E+00 0.  1.
         21   -1    0    0  502  503 -0.00000000000E+00 -0.00000000000E+00 -0.52451508783E+02  0.52451508783E+02  0.00000000000E+00 0.  1.
          6    1    1    2  501    0 -0.37164683987E+02 -0.82337821265E+02  0.67409109063E+03  0.70177526960E+03  0.17300000000E+03 0.  1.
         -6    1    1    2    0  503  0.37164683987E+02  0.82337821265E+02  0.20802554204E+03  0.28524438064E+03  0.17300000000E+03 0.  1.
<mgrwt>
<rscale>  2 0.19516591E+03</rscale>
<asrwt>0</asrwt>
<pdfrwt beam="1">  1       21 0.14377970E+00 0.19516591E+03</pdfrwt>
<pdfrwt beam="2">  1       21 0.80694636E-02 0.19516591E+03</pdfrwt>
<totfact> 0.39417562E+04</totfact>
</mgrwt>
</event>
<event>
 4    2  0.3972096E+000  0.2246455E+03  0.7546771E-02  0.1130466E+00
         21   -1    0    0  503  502  0.00000000000E+00  0.00000000000E+00  0.36782945825E+03  0.36782945825E+03  0.00000000000E+00 0. -1.
         21   -1    0    0  501  503 -0.00000000000E+00 -0.00000000000E+00 -0.40912145151E+03  0.40912145151E+03  0.00000000000E+00 0. -1.
          6    1    1    2  501    0  0.47882940859E+02 -0.13506969570E+03 -0.33735506742E+03  0.40530734046E+03  0.17300000000E+03 0. -1.
         -6    1    1    2    0  502 -0.47882940859E+02  0.13506969570E+03  0.29606307415E+03  0.37164356929E+03  0.17300000000E+03 0. -1.
<mgrwt>
<rscale>  2 0.22464550E+03</rscale>
<asrwt>0</asrwt>
<pdfrwt beam="1">  1       21 0.56589147E-01 0.22464550E+03</pdfrwt>
<pdfrwt beam="2">  1       21 0.62941762E-01 0.22464550E+03</pdfrwt>
<totfact> 0.67089750E+03</totfact>
</mgrwt>
</event>
<event>
 4    2  0.3972096E+000  0.1889658E+03  0.7546771E-02  0.1159397E+00
         21   -1    0    0  503  502  0.00000000000E+00  0.00000000000E+00  0.58726916083E+02  0.58726916083E+02  0.00000000000E+00 0.  1.
         21   -1    0    0  501  503 -0.00000000000E+00 -0.00000000000E+00 -0.86301167724E+03  0.86301167724E+03  0.00000000000E+00 0.  1.
          6    1    1    2  501    0 -0.70780245979E+02  0.27734964825E+02 -0.65264883958E+03  0.67945461901E+03  0.17300000000E+03 0.  1.
         -6    1    1    2    0  502  0.70780245979E+02 -0.27734964825E+02 -0.15163592158E+03  0.24228397431E+03  0.17300000000E+03 0.  1.
<mgrwt>
<rscale>  2 0.18896579E+03</rscale>
<asrwt>0</asrwt>
<pdfrwt beam="1">  1       21 0.90349099E-02 0.18896579E+03</pdfrwt>
<pdfrwt beam="2">  1       21 0.13277103E+00 0.18896579E+03</pdfrwt>
<totfact> 0.39841920E+04</totfact>
</mgrwt>
</event>
<event>
 4    2  0.3972096E+000  0.2250784E+03  0.7546771E-02  0.1130153E+00
         21   -1    0    0  503  502  0.00000000000E+00  0.00000000000E+00  0.18037512566E+03  0.18037512566E+03  0.00000000000E+00 0. -1.
         21   -1    0    0  501  503 -0.00000000000E+00 -0.00000000000E+00 -0.10788854262E+04  0.10788854262E+04  0.00000000000E+00 0. -1.
          6    1    1    2  501    0  0.18397011757E+02  0.14280341921E+03 -0.99076472501E+03  0.10160093538E+04  0.17300000000E+03 0. -1.
         -6    1    1    2    0  502 -0.18397011757E+02 -0.14280341921E+03  0.92254424426E+02  0.24325119816E+03  0.17300000000E+03 0. -1.
<mgrwt>
<rscale>  2 0.22507836E+03</rscale>
<asrwt>0</asrwt>
<pdfrwt beam="1">  1       21 0.27750019E-01 0.22507836E+03</pdfrwt>
<pdfrwt beam="2">  1       21 0.16598237E+00 0.22507836E+03</pdfrwt>
<totfact> 0.27438155E+03</totfact>
</mgrwt>
</event>
<event>
 4    2  0.3972096E+000  0.2146491E+03  0.7546771E-02  0.1137936E+00
         21   -1    0    0  501  502  0.00000000000E+00  0.00000000000E+00  0.61038293164E+02  0.61038293164E+02  0.00000000000E+00 0. -1.
         21   -1    0    0  502  503 -0.00000000000E+00 -0.00000000000E+00 -0.77021111622E+03  0.77021111622E+03  0.00000000000E+00 0. -1.
          6    1    1    2  501    0  0.11750415880E+03 -0.48352792433E+02 -0.41329908898E+03  0.46571488791E+03  0.17300000000E+03 0. -1.
         -6    1    1    2    0  503 -0.11750415880E+03  0.48352792433E+02 -0.29587373407E+03  0.36553452147E+03  0.17300000000E+03 0. -1.
<mgrwt>
<rscale>  2 0.21464906E+03</rscale>
<asrwt>0</asrwt>
<pdfrwt beam="1">  1       21 0.93905066E-02 0.21464906E+03</pdfrwt>
<pdfrwt beam="2">  1       21 0.11849402E+00 0.21464906E+03</pdfrwt>
<totfact> 0.48833584E+04</totfact>
</mgrwt>
</event>
<event>
 4    2  0.3972096E+000  0.2637371E+03  0.7546771E-02  0.1104919E+00
         21   -1    0    0  501  502  0.00000000000E+00  0.00000000000E+00  0.15764874636E+03  0.15764874636E+03  0.00000000000E+00 0. -1.
         21   -1    0    0  502  503 -0.00000000000E+00 -0.00000000000E+00 -0.57077398377E+03  0.57077398377E+03  0.00000000000E+00 0. -1.
          6    1    1    2  501    0 -0.18104235822E+03  0.82776198123E+02 -0.33041398179E+02  0.26579873671E+03  0.17300000000E+03 0. -1.
         -6    1    1    2    0  503  0.18104235822E+03 -0.82776198123E+02 -0.38008383923E+03  0.46262399342E+03  0.17300000000E+03 0. -1.
<mgrwt>
<rscale>  2 0.26373706E+03</rscale>
<asrwt>0</asrwt>
<pdfrwt beam="1">  1       21 0.24253653E-01 0.26373706E+03</pdfrwt>
<pdfrwt beam="2">  1       21 0.87811384E-01 0.26373706E+03</pdfrwt>
<totfact> 0.17153220E+04</totfact>
</mgrwt>
</event>
<event>
 4    2  0.3972096E+000  0.2135961E+03  0.7546771E-02  0.1138750E+00
         21   -1    0    0  503  502  0.00000000000E+00  0.00000000000E+00  0.18351788852E+03  0.18351788852E+03  0.00000000000E+00 0.  1.
         21   -1    0    0  501  503 -0.00000000000E+00 -0.00000000000E+00 -0.31537979206E+03  0.31537979206E+03  0.00000000000E+00 0. -1.
          6    1    1    2  501    0 -0.12199798742E+03  0.28474154100E+02 -0.18071300505E+03  0.27978648391E+03  0.17300000000E+03 0. -1.
         -6    1    1    2    0  502  0.12199798742E+03 -0.28474154100E+02  0.48851101503E+02  0.21911119667E+03  0.17300000000E+03 0.  1.
<mgrwt>
<rscale>  2 0.21359608E+03</rscale>
<asrwt>0</asrwt>
<pdfrwt beam="1">  1       21 0.28233521E-01 0.21359608E+03</pdfrwt>
<pdfrwt beam="2">  1       21 0.48519968E-01 0.21359608E+03</pdfrwt>
<totfact> 0.48140078E+04</totfact>
</mgrwt>
</event>
<event>
 4    2  0.3972096E+000  0.4151051E+03  0.7546771E-02  0.1038671E+00
         21   -1    0    0  501  502  0.00000000000E+00  0.00000000000E+00  0.35201049014E+03  0.35201049014E+03  0.00000000000E+00 0. -1.
         21   -1    0    0  502  503 -0.00000000000E+00 -0.00000000000E+00 -0.61936783587E+03  0.61936783587E+03  0.00000000000E+00 0.  1.
          6    1    1    2  501    0 -0.32801083168E+03  0.18652655227E+03  0.88713779637E+02  0.42447896897E+03  0.17300000000E+03 0. -1.
         -6    1    1    2    0  503  0.32801083168E+03 -0.18652655227E+03 -0.35607112537E+03  0.54689935704E+03  0.17300000000E+03 0.  1.
<mgrwt>
<rscale>  2 0.41510512E+03</rscale>
<asrwt>0</asrwt>
<pdfrwt beam="1">  1       21 0.54155461E-01 0.41510512E+03</pdfrwt>
<pdfrwt beam="2">  1       21 0.95287358E-01 0.41510512E+03</pdfrwt>
<totfact> 0.26048770E+03</totfact>
</mgrwt>
</event>
<event>
 4    2  0.3972096E+000  0.2280200E+03  0.7546771E-02  0.1128041E+00
         21   -1    0    0  503  502  0.00000000000E+00  0.00000000000E+00  0.68781319052E+03  0.68781319052E+03  0.00000000000E+00 0. -1.
         21   -1    0    0  501  503 -0.00000000000E+00 -0.00000000000E+00 -0.12150149197E+03  0.12150149197E+03  0.00000000000E+00 0. -1.
          6    1    1    2  501    0 -0.14668789654E+03  0.23382907873E+02  0.34414274361E+02  0.23060234529E+03  0.17300000000E+03 0. -1.
         -6    1    1    2    0  502  0.14668789654E+03 -0.23382907873E+02  0.53189742419E+03  0.57871233720E+03  0.17300000000E+03 0. -1.
<mgrwt>
<rscale>  2 0.22801995E+03</rscale>
<asrwt>0</asrwt>
<pdfrwt beam="1">  1       21 0.10581741E+00 0.22801995E+03</pdfrwt>
<pdfrwt beam="2">  1       21 0.18692538E-01 0.22801995E+03</pdfrwt>
<totfact> 0.18375851E+04</totfact>
</mgrwt>
</event>
<event>
 4    2  0.3972096E+000  0.1842304E+03  0.7546771E-02  0.1163771E+00
         21   -1    0    0  501  502  0.00000000000E+00  0.00000000000E+00  0.10196697422E+04  0.10196697422E+04  0.00000000000E+00 0.  1.
         21   -1    0    0  502  503 -0.00000000000E+00 -0.00000000000E+00 -0.41654141313E+02  0.41654141313E+02  0.00000000000E+00 0. -1.
          6    1    1    2  501    0  0.17509218871E+02 -0.60870783431E+02  0.72685654210E+03  0.74984082165E+03  0.17300000000E+03 0. -1.
         -6    1    1    2    0  503 -0.17509218871E+02  0.60870783431E+02  0.25115905883E+03  0.31148306190E+03  0.17300000000E+03 0. -1.
<mgrwt>
<rscale>  2 0.18423036E+03</rscale>
<asrwt>0</asrwt>
<pdfrwt beam="1">  1       21 0.15687225E+00 0.18423036E+03</pdfrwt>
<pdfrwt beam="2">  1       21 0.64083302E-02 0.18423036E+03</pdfrwt>
<totfact> 0.46973930E+04</totfact>
</mgrwt>
</event>
<event>
 4    2  0.3972096E+000  0.2380899E+03  0.7546771E-02  0.1121072E+00
         21   -1    0    0  503  502  0.00000000000E+00  0.00000000000E+00  0.47339854335E+03  0.47339854335E+03  0.00000000000E+00 0. -1.
         21   -1    0    0  501  503 -0.00000000000E+00 -0.00000000000E+00 -0.18646226765E+03  0.18646226765E+03  0.00000000000E+00 0.  1.
          6    1    1    2  501    0  0.97281228424E+02  0.13150729192E+03 -0.53886833851E+02  0.24411185160E+03  0.17300000000E+03 0.  1.
         -6    1    1    2    0  502 -0.97281228424E+02 -0.13150729192E+03  0.34082310955E+03  0.41574895939E+03  0.17300000000E+03 0. -1.
<mgrwt>
<rscale>  2 0.23808991E+03</rscale>
<asrwt>0</asrwt>
<pdfrwt beam="1">  1       21 0.72830545E-01 0.23808991E+03</pdfrwt>
<pdfrwt beam="2">  1       21 0.28686503E-01 0.23808991E+03</pdfrwt>
<totfact> 0.19227847E+04</totfact>
</mgrwt>
</event>
<event>
 4    2  0.3972096E+000  0.2385946E+03  0.7546771E-02  0.1120733E+00
         21   -1    0    0  501  502  0.00000000000E+00  0.00000000000E+00  0.16875776623E+04  0.16875776623E+04  0.00000000000E+00 0.  1.
         21   -1    0    0  502  503 -0.00000000000E+00 -0.00000000000E+00 -0.36709801677E+02  0.36709801677E+02  0.00000000000E+00 0.  1.
          6    1    1    2  501    0 -0.16033972693E+03 -0.35910587237E+02  0.10709324429E+04  0.10971889972E+04  0.17300000000E+03 0.  1.
         -6    1    1    2    0  503  0.16033972693E+03  0.35910587237E+02  0.57993541768E+03  0.62709846674E+03  0.17300000000E+03 0.  1.
<mgrwt>
<rscale>  2 0.23859463E+03</rscale>
<asrwt>0</asrwt>
<pdfrwt beam="1">  1       21 0.25962727E+00 0.23859463E+03</pdfrwt>
<pdfrwt beam="2">  1       21 0.56476631E-02 0.23859463E+03</pdfrwt>
<totfact> 0.12266734E+04</totfact>
</mgrwt>
</event>
<event>
 4    2  0.3972096E+000  0.2368651E+03  0.7546771E-02  0.1121899E+00
         21   -1    0    0  501  502  0.00000000000E+00  0.00000000000E+00  0.12695679058E+04  0.12695679058E+04  0.00000000000E+00 0.  1.
         21   -1    0    0  502  503 -0.00000000000E+00 -0.00000000000E+00 -0.70485666262E+02  0.70485666262E+02  0.00000000000E+00 0. -1.
          6    1    1    2  501    0  0.16161830695E+03 -0.74559042295E+01  0.19031322069E+03  0.30384895856E+03  0.17300000000E+03 0. -1.
         -6    1    1    2    0  503 -0.16161830695E+03  0.74559042295E+01  0.10087690189E+04  0.10362046135E+04  0.17300000000E+03 0.  1.
<mgrwt>
<rscale>  2 0.23686508E+03</rscale>
<asrwt>0</asrwt>
<pdfrwt beam="1">  1       21 0.19531812E+00 0.23686508E+03</pdfrwt>
<pdfrwt beam="2">  1       21 0.10843950E-01 0.23686508E+03</pdfrwt>
<totfact> 0.97783139E+03</totfact>
</mgrwt>
</event>
<event>
 4    2  0.3972096E+000  0.2080241E+03  0.7546771E-02  0.1143140E+00
         21   -1    0    0  501  502  0.00000000000E+00  0.00000000000E+00  0.16573471995E+03  0.16573471995E+03  0.00000000000E+00 0.  1.
         21   -1    0    0  502  503 -0.00000000000E+00 -0.00000000000E+00 -0.27811718561E+03  0.27811718561E+03  0.00000000000E+00 0. -1.
          6    1    1    2  501    0  0.10866184881E+03 -0.39212559193E+02 -0.13022526102E+01  0.20802816647E+03  0.17300000000E+03 0.  1.
         -6    1    1    2    0  503 -0.10866184881E+03  0.39212559193E+02 -0.11108021306E+03  0.23582373909E+03  0.17300000000E+03 0. -1.
<mgrwt>
<rscale>  2 0.20802409E+03</rscale>
<asrwt>0</asrwt>
<pdfrwt beam="1">  1       21 0.25497649E-01 0.20802409E+03</pdfrwt>
<pdfrwt beam="2">  1       21 0.42787259E-01 0.20802409E+03</pdfrwt>
<totfact> 0.76125480E+04</totfact>
</mgrwt>
</event>
<event>
 4    2  0.3972096E+000  0.1857908E+03  0.7546771E-02  0.1162313E+00
         21   -1    0    0  501  502  0.00000000000E+00  0.00000000000E+00  0.48947473944E+03  0.48947473944E+03  0.00000000000E+00 0.  1.
         21   -1    0    0  502  503 -0.00000000000E+00 -0.00000000000E+00 -0.74593841089E+02  0.74593841089E+02  0.00000000000E+00 0.  1.
          6    1    1    2  501    0  0.38915864653E+01 -0.67631939246E+02  0.14153795914E+03  0.23356202073E+03  0.17300000000E+03 0. -1.
         -6    1    1    2    0  503 -0.38915864653E+01  0.67631939246E+02  0.27334293921E+03  0.33050655980E+03  0.17300000000E+03 0. -1.
<mgrwt>
<rscale>  2 0.18579081E+03</rscale>
<asrwt>0</asrwt>
<pdfrwt beam="1">  1       21 0.75303804E-01 0.18579081E+03</pdfrwt>
<pdfrwt beam="2">  1       21 0.11475976E-01 0.18579081E+03</pdfrwt>
<totfact> 0.10040501E+05</totfact>
</mgrwt>
</event>
<event>
 4    2  0.3972096E+000  0.2199806E+03  0.7546771E-02  0.1133898E+00
         21   -1    0    0  501  502  0.00000000000E+00  0.00000000000E+00  0.59264813475E+03  0.59264813475E+03  0.00000000000E+00 0. -1.
         21   -1    0    0  502  503 -0.00000000000E+00 -0.00000000000E+00 -0.82656057477E+02  0.82656057477E+02  0.00000000000E+00 0. -1.
          6    1    1    2  501    0 -0.12542741661E+03 -0.52253344049E+02  0.29219347769E+03  0.36574373160E+03  0.17300000000E+03 0. -1.
         -6    1    1    2    0  503  0.12542741661E+03  0.52253344049E+02  0.21779859958E+03  0.30956046062E+03  0.17300000000E+03 0. -1.
<mgrwt>
<rscale>  2 0.21998056E+03</rscale>
<asrwt>0</asrwt>
<pdfrwt beam="1">  1       21 0.91176633E-01 0.21998056E+03</pdfrwt>
<pdfrwt beam="2">  1       21 0.12716317E-01 0.21998056E+03</pdfrwt>
<totfact> 0.53205952E+04</totfact>
</mgrwt>
</event>
<event>
 4    2  0.3972096E+000  0.2072115E+03  0.7546771E-02  0.1143793E+00
         21   -1    0    0  503  502  0.00000000000E+00  0.00000000000E+00  0.14787771861E+04  0.14787771861E+04  0.00000000000E+00 0. -1.
         21   -1    0    0  501  503 -0.00000000000E+00 -0.00000000000E+00 -0.48537276076E+02  0.48537276076E+02  0.00000000000E+00 0. -1.
          6    1    1    2  501    0  0.51615279483E+02  0.10170294642E+03  0.23105802526E+03  0.31036178473E+03  0.17300000000E+03 0. -1.
         -6    1    1    2    0  502 -0.51615279483E+02 -0.10170294642E+03  0.11991818847E+04  0.12169526774E+04  0.17300000000E+03 0. -1.
<mgrwt>
<rscale>  2 0.20721155E+03</rscale>
<asrwt>0</asrwt>
<pdfrwt beam="1">  1       21 0.22750415E+00 0.20721155E+03</pdfrwt>
<pdfrwt beam="2">  1       21 0.74672744E-02 0.20721155E+03</pdfrwt>
<totfact> 0.12094539E+04</totfact>
</mgrwt>
</event>
<event>
 4    2  0.3972096E+000  0.1781270E+03  0.7546771E-02  0.1169628E+00
         21   -1    0    0  501  502  0.00000000000E+00  0.00000000000E+00  0.36091016072E+02  0.36091016072E+02  0.00000000000E+00 0.  1.
         21   -1    0    0  502  503 -0.00000000000E+00 -0.00000000000E+00 -0.94831758900E+03  0.94831758900E+03  0.00000000000E+00 0.  1.
          6    1    1    2  501    0 -0.26041015145E+02  0.33497786854E+02 -0.32317945277E+03  0.36901787881E+03  0.17300000000E+03 0.  1.
         -6    1    1    2    0  503  0.26041015145E+02 -0.33497786854E+02 -0.58904712016E+03  0.61539072626E+03  0.17300000000E+03 0.  1.
<mgrwt>
<rscale>  2 0.17812702E+03</rscale>
<asrwt>0</asrwt>
<pdfrwt beam="1">  1       21 0.55524650E-02 0.17812702E+03</pdfrwt>
<pdfrwt beam="2">  1       21 0.14589499E+00 0.17812702E+03</pdfrwt>
<totfact> 0.72897433E+04</totfact>
</mgrwt>
</event>
<event>
 4    2  0.3972096E+000  0.2313550E+03  0.7546771E-02  0.1125690E+00
         21   -1    0    0  501  502  0.00000000000E+00  0.00000000000E+00  0.19997565621E+03  0.19997565621E+03  0.00000000000E+00 0.  1.
         21   -1    0    0  502  503 -0.00000000000E+00 -0.00000000000E+00 -0.44601338122E+03  0.44601338122E+03  0.00000000000E+00 0. -1.
          6    1    1    2  501    0  0.45389185237E+02  0.14675142352E+03  0.81231983730E+02  0.24520153675E+03  0.17300000000E+03 0.  1.
         -6    1    1    2    0  503 -0.45389185237E+02 -0.14675142352E+03 -0.32726970875E+03  0.40078750068E+03  0.17300000000E+03 0. -1.
<mgrwt>
<rscale>  2 0.23135505E+03</rscale>
<asrwt>0</asrwt>
<pdfrwt beam="1">  1       21 0.30765486E-01 0.23135505E+03</pdfrwt>
<pdfrwt beam="2">  1       21 0.68617442E-01 0.23135505E+03</pdfrwt>
<totfact> 0.19207470E+04</totfact>
</mgrwt>
</event>
<event>
 4    2  0.3972096E+000  0.2179359E+03  0.7546771E-02  0.1135431E+00
         21   -1    0    0  503  502  0.00000000000E+00  0.00000000000E+00  0.48244039501E+03  0.48244039501E+03  0.00000000000E+00 0. -1.
         21   -1    0    0  501  503 -0.00000000000E+00 -0.00000000000E+00 -0.11715319610E+03  0.11715319610E+03  0.00000000000E+00 0. -1.
          6    1    1    2  501    0  0.61858471405E+01 -0.13239639960E+03  0.62855880505E+02  0.22681916375E+03  0.17300000000E+03 0. -1.
         -6    1    1    2    0  502 -0.61858471405E+01  0.13239639960E+03  0.30243131841E+03  0.37277442735E+03  0.17300000000E+03 0. -1.
<mgrwt>
<rscale>  2 0.21793593E+03</rscale>
<asrwt>0</asrwt>
<pdfrwt beam="1">  1       21 0.74221598E-01 0.21793593E+03</pdfrwt>
<pdfrwt beam="2">  1       21 0.18023569E-01 0.21793593E+03</pdfrwt>
<totfact> 0.45010153E+04</totfact>
</mgrwt>
</event>
<event>
 4    2  0.3972096E+000  0.2020957E+03  0.7546771E-02  0.1147983E+00
         21   -1    0    0  501  502  0.00000000000E+00  0.00000000000E+00  0.93757166729E+02  0.93757166729E+02  0.00000000000E+00 0. -1.
         21   -1    0    0  502  503 -0.00000000000E+00 -0.00000000000E+00 -0.43578798290E+03  0.43578798290E+03  0.00000000000E+00 0. -1.
          6    1    1    2  501    0 -0.86053532835E+02 -0.59232405323E+02 -0.16584871033E+03  0.26143542811E+03  0.17300000000E+03 0. -1.
         -6    1    1    2    0  503  0.86053532835E+02  0.59232405323E+02 -0.17618210585E+03  0.26810972152E+03  0.17300000000E+03 0. -1.
<mgrwt>
<rscale>  2 0.20209574E+03</rscale>
<asrwt>0</asrwt>
<pdfrwt beam="1">  1       21 0.14424180E-01 0.20209574E+03</pdfrwt>
<pdfrwt beam="2">  1       21 0.67044304E-01 0.20209574E+03</pdfrwt>
<totfact> 0.85457151E+04</totfact>
</mgrwt>
</event>
<event>
 4    2  0.3972096E+000  0.2099408E+03  0.7546771E-02  0.1141613E+00
         21   -1    0    0  503  502  0.00000000000E+00  0.00000000000E+00  0.10359210907E+03  0.10359210907E+03  0.00000000000E+00 0.  1.
         21   -1    0    0  501  503 -0.00000000000E+00 -0.00000000000E+00 -0.56207505724E+03  0.56207505724E+03  0.00000000000E+00 0. -1.
          6    1    1    2  501    0  0.23829190241E+02  0.11652604751E+03 -0.39332546293E+03  0.44584758589E+03  0.17300000000E+03 0. -1.
         -6    1    1    2    0  502 -0.23829190241E+02 -0.11652604751E+03 -0.65157485236E+02  0.21981958042E+03  0.17300000000E+03 0.  1.
<mgrwt>
<rscale>  2 0.20994083E+03</rscale>
<asrwt>0</asrwt>
<pdfrwt beam="1">  1       21 0.15937247E-01 0.20994083E+03</pdfrwt>
<pdfrwt beam="2">  1       21 0.86473086E-01 0.20994083E+03</pdfrwt>
<totfact> 0.40092678E+04</totfact>
</mgrwt>
</event>
<event>
 4    2  0.3972096E+000  0.1974534E+03  0.7546771E-02  0.1151906E+00
         21   -1    0    0  501  502  0.00000000000E+00  0.00000000000E+00  0.28165079456E+02  0.28165079456E+02  0.00000000000E+00 0.  1.
         21   -1    0    0  502  503 -0.00000000000E+00 -0.00000000000E+00 -0.14060172166E+04  0.14060172166E+04  0.00000000000E+00 0.  1.
          6    1    1    2  501    0 -0.67813880460E+02 -0.66784227105E+02 -0.59972736004E+03  0.63139588354E+03  0.17300000000E+03 0.  1.
         -6    1    1    2    0  503  0.67813880460E+02  0.66784227105E+02 -0.77812477710E+03  0.80278641251E+03  0.17300000000E+03 0.  1.
<mgrwt>
<rscale>  2 0.19745343E+03</rscale>
<asrwt>0</asrwt>
<pdfrwt beam="1">  1       21 0.43330883E-02 0.19745343E+03</pdfrwt>
<pdfrwt beam="2">  1       21 0.21631038E+00 0.19745343E+03</pdfrwt>
<totfact> 0.36188450E+04</totfact>
</mgrwt>
</event>
<event>
 4    2  0.3972096E+000  0.1923537E+03  0.7546771E-02  0.1156355E+00
         21   -1    0    0  501  502  0.00000000000E+00  0.00000000000E+00  0.79145656780E+02  0.79145656780E+02  0.00000000000E+00 0. -1.
         21   -1    0    0  502  503 -0.00000000000E+00 -0.00000000000E+00 -0.60002551507E+03  0.60002551507E+03  0.00000000000E+00 0.  1.
          6    1    1    2  501    0 -0.72836240219E+02 -0.42021931711E+02 -0.10084199615E+03  0.21718441201E+03  0.17300000000E+03 0. -1.
         -6    1    1    2    0  503  0.72836240219E+02  0.42021931711E+02 -0.42003786214E+03  0.46198675983E+03  0.17300000000E+03 0.  1.
<mgrwt>
<rscale>  2 0.19235374E+03</rscale>
<asrwt>0</asrwt>
<pdfrwt beam="1">  1       21 0.12176255E-01 0.19235374E+03</pdfrwt>
<pdfrwt beam="2">  1       21 0.92311616E-01 0.19235374E+03</pdfrwt>
<totfact> 0.56640349E+04</totfact>
</mgrwt>
</event>
<event>
 4    2  0.3972096E+000  0.1766360E+03  0.7546771E-02  0.1171099E+00
         21   -1    0    0  501  502  0.00000000000E+00  0.00000000000E+00  0.20701905276E+03  0.20701905276E+03  0.00000000000E+00 0. -1.
         21   -1    0    0  502  503 -0.00000000000E+00 -0.00000000000E+00 -0.17530482228E+03  0.17530482228E+03  0.00000000000E+00 0.  1.
          6    1    1    2  501    0  0.35599912724E+02  0.19820887427E+01 -0.55741978797E+02  0.18522270558E+03  0.17300000000E+03 0.  1.
         -6    1    1    2    0  503 -0.35599912724E+02 -0.19820887427E+01  0.87456209280E+02  0.19710116946E+03  0.17300000000E+03 0. -1.
<mgrwt>
<rscale>  2 0.17663602E+03</rscale>
<asrwt>0</asrwt>
<pdfrwt beam="1">  1       21 0.31849085E-01 0.17663602E+03</pdfrwt>
<pdfrwt beam="2">  1       21 0.26969973E-01 0.17663602E+03</pdfrwt>
<totfact> 0.12485312E+05</totfact>
</mgrwt>
</event>
<event>
 4    2  0.3972096E+000  0.1975109E+03  0.7546771E-02  0.1151856E+00
         21   -1    0    0  503  502  0.00000000000E+00  0.00000000000E+00  0.62478201055E+03  0.62478201055E+03  0.00000000000E+00 0.  1.
         21   -1    0    0  501  503 -0.00000000000E+00 -0.00000000000E+00 -0.62834407902E+02  0.62834407902E+02  0.00000000000E+00 0.  1.
          6    1    1    2  501    0 -0.74940612955E+02  0.58868208738E+02  0.30825843078E+03  0.36610629825E+03  0.17300000000E+03 0.  1.
         -6    1    1    2    0  502  0.74940612955E+02 -0.58868208738E+02  0.25368917186E+03  0.32151012020E+03  0.17300000000E+03 0.  1.
<mgrwt>
<rscale>  2 0.19751091E+03</rscale>
<asrwt>0</asrwt>
<pdfrwt beam="1">  1       21 0.96120305E-01 0.19751091E+03</pdfrwt>
<pdfrwt beam="2">  1       21 0.96668324E-02 0.19751091E+03</pdfrwt>
<totfact> 0.77464807E+04</totfact>
</mgrwt>
</event>
<event>
 4    2  0.3972096E+000  0.3759518E+03  0.7546771E-02  0.1052440E+00
         21   -1    0    0  503  502  0.00000000000E+00  0.00000000000E+00  0.81080644586E+03  0.81080644586E+03  0.00000000000E+00 0. -1.
         21   -1    0    0  501  503 -0.00000000000E+00 -0.00000000000E+00 -0.17472431070E+03  0.17472431070E+03  0.00000000000E+00 0.  1.
          6    1    1    2  501    0 -0.33370146958E+03  0.73521562543E+01  0.34174701557E+03  0.50806569226E+03  0.17300000000E+03 0. -1.
         -6    1    1    2    0  502  0.33370146958E+03 -0.73521562543E+01  0.29433511959E+03  0.47746506430E+03  0.17300000000E+03 0.  1.
<mgrwt>
<rscale>  2 0.37595176E+03</rscale>
<asrwt>0</asrwt>
<pdfrwt beam="1">  1       21 0.12473945E+00 0.37595176E+03</pdfrwt>
<pdfrwt beam="2">  1       21 0.26880664E-01 0.37595176E+03</pdfrwt>
<totfact> 0.56974800E+03</totfact>
</mgrwt>
</event>
<event>
 4    2  0.3972096E+000  0.1903697E+03  0.7546771E-02  0.1158128E+00
         21   -1    0    0  503  502  0.00000000000E+00  0.00000000000E+00  0.83447850309E+03  0.83447850309E+03  0.00000000000E+00 0. -1.
         21   -1    0    0  501  503 -0.00000000000E+00 -0.00000000000E+00 -0.74158971931E+02  0.74158971931E+02  0.00000000000E+00 0. -1.
          6    1    1    2  501    0 -0.27361440722E+02 -0.74585251492E+02  0.87704442243E+02  0.20960123417E+03  0.17300000000E+03 0. -1.
         -6    1    1    2    0  502  0.27361440722E+02  0.74585251492E+02  0.67261508892E+03  0.69903624085E+03  0.17300000000E+03 0. -1.
<mgrwt>
<rscale>  2 0.19036966E+03</rscale>
<asrwt>0</asrwt>
<pdfrwt beam="1">  1       21 0.12838130E+00 0.19036966E+03</pdfrwt>
<pdfrwt beam="2">  1       21 0.11409073E-01 0.19036966E+03</pdfrwt>
<totfact> 0.28689215E+04</totfact>
</mgrwt>
</event>
<event>
 4    2  0.3972096E+000  0.2325257E+03  0.7546771E-02  0.1124875E+00
         21   -1    0    0  501  502  0.00000000000E+00  0.00000000000E+00  0.15737933239E+03  0.15737933239E+03  0.00000000000E+00 0. -1.
         21   -1    0    0  502  503 -0.00000000000E+00 -0.00000000000E+00 -0.38552098257E+03  0.38552098257E+03  0.00000000000E+00 0. -1.
          6    1    1    2  501    0  0.28575564451E+02  0.15271750068E+03 -0.24508926919E+02  0.23381378359E+03  0.17300000000E+03 0. -1.
         -6    1    1    2    0  503 -0.28575564451E+02 -0.15271750068E+03 -0.20363272326E+03  0.30908653138E+03  0.17300000000E+03 0. -1.
<mgrwt>
<rscale>  2 0.23252569E+03</rscale>
<asrwt>0</asrwt>
<pdfrwt beam="1">  1       21 0.24212205E-01 0.23252569E+03</pdfrwt>
<pdfrwt beam="2">  1       21 0.59310920E-01 0.23252569E+03</pdfrwt>
<totfact> 0.41947019E+04</totfact>
</mgrwt>
</event>
<event>
 4    2  0.3972096E+000  0.2305276E+03  0.7546771E-02  0.1126269E+00
         21   -1    0    0  501  502  0.00000000000E+00  0.00000000000E+00  0.12453950404E+03  0.12453950404E+03  0.00000000000E+00 0. -1.
         21   -1    0    0  502  503 -0.00000000000E+00 -0.00000000000E+00 -0.70068778566E+03  0.70068778566E+03  0.00000000000E+00 0.  1.
          6    1    1    2  501    0 -0.31081282877E+02 -0.14915734322E+03 -0.30065360446E+02  0.23247985952E+03  0.17300000000E+03 0. -1.
         -6    1    1    2    0  503  0.31081282877E+02  0.14915734322E+03 -0.54608292118E+03  0.59274743018E+03  0.17300000000E+03 0.  1.
<mgrwt>
<rscale>  2 0.23052757E+03</rscale>
<asrwt>0</asrwt>
<pdfrwt beam="1">  1       21 0.19159924E-01 0.23052757E+03</pdfrwt>
<pdfrwt beam="2">  1       21 0.10779812E+00 0.23052757E+03</pdfrwt>
<totfact> 0.16753903E+04</totfact>
</mgrwt>
</event>
<event>
 4    2  0.3972096E+000  0.1994472E+03  0.7546771E-02  0.1150206E+00
         21   -1    0    0  503  502  0.00000000000E+00  0.00000000000E+00  0.36941921828E+03  0.36941921828E+03  0.00000000000E+00 0. -1.
         21   -1    0    0  501  503 -0.00000000000E+00 -0.00000000000E+00 -0.13421023481E+03  0.13421023481E+03  0.00000000000E+00 0. -1.
          6    1    1    2  501    0  0.50415891131E+02 -0.85489405465E+02  0.22956265671E+03  0.30410230824E+03  0.17300000000E+03 0. -1.
         -6    1    1    2    0  502 -0.50415891131E+02  0.85489405465E+02  0.56463267582E+01  0.19952714485E+03  0.17300000000E+03 0. -1.
<mgrwt>
<rscale>  2 0.19944724E+03</rscale>
<asrwt>0</asrwt>
<pdfrwt beam="1">  1       21 0.56833726E-01 0.19944724E+03</pdfrwt>
<pdfrwt beam="2">  1       21 0.20647728E-01 0.19944724E+03</pdfrwt>
<totfact> 0.63076015E+04</totfact>
</mgrwt>
</event>
<event>
 4    2  0.3972096E+000  0.2191753E+03  0.7546771E-02  0.1134499E+00
         21   -1    0    0  501  502  0.00000000000E+00  0.00000000000E+00  0.11320472478E+03  0.11320472478E+03  0.00000000000E+00 0. -1.
         21   -1    0    0  502  503 -0.00000000000E+00 -0.00000000000E+00 -0.20479235428E+04  0.20479235428E+04  0.00000000000E+00 0.  1.
          6    1    1    2  501    0  0.13271819429E+03  0.22241622138E+02 -0.52368678535E+01  0.21923784718E+03  0.17300000000E+03 0. -1.
         -6    1    1    2    0  503 -0.13271819429E+03 -0.22241622138E+02 -0.19294819501E+04  0.19418904204E+04  0.17300000000E+03 0.  1.
<mgrwt>
<rscale>  2 0.21917529E+03</rscale>
<asrwt>0</asrwt>
<pdfrwt beam="1">  1       21 0.17416111E-01 0.21917529E+03</pdfrwt>
<pdfrwt beam="2">  1       21 0.31506517E+00 0.21917529E+03</pdfrwt>
<totfact> 0.80498397E+02</totfact>
</mgrwt>
</event>
<event>
 4    2  0.3972096E+000  0.2158800E+03  0.7546771E-02  0.1136992E+00
         21   -1    0    0  501  502  0.00000000000E+00  0.00000000000E+00  0.51727447677E+03  0.51727447677E+03  0.00000000000E+00 0. -1.
         21   -1    0    0  502  503 -0.00000000000E+00 -0.00000000000E+00 -0.10880656905E+03  0.10880656905E+03  0.00000000000E+00 0. -1.
          6    1    1    2  501    0 -0.38868558906E+02 -0.12314383881E+03  0.33404773305E+03  0.39773365191E+03  0.17300000000E+03 0. -1.
         -6    1    1    2    0  503  0.38868558906E+02  0.12314383881E+03  0.74420174666E+02  0.22834739391E+03  0.17300000000E+03 0. -1.
<mgrwt>
<rscale>  2 0.21587999E+03</rscale>
<asrwt>0</asrwt>
<pdfrwt beam="1">  1       21 0.79580687E-01 0.21587999E+03</pdfrwt>
<pdfrwt beam="2">  1       21 0.16739473E-01 0.21587999E+03</pdfrwt>
<totfact> 0.44150647E+04</totfact>
</mgrwt>
</event>
<event>
 4    2  0.3972096E+000  0.2100006E+03  0.7546771E-02  0.1141565E+00
         21   -1    0    0  503  502  0.00000000000E+00  0.00000000000E+00  0.35717375570E+02  0.35717375570E+02  0.00000000000E+00 0. -1.
         21   -1    0    0  501  503 -0.00000000000E+00 -0.00000000000E+00 -0.19042821856E+04  0.19042821856E+04  0.00000000000E+00 0. -1.
          6    1    1    2  501    0 -0.17121550796E+02  0.11780541438E+03 -0.15094676697E+04  0.15240055475E+04  0.17300000000E+03 0. -1.
         -6    1    1    2    0  502  0.17121550796E+02 -0.11780541438E+03 -0.35909714034E+03  0.41599401361E+03  0.17300000000E+03 0. -1.
<mgrwt>
<rscale>  2 0.21000063E+03</rscale>
<asrwt>0</asrwt>
<pdfrwt beam="1">  1       21 0.54949803E-02 0.21000063E+03</pdfrwt>
<pdfrwt beam="2">  1       21 0.29296652E+00 0.21000063E+03</pdfrwt>
<totfact> 0.84311397E+03</totfact>
</mgrwt>
</event>
<event>
 4    2  0.3972096E+000  0.3219584E+03  0.7546771E-02  0.1074751E+00
         21   -1    0    0  501  502  0.00000000000E+00  0.00000000000E+00  0.86612544657E+03  0.86612544657E+03  0.00000000000E+00 0. -1.
         21   -1    0    0  502  503 -0.00000000000E+00 -0.00000000000E+00 -0.27952048791E+03  0.27952048791E+03  0.00000000000E+00 0.  1.
          6    1    1    2  501    0  0.47124068923E+02 -0.26740897538E+03  0.72647213523E+03  0.79461877731E+03  0.17300000000E+03 0. -1.
         -6    1    1    2    0  503 -0.47124068923E+02  0.26740897538E+03 -0.13986717657E+03  0.35102715717E+03  0.17300000000E+03 0.  1.
<mgrwt>
<rscale>  2 0.32195844E+03</rscale>
<asrwt>0</asrwt>
<pdfrwt beam="1">  1       21 0.13325007E+00 0.32195844E+03</pdfrwt>
<pdfrwt beam="2">  1       21 0.43003152E-01 0.32195844E+03</pdfrwt>
<totfact> 0.19217680E+03</totfact>
</mgrwt>
</event>
<event>
 4    2  0.3972096E+000  0.1760231E+03  0.7546771E-02  0.1171708E+00
         21   -1    0    0  501  502  0.00000000000E+00  0.00000000000E+00  0.32558230375E+03  0.32558230375E+03  0.00000000000E+00 0.  1.
         21   -1    0    0  502  503 -0.00000000000E+00 -0.00000000000E+00 -0.10639962477E+03  0.10639962477E+03  0.00000000000E+00 0.  1.
          6    1    1    2  501    0 -0.14881809508E+02 -0.28873280179E+02  0.17977551517E+03  0.25160161053E+03  0.17300000000E+03 0.  1.
         -6    1    1    2    0  503  0.14881809508E+02  0.28873280179E+02  0.39407163801E+02  0.18038031800E+03  0.17300000000E+03 0.  1.
<mgrwt>
<rscale>  2 0.17602311E+03</rscale>
<asrwt>0</asrwt>
<pdfrwt beam="1">  1       21 0.50089585E-01 0.17602311E+03</pdfrwt>
<pdfrwt beam="2">  1       21 0.16369173E-01 0.17602311E+03</pdfrwt>
<totfact> 0.12768881E+05</totfact>
</mgrwt>
</event>
<event>
 4    2  0.3972096E+000  0.2046160E+03  0.7546771E-02  0.1145902E+00
         21   -1    0    0  501  502  0.00000000000E+00  0.00000000000E+00  0.17608808068E+03  0.17608808068E+03  0.00000000000E+00 0.  1.
         21   -1    0    0  502  503 -0.00000000000E+00 -0.00000000000E+00 -0.61168189830E+03  0.61168189830E+03  0.00000000000E+00 0.  1.
          6    1    1    2  501    0  0.38158999665E+02 -0.10238461997E+03  0.90162665288E+02  0.22360014730E+03  0.17300000000E+03 0.  1.
         -6    1    1    2    0  503 -0.38158999665E+02  0.10238461997E+03 -0.52575648291E+03  0.56416983168E+03  0.17300000000E+03 0.  1.
<mgrwt>
<rscale>  2 0.20461603E+03</rscale>
<asrwt>0</asrwt>
<pdfrwt beam="1">  1       21 0.27090474E-01 0.20461603E+03</pdfrwt>
<pdfrwt beam="2">  1       21 0.94104909E-01 0.20461603E+03</pdfrwt>
<totfact> 0.12199291E+04</totfact>
</mgrwt>
</event>
<event>
 4    2  0.3972096E+000  0.1844752E+03  0.7546771E-02  0.1163541E+00
         21   -1    0    0  501  502  0.00000000000E+00  0.00000000000E+00  0.58967521738E+02  0.58967521738E+02  0.00000000000E+00 0. -1.
         21   -1    0    0  502  503 -0.00000000000E+00 -0.00000000000E+00 -0.64156999575E+03  0.64156999575E+03  0.00000000000E+00 0. -1.
          6    1    1    2  501    0  0.42641019183E+02  0.47789731055E+02 -0.18028066320E+03  0.25793842761E+03  0.17300000000E+03 0. -1.
         -6    1    1    2    0  503 -0.42641019183E+02 -0.47789731055E+02 -0.40232181081E+03  0.44259908988E+03  0.17300000000E+03 0. -1.
<mgrwt>
<rscale>  2 0.18447524E+03</rscale>
<asrwt>0</asrwt>
<pdfrwt beam="1">  1       21 0.90719268E-02 0.18447524E+03</pdfrwt>
<pdfrwt beam="2">  1       21 0.98703073E-01 0.18447524E+03</pdfrwt>
<totfact> 0.81850213E+04</totfact>
</mgrwt>
</event>
<event>
 4    2  0.3972096E+000  0.1741540E+03  0.7546771E-02  0.1173584E+00
         21   -1    0    0  503  502  0.00000000000E+00  0.00000000000E+00  0.97272931624E+02  0.97272931624E+02  0.00000000000E+00 0.  1.
         21   -1    0    0  501  503 -0.00000000000E+00 -0.00000000000E+00 -0.35484938203E+03  0.35484938203E+03  0.00000000000E+00 0.  1.
          6    1    1    2  501    0 -0.16053450633E+01 -0.19951043305E+02 -0.20752751024E+03  0.27091933997E+03  0.17300000000E+03 0. -1.
         -6    1    1    2    0  502  0.16053450633E+01  0.19951043305E+02 -0.50048940168E+02  0.18120297369E+03  0.17300000000E+03 0. -1.
<mgrwt>
<rscale>  2 0.17415402E+03</rscale>
<asrwt>0</asrwt>
<pdfrwt beam="1">  1       21 0.14965066E-01 0.17415402E+03</pdfrwt>
<pdfrwt beam="2">  1       21 0.54592212E-01 0.17415402E+03</pdfrwt>
<totfact> 0.12565117E+05</totfact>
</mgrwt>
</event>
<event>
 4    2  0.3972096E+000  0.2156327E+03  0.7546771E-02  0.1137182E+00
         21   -1    0    0  503  502  0.00000000000E+00  0.00000000000E+00  0.42546812533E+03  0.42546812533E+03  0.00000000000E+00 0.  1.
         21   -1    0    0  501  503 -0.00000000000E+00 -0.00000000000E+00 -0.19925410580E+03  0.19925410580E+03  0.00000000000E+00 0.  1.
          6    1    1    2  501    0 -0.47333422743E+02  0.11969958738E+03 -0.96786553159E+02  0.23635795100E+03  0.17300000000E+03 0.  1.
         -6    1    1    2    0  502  0.47333422743E+02 -0.11969958738E+03  0.32300057269E+03  0.38836428013E+03  0.17300000000E+03 0.  1.
<mgrwt>
<rscale>  2 0.21563266E+03</rscale>
<asrwt>0</asrwt>
<pdfrwt beam="1">  1       21 0.65456635E-01 0.21563266E+03</pdfrwt>
<pdfrwt beam="2">  1       21 0.30654478E-01 0.21563266E+03</pdfrwt>
<totfact> 0.21639491E+04</totfact>
</mgrwt>
</event>
<event>
 4    2  0.3972096E+000  0.1814295E+03  0.7546771E-02  0.1166427E+00
         21   -1    0    0  501  502  0.00000000000E+00  0.00000000000E+00  0.15118292745E+04  0.15118292745E+04  0.00000000000E+00 0. -1.
         21   -1    0    0  502  503 -0.00000000000E+00 -0.00000000000E+00 -0.23167363450E+02  0.23167363450E+02  0.00000000000E+00 0. -1.
          6    1    1    2  501    0  0.30205641516E+01 -0.54576112932E+02  0.93263799657E+03  0.95012120729E+03  0.17300000000E+03 0. -1.
         -6    1    1    2    0  503 -0.30205641516E+01  0.54576112932E+02  0.55602391453E+03  0.58487543070E+03  0.17300000000E+03 0. -1.
<mgrwt>
<rscale>  2 0.18142953E+03</rscale>
<asrwt>0</asrwt>
<pdfrwt beam="1">  1       21 0.23258904E+00 0.18142953E+03</pdfrwt>
<pdfrwt beam="2">  1       21 0.35642109E-02 0.18142953E+03</pdfrwt>
<totfact> 0.40437885E+04</totfact>
</mgrwt>
</event>
<event>
 4    2  0.3972096E+000  0.2561601E+03  0.7546771E-02  0.1109472E+00
         21   -1    0    0  501  502  0.00000000000E+00  0.00000000000E+00  0.45623651305E+02  0.45623651305E+02  0.00000000000E+00 0.  1.
         21   -1    0    0  502  503 -0.00000000000E+00 -0.00000000000E+00 -0.14593316536E+04  0.14593316536E+04  0.00000000000E+00 0. -1.
          6    1    1    2  501    0 -0.17073060699E+03  0.80870751111E+02 -0.61640294856E+03  0.66751075912E+03  0.17300000000E+03 0.  1.
         -6    1    1    2    0  503  0.17073060699E+03 -0.80870751111E+02 -0.79730505372E+03  0.83744454577E+03  0.17300000000E+03 0. -1.
<mgrwt>
<rscale>  2 0.25616014E+03</rscale>
<asrwt>0</asrwt>
<pdfrwt beam="1">  1       21 0.70190234E-02 0.25616014E+03</pdfrwt>
<pdfrwt beam="2">  1       21 0.22451256E+00 0.25616014E+03</pdfrwt>
<totfact> 0.13544711E+04</totfact>
</mgrwt>
</event>
<event>
 4    2  0.3972096E+000  0.2149253E+03  0.7546771E-02  0.1137724E+00
         21   -1    0    0  503  502  0.00000000000E+00  0.00000000000E+00  0.13871501372E+03  0.13871501372E+03  0.00000000000E+00 0. -1.
         21   -1    0    0  501  503 -0.00000000000E+00 -0.00000000000E+00 -0.33564737884E+03  0.33564737884E+03  0.00000000000E+00 0. -1.
          6    1    1    2  501    0 -0.53447183094E+02  0.11578988225E+03 -0.77424817466E+02  0.22844583728E+03  0.17300000000E+03 0. -1.
         -6    1    1    2    0  502  0.53447183094E+02 -0.11578988225E+03 -0.11950754766E+03  0.24591655528E+03  0.17300000000E+03 0. -1.
<mgrwt>
<rscale>  2 0.21492533E+03</rscale>
<asrwt>0</asrwt>
<pdfrwt beam="1">  1       21 0.21340772E-01 0.21492533E+03</pdfrwt>
<pdfrwt beam="2">  1       21 0.51638058E-01 0.21492533E+03</pdfrwt>
<totfact> 0.72107478E+04</totfact>
</mgrwt>
</event>
<event>
 4    2  0.3972096E+000  0.1820092E+03  0.7546771E-02  0.1165873E+00
         21   -1    0    0  501  502  0.00000000000E+00  0.00000000000E+00  0.24744180204E+03  0.24744180204E+03  0.00000000000E+00 0. -1.
         21   -1    0    0  502  503 -0.00000000000E+00 -0.00000000000E+00 -0.14887335503E+03  0.14887335503E+03  0.00000000000E+00 0. -1.
          6    1    1    2  501    0  0.49993140360E+02  0.26439181772E+02  0.11217127200E+03  0.21379835986E+03  0.17300000000E+03 0. -1.
         -6    1    1    2    0  503 -0.49993140360E+02 -0.26439181772E+02 -0.13602824994E+02  0.18251679721E+03  0.17300000000E+03 0. -1.
<mgrwt>
<rscale>  2 0.18200919E+03</rscale>
<asrwt>0</asrwt>
<pdfrwt beam="1">  1       21 0.38067969E-01 0.18200919E+03</pdfrwt>
<pdfrwt beam="2">  1       21 0.22903593E-01 0.18200919E+03</pdfrwt>
<totfact> 0.11949910E+05</totfact>
</mgrwt>
</event>
<event>
 4    2  0.3972096E+000  0.2297608E+03  0.7546771E-02  0.1126808E+00
         21   -1    0    0  503  502  0.00000000000E+00  0.00000000000E+00  0.32639822426E+03  0.32639822426E+03  0.00000000000E+00 0.  1.
         21   -1    0    0  501  503 -0.00000000000E+00 -0.00000000000E+00 -0.17103387619E+03  0.17103387619E+03  0.00000000000E+00 0.  1.
          6    1    1    2  501    0  0.11054097593E+03  0.10315861128E+03  0.19688754578E+02  0.23060280462E+03  0.17300000000E+03 0.  1.
         -6    1    1    2    0  502 -0.11054097593E+03 -0.10315861128E+03  0.13567559349E+03  0.26682929582E+03  0.17300000000E+03 0.  1.
<mgrwt>
<rscale>  2 0.22976076E+03</rscale>
<asrwt>0</asrwt>
<pdfrwt beam="1">  1       21 0.50215111E-01 0.22976076E+03</pdfrwt>
<pdfrwt beam="2">  1       21 0.26312904E-01 0.22976076E+03</pdfrwt>
<totfact> 0.50979596E+04</totfact>
</mgrwt>
</event>
<event>
 4    2  0.3972096E+000  0.2357709E+03  0.7546771E-02  0.1122643E+00
         21   -1    0    0  501  502  0.00000000000E+00  0.00000000000E+00  0.16009117426E+03  0.16009117426E+03  0.00000000000E+00 0.  1.
         21   -1    0    0  502  503 -0.00000000000E+00 -0.00000000000E+00 -0.37769436073E+03  0.37769436073E+03  0.00000000000E+00 0.  1.
          6    1    1    2  501    0 -0.23885018604E+02 -0.15839326705E+03 -0.32430531951E+02  0.23799088336E+03  0.17300000000E+03 0.  1.
         -6    1    1    2    0  503  0.23885018604E+02  0.15839326705E+03 -0.18517265453E+03  0.29979465163E+03  0.17300000000E+03 0.  1.
<mgrwt>
<rscale>  2 0.23577091E+03</rscale>
<asrwt>0</asrwt>
<pdfrwt beam="1">  1       21 0.24629411E-01 0.23577091E+03</pdfrwt>
<pdfrwt beam="2">  1       21 0.58106825E-01 0.23577091E+03</pdfrwt>
<totfact> 0.42368138E+04</totfact>
</mgrwt>
</event>
<event>
 4    2  0.3972096E+000  0.2386854E+03  0.7546771E-02  0.1120672E+00
         21   -1    0    0  503  502  0.00000000000E+00  0.00000000000E+00  0.15845597011E+03  0.15845597011E+03  0.00000000000E+00 0. -1.
         21   -1    0    0  501  503 -0.00000000000E+00 -0.00000000000E+00 -0.50872862497E+03  0.50872862497E+03  0.00000000000E+00 0.  1.
          6    1    1    2  501    0 -0.82676045634E+02  0.14214918140E+03 -0.35578956692E+03  0.42843544930E+03  0.17300000000E+03 0.  1.
         -6    1    1    2    0  502  0.82676045634E+02 -0.14214918140E+03  0.55169120597E+01  0.23874914578E+03  0.17300000000E+03 0. -1.
<mgrwt>
<rscale>  2 0.23868540E+03</rscale>
<asrwt>0</asrwt>
<pdfrwt beam="1">  1       21 0.24377841E-01 0.23868540E+03</pdfrwt>
<pdfrwt beam="2">  1       21 0.78265943E-01 0.23868540E+03</pdfrwt>
<totfact> 0.22387144E+04</totfact>
</mgrwt>
</event>
<event>
 4    2  0.3972096E+000  0.1740677E+03  0.7546771E-02  0.1173671E+00
         21   -1    0    0  503  502  0.00000000000E+00  0.00000000000E+00  0.13481813562E+03  0.13481813562E+03  0.00000000000E+00 0.  1.
         21   -1    0    0  501  503 -0.00000000000E+00 -0.00000000000E+00 -0.22492621401E+03  0.22492621401E+03  0.00000000000E+00 0.  1.
          6    1    1    2  501    0 -0.57943947177E+01 -0.18357595524E+02 -0.50172661027E+02  0.18115427745E+03  0.17300000000E+03 0. -1.
         -6    1    1    2    0  502  0.57943947177E+01  0.18357595524E+02 -0.39935417361E+02  0.17859007219E+03  0.17300000000E+03 0. -1.
<mgrwt>
<rscale>  2 0.17406773E+03</rscale>
<asrwt>0</asrwt>
<pdfrwt beam="1">  1       21 0.20741252E-01 0.17406773E+03</pdfrwt>
<pdfrwt beam="2">  1       21 0.34604033E-01 0.17406773E+03</pdfrwt>
<totfact> 0.17454987E+05</totfact>
</mgrwt>
</event>
<event>
 4    2  0.3972096E+000  0.2140797E+03  0.7546771E-02  0.1138375E+00
         21   -1    0    0  501  502  0.00000000000E+00  0.00000000000E+00  0.26426607015E+03  0.26426607015E+03  0.00000000000E+00 0. -1.
         21   -1    0    0  502  503 -0.00000000000E+00 -0.00000000000E+00 -0.29088418456E+03  0.29088418456E+03  0.00000000000E+00 0. -1.
          6    1    1    2  501    0 -0.12365085953E+03 -0.24730610413E+02  0.16307747355E+03  0.26911781905E+03  0.17300000000E+03 0. -1.
         -6    1    1    2    0  503  0.12365085953E+03  0.24730610413E+02 -0.18969558796E+03  0.28603243565E+03  0.17300000000E+03 0. -1.
<mgrwt>
<rscale>  2 0.21407975E+03</rscale>
<asrwt>0</asrwt>
<pdfrwt beam="1">  1       21 0.40656319E-01 0.21407975E+03</pdfrwt>
<pdfrwt beam="2">  1       21 0.44751413E-01 0.21407975E+03</pdfrwt>
<totfact> 0.27607410E+04</totfact>
</mgrwt>
</event>
<event>
 4    2  0.3972096E+000  0.1786072E+03  0.7546771E-02  0.1169158E+00
         21   -1    0    0  501  502  0.00000000000E+00  0.00000000000E+00  0.58430128202E+03  0.58430128202E+03  0.00000000000E+00 0. -1.
         21   -1    0    0  502  503 -0.00000000000E+00 -0.00000000000E+00 -0.94975266318E+02  0.94975266318E+02  0.00000000000E+00 0. -1.
          6    1    1    2  501    0 -0.43875473987E+02  0.68183890235E+01  0.46612043825E+03  0.49916811857E+03  0.17300000000E+03 0. -1.
         -6    1    1    2    0  503  0.43875473987E+02 -0.68183890235E+01  0.23205577450E+02  0.18010842976E+03  0.17300000000E+03 0. -1.
<mgrwt>
<rscale>  2 0.17860724E+03</rscale>
<asrwt>0</asrwt>
<pdfrwt beam="1">  1       21 0.89892503E-01 0.17860724E+03</pdfrwt>
<pdfrwt beam="2">  1       21 0.14611580E-01 0.17860724E+03</pdfrwt>
<totfact> 0.43658457E+04</totfact>
</mgrwt>
</event>
<event>
 4    2  0.3972096E+000  0.2874309E+03  0.7546771E-02  0.1091698E+00
         21   -1    0    0  501  502  0.00000000000E+00  0.00000000000E+00  0.21171135119E+03  0.21171135119E+03  0.00000000000E+00 0.  1.
         21   -1    0    0  502  503 -0.00000000000E+00 -0.00000000000E+00 -0.39242274548E+03  0.39242274548E+03  0.00000000000E+00 0. -1.
          6    1    1    2  501    0  0.22938681741E+03  0.83177379312E+01 -0.11292636144E+03  0.30881849017E+03  0.17300000000E+03 0.  1.
         -6    1    1    2    0  503 -0.22938681741E+03 -0.83177379312E+01 -0.67785032842E+02  0.29531560650E+03  0.17300000000E+03 0. -1.
<mgrwt>
<rscale>  2 0.28743086E+03</rscale>
<asrwt>0</asrwt>
<pdfrwt beam="1">  1       21 0.32570978E-01 0.28743086E+03</pdfrwt>
<pdfrwt beam="2">  1       21 0.60372729E-01 0.28743086E+03</pdfrwt>
<totfact> 0.22129710E+04</totfact>
</mgrwt>
</event>
<event>
 4    2  0.3972096E+000  0.2648353E+03  0.7546771E-02  0.1104272E+00
         21   -1    0    0  503  502  0.00000000000E+00  0.00000000000E+00  0.13853619785E+03  0.13853619785E+03  0.00000000000E+00 0. -1.
         21   -1    0    0  501  503 -0.00000000000E+00 -0.00000000000E+00 -0.65656027421E+03  0.65656027421E+03  0.00000000000E+00 0.  1.
          6    1    1    2  501    0 -0.19626643839E+03  0.41088181781E+02 -0.44921058666E+03  0.52146706961E+03  0.17300000000E+03 0.  1.
         -6    1    1    2    0  502  0.19626643839E+03 -0.41088181781E+02 -0.68813489707E+02  0.27362940245E+03  0.17300000000E+03 0. -1.
<mgrwt>
<rscale>  2 0.26483533E+03</rscale>
<asrwt>0</asrwt>
<pdfrwt beam="1">  1       21 0.21313262E-01 0.26483533E+03</pdfrwt>
<pdfrwt beam="2">  1       21 0.10100927E+00 0.26483533E+03</pdfrwt>
<totfact> 0.15760626E+04</totfact>
</mgrwt>
</event>
<event>
 4    2  0.3972096E+000  0.2477924E+03  0.7546771E-02  0.1114708E+00
         21   -1    0    0  503  502  0.00000000000E+00  0.00000000000E+00  0.67465385528E+03  0.67465385528E+03  0.00000000000E+00 0. -1.
         21   -1    0    0  501  503 -0.00000000000E+00 -0.00000000000E+00 -0.16246166720E+03  0.16246166720E+03  0.00000000000E+00 0.  1.
          6    1    1    2  501    0  0.77454462992E+02 -0.15960223733E+03 -0.21480238407E+02  0.24872166902E+03  0.17300000000E+03 0.  1.
         -6    1    1    2    0  502 -0.77454462992E+02  0.15960223733E+03  0.53367242649E+03  0.58839385346E+03  0.17300000000E+03 0. -1.
<mgrwt>
<rscale>  2 0.24779239E+03</rscale>
<asrwt>0</asrwt>
<pdfrwt beam="1">  1       21 0.10379290E+00 0.24779239E+03</pdfrwt>
<pdfrwt beam="2">  1       21 0.24994103E-01 0.24779239E+03</pdfrwt>
<totfact> 0.10992042E+04</totfact>
</mgrwt>
</event>
<event>
 4    2  0.3972096E+000  0.1945068E+03  0.7546771E-02  0.1154458E+00
         21   -1    0    0  501  502  0.00000000000E+00  0.00000000000E+00  0.59366786409E+02  0.59366786409E+02  0.00000000000E+00 0. -1.
         21   -1    0    0  502  503 -0.00000000000E+00 -0.00000000000E+00 -0.67711893285E+03  0.67711893285E+03  0.00000000000E+00 0. -1.
          6    1    1    2  501    0 -0.88899376058E+02 -0.88756435431E+00 -0.39820466360E+03  0.44317021667E+03  0.17300000000E+03 0. -1.
         -6    1    1    2    0  503  0.88899376058E+02  0.88756435431E+00 -0.21954748284E+03  0.29331550258E+03  0.17300000000E+03 0. -1.
<mgrwt>
<rscale>  2 0.19450678E+03</rscale>
<asrwt>0</asrwt>
<pdfrwt beam="1">  1       21 0.91333519E-02 0.19450678E+03</pdfrwt>
<pdfrwt beam="2">  1       21 0.10417214E+00 0.19450678E+03</pdfrwt>
<totfact> 0.70823263E+04</totfact>
</mgrwt>
</event>
<event>
 4    2  0.3972096E+000  0.1890292E+03  0.7546771E-02  0.1159340E+00
         21   -1    0    0  501  502  0.00000000000E+00  0.00000000000E+00  0.67815580432E+02  0.67815580432E+02  0.00000000000E+00 0. -1.
         21   -1    0    0  502  503 -0.00000000000E+00 -0.00000000000E+00 -0.63386289790E+03  0.63386289790E+03  0.00000000000E+00 0. -1.
          6    1    1    2  501    0 -0.73361536605E+02  0.20521410452E+02 -0.13890286162E+03  0.23457631659E+03  0.17300000000E+03 0. -1.
         -6    1    1    2    0  503  0.73361536605E+02 -0.20521410452E+02 -0.42714445585E+03  0.46710216174E+03  0.17300000000E+03 0. -1.
<mgrwt>
<rscale>  2 0.18902921E+03</rscale>
<asrwt>0</asrwt>
<pdfrwt beam="1">  1       21 0.10433166E-01 0.18902921E+03</pdfrwt>
<pdfrwt beam="2">  1       21 0.97517369E-01 0.18902921E+03</pdfrwt>
<totfact> 0.65692694E+04</totfact>
</mgrwt>
</event>
<event>
 4    2  0.3972096E+000  0.2336478E+03  0.7546771E-02  0.1124098E+00
         21   -1    0    0  501  502  0.00000000000E+00  0.00000000000E+00  0.62632816510E+03  0.62632816510E+03  0.00000000000E+00 0. -1.
         21   -1    0    0  502  503 -0.00000000000E+00 -0.00000000000E+00 -0.13722804166E+03  0.13722804166E+03  0.00000000000E+00 0. -1.
          6    1    1    2  501    0 -0.10501130370E+03 -0.11676856904E+03  0.13946316730E+02  0.23406360753E+03  0.17300000000E+03 0. -1.
         -6    1    1    2    0  503  0.10501130370E+03  0.11676856904E+03  0.47515380671E+03  0.52949259924E+03  0.17300000000E+03 0. -1.
<mgrwt>
<rscale>  2 0.23364775E+03</rscale>
<asrwt>0</asrwt>
<pdfrwt beam="1">  1       21 0.96358178E-01 0.23364775E+03</pdfrwt>
<pdfrwt beam="2">  1       21 0.21112007E-01 0.23364775E+03</pdfrwt>
<totfact> 0.18240756E+04</totfact>
</mgrwt>
</event>
<event>
 4    2  0.3972096E+000  0.2546498E+03  0.7546771E-02  0.1110401E+00
         21   -1    0    0  503  502  0.00000000000E+00  0.00000000000E+00  0.87572252001E+03  0.87572252001E+03  0.00000000000E+00 0. -1.
         21   -1    0    0  501  503 -0.00000000000E+00 -0.00000000000E+00 -0.74169615909E+02  0.74169615909E+02  0.00000000000E+00 0.  1.
          6    1    1    2  501    0  0.79711918118E+02  0.16900751810E+03  0.41991532606E+03  0.49109613328E+03  0.17300000000E+03 0. -1.
         -6    1    1    2    0  502 -0.79711918118E+02 -0.16900751810E+03  0.38163757804E+03  0.45879600264E+03  0.17300000000E+03 0.  1.
<mgrwt>
<rscale>  2 0.25464982E+03</rscale>
<asrwt>0</asrwt>
<pdfrwt beam="1">  1       21 0.13472653E+00 0.25464982E+03</pdfrwt>
<pdfrwt beam="2">  1       21 0.11410711E-01 0.25464982E+03</pdfrwt>
<totfact> 0.24476444E+04</totfact>
</mgrwt>
</event>
<event>
 4    2  0.3972096E+000  0.1988674E+03  0.7546771E-02  0.1150698E+00
         21   -1    0    0  501  502  0.00000000000E+00  0.00000000000E+00  0.11103533817E+03  0.11103533817E+03  0.00000000000E+00 0. -1.
         21   -1    0    0  502  503 -0.00000000000E+00 -0.00000000000E+00 -0.53408028896E+03  0.53408028896E+03  0.00000000000E+00 0.  1.
          6    1    1    2  501    0  0.77255934482E+02  0.60421583757E+02 -0.25358291349E+02  0.20047765496E+03  0.17300000000E+03 0. -1.
         -6    1    1    2    0  503 -0.77255934482E+02 -0.60421583757E+02 -0.39768665944E+03  0.44463797217E+03  0.17300000000E+03 0.  1.
<mgrwt>
<rscale>  2 0.19886741E+03</rscale>
<asrwt>0</asrwt>
<pdfrwt beam="1">  1       21 0.17082360E-01 0.19886741E+03</pdfrwt>
<pdfrwt beam="2">  1       21 0.82166198E-01 0.19886741E+03</pdfrwt>
<totfact> 0.39897683E+04</totfact>
</mgrwt>
</event>
<event>
 4    2  0.3972096E+000  0.2498615E+03  0.7546771E-02  0.1113392E+00
         21   -1    0    0  503  502  0.00000000000E+00  0.00000000000E+00  0.31390907983E+03  0.31390907983E+03  0.00000000000E+00 0. -1.
         21   -1    0    0  501  503 -0.00000000000E+00 -0.00000000000E+00 -0.21144648584E+03  0.21144648584E+03  0.00000000000E+00 0. -1.
          6    1    1    2  501    0  0.16066605750E+03 -0.81781365614E+02 -0.12801212372E+02  0.25018921806E+03  0.17300000000E+03 0. -1.
         -6    1    1    2    0  502 -0.16066605750E+03  0.81781365614E+02  0.11526380636E+03  0.27516634760E+03  0.17300000000E+03 0. -1.
<mgrwt>
<rscale>  2 0.24986151E+03</rscale>
<asrwt>0</asrwt>
<pdfrwt beam="1">  1       21 0.48293705E-01 0.24986151E+03</pdfrwt>
<pdfrwt beam="2">  1       21 0.32530229E-01 0.24986151E+03</pdfrwt>
<totfact> 0.36237602E+04</totfact>
</mgrwt>
</event>
<event>
 4    2  0.3972096E+000  0.2631048E+03  0.7546771E-02  0.1105292E+00
         21   -1    0    0  501  502  0.00000000000E+00  0.00000000000E+00  0.16581079544E+04  0.16581079544E+04  0.00000000000E+00 0. -1.
         21   -1    0    0  502  503 -0.00000000000E+00 -0.00000000000E+00 -0.63380374450E+02  0.63380374450E+02  0.00000000000E+00 0.  1.
          6    1    1    2  501    0 -0.15759161622E+03  0.12024982087E+03  0.13002156121E+04  0.13265687976E+04  0.17300000000E+03 0. -1.
         -6    1    1    2    0  503  0.15759161622E+03 -0.12024982087E+03  0.29451196783E+03  0.39491953119E+03  0.17300000000E+03 0.  1.
<mgrwt>
<rscale>  2 0.26310480E+03</rscale>
<asrwt>0</asrwt>
<pdfrwt beam="1">  1       21 0.25509350E+00 0.26310480E+03</pdfrwt>
<pdfrwt beam="2">  1       21 0.97508281E-02 0.26310480E+03</pdfrwt>
<totfact> 0.49404412E+03</totfact>
</mgrwt>
</event>
<event>
 4    2  0.3972096E+000  0.2841976E+03  0.7546771E-02  0.1093418E+00
         21   -1    0    0  503  502  0.00000000000E+00  0.00000000000E+00  0.58263156089E+03  0.58263156089E+03  0.00000000000E+00 0. -1.
         21   -1    0    0  501  503 -0.00000000000E+00 -0.00000000000E+00 -0.14233015505E+03  0.14233015505E+03  0.00000000000E+00 0. -1.
          6    1    1    2  501    0  0.35664965495E+02  0.22263710756E+03  0.16167949249E+03  0.32696869838E+03  0.17300000000E+03 0. -1.
         -6    1    1    2    0  502 -0.35664965495E+02 -0.22263710756E+03  0.27862191335E+03  0.39799301756E+03  0.17300000000E+03 0. -1.
<mgrwt>
<rscale>  2 0.28419759E+03</rscale>
<asrwt>0</asrwt>
<pdfrwt beam="1">  1       21 0.89635623E-01 0.28419759E+03</pdfrwt>
<pdfrwt beam="2">  1       21 0.21896947E-01 0.28419759E+03</pdfrwt>
<totfact> 0.19689710E+04</totfact>
</mgrwt>
</event>
<event>
 4    2  0.3972096E+000  0.2336802E+03  0.7546771E-02  0.1124076E+00
         21   -1    0    0  501  502  0.00000000000E+00  0.00000000000E+00  0.41750467698E+03  0.41750467698E+03  0.00000000000E+00 0.  1.
         21   -1    0    0  502  503 -0.00000000000E+00 -0.00000000000E+00 -0.41736818816E+03  0.41736818816E+03  0.00000000000E+00 0. -1.
          6    1    1    2  501    0 -0.15699438102E+03 -0.54935942938E+01  0.34596817001E+03  0.41749298187E+03  0.17300000000E+03 0.  1.
         -6    1    1    2    0  503  0.15699438102E+03  0.54935942938E+01 -0.34583168119E+03  0.41737988327E+03  0.17300000000E+03 0. -1.
<mgrwt>
<rscale>  2 0.23368016E+03</rscale>
<asrwt>0</asrwt>
<pdfrwt beam="1">  1       21 0.64231488E-01 0.23368016E+03</pdfrwt>
<pdfrwt beam="2">  1       21 0.64210491E-01 0.23368016E+03</pdfrwt>
<totfact> 0.48574515E+03</totfact>
</mgrwt>
</event>
<event>
 4    2  0.3972096E+000  0.1748286E+03  0.7546771E-02  0.1172904E+00
         21   -1    0    0  501  502  0.00000000000E+00  0.00000000000E+00  0.13059257250E+04  0.13059257250E+04  0.00000000000E+00 0. -1.
         21   -1    0    0  502  503 -0.00000000000E+00 -0.00000000000E+00 -0.25827592143E+03  0.25827592143E+03  0.00000000000E+00 0. -1.
          6    1    1    2  501    0  0.16204621309E+02 -0.19324584674E+02  0.12696474754E+04  0.12816277701E+04  0.17300000000E+03 0. -1.
         -6    1    1    2    0  503 -0.16204621309E+02  0.19324584674E+02 -0.22199767179E+03  0.28257387637E+03  0.17300000000E+03 0. -1.
<mgrwt>
<rscale>  2 0.17482857E+03</rscale>
<asrwt>0</asrwt>
<pdfrwt beam="1">  1       21 0.20091165E+00 0.17482857E+03</pdfrwt>
<pdfrwt beam="2">  1       21 0.39734758E-01 0.17482857E+03</pdfrwt>
<totfact> 0.82635393E+02</totfact>
</mgrwt>
</event>
<event>
 4    2  0.3972096E+000  0.1735541E+03  0.7546771E-02  0.1174191E+00
         21   -1    0    0  503  502  0.00000000000E+00  0.00000000000E+00  0.16894430229E+03  0.16894430229E+03  0.00000000000E+00 0. -1.
         21   -1    0    0  501  503 -0.00000000000E+00 -0.00000000000E+00 -0.20374169344E+03  0.20374169344E+03  0.00000000000E+00 0. -1.
          6    1    1    2  501    0  0.10787134793E+02 -0.86977020231E+01 -0.83260688168E+02  0.19249247905E+03  0.17300000000E+03 0. -1.
         -6    1    1    2    0  502 -0.10787134793E+02  0.86977020231E+01  0.48463297018E+02  0.18019351669E+03  0.17300000000E+03 0. -1.
<mgrwt>
<rscale>  2 0.17355406E+03</rscale>
<asrwt>0</asrwt>
<pdfrwt beam="1">  1       21 0.25991431E-01 0.17355406E+03</pdfrwt>
<pdfrwt beam="2">  1       21 0.31344876E-01 0.17355406E+03</pdfrwt>
<totfact> 0.13841494E+05</totfact>
</mgrwt>
</event>
<event>
 4    2  0.3972096E+000  0.1917404E+03  0.7546771E-02  0.1156901E+00
         21   -1    0    0  501  502  0.00000000000E+00  0.00000000000E+00  0.53983904022E+02  0.53983904022E+02  0.00000000000E+00 0. -1.
         21   -1    0    0  502  503 -0.00000000000E+00 -0.00000000000E+00 -0.87526565025E+03  0.87526565025E+03  0.00000000000E+00 0. -1.
          6    1    1    2  501    0  0.72563925480E+02  0.39621335799E+02 -0.19176253152E+03  0.27117751018E+03  0.17300000000E+03 0. -1.
         -6    1    1    2    0  503 -0.72563925480E+02 -0.39621335799E+02 -0.62951921471E+03  0.65807204410E+03  0.17300000000E+03 0. -1.
<mgrwt>
<rscale>  2 0.19174038E+03</rscale>
<asrwt>0</asrwt>
<pdfrwt beam="1">  1       21 0.83052170E-02 0.19174038E+03</pdfrwt>
<pdfrwt beam="2">  1       21 0.13465624E+00 0.19174038E+03</pdfrwt>
<totfact> 0.44474531E+04</totfact>
</mgrwt>
</event>
<event>
 4    2  0.3972096E+000  0.2184761E+03  0.7546771E-02  0.1135024E+00
         21   -1    0    0  501  502  0.00000000000E+00  0.00000000000E+00  0.11315637249E+03  0.11315637249E+03  0.00000000000E+00 0. -1.
         21   -1    0    0  502  503 -0.00000000000E+00 -0.00000000000E+00 -0.80411468230E+03  0.80411468230E+03  0.00000000000E+00 0. -1.
          6    1    1    2  501    0 -0.13167510610E+03  0.21551391284E+02 -0.29246329940E+02  0.22042491658E+03  0.17300000000E+03 0. -1.
         -6    1    1    2    0  503  0.13167510610E+03 -0.21551391284E+02 -0.66171197987E+03  0.69684613821E+03  0.17300000000E+03 0. -1.
<mgrwt>
<rscale>  2 0.21847608E+03</rscale>
<asrwt>0</asrwt>
<pdfrwt beam="1">  1       21 0.17408672E-01 0.21847608E+03</pdfrwt>
<pdfrwt beam="2">  1       21 0.12370995E+00 0.21847608E+03</pdfrwt>
<totfact> 0.14371238E+04</totfact>
</mgrwt>
</event>
<event>
 4    2  0.3972096E+000  0.1951022E+03  0.7546771E-02  0.1153938E+00
         21   -1    0    0  501  502  0.00000000000E+00  0.00000000000E+00  0.97494970380E+03  0.97494970380E+03  0.00000000000E+00 0.  1.
         21   -1    0    0  502  503 -0.00000000000E+00 -0.00000000000E+00 -0.16029440881E+03  0.16029440881E+03  0.00000000000E+00 0.  1.
          6    1    1    2  501    0  0.51394631887E+02 -0.74124640569E+02  0.90100549405E+03  0.92188707054E+03  0.17300000000E+03 0.  1.
         -6    1    1    2    0  503 -0.51394631887E+02  0.74124640569E+02 -0.86350199051E+02  0.21335704207E+03  0.17300000000E+03 0.  1.
<mgrwt>
<rscale>  2 0.19510221E+03</rscale>
<asrwt>0</asrwt>
<pdfrwt beam="1">  1       21 0.14999226E+00 0.19510221E+03</pdfrwt>
<pdfrwt beam="2">  1       21 0.24660679E-01 0.19510221E+03</pdfrwt>
<totfact> 0.46380244E+03</totfact>
</mgrwt>
</event>
<event>
 4    2  0.3972096E+000  0.2185275E+03  0.7546771E-02  0.1134986E+00
         21   -1    0    0  503  502  0.00000000000E+00  0.00000000000E+00  0.40242241956E+03  0.40242241956E+03  0.00000000000E+00 0.  1.
         21   -1    0    0  501  503 -0.00000000000E+00 -0.00000000000E+00 -0.12046243356E+03  0.12046243356E+03  0.00000000000E+00 0.  1.
          6    1    1    2  501    0  0.10537517402E+03  0.81983859862E+02  0.17289751113E+03  0.27865360205E+03  0.17300000000E+03 0.  1.
         -6    1    1    2    0  502 -0.10537517402E+03 -0.81983859862E+02  0.10906247486E+03  0.24423125107E+03  0.17300000000E+03 0.  1.
<mgrwt>
<rscale>  2 0.21852753E+03</rscale>
<asrwt>0</asrwt>
<pdfrwt beam="1">  1       21 0.61911141E-01 0.21852753E+03</pdfrwt>
<pdfrwt beam="2">  1       21 0.18532682E-01 0.21852753E+03</pdfrwt>
<totfact> 0.63679197E+04</totfact>
</mgrwt>
</event>
<event>
 4    2  0.3972096E+000  0.2210560E+03  0.7546771E-02  0.1133098E+00
         21   -1    0    0  503  502  0.00000000000E+00  0.00000000000E+00  0.61675148867E+03  0.61675148867E+03  0.00000000000E+00 0.  1.
         21   -1    0    0  501  503 -0.00000000000E+00 -0.00000000000E+00 -0.11628569876E+03  0.11628569876E+03  0.00000000000E+00 0. -1.
          6    1    1    2  501    0  0.94064587520E+02 -0.10044210892E+03  0.43335416207E+02  0.22526367254E+03  0.17300000000E+03 0. -1.
         -6    1    1    2    0  502 -0.94064587520E+02  0.10044210892E+03  0.45713037370E+03  0.50777351489E+03  0.17300000000E+03 0.  1.
<mgrwt>
<rscale>  2 0.22105602E+03</rscale>
<asrwt>0</asrwt>
<pdfrwt beam="1">  1       21 0.94884843E-01 0.22105602E+03</pdfrwt>
<pdfrwt beam="2">  1       21 0.17890108E-01 0.22105602E+03</pdfrwt>
<totfact> 0.25956742E+04</totfact>
</mgrwt>
</event>
<event>
 4    2  0.3972096E+000  0.1993104E+03  0.7546771E-02  0.1150322E+00
         21   -1    0    0  503  502  0.00000000000E+00  0.00000000000E+00  0.39035652406E+03  0.39035652406E+03  0.00000000000E+00 0. -1.
         21   -1    0    0  501  503 -0.00000000000E+00 -0.00000000000E+00 -0.11830998706E+03  0.11830998706E+03  0.00000000000E+00 0. -1.
          6    1    1    2  501    0  0.54901685515E+02 -0.82349443304E+02  0.23113319748E+03  0.30520023077E+03  0.17300000000E+03 0. -1.
         -6    1    1    2    0  502 -0.54901685515E+02  0.82349443304E+02  0.40913339517E+02  0.20346628034E+03  0.17300000000E+03 0. -1.
<mgrwt>
<rscale>  2 0.19931038E+03</rscale>
<asrwt>0</asrwt>
<pdfrwt beam="1">  1       21 0.60054849E-01 0.19931038E+03</pdfrwt>
<pdfrwt beam="2">  1       21 0.18201537E-01 0.19931038E+03</pdfrwt>
<totfact> 0.70914734E+04</totfact>
</mgrwt>
</event>
<event>
 4    2  0.3972096E+000  0.1940027E+03  0.7546771E-02  0.1154900E+00
         21   -1    0    0  501  502  0.00000000000E+00  0.00000000000E+00  0.11572251277E+03  0.11572251277E+03  0.00000000000E+00 0.  1.
         21   -1    0    0  502  503 -0.00000000000E+00 -0.00000000000E+00 -0.39336019805E+03  0.39336019805E+03  0.00000000000E+00 0.  1.
          6    1    1    2  501    0  0.46765011248E+02  0.74303938622E+02 -0.32889517762E+02  0.19677083613E+03  0.17300000000E+03 0.  1.
         -6    1    1    2    0  503 -0.46765011248E+02 -0.74303938622E+02 -0.24474816752E+03  0.31231187470E+03  0.17300000000E+03 0.  1.
<mgrwt>
<rscale>  2 0.19400268E+03</rscale>
<asrwt>0</asrwt>
<pdfrwt beam="1">  1       21 0.17803464E-01 0.19400268E+03</pdfrwt>
<pdfrwt beam="2">  1       21 0.60516953E-01 0.19400268E+03</pdfrwt>
<totfact> 0.72845465E+04</totfact>
</mgrwt>
</event>
<event>
 4    2  0.3972096E+000  0.3351687E+03  0.7546771E-02  0.1068872E+00
         21   -1    0    0  503  502  0.00000000000E+00  0.00000000000E+00  0.19092497470E+03  0.19092497470E+03  0.00000000000E+00 0.  1.
         21   -1    0    0  501  503 -0.00000000000E+00 -0.00000000000E+00 -0.60973593930E+03  0.60973593930E+03  0.00000000000E+00 0. -1.
          6    1    1    2  501    0 -0.24538629161E+03 -0.14897868161E+03 -0.28431199044E+03  0.43951267057E+03  0.17300000000E+03 0. -1.
         -6    1    1    2    0  502  0.24538629161E+03  0.14897868161E+03 -0.13449897416E+03  0.36114824343E+03  0.17300000000E+03 0.  1.
<mgrwt>
<rscale>  2 0.33516873E+03</rscale>
<asrwt>0</asrwt>
<pdfrwt beam="1">  1       21 0.29373073E-01 0.33516873E+03</pdfrwt>
<pdfrwt beam="2">  1       21 0.93805530E-01 0.33516873E+03</pdfrwt>
<totfact> 0.98108206E+03</totfact>
</mgrwt>
</event>
<event>
 4    2  0.3972096E+000  0.2802756E+03  0.7546771E-02  0.1095539E+00
         21   -1    0    0  503  502  0.00000000000E+00  0.00000000000E+00  0.61410694503E+03  0.61410694503E+03  0.00000000000E+00 0.  1.
         21   -1    0    0  501  503 -0.00000000000E+00 -0.00000000000E+00 -0.18813062797E+03  0.18813062797E+03  0.00000000000E+00 0.  1.
          6    1    1    2  501    0 -0.14208680130E+03 -0.16863192890E+03 -0.13942197546E+02  0.28062211499E+03  0.17300000000E+03 0.  1.
         -6    1    1    2    0  502  0.14208680130E+03  0.16863192890E+03  0.43991851460E+03  0.52161545801E+03  0.17300000000E+03 0.  1.
<mgrwt>
<rscale>  2 0.28027555E+03</rscale>
<asrwt>0</asrwt>
<pdfrwt beam="1">  1       21 0.94477991E-01 0.28027555E+03</pdfrwt>
<pdfrwt beam="2">  1       21 0.28943174E-01 0.28027555E+03</pdfrwt>
<totfact> 0.10177624E+04</totfact>
</mgrwt>
</event>
<event>
 4    2  0.3972096E+000  0.1858839E+03  0.7546771E-02  0.1162227E+00
         21   -1    0    0  501  502  0.00000000000E+00  0.00000000000E+00  0.16910692802E+03  0.16910692802E+03  0.00000000000E+00 0. -1.
         21   -1    0    0  502  503 -0.00000000000E+00 -0.00000000000E+00 -0.20742656997E+03  0.20742656997E+03  0.00000000000E+00 0.  1.
          6    1    1    2  501    0 -0.29805157699E+02 -0.61118599569E+02 -0.42179983517E+02  0.19060950041E+03  0.17300000000E+03 0.  1.
         -6    1    1    2    0  503  0.29805157699E+02  0.61118599569E+02  0.38603415700E+01  0.18592399758E+03  0.17300000000E+03 0.  1.
<mgrwt>
<rscale>  2 0.18588392E+03</rscale>
<asrwt>0</asrwt>
<pdfrwt beam="1">  1       21 0.26016450E-01 0.18588392E+03</pdfrwt>
<pdfrwt beam="2">  1       21 0.31911780E-01 0.18588392E+03</pdfrwt>
<totfact> 0.13283749E+05</totfact>
</mgrwt>
</event>
<event>
 4    2  0.3972096E+000  0.1862094E+03  0.7546771E-02  0.1161925E+00
         21   -1    0    0  503  502  0.00000000000E+00  0.00000000000E+00  0.58396928695E+02  0.58396928695E+02  0.00000000000E+00 0.  1.
         21   -1    0    0  501  503 -0.00000000000E+00 -0.00000000000E+00 -0.83683897626E+03  0.83683897626E+03  0.00000000000E+00 0.  1.
          6    1    1    2  501    0  0.34019340211E+02 -0.59896748364E+02 -0.63046560093E+03  0.65738938989E+03  0.17300000000E+03 0.  1.
         -6    1    1    2    0  502 -0.34019340211E+02  0.59896748364E+02 -0.14797644663E+03  0.23784651507E+03  0.17300000000E+03 0.  1.
<mgrwt>
<rscale>  2 0.18620939E+03</rscale>
<asrwt>0</asrwt>
<pdfrwt beam="1">  1       21 0.89841442E-02 0.18620939E+03</pdfrwt>
<pdfrwt beam="2">  1       21 0.12874444E+00 0.18620939E+03</pdfrwt>
<totfact> 0.43555635E+04</totfact>
</mgrwt>
</event>
<event>
 4    2  0.3972096E+000  0.1778107E+03  0.7546771E-02  0.1169939E+00
         21   -1    0    0  501  502  0.00000000000E+00  0.00000000000E+00  0.10195519782E+04  0.10195519782E+04  0.00000000000E+00 0.  1.
         21   -1    0    0  502  503 -0.00000000000E+00 -0.00000000000E+00 -0.37524379107E+02  0.37524379107E+02  0.00000000000E+00 0.  1.
          6    1    1    2  501    0 -0.82813790537E+01 -0.40237724682E+02  0.27079990684E+03  0.32395870921E+03  0.17300000000E+03 0.  1.
         -6    1    1    2    0  503  0.82813790537E+01  0.40237724682E+02  0.71122769222E+03  0.73311764807E+03  0.17300000000E+03 0.  1.
<mgrwt>
<rscale>  2 0.17781073E+03</rscale>
<asrwt>0</asrwt>
<pdfrwt beam="1">  1       21 0.15685413E+00 0.17781073E+03</pdfrwt>
<pdfrwt beam="2">  1       21 0.57729822E-02 0.17781073E+03</pdfrwt>
<totfact> 0.56387064E+04</totfact>
</mgrwt>
</event>
<event>
 4    2  0.3972096E+000  0.2353042E+03  0.7546771E-02  0.1122961E+00
         21   -1    0    0  501  502  0.00000000000E+00  0.00000000000E+00  0.12909423453E+03  0.12909423453E+03  0.00000000000E+00 0.  1.
         21   -1    0    0  502  503 -0.00000000000E+00 -0.00000000000E+00 -0.10390900156E+04  0.10390900156E+04  0.00000000000E+00 0.  1.
          6    1    1    2  501    0  0.11460643477E+03 -0.11092529647E+03 -0.73994299798E+01  0.23542049157E+03  0.17300000000E+03 0.  1.
         -6    1    1    2    0  503 -0.11460643477E+03  0.11092529647E+03 -0.90259635110E+03  0.93276375857E+03  0.17300000000E+03 0.  1.
<mgrwt>
<rscale>  2 0.23530418E+03</rscale>
<asrwt>0</asrwt>
<pdfrwt beam="1">  1       21 0.19860651E-01 0.23530418E+03</pdfrwt>
<pdfrwt beam="2">  1       21 0.15986001E+00 0.23530418E+03</pdfrwt>
<totfact> 0.57064768E+03</totfact>
</mgrwt>
</event>
<event>
 4    2  0.3972096E+000  0.1769662E+03  0.7546771E-02  0.1170772E+00
         21   -1    0    0  501  502  0.00000000000E+00  0.00000000000E+00  0.79151551114E+03  0.79151551114E+03  0.00000000000E+00 0. -1.
         21   -1    0    0  502  503 -0.00000000000E+00 -0.00000000000E+00 -0.63399396747E+02  0.63399396747E+02  0.00000000000E+00 0.  1.
          6    1    1    2  501    0  0.29486446031E+02 -0.22772706648E+02  0.10197198133E+03  0.20424331481E+03  0.17300000000E+03 0.  1.
         -6    1    1    2    0  503 -0.29486446031E+02  0.22772706648E+02  0.62614413306E+03  0.65067159308E+03  0.17300000000E+03 0. -1.
<mgrwt>
<rscale>  2 0.17696623E+03</rscale>
<asrwt>0</asrwt>
<pdfrwt beam="1">  1       21 0.12177161E+00 0.17696623E+03</pdfrwt>
<pdfrwt beam="2">  1       21 0.97537539E-02 0.17696623E+03</pdfrwt>
<totfact> 0.43548775E+04</totfact>
</mgrwt>
</event>
<event>
 4    2  0.3972096E+000  0.2296915E+03  0.7546771E-02  0.1126857E+00
         21   -1    0    0  503  502  0.00000000000E+00  0.00000000000E+00  0.42965683746E+03  0.42965683746E+03  0.00000000000E+00 0. -1.
         21   -1    0    0  501  503 -0.00000000000E+00 -0.00000000000E+00 -0.31860474520E+03  0.31860474520E+03  0.00000000000E+00 0. -1.
          6    1    1    2  501    0  0.74100641658E+02  0.13167486777E+03 -0.23777826526E+03  0.33060048295E+03  0.17300000000E+03 0. -1.
         -6    1    1    2    0  502 -0.74100641658E+02 -0.13167486777E+03  0.34883035751E+03  0.41766109972E+03  0.17300000000E+03 0. -1.
<mgrwt>
<rscale>  2 0.22969148E+03</rscale>
<asrwt>0</asrwt>
<pdfrwt beam="1">  1       21 0.66101052E-01 0.22969148E+03</pdfrwt>
<pdfrwt beam="2">  1       21 0.49016115E-01 0.22969148E+03</pdfrwt>
<totfact> 0.81374808E+03</totfact>
</mgrwt>
</event>
<event>
 4    2  0.3972096E+000  0.1750313E+03  0.7546771E-02  0.1172700E+00
         21   -1    0    0  503  502  0.00000000000E+00  0.00000000000E+00  0.18592381965E+03  0.18592381965E+03  0.00000000000E+00 0.  1.
         21   -1    0    0  501  503 -0.00000000000E+00 -0.00000000000E+00 -0.29794820429E+03  0.29794820429E+03  0.00000000000E+00 0.  1.
          6    1    1    2  501    0 -0.25009936827E+02  0.90245655559E+01 -0.21775893884E+03  0.27938306170E+03  0.17300000000E+03 0.  1.
         -6    1    1    2    0  502  0.25009936827E+02 -0.90245655559E+01  0.10573455420E+03  0.20448896224E+03  0.17300000000E+03 0.  1.
<mgrwt>
<rscale>  2 0.17503125E+03</rscale>
<asrwt>0</asrwt>
<pdfrwt beam="1">  1       21 0.28603665E-01 0.17503125E+03</pdfrwt>
<pdfrwt beam="2">  1       21 0.45838185E-01 0.17503125E+03</pdfrwt>
<totfact> 0.53774067E+04</totfact>
</mgrwt>
</event>
<event>
 4    2  0.3972096E+000  0.1805064E+03  0.7546771E-02  0.1167314E+00
         21   -1    0    0  501  502  0.00000000000E+00  0.00000000000E+00  0.50391242634E+02  0.50391242634E+02  0.00000000000E+00 0. -1.
         21   -1    0    0  502  503 -0.00000000000E+00 -0.00000000000E+00 -0.69329877603E+03  0.69329877603E+03  0.00000000000E+00 0. -1.
          6    1    1    2  501    0 -0.19213215358E+02 -0.47795715009E+02 -0.22493953718E+03  0.28841007854E+03  0.17300000000E+03 0. -1.
         -6    1    1    2    0  503  0.19213215358E+02  0.47795715009E+02 -0.41796799621E+03  0.45527994012E+03  0.17300000000E+03 0. -1.
<mgrwt>
<rscale>  2 0.18050645E+03</rscale>
<asrwt>0</asrwt>
<pdfrwt beam="1">  1       21 0.77524995E-02 0.18050645E+03</pdfrwt>
<pdfrwt beam="2">  1       21 0.10666134E+00 0.18050645E+03</pdfrwt>
<totfact> 0.89638849E+04</totfact>
</mgrwt>
</event>
<event>
 4    2  0.3972096E+000  0.2124472E+03  0.7546771E-02  0.1139643E+00
         21   -1    0    0  503  502  0.00000000000E+00  0.00000000000E+00  0.12933185247E+03  0.12933185247E+03  0.00000000000E+00 0.  1.
         21   -1    0    0  501  503 -0.00000000000E+00 -0.00000000000E+00 -0.98444308455E+03  0.98444308455E+03  0.00000000000E+00 0. -1.
          6    1    1    2  501    0  0.57510622834E+02 -0.10907485504E+03 -0.87497876416E+03  0.90040081823E+03  0.17300000000E+03 0. -1.
         -6    1    1    2    0  502 -0.57510622834E+02  0.10907485504E+03  0.19867532079E+02  0.21337411880E+03  0.17300000000E+03 0.  1.
<mgrwt>
<rscale>  2 0.21244716E+03</rscale>
<asrwt>0</asrwt>
<pdfrwt beam="1">  1       21 0.19897208E-01 0.21244716E+03</pdfrwt>
<pdfrwt beam="2">  1       21 0.15145278E+00 0.21244716E+03</pdfrwt>
<totfact> 0.66860433E+03</totfact>
</mgrwt>
</event>
<event>
 4    2  0.3972096E+000  0.1952689E+03  0.7546771E-02  0.1153793E+00
         21   -1    0    0  501  502  0.00000000000E+00  0.00000000000E+00  0.10335832977E+04  0.10335832977E+04  0.00000000000E+00 0.  1.
         21   -1    0    0  502  503 -0.00000000000E+00 -0.00000000000E+00 -0.47466604382E+02  0.47466604382E+02  0.00000000000E+00 0.  1.
          6    1    1    2  501    0 -0.79042898414E+02 -0.44194721370E+02  0.74819545617E+03  0.77325700373E+03  0.17300000000E+03 0.  1.
         -6    1    1    2    0  503  0.79042898414E+02  0.44194721370E+02  0.23792123714E+03  0.30779289834E+03  0.17300000000E+03 0.  1.
<mgrwt>
<rscale>  2 0.19526893E+03</rscale>
<asrwt>0</asrwt>
<pdfrwt beam="1">  1       21 0.15901280E+00 0.19526893E+03</pdfrwt>
<pdfrwt beam="2">  1       21 0.73025553E-02 0.19526893E+03</pdfrwt>
<totfact> 0.35923890E+04</totfact>
</mgrwt>
</event>
<event>
 4    2  0.3972096E+000  0.1803641E+03  0.7546771E-02  0.1167451E+00
         21   -1    0    0  501  502  0.00000000000E+00  0.00000000000E+00  0.48377063243E+03  0.48377063243E+03  0.00000000000E+00 0. -1.
         21   -1    0    0  502  503 -0.00000000000E+00 -0.00000000000E+00 -0.88313356001E+02  0.88313356001E+02  0.00000000000E+00 0. -1.
          6    1    1    2  501    0  0.16006353165E+02  0.48435521026E+02  0.58017532910E+02  0.18946566223E+03  0.17300000000E+03 0. -1.
         -6    1    1    2    0  503 -0.16006353165E+02 -0.48435521026E+02  0.33743974352E+03  0.38261832620E+03  0.17300000000E+03 0. -1.
<mgrwt>
<rscale>  2 0.18036408E+03</rscale>
<asrwt>0</asrwt>
<pdfrwt beam="1">  1       21 0.74426250E-01 0.18036408E+03</pdfrwt>
<pdfrwt beam="2">  1       21 0.13586670E-01 0.18036408E+03</pdfrwt>
<totfact> 0.76320080E+04</totfact>
</mgrwt>
</event>
<event>
 4    2  0.3972096E+000  0.2499081E+03  0.7546771E-02  0.1113363E+00
         21   -1    0    0  503  502  0.00000000000E+00  0.00000000000E+00  0.38846481904E+03  0.38846481904E+03  0.00000000000E+00 0. -1.
         21   -1    0    0  501  503 -0.00000000000E+00 -0.00000000000E+00 -0.26537981945E+03  0.26537981945E+03  0.00000000000E+00 0. -1.
          6    1    1    2  501    0 -0.13027866940E+03 -0.12470977172E+03 -0.14371252842E+03  0.28828345371E+03  0.17300000000E+03 0. -1.
         -6    1    1    2    0  502  0.13027866940E+03  0.12470977172E+03  0.26679752801E+03  0.36556118477E+03  0.17300000000E+03 0. -1.
<mgrwt>
<rscale>  2 0.24990810E+03</rscale>
<asrwt>0</asrwt>
<pdfrwt beam="1">  1       21 0.59763819E-01 0.24990810E+03</pdfrwt>
<pdfrwt beam="2">  1       21 0.40827664E-01 0.24990810E+03</pdfrwt>
<totfact> 0.14608019E+04</totfact>
</mgrwt>
</event>
<event>
 4    2  0.3972096E+000  0.2819460E+03  0.7546771E-02  0.1094631E+00
         21   -1    0    0  503  502  0.00000000000E+00  0.00000000000E+00  0.42008640358E+03  0.42008640358E+03  0.00000000000E+00 0.  1.
         21   -1    0    0  501  503 -0.00000000000E+00 -0.00000000000E+00 -0.26180987963E+03  0.26180987963E+03  0.00000000000E+00 0.  1.
          6    1    1    2  501    0 -0.12631632442E+03 -0.18332688820E+03  0.25865257359E+03  0.38261562380E+03  0.17300000000E+03 0.  1.
         -6    1    1    2    0  502  0.12631632442E+03  0.18332688820E+03 -0.10037604964E+03  0.29928065941E+03  0.17300000000E+03 0.  1.
<mgrwt>
<rscale>  2 0.28194603E+03</rscale>
<asrwt>0</asrwt>
<pdfrwt beam="1">  1       21 0.64628677E-01 0.28194603E+03</pdfrwt>
<pdfrwt beam="2">  1       21 0.40278443E-01 0.28194603E+03</pdfrwt>
<totfact> 0.12467453E+04</totfact>
</mgrwt>
</event>
<event>
 4    2  0.3972096E+000  0.1864541E+03  0.7546771E-02  0.1161699E+00
         21   -1    0    0  503  502  0.00000000000E+00  0.00000000000E+00  0.43569711246E+03  0.43569711246E+03  0.00000000000E+00 0. -1.
         21   -1    0    0  501  503 -0.00000000000E+00 -0.00000000000E+00 -0.79791974033E+02  0.79791974033E+02  0.00000000000E+00 0. -1.
          6    1    1    2  501    0 -0.56842266932E+02  0.40063499934E+02  0.17805364517E+03  0.25781432833E+03  0.17300000000E+03 0. -1.
         -6    1    1    2    0  502  0.56842266932E+02 -0.40063499934E+02  0.17785149326E+03  0.25767475816E+03  0.17300000000E+03 0. -1.
<mgrwt>
<rscale>  2 0.18645409E+03</rscale>
<asrwt>0</asrwt>
<pdfrwt beam="1">  1       21 0.67030324E-01 0.18645409E+03</pdfrwt>
<pdfrwt beam="2">  1       21 0.12275688E-01 0.18645409E+03</pdfrwt>
<totfact> 0.11508945E+05</totfact>
</mgrwt>
</event>
<event>
 4    2  0.3972096E+000  0.2646022E+03  0.7546771E-02  0.1104409E+00
         21   -1    0    0  503  502  0.00000000000E+00  0.00000000000E+00  0.17728755575E+04  0.17728755575E+04  0.00000000000E+00 0. -1.
         21   -1    0    0  501  503 -0.00000000000E+00 -0.00000000000E+00 -0.44476384652E+02  0.44476384652E+02  0.00000000000E+00 0.  1.
          6    1    1    2  501    0  0.51544672084E+02  0.19346435644E+03  0.56000441352E+03  0.61937004577E+03  0.17300000000E+03 0.  1.
         -6    1    1    2    0  502 -0.51544672084E+02 -0.19346435644E+03  0.11683947593E+04  0.11979818963E+04  0.17300000000E+03 0. -1.
<mgrwt>
<rscale>  2 0.26460217E+03</rscale>
<asrwt>0</asrwt>
<pdfrwt beam="1">  1       21 0.27275003E+00 0.26460217E+03</pdfrwt>
<pdfrwt beam="2">  1       21 0.68425221E-02 0.26460217E+03</pdfrwt>
<totfact> 0.72258185E+03</totfact>
</mgrwt>
</event>
<event>
 4    2  0.3972096E+000  0.1785981E+03  0.7546771E-02  0.1169167E+00
         21   -1    0    0  503  502  0.00000000000E+00  0.00000000000E+00  0.16188550230E+03  0.16188550230E+03  0.00000000000E+00 0.  1.
         21   -1    0    0  501  503 -0.00000000000E+00 -0.00000000000E+00 -0.79910871340E+03  0.79910871340E+03  0.00000000000E+00 0.  1.
          6    1    1    2  501    0 -0.93096155976E-01  0.44365230718E+02 -0.73568481489E+03  0.75705312179E+03  0.17300000000E+03 0.  1.
         -6    1    1    2    0  502  0.93096155976E-01 -0.44365230718E+02  0.98461603784E+02  0.20394109391E+03  0.17300000000E+03 0.  1.
<mgrwt>
<rscale>  2 0.17859810E+03</rscale>
<asrwt>0</asrwt>
<pdfrwt beam="1">  1       21 0.24905462E-01 0.17859810E+03</pdfrwt>
<pdfrwt beam="2">  1       21 0.12293980E+00 0.17859810E+03</pdfrwt>
<totfact> 0.76689567E+03</totfact>
</mgrwt>
</event>
<event>
 4    2  0.3972096E+000  0.1799240E+03  0.7546771E-02  0.1167877E+00
         21   -1    0    0  501  502  0.00000000000E+00  0.00000000000E+00  0.22678257489E+03  0.22678257489E+03  0.00000000000E+00 0.  1.
         21   -1    0    0  502  503 -0.00000000000E+00 -0.00000000000E+00 -0.72556320949E+03  0.72556320949E+03  0.00000000000E+00 0.  1.
          6    1    1    2  501    0  0.40731326272E+02  0.28010753868E+02  0.17737849081E+03  0.25265742078E+03  0.17300000000E+03 0.  1.
         -6    1    1    2    0  503 -0.40731326272E+02 -0.28010753868E+02 -0.67615912541E+03  0.69968836359E+03  0.17300000000E+03 0.  1.
<mgrwt>
<rscale>  2 0.17992399E+03</rscale>
<asrwt>0</asrwt>
<pdfrwt beam="1">  1       21 0.34889627E-01 0.17992399E+03</pdfrwt>
<pdfrwt beam="2">  1       21 0.11162511E+00 0.17992399E+03</pdfrwt>
<totfact> 0.50433056E+03</totfact>
</mgrwt>
</event>
<event>
 4    2  0.3972096E+000  0.1928362E+03  0.7546771E-02  0.1155928E+00
         21   -1    0    0  501  502  0.00000000000E+00  0.00000000000E+00  0.30680149883E+03  0.30680149883E+03  0.00000000000E+00 0. -1.
         21   -1    0    0  502  503 -0.00000000000E+00 -0.00000000000E+00 -0.24561752895E+03  0.24561752895E+03  0.00000000000E+00 0. -1.
          6    1    1    2  501    0 -0.62754408780E+02 -0.57608152590E+02  0.22717290278E+03  0.29798211829E+03  0.17300000000E+03 0. -1.
         -6    1    1    2    0  503  0.62754408780E+02  0.57608152590E+02 -0.16598893290E+03  0.25443690949E+03  0.17300000000E+03 0. -1.
<mgrwt>
<rscale>  2 0.19283624E+03</rscale>
<asrwt>0</asrwt>
<pdfrwt beam="1">  1       21 0.47200230E-01 0.19283624E+03</pdfrwt>
<pdfrwt beam="2">  1       21 0.37787312E-01 0.19283624E+03</pdfrwt>
<totfact> 0.29006436E+04</totfact>
</mgrwt>
</event>
<event>
 4    2  0.3972096E+000  0.2225275E+03  0.7546771E-02  0.1132013E+00
         21   -1    0    0  501  502  0.00000000000E+00  0.00000000000E+00  0.34824423999E+03  0.34824423999E+03  0.00000000000E+00 0.  1.
         21   -1    0    0  502  503 -0.00000000000E+00 -0.00000000000E+00 -0.20751532708E+03  0.20751532708E+03  0.00000000000E+00 0.  1.
          6    1    1    2  501    0  0.11598015349E+03 -0.78345914495E+02  0.22626840009E+03  0.31735763296E+03  0.17300000000E+03 0.  1.
         -6    1    1    2    0  503 -0.11598015349E+03  0.78345914495E+02 -0.85539487171E+02  0.23840193411E+03  0.17300000000E+03 0.  1.
<mgrwt>
<rscale>  2 0.22252748E+03</rscale>
<asrwt>0</asrwt>
<pdfrwt beam="1">  1       21 0.53576037E-01 0.22252748E+03</pdfrwt>
<pdfrwt beam="2">  1       21 0.31925435E-01 0.22252748E+03</pdfrwt>
<totfact> 0.30618305E+04</totfact>
</mgrwt>
</event>
<event>
 4    2  0.3972096E+000  0.2344619E+03  0.7546771E-02  0.1123538E+00
         21   -1    0    0  503  502  0.00000000000E+00  0.00000000000E+00  0.80095027852E+02  0.80095027852E+02  0.00000000000E+00 0. -1.
         21   -1    0    0  501  503 -0.00000000000E+00 -0.00000000000E+00 -0.79192090076E+03  0.79192090076E+03  0.00000000000E+00 0. -1.
          6    1    1    2  501    0 -0.28289526241E+02 -0.15570192350E+03 -0.19671145549E+03  0.30605192860E+03  0.17300000000E+03 0. -1.
         -6    1    1    2    0  502  0.28289526241E+02  0.15570192350E+03 -0.51511441742E+03  0.56596400001E+03  0.17300000000E+03 0. -1.
<mgrwt>
<rscale>  2 0.23446191E+03</rscale>
<asrwt>0</asrwt>
<pdfrwt beam="1">  1       21 0.12322311E-01 0.23446191E+03</pdfrwt>
<pdfrwt beam="2">  1       21 0.12183399E+00 0.23446191E+03</pdfrwt>
<totfact> 0.27794369E+04</totfact>
</mgrwt>
</event>
<event>
 4    2  0.3972096E+000  0.2320110E+03  0.7546771E-02  0.1125232E+00
         21   -1    0    0  503  502  0.00000000000E+00  0.00000000000E+00  0.28505445957E+03  0.28505445957E+03  0.00000000000E+00 0. -1.
         21   -1    0    0  501  503 -0.00000000000E+00 -0.00000000000E+00 -0.61030382284E+03  0.61030382284E+03  0.00000000000E+00 0. -1.
          6    1    1    2  501    0 -0.28420505453E+02 -0.15196179606E+03 -0.53465214293E+03  0.58282246571E+03  0.17300000000E+03 0. -1.
         -6    1    1    2    0  502  0.28420505453E+02  0.15196179606E+03  0.20940277966E+03  0.31253581670E+03  0.17300000000E+03 0. -1.
<mgrwt>
<rscale>  2 0.23201102E+03</rscale>
<asrwt>0</asrwt>
<pdfrwt beam="1">  1       21 0.43854532E-01 0.23201102E+03</pdfrwt>
<pdfrwt beam="2">  1       21 0.93892895E-01 0.23201102E+03</pdfrwt>
<totfact> 0.46180062E+03</totfact>
</mgrwt>
</event>
<event>
 4    2  0.3972096E+000  0.1753392E+03  0.7546771E-02  0.1172392E+00
         21   -1    0    0  501  502  0.00000000000E+00  0.00000000000E+00  0.60185606253E+03  0.60185606253E+03  0.00000000000E+00 0.  1.
         21   -1    0    0  502  503 -0.00000000000E+00 -0.00000000000E+00 -0.96601958490E+02  0.96601958490E+02  0.00000000000E+00 0.  1.
          6    1    1    2  501    0 -0.23502521751E+02 -0.16201032739E+02  0.49235552504E+03  0.52264500862E+03  0.17300000000E+03 0.  1.
         -6    1    1    2    0  503  0.23502521751E+02  0.16201032739E+02  0.12898578997E+02  0.17581301240E+03  0.17300000000E+03 0.  1.
<mgrwt>
<rscale>  2 0.17533922E+03</rscale>
<asrwt>0</asrwt>
<pdfrwt beam="1">  1       21 0.92593238E-01 0.17533922E+03</pdfrwt>
<pdfrwt beam="2">  1       21 0.14861840E-01 0.17533922E+03</pdfrwt>
<totfact> 0.39598823E+04</totfact>
</mgrwt>
</event>
<event>
 4    2  0.3972096E+000  0.1803319E+03  0.7546771E-02  0.1167482E+00
         21   -1    0    0  501  502  0.00000000000E+00  0.00000000000E+00  0.31401754456E+03  0.31401754456E+03  0.00000000000E+00 0. -1.
         21   -1    0    0  502  503 -0.00000000000E+00 -0.00000000000E+00 -0.10409493814E+03  0.10409493814E+03  0.00000000000E+00 0. -1.
          6    1    1    2  501    0 -0.45754147316E+02 -0.22297184095E+02  0.89972554223E+02  0.20153080888E+03  0.17300000000E+03 0.  1.
         -6    1    1    2    0  503  0.45754147316E+02  0.22297184095E+02  0.11995005219E+03  0.21658167382E+03  0.17300000000E+03 0.  1.
<mgrwt>
<rscale>  2 0.18033193E+03</rscale>
<asrwt>0</asrwt>
<pdfrwt beam="1">  1       21 0.48310391E-01 0.18033193E+03</pdfrwt>
<pdfrwt beam="2">  1       21 0.16014606E-01 0.18033193E+03</pdfrwt>
<totfact> 0.14305375E+05</totfact>
</mgrwt>
</event>
<event>
 4    2  0.3972096E+000  0.1968742E+03  0.7546771E-02  0.1152403E+00
         21   -1    0    0  501  502  0.00000000000E+00  0.00000000000E+00  0.11960128290E+03  0.11960128290E+03  0.00000000000E+00 0. -1.
         21   -1    0    0  502  503 -0.00000000000E+00 -0.00000000000E+00 -0.33293887203E+03  0.33293887203E+03  0.00000000000E+00 0. -1.
          6    1    1    2  501    0 -0.81987641088E+02 -0.45918259446E+02 -0.14359403736E+03  0.24367746594E+03  0.17300000000E+03 0. -1.
         -6    1    1    2    0  503  0.81987641088E+02  0.45918259446E+02 -0.69743551768E+02  0.20886268900E+03  0.17300000000E+03 0. -1.
<mgrwt>
<rscale>  2 0.19687422E+03</rscale>
<asrwt>0</asrwt>
<pdfrwt beam="1">  1       21 0.18400197E-01 0.19687422E+03</pdfrwt>
<pdfrwt beam="2">  1       21 0.51221365E-01 0.19687422E+03</pdfrwt>
<totfact> 0.97498429E+04</totfact>
</mgrwt>
</event>
<event>
 4    2  0.3972096E+000  0.2012455E+03  0.7546771E-02  0.1148692E+00
         21   -1    0    0  503  502  0.00000000000E+00  0.00000000000E+00  0.55497029143E+03  0.55497029143E+03  0.00000000000E+00 0. -1.
         21   -1    0    0  501  503 -0.00000000000E+00 -0.00000000000E+00 -0.12856663190E+03  0.12856663190E+03  0.00000000000E+00 0. -1.
          6    1    1    2  501    0 -0.72135984086E+02  0.73260975696E+02 -0.11531162435E+02  0.20157563957E+03  0.17300000000E+03 0. -1.
         -6    1    1    2    0  502  0.72135984086E+02 -0.73260975696E+02  0.43793482196E+03  0.48196128376E+03  0.17300000000E+03 0. -1.
<mgrwt>
<rscale>  2 0.20124555E+03</rscale>
<asrwt>0</asrwt>
<pdfrwt beam="1">  1       21 0.85380043E-01 0.20124555E+03</pdfrwt>
<pdfrwt beam="2">  1       21 0.19779482E-01 0.20124555E+03</pdfrwt>
<totfact> 0.27813672E+04</totfact>
</mgrwt>
</event>
<event>
 4    2  0.3972096E+000  0.2546922E+03  0.7546771E-02  0.1110375E+00
         21   -1    0    0  503  502  0.00000000000E+00  0.00000000000E+00  0.16570489085E+04  0.16570489085E+04  0.00000000000E+00 0.  1.
         21   -1    0    0  501  503 -0.00000000000E+00 -0.00000000000E+00 -0.51952840205E+02  0.51952840205E+02  0.00000000000E+00 0.  1.
          6    1    1    2  501    0  0.89078963782E+02 -0.16432904275E+03  0.37830377793E+03  0.45605026530E+03  0.17300000000E+03 0.  1.
         -6    1    1    2    0  502 -0.89078963782E+02  0.16432904275E+03  0.12267922903E+04  0.12529514834E+04  0.17300000000E+03 0.  1.
<mgrwt>
<rscale>  2 0.25469216E+03</rscale>
<asrwt>0</asrwt>
<pdfrwt beam="1">  1       21 0.25493056E+00 0.25469216E+03</pdfrwt>
<pdfrwt beam="2">  1       21 0.79927460E-02 0.25469216E+03</pdfrwt>
<totfact> 0.70768594E+03</totfact>
</mgrwt>
</event>
<event>
 4    2  0.3972096E+000  0.2223356E+03  0.7546771E-02  0.1132154E+00
         21   -1    0    0  503  502  0.00000000000E+00  0.00000000000E+00  0.10789166766E+04  0.10789166766E+04  0.00000000000E+00 0. -1.
         21   -1    0    0  501  503 -0.00000000000E+00 -0.00000000000E+00 -0.53676147024E+02  0.53676147024E+02  0.00000000000E+00 0.  1.
          6    1    1    2  501    0  0.11097969685E+03  0.84779912873E+02  0.29593440541E+03  0.37014902276E+03  0.17300000000E+03 0.  1.
         -6    1    1    2    0  502 -0.11097969685E+03 -0.84779912873E+02  0.72930612413E+03  0.76244380083E+03  0.17300000000E+03 0. -1.
<mgrwt>
<rscale>  2 0.22233562E+03</rscale>
<asrwt>0</asrwt>
<pdfrwt beam="1">  1       21 0.16598717E+00 0.22233562E+03</pdfrwt>
<pdfrwt beam="2">  1       21 0.82578696E-02 0.22233562E+03</pdfrwt>
<totfact> 0.25376414E+04</totfact>
</mgrwt>
</event>
<event>
 4    2  0.3972096E+000  0.2521335E+03  0.7546771E-02  0.1111964E+00
         21   -1    0    0  503  502  0.00000000000E+00  0.00000000000E+00  0.22430813574E+03  0.22430813574E+03  0.00000000000E+00 0.  1.
         21   -1    0    0  501  503 -0.00000000000E+00 -0.00000000000E+00 -0.28341958230E+03  0.28341958230E+03  0.00000000000E+00 0.  1.
          6    1    1    2  501    0 -0.18013358604E+03 -0.34556791429E+02 -0.30992901035E+02  0.25403118031E+03  0.17300000000E+03 0.  1.
         -6    1    1    2    0  502  0.18013358604E+03  0.34556791429E+02 -0.28118545528E+02  0.25369653773E+03  0.17300000000E+03 0.  1.
<mgrwt>
<rscale>  2 0.25213346E+03</rscale>
<asrwt>0</asrwt>
<pdfrwt beam="1">  1       21 0.34508944E-01 0.25213346E+03</pdfrwt>
<pdfrwt beam="2">  1       21 0.43603012E-01 0.25213346E+03</pdfrwt>
<totfact> 0.39789906E+04</totfact>
</mgrwt>
</event>
<event>
 4    2  0.3972096E+000  0.1753235E+03  0.7546771E-02  0.1172407E+00
         21   -1    0    0  503  502  0.00000000000E+00  0.00000000000E+00  0.46186003316E+02  0.46186003316E+02  0.00000000000E+00 0.  1.
         21   -1    0    0  501  503 -0.00000000000E+00 -0.00000000000E+00 -0.15765932747E+04  0.15765932747E+04  0.00000000000E+00 0.  1.
          6    1    1    2  501    0 -0.10148330778E+02 -0.26576926793E+02 -0.13820018597E+04  0.13930784119E+04  0.17300000000E+03 0.  1.
         -6    1    1    2    0  502  0.10148330778E+02  0.26576926793E+02 -0.14840541172E+03  0.22970086609E+03  0.17300000000E+03 0.  1.
<mgrwt>
<rscale>  2 0.17532348E+03</rscale>
<asrwt>0</asrwt>
<pdfrwt beam="1">  1       21 0.71055389E-02 0.17532348E+03</pdfrwt>
<pdfrwt beam="2">  1       21 0.24255281E+00 0.17532348E+03</pdfrwt>
<totfact> 0.11027112E+04</totfact>
</mgrwt>
</event>
<event>
 4    2  0.3972096E+000  0.2655120E+03  0.7546771E-02  0.1103876E+00
         21   -1    0    0  501  502  0.00000000000E+00  0.00000000000E+00  0.66204387758E+02  0.66204387758E+02  0.00000000000E+00 0.  1.
         21   -1    0    0  502  503 -0.00000000000E+00 -0.00000000000E+00 -0.11273874084E+04  0.11273874084E+04  0.00000000000E+00 0. -1.
          6    1    1    2  501    0 -0.78817228698E+02 -0.18535230097E+03 -0.39001347927E+03  0.47181261643E+03  0.17300000000E+03 0.  1.
         -6    1    1    2    0  503  0.78817228698E+02  0.18535230097E+03 -0.67116954133E+03  0.72177917968E+03  0.17300000000E+03 0. -1.
<mgrwt>
<rscale>  2 0.26551202E+03</rscale>
<asrwt>0</asrwt>
<pdfrwt beam="1">  1       21 0.10185291E-01 0.26551202E+03</pdfrwt>
<pdfrwt beam="2">  1       21 0.17344421E+00 0.26551202E+03</pdfrwt>
<totfact> 0.15124873E+04</totfact>
</mgrwt>
</event>
<event>
 4    2  0.3972096E+000  0.1905126E+03  0.7546771E-02  0.1158000E+00
         21   -1    0    0  501  502  0.00000000000E+00  0.00000000000E+00  0.46000398158E+02  0.46000398158E+02  0.00000000000E+00 0.  1.
         21   -1    0    0  502  503 -0.00000000000E+00 -0.00000000000E+00 -0.85127169273E+03  0.85127169273E+03  0.00000000000E+00 0.  1.
          6    1    1    2  501    0 -0.79631241947E+02  0.49927067007E+01 -0.28131108908E+03  0.33975136593E+03  0.17300000000E+03 0.  1.
         -6    1    1    2    0  503  0.79631241947E+02 -0.49927067007E+01 -0.52396020549E+03  0.55752072496E+03  0.17300000000E+03 0.  1.
<mgrwt>
<rscale>  2 0.19051263E+03</rscale>
<asrwt>0</asrwt>
<pdfrwt beam="1">  1       21 0.70769850E-02 0.19051263E+03</pdfrwt>
<pdfrwt beam="2">  1       21 0.13096486E+00 0.19051263E+03</pdfrwt>
<totfact> 0.63043112E+04</totfact>
</mgrwt>
</event>
<event>
 4    2  0.3972096E+000  0.1975382E+03  0.7546771E-02  0.1151833E+00
         21   -1    0    0  501  502  0.00000000000E+00  0.00000000000E+00  0.11621008078E+04  0.11621008078E+04  0.00000000000E+00 0. -1.
         21   -1    0    0  502  503 -0.00000000000E+00 -0.00000000000E+00 -0.57874847665E+02  0.57874847665E+02  0.00000000000E+00 0. -1.
          6    1    1    2  501    0 -0.23194096982E+02  0.92489938976E+02  0.15688413355E+03  0.25225777749E+03  0.17300000000E+03 0. -1.
         -6    1    1    2    0  503  0.23194096982E+02 -0.92489938976E+02  0.94734182659E+03  0.96771787797E+03  0.17300000000E+03 0. -1.
<mgrwt>
<rscale>  2 0.19753824E+03</rscale>
<asrwt>0</asrwt>
<pdfrwt beam="1">  1       21 0.17878472E+00 0.19753824E+03</pdfrwt>
<pdfrwt beam="2">  1       21 0.89038236E-02 0.19753824E+03</pdfrwt>
<totfact> 0.18395552E+04</totfact>
</mgrwt>
</event>
<event>
 4    2  0.3972096E+000  0.2259087E+03  0.7546771E-02  0.1129553E+00
         21   -1    0    0  503  502  0.00000000000E+00  0.00000000000E+00  0.12802974787E+04  0.12802974787E+04  0.00000000000E+00 0. -1.
         21   -1    0    0  501  503 -0.00000000000E+00 -0.00000000000E+00 -0.49807698845E+02  0.49807698845E+02  0.00000000000E+00 0. -1.
          6    1    1    2  501    0 -0.88052595054E+02  0.11555286755E+03  0.91243463253E+03  0.93998493782E+03  0.17300000000E+03 0. -1.
         -6    1    1    2    0  502  0.88052595054E+02 -0.11555286755E+03  0.31805514730E+03  0.39012023969E+03  0.17300000000E+03 0. -1.
<mgrwt>
<rscale>  2 0.22590866E+03</rscale>
<asrwt>0</asrwt>
<pdfrwt beam="1">  1       21 0.19696882E+00 0.22590866E+03</pdfrwt>
<pdfrwt beam="2">  1       21 0.76627239E-02 0.22590866E+03</pdfrwt>
<totfact> 0.17727410E+04</totfact>
</mgrwt>
</event>
<event>
 4    2  0.3972096E+000  0.4639719E+03  0.7546771E-02  0.1023636E+00
         21   -1    0    0  501  502  0.00000000000E+00  0.00000000000E+00  0.71073075131E+03  0.71073075131E+03  0.00000000000E+00 0.  1.
         21   -1    0    0  502  503 -0.00000000000E+00 -0.00000000000E+00 -0.48194714178E+03  0.48194714178E+03  0.00000000000E+00 0. -1.
          6    1    1    2  501    0  0.27295566643E+03  0.33292065458E+03 -0.24910022147E+03  0.52661264552E+03  0.17300000000E+03 0. -1.
         -6    1    1    2    0  503 -0.27295566643E+03 -0.33292065458E+03  0.47788383100E+03  0.66606524757E+03  0.17300000000E+03 0.  1.
<mgrwt>
<rscale>  2 0.46397194E+03</rscale>
<asrwt>0</asrwt>
<pdfrwt beam="1">  1       21 0.10934319E+00 0.46397194E+03</pdfrwt>
<pdfrwt beam="2">  1       21 0.74145714E-01 0.46397194E+03</pdfrwt>
<totfact> 0.91125119E+02</totfact>
</mgrwt>
</event>
<event>
 4    2  0.3972096E+000  0.1762724E+03  0.7546771E-02  0.1171460E+00
         21   -1    0    0  503  502  0.00000000000E+00  0.00000000000E+00  0.20983413944E+04  0.20983413944E+04  0.00000000000E+00 0.  1.
         21   -1    0    0  501  503 -0.00000000000E+00 -0.00000000000E+00 -0.86189736561E+02  0.86189736561E+02  0.00000000000E+00 0.  1.
          6    1    1    2  501    0  0.33740899781E+02 -0.21262024785E+01  0.12057454897E+02  0.17668432662E+03  0.17300000000E+03 0.  1.
         -6    1    1    2    0  502 -0.33740899781E+02  0.21262024785E+01  0.20000942029E+04  0.20078468043E+04  0.17300000000E+03 0.  1.
<mgrwt>
<rscale>  2 0.17627243E+03</rscale>
<asrwt>0</asrwt>
<pdfrwt beam="1">  1       21 0.32282171E+00 0.17627243E+03</pdfrwt>
<pdfrwt beam="2">  1       21 0.13259961E-01 0.17627243E+03</pdfrwt>
<totfact> 0.12659351E+03</totfact>
</mgrwt>
</event>
<event>
 4    2  0.3972096E+000  0.2069909E+03  0.7546771E-02  0.1143971E+00
         21   -1    0    0  503  502  0.00000000000E+00  0.00000000000E+00  0.21720825496E+03  0.21720825496E+03  0.00000000000E+00 0. -1.
         21   -1    0    0  501  503 -0.00000000000E+00 -0.00000000000E+00 -0.22395625832E+03  0.22395625832E+03  0.00000000000E+00 0. -1.
          6    1    1    2  501    0 -0.77090910088E+02  0.83505737761E+02 -0.79540192964E+02  0.22174728624E+03  0.17300000000E+03 0. -1.
         -6    1    1    2    0  502  0.77090910088E+02 -0.83505737761E+02  0.72792189600E+02  0.21941722704E+03  0.17300000000E+03 0. -1.
<mgrwt>
<rscale>  2 0.20699086E+03</rscale>
<asrwt>0</asrwt>
<pdfrwt beam="1">  1       21 0.33416655E-01 0.20699086E+03</pdfrwt>
<pdfrwt beam="2">  1       21 0.34454809E-01 0.20699086E+03</pdfrwt>
<totfact> 0.69570605E+04</totfact>
</mgrwt>
</event>
<event>
 4    2  0.3972096E+000  0.2440849E+03  0.7546771E-02  0.1117101E+00
         21   -1    0    0  501  502  0.00000000000E+00  0.00000000000E+00  0.31563040085E+03  0.31563040085E+03  0.00000000000E+00 0. -1.
         21   -1    0    0  502  503 -0.00000000000E+00 -0.00000000000E+00 -0.24346780335E+03  0.24346780335E+03  0.00000000000E+00 0. -1.
          6    1    1    2  501    0 -0.17208693888E+03  0.58754577385E+01  0.16859904167E+03  0.29665311795E+03  0.17300000000E+03 0. -1.
         -6    1    1    2    0  503  0.17208693888E+03 -0.58754577385E+01 -0.96436444170E+02  0.26244508625E+03  0.17300000000E+03 0. -1.
<mgrwt>
<rscale>  2 0.24408489E+03</rscale>
<asrwt>0</asrwt>
<pdfrwt beam="1">  1       21 0.48558523E-01 0.24408489E+03</pdfrwt>
<pdfrwt beam="2">  1       21 0.37456585E-01 0.24408489E+03</pdfrwt>
<totfact> 0.27105466E+04</totfact>
</mgrwt>
</event>
<event>
 4    2  0.3972096E+000  0.2137308E+03  0.7546771E-02  0.1138645E+00
         21   -1    0    0  501  502  0.00000000000E+00  0.00000000000E+00  0.11182455724E+03  0.11182455724E+03  0.00000000000E+00 0. -1.
         21   -1    0    0  502  503 -0.00000000000E+00 -0.00000000000E+00 -0.59892140068E+03  0.59892140068E+03  0.00000000000E+00 0. -1.
          6    1    1    2  501    0  0.21717483613E+02 -0.12361307093E+03 -0.43169434862E+02  0.21804687686E+03  0.17300000000E+03 0. -1.
         -6    1    1    2    0  503 -0.21717483613E+02  0.12361307093E+03 -0.44392740858E+03  0.49269908107E+03  0.17300000000E+03 0. -1.
<mgrwt>
<rscale>  2 0.21373077E+03</rscale>
<asrwt>0</asrwt>
<pdfrwt beam="1">  1       21 0.17203778E-01 0.21373077E+03</pdfrwt>
<pdfrwt beam="2">  1       21 0.92141753E-01 0.21373077E+03</pdfrwt>
<totfact> 0.30006510E+04</totfact>
</mgrwt>
</event>
<event>
 4    2  0.3972096E+000  0.1899716E+03  0.7546771E-02  0.1158487E+00
         21   -1    0    0  503  502  0.00000000000E+00  0.00000000000E+00  0.11735362154E+03  0.11735362154E+03  0.00000000000E+00 0. -1.
         21   -1    0    0  501  503 -0.00000000000E+00 -0.00000000000E+00 -0.33406384466E+03  0.33406384466E+03  0.00000000000E+00 0. -1.
          6    1    1    2  501    0 -0.58190645358E+02  0.52669259897E+02 -0.17197202030E+03  0.25624905446E+03  0.17300000000E+03 0. -1.
         -6    1    1    2    0  502  0.58190645358E+02 -0.52669259897E+02 -0.44738202816E+02  0.19516841173E+03  0.17300000000E+03 0. -1.
<mgrwt>
<rscale>  2 0.18997158E+03</rscale>
<asrwt>0</asrwt>
<pdfrwt beam="1">  1       21 0.18054403E-01 0.18997158E+03</pdfrwt>
<pdfrwt beam="2">  1       21 0.51394438E-01 0.18997158E+03</pdfrwt>
<totfact> 0.10054744E+05</totfact>
</mgrwt>
</event>
<event>
 4    2  0.3972096E+000  0.2469509E+03  0.7546771E-02  0.1115247E+00
         21   -1    0    0  501  502  0.00000000000E+00  0.00000000000E+00  0.28925494422E+03  0.28925494422E+03  0.00000000000E+00 0. -1.
         21   -1    0    0  502  503 -0.00000000000E+00 -0.00000000000E+00 -0.21254502836E+03  0.21254502836E+03  0.00000000000E+00 0. -1.
          6    1    1    2  501    0  0.16146140868E+03  0.70611303614E+02  0.15842714320E+02  0.24745855064E+03  0.17300000000E+03 0. -1.
         -6    1    1    2    0  503 -0.16146140868E+03 -0.70611303614E+02  0.60867201543E+02  0.25434142194E+03  0.17300000000E+03 0. -1.
<mgrwt>
<rscale>  2 0.24695089E+03</rscale>
<asrwt>0</asrwt>
<pdfrwt beam="1">  1       21 0.44500761E-01 0.24695089E+03</pdfrwt>
<pdfrwt beam="2">  1       21 0.32699235E-01 0.24695089E+03</pdfrwt>
<totfact> 0.42555344E+04</totfact>
</mgrwt>
</event>
<event>
 4    2  0.3972096E+000  0.2971098E+03  0.7546771E-02  0.1086694E+00
         21   -1    0    0  501  502  0.00000000000E+00  0.00000000000E+00  0.16522125345E+03  0.16522125345E+03  0.00000000000E+00 0. -1.
         21   -1    0    0  502  503 -0.00000000000E+00 -0.00000000000E+00 -0.69420651096E+03  0.69420651096E+03  0.00000000000E+00 0.  1.
          6    1    1    2  501    0 -0.24091570517E+03 -0.17460065573E+02 -0.58241299278E+02  0.30276439656E+03  0.17300000000E+03 0. -1.
         -6    1    1    2    0  503  0.24091570517E+03  0.17460065573E+02 -0.47074395823E+03  0.55666336784E+03  0.17300000000E+03 0.  1.
<mgrwt>
<rscale>  2 0.29710980E+03</rscale>
<asrwt>0</asrwt>
<pdfrwt beam="1">  1       21 0.25418654E-01 0.29710980E+03</pdfrwt>
<pdfrwt beam="2">  1       21 0.10680100E+00 0.29710980E+03</pdfrwt>
<totfact> 0.96794707E+03</totfact>
</mgrwt>
</event>
<event>
 4    2  0.3972096E+000  0.2400550E+03  0.7546771E-02  0.1119756E+00
         21   -1    0    0  503  502  0.00000000000E+00  0.00000000000E+00  0.14693223036E+03  0.14693223036E+03  0.00000000000E+00 0. -1.
         21   -1    0    0  501  503 -0.00000000000E+00 -0.00000000000E+00 -0.10406981567E+04  0.10406981567E+04  0.00000000000E+00 0.  1.
          6    1    1    2  501    0 -0.46525001855E+02  0.15978997912E+03 -0.91563612960E+03  0.94658118250E+03  0.17300000000E+03 0.  1.
         -6    1    1    2    0  502  0.46525001855E+02 -0.15978997912E+03  0.21870203264E+02  0.24104920455E+03  0.17300000000E+03 0. -1.
<mgrwt>
<rscale>  2 0.24005502E+03</rscale>
<asrwt>0</asrwt>
<pdfrwt beam="1">  1       21 0.22604960E-01 0.24005502E+03</pdfrwt>
<pdfrwt beam="2">  1       21 0.16010740E+00 0.24005502E+03</pdfrwt>
<totfact> 0.44359928E+03</totfact>
</mgrwt>
</event>
<event>
 4    2  0.3972096E+000  0.2020160E+03  0.7546771E-02  0.1148049E+00
         21   -1    0    0  501  502  0.00000000000E+00  0.00000000000E+00  0.12732751708E+03  0.12732751708E+03  0.00000000000E+00 0. -1.
         21   -1    0    0  502  503 -0.00000000000E+00 -0.00000000000E+00 -0.94753427359E+03  0.94753427359E+03  0.00000000000E+00 0. -1.
          6    1    1    2  501    0  0.44140055606E+02 -0.94515091249E+02  0.27081796106E+02  0.20382313574E+03  0.17300000000E+03 0. -1.
         -6    1    1    2    0  503 -0.44140055606E+02  0.94515091249E+02 -0.84728855262E+03  0.87103865493E+03  0.17300000000E+03 0. -1.
<mgrwt>
<rscale>  2 0.20201596E+03</rscale>
<asrwt>0</asrwt>
<pdfrwt beam="1">  1       21 0.19588849E-01 0.20201596E+03</pdfrwt>
<pdfrwt beam="2">  1       21 0.14577451E+00 0.20201596E+03</pdfrwt>
<totfact> 0.76738535E+03</totfact>
</mgrwt>
</event>
<event>
 4    2  0.3972096E+000  0.2068260E+03  0.7546771E-02  0.1144104E+00
         21   -1    0    0  503  502  0.00000000000E+00  0.00000000000E+00  0.32708969989E+02  0.32708969989E+02  0.00000000000E+00 0.  1.
         21   -1    0    0  501  503 -0.00000000000E+00 -0.00000000000E+00 -0.21825626604E+04  0.21825626604E+04  0.00000000000E+00 0. -1.
          6    1    1    2  501    0 -0.18555418741E+02 -0.11181992356E+03 -0.17761514883E+04  0.17881529880E+04  0.17300000000E+03 0. -1.
         -6    1    1    2    0  502  0.18555418741E+02  0.11181992356E+03 -0.37370220211E+03  0.42711864246E+03  0.17300000000E+03 0.  1.
<mgrwt>
<rscale>  2 0.20682601E+03</rscale>
<asrwt>0</asrwt>
<pdfrwt beam="1">  1       21 0.50321487E-02 0.20682601E+03</pdfrwt>
<pdfrwt beam="2">  1       21 0.33577891E+00 0.20682601E+03</pdfrwt>
<totfact> 0.55446024E+03</totfact>
</mgrwt>
</event>
<event>
 4    2  0.3972096E+000  0.1995788E+03  0.7546771E-02  0.1150095E+00
         21   -1    0    0  503  502  0.00000000000E+00  0.00000000000E+00  0.40296323057E+03  0.40296323057E+03  0.00000000000E+00 0. -1.
         21   -1    0    0  501  503 -0.00000000000E+00 -0.00000000000E+00 -0.14829698087E+03  0.14829698087E+03  0.00000000000E+00 0. -1.
          6    1    1    2  501    0  0.20194662204E+02 -0.97441709696E+02 -0.31830385694E+02  0.20210117423E+03  0.17300000000E+03 0. -1.
         -6    1    1    2    0  502 -0.20194662204E+02  0.97441709696E+02  0.28649663540E+03  0.34915903721E+03  0.17300000000E+03 0. -1.
<mgrwt>
<rscale>  2 0.19957883E+03</rscale>
<asrwt>0</asrwt>
<pdfrwt beam="1">  1       21 0.61994343E-01 0.19957883E+03</pdfrwt>
<pdfrwt beam="2">  1       21 0.22814920E-01 0.19957883E+03</pdfrwt>
<totfact> 0.43370461E+04</totfact>
</mgrwt>
</event>
<event>
 4    2  0.3972096E+000  0.2334157E+03  0.7546771E-02  0.1124259E+00
         21   -1    0    0  503  502  0.00000000000E+00  0.00000000000E+00  0.15228455014E+03  0.15228455014E+03  0.00000000000E+00 0.  1.
         21   -1    0    0  501  503 -0.00000000000E+00 -0.00000000000E+00 -0.35946282895E+03  0.35946282895E+03  0.00000000000E+00 0.  1.
          6    1    1    2  501    0 -0.11645488884E+03  0.10484334668E+03 -0.86030771779E+02  0.24876527525E+03  0.17300000000E+03 0.  1.
         -6    1    1    2    0  502  0.11645488884E+03 -0.10484334668E+03 -0.12114750703E+03  0.26298210383E+03  0.17300000000E+03 0.  1.
<mgrwt>
<rscale>  2 0.23341566E+03</rscale>
<asrwt>0</asrwt>
<pdfrwt beam="1">  1       21 0.23428392E-01 0.23341566E+03</pdfrwt>
<pdfrwt beam="2">  1       21 0.55301974E-01 0.23341566E+03</pdfrwt>
<totfact> 0.51864074E+04</totfact>
</mgrwt>
</event>
<event>
 4    2  0.3972096E+000  0.2089668E+03  0.7546771E-02  0.1142387E+00
         21   -1    0    0  503  502  0.00000000000E+00  0.00000000000E+00  0.49476602492E+03  0.49476602492E+03  0.00000000000E+00 0. -1.
         21   -1    0    0  501  503 -0.00000000000E+00 -0.00000000000E+00 -0.17087991478E+03  0.17087991478E+03  0.00000000000E+00 0. -1.
          6    1    1    2  501    0 -0.86430452375E+02 -0.79169980529E+02 -0.69484543707E+02  0.22021628171E+03  0.17300000000E+03 0. -1.
         -6    1    1    2    0  502  0.86430452375E+02  0.79169980529E+02  0.39337065384E+03  0.44542965799E+03  0.17300000000E+03 0. -1.
<mgrwt>
<rscale>  2 0.20896677E+03</rscale>
<asrwt>0</asrwt>
<pdfrwt beam="1">  1       21 0.76117849E-01 0.20896677E+03</pdfrwt>
<pdfrwt beam="2">  1       21 0.26289218E-01 0.20896677E+03</pdfrwt>
<totfact> 0.20955809E+04</totfact>
</mgrwt>
</event>
<event>
 4    2  0.3972096E+000  0.1819320E+03  0.7546771E-02  0.1165946E+00
         21   -1    0    0  501  502  0.00000000000E+00  0.00000000000E+00  0.24295966947E+03  0.24295966947E+03  0.00000000000E+00 0.  1.
         21   -1    0    0  502  503 -0.00000000000E+00 -0.00000000000E+00 -0.14933747795E+03  0.14933747795E+03  0.00000000000E+00 0.  1.
          6    1    1    2  501    0  0.54652280809E+02 -0.13542309137E+02  0.10491441922E+03  0.21001500254E+03  0.17300000000E+03 0.  1.
         -6    1    1    2    0  503 -0.54652280809E+02  0.13542309137E+02 -0.11292227690E+02  0.18228214488E+03  0.17300000000E+03 0.  1.
<mgrwt>
<rscale>  2 0.18193204E+03</rscale>
<asrwt>0</asrwt>
<pdfrwt beam="1">  1       21 0.37378410E-01 0.18193204E+03</pdfrwt>
<pdfrwt beam="2">  1       21 0.22974997E-01 0.18193204E+03</pdfrwt>
<totfact> 0.12322673E+05</totfact>
</mgrwt>
</event>
<event>
 4    2  0.3972096E+000  0.1742174E+03  0.7546771E-02  0.1173520E+00
         21   -1    0    0  503  502  0.00000000000E+00  0.00000000000E+00  0.10288722963E+03  0.10288722963E+03  0.00000000000E+00 0.  1.
         21   -1    0    0  501  503 -0.00000000000E+00 -0.00000000000E+00 -0.75655957843E+03  0.75655957843E+03  0.00000000000E+00 0.  1.
          6    1    1    2  501    0 -0.88982342554E+01 -0.18534860705E+02 -0.66248210353E+03  0.68500675700E+03  0.17300000000E+03 0.  1.
         -6    1    1    2    0  502  0.88982342554E+01  0.18534860705E+02  0.88097547269E+01  0.17444005106E+03  0.17300000000E+03 0.  1.
<mgrwt>
<rscale>  2 0.17421745E+03</rscale>
<asrwt>0</asrwt>
<pdfrwt beam="1">  1       21 0.15828804E-01 0.17421745E+03</pdfrwt>
<pdfrwt beam="2">  1       21 0.11639379E+00 0.17421745E+03</pdfrwt>
<totfact> 0.20484082E+04</totfact>
</mgrwt>
</event>
<event>
 4    2  0.3972096E+000  0.2099855E+03  0.7546771E-02  0.1141578E+00
         21   -1    0    0  501  502  0.00000000000E+00  0.00000000000E+00  0.23083021970E+03  0.23083021970E+03  0.00000000000E+00 0.  1.
         21   -1    0    0  502  503 -0.00000000000E+00 -0.00000000000E+00 -0.19317977244E+03  0.19317977244E+03  0.00000000000E+00 0.  1.
          6    1    1    2  501    0  0.71797333942E+02 -0.94921200771E+02  0.41225989677E+02  0.21399409745E+03  0.17300000000E+03 0.  1.
         -6    1    1    2    0  503 -0.71797333942E+02  0.94921200771E+02 -0.35755424188E+01  0.21001589469E+03  0.17300000000E+03 0.  1.
<mgrwt>
<rscale>  2 0.20998546E+03</rscale>
<asrwt>0</asrwt>
<pdfrwt beam="1">  1       21 0.35512341E-01 0.20998546E+03</pdfrwt>
<pdfrwt beam="2">  1       21 0.29719965E-01 0.20998546E+03</pdfrwt>
<totfact> 0.82368146E+04</totfact>
</mgrwt>
</event>
<event>
 4    2  0.3972096E+000  0.2476397E+03  0.7546771E-02  0.1114806E+00
         21   -1    0    0  501  502  0.00000000000E+00  0.00000000000E+00  0.34228881537E+03  0.34228881537E+03  0.00000000000E+00 0. -1.
         21   -1    0    0  502  503 -0.00000000000E+00 -0.00000000000E+00 -0.54517254076E+03  0.54517254076E+03  0.00000000000E+00 0. -1.
          6    1    1    2  501    0 -0.14234138717E+03 -0.10552428549E+03  0.26213710414E+03  0.36061240508E+03  0.17300000000E+03 0. -1.
         -6    1    1    2    0  503  0.14234138717E+03  0.10552428549E+03 -0.46502082953E+03  0.52684895106E+03  0.17300000000E+03 0. -1.
<mgrwt>
<rscale>  2 0.24763975E+03</rscale>
<asrwt>0</asrwt>
<pdfrwt beam="1">  1       21 0.52659819E-01 0.24763975E+03</pdfrwt>
<pdfrwt beam="2">  1       21 0.83872697E-01 0.24763975E+03</pdfrwt>
<totfact> 0.40564480E+03</totfact>
</mgrwt>
</event>
<event>
 4    2  0.3972096E+000  0.1875384E+03  0.7546771E-02  0.1160700E+00
         21   -1    0    0  503  502  0.00000000000E+00  0.00000000000E+00  0.72587863430E+03  0.72587863430E+03  0.00000000000E+00 0.  1.
         21   -1    0    0  501  503 -0.00000000000E+00 -0.00000000000E+00 -0.16356557646E+03  0.16356557646E+03  0.00000000000E+00 0.  1.
          6    1    1    2  501    0  0.16297781680E+01  0.72380962385E+02 -0.91926099066E+02  0.20885657180E+03  0.17300000000E+03 0.  1.
         -6    1    1    2    0  502 -0.16297781680E+01 -0.72380962385E+02  0.65423915691E+03  0.68058763897E+03  0.17300000000E+03 0.  1.
<mgrwt>
<rscale>  2 0.18753842E+03</rscale>
<asrwt>0</asrwt>
<pdfrwt beam="1">  1       21 0.11167363E+00 0.18753842E+03</pdfrwt>
<pdfrwt beam="2">  1       21 0.25163935E-01 0.18753842E+03</pdfrwt>
<totfact> 0.94535515E+03</totfact>
</mgrwt>
</event>
<event>
 4    2  0.3972096E+000  0.1835300E+03  0.7546771E-02  0.1164430E+00
         21   -1    0    0  503  502  0.00000000000E+00  0.00000000000E+00  0.10236633278E+03  0.10236633278E+03  0.00000000000E+00 0. -1.
         21   -1    0    0  501  503 -0.00000000000E+00 -0.00000000000E+00 -0.13602125026E+04  0.13602125026E+04  0.00000000000E+00 0. -1.
          6    1    1    2  501    0 -0.39484968742E+02 -0.46852980980E+02 -0.12656456476E+04  0.12788831729E+04  0.17300000000E+03 0. -1.
         -6    1    1    2    0  502  0.39484968742E+02  0.46852980980E+02  0.77994777369E+01  0.18369566254E+03  0.17300000000E+03 0. -1.
<mgrwt>
<rscale>  2 0.18353001E+03</rscale>
<asrwt>0</asrwt>
<pdfrwt beam="1">  1       21 0.15748667E-01 0.18353001E+03</pdfrwt>
<pdfrwt beam="2">  1       21 0.20926346E+00 0.18353001E+03</pdfrwt>
<totfact> 0.42474709E+03</totfact>
</mgrwt>
</event>
<event>
 4    2  0.3972096E+000  0.2163258E+03  0.7546771E-02  0.1136652E+00
         21   -1    0    0  501  502  0.00000000000E+00  0.00000000000E+00  0.12706382149E+03  0.12706382149E+03  0.00000000000E+00 0. -1.
         21   -1    0    0  502  503 -0.00000000000E+00 -0.00000000000E+00 -0.37380307599E+03  0.37380307599E+03  0.00000000000E+00 0.  1.
          6    1    1    2  501    0  0.12983895817E+03  0.31168513746E+01 -0.92967639313E+02  0.23545668770E+03  0.17300000000E+03 0. -1.
         -6    1    1    2    0  503 -0.12983895817E+03 -0.31168513746E+01 -0.15377161519E+03  0.26541020979E+03  0.17300000000E+03 0. -1.
<mgrwt>
<rscale>  2 0.21632584E+03</rscale>
<asrwt>0</asrwt>
<pdfrwt beam="1">  1       21 0.19548280E-01 0.21632584E+03</pdfrwt>
<pdfrwt beam="2">  1       21 0.57508165E-01 0.21632584E+03</pdfrwt>
<totfact> 0.67632246E+04</totfact>
</mgrwt>
</event>
<event>
 4    2  0.3972096E+000  0.1953511E+03  0.7546771E-02  0.1153722E+00
         21   -1    0    0  501  502  0.00000000000E+00  0.00000000000E+00  0.24457404493E+03  0.24457404493E+03  0.00000000000E+00 0.  1.
         21   -1    0    0  502  503 -0.00000000000E+00 -0.00000000000E+00 -0.16926718840E+03  0.16926718840E+03  0.00000000000E+00 0. -1.
          6    1    1    2  501    0 -0.87913203797E+02  0.22456930221E+02  0.95507994126E+02  0.21744843540E+03  0.17300000000E+03 0. -1.
         -6    1    1    2    0  503  0.87913203797E+02 -0.22456930221E+02 -0.20201137599E+02  0.19639279793E+03  0.17300000000E+03 0.  1.
<mgrwt>
<rscale>  2 0.19535108E+03</rscale>
<asrwt>0</asrwt>
<pdfrwt beam="1">  1       21 0.37626776E-01 0.19535108E+03</pdfrwt>
<pdfrwt beam="2">  1       21 0.26041106E-01 0.19535108E+03</pdfrwt>
<totfact> 0.95331577E+04</totfact>
</mgrwt>
</event>
<event>
 4    2  0.3972096E+000  0.2977881E+03  0.7546771E-02  0.1086352E+00
         21   -1    0    0  503  502  0.00000000000E+00  0.00000000000E+00  0.66174296161E+02  0.66174296161E+02  0.00000000000E+00 0. -1.
         21   -1    0    0  501  503 -0.00000000000E+00 -0.00000000000E+00 -0.14927275731E+04  0.14927275731E+04  0.00000000000E+00 0. -1.
          6    1    1    2  501    0 -0.22576655259E+03  0.88194065691E+02 -0.96254523011E+03  0.10075569708E+04  0.17300000000E+03 0. -1.
         -6    1    1    2    0  502  0.22576655259E+03 -0.88194065691E+02 -0.46400804684E+03  0.55134489843E+03  0.17300000000E+03 0. -1.
<mgrwt>
<rscale>  2 0.29778806E+03</rscale>
<asrwt>0</asrwt>
<pdfrwt beam="1">  1       21 0.10180661E-01 0.29778806E+03</pdfrwt>
<pdfrwt beam="2">  1       21 0.22965040E+00 0.29778806E+03</pdfrwt>
<totfact> 0.63677802E+03</totfact>
</mgrwt>
</event>
<event>
 4    2  0.3972096E+000  0.2457023E+03  0.7546771E-02  0.1116051E+00
         21   -1    0    0  503  502  0.00000000000E+00  0.00000000000E+00  0.31212167959E+03  0.31212167959E+03  0.00000000000E+00 0.  1.
         21   -1    0    0  501  503 -0.00000000000E+00 -0.00000000000E+00 -0.21610683445E+03  0.21610683445E+03  0.00000000000E+00 0. -1.
          6    1    1    2  501    0 -0.14061078156E+03  0.10329199195E+03  0.13358768380E+03  0.27966997829E+03  0.17300000000E+03 0. -1.
         -6    1    1    2    0  502  0.14061078156E+03 -0.10329199195E+03 -0.37572838662E+02  0.24855853576E+03  0.17300000000E+03 0.  1.
<mgrwt>
<rscale>  2 0.24570231E+03</rscale>
<asrwt>0</asrwt>
<pdfrwt beam="1">  1       21 0.48018720E-01 0.24570231E+03</pdfrwt>
<pdfrwt beam="2">  1       21 0.33247205E-01 0.24570231E+03</pdfrwt>
<totfact> 0.35183842E+04</totfact>
</mgrwt>
</event>
<event>
 4    2  0.3972096E+000  0.2065392E+03  0.7546771E-02  0.1144336E+00
         21   -1    0    0  501  502  0.00000000000E+00  0.00000000000E+00  0.35437789145E+03  0.35437789145E+03  0.00000000000E+00 0.  1.
         21   -1    0    0  502  503 -0.00000000000E+00 -0.00000000000E+00 -0.16015223522E+03  0.16015223522E+03  0.00000000000E+00 0.  1.
          6    1    1    2  501    0 -0.40305018840E+02 -0.10537991378E+03  0.22532486577E+03  0.30566274864E+03  0.17300000000E+03 0. -1.
         -6    1    1    2    0  503  0.40305018840E+02  0.10537991378E+03 -0.31099209546E+02  0.20886737803E+03  0.17300000000E+03 0. -1.
<mgrwt>
<rscale>  2 0.20653915E+03</rscale>
<asrwt>0</asrwt>
<pdfrwt beam="1">  1       21 0.54519675E-01 0.20653915E+03</pdfrwt>
<pdfrwt beam="2">  1       21 0.24638806E-01 0.20653915E+03</pdfrwt>
<totfact> 0.49149277E+04</totfact>
</mgrwt>
</event>
<event>
 4    2  0.3972096E+000  0.2296754E+03  0.7546771E-02  0.1126868E+00
         21   -1    0    0  503  502  0.00000000000E+00  0.00000000000E+00  0.11361025367E+03  0.11361025367E+03  0.00000000000E+00 0.  1.
         21   -1    0    0  501  503 -0.00000000000E+00 -0.00000000000E+00 -0.80952929398E+03  0.80952929398E+03  0.00000000000E+00 0. -1.
          6    1    1    2  501    0  0.83467633384E+02  0.12591644760E+03 -0.64937550286E+03  0.68879557295E+03  0.17300000000E+03 0. -1.
         -6    1    1    2    0  502 -0.83467633384E+02 -0.12591644760E+03 -0.46543537450E+02  0.23434397470E+03  0.17300000000E+03 0.  1.
<mgrwt>
<rscale>  2 0.22967542E+03</rscale>
<asrwt>0</asrwt>
<pdfrwt beam="1">  1       21 0.17478501E-01 0.22967542E+03</pdfrwt>
<pdfrwt beam="2">  1       21 0.12454296E+00 0.22967542E+03</pdfrwt>
<totfact> 0.13930184E+04</totfact>
</mgrwt>
</event>
<event>
 4    2  0.3972096E+000  0.2152697E+03  0.7546771E-02  0.1137460E+00
         21   -1    0    0  501  502  0.00000000000E+00  0.00000000000E+00  0.24113613922E+03  0.24113613922E+03  0.00000000000E+00 0.  1.
         21   -1    0    0  502  503 -0.00000000000E+00 -0.00000000000E+00 -0.19232379899E+03  0.19232379899E+03  0.00000000000E+00 0.  1.
          6    1    1    2  501    0  0.80846979423E+02 -0.99377115781E+02  0.18437509137E+02  0.21605783246E+03  0.17300000000E+03 0.  1.
         -6    1    1    2    0  503 -0.80846979423E+02  0.99377115781E+02  0.30374831094E+02  0.21740210576E+03  0.17300000000E+03 0.  1.
<mgrwt>
<rscale>  2 0.21526970E+03</rscale>
<asrwt>0</asrwt>
<pdfrwt beam="1">  1       21 0.37097868E-01 0.21526970E+03</pdfrwt>
<pdfrwt beam="2">  1       21 0.29588277E-01 0.21526970E+03</pdfrwt>
<totfact> 0.75974383E+04</totfact>
</mgrwt>
</event>
<event>
 4    2  0.3972096E+000  0.1837095E+03  0.7546771E-02  0.1164260E+00
         21   -1    0    0  501  502  0.00000000000E+00  0.00000000000E+00  0.41237431282E+03  0.41237431282E+03  0.00000000000E+00 0.  1.
         21   -1    0    0  502  503 -0.00000000000E+00 -0.00000000000E+00 -0.11201191693E+03  0.11201191693E+03  0.00000000000E+00 0.  1.
          6    1    1    2  501    0 -0.42645255924E+02  0.44738909753E+02  0.14104944078E+02  0.18425020311E+03  0.17300000000E+03 0.  1.
         -6    1    1    2    0  503  0.42645255924E+02 -0.44738909753E+02  0.28625745182E+03  0.34013602664E+03  0.17300000000E+03 0.  1.
<mgrwt>
<rscale>  2 0.18370952E+03</rscale>
<asrwt>0</asrwt>
<pdfrwt beam="1">  1       21 0.63442201E-01 0.18370952E+03</pdfrwt>
<pdfrwt beam="2">  1       21 0.17232603E-01 0.18370952E+03</pdfrwt>
<totfact> 0.70169771E+04</totfact>
</mgrwt>
</event>
<event>
 4    2  0.3972096E+000  0.2314639E+03  0.7546771E-02  0.1125614E+00
         21   -1    0    0  503  502  0.00000000000E+00  0.00000000000E+00  0.14920452203E+04  0.14920452203E+04  0.00000000000E+00 0.  1.
         21   -1    0    0  501  503 -0.00000000000E+00 -0.00000000000E+00 -0.92256271168E+02  0.92256271168E+02  0.00000000000E+00 0. -1.
          6    1    1    2  501    0  0.10200985841E+03  0.11506753346E+03  0.80806625469E+02  0.24516373955E+03  0.17300000000E+03 0. -1.
         -6    1    1    2    0  502 -0.10200985841E+03 -0.11506753346E+03  0.13189823237E+04  0.13391377519E+04  0.17300000000E+03 0.  1.
<mgrwt>
<rscale>  2 0.23146392E+03</rscale>
<asrwt>0</asrwt>
<pdfrwt beam="1">  1       21 0.22954540E+00 0.23146392E+03</pdfrwt>
<pdfrwt beam="2">  1       21 0.14193274E-01 0.23146392E+03</pdfrwt>
<totfact> 0.36779880E+03</totfact>
</mgrwt>
</event>
<event>
 4    2  0.3972096E+000  0.1858726E+03  0.7546771E-02  0.1162238E+00
         21   -1    0    0  501  502  0.00000000000E+00  0.00000000000E+00  0.37466924389E+03  0.37466924389E+03  0.00000000000E+00 0. -1.
         21   -1    0    0  502  503 -0.00000000000E+00 -0.00000000000E+00 -0.10588166630E+03  0.10588166630E+03  0.00000000000E+00 0. -1.
          6    1    1    2  501    0 -0.25332011324E+02 -0.63070605150E+02  0.22073028968E+03  0.28856623644E+03  0.17300000000E+03 0. -1.
         -6    1    1    2    0  503  0.25332011324E+02  0.63070605150E+02  0.48057287915E+02  0.19198467375E+03  0.17300000000E+03 0. -1.
<mgrwt>
<rscale>  2 0.18587257E+03</rscale>
<asrwt>0</asrwt>
<pdfrwt beam="1">  1       21 0.57641421E-01 0.18587257E+03</pdfrwt>
<pdfrwt beam="2">  1       21 0.16289487E-01 0.18587257E+03</pdfrwt>
<totfact> 0.95516030E+04</totfact>
</mgrwt>
</event>
<event>
 4    2  0.3972096E+000  0.2179012E+03  0.7546771E-02  0.1135458E+00
         21   -1    0    0  501  502  0.00000000000E+00  0.00000000000E+00  0.14653040133E+04  0.14653040133E+04  0.00000000000E+00 0. -1.
         21   -1    0    0  502  503 -0.00000000000E+00 -0.00000000000E+00 -0.48215233706E+02  0.48215233706E+02  0.00000000000E+00 0. -1.
          6    1    1    2  501    0  0.13247977300E+03 -0.10156420751E+01  0.11419116442E+04  0.11625158601E+04  0.17300000000E+03 0. -1.
         -6    1    1    2    0  503 -0.13247977300E+03  0.10156420751E+01  0.27517713535E+03  0.35100338688E+03  0.17300000000E+03 0. -1.
<mgrwt>
<rscale>  2 0.21790117E+03</rscale>
<asrwt>0</asrwt>
<pdfrwt beam="1">  1       21 0.22543135E+00 0.21790117E+03</pdfrwt>
<pdfrwt beam="2">  1       21 0.74177294E-02 0.21790117E+03</pdfrwt>
<totfact> 0.12486317E+04</totfact>
</mgrwt>
</event>
<event>
 4    2  0.3972096E+000  0.1757770E+03  0.7546771E-02  0.1171954E+00
         21   -1    0    0  501  502  0.00000000000E+00  0.00000000000E+00  0.10641934152E+03  0.10641934152E+03  0.00000000000E+00 0. -1.
         21   -1    0    0  502  503 -0.00000000000E+00 -0.00000000000E+00 -0.76814671485E+03  0.76814671485E+03  0.00000000000E+00 0. -1.
          6    1    1    2  501    0 -0.19670640562E+02 -0.24117006255E+02  0.14016011008E+02  0.17633494451E+03  0.17300000000E+03 0. -1.
         -6    1    1    2    0  503  0.19670640562E+02  0.24117006255E+02 -0.67574338434E+03  0.69823111186E+03  0.17300000000E+03 0. -1.
<mgrwt>
<rscale>  2 0.17577703E+03</rscale>
<asrwt>0</asrwt>
<pdfrwt beam="1">  1       21 0.16372207E-01 0.17577703E+03</pdfrwt>
<pdfrwt beam="2">  1       21 0.11817641E+00 0.17577703E+03</pdfrwt>
<totfact> 0.18538608E+04</totfact>
</mgrwt>
</event>
<event>
 4    2  0.3972096E+000  0.1898167E+03  0.7546771E-02  0.1158627E+00
         21   -1    0    0  501  502  0.00000000000E+00  0.00000000000E+00  0.57586658797E+03  0.57586658797E+03  0.00000000000E+00 0.  1.
         21   -1    0    0  502  503 -0.00000000000E+00 -0.00000000000E+00 -0.12787631442E+03  0.12787631442E+03  0.00000000000E+00 0.  1.
          6    1    1    2  501    0  0.57917630124E+02 -0.52411218516E+02  0.47545907573E+03  0.51194894315E+03  0.17300000000E+03 0.  1.
         -6    1    1    2    0  503 -0.57917630124E+02  0.52411218516E+02 -0.27468802172E+02  0.19179395923E+03  0.17300000000E+03 0.  1.
<mgrwt>
<rscale>  2 0.18981672E+03</rscale>
<asrwt>0</asrwt>
<pdfrwt beam="1">  1       21 0.88594858E-01 0.18981672E+03</pdfrwt>
<pdfrwt beam="2">  1       21 0.19673279E-01 0.18981672E+03</pdfrwt>
<totfact> 0.25976430E+04</totfact>
</mgrwt>
</event>
<event>
 4    2  0.3972096E+000  0.1921304E+03  0.7546771E-02  0.1156554E+00
         21   -1    0    0  503  502  0.00000000000E+00  0.00000000000E+00  0.89131702427E+02  0.89131702427E+02  0.00000000000E+00 0. -1.
         21   -1    0    0  501  503 -0.00000000000E+00 -0.00000000000E+00 -0.56730837213E+03  0.56730837213E+03  0.00000000000E+00 0.  1.
          6    1    1    2  501    0 -0.47883753782E+02  0.68500003243E+02 -0.40962687002E+03  0.45244698801E+03  0.17300000000E+03 0.  1.
         -6    1    1    2    0  502  0.47883753782E+02 -0.68500003243E+02 -0.68549799682E+02  0.20399308654E+03  0.17300000000E+03 0. -1.
<mgrwt>
<rscale>  2 0.19213044E+03</rscale>
<asrwt>0</asrwt>
<pdfrwt beam="1">  1       21 0.13712570E-01 0.19213044E+03</pdfrwt>
<pdfrwt beam="2">  1       21 0.87278212E-01 0.19213044E+03</pdfrwt>
<totfact> 0.52076731E+04</totfact>
</mgrwt>
</event>
<event>
 4    2  0.3972096E+000  0.2230207E+03  0.7546771E-02  0.1131651E+00
         21   -1    0    0  503  502  0.00000000000E+00  0.00000000000E+00  0.15924922065E+03  0.15924922065E+03  0.00000000000E+00 0.  1.
         21   -1    0    0  501  503 -0.00000000000E+00 -0.00000000000E+00 -0.31676532186E+03  0.31676532186E+03  0.00000000000E+00 0. -1.
          6    1    1    2  501    0  0.12299110033E+03 -0.68428369012E+02 -0.10692250825E+03  0.24732706123E+03  0.17300000000E+03 0.  1.
         -6    1    1    2    0  502 -0.12299110033E+03  0.68428369012E+02 -0.50593592952E+02  0.22868748128E+03  0.17300000000E+03 0. -1.
<mgrwt>
<rscale>  2 0.22302074E+03</rscale>
<asrwt>0</asrwt>
<pdfrwt beam="1">  1       21 0.24499880E-01 0.22302074E+03</pdfrwt>
<pdfrwt beam="2">  1       21 0.48733127E-01 0.22302074E+03</pdfrwt>
<totfact> 0.62423548E+04</totfact>
</mgrwt>
</event>
<event>
 4    2  0.3972096E+000  0.2250978E+03  0.7546771E-02  0.1130139E+00
         21   -1    0    0  503  502  0.00000000000E+00  0.00000000000E+00  0.17059278841E+03  0.17059278841E+03  0.00000000000E+00 0. -1.
         21   -1    0    0  501  503 -0.00000000000E+00 -0.00000000000E+00 -0.34692675888E+03  0.34692675888E+03  0.00000000000E+00 0. -1.
          6    1    1    2  501    0  0.39411450297E+02 -0.13851624660E+03 -0.18631221648E+03  0.29220071013E+03  0.17300000000E+03 0. -1.
         -6    1    1    2    0  502 -0.39411450297E+02  0.13851624660E+03  0.99782460126E+01  0.22531883717E+03  0.17300000000E+03 0. -1.
<mgrwt>
<rscale>  2 0.22509779E+03</rscale>
<asrwt>0</asrwt>
<pdfrwt beam="1">  1       21 0.26245044E-01 0.22509779E+03</pdfrwt>
<pdfrwt beam="2">  1       21 0.53373347E-01 0.22509779E+03</pdfrwt>
<totfact> 0.45153500E+04</totfact>
</mgrwt>
</event>
<event>
 4    2  0.3972096E+000  0.2770023E+03  0.7546771E-02  0.1097338E+00
         21   -1    0    0  503  502  0.00000000000E+00  0.00000000000E+00  0.18456277615E+03  0.18456277615E+03  0.00000000000E+00 0.  1.
         21   -1    0    0  501  503 -0.00000000000E+00 -0.00000000000E+00 -0.43109147318E+03  0.43109147318E+03  0.00000000000E+00 0.  1.
          6    1    1    2  501    0 -0.80337866710E+02  0.20086583052E+03 -0.18135249657E+03  0.33108757559E+03  0.17300000000E+03 0.  1.
         -6    1    1    2    0  502  0.80337866710E+02 -0.20086583052E+03 -0.65176200462E+02  0.28456667374E+03  0.17300000000E+03 0.  1.
<mgrwt>
<rscale>  2 0.27700226E+03</rscale>
<asrwt>0</asrwt>
<pdfrwt beam="1">  1       21 0.28394274E-01 0.27700226E+03</pdfrwt>
<pdfrwt beam="2">  1       21 0.66321764E-01 0.27700226E+03</pdfrwt>
<totfact> 0.23711808E+04</totfact>
</mgrwt>
</event>
<event>
 4    2  0.3972096E+000  0.1882668E+03  0.7546771E-02  0.1160034E+00
         21   -1    0    0  501  502  0.00000000000E+00  0.00000000000E+00  0.10660205106E+04  0.10660205106E+04  0.00000000000E+00 0. -1.
         21   -1    0    0  502  503 -0.00000000000E+00 -0.00000000000E+00 -0.89623489685E+02  0.89623489685E+02  0.00000000000E+00 0. -1.
          6    1    1    2  501    0  0.46829325505E+02  0.57640436196E+02  0.94647060572E+03  0.96501347820E+03  0.17300000000E+03 0. -1.
         -6    1    1    2    0  503 -0.46829325505E+02 -0.57640436196E+02  0.29926415156E+02  0.19063052205E+03  0.17300000000E+03 0. -1.
<mgrwt>
<rscale>  2 0.18826685E+03</rscale>
<asrwt>0</asrwt>
<pdfrwt beam="1">  1       21 0.16400315E+00 0.18826685E+03</pdfrwt>
<pdfrwt beam="2">  1       21 0.13788230E-01 0.18826685E+03</pdfrwt>
<totfact> 0.10796222E+04</totfact>
</mgrwt>
</event>
<event>
 4    2  0.3972096E+000  0.2194030E+03  0.7546771E-02  0.1134329E+00
         21   -1    0    0  503  502  0.00000000000E+00  0.00000000000E+00  0.14565256143E+03  0.14565256143E+03  0.00000000000E+00 0. -1.
         21   -1    0    0  501  503 -0.00000000000E+00 -0.00000000000E+00 -0.55947477836E+03  0.55947477836E+03  0.00000000000E+00 0.  1.
          6    1    1    2  501    0  0.22906457174E+02 -0.13298103362E+03 -0.43246194855E+03  0.48493401410E+03  0.17300000000E+03 0.  1.
         -6    1    1    2    0  502 -0.22906457174E+02  0.13298103362E+03  0.18639731621E+02  0.22019332569E+03  0.17300000000E+03 0. -1.
<mgrwt>
<rscale>  2 0.21940297E+03</rscale>
<asrwt>0</asrwt>
<pdfrwt beam="1">  1       21 0.22408086E-01 0.21940297E+03</pdfrwt>
<pdfrwt beam="2">  1       21 0.86073043E-01 0.21940297E+03</pdfrwt>
<totfact> 0.21370949E+04</totfact>
</mgrwt>
</event>
<event>
 4    2  0.3972096E+000  0.2414100E+03  0.7546771E-02  0.1118857E+00
         21   -1    0    0  501  502  0.00000000000E+00  0.00000000000E+00  0.78765989273E+02  0.78765989273E+02  0.00000000000E+00 0.  1.
         21   -1    0    0  502  503 -0.00000000000E+00 -0.00000000000E+00 -0.78068365454E+03  0.78068365454E+03  0.00000000000E+00 0. -1.
          6    1    1    2  501    0 -0.15748024686E+02  0.16763589253E+03 -0.25273724138E+03  0.34950666077E+03  0.17300000000E+03 0.  1.
         -6    1    1    2    0  503  0.15748024686E+02 -0.16763589253E+03 -0.44918042389E+03  0.50994298304E+03  0.17300000000E+03 0. -1.
<mgrwt>
<rscale>  2 0.24141001E+03</rscale>
<asrwt>0</asrwt>
<pdfrwt beam="1">  1       21 0.12117845E-01 0.24141001E+03</pdfrwt>
<pdfrwt beam="2">  1       21 0.12010518E+00 0.24141001E+03</pdfrwt>
<totfact> 0.29584313E+04</totfact>
</mgrwt>
</event>
<event>
 4    2  0.3972096E+000  0.1870367E+03  0.7546771E-02  0.1161161E+00
         21   -1    0    0  503  502  0.00000000000E+00  0.00000000000E+00  0.21832281140E+03  0.21832281140E+03  0.00000000000E+00 0.  1.
         21   -1    0    0  501  503 -0.00000000000E+00 -0.00000000000E+00 -0.18905892833E+03  0.18905892833E+03  0.00000000000E+00 0. -1.
          6    1    1    2  501    0 -0.67353692244E+02 -0.22742597524E+02 -0.64902786558E+02  0.19797756768E+03  0.17300000000E+03 0. -1.
         -6    1    1    2    0  502  0.67353692244E+02  0.22742597524E+02  0.94166669626E+02  0.20940417204E+03  0.17300000000E+03 0.  1.
<mgrwt>
<rscale>  2 0.18703675E+03</rscale>
<asrwt>0</asrwt>
<pdfrwt beam="1">  1       21 0.33588125E-01 0.18703675E+03</pdfrwt>
<pdfrwt beam="2">  1       21 0.29085989E-01 0.18703675E+03</pdfrwt>
<totfact> 0.96831348E+04</totfact>
</mgrwt>
</event>
<event>
 4    2  0.3972096E+000  0.1962846E+03  0.7546771E-02  0.1152912E+00
         21   -1    0    0  503  502  0.00000000000E+00  0.00000000000E+00  0.16006747291E+03  0.16006747291E+03  0.00000000000E+00 0.  1.
         21   -1    0    0  501  503 -0.00000000000E+00 -0.00000000000E+00 -0.24218208743E+03  0.24218208743E+03  0.00000000000E+00 0. -1.
          6    1    1    2  501    0 -0.68749525368E+02  0.62226497634E+02 -0.56811128302E+02  0.20434074128E+03  0.17300000000E+03 0. -1.
         -6    1    1    2    0  502  0.68749525368E+02 -0.62226497634E+02 -0.25303486220E+02  0.19790881906E+03  0.17300000000E+03 0. -1.
<mgrwt>
<rscale>  2 0.19628457E+03</rscale>
<asrwt>0</asrwt>
<pdfrwt beam="1">  1       21 0.24625765E-01 0.19628457E+03</pdfrwt>
<pdfrwt beam="2">  1       21 0.37258782E-01 0.19628457E+03</pdfrwt>
<totfact> 0.10815095E+05</totfact>
</mgrwt>
</event>
<event>
 4    2  0.3972096E+000  0.2122709E+03  0.7546771E-02  0.1139780E+00
         21   -1    0    0  503  502  0.00000000000E+00  0.00000000000E+00  0.26759156628E+03  0.26759156628E+03  0.00000000000E+00 0. -1.
         21   -1    0    0  501  503 -0.00000000000E+00 -0.00000000000E+00 -0.18469189244E+03  0.18469189244E+03  0.00000000000E+00 0.  1.
          6    1    1    2  501    0  0.49330661794E+02  0.11267848340E+03 -0.25741777873E+02  0.21382608340E+03  0.17300000000E+03 0. -1.
         -6    1    1    2    0  502 -0.49330661794E+02 -0.11267848340E+03  0.10864145170E+03  0.23845737532E+03  0.17300000000E+03 0. -1.
<mgrwt>
<rscale>  2 0.21227095E+03</rscale>
<asrwt>0</asrwt>
<pdfrwt beam="1">  1       21 0.41167933E-01 0.21227095E+03</pdfrwt>
<pdfrwt beam="2">  1       21 0.28414137E-01 0.21227095E+03</pdfrwt>
<totfact> 0.66707545E+04</totfact>
</mgrwt>
</event>
<event>
 4    2  0.3972096E+000  0.1962613E+03  0.7546771E-02  0.1152932E+00
         21   -1    0    0  501  502  0.00000000000E+00  0.00000000000E+00  0.68511274017E+03  0.68511274017E+03  0.00000000000E+00 0.  1.
         21   -1    0    0  502  503 -0.00000000000E+00 -0.00000000000E+00 -0.92041825955E+02  0.92041825955E+02  0.00000000000E+00 0.  1.
          6    1    1    2  501    0 -0.12854098326E+02 -0.91783769623E+02  0.53894282986E+03  0.57356591780E+03  0.17300000000E+03 0.  1.
         -6    1    1    2    0  503  0.12854098326E+02  0.91783769623E+02  0.54128084360E+02  0.20358864832E+03  0.17300000000E+03 0.  1.
<mgrwt>
<rscale>  2 0.19626128E+03</rscale>
<asrwt>0</asrwt>
<pdfrwt beam="1">  1       21 0.10540196E+00 0.19626128E+03</pdfrwt>
<pdfrwt beam="2">  1       21 0.14160281E-01 0.19626128E+03</pdfrwt>
<totfact> 0.31467687E+04</totfact>
</mgrwt>
</event>
<event>
 4    2  0.3972096E+000  0.3825481E+03  0.7546771E-02  0.1049996E+00
         21   -1    0    0  503  502  0.00000000000E+00  0.00000000000E+00  0.78563555437E+03  0.78563555437E+03  0.00000000000E+00 0. -1.
         21   -1    0    0  501  503 -0.00000000000E+00 -0.00000000000E+00 -0.19442706315E+03  0.19442706315E+03  0.00000000000E+00 0.  1.
          6    1    1    2  501    0  0.24650364637E+03 -0.23590245608E+03  0.19525329413E+03  0.42949605974E+03  0.17300000000E+03 0.  1.
         -6    1    1    2    0  502 -0.24650364637E+03  0.23590245608E+03  0.39595519708E+03  0.55056655779E+03  0.17300000000E+03 0. -1.
<mgrwt>
<rscale>  2 0.38254806E+03</rscale>
<asrwt>0</asrwt>
<pdfrwt beam="1">  1       21 0.12086701E+00 0.38254806E+03</pdfrwt>
<pdfrwt beam="2">  1       21 0.29911856E-01 0.38254806E+03</pdfrwt>
<totfact> 0.49904811E+03</totfact>
</mgrwt>
</event>
<event>
 4    2  0.3972096E+000  0.1823033E+03  0.7546771E-02  0.1165592E+00
         21   -1    0    0  501  502  0.00000000000E+00  0.00000000000E+00  0.56032662548E+02  0.56032662548E+02  0.00000000000E+00 0. -1.
         21   -1    0    0  502  503 -0.00000000000E+00 -0.00000000000E+00 -0.59442225117E+03  0.59442225117E+03  0.00000000000E+00 0. -1.
          6    1    1    2  501    0  0.53101742236E+02  0.22038439159E+02 -0.25401351668E+03  0.31266172533E+03  0.17300000000E+03 0. -1.
         -6    1    1    2    0  503 -0.53101742236E+02 -0.22038439159E+02 -0.28437607194E+03  0.33779318839E+03  0.17300000000E+03 0. -1.
<mgrwt>
<rscale>  2 0.18230329E+03</rscale>
<asrwt>0</asrwt>
<pdfrwt beam="1">  1       21 0.86204098E-02 0.18230329E+03</pdfrwt>
<pdfrwt beam="2">  1       21 0.91449575E-01 0.18230329E+03</pdfrwt>
<totfact> 0.10707912E+05</totfact>
</mgrwt>
</event>
<event>
 4    2  0.3972096E+000  0.1750429E+03  0.7546771E-02  0.1172689E+00
         21   -1    0    0  503  502  0.00000000000E+00  0.00000000000E+00  0.35631851692E+03  0.35631851692E+03  0.00000000000E+00 0.  1.
         21   -1    0    0  501  503 -0.00000000000E+00 -0.00000000000E+00 -0.10269991159E+03  0.10269991159E+03  0.00000000000E+00 0.  1.
          6    1    1    2  501    0  0.23026792308E+02  0.13445410596E+02  0.21938468078E+03  0.28065931374E+03  0.17300000000E+03 0.  1.
         -6    1    1    2    0  502 -0.23026792308E+02 -0.13445410596E+02  0.34233924543E+02  0.17835911476E+03  0.17300000000E+03 0.  1.
<mgrwt>
<rscale>  2 0.17504289E+03</rscale>
<asrwt>0</asrwt>
<pdfrwt beam="1">  1       21 0.54818233E-01 0.17504289E+03</pdfrwt>
<pdfrwt beam="2">  1       21 0.15799987E-01 0.17504289E+03</pdfrwt>
<totfact> 0.11280346E+05</totfact>
</mgrwt>
</event>
<event>
 4    2  0.3972096E+000  0.2010371E+03  0.7546771E-02  0.1148867E+00
         21   -1    0    0  503  502  0.00000000000E+00  0.00000000000E+00  0.37679968092E+03  0.37679968092E+03  0.00000000000E+00 0. -1.
         21   -1    0    0  501  503 -0.00000000000E+00 -0.00000000000E+00 -0.11186355189E+03  0.11186355189E+03  0.00000000000E+00 0. -1.
          6    1    1    2  501    0  0.64497179657E+02  0.79542626302E+02  0.82907746382E+02  0.21746174375E+03  0.17300000000E+03 0. -1.
         -6    1    1    2    0  502 -0.64497179657E+02 -0.79542626302E+02  0.18202838264E+03  0.27120148906E+03  0.17300000000E+03 0. -1.
<mgrwt>
<rscale>  2 0.20103710E+03</rscale>
<asrwt>0</asrwt>
<pdfrwt beam="1">  1       21 0.57969181E-01 0.20103710E+03</pdfrwt>
<pdfrwt beam="2">  1       21 0.17209777E-01 0.20103710E+03</pdfrwt>
<totfact> 0.84775691E+04</totfact>
</mgrwt>
</event>
<event>
 4    2  0.3972096E+000  0.2526630E+03  0.7546771E-02  0.1111633E+00
         21   -1    0    0  501  502  0.00000000000E+00  0.00000000000E+00  0.39051486558E+03  0.39051486558E+03  0.00000000000E+00 0.  1.
         21   -1    0    0  502  503 -0.00000000000E+00 -0.00000000000E+00 -0.16366185560E+03  0.16366185560E+03  0.00000000000E+00 0. -1.
          6    1    1    2  501    0  0.12849109699E+03  0.13190763559E+03  0.10401069898E+03  0.27323398733E+03  0.17300000000E+03 0.  1.
         -6    1    1    2    0  503 -0.12849109699E+03 -0.13190763559E+03  0.12284231100E+03  0.28094273385E+03  0.17300000000E+03 0. -1.
<mgrwt>
<rscale>  2 0.25266299E+03</rscale>
<asrwt>0</asrwt>
<pdfrwt beam="1">  1       21 0.60079210E-01 0.25266299E+03</pdfrwt>
<pdfrwt beam="2">  1       21 0.25178747E-01 0.25266299E+03</pdfrwt>
<totfact> 0.37522372E+04</totfact>
</mgrwt>
</event>
<event>
 4    2  0.3972096E+000  0.2059419E+03  0.7546771E-02  0.1144820E+00
         21   -1    0    0  503  502  0.00000000000E+00  0.00000000000E+00  0.60872277597E+03  0.60872277597E+03  0.00000000000E+00 0.  1.
         21   -1    0    0  501  503 -0.00000000000E+00 -0.00000000000E+00 -0.70021892195E+02  0.70021892195E+02  0.00000000000E+00 0.  1.
          6    1    1    2  501    0 -0.10408684555E+03 -0.40607668501E+02  0.24542385117E+03  0.32038246032E+03  0.17300000000E+03 0.  1.
         -6    1    1    2    0  502  0.10408684555E+03  0.40607668501E+02  0.29327703261E+03  0.35836220785E+03  0.17300000000E+03 0.  1.
<mgrwt>
<rscale>  2 0.20594187E+03</rscale>
<asrwt>0</asrwt>
<pdfrwt beam="1">  1       21 0.93649654E-01 0.20594187E+03</pdfrwt>
<pdfrwt beam="2">  1       21 0.10772599E-01 0.20594187E+03</pdfrwt>
<totfact> 0.67702676E+04</totfact>
</mgrwt>
</event>
<event>
 4    2  0.3972096E+000  0.1781456E+03  0.7546771E-02  0.1169610E+00
         21   -1    0    0  503  502  0.00000000000E+00  0.00000000000E+00  0.52523740722E+03  0.52523740722E+03  0.00000000000E+00 0.  1.
         21   -1    0    0  501  503 -0.00000000000E+00 -0.00000000000E+00 -0.65752071428E+02  0.65752071428E+02  0.00000000000E+00 0.  1.
          6    1    1    2  501    0 -0.32253555209E+02  0.27686621654E+02  0.14560979490E+03  0.23008270950E+03  0.17300000000E+03 0.  1.
         -6    1    1    2    0  502  0.32253555209E+02 -0.27686621654E+02  0.31387554090E+03  0.36090676915E+03  0.17300000000E+03 0.  1.
<mgrwt>
<rscale>  2 0.17814556E+03</rscale>
<asrwt>0</asrwt>
<pdfrwt beam="1">  1       21 0.80805752E-01 0.17814556E+03</pdfrwt>
<pdfrwt beam="2">  1       21 0.10115704E-01 0.17814556E+03</pdfrwt>
<totfact> 0.10750720E+05</totfact>
</mgrwt>
</event>
<event>
 4    2  0.3972096E+000  0.3048827E+03  0.7546771E-02  0.1082825E+00
         21   -1    0    0  501  502  0.00000000000E+00  0.00000000000E+00  0.33060738203E+03  0.33060738203E+03  0.00000000000E+00 0.  1.
         21   -1    0    0  502  503 -0.00000000000E+00 -0.00000000000E+00 -0.44955577987E+03  0.44955577987E+03  0.00000000000E+00 0. -1.
          6    1    1    2  501    0  0.24101663695E+03  0.70252680576E+02  0.17926827740E+03  0.35368145795E+03  0.17300000000E+03 0.  1.
         -6    1    1    2    0  503 -0.24101663695E+03 -0.70252680576E+02 -0.29821667523E+03  0.42648170395E+03  0.17300000000E+03 0. -1.
<mgrwt>
<rscale>  2 0.30488270E+03</rscale>
<asrwt>0</asrwt>
<pdfrwt beam="1">  1       21 0.50862674E-01 0.30488270E+03</pdfrwt>
<pdfrwt beam="2">  1       21 0.69162427E-01 0.30488270E+03</pdfrwt>
<totfact> 0.65399868E+03</totfact>
</mgrwt>
</event>
<event>
 4    2  0.3972096E+000  0.2727098E+03  0.7546771E-02  0.1099739E+00
         21   -1    0    0  503  502  0.00000000000E+00  0.00000000000E+00  0.23210881066E+03  0.23210881066E+03  0.00000000000E+00 0. -1.
         21   -1    0    0  501  503 -0.00000000000E+00 -0.00000000000E+00 -0.36774310634E+03  0.36774310634E+03  0.00000000000E+00 0. -1.
          6    1    1    2  501    0 -0.17124687694E+03 -0.12294777270E+03  0.39782579609E+02  0.27559626506E+03  0.17300000000E+03 0. -1.
         -6    1    1    2    0  502  0.17124687694E+03  0.12294777270E+03 -0.17541687529E+03  0.32425565193E+03  0.17300000000E+03 0. -1.
<mgrwt>
<rscale>  2 0.27270982E+03</rscale>
<asrwt>0</asrwt>
<pdfrwt beam="1">  1       21 0.35709048E-01 0.27270982E+03</pdfrwt>
<pdfrwt beam="2">  1       21 0.56575862E-01 0.27270982E+03</pdfrwt>
<totfact> 0.21320278E+04</totfact>
</mgrwt>
</event>
<event>
 4    2  0.3972096E+000  0.2605601E+03  0.7546771E-02  0.1106807E+00
         21   -1    0    0  503  502  0.00000000000E+00  0.00000000000E+00  0.28248778653E+03  0.28248778653E+03  0.00000000000E+00 0. -1.
         21   -1    0    0  501  503 -0.00000000000E+00 -0.00000000000E+00 -0.47830893283E+03  0.47830893283E+03  0.00000000000E+00 0. -1.
          6    1    1    2  501    0  0.10204121825E+03 -0.16598236200E+03 -0.36622841983E+03  0.44946057692E+03  0.17300000000E+03 0. -1.
         -6    1    1    2    0  502 -0.10204121825E+03  0.16598236200E+03  0.17040727353E+03  0.31133614244E+03  0.17300000000E+03 0. -1.
<mgrwt>
<rscale>  2 0.26056008E+03</rscale>
<asrwt>0</asrwt>
<pdfrwt beam="1">  1       21 0.43459660E-01 0.26056008E+03</pdfrwt>
<pdfrwt beam="2">  1       21 0.73585990E-01 0.26056008E+03</pdfrwt>
<totfact> 0.80860458E+03</totfact>
</mgrwt>
</event>
<event>
 4    2  0.3972096E+000  0.2069310E+03  0.7546771E-02  0.1144020E+00
         21   -1    0    0  501  502  0.00000000000E+00  0.00000000000E+00  0.97083075345E+02  0.97083075345E+02  0.00000000000E+00 0.  1.
         21   -1    0    0  502  503 -0.00000000000E+00 -0.00000000000E+00 -0.58947955426E+03  0.58947955426E+03  0.00000000000E+00 0.  1.
          6    1    1    2  501    0  0.81245024962E+02  0.79313788039E+02 -0.73953194615E+02  0.21974873389E+03  0.17300000000E+03 0.  1.
         -6    1    1    2    0  503 -0.81245024962E+02 -0.79313788039E+02 -0.41844328430E+03  0.46681389571E+03  0.17300000000E+03 0.  1.
<mgrwt>
<rscale>  2 0.20693098E+03</rscale>
<asrwt>0</asrwt>
<pdfrwt beam="1">  1       21 0.14935858E-01 0.20693098E+03</pdfrwt>
<pdfrwt beam="2">  1       21 0.90689162E-01 0.20693098E+03</pdfrwt>
<totfact> 0.40501160E+04</totfact>
</mgrwt>
</event>
<event>
 4    2  0.3972096E+000  0.2218593E+03  0.7546771E-02  0.1132504E+00
         21   -1    0    0  501  502  0.00000000000E+00  0.00000000000E+00  0.54701529504E+03  0.54701529504E+03  0.00000000000E+00 0. -1.
         21   -1    0    0  502  503 -0.00000000000E+00 -0.00000000000E+00 -0.26917323600E+03  0.26917323600E+03  0.00000000000E+00 0. -1.
          6    1    1    2  501    0  0.19022683952E+02 -0.13758879506E+03  0.47188935154E+03  0.52144136691E+03  0.17300000000E+03 0. -1.
         -6    1    1    2    0  503 -0.19022683952E+02  0.13758879506E+03 -0.19404729251E+03  0.29474716413E+03  0.17300000000E+03 0. -1.
<mgrwt>
<rscale>  2 0.22185928E+03</rscale>
<asrwt>0</asrwt>
<pdfrwt beam="1">  1       21 0.84156199E-01 0.22185928E+03</pdfrwt>
<pdfrwt beam="2">  1       21 0.41411267E-01 0.22185928E+03</pdfrwt>
<totfact> 0.67407123E+03</totfact>
</mgrwt>
</event>
<event>
 4    2  0.3972096E+000  0.2896527E+03  0.7546771E-02  0.1090531E+00
         21   -1    0    0  503  502  0.00000000000E+00  0.00000000000E+00  0.75265756965E+03  0.75265756965E+03  0.00000000000E+00 0.  1.
         21   -1    0    0  501  503 -0.00000000000E+00 -0.00000000000E+00 -0.23478644081E+03  0.23478644081E+03  0.00000000000E+00 0.  1.
          6    1    1    2  501    0 -0.22529963382E+03 -0.56654957306E+02 -0.98877784915E+02  0.30606457740E+03  0.17300000000E+03 0.  1.
         -6    1    1    2    0  502  0.22529963382E+03  0.56654957306E+02  0.61674891375E+03  0.68137943306E+03  0.17300000000E+03 0.  1.
<mgrwt>
<rscale>  2 0.28965274E+03</rscale>
<asrwt>0</asrwt>
<pdfrwt beam="1">  1       21 0.11579347E+00 0.28965274E+03</pdfrwt>
<pdfrwt beam="2">  1       21 0.36120991E-01 0.28965274E+03</pdfrwt>
<totfact> 0.39855671E+03</totfact>
</mgrwt>
</event>
<event>
 4    2  0.3972096E+000  0.1752881E+03  0.7546771E-02  0.1172443E+00
         21   -1    0    0  503  502  0.00000000000E+00  0.00000000000E+00  0.37350329019E+03  0.37350329019E+03  0.00000000000E+00 0. -1.
         21   -1    0    0  501  503 -0.00000000000E+00 -0.00000000000E+00 -0.92164610520E+02  0.92164610520E+02  0.00000000000E+00 0. -1.
          6    1    1    2  501    0  0.27109543861E+02  0.78729119140E+01  0.64357290392E+02  0.18672913789E+03  0.17300000000E+03 0. -1.
         -6    1    1    2    0  502 -0.27109543861E+02 -0.78729119140E+01  0.21698138928E+03  0.27893876282E+03  0.17300000000E+03 0. -1.
<mgrwt>
<rscale>  2 0.17528808E+03</rscale>
<asrwt>0</asrwt>
<pdfrwt beam="1">  1       21 0.57462044E-01 0.17528808E+03</pdfrwt>
<pdfrwt beam="2">  1       21 0.14179171E-01 0.17528808E+03</pdfrwt>
<totfact> 0.12426635E+05</totfact>
</mgrwt>
</event>
<event>
 4    2  0.3972096E+000  0.2075243E+03  0.7546771E-02  0.1143542E+00
         21   -1    0    0  501  502  0.00000000000E+00  0.00000000000E+00  0.61399797889E+03  0.61399797889E+03  0.00000000000E+00 0.  1.
         21   -1    0    0  502  503 -0.00000000000E+00 -0.00000000000E+00 -0.57673371187E+03  0.57673371187E+03  0.00000000000E+00 0. -1.
          6    1    1    2  501    0  0.45170743222E+02  0.10534198015E+03  0.57662132765E+03  0.61282826658E+03  0.17300000000E+03 0.  1.
         -6    1    1    2    0  503 -0.45170743222E+02 -0.10534198015E+03 -0.53935706063E+03  0.57790342417E+03  0.17300000000E+03 0. -1.
<mgrwt>
<rscale>  2 0.20752428E+03</rscale>
<asrwt>0</asrwt>
<pdfrwt beam="1">  1       21 0.94461227E-01 0.20752428E+03</pdfrwt>
<pdfrwt beam="2">  1       21 0.88728263E-01 0.20752428E+03</pdfrwt>
<totfact> 0.10043526E+03</totfact>
</mgrwt>
</event>
<event>
 4    2  0.3972096E+000  0.2639004E+03  0.7546771E-02  0.1104822E+00
         21   -1    0    0  503  502  0.00000000000E+00  0.00000000000E+00  0.71940411424E+02  0.71940411424E+02  0.00000000000E+00 0. -1.
         21   -1    0    0  501  503 -0.00000000000E+00 -0.00000000000E+00 -0.12025962691E+04  0.12025962691E+04  0.00000000000E+00 0. -1.
          6    1    1    2  501    0 -0.17445295973E+02 -0.19851978078E+03 -0.84674927528E+03  0.88692038927E+03  0.17300000000E+03 0. -1.
         -6    1    1    2    0  502  0.17445295973E+02  0.19851978078E+03 -0.28390658235E+03  0.38761629121E+03  0.17300000000E+03 0. -1.
<mgrwt>
<rscale>  2 0.26390044E+03</rscale>
<asrwt>0</asrwt>
<pdfrwt beam="1">  1       21 0.11067755E-01 0.26390044E+03</pdfrwt>
<pdfrwt beam="2">  1       21 0.18501482E+00 0.26390044E+03</pdfrwt>
<totfact> 0.10853198E+04</totfact>
</mgrwt>
</event>
<event>
 4    2  0.3972096E+000  0.1969071E+03  0.7546771E-02  0.1152375E+00
         21   -1    0    0  503  502  0.00000000000E+00  0.00000000000E+00  0.69922962427E+03  0.69922962427E+03  0.00000000000E+00 0.  1.
         21   -1    0    0  501  503 -0.00000000000E+00 -0.00000000000E+00 -0.22726294200E+03  0.22726294200E+03  0.00000000000E+00 0.  1.
          6    1    1    2  501    0 -0.44930452837E+02 -0.82611437386E+02 -0.16680358452E+03  0.25806168059E+03  0.17300000000E+03 0.  1.
         -6    1    1    2    0  502  0.44930452837E+02  0.82611437386E+02  0.63877026680E+03  0.66843088568E+03  0.17300000000E+03 0.  1.
<mgrwt>
<rscale>  2 0.19690707E+03</rscale>
<asrwt>0</asrwt>
<pdfrwt beam="1">  1       21 0.10757379E+00 0.19690707E+03</pdfrwt>
<pdfrwt beam="2">  1       21 0.34963530E-01 0.19690707E+03</pdfrwt>
<totfact> 0.54171149E+03</totfact>
</mgrwt>
</event>
<event>
 4    2  0.3972096E+000  0.1811682E+03  0.7546771E-02  0.1166677E+00
         21   -1    0    0  503  502  0.00000000000E+00  0.00000000000E+00  0.77114132885E+03  0.77114132885E+03  0.00000000000E+00 0. -1.
         21   -1    0    0  501  503 -0.00000000000E+00 -0.00000000000E+00 -0.46249776170E+02  0.46249776170E+02  0.00000000000E+00 0. -1.
          6    1    1    2  501    0 -0.66604673413E+01 -0.53371726907E+02  0.24705193413E+03  0.30636018216E+03  0.17300000000E+03 0. -1.
         -6    1    1    2    0  502  0.66604673413E+01  0.53371726907E+02  0.47783961855E+03  0.51103092285E+03  0.17300000000E+03 0. -1.
<mgrwt>
<rscale>  2 0.18116816E+03</rscale>
<asrwt>0</asrwt>
<pdfrwt beam="1">  1       21 0.11863712E+00 0.18116816E+03</pdfrwt>
<pdfrwt beam="2">  1       21 0.71153508E-02 0.18116816E+03</pdfrwt>
<totfact> 0.80308844E+04</totfact>
</mgrwt>
</event>
<event>
 4    2  0.3972096E+000  0.2265291E+03  0.7546771E-02  0.1129107E+00
         21   -1    0    0  501  502  0.00000000000E+00  0.00000000000E+00  0.75016686880E+03  0.75016686880E+03  0.00000000000E+00 0. -1.
         21   -1    0    0  502  503 -0.00000000000E+00 -0.00000000000E+00 -0.99280141137E+02  0.99280141137E+02  0.00000000000E+00 0.  1.
          6    1    1    2  501    0  0.14537861026E+03  0.15858024372E+02  0.56229544815E+03  0.60621084473E+03  0.17300000000E+03 0. -1.
         -6    1    1    2    0  503 -0.14537861026E+03 -0.15858024372E+02  0.88591279513E+02  0.24323616521E+03  0.17300000000E+03 0.  1.
<mgrwt>
<rscale>  2 0.22652906E+03</rscale>
<asrwt>0</asrwt>
<pdfrwt beam="1">  1       21 0.11541028E+00 0.22652906E+03</pdfrwt>
<pdfrwt beam="2">  1       21 0.15273868E-01 0.22652906E+03</pdfrwt>
<totfact> 0.21617453E+04</totfact>
</mgrwt>
</event>
<event>
 4    2  0.3972096E+000  0.4278385E+03  0.7546771E-02  0.1034545E+00
         21   -1    0    0  501  502  0.00000000000E+00  0.00000000000E+00  0.10621830711E+04  0.10621830711E+04  0.00000000000E+00 0. -1.
         21   -1    0    0  502  503 -0.00000000000E+00 -0.00000000000E+00 -0.35839189181E+03  0.35839189181E+03  0.00000000000E+00 0.  1.
          6    1    1    2  501    0  0.35827244829E+03  0.15734565612E+03  0.86367642054E+03  0.96383751852E+03  0.17300000000E+03 0.  1.
         -6    1    1    2    0  503 -0.35827244829E+03 -0.15734565612E+03 -0.15988524129E+03  0.45673744437E+03  0.17300000000E+03 0. -1.
<mgrwt>
<rscale>  2 0.42783852E+03</rscale>
<asrwt>0</asrwt>
<pdfrwt beam="1">  1       21 0.16341278E+00 0.42783852E+03</pdfrwt>
<pdfrwt beam="2">  1       21 0.55137214E-01 0.42783852E+03</pdfrwt>
<totfact> 0.62178739E+02</totfact>
</mgrwt>
</event>
<event>
 4    2  0.3972096E+000  0.1984701E+03  0.7546771E-02  0.1151036E+00
         21   -1    0    0  503  502  0.00000000000E+00  0.00000000000E+00  0.28673282796E+02  0.28673282796E+02  0.00000000000E+00 0.  1.
         21   -1    0    0  501  503 -0.00000000000E+00 -0.00000000000E+00 -0.14440686406E+04  0.14440686406E+04  0.00000000000E+00 0.  1.
          6    1    1    2  501    0  0.95709960230E+02 -0.17349330895E+02 -0.54522252207E+03  0.58022236629E+03  0.17300000000E+03 0.  1.
         -6    1    1    2    0  502 -0.95709960230E+02  0.17349330895E+02 -0.87017283573E+03  0.89251955710E+03  0.17300000000E+03 0.  1.
<mgrwt>
<rscale>  2 0.19847014E+03</rscale>
<asrwt>0</asrwt>
<pdfrwt beam="1">  1       21 0.44112757E-02 0.19847014E+03</pdfrwt>
<pdfrwt beam="2">  1       21 0.22216433E+00 0.19847014E+03</pdfrwt>
<totfact> 0.32293864E+04</totfact>
</mgrwt>
</event>
<event>
 4    2  0.3972096E+000  0.2381454E+03  0.7546771E-02  0.1121035E+00
         21   -1    0    0  503  502  0.00000000000E+00  0.00000000000E+00  0.20364729982E+04  0.20364729982E+04  0.00000000000E+00 0. -1.
         21   -1    0    0  501  503 -0.00000000000E+00 -0.00000000000E+00 -0.28128631847E+02  0.28128631847E+02  0.00000000000E+00 0. -1.
          6    1    1    2  501    0 -0.29603603686E+02  0.16095917889E+03  0.90120042976E+03  0.93213488574E+03  0.17300000000E+03 0. -1.
         -6    1    1    2    0  502  0.29603603686E+02 -0.16095917889E+03  0.11071439366E+04  0.11324667444E+04  0.17300000000E+03 0. -1.
<mgrwt>
<rscale>  2 0.23814540E+03</rscale>
<asrwt>0</asrwt>
<pdfrwt beam="1">  1       21 0.31330342E+00 0.23814540E+03</pdfrwt>
<pdfrwt beam="2">  1       21 0.43274834E-02 0.23814540E+03</pdfrwt>
<totfact> 0.93790280E+03</totfact>
</mgrwt>
</event>
<event>
 4    2  0.3972096E+000  0.2163179E+03  0.7546771E-02  0.1136658E+00
         21   -1    0    0  503  502  0.00000000000E+00  0.00000000000E+00  0.25993708889E+03  0.25993708889E+03  0.00000000000E+00 0. -1.
         21   -1    0    0  501  503 -0.00000000000E+00 -0.00000000000E+00 -0.24443072124E+03  0.24443072124E+03  0.00000000000E+00 0. -1.
          6    1    1    2  501    0  0.12514629079E+03 -0.34681959968E+02 -0.12170344349E+03  0.24820386903E+03  0.17300000000E+03 0. -1.
         -6    1    1    2    0  502 -0.12514629079E+03  0.34681959968E+02  0.13720981114E+03  0.25616394110E+03  0.17300000000E+03 0. -1.
<mgrwt>
<rscale>  2 0.21631790E+03</rscale>
<asrwt>0</asrwt>
<pdfrwt beam="1">  1       21 0.39990321E-01 0.21631790E+03</pdfrwt>
<pdfrwt beam="2">  1       21 0.37604726E-01 0.21631790E+03</pdfrwt>
<totfact> 0.40616002E+04</totfact>
</mgrwt>
</event>
<event>
 4    2  0.3972096E+000  0.1915096E+03  0.7546771E-02  0.1157107E+00
         21   -1    0    0  501  502  0.00000000000E+00  0.00000000000E+00  0.94511209907E+02  0.94511209907E+02  0.00000000000E+00 0. -1.
         21   -1    0    0  502  503 -0.00000000000E+00 -0.00000000000E+00 -0.58357519225E+03  0.58357519225E+03  0.00000000000E+00 0.  1.
          6    1    1    2  501    0  0.21125895804E+02  0.79376484307E+02 -0.48287287047E+02  0.19750339700E+03  0.17300000000E+03 0. -1.
         -6    1    1    2    0  503 -0.21125895804E+02 -0.79376484307E+02 -0.44077669529E+03  0.48058300516E+03  0.17300000000E+03 0.  1.
<mgrwt>
<rscale>  2 0.19150961E+03</rscale>
<asrwt>0</asrwt>
<pdfrwt beam="1">  1       21 0.14540187E-01 0.19150961E+03</pdfrwt>
<pdfrwt beam="2">  1       21 0.89780796E-01 0.19150961E+03</pdfrwt>
<totfact> 0.43887339E+04</totfact>
</mgrwt>
</event>
<event>
 4    2  0.3972096E+000  0.1761713E+03  0.7546771E-02  0.1171561E+00
         21   -1    0    0  501  502  0.00000000000E+00  0.00000000000E+00  0.29549162704E+03  0.29549162704E+03  0.00000000000E+00 0. -1.
         21   -1    0    0  502  503 -0.00000000000E+00 -0.00000000000E+00 -0.18298606484E+03  0.18298606484E+03  0.00000000000E+00 0. -1.
          6    1    1    2  501    0 -0.32828248660E+02 -0.54431624385E+01  0.21240197981E+03  0.27595456683E+03  0.17300000000E+03 0. -1.
         -6    1    1    2    0  503  0.32828248660E+02  0.54431624385E+01 -0.99896417611E+02  0.20252312505E+03  0.17300000000E+03 0. -1.
<mgrwt>
<rscale>  2 0.17617129E+03</rscale>
<asrwt>0</asrwt>
<pdfrwt beam="1">  1       21 0.45460250E-01 0.17617129E+03</pdfrwt>
<pdfrwt beam="2">  1       21 0.28151702E-01 0.17617129E+03</pdfrwt>
<totfact> 0.56374487E+04</totfact>
</mgrwt>
</event>
<event>
 4    2  0.3972096E+000  0.1811079E+03  0.7546771E-02  0.1166735E+00
         21   -1    0    0  503  502  0.00000000000E+00  0.00000000000E+00  0.85004853597E+02  0.85004853597E+02  0.00000000000E+00 0. -1.
         21   -1    0    0  501  503 -0.00000000000E+00 -0.00000000000E+00 -0.42025705127E+03  0.42025705127E+03  0.00000000000E+00 0.  1.
          6    1    1    2  501    0  0.93270357895E+01 -0.52764260513E+02 -0.23990027136E+03  0.30058642847E+03  0.17300000000E+03 0.  1.
         -6    1    1    2    0  502 -0.93270357895E+01  0.52764260513E+02 -0.95351926308E+02  0.20467547639E+03  0.17300000000E+03 0. -1.
<mgrwt>
<rscale>  2 0.18110787E+03</rscale>
<asrwt>0</asrwt>
<pdfrwt beam="1">  1       21 0.13077670E-01 0.18110787E+03</pdfrwt>
<pdfrwt beam="2">  1       21 0.64654932E-01 0.18110787E+03</pdfrwt>
<totfact> 0.11135527E+05</totfact>
</mgrwt>
</event>
<event>
 4    2  0.3972096E+000  0.1843036E+03  0.7546771E-02  0.1163702E+00
         21   -1    0    0  501  502  0.00000000000E+00  0.00000000000E+00  0.26972554081E+03  0.26972554081E+03  0.00000000000E+00 0.  1.
         21   -1    0    0  502  503 -0.00000000000E+00 -0.00000000000E+00 -0.31927673051E+03  0.31927673051E+03  0.00000000000E+00 0.  1.
          6    1    1    2  501    0 -0.49725182926E+02  0.39575428797E+02  0.20439899563E+03  0.27522128878E+03  0.17300000000E+03 0.  1.
         -6    1    1    2    0  503  0.49725182926E+02 -0.39575428797E+02 -0.25395018532E+03  0.31378098254E+03  0.17300000000E+03 0.  1.
<mgrwt>
<rscale>  2 0.18430358E+03</rscale>
<asrwt>0</asrwt>
<pdfrwt beam="1">  1       21 0.41496237E-01 0.18430358E+03</pdfrwt>
<pdfrwt beam="2">  1       21 0.49119497E-01 0.18430358E+03</pdfrwt>
<totfact> 0.22216681E+04</totfact>
</mgrwt>
</event>
<event>
 4    2  0.3972096E+000  0.2138815E+03  0.7546771E-02  0.1138529E+00
         21   -1    0    0  501  502  0.00000000000E+00  0.00000000000E+00  0.19304373968E+03  0.19304373968E+03  0.00000000000E+00 0.  1.
         21   -1    0    0  502  503 -0.00000000000E+00 -0.00000000000E+00 -0.39912287365E+03  0.39912287365E+03  0.00000000000E+00 0.  1.
          6    1    1    2  501    0 -0.12122553265E+03 -0.33476221258E+02  0.85683477905E+02  0.23040604493E+03  0.17300000000E+03 0.  1.
         -6    1    1    2    0  503  0.12122553265E+03  0.33476221258E+02 -0.29176261187E+03  0.36176056839E+03  0.17300000000E+03 0.  1.
<mgrwt>
<rscale>  2 0.21388148E+03</rscale>
<asrwt>0</asrwt>
<pdfrwt beam="1">  1       21 0.29699037E-01 0.21388148E+03</pdfrwt>
<pdfrwt beam="2">  1       21 0.61403519E-01 0.21388148E+03</pdfrwt>
<totfact> 0.26477868E+04</totfact>
</mgrwt>
</event>
<event>
 4    2  0.3972096E+000  0.2536538E+03  0.7546771E-02  0.1111017E+00
         21   -1    0    0  503  502  0.00000000000E+00  0.00000000000E+00  0.83199133315E+03  0.83199133315E+03  0.00000000000E+00 0.  1.
         21   -1    0    0  501  503 -0.00000000000E+00 -0.00000000000E+00 -0.81976360094E+02  0.81976360094E+02  0.00000000000E+00 0. -1.
          6    1    1    2  501    0 -0.16617187213E+03 -0.82450866275E+02  0.48377046929E+03  0.54623630728E+03  0.17300000000E+03 0. -1.
         -6    1    1    2    0  502  0.16617187213E+03  0.82450866275E+02  0.26624450377E+03  0.36773138596E+03  0.17300000000E+03 0. -1.
<mgrwt>
<rscale>  2 0.25365377E+03</rscale>
<asrwt>0</asrwt>
<pdfrwt beam="1">  1       21 0.12799866E+00 0.25365377E+03</pdfrwt>
<pdfrwt beam="2">  1       21 0.12611748E-01 0.25365377E+03</pdfrwt>
<totfact> 0.23308422E+04</totfact>
</mgrwt>
</event>
<event>
 4    2  0.3972096E+000  0.2351793E+03  0.7546771E-02  0.1123047E+00
         21   -1    0    0  501  502  0.00000000000E+00  0.00000000000E+00  0.88217195071E+03  0.88217195071E+03  0.00000000000E+00 0.  1.
         21   -1    0    0  502  503 -0.00000000000E+00 -0.00000000000E+00 -0.47895756917E+03  0.47895756917E+03  0.00000000000E+00 0. -1.
          6    1    1    2  501    0 -0.78423078952E+02  0.13867278427E+03  0.83606639249E+03  0.86851386464E+03  0.17300000000E+03 0.  1.
         -6    1    1    2    0  503  0.78423078952E+02 -0.13867278427E+03 -0.43285201095E+03  0.49261565524E+03  0.17300000000E+03 0. -1.
<mgrwt>
<rscale>  2 0.23517934E+03</rscale>
<asrwt>0</asrwt>
<pdfrwt beam="1">  1       21 0.13571876E+00 0.23517934E+03</pdfrwt>
<pdfrwt beam="2">  1       21 0.73685780E-01 0.23517934E+03</pdfrwt>
<totfact> 0.61393288E+02</totfact>
</mgrwt>
</event>
<event>
 4    2  0.3972096E+000  0.1919154E+03  0.7546771E-02  0.1156745E+00
         21   -1    0    0  503  502  0.00000000000E+00  0.00000000000E+00  0.45355393917E+03  0.45355393917E+03  0.00000000000E+00 0.  1.
         21   -1    0    0  501  503 -0.00000000000E+00 -0.00000000000E+00 -0.36776319921E+03  0.36776319921E+03  0.00000000000E+00 0.  1.
          6    1    1    2  501    0 -0.77742314179E+02  0.29302591880E+02 -0.31959967080E+03  0.37279412399E+03  0.17300000000E+03 0.  1.
         -6    1    1    2    0  502  0.77742314179E+02 -0.29302591880E+02  0.40539041076E+03  0.44852301439E+03  0.17300000000E+03 0.  1.
<mgrwt>
<rscale>  2 0.19191537E+03</rscale>
<asrwt>0</asrwt>
<pdfrwt beam="1">  1       21 0.69777530E-01 0.19191537E+03</pdfrwt>
<pdfrwt beam="2">  1       21 0.56578953E-01 0.19191537E+03</pdfrwt>
<totfact> 0.54846246E+03</totfact>
</mgrwt>
</event>
<event>
 4    2  0.3972096E+000  0.2257049E+03  0.7546771E-02  0.1129700E+00
         21   -1    0    0  503  502  0.00000000000E+00  0.00000000000E+00  0.18160015323E+04  0.18160015323E+04  0.00000000000E+00 0. -1.
         21   -1    0    0  501  503 -0.00000000000E+00 -0.00000000000E+00 -0.35055361043E+02  0.35055361043E+02  0.00000000000E+00 0.  1.
          6    1    1    2  501    0 -0.11703219929E+03  0.85540305231E+02  0.47679518983E+03  0.52751903523E+03  0.17300000000E+03 0.  1.
         -6    1    1    2    0  502  0.11703219929E+03 -0.85540305231E+02  0.13041509815E+04  0.13235378581E+04  0.17300000000E+03 0. -1.
<mgrwt>
<rscale>  2 0.22570485E+03</rscale>
<asrwt>0</asrwt>
<pdfrwt beam="1">  1       21 0.27938478E+00 0.22570485E+03</pdfrwt>
<pdfrwt beam="2">  1       21 0.53931339E-02 0.22570485E+03</pdfrwt>
<totfact> 0.10280072E+04</totfact>
</mgrwt>
</event>
<event>
 4    2  0.3972096E+000  0.1895250E+03  0.7546771E-02  0.1158890E+00
         21   -1    0    0  501  502  0.00000000000E+00  0.00000000000E+00  0.74386744551E+03  0.74386744551E+03  0.00000000000E+00 0.  1.
         21   -1    0    0  502  503 -0.00000000000E+00 -0.00000000000E+00 -0.49780452508E+02  0.49780452508E+02  0.00000000000E+00 0.  1.
          6    1    1    2  501    0  0.53804420365E+02  0.55640007598E+02  0.41575779169E+03  0.45691822840E+03  0.17300000000E+03 0.  1.
         -6    1    1    2    0  503 -0.53804420365E+02 -0.55640007598E+02  0.27832920132E+03  0.33672966962E+03  0.17300000000E+03 0.  1.
<mgrwt>
<rscale>  2 0.18952500E+03</rscale>
<asrwt>0</asrwt>
<pdfrwt beam="1">  1       21 0.11444114E+00 0.18952500E+03</pdfrwt>
<pdfrwt beam="2">  1       21 0.76585317E-02 0.18952500E+03</pdfrwt>
<totfact> 0.76912629E+04</totfact>
</mgrwt>
</event>
<event>
 4    2  0.3972096E+000  0.1909182E+03  0.7546771E-02  0.1157636E+00
         21   -1    0    0  501  502  0.00000000000E+00  0.00000000000E+00  0.25523776723E+03  0.25523776723E+03  0.00000000000E+00 0. -1.
         21   -1    0    0  502  503 -0.00000000000E+00 -0.00000000000E+00 -0.14631439556E+03  0.14631439556E+03  0.00000000000E+00 0.  1.
          6    1    1    2  501    0 -0.71795203491E+02 -0.36962424761E+02  0.85546837624E+02  0.20920811054E+03  0.17300000000E+03 0. -1.
         -6    1    1    2    0  503  0.71795203491E+02  0.36962424761E+02  0.23376534046E+02  0.19234405224E+03  0.17300000000E+03 0.  1.
<mgrwt>
<rscale>  2 0.19091823E+03</rscale>
<asrwt>0</asrwt>
<pdfrwt beam="1">  1       21 0.39267349E-01 0.19091823E+03</pdfrwt>
<pdfrwt beam="2">  1       21 0.22509907E-01 0.19091823E+03</pdfrwt>
<totfact> 0.11566060E+05</totfact>
</mgrwt>
</event>
<event>
 4    2  0.3972096E+000  0.1872329E+03  0.7546771E-02  0.1160981E+00
         21   -1    0    0  501  502  0.00000000000E+00  0.00000000000E+00  0.13370498701E+03  0.13370498701E+03  0.00000000000E+00 0.  1.
         21   -1    0    0  502  503 -0.00000000000E+00 -0.00000000000E+00 -0.36483665800E+03  0.36483665800E+03  0.00000000000E+00 0.  1.
          6    1    1    2  501    0  0.27173551914E+02 -0.66247651724E+02  0.16653187328E+02  0.18797202433E+03  0.17300000000E+03 0.  1.
         -6    1    1    2    0  503 -0.27173551914E+02  0.66247651724E+02 -0.24778485831E+03  0.31056962068E+03  0.17300000000E+03 0.  1.
<mgrwt>
<rscale>  2 0.18723289E+03</rscale>
<asrwt>0</asrwt>
<pdfrwt beam="1">  1       21 0.20569998E-01 0.18723289E+03</pdfrwt>
<pdfrwt beam="2">  1       21 0.56128716E-01 0.18723289E+03</pdfrwt>
<totfact> 0.65589999E+04</totfact>
</mgrwt>
</event>
<event>
 4    2  0.3972096E+000  0.2851907E+03  0.7546771E-02  0.1092887E+00
         21   -1    0    0  501  502  0.00000000000E+00  0.00000000000E+00  0.19295316791E+04  0.19295316791E+04  0.00000000000E+00 0. -1.
         21   -1    0    0  502  503 -0.00000000000E+00 -0.00000000000E+00 -0.73571376941E+02  0.73571376941E+02  0.00000000000E+00 0. -1.
          6    1    1    2  501    0 -0.21095971880E+03 -0.83070502050E+02  0.15824916949E+04  0.16079843518E+04  0.17300000000E+03 0. -1.
         -6    1    1    2    0  503  0.21095971880E+03  0.83070502050E+02  0.27346860724E+03  0.39511870420E+03  0.17300000000E+03 0. -1.
<mgrwt>
<rscale>  2 0.28519066E+03</rscale>
<asrwt>0</asrwt>
<pdfrwt beam="1">  1       21 0.29685099E+00 0.28519066E+03</pdfrwt>
<pdfrwt beam="2">  1       21 0.11318675E-01 0.28519066E+03</pdfrwt>
<totfact> 0.21084088E+03</totfact>
</mgrwt>
</event>
<event>
 4    2  0.3972096E+000  0.1934374E+03  0.7546771E-02  0.1155397E+00
         21   -1    0    0  501  502  0.00000000000E+00  0.00000000000E+00  0.10258879777E+04  0.10258879777E+04  0.00000000000E+00 0.  1.
         21   -1    0    0  502  503 -0.00000000000E+00 -0.00000000000E+00 -0.79325884424E+02  0.79325884424E+02  0.00000000000E+00 0. -1.
          6    1    1    2  501    0 -0.84195397060E+02  0.20003960174E+02  0.87943893240E+03  0.90046147009E+03  0.17300000000E+03 0.  1.
         -6    1    1    2    0  503  0.84195397060E+02 -0.20003960174E+02  0.67123160855E+02  0.20475239201E+03  0.17300000000E+03 0. -1.
<mgrwt>
<rscale>  2 0.19343739E+03</rscale>
<asrwt>0</asrwt>
<pdfrwt beam="1">  1       21 0.15782891E+00 0.19343739E+03</pdfrwt>
<pdfrwt beam="2">  1       21 0.12203983E-01 0.19343739E+03</pdfrwt>
<totfact> 0.14859959E+04</totfact>
</mgrwt>
</event>
<event>
 4    2  0.3972096E+000  0.1849038E+03  0.7546771E-02  0.1163140E+00
         21   -1    0    0  501  502  0.00000000000E+00  0.00000000000E+00  0.15601432370E+03  0.15601432370E+03  0.00000000000E+00 0. -1.
         21   -1    0    0  502  503 -0.00000000000E+00 -0.00000000000E+00 -0.15637330927E+04  0.15637330927E+04  0.00000000000E+00 0. -1.
          6    1    1    2  501    0  0.65120303724E+02  0.44448910786E+01  0.93489419485E+02  0.20719479378E+03  0.17300000000E+03 0. -1.
         -6    1    1    2    0  503 -0.65120303724E+02 -0.44448910786E+01 -0.15012081885E+04  0.15125526226E+04  0.17300000000E+03 0. -1.
<mgrwt>
<rscale>  2 0.18490379E+03</rscale>
<asrwt>0</asrwt>
<pdfrwt beam="1">  1       21 0.24002205E-01 0.18490379E+03</pdfrwt>
<pdfrwt beam="2">  1       21 0.24057431E+00 0.18490379E+03</pdfrwt>
<totfact> 0.12490353E+03</totfact>
</mgrwt>
</event>
<event>
 4    2  0.3972096E+000  0.1869780E+03  0.7546771E-02  0.1161216E+00
         21   -1    0    0  501  502  0.00000000000E+00  0.00000000000E+00  0.23984685048E+03  0.23984685048E+03  0.00000000000E+00 0.  1.
         21   -1    0    0  502  503 -0.00000000000E+00 -0.00000000000E+00 -0.14739898723E+03  0.14739898723E+03  0.00000000000E+00 0.  1.
          6    1    1    2  501    0  0.30160593362E+02 -0.64203536750E+02  0.66623553847E+02  0.19849295567E+03  0.17300000000E+03 0.  1.
         -6    1    1    2    0  503 -0.30160593362E+02  0.64203536750E+02  0.25824309410E+02  0.18875288204E+03  0.17300000000E+03 0.  1.
<mgrwt>
<rscale>  2 0.18697795E+03</rscale>
<asrwt>0</asrwt>
<pdfrwt beam="1">  1       21 0.36899516E-01 0.18697795E+03</pdfrwt>
<pdfrwt beam="2">  1       21 0.22676767E-01 0.18697795E+03</pdfrwt>
<totfact> 0.12937871E+05</totfact>
</mgrwt>
</event>
<event>
 4    2  0.3972096E+000  0.1867661E+03  0.7546771E-02  0.1161411E+00
         21   -1    0    0  501  502  0.00000000000E+00  0.00000000000E+00  0.35745804309E+03  0.35745804309E+03  0.00000000000E+00 0. -1.
         21   -1    0    0  502  503 -0.00000000000E+00 -0.00000000000E+00 -0.13784358972E+03  0.13784358972E+03  0.00000000000E+00 0. -1.
          6    1    1    2  501    0  0.23431505183E+02 -0.66359114011E+02  0.24364862873E+03  0.30699547510E+03  0.17300000000E+03 0. -1.
         -6    1    1    2    0  503 -0.23431505183E+02  0.66359114011E+02 -0.24034175356E+02  0.18830615771E+03  0.17300000000E+03 0. -1.
<mgrwt>
<rscale>  2 0.18676608E+03</rscale>
<asrwt>0</asrwt>
<pdfrwt beam="1">  1       21 0.54993545E-01 0.18676608E+03</pdfrwt>
<pdfrwt beam="2">  1       21 0.21206706E-01 0.18676608E+03</pdfrwt>
<totfact> 0.64699500E+04</totfact>
</mgrwt>
</event>
<event>
 4    2  0.3972096E+000  0.2843154E+03  0.7546771E-02  0.1093355E+00
         21   -1    0    0  501  502  0.00000000000E+00  0.00000000000E+00  0.41457687209E+03  0.41457687209E+03  0.00000000000E+00 0. -1.
         21   -1    0    0  502  503 -0.00000000000E+00 -0.00000000000E+00 -0.54478843965E+03  0.54478843965E+03  0.00000000000E+00 0.  1.
          6    1    1    2  501    0  0.17251347470E+02 -0.22496365289E+03  0.31926789042E+03  0.42751285357E+03  0.17300000000E+03 0. -1.
         -6    1    1    2    0  503 -0.17251347470E+02  0.22496365289E+03 -0.44947945799E+03  0.53185245817E+03  0.17300000000E+03 0.  1.
<mgrwt>
<rscale>  2 0.28431541E+03</rscale>
<asrwt>0</asrwt>
<pdfrwt beam="1">  1       21 0.63781057E-01 0.28431541E+03</pdfrwt>
<pdfrwt beam="2">  1       21 0.83813606E-01 0.28431541E+03</pdfrwt>
<totfact> 0.26295285E+03</totfact>
</mgrwt>
</event>
<event>
 4    2  0.3972096E+000  0.1963804E+03  0.7546771E-02  0.1152829E+00
         21   -1    0    0  501  502  0.00000000000E+00  0.00000000000E+00  0.58939226201E+02  0.58939226201E+02  0.00000000000E+00 0.  1.
         21   -1    0    0  502  503 -0.00000000000E+00 -0.00000000000E+00 -0.19144761047E+04  0.19144761047E+04  0.00000000000E+00 0.  1.
          6    1    1    2  501    0  0.87517149730E+02 -0.31257069195E+02 -0.12724272356E+03  0.23399992857E+03  0.17300000000E+03 0.  1.
         -6    1    1    2    0  503 -0.87517149730E+02  0.31257069195E+02 -0.17282941549E+04  0.17394154023E+04  0.17300000000E+03 0.  1.
<mgrwt>
<rscale>  2 0.19638039E+03</rscale>
<asrwt>0</asrwt>
<pdfrwt beam="1">  1       21 0.90675740E-02 0.19638039E+03</pdfrwt>
<pdfrwt beam="2">  1       21 0.29453476E+00 0.19638039E+03</pdfrwt>
<totfact> 0.35225905E+03</totfact>
</mgrwt>
</event>
<event>
 4    2  0.3972096E+000  0.2133922E+03  0.7546771E-02  0.1138908E+00
         21   -1    0    0  503  502  0.00000000000E+00  0.00000000000E+00  0.92408958218E+02  0.92408958218E+02  0.00000000000E+00 0. -1.
         21   -1    0    0  501  503 -0.00000000000E+00 -0.00000000000E+00 -0.49281425418E+03  0.49281425418E+03  0.00000000000E+00 0. -1.
          6    1    1    2  501    0  0.85022329827E+02  0.91533691364E+02 -0.20302560374E+03  0.29454305118E+03  0.17300000000E+03 0. -1.
         -6    1    1    2    0  502 -0.85022329827E+02 -0.91533691364E+02 -0.19737969222E+03  0.29068016122E+03  0.17300000000E+03 0. -1.
<mgrwt>
<rscale>  2 0.21339216E+03</rscale>
<asrwt>0</asrwt>
<pdfrwt beam="1">  1       21 0.14216763E-01 0.21339216E+03</pdfrwt>
<pdfrwt beam="2">  1       21 0.75817577E-01 0.21339216E+03</pdfrwt>
<totfact> 0.66474714E+04</totfact>
</mgrwt>
</event>
<event>
 4    2  0.3972096E+000  0.1782808E+03  0.7546771E-02  0.1169477E+00
         21   -1    0    0  501  502  0.00000000000E+00  0.00000000000E+00  0.15056017783E+03  0.15056017783E+03  0.00000000000E+00 0.  1.
         21   -1    0    0  502  503 -0.00000000000E+00 -0.00000000000E+00 -0.99707260902E+03  0.99707260902E+03  0.00000000000E+00 0.  1.
          6    1    1    2  501    0  0.32658562857E+02  0.28079643716E+02  0.86205796136E+02  0.19802900648E+03  0.17300000000E+03 0.  1.
         -6    1    1    2    0  503 -0.32658562857E+02 -0.28079643716E+02 -0.93271822732E+03  0.94960378037E+03  0.17300000000E+03 0.  1.
<mgrwt>
<rscale>  2 0.17828081E+03</rscale>
<asrwt>0</asrwt>
<pdfrwt beam="1">  1       21 0.23163104E-01 0.17828081E+03</pdfrwt>
<pdfrwt beam="2">  1       21 0.15339579E+00 0.17828081E+03</pdfrwt>
<totfact> 0.49960590E+03</totfact>
</mgrwt>
</event>
<event>
 4    2  0.3972096E+000  0.1818622E+03  0.7546771E-02  0.1166013E+00
         21   -1    0    0  501  502  0.00000000000E+00  0.00000000000E+00  0.31518012091E+02  0.31518012091E+02  0.00000000000E+00 0.  1.
         21   -1    0    0  502  503 -0.00000000000E+00 -0.00000000000E+00 -0.11238406075E+04  0.11238406075E+04  0.00000000000E+00 0. -1.
          6    1    1    2  501    0  0.11662566375E+02  0.54852768514E+02 -0.39744904192E+03  0.43708075065E+03  0.17300000000E+03 0. -1.
         -6    1    1    2    0  503 -0.11662566375E+02 -0.54852768514E+02 -0.69487355349E+03  0.71827786894E+03  0.17300000000E+03 0. -1.
<mgrwt>
<rscale>  2 0.18186215E+03</rscale>
<asrwt>0</asrwt>
<pdfrwt beam="1">  1       21 0.48489253E-02 0.18186215E+03</pdfrwt>
<pdfrwt beam="2">  1       21 0.17289854E+00 0.18186215E+03</pdfrwt>
<totfact> 0.58067287E+04</totfact>
</mgrwt>
</event>
<event>
 4    2  0.3972096E+000  0.2344902E+03  0.7546771E-02  0.1123519E+00
         21   -1    0    0  501  502  0.00000000000E+00  0.00000000000E+00  0.25657846050E+03  0.25657846050E+03  0.00000000000E+00 0.  1.
         21   -1    0    0  502  503 -0.00000000000E+00 -0.00000000000E+00 -0.24850381593E+03  0.24850381593E+03  0.00000000000E+00 0.  1.
          6    1    1    2  501    0  0.11286143195E+03 -0.11099082108E+03  0.97724592582E+02  0.25403889698E+03  0.17300000000E+03 0.  1.
         -6    1    1    2    0  503 -0.11286143195E+03  0.11099082108E+03 -0.89649948017E+02  0.25104337945E+03  0.17300000000E+03 0.  1.
<mgrwt>
<rscale>  2 0.23449022E+03</rscale>
<asrwt>0</asrwt>
<pdfrwt beam="1">  1       21 0.39473610E-01 0.23449022E+03</pdfrwt>
<pdfrwt beam="2">  1       21 0.38231356E-01 0.23449022E+03</pdfrwt>
<totfact> 0.40000507E+04</totfact>
</mgrwt>
</event>
<event>
 4    2  0.3972096E+000  0.2375645E+03  0.7546771E-02  0.1121426E+00
         21   -1    0    0  501  502  0.00000000000E+00  0.00000000000E+00  0.23086143509E+03  0.23086143509E+03  0.00000000000E+00 0.  1.
         21   -1    0    0  502  503 -0.00000000000E+00 -0.00000000000E+00 -0.24643632967E+03  0.24643632967E+03  0.00000000000E+00 0. -1.
          6    1    1    2  501    0 -0.80265911333E+02  0.14165193611E+03 -0.29147293033E+02  0.23934588406E+03  0.17300000000E+03 0.  1.
         -6    1    1    2    0  503  0.80265911333E+02 -0.14165193611E+03  0.13572398454E+02  0.23795188069E+03  0.17300000000E+03 0.  1.
<mgrwt>
<rscale>  2 0.23756449E+03</rscale>
<asrwt>0</asrwt>
<pdfrwt beam="1">  1       21 0.35517144E-01 0.23756449E+03</pdfrwt>
<pdfrwt beam="2">  1       21 0.37913282E-01 0.23756449E+03</pdfrwt>
<totfact> 0.50244217E+04</totfact>
</mgrwt>
</event>
<event>
 4    2  0.3972096E+000  0.1967227E+03  0.7546771E-02  0.1152534E+00
         21   -1    0    0  501  502  0.00000000000E+00  0.00000000000E+00  0.25468628055E+03  0.25468628055E+03  0.00000000000E+00 0. -1.
         21   -1    0    0  502  503 -0.00000000000E+00 -0.00000000000E+00 -0.22395361555E+03  0.22395361555E+03  0.00000000000E+00 0.  1.
          6    1    1    2  501    0  0.34187806993E+02  0.87189518789E+02  0.15106456620E+03  0.24803290405E+03  0.17300000000E+03 0. -1.
         -6    1    1    2    0  503 -0.34187806993E+02 -0.87189518789E+02 -0.12033190120E+03  0.23060699205E+03  0.17300000000E+03 0.  1.
<mgrwt>
<rscale>  2 0.19672269E+03</rscale>
<asrwt>0</asrwt>
<pdfrwt beam="1">  1       21 0.39182505E-01 0.19672269E+03</pdfrwt>
<pdfrwt beam="2">  1       21 0.34454402E-01 0.19672269E+03</pdfrwt>
<totfact> 0.50882182E+04</totfact>
</mgrwt>
</event>
<event>
 4    2  0.3972096E+000  0.2385298E+03  0.7546771E-02  0.1120776E+00
         21   -1    0    0  503  502  0.00000000000E+00  0.00000000000E+00  0.68637138211E+02  0.68637138211E+02  0.00000000000E+00 0.  1.
         21   -1    0    0  501  503 -0.00000000000E+00 -0.00000000000E+00 -0.98828395762E+03  0.98828395762E+03  0.00000000000E+00 0. -1.
          6    1    1    2  501    0 -0.14807057435E+03 -0.71011020903E+02 -0.67201674528E+03  0.71309393912E+03  0.17300000000E+03 0. -1.
         -6    1    1    2    0  502  0.14807057435E+03  0.71011020903E+02 -0.24763007413E+03  0.34382715671E+03  0.17300000000E+03 0.  1.
<mgrwt>
<rscale>  2 0.23852979E+03</rscale>
<asrwt>0</asrwt>
<pdfrwt beam="1">  1       21 0.10559560E-01 0.23852979E+03</pdfrwt>
<pdfrwt beam="2">  1       21 0.15204368E+00 0.23852979E+03</pdfrwt>
<totfact> 0.20651504E+04</totfact>
</mgrwt>
</event>
<event>
 4    2  0.3972096E+000  0.3290470E+03  0.7546771E-02  0.1071559E+00
         21   -1    0    0  503  502  0.00000000000E+00  0.00000000000E+00  0.74815441679E+03  0.74815441679E+03  0.00000000000E+00 0.  1.
         21   -1    0    0  501  503 -0.00000000000E+00 -0.00000000000E+00 -0.14475455673E+03  0.14475455673E+03  0.00000000000E+00 0. -1.
          6    1    1    2  501    0  0.12020334336E+03  0.25277281179E+03  0.29467377409E+03  0.44170643109E+03  0.17300000000E+03 0.  1.
         -6    1    1    2    0  502 -0.12020334336E+03 -0.25277281179E+03  0.30872608597E+03  0.45120254243E+03  0.17300000000E+03 0. -1.
<mgrwt>
<rscale>  2 0.32904702E+03</rscale>
<asrwt>0</asrwt>
<pdfrwt beam="1">  1       21 0.11510068E+00 0.32904702E+03</pdfrwt>
<pdfrwt beam="2">  1       21 0.22269932E-01 0.32904702E+03</pdfrwt>
<totfact> 0.10233366E+04</totfact>
</mgrwt>
</event>
<event>
 4    2  0.3972096E+000  0.1822795E+03  0.7546771E-02  0.1165615E+00
         21   -1    0    0  501  502  0.00000000000E+00  0.00000000000E+00  0.37474694982E+03  0.37474694982E+03  0.00000000000E+00 0. -1.
         21   -1    0    0  502  503 -0.00000000000E+00 -0.00000000000E+00 -0.11290489275E+03  0.11290489275E+03  0.00000000000E+00 0. -1.
          6    1    1    2  501    0  0.45469241306E+02  0.35062173888E+02  0.24390474572E+03  0.30449192588E+03  0.17300000000E+03 0. -1.
         -6    1    1    2    0  503 -0.45469241306E+02 -0.35062173888E+02  0.17937311352E+02  0.18315991669E+03  0.17300000000E+03 0. -1.
<mgrwt>
<rscale>  2 0.18227948E+03</rscale>
<asrwt>0</asrwt>
<pdfrwt beam="1">  1       21 0.57653376E-01 0.18227948E+03</pdfrwt>
<pdfrwt beam="2">  1       21 0.17369984E-01 0.18227948E+03</pdfrwt>
<totfact> 0.84974319E+04</totfact>
</mgrwt>
</event>
<event>
 4    2  0.3972096E+000  0.2624985E+03  0.7546771E-02  0.1105651E+00
         21   -1    0    0  501  502  0.00000000000E+00  0.00000000000E+00  0.26618585144E+03  0.26618585144E+03  0.00000000000E+00 0. -1.
         21   -1    0    0  502  503 -0.00000000000E+00 -0.00000000000E+00 -0.27695252821E+03  0.27695252821E+03  0.00000000000E+00 0. -1.
          6    1    1    2  501    0  0.60406733102E+02  0.18795601617E+03  0.64023434275E+02  0.27019333366E+03  0.17300000000E+03 0. -1.
         -6    1    1    2    0  503 -0.60406733102E+02 -0.18795601617E+03 -0.74790111050E+02  0.27294504599E+03  0.17300000000E+03 0. -1.
<mgrwt>
<rscale>  2 0.26249845E+03</rscale>
<asrwt>0</asrwt>
<pdfrwt beam="1">  1       21 0.40951669E-01 0.26249845E+03</pdfrwt>
<pdfrwt beam="2">  1       21 0.42608081E-01 0.26249845E+03</pdfrwt>
<totfact> 0.29412809E+04</totfact>
</mgrwt>
</event>
<event>
 4    2  0.3972096E+000  0.2424118E+03  0.7546771E-02  0.1118197E+00
         21   -1    0    0  501  502  0.00000000000E+00  0.00000000000E+00  0.20209751532E+03  0.20209751532E+03  0.00000000000E+00 0. -1.
         21   -1    0    0  502  503 -0.00000000000E+00 -0.00000000000E+00 -0.52302294808E+03  0.52302294808E+03  0.00000000000E+00 0.  1.
          6    1    1    2  501    0 -0.14736524535E+03  0.84367972731E+02  0.81140311953E+02  0.25563102430E+03  0.17300000000E+03 0. -1.
         -6    1    1    2    0  503  0.14736524535E+03 -0.84367972731E+02 -0.40206574471E+03  0.46948943910E+03  0.17300000000E+03 0.  1.
<mgrwt>
<rscale>  2 0.24241178E+03</rscale>
<asrwt>0</asrwt>
<pdfrwt beam="1">  1       21 0.31091926E-01 0.24241178E+03</pdfrwt>
<pdfrwt beam="2">  1       21 0.80465069E-01 0.24241178E+03</pdfrwt>
<totfact> 0.13087076E+04</totfact>
</mgrwt>
</event>
<event>
 4    2  0.3972096E+000  0.2980038E+03  0.7546771E-02  0.1086243E+00
         21   -1    0    0  503  502  0.00000000000E+00  0.00000000000E+00  0.33516752133E+03  0.33516752133E+03  0.00000000000E+00 0. -1.
         21   -1    0    0  501  503 -0.00000000000E+00 -0.00000000000E+00 -0.31589751553E+03  0.31589751553E+03  0.00000000000E+00 0. -1.
          6    1    1    2  501    0 -0.15442521422E+03 -0.18716329684E+03 -0.12108343368E+03  0.32166355775E+03  0.17300000000E+03 0. -1.
         -6    1    1    2    0  502  0.15442521422E+03  0.18716329684E+03  0.14035343948E+03  0.32940147912E+03  0.17300000000E+03 0. -1.
<mgrwt>
<rscale>  2 0.29800377E+03</rscale>
<asrwt>0</asrwt>
<pdfrwt beam="1">  1       21 0.51564234E-01 0.29800377E+03</pdfrwt>
<pdfrwt beam="2">  1       21 0.48599618E-01 0.29800377E+03</pdfrwt>
<totfact> 0.13654867E+04</totfact>
</mgrwt>
</event>
<event>
 4    2  0.3972096E+000  0.2226561E+03  0.7546771E-02  0.1131918E+00
         21   -1    0    0  503  502  0.00000000000E+00  0.00000000000E+00  0.33422420689E+03  0.33422420689E+03  0.00000000000E+00 0. -1.
         21   -1    0    0  501  503 -0.00000000000E+00 -0.00000000000E+00 -0.20729433595E+03  0.20729433595E+03  0.00000000000E+00 0. -1.
          6    1    1    2  501    0  0.49773003264E+02 -0.13103194561E+03 -0.80939859460E+02  0.23691134096E+03  0.17300000000E+03 0. -1.
         -6    1    1    2    0  502 -0.49773003264E+02  0.13103194561E+03  0.20786973040E+03  0.30460720189E+03  0.17300000000E+03 0. -1.
<mgrwt>
<rscale>  2 0.22265606E+03</rscale>
<asrwt>0</asrwt>
<pdfrwt beam="1">  1       21 0.51419109E-01 0.22265606E+03</pdfrwt>
<pdfrwt beam="2">  1       21 0.31891436E-01 0.22265606E+03</pdfrwt>
<totfact> 0.33456854E+04</totfact>
</mgrwt>
</event>
<event>
 4    2  0.3972096E+000  0.1970167E+03  0.7546771E-02  0.1152281E+00
         21   -1    0    0  501  502  0.00000000000E+00  0.00000000000E+00  0.58954604076E+02  0.58954604076E+02  0.00000000000E+00 0.  1.
         21   -1    0    0  502  503 -0.00000000000E+00 -0.00000000000E+00 -0.78200703192E+03  0.78200703192E+03  0.00000000000E+00 0. -1.
          6    1    1    2  501    0 -0.83960272037E+02  0.42863285537E+02 -0.19435322497E+03  0.27674675172E+03  0.17300000000E+03 0.  1.
         -6    1    1    2    0  503  0.83960272037E+02 -0.42863285537E+02 -0.52869920287E+03  0.56421488428E+03  0.17300000000E+03 0. -1.
<mgrwt>
<rscale>  2 0.19701672E+03</rscale>
<asrwt>0</asrwt>
<pdfrwt beam="1">  1       21 0.90699399E-02 0.19701672E+03</pdfrwt>
<pdfrwt beam="2">  1       21 0.12030876E+00 0.19701672E+03</pdfrwt>
<totfact> 0.50450137E+04</totfact>
</mgrwt>
</event>
<event>
 4    2  0.3972096E+000  0.2177024E+03  0.7546771E-02  0.1135608E+00
         21   -1    0    0  501  502  0.00000000000E+00  0.00000000000E+00  0.93796799688E+02  0.93796799688E+02  0.00000000000E+00 0. -1.
         21   -1    0    0  502  503 -0.00000000000E+00 -0.00000000000E+00 -0.64996629854E+03  0.64996629854E+03  0.00000000000E+00 0. -1.
          6    1    1    2  501    0 -0.28962343802E+01 -0.13212469719E+03 -0.10263122959E+03  0.24068131018E+03  0.17300000000E+03 0. -1.
         -6    1    1    2    0  503  0.28962343802E+01  0.13212469719E+03 -0.45353826926E+03  0.50308178805E+03  0.17300000000E+03 0. -1.
<mgrwt>
<rscale>  2 0.21770237E+03</rscale>
<asrwt>0</asrwt>
<pdfrwt beam="1">  1       21 0.14430276E-01 0.21770237E+03</pdfrwt>
<pdfrwt beam="2">  1       21 0.99994819E-01 0.21770237E+03</pdfrwt>
<totfact> 0.34090678E+04</totfact>
</mgrwt>
</event>
<event>
 4    2  0.3972096E+000  0.1914115E+03  0.7546771E-02  0.1157194E+00
         21   -1    0    0  501  502  0.00000000000E+00  0.00000000000E+00  0.40443288703E+03  0.40443288703E+03  0.00000000000E+00 0. -1.
         21   -1    0    0  502  503 -0.00000000000E+00 -0.00000000000E+00 -0.91201297282E+02  0.91201297282E+02  0.00000000000E+00 0. -1.
          6    1    1    2  501    0  0.79124139467E+02  0.21183012887E+02  0.17687282973E+03  0.26061916157E+03  0.17300000000E+03 0. -1.
         -6    1    1    2    0  503 -0.79124139467E+02 -0.21183012887E+02  0.13635876003E+03  0.23501502275E+03  0.17300000000E+03 0. -1.
<mgrwt>
<rscale>  2 0.19141147E+03</rscale>
<asrwt>0</asrwt>
<pdfrwt beam="1">  1       21 0.62220443E-01 0.19141147E+03</pdfrwt>
<pdfrwt beam="2">  1       21 0.14030969E-01 0.19141147E+03</pdfrwt>
<totfact> 0.10617041E+05</totfact>
</mgrwt>
</event>
<event>
 4    2  0.3972096E+000  0.2050766E+03  0.7546771E-02  0.1145525E+00
         21   -1    0    0  501  502  0.00000000000E+00  0.00000000000E+00  0.18900279057E+04  0.18900279057E+04  0.00000000000E+00 0. -1.
         21   -1    0    0  502  503 -0.00000000000E+00 -0.00000000000E+00 -0.22643763124E+02  0.22643763124E+02  0.00000000000E+00 0.  1.
          6    1    1    2  501    0  0.10843152704E+03  0.19236125733E+02  0.80786109594E+03  0.83348423796E+03  0.17300000000E+03 0. -1.
         -6    1    1    2    0  503 -0.10843152704E+03 -0.19236125733E+02  0.10595230466E+04  0.10791874309E+04  0.17300000000E+03 0.  1.
<mgrwt>
<rscale>  2 0.20507663E+03</rscale>
<asrwt>0</asrwt>
<pdfrwt beam="1">  1       21 0.29077340E+00 0.20507663E+03</pdfrwt>
<pdfrwt beam="2">  1       21 0.34836573E-02 0.20507663E+03</pdfrwt>
<totfact> 0.18817450E+04</totfact>
</mgrwt>
</event>
<event>
 4    2  0.3972096E+000  0.2242128E+03  0.7546771E-02  0.1130781E+00
         21   -1    0    0  501  502  0.00000000000E+00  0.00000000000E+00  0.13369942560E+04  0.13369942560E+04  0.00000000000E+00 0.  1.
         21   -1    0    0  502  503 -0.00000000000E+00 -0.00000000000E+00 -0.40010691534E+02  0.40010691534E+02  0.00000000000E+00 0.  1.
          6    1    1    2  501    0 -0.14123538195E+03 -0.19872710027E+02  0.47950095985E+03  0.52933215301E+03  0.17300000000E+03 0.  1.
         -6    1    1    2    0  503  0.14123538195E+03  0.19872710027E+02  0.81748260465E+03  0.84767279455E+03  0.17300000000E+03 0.  1.
<mgrwt>
<rscale>  2 0.22421275E+03</rscale>
<asrwt>0</asrwt>
<pdfrwt beam="1">  1       21 0.20569139E+00 0.22421275E+03</pdfrwt>
<pdfrwt beam="2">  1       21 0.61554920E-02 0.22421275E+03</pdfrwt>
<totfact> 0.22783420E+04</totfact>
</mgrwt>
</event>
<event>
 4    2  0.3972096E+000  0.1750928E+03  0.7546771E-02  0.1172639E+00
         21   -1    0    0  501  502  0.00000000000E+00  0.00000000000E+00  0.22535073027E+03  0.22535073027E+03  0.00000000000E+00 0. -1.
         21   -1    0    0  502  503 -0.00000000000E+00 -0.00000000000E+00 -0.15619879550E+03  0.15619879550E+03  0.00000000000E+00 0. -1.
          6    1    1    2  501    0  0.14772974230E+02  0.22588900291E+02  0.10310534779E+03  0.20319500960E+03  0.17300000000E+03 0. -1.
         -6    1    1    2    0  503 -0.14772974230E+02 -0.22588900291E+02 -0.33953413019E+02  0.17835451617E+03  0.17300000000E+03 0. -1.
<mgrwt>
<rscale>  2 0.17509283E+03</rscale>
<asrwt>0</asrwt>
<pdfrwt beam="1">  1       21 0.34669343E-01 0.17509283E+03</pdfrwt>
<pdfrwt beam="2">  1       21 0.24030584E-01 0.17509283E+03</pdfrwt>
<totfact> 0.13175526E+05</totfact>
</mgrwt>
</event>
<event>
 4    2  0.3972096E+000  0.4463018E+03  0.7546771E-02  0.1028831E+00
         21   -1    0    0  503  502  0.00000000000E+00  0.00000000000E+00  0.48326549004E+03  0.48326549004E+03  0.00000000000E+00 0.  1.
         21   -1    0    0  501  503 -0.00000000000E+00 -0.00000000000E+00 -0.10632050899E+04  0.10632050899E+04  0.00000000000E+00 0. -1.
          6    1    1    2  501    0  0.35870081950E+03  0.20146973824E+03 -0.89504153029E+03  0.10001423270E+04  0.17300000000E+03 0. -1.
         -6    1    1    2    0  502 -0.35870081950E+03 -0.20146973824E+03  0.31510193047E+03  0.54632825290E+03  0.17300000000E+03 0.  1.
<mgrwt>
<rscale>  2 0.44630184E+03</rscale>
<asrwt>0</asrwt>
<pdfrwt beam="1">  1       21 0.74348537E-01 0.44630184E+03</pdfrwt>
<pdfrwt beam="2">  1       21 0.16357001E+00 0.44630184E+03</pdfrwt>
<totfact> 0.31687742E+02</totfact>
</mgrwt>
</event>
<event>
 4    2  0.3972096E+000  0.1799771E+03  0.7546771E-02  0.1167825E+00
         21   -1    0    0  501  502  0.00000000000E+00  0.00000000000E+00  0.13595950486E+03  0.13595950486E+03  0.00000000000E+00 0. -1.
         21   -1    0    0  502  503 -0.00000000000E+00 -0.00000000000E+00 -0.28054574156E+03  0.28054574156E+03  0.00000000000E+00 0. -1.
          6    1    1    2  501    0 -0.34312347434E+02 -0.35852890205E+02  0.85715957560E+01  0.18018112880E+03  0.17300000000E+03 0. -1.
         -6    1    1    2    0  503  0.34312347434E+02  0.35852890205E+02 -0.15315783246E+03  0.23632411761E+03  0.17300000000E+03 0. -1.
<mgrwt>
<rscale>  2 0.17997713E+03</rscale>
<asrwt>0</asrwt>
<pdfrwt beam="1">  1       21 0.20916847E-01 0.17997713E+03</pdfrwt>
<pdfrwt beam="2">  1       21 0.43160883E-01 0.17997713E+03</pdfrwt>
<totfact> 0.11005843E+05</totfact>
</mgrwt>
</event>
<event>
 4    2  0.3972096E+000  0.1836477E+03  0.7546771E-02  0.1164319E+00
         21   -1    0    0  503  502  0.00000000000E+00  0.00000000000E+00  0.37028795806E+02  0.37028795806E+02  0.00000000000E+00 0.  1.
         21   -1    0    0  501  503 -0.00000000000E+00 -0.00000000000E+00 -0.20678104251E+04  0.20678104251E+04  0.00000000000E+00 0.  1.
          6    1    1    2  501    0 -0.27736743991E+02  0.55028734478E+02 -0.18026157749E+04  0.18119465004E+04  0.17300000000E+03 0.  1.
         -6    1    1    2    0  502  0.27736743991E+02 -0.55028734478E+02 -0.22816585441E+03  0.29289272047E+03  0.17300000000E+03 0.  1.
<mgrwt>
<rscale>  2 0.18364773E+03</rscale>
<asrwt>0</asrwt>
<pdfrwt beam="1">  1       21 0.56967367E-02 0.18364773E+03</pdfrwt>
<pdfrwt beam="2">  1       21 0.31812474E+00 0.18364773E+03</pdfrwt>
<totfact> 0.58453464E+03</totfact>
</mgrwt>
</event>
<event>
 4    2  0.3972096E+000  0.2673693E+03  0.7546771E-02  0.1102795E+00
         21   -1    0    0  501  502  0.00000000000E+00  0.00000000000E+00  0.74898843958E+03  0.74898843958E+03  0.00000000000E+00 0. -1.
         21   -1    0    0  502  503 -0.00000000000E+00 -0.00000000000E+00 -0.95689363092E+02  0.95689363092E+02  0.00000000000E+00 0. -1.
          6    1    1    2  501    0  0.60333771831E+02  0.19472328496E+03  0.30525571096E+03  0.40579227543E+03  0.17300000000E+03 0. -1.
         -6    1    1    2    0  503 -0.60333771831E+02 -0.19472328496E+03  0.34804336553E+03  0.43888552723E+03  0.17300000000E+03 0. -1.
<mgrwt>
<rscale>  2 0.26736926E+03</rscale>
<asrwt>0</asrwt>
<pdfrwt beam="1">  1       21 0.11522899E+00 0.26736926E+03</pdfrwt>
<pdfrwt beam="2">  1       21 0.14721441E-01 0.26736926E+03</pdfrwt>
<totfact> 0.22741305E+04</totfact>
</mgrwt>
</event>
<event>
 4    2  0.3972096E+000  0.1827422E+03  0.7546771E-02  0.1165175E+00
         21   -1    0    0  503  502  0.00000000000E+00  0.00000000000E+00  0.72509836619E+02  0.72509836619E+02  0.00000000000E+00 0.  1.
         21   -1    0    0  501  503 -0.00000000000E+00 -0.00000000000E+00 -0.47260312017E+03  0.47260312017E+03  0.00000000000E+00 0.  1.
          6    1    1    2  501    0  0.29739724792E+01  0.58795094668E+02 -0.15652725080E+03  0.24061481233E+03  0.17300000000E+03 0.  1.
         -6    1    1    2    0  502 -0.29739724792E+01 -0.58795094668E+02 -0.24356603275E+03  0.30449814446E+03  0.17300000000E+03 0.  1.
<mgrwt>
<rscale>  2 0.18274219E+03</rscale>
<asrwt>0</asrwt>
<pdfrwt beam="1">  1       21 0.11155359E-01 0.18274219E+03</pdfrwt>
<pdfrwt beam="2">  1       21 0.72708174E-01 0.18274219E+03</pdfrwt>
<totfact> 0.11429987E+05</totfact>
</mgrwt>
</event>
<event>
 4    2  0.3972096E+000  0.2501950E+03  0.7546771E-02  0.1113182E+00
         21   -1    0    0  503  502  0.00000000000E+00  0.00000000000E+00  0.12116648196E+04  0.12116648196E+04  0.00000000000E+00 0.  1.
         21   -1    0    0  501  503 -0.00000000000E+00 -0.00000000000E+00 -0.60360843724E+02  0.60360843724E+02  0.00000000000E+00 0. -1.
          6    1    1    2  501    0 -0.10834557575E+03  0.14467120280E+03  0.81709177447E+03  0.85453875782E+03  0.17300000000E+03 0.  1.
         -6    1    1    2    0  502  0.10834557575E+03 -0.14467120280E+03  0.33421220141E+03  0.41748690551E+03  0.17300000000E+03 0. -1.
<mgrwt>
<rscale>  2 0.25019497E+03</rscale>
<asrwt>0</asrwt>
<pdfrwt beam="1">  1       21 0.18640995E+00 0.25019497E+03</pdfrwt>
<pdfrwt beam="2">  1       21 0.92862845E-02 0.25019497E+03</pdfrwt>
<totfact> 0.14634943E+04</totfact>
</mgrwt>
</event>
<event>
 4    2  0.3972096E+000  0.2408089E+03  0.7546771E-02  0.1119255E+00
         21   -1    0    0  501  502  0.00000000000E+00  0.00000000000E+00  0.69274805179E+03  0.69274805179E+03  0.00000000000E+00 0.  1.
         21   -1    0    0  502  503 -0.00000000000E+00 -0.00000000000E+00 -0.46891158938E+03  0.46891158938E+03  0.00000000000E+00 0. -1.
          6    1    1    2  501    0  0.73640215050E+02  0.15045606987E+03  0.63835752139E+03  0.68226771531E+03  0.17300000000E+03 0.  1.
         -6    1    1    2    0  503 -0.73640215050E+02 -0.15045606987E+03 -0.41452105898E+03  0.47939192585E+03  0.17300000000E+03 0. -1.
<mgrwt>
<rscale>  2 0.24080887E+03</rscale>
<asrwt>0</asrwt>
<pdfrwt beam="1">  1       21 0.10657662E+00 0.24080887E+03</pdfrwt>
<pdfrwt beam="2">  1       21 0.72140244E-01 0.24080887E+03</pdfrwt>
<totfact> 0.11700593E+03</totfact>
</mgrwt>
</event>
<event>
 4    2  0.3972096E+000  0.1783066E+03  0.7546771E-02  0.1169452E+00
         21   -1    0    0  503  502  0.00000000000E+00  0.00000000000E+00  0.17203972598E+03  0.17203972598E+03  0.00000000000E+00 0.  1.
         21   -1    0    0  501  503 -0.00000000000E+00 -0.00000000000E+00 -0.27420241180E+03  0.27420241180E+03  0.00000000000E+00 0.  1.
          6    1    1    2  501    0 -0.29674060835E+02 -0.31363802842E+02 -0.17848308771E+03  0.25228842743E+03  0.17300000000E+03 0.  1.
         -6    1    1    2    0  502  0.29674060835E+02  0.31363802842E+02  0.76320401896E+02  0.19395371036E+03  0.17300000000E+03 0.  1.
<mgrwt>
<rscale>  2 0.17830658E+03</rscale>
<asrwt>0</asrwt>
<pdfrwt beam="1">  1       21 0.26467650E-01 0.17830658E+03</pdfrwt>
<pdfrwt beam="2">  1       21 0.42184986E-01 0.17830658E+03</pdfrwt>
<totfact> 0.73874724E+04</totfact>
</mgrwt>
</event>
<event>
 4    2  0.3972096E+000  0.1835656E+03  0.7546771E-02  0.1164396E+00
         21   -1    0    0  503  502  0.00000000000E+00  0.00000000000E+00  0.37006543234E+02  0.37006543234E+02  0.00000000000E+00 0. -1.
         21   -1    0    0  501  503 -0.00000000000E+00 -0.00000000000E+00 -0.92899910676E+03  0.92899910676E+03  0.00000000000E+00 0. -1.
          6    1    1    2  501    0  0.13103384130E+01 -0.61364439287E+02 -0.51406202578E+03  0.54585353140E+03  0.17300000000E+03 0. -1.
         -6    1    1    2    0  502 -0.13103384130E+01  0.61364439287E+02 -0.37793053774E+03  0.42015211859E+03  0.17300000000E+03 0. -1.
<mgrwt>
<rscale>  2 0.18356555E+03</rscale>
<asrwt>0</asrwt>
<pdfrwt beam="1">  1       21 0.56933140E-02 0.18356555E+03</pdfrwt>
<pdfrwt beam="2">  1       21 0.14292295E+00 0.18356555E+03</pdfrwt>
<totfact> 0.73485224E+04</totfact>
</mgrwt>
</event>
<event>
 4    2  0.3972096E+000  0.2243284E+03  0.7546771E-02  0.1130697E+00
         21   -1    0    0  503  502  0.00000000000E+00  0.00000000000E+00  0.24794670872E+03  0.24794670872E+03  0.00000000000E+00 0. -1.
         21   -1    0    0  501  503 -0.00000000000E+00 -0.00000000000E+00 -0.20327283677E+03  0.20327283677E+03  0.00000000000E+00 0. -1.
          6    1    1    2  501    0 -0.78611988550E+02  0.11922408263E+03  0.31189758383E+02  0.22648626371E+03  0.17300000000E+03 0. -1.
         -6    1    1    2    0  502  0.78611988550E+02 -0.11922408263E+03  0.13484113564E+02  0.22473328178E+03  0.17300000000E+03 0. -1.
<mgrwt>
<rscale>  2 0.22432839E+03</rscale>
<asrwt>0</asrwt>
<pdfrwt beam="1">  1       21 0.38145648E-01 0.22432839E+03</pdfrwt>
<pdfrwt beam="2">  1       21 0.31272744E-01 0.22432839E+03</pdfrwt>
<totfact> 0.64217748E+04</totfact>
</mgrwt>
</event>
<event>
 4    2  0.3972096E+000  0.2273995E+03  0.7546771E-02  0.1128484E+00
         21   -1    0    0  503  502  0.00000000000E+00  0.00000000000E+00  0.41958925012E+03  0.41958925012E+03  0.00000000000E+00 0.  1.
         21   -1    0    0  501  503 -0.00000000000E+00 -0.00000000000E+00 -0.13274173917E+03  0.13274173917E+03  0.00000000000E+00 0. -1.
          6    1    1    2  501    0  0.14510315786E+03 -0.26955735978E+02  0.69540220753E+02  0.23779482842E+03  0.17300000000E+03 0. -1.
         -6    1    1    2    0  502 -0.14510315786E+03  0.26955735978E+02  0.21730729020E+03  0.31453616087E+03  0.17300000000E+03 0.  1.
<mgrwt>
<rscale>  2 0.22739951E+03</rscale>
<asrwt>0</asrwt>
<pdfrwt beam="1">  1       21 0.64552192E-01 0.22739951E+03</pdfrwt>
<pdfrwt beam="2">  1       21 0.20421806E-01 0.22739951E+03</pdfrwt>
<totfact> 0.48312826E+04</totfact>
</mgrwt>
</event>
<event>
 4    2  0.3972096E+000  0.1767815E+03  0.7546771E-02  0.1170955E+00
         21   -1    0    0  501  502  0.00000000000E+00  0.00000000000E+00  0.42892914982E+03  0.42892914982E+03  0.00000000000E+00 0. -1.
         21   -1    0    0  502  503 -0.00000000000E+00 -0.00000000000E+00 -0.14959898048E+03  0.14959898048E+03  0.00000000000E+00 0. -1.
          6    1    1    2  501    0  0.34964285834E+02 -0.10009585365E+02  0.34684074899E+03  0.38929448782E+03  0.17300000000E+03 0. -1.
         -6    1    1    2    0  503 -0.34964285834E+02  0.10009585365E+02 -0.67510579659E+02  0.18923364249E+03  0.17300000000E+03 0. -1.
<mgrwt>
<rscale>  2 0.17678148E+03</rscale>
<asrwt>0</asrwt>
<pdfrwt beam="1">  1       21 0.65989099E-01 0.17678148E+03</pdfrwt>
<pdfrwt beam="2">  1       21 0.23015228E-01 0.17678148E+03</pdfrwt>
<totfact> 0.37691872E+04</totfact>
</mgrwt>
</event>
<event>
 4    2  0.3972096E+000  0.3061517E+03  0.7546771E-02  0.1082205E+00
         21   -1    0    0  503  502  0.00000000000E+00  0.00000000000E+00  0.11909859545E+03  0.11909859545E+03  0.00000000000E+00 0.  1.
         21   -1    0    0  501  503 -0.00000000000E+00 -0.00000000000E+00 -0.10228928906E+04  0.10228928906E+04  0.00000000000E+00 0. -1.
          6    1    1    2  501    0  0.11054812537E+03  0.22711011273E+03 -0.72611036290E+03  0.78801342022E+03  0.17300000000E+03 0. -1.
         -6    1    1    2    0  502 -0.11054812537E+03 -0.22711011273E+03 -0.17768393228E+03  0.35397806587E+03  0.17300000000E+03 0.  1.
<mgrwt>
<rscale>  2 0.30615175E+03</rscale>
<asrwt>0</asrwt>
<pdfrwt beam="1">  1       21 0.18322861E-01 0.30615175E+03</pdfrwt>
<pdfrwt beam="2">  1       21 0.15736813E+00 0.30615175E+03</pdfrwt>
<totfact> 0.66367488E+03</totfact>
</mgrwt>
</event>
<event>
 4    2  0.3972096E+000  0.3087564E+03  0.7546771E-02  0.1080944E+00
         21   -1    0    0  503  502  0.00000000000E+00  0.00000000000E+00  0.14048300756E+03  0.14048300756E+03  0.00000000000E+00 0.  1.
         21   -1    0    0  501  503 -0.00000000000E+00 -0.00000000000E+00 -0.76352797318E+03  0.76352797318E+03  0.00000000000E+00 0.  1.
          6    1    1    2  501    0  0.25473692153E+02 -0.25446529527E+03 -0.16076468343E+03  0.34810311537E+03  0.17300000000E+03 0.  1.
         -6    1    1    2    0  502 -0.25473692153E+02  0.25446529527E+03 -0.46228028218E+03  0.55590786538E+03  0.17300000000E+03 0.  1.
<mgrwt>
<rscale>  2 0.30875637E+03</rscale>
<asrwt>0</asrwt>
<pdfrwt beam="1">  1       21 0.21612771E-01 0.30875637E+03</pdfrwt>
<pdfrwt beam="2">  1       21 0.11746584E+00 0.30875637E+03</pdfrwt>
<totfact> 0.10394216E+04</totfact>
</mgrwt>
</event>
<event>
 4    2  0.3972096E+000  0.1763644E+03  0.7546771E-02  0.1171369E+00
         21   -1    0    0  501  502  0.00000000000E+00  0.00000000000E+00  0.27628400620E+02  0.27628400620E+02  0.00000000000E+00 0.  1.
         21   -1    0    0  502  503 -0.00000000000E+00 -0.00000000000E+00 -0.11486031929E+04  0.11486031929E+04  0.00000000000E+00 0.  1.
          6    1    1    2  501    0 -0.91087004043E+01 -0.33051998608E+02 -0.47764452740E+03  0.50916470576E+03  0.17300000000E+03 0. -1.
         -6    1    1    2    0  503  0.91087004043E+01  0.33051998608E+02 -0.64333026484E+03  0.66706688772E+03  0.17300000000E+03 0. -1.
<mgrwt>
<rscale>  2 0.17636440E+03</rscale>
<asrwt>0</asrwt>
<pdfrwt beam="1">  1       21 0.42505230E-02 0.17636440E+03</pdfrwt>
<pdfrwt beam="2">  1       21 0.17670819E+00 0.17636440E+03</pdfrwt>
<totfact> 0.68455952E+04</totfact>
</mgrwt>
</event>
<event>
 4    2  0.3972096E+000  0.1802584E+03  0.7546771E-02  0.1167553E+00
         21   -1    0    0  503  502  0.00000000000E+00  0.00000000000E+00  0.41402570634E+02  0.41402570634E+02  0.00000000000E+00 0.  1.
         21   -1    0    0  501  503 -0.00000000000E+00 -0.00000000000E+00 -0.11412505577E+04  0.11412505577E+04  0.00000000000E+00 0.  1.
          6    1    1    2  501    0  0.22603664992E+02 -0.45311672480E+02 -0.21945433273E+03  0.28399520681E+03  0.17300000000E+03 0.  1.
         -6    1    1    2    0  502 -0.22603664992E+02  0.45311672480E+02 -0.88039365434E+03  0.89865792153E+03  0.17300000000E+03 0.  1.
<mgrwt>
<rscale>  2 0.18025835E+03</rscale>
<asrwt>0</asrwt>
<pdfrwt beam="1">  1       21 0.63696260E-02 0.18025835E+03</pdfrwt>
<pdfrwt beam="2">  1       21 0.17557702E+00 0.18025835E+03</pdfrwt>
<totfact> 0.35006940E+04</totfact>
</mgrwt>
</event>
<event>
 4    2  0.3972096E+000  0.1759094E+03  0.7546771E-02  0.1171822E+00
         21   -1    0    0  501  502  0.00000000000E+00  0.00000000000E+00  0.11795535331E+03  0.11795535331E+03  0.00000000000E+00 0.  1.
         21   -1    0    0  502  503 -0.00000000000E+00 -0.00000000000E+00 -0.29751667598E+03  0.29751667598E+03  0.00000000000E+00 0.  1.
          6    1    1    2  501    0  0.27087453306E+02 -0.16774861315E+02 -0.18347765169E+02  0.17686369493E+03  0.17300000000E+03 0. -1.
         -6    1    1    2    0  503 -0.27087453306E+02  0.16774861315E+02 -0.16121355750E+03  0.23860833435E+03  0.17300000000E+03 0. -1.
<mgrwt>
<rscale>  2 0.17590943E+03</rscale>
<asrwt>0</asrwt>
<pdfrwt beam="1">  1       21 0.18146978E-01 0.17590943E+03</pdfrwt>
<pdfrwt beam="2">  1       21 0.45771796E-01 0.17590943E+03</pdfrwt>
<totfact> 0.12729184E+05</totfact>
</mgrwt>
</event>
<event>
 4    2  0.3972096E+000  0.2775921E+03  0.7546771E-02  0.1097011E+00
         21   -1    0    0  503  502  0.00000000000E+00  0.00000000000E+00  0.86298691655E+03  0.86298691655E+03  0.00000000000E+00 0.  1.
         21   -1    0    0  501  503 -0.00000000000E+00 -0.00000000000E+00 -0.14404405144E+03  0.14404405144E+03  0.00000000000E+00 0. -1.
          6    1    1    2  501    0 -0.19203470402E+03  0.10124731507E+03  0.49038650725E+02  0.28189029005E+03  0.17300000000E+03 0. -1.
         -6    1    1    2    0  502  0.19203470402E+03 -0.10124731507E+03  0.66990421439E+03  0.72514067794E+03  0.17300000000E+03 0.  1.
<mgrwt>
<rscale>  2 0.27759205E+03</rscale>
<asrwt>0</asrwt>
<pdfrwt beam="1">  1       21 0.13276721E+00 0.27759205E+03</pdfrwt>
<pdfrwt beam="2">  1       21 0.22160624E-01 0.27759205E+03</pdfrwt>
<totfact> 0.73791206E+03</totfact>
</mgrwt>
</event>
<event>
 4    2  0.3972096E+000  0.3494674E+03  0.7546771E-02  0.1062834E+00
         21   -1    0    0  501  502  0.00000000000E+00  0.00000000000E+00  0.11378276059E+04  0.11378276059E+04  0.00000000000E+00 0.  1.
         21   -1    0    0  502  503 -0.00000000000E+00 -0.00000000000E+00 -0.10834822507E+03  0.10834822507E+03  0.00000000000E+00 0. -1.
          6    1    1    2  501    0 -0.46805539036E+02 -0.30001282343E+03  0.57502772166E+03  0.67289251250E+03  0.17300000000E+03 0. -1.
         -6    1    1    2    0  503  0.46805539036E+02  0.30001282343E+03  0.45445165912E+03  0.57328331842E+03  0.17300000000E+03 0.  1.
<mgrwt>
<rscale>  2 0.34946738E+03</rscale>
<asrwt>0</asrwt>
<pdfrwt beam="1">  1       21 0.17505039E+00 0.34946738E+03</pdfrwt>
<pdfrwt beam="2">  1       21 0.16668959E-01 0.34946738E+03</pdfrwt>
<totfact> 0.57571575E+03</totfact>
</mgrwt>
</event>
<event>
 4    2  0.3972096E+000  0.2796011E+03  0.7546771E-02  0.1095907E+00
         21   -1    0    0  501  502  0.00000000000E+00  0.00000000000E+00  0.11186377700E+04  0.11186377700E+04  0.00000000000E+00 0. -1.
         21   -1    0    0  502  503 -0.00000000000E+00 -0.00000000000E+00 -0.89916088643E+02  0.89916088643E+02  0.00000000000E+00 0.  1.
          6    1    1    2  501    0 -0.45917669768E+02 -0.21480065132E+03  0.79956923427E+03  0.84704646424E+03  0.17300000000E+03 0. -1.
         -6    1    1    2    0  503  0.45917669768E+02  0.21480065132E+03  0.22915244711E+03  0.36150739442E+03  0.17300000000E+03 0.  1.
<mgrwt>
<rscale>  2 0.27960106E+03</rscale>
<asrwt>0</asrwt>
<pdfrwt beam="1">  1       21 0.17209811E+00 0.27960106E+03</pdfrwt>
<pdfrwt beam="2">  1       21 0.13833245E-01 0.27960106E+03</pdfrwt>
<totfact> 0.88328551E+03</totfact>
</mgrwt>
</event>
<event>
 4    2  0.3972096E+000  0.1935524E+03  0.7546771E-02  0.1155296E+00
         21   -1    0    0  503  502  0.00000000000E+00  0.00000000000E+00  0.38013877037E+03  0.38013877037E+03  0.00000000000E+00 0. -1.
         21   -1    0    0  501  503 -0.00000000000E+00 -0.00000000000E+00 -0.11083554798E+03  0.11083554798E+03  0.00000000000E+00 0. -1.
          6    1    1    2  501    0 -0.51945656256E+02 -0.69535445464E+02  0.52919386796E+02  0.20065640004E+03  0.17300000000E+03 0. -1.
         -6    1    1    2    0  502  0.51945656256E+02  0.69535445464E+02  0.21638383560E+03  0.29031791830E+03  0.17300000000E+03 0. -1.
<mgrwt>
<rscale>  2 0.19355239E+03</rscale>
<asrwt>0</asrwt>
<pdfrwt beam="1">  1       21 0.58482887E-01 0.19355239E+03</pdfrwt>
<pdfrwt beam="2">  1       21 0.17051623E-01 0.19355239E+03</pdfrwt>
<totfact> 0.84896006E+04</totfact>
</mgrwt>
</event>
<event>
 4    2  0.3972096E+000  0.1825238E+03  0.7546771E-02  0.1165383E+00
         21   -1    0    0  503  502  0.00000000000E+00  0.00000000000E+00  0.60201867738E+02  0.60201867738E+02  0.00000000000E+00 0.  1.
         21   -1    0    0  501  503 -0.00000000000E+00 -0.00000000000E+00 -0.66905521516E+03  0.66905521516E+03  0.00000000000E+00 0.  1.
          6    1    1    2  501    0 -0.55562133756E+02  0.17285280737E+02 -0.45603626492E+03  0.49120668415E+03  0.17300000000E+03 0.  1.
         -6    1    1    2    0  502  0.55562133756E+02 -0.17285280737E+02 -0.15281708251E+03  0.23805039875E+03  0.17300000000E+03 0.  1.
<mgrwt>
<rscale>  2 0.18252378E+03</rscale>
<asrwt>0</asrwt>
<pdfrwt beam="1">  1       21 0.92618261E-02 0.18252378E+03</pdfrwt>
<pdfrwt beam="2">  1       21 0.10293157E+00 0.18252378E+03</pdfrwt>
<totfact> 0.71506118E+04</totfact>
</mgrwt>
</event>
<event>
 4    2  0.3972096E+000  0.1962950E+03  0.7546771E-02  0.1152903E+00
         21   -1    0    0  501  502  0.00000000000E+00  0.00000000000E+00  0.48665107629E+03  0.48665107629E+03  0.00000000000E+00 0. -1.
         21   -1    0    0  502  503 -0.00000000000E+00 -0.00000000000E+00 -0.31794166726E+03  0.31794166726E+03  0.00000000000E+00 0.  1.
          6    1    1    2  501    0 -0.54238548641E+02 -0.75238960631E+02  0.43297859359E+03  0.47539686985E+03  0.17300000000E+03 0. -1.
         -6    1    1    2    0  503  0.54238548641E+02  0.75238960631E+02 -0.26426918456E+03  0.32919587370E+03  0.17300000000E+03 0.  1.
<mgrwt>
<rscale>  2 0.19629499E+03</rscale>
<asrwt>0</asrwt>
<pdfrwt beam="1">  1       21 0.74869396E-01 0.19629499E+03</pdfrwt>
<pdfrwt beam="2">  1       21 0.48914103E-01 0.19629499E+03</pdfrwt>
<totfact> 0.63490655E+03</totfact>
</mgrwt>
</event>
<event>
 4    2  0.3972096E+000  0.3628580E+03  0.7546771E-02  0.1057458E+00
         21   -1    0    0  503  502  0.00000000000E+00  0.00000000000E+00  0.13743849993E+04  0.13743849993E+04  0.00000000000E+00 0. -1.
         21   -1    0    0  501  503 -0.00000000000E+00 -0.00000000000E+00 -0.23374483497E+03  0.23374483497E+03  0.00000000000E+00 0.  1.
          6    1    1    2  501    0 -0.31175386308E+03  0.67427355092E+02 -0.47373389303E+02  0.36593736811E+03  0.17300000000E+03 0.  1.
         -6    1    1    2    0  502  0.31175386308E+03 -0.67427355092E+02  0.11880135537E+04  0.12421924662E+04  0.17300000000E+03 0. -1.
<mgrwt>
<rscale>  2 0.36285799E+03</rscale>
<asrwt>0</asrwt>
<pdfrwt beam="1">  1       21 0.21144384E+00 0.36285799E+03</pdfrwt>
<pdfrwt beam="2">  1       21 0.35960745E-01 0.36285799E+03</pdfrwt>
<totfact> 0.73398705E+02</totfact>
</mgrwt>
</event>
<event>
 4    2  0.3972096E+000  0.1930419E+03  0.7546771E-02  0.1155746E+00
         21   -1    0    0  501  502  0.00000000000E+00  0.00000000000E+00  0.31502896875E+03  0.31502896875E+03  0.00000000000E+00 0.  1.
         21   -1    0    0  502  503 -0.00000000000E+00 -0.00000000000E+00 -0.14412348970E+03  0.14412348970E+03  0.00000000000E+00 0.  1.
          6    1    1    2  501    0  0.50409451146E+00 -0.85649985469E+02  0.18264696605E+03  0.26575381151E+03  0.17300000000E+03 0.  1.
         -6    1    1    2    0  503 -0.50409451146E+00  0.85649985469E+02 -0.11741486998E+02  0.19339864694E+03  0.17300000000E+03 0.  1.
<mgrwt>
<rscale>  2 0.19304190E+03</rscale>
<asrwt>0</asrwt>
<pdfrwt beam="1">  1       21 0.48465995E-01 0.19304190E+03</pdfrwt>
<pdfrwt beam="2">  1       21 0.22172845E-01 0.19304190E+03</pdfrwt>
<totfact> 0.77322632E+04</totfact>
</mgrwt>
</event>
<event>
 4    2  0.3972096E+000  0.1827075E+03  0.7546771E-02  0.1165208E+00
         21   -1    0    0  503  502  0.00000000000E+00  0.00000000000E+00  0.16853030846E+03  0.16853030846E+03  0.00000000000E+00 0. -1.
         21   -1    0    0  501  503 -0.00000000000E+00 -0.00000000000E+00 -0.89737428930E+03  0.89737428930E+03  0.00000000000E+00 0. -1.
          6    1    1    2  501    0  0.17845822545E+02 -0.55987082807E+02 -0.83489245139E+03  0.85465047371E+03  0.17300000000E+03 0. -1.
         -6    1    1    2    0  502 -0.17845822545E+02  0.55987082807E+02  0.10604847055E+03  0.21125412405E+03  0.17300000000E+03 0. -1.
<mgrwt>
<rscale>  2 0.18270749E+03</rscale>
<asrwt>0</asrwt>
<pdfrwt beam="1">  1       21 0.25927740E-01 0.18270749E+03</pdfrwt>
<pdfrwt beam="2">  1       21 0.13805758E+00 0.18270749E+03</pdfrwt>
<totfact> 0.52841020E+03</totfact>
</mgrwt>
</event>
<event>
 4    2  0.3972096E+000  0.2019549E+03  0.7546771E-02  0.1148100E+00
         21   -1    0    0  503  502  0.00000000000E+00  0.00000000000E+00  0.26904423401E+03  0.26904423401E+03  0.00000000000E+00 0. -1.
         21   -1    0    0  501  503 -0.00000000000E+00 -0.00000000000E+00 -0.34043453791E+03  0.34043453791E+03  0.00000000000E+00 0. -1.
          6    1    1    2  501    0 -0.94770635658E+02 -0.43304857565E+02 -0.26265976276E+03  0.33132451622E+03  0.17300000000E+03 0. -1.
         -6    1    1    2    0  502  0.94770635658E+02  0.43304857565E+02  0.19126945886E+03  0.27815425570E+03  0.17300000000E+03 0. -1.
<mgrwt>
<rscale>  2 0.20195491E+03</rscale>
<asrwt>0</asrwt>
<pdfrwt beam="1">  1       21 0.41391420E-01 0.20195491E+03</pdfrwt>
<pdfrwt beam="2">  1       21 0.52374545E-01 0.20195491E+03</pdfrwt>
<totfact> 0.19325738E+04</totfact>
</mgrwt>
</event>
<event>
 4    2  0.3972096E+000  0.1788626E+03  0.7546771E-02  0.1168908E+00
         21   -1    0    0  503  502  0.00000000000E+00  0.00000000000E+00  0.75065742095E+03  0.75065742095E+03  0.00000000000E+00 0. -1.
         21   -1    0    0  501  503 -0.00000000000E+00 -0.00000000000E+00 -0.11221523909E+03  0.11221523909E+03  0.00000000000E+00 0. -1.
          6    1    1    2  501    0 -0.31883411032E+02  0.32346442536E+02 -0.20549232086E+02  0.18003920457E+03  0.17300000000E+03 0. -1.
         -6    1    1    2    0  502  0.31883411032E+02 -0.32346442536E+02  0.65899141395E+03  0.68283345546E+03  0.17300000000E+03 0. -1.
<mgrwt>
<rscale>  2 0.17886264E+03</rscale>
<asrwt>0</asrwt>
<pdfrwt beam="1">  1       21 0.11548575E+00 0.17886264E+03</pdfrwt>
<pdfrwt beam="2">  1       21 0.17263883E-01 0.17886264E+03</pdfrwt>
<totfact> 0.17754962E+04</totfact>
</mgrwt>
</event>
<event>
 4    2  0.3972096E+000  0.2257760E+03  0.7546771E-02  0.1129649E+00
         21   -1    0    0  501  502  0.00000000000E+00  0.00000000000E+00  0.95088794100E+03  0.95088794100E+03  0.00000000000E+00 0.  1.
         21   -1    0    0  502  503 -0.00000000000E+00 -0.00000000000E+00 -0.53741060713E+02  0.53741060713E+02  0.00000000000E+00 0.  1.
          6    1    1    2  501    0  0.76596680190E+02 -0.12320212091E+03  0.47360628588E+03  0.52466916055E+03  0.17300000000E+03 0.  1.
         -6    1    1    2    0  503 -0.76596680190E+02  0.12320212091E+03  0.42354059441E+03  0.47995984116E+03  0.17300000000E+03 0.  1.
<mgrwt>
<rscale>  2 0.22577603E+03</rscale>
<asrwt>0</asrwt>
<pdfrwt beam="1">  1       21 0.14629044E+00 0.22577603E+03</pdfrwt>
<pdfrwt beam="2">  1       21 0.82678562E-02 0.22577603E+03</pdfrwt>
<totfact> 0.35481888E+04</totfact>
</mgrwt>
</event>
<event>
 4    2  0.3972096E+000  0.3959659E+03  0.7546771E-02  0.1045186E+00
         21   -1    0    0  501  502  0.00000000000E+00  0.00000000000E+00  0.15381166457E+03  0.15381166457E+03  0.00000000000E+00 0.  1.
         21   -1    0    0  502  503 -0.00000000000E+00 -0.00000000000E+00 -0.10478342364E+04  0.10478342364E+04  0.00000000000E+00 0. -1.
          6    1    1    2  501    0 -0.24356469310E+03 -0.25987736148E+03 -0.34796256872E+03  0.52713086797E+03  0.17300000000E+03 0.  1.
         -6    1    1    2    0  503  0.24356469310E+03  0.25987736148E+03 -0.54606000308E+03  0.67451503297E+03  0.17300000000E+03 0. -1.
<mgrwt>
<rscale>  2 0.39596591E+03</rscale>
<asrwt>0</asrwt>
<pdfrwt beam="1">  1       21 0.23663334E-01 0.39596591E+03</pdfrwt>
<pdfrwt beam="2">  1       21 0.16120526E+00 0.39596591E+03</pdfrwt>
<totfact> 0.36604198E+03</totfact>
</mgrwt>
</event>
<event>
 4    2  0.3972096E+000  0.2291355E+03  0.7546771E-02  0.1127250E+00
         21   -1    0    0  501  502  0.00000000000E+00  0.00000000000E+00  0.85673575618E+02  0.85673575618E+02  0.00000000000E+00 0.  1.
         21   -1    0    0  502  503 -0.00000000000E+00 -0.00000000000E+00 -0.66966518107E+03  0.66966518107E+03  0.00000000000E+00 0.  1.
          6    1    1    2  501    0  0.14981414099E+03  0.11393973906E+02 -0.18196807466E+03  0.29260122980E+03  0.17300000000E+03 0.  1.
         -6    1    1    2    0  503 -0.14981414099E+03 -0.11393973906E+02 -0.40202353080E+03  0.46273752690E+03  0.17300000000E+03 0.  1.
<mgrwt>
<rscale>  2 0.22913555E+03</rscale>
<asrwt>0</asrwt>
<pdfrwt beam="1">  1       21 0.13180549E-01 0.22913555E+03</pdfrwt>
<pdfrwt beam="2">  1       21 0.10302542E+00 0.22913555E+03</pdfrwt>
<totfact> 0.37194256E+04</totfact>
</mgrwt>
</event>
<event>
 4    2  0.3972096E+000  0.2309506E+03  0.7546771E-02  0.1125972E+00
         21   -1    0    0  501  502  0.00000000000E+00  0.00000000000E+00  0.77549550484E+02  0.77549550484E+02  0.00000000000E+00 0.  1.
         21   -1    0    0  502  503 -0.00000000000E+00 -0.00000000000E+00 -0.68882533714E+03  0.68882533714E+03  0.00000000000E+00 0. -1.
          6    1    1    2  501    0 -0.88396132767E+02  0.12488111398E+03 -0.29081571496E+03  0.37136498083E+03  0.17300000000E+03 0. -1.
         -6    1    1    2    0  503  0.88396132767E+02 -0.12488111398E+03 -0.32046007170E+03  0.39500990680E+03  0.17300000000E+03 0. -1.
<mgrwt>
<rscale>  2 0.23095058E+03</rscale>
<asrwt>0</asrwt>
<pdfrwt beam="1">  1       21 0.11930700E-01 0.23095058E+03</pdfrwt>
<pdfrwt beam="2">  1       21 0.10597313E+00 0.23095058E+03</pdfrwt>
<totfact> 0.41546340E+04</totfact>
</mgrwt>
</event>
<event>
 4    2  0.3972096E+000  0.2016441E+03  0.7546771E-02  0.1148359E+00
         21   -1    0    0  503  502  0.00000000000E+00  0.00000000000E+00  0.11001643509E+03  0.11001643509E+03  0.00000000000E+00 0. -1.
         21   -1    0    0  501  503 -0.00000000000E+00 -0.00000000000E+00 -0.40037638447E+03  0.40037638447E+03  0.00000000000E+00 0. -1.
          6    1    1    2  501    0  0.79373468264E+02 -0.66567145479E+02 -0.21595187041E+03  0.29545819104E+03  0.17300000000E+03 0. -1.
         -6    1    1    2    0  502 -0.79373468264E+02  0.66567145479E+02 -0.74408078971E+02  0.21493462852E+03  0.17300000000E+03 0. -1.
<mgrwt>
<rscale>  2 0.20164407E+03</rscale>
<asrwt>0</asrwt>
<pdfrwt beam="1">  1       21 0.16925605E-01 0.20164407E+03</pdfrwt>
<pdfrwt beam="2">  1       21 0.61596368E-01 0.20164407E+03</pdfrwt>
<totfact> 0.76710512E+04</totfact>
</mgrwt>
</event>
<event>
 4    2  0.3972096E+000  0.2902514E+03  0.7546771E-02  0.1090218E+00
         21   -1    0    0  503  502  0.00000000000E+00  0.00000000000E+00  0.75474896433E+02  0.75474896433E+02  0.00000000000E+00 0.  1.
         21   -1    0    0  501  503 -0.00000000000E+00 -0.00000000000E+00 -0.15473985825E+04  0.15473985825E+04  0.00000000000E+00 0. -1.
          6    1    1    2  501    0  0.20581559732E+03  0.10934714161E+03 -0.11643002732E+04  0.11999337413E+04  0.17300000000E+03 0. -1.
         -6    1    1    2    0  502 -0.20581559732E+03 -0.10934714161E+03 -0.30762341289E+03  0.42293973759E+03  0.17300000000E+03 0.  1.
<mgrwt>
<rscale>  2 0.29025137E+03</rscale>
<asrwt>0</asrwt>
<pdfrwt beam="1">  1       21 0.11611523E-01 0.29025137E+03</pdfrwt>
<pdfrwt beam="2">  1       21 0.23806131E+00 0.29025137E+03</pdfrwt>
<totfact> 0.44879400E+03</totfact>
</mgrwt>
</event>
<event>
 4    2  0.3972096E+000  0.1910733E+03  0.7546771E-02  0.1157497E+00
         21   -1    0    0  501  502  0.00000000000E+00  0.00000000000E+00  0.15093355036E+03  0.15093355036E+03  0.00000000000E+00 0.  1.
         21   -1    0    0  502  503 -0.00000000000E+00 -0.00000000000E+00 -0.78042424936E+03  0.78042424936E+03  0.00000000000E+00 0.  1.
          6    1    1    2  501    0 -0.39574194852E+02  0.70808944126E+02  0.72092205506E+02  0.20422122701E+03  0.17300000000E+03 0.  1.
         -6    1    1    2    0  503  0.39574194852E+02 -0.70808944126E+02 -0.70158290451E+03  0.72713657271E+03  0.17300000000E+03 0.  1.
<mgrwt>
<rscale>  2 0.19107335E+03</rscale>
<asrwt>0</asrwt>
<pdfrwt beam="1">  1       21 0.23220546E-01 0.19107335E+03</pdfrwt>
<pdfrwt beam="2">  1       21 0.12006527E+00 0.19107335E+03</pdfrwt>
<totfact> 0.92035740E+03</totfact>
</mgrwt>
</event>
<event>
 4    2  0.3972096E+000  0.1926517E+03  0.7546771E-02  0.1156091E+00
         21   -1    0    0  501  502  0.00000000000E+00  0.00000000000E+00  0.67287476626E+03  0.67287476626E+03  0.00000000000E+00 0. -1.
         21   -1    0    0  502  503 -0.00000000000E+00 -0.00000000000E+00 -0.92269087485E+02  0.92269087485E+02  0.00000000000E+00 0. -1.
          6    1    1    2  501    0  0.84488043968E+02  0.68882450157E+01  0.53292733308E+03  0.56667999774E+03  0.17300000000E+03 0. -1.
         -6    1    1    2    0  503 -0.84488043968E+02 -0.68882450157E+01  0.47678345695E+02  0.19846385601E+03  0.17300000000E+03 0. -1.
<mgrwt>
<rscale>  2 0.19265170E+03</rscale>
<asrwt>0</asrwt>
<pdfrwt beam="1">  1       21 0.10351919E+00 0.19265170E+03</pdfrwt>
<pdfrwt beam="2">  1       21 0.14195245E-01 0.19265170E+03</pdfrwt>
<totfact> 0.32780430E+04</totfact>
</mgrwt>
</event>
<event>
 4    2  0.3972096E+000  0.1997315E+03  0.7546771E-02  0.1149966E+00
         21   -1    0    0  503  502  0.00000000000E+00  0.00000000000E+00  0.72878588263E+03  0.72878588263E+03  0.00000000000E+00 0.  1.
         21   -1    0    0  501  503 -0.00000000000E+00 -0.00000000000E+00 -0.60046366143E+02  0.60046366143E+02  0.00000000000E+00 0.  1.
          6    1    1    2  501    0  0.83863575426E+02  0.54134782457E+02  0.45163510985E+03  0.49382886348E+03  0.17300000000E+03 0.  1.
         -6    1    1    2    0  502 -0.83863575426E+02 -0.54134782457E+02  0.21710440664E+03  0.29500338530E+03  0.17300000000E+03 0.  1.
<mgrwt>
<rscale>  2 0.19973150E+03</rscale>
<asrwt>0</asrwt>
<pdfrwt beam="1">  1       21 0.11212090E+00 0.19973150E+03</pdfrwt>
<pdfrwt beam="2">  1       21 0.92379030E-02 0.19973150E+03</pdfrwt>
<totfact> 0.57974940E+04</totfact>
</mgrwt>
</event>
<event>
 4    2  0.3972096E+000  0.2407855E+03  0.7546771E-02  0.1119271E+00
         21   -1    0    0  503  502  0.00000000000E+00  0.00000000000E+00  0.91625485539E+03  0.91625485539E+03  0.00000000000E+00 0.  1.
         21   -1    0    0  501  503 -0.00000000000E+00 -0.00000000000E+00 -0.70338654517E+02  0.70338654517E+02  0.00000000000E+00 0.  1.
          6    1    1    2  501    0  0.62977250892E+02 -0.15518540013E+03  0.26665351802E+03  0.35927947508E+03  0.17300000000E+03 0.  1.
         -6    1    1    2    0  502 -0.62977250892E+02  0.15518540013E+03  0.57926268285E+03  0.62731403482E+03  0.17300000000E+03 0.  1.
<mgrwt>
<rscale>  2 0.24078547E+03</rscale>
<asrwt>0</asrwt>
<pdfrwt beam="1">  1       21 0.14096228E+00 0.24078547E+03</pdfrwt>
<pdfrwt beam="2">  1       21 0.10821332E-01 0.24078547E+03</pdfrwt>
<totfact> 0.24105586E+04</totfact>
</mgrwt>
</event>
<event>
 4    2  0.3972096E+000  0.1855181E+03  0.7546771E-02  0.1162567E+00
         21   -1    0    0  503  502  0.00000000000E+00  0.00000000000E+00  0.21561744259E+03  0.21561744259E+03  0.00000000000E+00 0. -1.
         21   -1    0    0  501  503 -0.00000000000E+00 -0.00000000000E+00 -0.22840529592E+03  0.22840529592E+03  0.00000000000E+00 0. -1.
          6    1    1    2  501    0 -0.57192811099E+02 -0.34884740808E+02 -0.12822789073E+03  0.22552018700E+03  0.17300000000E+03 0. -1.
         -6    1    1    2    0  502  0.57192811099E+02  0.34884740808E+02  0.11544003740E+03  0.21850255152E+03  0.17300000000E+03 0. -1.
<mgrwt>
<rscale>  2 0.18551809E+03</rscale>
<asrwt>0</asrwt>
<pdfrwt beam="1">  1       21 0.33171914E-01 0.18551809E+03</pdfrwt>
<pdfrwt beam="2">  1       21 0.35139276E-01 0.18551809E+03</pdfrwt>
<totfact> 0.68527410E+04</totfact>
</mgrwt>
</event>
<event>
 4    2  0.3972096E+000  0.2024345E+03  0.7546771E-02  0.1147701E+00
         21   -1    0    0  501  502  0.00000000000E+00  0.00000000000E+00  0.35976019557E+03  0.35976019557E+03  0.00000000000E+00 0. -1.
         21   -1    0    0  502  503 -0.00000000000E+00 -0.00000000000E+00 -0.11599810587E+03  0.11599810587E+03  0.00000000000E+00 0. -1.
          6    1    1    2  501    0 -0.93522623419E+02 -0.48002733658E+02  0.89953661628E+02  0.22152066443E+03  0.17300000000E+03 0. -1.
         -6    1    1    2    0  503  0.93522623419E+02  0.48002733658E+02  0.15380842807E+03  0.25423763702E+03  0.17300000000E+03 0. -1.
<mgrwt>
<rscale>  2 0.20243454E+03</rscale>
<asrwt>0</asrwt>
<pdfrwt beam="1">  1       21 0.55347722E-01 0.20243454E+03</pdfrwt>
<pdfrwt beam="2">  1       21 0.17845863E-01 0.20243454E+03</pdfrwt>
<totfact> 0.87434476E+04</totfact>
</mgrwt>
</event>
<event>
 4    2  0.3972096E+000  0.2186332E+03  0.7546771E-02  0.1134906E+00
         21   -1    0    0  501  502  0.00000000000E+00  0.00000000000E+00  0.98503708810E+03  0.98503708810E+03  0.00000000000E+00 0. -1.
         21   -1    0    0  502  503 -0.00000000000E+00 -0.00000000000E+00 -0.50719569647E+02  0.50719569647E+02  0.00000000000E+00 0. -1.
          6    1    1    2  501    0 -0.10004421602E+03  0.88671376486E+02  0.35947243577E+03  0.42073850578E+03  0.17300000000E+03 0. -1.
         -6    1    1    2    0  503  0.10004421602E+03 -0.88671376486E+02  0.57484508269E+03  0.61501815197E+03  0.17300000000E+03 0. -1.
<mgrwt>
<rscale>  2 0.21863316E+03</rscale>
<asrwt>0</asrwt>
<pdfrwt beam="1">  1       21 0.15154415E+00 0.21863316E+03</pdfrwt>
<pdfrwt beam="2">  1       21 0.78030115E-02 0.21863316E+03</pdfrwt>
<totfact> 0.35904486E+04</totfact>
</mgrwt>
</event>
<event>
 4    2  0.3972096E+000  0.1890785E+03  0.7546771E-02  0.1159295E+00
         21   -1    0    0  503  502  0.00000000000E+00  0.00000000000E+00  0.64660855322E+03  0.64660855322E+03  0.00000000000E+00 0.  1.
         21   -1    0    0  501  503 -0.00000000000E+00 -0.00000000000E+00 -0.10587760512E+03  0.10587760512E+03  0.00000000000E+00 0. -1.
          6    1    1    2  501    0 -0.66551141914E+02 -0.37318125214E+02  0.10295358817E+02  0.18935863163E+03  0.17300000000E+03 0. -1.
         -6    1    1    2    0  502  0.66551141914E+02  0.37318125214E+02  0.53043558929E+03  0.56312752671E+03  0.17300000000E+03 0.  1.
<mgrwt>
<rscale>  2 0.18907855E+03</rscale>
<asrwt>0</asrwt>
<pdfrwt beam="1">  1       21 0.99478237E-01 0.18907855E+03</pdfrwt>
<pdfrwt beam="2">  1       21 0.16288863E-01 0.18907855E+03</pdfrwt>
<totfact> 0.28105279E+04</totfact>
</mgrwt>
</event>
<event>
 4    2  0.3972096E+000  0.2167464E+03  0.7546771E-02  0.1136332E+00
         21   -1    0    0  501  502  0.00000000000E+00  0.00000000000E+00  0.83607568669E+02  0.83607568669E+02  0.00000000000E+00 0. -1.
         21   -1    0    0  502  503 -0.00000000000E+00 -0.00000000000E+00 -0.56504643814E+03  0.56504643814E+03  0.00000000000E+00 0. -1.
          6    1    1    2  501    0 -0.12075288746E+03  0.49686455402E+02 -0.26492550098E+03  0.34229303929E+03  0.17300000000E+03 0.  1.
         -6    1    1    2    0  503  0.12075288746E+03 -0.49686455402E+02 -0.21651336850E+03  0.30636096752E+03  0.17300000000E+03 0.  1.
<mgrwt>
<rscale>  2 0.21674640E+03</rscale>
<asrwt>0</asrwt>
<pdfrwt beam="1">  1       21 0.12862703E-01 0.21674640E+03</pdfrwt>
<pdfrwt beam="2">  1       21 0.86930218E-01 0.21674640E+03</pdfrwt>
<totfact> 0.58296839E+04</totfact>
</mgrwt>
</event>
<event>
 4    2  0.3972096E+000  0.2458900E+03  0.7546771E-02  0.1115930E+00
         21   -1    0    0  501  502  0.00000000000E+00  0.00000000000E+00  0.33692713379E+03  0.33692713379E+03  0.00000000000E+00 0.  1.
         21   -1    0    0  502  503 -0.00000000000E+00 -0.00000000000E+00 -0.21183867710E+03  0.21183867710E+03  0.00000000000E+00 0.  1.
          6    1    1    2  501    0 -0.81291547028E+02 -0.15467569011E+03  0.16983067154E+03  0.29883832037E+03  0.17300000000E+03 0.  1.
         -6    1    1    2    0  503  0.81291547028E+02  0.15467569011E+03 -0.44742214855E+02  0.24992749052E+03  0.17300000000E+03 0.  1.
<mgrwt>
<rscale>  2 0.24588999E+03</rscale>
<asrwt>0</asrwt>
<pdfrwt beam="1">  1       21 0.51834944E-01 0.24588999E+03</pdfrwt>
<pdfrwt beam="2">  1       21 0.32590566E-01 0.24588999E+03</pdfrwt>
<totfact> 0.31176401E+04</totfact>
</mgrwt>
</event>
<event>
 4    2  0.3972096E+000  0.1855850E+03  0.7546771E-02  0.1162505E+00
         21   -1    0    0  503  502  0.00000000000E+00  0.00000000000E+00  0.24210775848E+02  0.24210775848E+02  0.00000000000E+00 0. -1.
         21   -1    0    0  501  503 -0.00000000000E+00 -0.00000000000E+00 -0.14409438718E+04  0.14409438718E+04  0.00000000000E+00 0.  1.
          6    1    1    2  501    0 -0.67087517051E+02 -0.34716596027E+01 -0.62566733256E+03  0.65261121535E+03  0.17300000000E+03 0.  1.
         -6    1    1    2    0  502  0.67087517051E+02  0.34716596027E+01 -0.79106576338E+03  0.81254343229E+03  0.17300000000E+03 0.  1.
<mgrwt>
<rscale>  2 0.18558499E+03</rscale>
<asrwt>0</asrwt>
<pdfrwt beam="1">  1       21 0.37247343E-02 0.18558499E+03</pdfrwt>
<pdfrwt beam="2">  1       21 0.22168370E+00 0.18558499E+03</pdfrwt>
<totfact> 0.43594503E+04</totfact>
</mgrwt>
</event>
<event>
 4    2  0.3972096E+000  0.2430377E+03  0.7546771E-02  0.1117786E+00
         21   -1    0    0  501  502  0.00000000000E+00  0.00000000000E+00  0.47063939330E+02  0.47063939330E+02  0.00000000000E+00 0. -1.
         21   -1    0    0  502  503 -0.00000000000E+00 -0.00000000000E+00 -0.16590064050E+04  0.16590064050E+04  0.00000000000E+00 0. -1.
          6    1    1    2  501    0  0.96722536956E+02 -0.14065231730E+03 -0.38503793639E+03  0.45532574711E+03  0.17300000000E+03 0. -1.
         -6    1    1    2    0  503 -0.96722536956E+02  0.14065231730E+03 -0.12269045293E+04  0.12507445973E+04  0.17300000000E+03 0. -1.
<mgrwt>
<rscale>  2 0.24303770E+03</rscale>
<asrwt>0</asrwt>
<pdfrwt beam="1">  1       21 0.72406077E-02 0.24303770E+03</pdfrwt>
<pdfrwt beam="2">  1       21 0.25523170E+00 0.24303770E+03</pdfrwt>
<totfact> 0.84508235E+03</totfact>
</mgrwt>
</event>
<event>
 4    2  0.3972096E+000  0.2037331E+03  0.7546771E-02  0.1146627E+00
         21   -1    0    0  501  502  0.00000000000E+00  0.00000000000E+00  0.54819573151E+02  0.54819573151E+02  0.00000000000E+00 0.  1.
         21   -1    0    0  502  503 -0.00000000000E+00 -0.00000000000E+00 -0.80414834537E+03  0.80414834537E+03  0.00000000000E+00 0. -1.
          6    1    1    2  501    0 -0.69844742890E+02  0.81852742680E+02 -0.47848326460E+03  0.52005133795E+03  0.17300000000E+03 0. -1.
         -6    1    1    2    0  503  0.69844742890E+02 -0.81852742680E+02 -0.27084550762E+03  0.33891658058E+03  0.17300000000E+03 0.  1.
<mgrwt>
<rscale>  2 0.20373306E+03</rscale>
<asrwt>0</asrwt>
<pdfrwt beam="1">  1       21 0.84337810E-02 0.20373306E+03</pdfrwt>
<pdfrwt beam="2">  1       21 0.12371512E+00 0.20373306E+03</pdfrwt>
<totfact> 0.53262825E+04</totfact>
</mgrwt>
</event>
<event>
 4    2  0.3972096E+000  0.2562583E+03  0.7546771E-02  0.1109412E+00
         21   -1    0    0  501  502  0.00000000000E+00  0.00000000000E+00  0.37882678228E+03  0.37882678228E+03  0.00000000000E+00 0.  1.
         21   -1    0    0  502  503 -0.00000000000E+00 -0.00000000000E+00 -0.20152582306E+03  0.20152582306E+03  0.00000000000E+00 0.  1.
          6    1    1    2  501    0 -0.18786245368E+03 -0.21142490997E+02 -0.19857499066E+02  0.25702650972E+03  0.17300000000E+03 0.  1.
         -6    1    1    2    0  503  0.18786245368E+03  0.21142490997E+02  0.19715845829E+03  0.32332609561E+03  0.17300000000E+03 0.  1.
<mgrwt>
<rscale>  2 0.25625828E+03</rscale>
<asrwt>0</asrwt>
<pdfrwt beam="1">  1       21 0.58281043E-01 0.25625828E+03</pdfrwt>
<pdfrwt beam="2">  1       21 0.31003973E-01 0.25625828E+03</pdfrwt>
<totfact> 0.26681240E+04</totfact>
</mgrwt>
</event>
<event>
 4    2  0.3972096E+000  0.1860871E+03  0.7546771E-02  0.1162039E+00
         21   -1    0    0  501  502  0.00000000000E+00  0.00000000000E+00  0.45066439593E+02  0.45066439593E+02  0.00000000000E+00 0.  1.
         21   -1    0    0  502  503 -0.00000000000E+00 -0.00000000000E+00 -0.96658007283E+03  0.96658007283E+03  0.00000000000E+00 0.  1.
          6    1    1    2  501    0  0.58623166480E+02  0.35535002589E+02 -0.23170938353E+03  0.29718285696E+03  0.17300000000E+03 0.  1.
         -6    1    1    2    0  503 -0.58623166480E+02 -0.35535002589E+02 -0.68980424971E+03  0.71446365546E+03  0.17300000000E+03 0.  1.
<mgrwt>
<rscale>  2 0.18608711E+03</rscale>
<asrwt>0</asrwt>
<pdfrwt beam="1">  1       21 0.69332992E-02 0.18608711E+03</pdfrwt>
<pdfrwt beam="2">  1       21 0.14870461E+00 0.18608711E+03</pdfrwt>
<totfact> 0.47201566E+04</totfact>
</mgrwt>
</event>
<event>
 4    2  0.3972096E+000  0.1868828E+03  0.7546771E-02  0.1161303E+00
         21   -1    0    0  501  502  0.00000000000E+00  0.00000000000E+00  0.57452058056E+03  0.57452058056E+03  0.00000000000E+00 0.  1.
         21   -1    0    0  502  503 -0.00000000000E+00 -0.00000000000E+00 -0.69091462510E+02  0.69091462510E+02  0.00000000000E+00 0. -1.
          6    1    1    2  501    0 -0.63274299544E+02  0.31504783987E+02  0.36426095204E+03  0.40940350460E+03  0.17300000000E+03 0. -1.
         -6    1    1    2    0  503  0.63274299544E+02 -0.31504783987E+02  0.14116816600E+03  0.23420853846E+03  0.17300000000E+03 0. -1.
<mgrwt>
<rscale>  2 0.18688282E+03</rscale>
<asrwt>0</asrwt>
<pdfrwt beam="1">  1       21 0.88387779E-01 0.18688282E+03</pdfrwt>
<pdfrwt beam="2">  1       21 0.10629456E-01 0.18688282E+03</pdfrwt>
<totfact> 0.79977547E+04</totfact>
</mgrwt>
</event>
<event>
 4    2  0.3972096E+000  0.2246868E+03  0.7546771E-02  0.1130436E+00
         21   -1    0    0  503  502  0.00000000000E+00  0.00000000000E+00  0.67770730555E+03  0.67770730555E+03  0.00000000000E+00 0. -1.
         21   -1    0    0  501  503 -0.00000000000E+00 -0.00000000000E+00 -0.79761114312E+02  0.79761114312E+02  0.00000000000E+00 0.  1.
          6    1    1    2  501    0  0.60155858435E+02  0.13014004510E+03  0.39631150903E+03  0.45557323323E+03  0.17300000000E+03 0. -1.
         -6    1    1    2    0  502 -0.60155858435E+02 -0.13014004510E+03  0.20163468220E+03  0.30189518663E+03  0.17300000000E+03 0.  1.
<mgrwt>
<rscale>  2 0.22468680E+03</rscale>
<asrwt>0</asrwt>
<pdfrwt beam="1">  1       21 0.10426266E+00 0.22468680E+03</pdfrwt>
<pdfrwt beam="2">  1       21 0.12270941E-01 0.22468680E+03</pdfrwt>
<totfact> 0.41205551E+04</totfact>
</mgrwt>
</event>
<event>
 4    2  0.3972096E+000  0.1981009E+03  0.7546771E-02  0.1151351E+00
         21   -1    0    0  503  502  0.00000000000E+00  0.00000000000E+00  0.25345566175E+02  0.25345566175E+02  0.00000000000E+00 0. -1.
         21   -1    0    0  501  503 -0.00000000000E+00 -0.00000000000E+00 -0.15517722618E+04  0.15517722618E+04  0.00000000000E+00 0. -1.
          6    1    1    2  501    0 -0.53124214117E+02 -0.80577880690E+02 -0.80020909317E+03  0.82436555591E+03  0.17300000000E+03 0. -1.
         -6    1    1    2    0  502  0.53124214117E+02  0.80577880690E+02 -0.72621760248E+03  0.75275227209E+03  0.17300000000E+03 0. -1.
<mgrwt>
<rscale>  2 0.19810093E+03</rscale>
<asrwt>0</asrwt>
<pdfrwt beam="1">  1       21 0.38993160E-02 0.19810093E+03</pdfrwt>
<pdfrwt beam="2">  1       21 0.23873431E+00 0.19810093E+03</pdfrwt>
<totfact> 0.31565447E+04</totfact>
</mgrwt>
</event>
<event>
 4    2  0.3972096E+000  0.1841367E+03  0.7546771E-02  0.1163859E+00
         21   -1    0    0  501  502  0.00000000000E+00  0.00000000000E+00  0.41353341968E+03  0.41353341968E+03  0.00000000000E+00 0. -1.
         21   -1    0    0  502  503 -0.00000000000E+00 -0.00000000000E+00 -0.95602364342E+02  0.95602364342E+02  0.00000000000E+00 0. -1.
          6    1    1    2  501    0  0.37976750504E+02 -0.50349537537E+02  0.25501808163E+03  0.31454813855E+03  0.17300000000E+03 0. -1.
         -6    1    1    2    0  503 -0.37976750504E+02  0.50349537537E+02  0.62912973712E+02  0.19458764547E+03  0.17300000000E+03 0. -1.
<mgrwt>
<rscale>  2 0.18413666E+03</rscale>
<asrwt>0</asrwt>
<pdfrwt beam="1">  1       21 0.63620525E-01 0.18413666E+03</pdfrwt>
<pdfrwt beam="2">  1       21 0.14708056E-01 0.18413666E+03</pdfrwt>
<totfact> 0.93148084E+04</totfact>
</mgrwt>
</event>
<event>
 4    2  0.3972096E+000  0.2149047E+03  0.7546771E-02  0.1137740E+00
         21   -1    0    0  503  502  0.00000000000E+00  0.00000000000E+00  0.38107688541E+02  0.38107688541E+02  0.00000000000E+00 0. -1.
         21   -1    0    0  501  503 -0.00000000000E+00 -0.00000000000E+00 -0.13348122936E+04  0.13348122936E+04  0.00000000000E+00 0. -1.
          6    1    1    2  501    0 -0.12068550450E+03 -0.41109943803E+02 -0.85662964051E+03  0.88317515787E+03  0.17300000000E+03 0. -1.
         -6    1    1    2    0  502  0.12068550450E+03  0.41109943803E+02 -0.44007496451E+03  0.48974482424E+03  0.17300000000E+03 0. -1.
<mgrwt>
<rscale>  2 0.21490467E+03</rscale>
<asrwt>0</asrwt>
<pdfrwt beam="1">  1       21 0.58627224E-02 0.21490467E+03</pdfrwt>
<pdfrwt beam="2">  1       21 0.20535570E+00 0.21490467E+03</pdfrwt>
<totfact> 0.25054165E+04</totfact>
</mgrwt>
</event>
<event>
 4    2  0.3972096E+000  0.1975929E+03  0.7546771E-02  0.1151786E+00
         21   -1    0    0  501  502  0.00000000000E+00  0.00000000000E+00  0.36511489377E+03  0.36511489377E+03  0.00000000000E+00 0. -1.
         21   -1    0    0  502  503 -0.00000000000E+00 -0.00000000000E+00 -0.10972085999E+03  0.10972085999E+03  0.00000000000E+00 0. -1.
          6    1    1    2  501    0  0.41907987255E+02 -0.85776854336E+02  0.89854562957E+02  0.21706402424E+03  0.17300000000E+03 0. -1.
         -6    1    1    2    0  503 -0.41907987255E+02  0.85776854336E+02  0.16553947083E+03  0.25777172952E+03  0.17300000000E+03 0. -1.
<mgrwt>
<rscale>  2 0.19759288E+03</rscale>
<asrwt>0</asrwt>
<pdfrwt beam="1">  1       21 0.56171522E-01 0.19759288E+03</pdfrwt>
<pdfrwt beam="2">  1       21 0.16880132E-01 0.19759288E+03</pdfrwt>
<totfact> 0.94086280E+04</totfact>
</mgrwt>
</event>
<event>
 4    2  0.3972096E+000  0.2420751E+03  0.7546771E-02  0.1118418E+00
         21   -1    0    0  501  502  0.00000000000E+00  0.00000000000E+00  0.51873320146E+03  0.51873320146E+03  0.00000000000E+00 0. -1.
         21   -1    0    0  502  503 -0.00000000000E+00 -0.00000000000E+00 -0.11704386634E+03  0.11704386634E+03  0.00000000000E+00 0.  1.
          6    1    1    2  501    0 -0.15883672293E+03 -0.58670672291E+02  0.26016454241E+03  0.35536733315E+03  0.17300000000E+03 0. -1.
         -6    1    1    2    0  503  0.15883672293E+03  0.58670672291E+02  0.14152479270E+03  0.28040973465E+03  0.17300000000E+03 0.  1.
<mgrwt>
<rscale>  2 0.24207510E+03</rscale>
<asrwt>0</asrwt>
<pdfrwt beam="1">  1       21 0.79805107E-01 0.24207510E+03</pdfrwt>
<pdfrwt beam="2">  1       21 0.18006749E-01 0.24207510E+03</pdfrwt>
<totfact> 0.37866885E+04</totfact>
</mgrwt>
</event>
<event>
 4    2  0.3972096E+000  0.1889833E+03  0.7546771E-02  0.1159382E+00
         21   -1    0    0  501  502  0.00000000000E+00  0.00000000000E+00  0.33630737422E+02  0.33630737422E+02  0.00000000000E+00 0.  1.
         21   -1    0    0  502  503 -0.00000000000E+00 -0.00000000000E+00 -0.15819623783E+04  0.15819623783E+04  0.00000000000E+00 0.  1.
          6    1    1    2  501    0  0.17583818540E+02  0.74003294760E+02 -0.31103429156E+03  0.36394643677E+03  0.17300000000E+03 0.  1.
         -6    1    1    2    0  503 -0.17583818540E+02 -0.74003294760E+02 -0.12372973493E+04  0.12516466789E+04  0.17300000000E+03 0.  1.
<mgrwt>
<rscale>  2 0.18898328E+03</rscale>
<asrwt>0</asrwt>
<pdfrwt beam="1">  1       21 0.51739615E-02 0.18898328E+03</pdfrwt>
<pdfrwt beam="2">  1       21 0.24337874E+00 0.18898328E+03</pdfrwt>
<totfact> 0.18525249E+04</totfact>
</mgrwt>
</event>
<event>
 4    2  0.3972096E+000  0.1858867E+03  0.7546771E-02  0.1162224E+00
         21   -1    0    0  501  502  0.00000000000E+00  0.00000000000E+00  0.27008368700E+03  0.27008368700E+03  0.00000000000E+00 0. -1.
         21   -1    0    0  502  503 -0.00000000000E+00 -0.00000000000E+00 -0.18014925214E+03  0.18014925214E+03  0.00000000000E+00 0. -1.
          6    1    1    2  501    0 -0.64986542398E+02  0.20039891439E+02  0.16615948775E+03  0.24932473465E+03  0.17300000000E+03 0. -1.
         -6    1    1    2    0  503  0.64986542398E+02 -0.20039891439E+02 -0.76225052892E+02  0.20090820449E+03  0.17300000000E+03 0. -1.
<mgrwt>
<rscale>  2 0.18588665E+03</rscale>
<asrwt>0</asrwt>
<pdfrwt beam="1">  1       21 0.41551336E-01 0.18588665E+03</pdfrwt>
<pdfrwt beam="2">  1       21 0.27715270E-01 0.18588665E+03</pdfrwt>
<totfact> 0.69497398E+04</totfact>
</mgrwt>
</event>
<event>
 4    2  0.3972096E+000  0.2030787E+03  0.7546771E-02  0.1147167E+00
         21   -1    0    0  503  502  0.00000000000E+00  0.00000000000E+00  0.28618728981E+03  0.28618728981E+03  0.00000000000E+00 0.  1.
         21   -1    0    0  501  503 -0.00000000000E+00 -0.00000000000E+00 -0.17643187832E+03  0.17643187832E+03  0.00000000000E+00 0. -1.
          6    1    1    2  501    0  0.34235710508E+02 -0.10069687923E+03 -0.44134496632E+02  0.20781915011E+03  0.17300000000E+03 0. -1.
         -6    1    1    2    0  502 -0.34235710508E+02  0.10069687923E+03  0.15388990813E+03  0.25480001802E+03  0.17300000000E+03 0.  1.
<mgrwt>
<rscale>  2 0.20307867E+03</rscale>
<asrwt>0</asrwt>
<pdfrwt beam="1">  1       21 0.44028814E-01 0.20307867E+03</pdfrwt>
<pdfrwt beam="2">  1       21 0.27143366E-01 0.20307867E+03</pdfrwt>
<totfact> 0.63801826E+04</totfact>
</mgrwt>
</event>
<event>
 4    2  0.3972096E+000  0.1741415E+03  0.7546771E-02  0.1173596E+00
         21   -1    0    0  503  502  0.00000000000E+00  0.00000000000E+00  0.58773379909E+03  0.58773379909E+03  0.00000000000E+00 0.  1.
         21   -1    0    0  501  503 -0.00000000000E+00 -0.00000000000E+00 -0.34652912737E+03  0.34652912737E+03  0.00000000000E+00 0.  1.
          6    1    1    2  501    0 -0.62371565025E+01 -0.18903939772E+02 -0.31035109137E+03  0.35586944372E+03  0.17300000000E+03 0.  1.
         -6    1    1    2    0  502  0.62371565025E+01  0.18903939772E+02  0.55155576310E+03  0.57839348273E+03  0.17300000000E+03 0.  1.
<mgrwt>
<rscale>  2 0.17414150E+03</rscale>
<asrwt>0</asrwt>
<pdfrwt beam="1">  1       21 0.90420584E-01 0.17414150E+03</pdfrwt>
<pdfrwt beam="2">  1       21 0.53312174E-01 0.17414150E+03</pdfrwt>
<totfact> 0.35178351E+03</totfact>
</mgrwt>
</event>
<event>
 4    2  0.3972096E+000  0.1754604E+03  0.7546771E-02  0.1172270E+00
         21   -1    0    0  501  502  0.00000000000E+00  0.00000000000E+00  0.14251578714E+03  0.14251578714E+03  0.00000000000E+00 0. -1.
         21   -1    0    0  502  503 -0.00000000000E+00 -0.00000000000E+00 -0.25273316833E+03  0.25273316833E+03  0.00000000000E+00 0. -1.
          6    1    1    2  501    0  0.28793732689E+02  0.53171426359E+01  0.20212431701E+02  0.17662076164E+03  0.17300000000E+03 0. -1.
         -6    1    1    2    0  503 -0.28793732689E+02 -0.53171426359E+01 -0.13042981289E+03  0.21862819383E+03  0.17300000000E+03 0. -1.
<mgrwt>
<rscale>  2 0.17546040E+03</rscale>
<asrwt>0</asrwt>
<pdfrwt beam="1">  1       21 0.21925506E-01 0.17546040E+03</pdfrwt>
<pdfrwt beam="2">  1       21 0.38882026E-01 0.17546040E+03</pdfrwt>
<totfact> 0.12464760E+05</totfact>
</mgrwt>
</event>
<event>
 4    2  0.3972096E+000  0.2428326E+03  0.7546771E-02  0.1117920E+00
         21   -1    0    0  501  502  0.00000000000E+00  0.00000000000E+00  0.97648723772E+02  0.97648723772E+02  0.00000000000E+00 0.  1.
         21   -1    0    0  502  503 -0.00000000000E+00 -0.00000000000E+00 -0.69441581524E+03  0.69441581524E+03  0.00000000000E+00 0.  1.
          6    1    1    2  501    0  0.16526729930E+03  0.41537711697E+02 -0.44138551697E+03  0.50377458878E+03  0.17300000000E+03 0.  1.
         -6    1    1    2    0  503 -0.16526729930E+03 -0.41537711697E+02 -0.15538157450E+03  0.28828995023E+03  0.17300000000E+03 0.  1.
<mgrwt>
<rscale>  2 0.24283258E+03</rscale>
<asrwt>0</asrwt>
<pdfrwt beam="1">  1       21 0.15022880E-01 0.24283258E+03</pdfrwt>
<pdfrwt beam="2">  1       21 0.10683320E+00 0.24283258E+03</pdfrwt>
<totfact> 0.26673680E+04</totfact>
</mgrwt>
</event>
<event>
 4    2  0.3972096E+000  0.2363907E+03  0.7546771E-02  0.1122221E+00
         21   -1    0    0  501  502  0.00000000000E+00  0.00000000000E+00  0.46775382145E+02  0.46775382145E+02  0.00000000000E+00 0.  1.
         21   -1    0    0  502  503 -0.00000000000E+00 -0.00000000000E+00 -0.15013209830E+04  0.15013209830E+04  0.00000000000E+00 0. -1.
          6    1    1    2  501    0  0.84992877705E+02  0.13684952219E+03 -0.37743885433E+03  0.44535454386E+03  0.17300000000E+03 0.  1.
         -6    1    1    2    0  503 -0.84992877705E+02 -0.13684952219E+03 -0.10771067465E+04  0.11027418213E+04  0.17300000000E+03 0.  1.
<mgrwt>
<rscale>  2 0.23639074E+03</rscale>
<asrwt>0</asrwt>
<pdfrwt beam="1">  1       21 0.71962136E-02 0.23639074E+03</pdfrwt>
<pdfrwt beam="2">  1       21 0.23097243E+00 0.23639074E+03</pdfrwt>
<totfact> 0.12002897E+04</totfact>
</mgrwt>
</event>
<event>
 4    2  0.3972096E+000  0.2248733E+03  0.7546771E-02  0.1130301E+00
         21   -1    0    0  503  502  0.00000000000E+00  0.00000000000E+00  0.34836716208E+03  0.34836716208E+03  0.00000000000E+00 0. -1.
         21   -1    0    0  501  503 -0.00000000000E+00 -0.00000000000E+00 -0.15480911949E+03  0.15480911949E+03  0.00000000000E+00 0. -1.
          6    1    1    2  501    0 -0.10755570293E+03  0.95240566011E+02  0.33958837291E+02  0.22742294800E+03  0.17300000000E+03 0. -1.
         -6    1    1    2    0  502  0.10755570293E+03 -0.95240566011E+02  0.15959920530E+03  0.27575333357E+03  0.17300000000E+03 0. -1.
<mgrwt>
<rscale>  2 0.22487329E+03</rscale>
<asrwt>0</asrwt>
<pdfrwt beam="1">  1       21 0.53594948E-01 0.22487329E+03</pdfrwt>
<pdfrwt beam="2">  1       21 0.23816788E-01 0.22487329E+03</pdfrwt>
<totfact> 0.53917194E+04</totfact>
</mgrwt>
</event>
<event>
 4    2  0.3972096E+000  0.2311042E+03  0.7546771E-02  0.1125865E+00
         21   -1    0    0  501  502  0.00000000000E+00  0.00000000000E+00  0.20865631940E+03  0.20865631940E+03  0.00000000000E+00 0.  1.
         21   -1    0    0  502  503 -0.00000000000E+00 -0.00000000000E+00 -0.48762087982E+03  0.48762087982E+03  0.00000000000E+00 0.  1.
          6    1    1    2  501    0  0.89034988749E+02  0.12471141845E+03  0.10047319452E+03  0.25200005939E+03  0.17300000000E+03 0.  1.
         -6    1    1    2    0  503 -0.89034988749E+02 -0.12471141845E+03 -0.37943775493E+03  0.44427713983E+03  0.17300000000E+03 0.  1.
<mgrwt>
<rscale>  2 0.23110423E+03</rscale>
<asrwt>0</asrwt>
<pdfrwt beam="1">  1       21 0.32100972E-01 0.23110423E+03</pdfrwt>
<pdfrwt beam="2">  1       21 0.75018596E-01 0.23110423E+03</pdfrwt>
<totfact> 0.14487911E+04</totfact>
</mgrwt>
</event>
<event>
 4    2  0.3972096E+000  0.2656769E+03  0.7546771E-02  0.1103780E+00
         21   -1    0    0  501  502  0.00000000000E+00  0.00000000000E+00  0.13972125122E+03  0.13972125122E+03  0.00000000000E+00 0.  1.
         21   -1    0    0  502  503 -0.00000000000E+00 -0.00000000000E+00 -0.22969900785E+04  0.22969900785E+04  0.00000000000E+00 0. -1.
          6    1    1    2  501    0 -0.20040362217E+03 -0.22217565960E+02 -0.25641142059E+01  0.26568930483E+03  0.17300000000E+03 0.  1.
         -6    1    1    2    0  503  0.20040362217E+03  0.22217565960E+02 -0.21547047131E+04  0.21710220249E+04  0.17300000000E+03 0. -1.
<mgrwt>
<rscale>  2 0.26567693E+03</rscale>
<asrwt>0</asrwt>
<pdfrwt beam="1">  1       21 0.21495580E-01 0.26567693E+03</pdfrwt>
<pdfrwt beam="2">  1       21 0.35338305E+00 0.26567693E+03</pdfrwt>
<totfact> 0.30490000E+02</totfact>
</mgrwt>
</event>
<event>
 4    2  0.3972096E+000  0.1910751E+03  0.7546771E-02  0.1157495E+00
         21   -1    0    0  501  502  0.00000000000E+00  0.00000000000E+00  0.21140525692E+03  0.21140525692E+03  0.00000000000E+00 0. -1.
         21   -1    0    0  502  503 -0.00000000000E+00 -0.00000000000E+00 -0.32686353887E+03  0.32686353887E+03  0.00000000000E+00 0. -1.
          6    1    1    2  501    0  0.17450866974E+02 -0.79222144704E+02  0.12710272611E+03  0.22948809109E+03  0.17300000000E+03 0. -1.
         -6    1    1    2    0  503 -0.17450866974E+02  0.79222144704E+02 -0.24256100805E+03  0.30878070470E+03  0.17300000000E+03 0. -1.
<mgrwt>
<rscale>  2 0.19107507E+03</rscale>
<asrwt>0</asrwt>
<pdfrwt beam="1">  1       21 0.32523886E-01 0.19107507E+03</pdfrwt>
<pdfrwt beam="2">  1       21 0.50286698E-01 0.19107507E+03</pdfrwt>
<totfact> 0.34282720E+04</totfact>
</mgrwt>
</event>
<event>
 4    2  0.3972096E+000  0.1867831E+03  0.7546771E-02  0.1161395E+00
         21   -1    0    0  501  502  0.00000000000E+00  0.00000000000E+00  0.17530279369E+03  0.17530279369E+03  0.00000000000E+00 0.  1.
         21   -1    0    0  502  503 -0.00000000000E+00 -0.00000000000E+00 -0.36024505749E+03  0.36024505749E+03  0.00000000000E+00 0.  1.
          6    1    1    2  501    0 -0.13485953688E+02  0.69116187778E+02  0.86668642005E+02  0.20591107757E+03  0.17300000000E+03 0.  1.
         -6    1    1    2    0  503  0.13485953688E+02 -0.69116187778E+02 -0.27161090581E+03  0.32963677360E+03  0.17300000000E+03 0.  1.
<mgrwt>
<rscale>  2 0.18678308E+03</rscale>
<asrwt>0</asrwt>
<pdfrwt beam="1">  1       21 0.26969661E-01 0.18678308E+03</pdfrwt>
<pdfrwt beam="2">  1       21 0.55422317E-01 0.18678308E+03</pdfrwt>
<totfact> 0.40315319E+04</totfact>
</mgrwt>
</event>
<event>
 4    2  0.3972096E+000  0.1763124E+03  0.7546771E-02  0.1171420E+00
         21   -1    0    0  503  502  0.00000000000E+00  0.00000000000E+00  0.21003717475E+03  0.21003717475E+03  0.00000000000E+00 0. -1.
         21   -1    0    0  501  503 -0.00000000000E+00 -0.00000000000E+00 -0.23033178436E+03  0.23033178436E+03  0.00000000000E+00 0. -1.
          6    1    1    2  501    0  0.32878166468E+02  0.87226604644E+01 -0.14178690036E+03  0.22625115193E+03  0.17300000000E+03 0. -1.
         -6    1    1    2    0  502 -0.32878166468E+02 -0.87226604644E+01  0.12149229075E+03  0.21411780717E+03  0.17300000000E+03 0. -1.
<mgrwt>
<rscale>  2 0.17631239E+03</rscale>
<asrwt>0</asrwt>
<pdfrwt beam="1">  1       21 0.32313412E-01 0.17631239E+03</pdfrwt>
<pdfrwt beam="2">  1       21 0.35435659E-01 0.17631239E+03</pdfrwt>
<totfact> 0.71242036E+04</totfact>
</mgrwt>
</event>
<event>
 4    2  0.3972096E+000  0.1801042E+03  0.7546771E-02  0.1167702E+00
         21   -1    0    0  501  502  0.00000000000E+00  0.00000000000E+00  0.83394076886E+03  0.83394076886E+03  0.00000000000E+00 0.  1.
         21   -1    0    0  502  503 -0.00000000000E+00 -0.00000000000E+00 -0.42657561753E+02  0.42657561753E+02  0.00000000000E+00 0.  1.
          6    1    1    2  501    0  0.47058270314E+02  0.17147470414E+02  0.52578382281E+03  0.55577526472E+03  0.17300000000E+03 0.  1.
         -6    1    1    2    0  503 -0.47058270314E+02 -0.17147470414E+02  0.26549938429E+03  0.32082306589E+03  0.17300000000E+03 0.  1.
<mgrwt>
<rscale>  2 0.18010418E+03</rscale>
<asrwt>0</asrwt>
<pdfrwt beam="1">  1       21 0.12829857E+00 0.18010418E+03</pdfrwt>
<pdfrwt beam="2">  1       21 0.65627024E-02 0.18010418E+03</pdfrwt>
<totfact> 0.75997242E+04</totfact>
</mgrwt>
</event>
<event>
 4    2  0.3972096E+000  0.1926739E+03  0.7546771E-02  0.1156071E+00
         21   -1    0    0  501  502  0.00000000000E+00  0.00000000000E+00  0.72959221537E+03  0.72959221537E+03  0.00000000000E+00 0.  1.
         21   -1    0    0  502  503 -0.00000000000E+00 -0.00000000000E+00 -0.56627569993E+02  0.56627569993E+02  0.00000000000E+00 0.  1.
          6    1    1    2  501    0  0.50940231936E+02 -0.67818437745E+02  0.46169822650E+03  0.50028841690E+03  0.17300000000E+03 0.  1.
         -6    1    1    2    0  503 -0.50940231936E+02  0.67818437745E+02  0.21126641888E+03  0.28593136847E+03  0.17300000000E+03 0.  1.
<mgrwt>
<rscale>  2 0.19267394E+03</rscale>
<asrwt>0</asrwt>
<pdfrwt beam="1">  1       21 0.11224495E+00 0.19267394E+03</pdfrwt>
<pdfrwt beam="2">  1       21 0.87119344E-02 0.19267394E+03</pdfrwt>
<totfact> 0.64313392E+04</totfact>
</mgrwt>
</event>
<event>
 4    2  0.3972096E+000  0.2201190E+03  0.7546771E-02  0.1133794E+00
         21   -1    0    0  503  502  0.00000000000E+00  0.00000000000E+00  0.42902101724E+02  0.42902101724E+02  0.00000000000E+00 0. -1.
         21   -1    0    0  501  503 -0.00000000000E+00 -0.00000000000E+00 -0.13559372725E+04  0.13559372725E+04  0.00000000000E+00 0. -1.
          6    1    1    2  501    0 -0.12864414061E+03 -0.44430519360E+02 -0.37061652737E+03  0.43105567659E+03  0.17300000000E+03 0. -1.
         -6    1    1    2    0  502  0.12864414061E+03  0.44430519360E+02 -0.94241864338E+03  0.96778369760E+03  0.17300000000E+03 0. -1.
<mgrwt>
<rscale>  2 0.22011903E+03</rscale>
<asrwt>0</asrwt>
<pdfrwt beam="1">  1       21 0.66003227E-02 0.22011903E+03</pdfrwt>
<pdfrwt beam="2">  1       21 0.20860575E+00 0.22011903E+03</pdfrwt>
<totfact> 0.19415187E+04</totfact>
</mgrwt>
</event>
<event>
 4    2  0.3972096E+000  0.1770504E+03  0.7546771E-02  0.1170689E+00
         21   -1    0    0  503  502  0.00000000000E+00  0.00000000000E+00  0.33757274085E+03  0.33757274085E+03  0.00000000000E+00 0.  1.
         21   -1    0    0  501  503 -0.00000000000E+00 -0.00000000000E+00 -0.16734355106E+03  0.16734355106E+03  0.00000000000E+00 0.  1.
          6    1    1    2  501    0  0.31385265676E+02 -0.20804433421E+02 -0.83314199684E+02  0.19567349136E+03  0.17300000000E+03 0.  1.
         -6    1    1    2    0  502 -0.31385265676E+02  0.20804433421E+02  0.25354338947E+03  0.30924280056E+03  0.17300000000E+03 0.  1.
<mgrwt>
<rscale>  2 0.17705044E+03</rscale>
<asrwt>0</asrwt>
<pdfrwt beam="1">  1       21 0.51934268E-01 0.17705044E+03</pdfrwt>
<pdfrwt beam="2">  1       21 0.25745162E-01 0.17705044E+03</pdfrwt>
<totfact> 0.50773470E+04</totfact>
</mgrwt>
</event>
<event>
 4    2  0.3972096E+000  0.1750405E+03  0.7546771E-02  0.1172691E+00
         21   -1    0    0  501  502  0.00000000000E+00  0.00000000000E+00  0.12150107362E+03  0.12150107362E+03  0.00000000000E+00 0.  1.
         21   -1    0    0  502  503 -0.00000000000E+00 -0.00000000000E+00 -0.41377245890E+03  0.41377245890E+03  0.00000000000E+00 0.  1.
          6    1    1    2  501    0  0.90283040535E+01  0.25073045176E+02  0.21122071972E+02  0.17631026570E+03  0.17300000000E+03 0.  1.
         -6    1    1    2    0  503 -0.90283040535E+01 -0.25073045176E+02 -0.31339345725E+03  0.35896326681E+03  0.17300000000E+03 0.  1.
<mgrwt>
<rscale>  2 0.17504047E+03</rscale>
<asrwt>0</asrwt>
<pdfrwt beam="1">  1       21 0.18692473E-01 0.17504047E+03</pdfrwt>
<pdfrwt beam="2">  1       21 0.63657301E-01 0.17504047E+03</pdfrwt>
<totfact> 0.60187330E+04</totfact>
</mgrwt>
</event>
<event>
 4    2  0.3972096E+000  0.2347112E+03  0.7546771E-02  0.1123367E+00
         21   -1    0    0  501  502  0.00000000000E+00  0.00000000000E+00  0.26614892193E+03  0.26614892193E+03  0.00000000000E+00 0. -1.
         21   -1    0    0  502  503 -0.00000000000E+00 -0.00000000000E+00 -0.24957717304E+03  0.24957717304E+03  0.00000000000E+00 0. -1.
          6    1    1    2  501    0  0.74359291521E+02  0.14011081876E+03  0.11480848165E+03  0.26128592237E+03  0.17300000000E+03 0. -1.
         -6    1    1    2    0  503 -0.74359291521E+02 -0.14011081876E+03 -0.98236732755E+02  0.25444017260E+03  0.17300000000E+03 0. -1.
<mgrwt>
<rscale>  2 0.23471120E+03</rscale>
<asrwt>0</asrwt>
<pdfrwt beam="1">  1       21 0.40945988E-01 0.23471120E+03</pdfrwt>
<pdfrwt beam="2">  1       21 0.38396488E-01 0.23471120E+03</pdfrwt>
<totfact> 0.36807020E+04</totfact>
</mgrwt>
</event>
<event>
 4    2  0.3972096E+000  0.1842767E+03  0.7546771E-02  0.1163727E+00
         21   -1    0    0  503  502  0.00000000000E+00  0.00000000000E+00  0.26416306605E+03  0.26416306605E+03  0.00000000000E+00 0.  1.
         21   -1    0    0  501  503 -0.00000000000E+00 -0.00000000000E+00 -0.16288025913E+03  0.16288025913E+03  0.00000000000E+00 0.  1.
          6    1    1    2  501    0 -0.26369061523E+02  0.57737134325E+02 -0.47387114380E+02  0.19027202289E+03  0.17300000000E+03 0.  1.
         -6    1    1    2    0  502  0.26369061523E+02 -0.57737134325E+02  0.14866992131E+03  0.23677130229E+03  0.17300000000E+03 0.  1.
<mgrwt>
<rscale>  2 0.18427671E+03</rscale>
<asrwt>0</asrwt>
<pdfrwt beam="1">  1       21 0.40640472E-01 0.18427671E+03</pdfrwt>
<pdfrwt beam="2">  1       21 0.25058501E-01 0.18427671E+03</pdfrwt>
<totfact> 0.88246959E+04</totfact>
</mgrwt>
</event>
<event>
 4    2  0.3972096E+000  0.2071667E+03  0.7546771E-02  0.1143830E+00
         21   -1    0    0  501  502  0.00000000000E+00  0.00000000000E+00  0.13478668216E+03  0.13478668216E+03  0.00000000000E+00 0. -1.
         21   -1    0    0  502  503 -0.00000000000E+00 -0.00000000000E+00 -0.36783231764E+03  0.36783231764E+03  0.00000000000E+00 0.  1.
          6    1    1    2  501    0 -0.15355275141E+02 -0.11293031193E+03 -0.24408836010E+02  0.20859969104E+03  0.17300000000E+03 0. -1.
         -6    1    1    2    0  503  0.15355275141E+02  0.11293031193E+03 -0.20863679947E+03  0.29401930875E+03  0.17300000000E+03 0.  1.
<mgrwt>
<rscale>  2 0.20716670E+03</rscale>
<asrwt>0</asrwt>
<pdfrwt beam="1">  1       21 0.20736413E-01 0.20716670E+03</pdfrwt>
<pdfrwt beam="2">  1       21 0.56589587E-01 0.20716670E+03</pdfrwt>
<totfact> 0.62923411E+04</totfact>
</mgrwt>
</event>
<event>
 4    2  0.3972096E+000  0.1915752E+03  0.7546771E-02  0.1157048E+00
         21   -1    0    0  501  502  0.00000000000E+00  0.00000000000E+00  0.54695900623E+03  0.54695900623E+03  0.00000000000E+00 0.  1.
         21   -1    0    0  502  503 -0.00000000000E+00 -0.00000000000E+00 -0.12644625149E+03  0.12644625149E+03  0.00000000000E+00 0.  1.
          6    1    1    2  501    0 -0.36095815761E+01 -0.82213249560E+02  0.44092552842E+03  0.48074563866E+03  0.17300000000E+03 0.  1.
         -6    1    1    2    0  503  0.36095815761E+01  0.82213249560E+02 -0.20412773680E+02  0.19265961905E+03  0.17300000000E+03 0.  1.
<mgrwt>
<rscale>  2 0.19157517E+03</rscale>
<asrwt>0</asrwt>
<pdfrwt beam="1">  1       21 0.84147538E-01 0.19157517E+03</pdfrwt>
<pdfrwt beam="2">  1       21 0.19453270E-01 0.19157517E+03</pdfrwt>
<totfact> 0.29824897E+04</totfact>
</mgrwt>
</event>
<event>
 4    2  0.3972096E+000  0.1910584E+03  0.7546771E-02  0.1157510E+00
         21   -1    0    0  501  502  0.00000000000E+00  0.00000000000E+00  0.67656360157E+02  0.67656360157E+02  0.00000000000E+00 0. -1.
         21   -1    0    0  502  503 -0.00000000000E+00 -0.00000000000E+00 -0.10938966262E+04  0.10938966262E+04  0.00000000000E+00 0.  1.
          6    1    1    2  501    0 -0.92277437323E+01  0.80555414527E+02 -0.99677334241E+02  0.21549686082E+03  0.17300000000E+03 0. -1.
         -6    1    1    2    0  503  0.92277437323E+01 -0.80555414527E+02 -0.92656293175E+03  0.94605612548E+03  0.17300000000E+03 0.  1.
<mgrwt>
<rscale>  2 0.19105844E+03</rscale>
<asrwt>0</asrwt>
<pdfrwt beam="1">  1       21 0.10408672E-01 0.19105844E+03</pdfrwt>
<pdfrwt beam="2">  1       21 0.16829178E+00 0.19105844E+03</pdfrwt>
<totfact> 0.16603570E+04</totfact>
</mgrwt>
</event>
<event>
 4    2  0.3972096E+000  0.2332711E+03  0.7546771E-02  0.1124358E+00
         21   -1    0    0  503  502  0.00000000000E+00  0.00000000000E+00  0.26112492752E+03  0.26112492752E+03  0.00000000000E+00 0.  1.
         21   -1    0    0  501  503 -0.00000000000E+00 -0.00000000000E+00 -0.46645944771E+03  0.46645944771E+03  0.00000000000E+00 0.  1.
          6    1    1    2  501    0  0.37167152703E+02 -0.15200327253E+03 -0.37325998017E+03  0.44015725019E+03  0.17300000000E+03 0.  1.
         -6    1    1    2    0  502 -0.37167152703E+02  0.15200327253E+03  0.16792545999E+03  0.28742712504E+03  0.17300000000E+03 0.  1.
<mgrwt>
<rscale>  2 0.23327107E+03</rscale>
<asrwt>0</asrwt>
<pdfrwt beam="1">  1       21 0.40173067E-01 0.23327107E+03</pdfrwt>
<pdfrwt beam="2">  1       21 0.71762990E-01 0.23327107E+03</pdfrwt>
<totfact> 0.10200343E+04</totfact>
</mgrwt>
</event>
<event>
 4    2  0.3972096E+000  0.2784611E+03  0.7546771E-02  0.1096532E+00
         21   -1    0    0  501  502  0.00000000000E+00  0.00000000000E+00  0.44740104617E+03  0.44740104617E+03  0.00000000000E+00 0. -1.
         21   -1    0    0  502  503 -0.00000000000E+00 -0.00000000000E+00 -0.17537686510E+03  0.17537686510E+03  0.00000000000E+00 0. -1.
          6    1    1    2  501    0  0.12026468412E+03  0.18206592480E+03  0.16978868917E+03  0.32614229132E+03  0.17300000000E+03 0. -1.
         -6    1    1    2    0  503 -0.12026468412E+03 -0.18206592480E+03  0.10223549190E+03  0.29663561995E+03  0.17300000000E+03 0. -1.
<mgrwt>
<rscale>  2 0.27846112E+03</rscale>
<asrwt>0</asrwt>
<pdfrwt beam="1">  1       21 0.68830929E-01 0.27846112E+03</pdfrwt>
<pdfrwt beam="2">  1       21 0.26981056E-01 0.27846112E+03</pdfrwt>
<totfact> 0.24111100E+04</totfact>
</mgrwt>
</event>
<event>
 4    2  0.3972096E+000  0.1926983E+03  0.7546771E-02  0.1156050E+00
         21   -1    0    0  501  502  0.00000000000E+00  0.00000000000E+00  0.34620196805E+02  0.34620196805E+02  0.00000000000E+00 0.  1.
         21   -1    0    0  502  503 -0.00000000000E+00 -0.00000000000E+00 -0.10860404391E+04  0.10860404391E+04  0.00000000000E+00 0.  1.
          6    1    1    2  501    0 -0.57339098671E+02  0.62576885246E+02 -0.58811042532E+03  0.61887519838E+03  0.17300000000E+03 0. -1.
         -6    1    1    2    0  503  0.57339098671E+02 -0.62576885246E+02 -0.46330981696E+03  0.50178543751E+03  0.17300000000E+03 0. -1.
<mgrwt>
<rscale>  2 0.19269831E+03</rscale>
<asrwt>0</asrwt>
<pdfrwt beam="1">  1       21 0.53261846E-02 0.19269831E+03</pdfrwt>
<pdfrwt beam="2">  1       21 0.16708313E+00 0.19269831E+03</pdfrwt>
<totfact> 0.54064050E+04</totfact>
</mgrwt>
</event>
<event>
 4    2  0.3972096E+000  0.1827606E+03  0.7546771E-02  0.1165158E+00
         21   -1    0    0  503  502  0.00000000000E+00  0.00000000000E+00  0.19901030361E+02  0.19901030361E+02  0.00000000000E+00 0.  1.
         21   -1    0    0  501  503 -0.00000000000E+00 -0.00000000000E+00 -0.17364792607E+04  0.17364792607E+04  0.00000000000E+00 0.  1.
          6    1    1    2  501    0 -0.58190009315E+02 -0.92927829625E+01 -0.10189277548E+04  0.10351884865E+04  0.17300000000E+03 0.  1.
         -6    1    1    2    0  502  0.58190009315E+02  0.92927829625E+01 -0.69765047547E+03  0.72119180454E+03  0.17300000000E+03 0.  1.
<mgrwt>
<rscale>  2 0.18276059E+03</rscale>
<asrwt>0</asrwt>
<pdfrwt beam="1">  1       21 0.30616971E-02 0.18276059E+03</pdfrwt>
<pdfrwt beam="2">  1       21 0.26715065E+00 0.18276059E+03</pdfrwt>
<totfact> 0.32586342E+04</totfact>
</mgrwt>
</event>
<event>
 4    2  0.3972096E+000  0.1881471E+03  0.7546771E-02  0.1160143E+00
         21   -1    0    0  503  502  0.00000000000E+00  0.00000000000E+00  0.30968979183E+03  0.30968979183E+03  0.00000000000E+00 0.  1.
         21   -1    0    0  501  503 -0.00000000000E+00 -0.00000000000E+00 -0.11530786118E+03  0.11530786118E+03  0.00000000000E+00 0.  1.
          6    1    1    2  501    0 -0.56656927359E+02 -0.47542795000E+02  0.11700096348E+03  0.22155936051E+03  0.17300000000E+03 0.  1.
         -6    1    1    2    0  502  0.56656927359E+02  0.47542795000E+02  0.77380967182E+02  0.20343829250E+03  0.17300000000E+03 0.  1.
<mgrwt>
<rscale>  2 0.18814708E+03</rscale>
<asrwt>0</asrwt>
<pdfrwt beam="1">  1       21 0.47644583E-01 0.18814708E+03</pdfrwt>
<pdfrwt beam="2">  1       21 0.17739671E-01 0.18814708E+03</pdfrwt>
<totfact> 0.12168261E+05</totfact>
</mgrwt>
</event>
<event>
 4    2  0.3972096E+000  0.1738253E+03  0.7546771E-02  0.1173916E+00
         21   -1    0    0  501  502  0.00000000000E+00  0.00000000000E+00  0.76030906690E+02  0.76030906690E+02  0.00000000000E+00 0. -1.
         21   -1    0    0  502  503 -0.00000000000E+00 -0.00000000000E+00 -0.41258006943E+03  0.41258006943E+03  0.00000000000E+00 0. -1.
          6    1    1    2  501    0  0.87960791850E+01 -0.14452020557E+02 -0.12142426227E+03  0.21203557101E+03  0.17300000000E+03 0.  1.
         -6    1    1    2    0  503 -0.87960791850E+01  0.14452020557E+02 -0.21512490047E+03  0.27657540511E+03  0.17300000000E+03 0.  1.
<mgrwt>
<rscale>  2 0.17382529E+03</rscale>
<asrwt>0</asrwt>
<pdfrwt beam="1">  1       21 0.11697063E-01 0.17382529E+03</pdfrwt>
<pdfrwt beam="2">  1       21 0.63473857E-01 0.17382529E+03</pdfrwt>
<totfact> 0.14188164E+05</totfact>
</mgrwt>
</event>
<event>
 4    2  0.3972096E+000  0.1907997E+03  0.7546771E-02  0.1157742E+00
         21   -1    0    0  503  502  0.00000000000E+00  0.00000000000E+00  0.70968937628E+02  0.70968937628E+02  0.00000000000E+00 0. -1.
         21   -1    0    0  501  503 -0.00000000000E+00 -0.00000000000E+00 -0.52696714775E+03  0.52696714775E+03  0.00000000000E+00 0. -1.
          6    1    1    2  501    0 -0.71834916896E+02  0.36266610415E+02 -0.17926385840E+03  0.26180155318E+03  0.17300000000E+03 0. -1.
         -6    1    1    2    0  502  0.71834916896E+02 -0.36266610415E+02 -0.27673435172E+03  0.33613453220E+03  0.17300000000E+03 0. -1.
<mgrwt>
<rscale>  2 0.19079969E+03</rscale>
<asrwt>0</asrwt>
<pdfrwt beam="1">  1       21 0.10918299E-01 0.19079969E+03</pdfrwt>
<pdfrwt beam="2">  1       21 0.81071865E-01 0.19079969E+03</pdfrwt>
<totfact> 0.92753272E+04</totfact>
</mgrwt>
</event>
<event>
 4    2  0.3972096E+000  0.2468403E+03  0.7546771E-02  0.1115318E+00
         21   -1    0    0  503  502  0.00000000000E+00  0.00000000000E+00  0.11934309732E+04  0.11934309732E+04  0.00000000000E+00 0. -1.
         21   -1    0    0  501  503 -0.00000000000E+00 -0.00000000000E+00 -0.51709109060E+02  0.51709109060E+02  0.00000000000E+00 0.  1.
          6    1    1    2  501    0 -0.10314344505E+03 -0.14269740352E+03  0.50081731506E+03  0.55834407160E+03  0.17300000000E+03 0.  1.
         -6    1    1    2    0  502  0.10314344505E+03  0.14269740352E+03  0.64090454910E+03  0.68679601068E+03  0.17300000000E+03 0.  1.
<mgrwt>
<rscale>  2 0.24684027E+03</rscale>
<asrwt>0</asrwt>
<pdfrwt beam="1">  1       21 0.18360474E+00 0.24684027E+03</pdfrwt>
<pdfrwt beam="2">  1       21 0.79552485E-02 0.24684027E+03</pdfrwt>
<totfact> 0.20110340E+04</totfact>
</mgrwt>
</event>
<event>
 4    2  0.3972096E+000  0.2029106E+03  0.7546771E-02  0.1147306E+00
         21   -1    0    0  501  502  0.00000000000E+00  0.00000000000E+00  0.38039892726E+03  0.38039892726E+03  0.00000000000E+00 0.  1.
         21   -1    0    0  502  503 -0.00000000000E+00 -0.00000000000E+00 -0.13024308644E+03  0.13024308644E+03  0.00000000000E+00 0.  1.
          6    1    1    2  501    0 -0.10086224111E+03  0.32719028662E+02  0.23003068946E+03  0.30673578958E+03  0.17300000000E+03 0.  1.
         -6    1    1    2    0  503  0.10086224111E+03 -0.32719028662E+02  0.20125151361E+02  0.20390622412E+03  0.17300000000E+03 0.  1.
<mgrwt>
<rscale>  2 0.20291064E+03</rscale>
<asrwt>0</asrwt>
<pdfrwt beam="1">  1       21 0.58522911E-01 0.20291064E+03</pdfrwt>
<pdfrwt beam="2">  1       21 0.20037398E-01 0.20291064E+03</pdfrwt>
<totfact> 0.62576164E+04</totfact>
</mgrwt>
</event>
<event>
 4    2  0.3972096E+000  0.1992505E+03  0.7546771E-02  0.1150373E+00
         21   -1    0    0  503  502  0.00000000000E+00  0.00000000000E+00  0.56715872597E+02  0.56715872597E+02  0.00000000000E+00 0.  1.
         21   -1    0    0  501  503 -0.00000000000E+00 -0.00000000000E+00 -0.83346555655E+03  0.83346555655E+03  0.00000000000E+00 0.  1.
          6    1    1    2  501    0 -0.91310784425E+02  0.37869534023E+02 -0.56648936926E+03  0.60050892287E+03  0.17300000000E+03 0.  1.
         -6    1    1    2    0  502  0.91310784425E+02 -0.37869534023E+02 -0.21026031469E+03  0.28967250628E+03  0.17300000000E+03 0.  1.
<mgrwt>
<rscale>  2 0.19925050E+03</rscale>
<asrwt>0</asrwt>
<pdfrwt beam="1">  1       21 0.87255191E-02 0.19925050E+03</pdfrwt>
<pdfrwt beam="2">  1       21 0.12822547E+00 0.19925050E+03</pdfrwt>
<totfact> 0.45981552E+04</totfact>
</mgrwt>
</event>
<event>
 4    2  0.3972096E+000  0.2194035E+03  0.7546771E-02  0.1134329E+00
         21   -1    0    0  501  502  0.00000000000E+00  0.00000000000E+00  0.21367854683E+03  0.21367854683E+03  0.00000000000E+00 0.  1.
         21   -1    0    0  502  503 -0.00000000000E+00 -0.00000000000E+00 -0.43662923794E+03  0.43662923794E+03  0.00000000000E+00 0.  1.
          6    1    1    2  501    0 -0.26123932904E+02  0.13238745699E+03  0.11474465088E+03  0.24759691748E+03  0.17300000000E+03 0.  1.
         -6    1    1    2    0  503  0.26123932904E+02 -0.13238745699E+03 -0.33769534199E+03  0.40271086730E+03  0.17300000000E+03 0.  1.
<mgrwt>
<rscale>  2 0.21940351E+03</rscale>
<asrwt>0</asrwt>
<pdfrwt beam="1">  1       21 0.32873623E-01 0.21940351E+03</pdfrwt>
<pdfrwt beam="2">  1       21 0.67173728E-01 0.21940351E+03</pdfrwt>
<totfact> 0.17781408E+04</totfact>
</mgrwt>
</event>
<event>
 4    2  0.3972096E+000  0.1736408E+03  0.7546771E-02  0.1174103E+00
         21   -1    0    0  501  502  0.00000000000E+00  0.00000000000E+00  0.17379720798E+03  0.17379720798E+03  0.00000000000E+00 0. -1.
         21   -1    0    0  502  503 -0.00000000000E+00 -0.00000000000E+00 -0.17398138615E+03  0.17398138615E+03  0.00000000000E+00 0. -1.
          6    1    1    2  501    0 -0.32482466889E+00  0.14899963421E+02  0.92011749626E+01  0.17388437550E+03  0.17300000000E+03 0. -1.
         -6    1    1    2    0  503  0.32482466889E+00 -0.14899963421E+02 -0.93853531340E+01  0.17389421863E+03  0.17300000000E+03 0. -1.
<mgrwt>
<rscale>  2 0.17364076E+03</rscale>
<asrwt>0</asrwt>
<pdfrwt beam="1">  1       21 0.26738032E-01 0.17364076E+03</pdfrwt>
<pdfrwt beam="2">  1       21 0.26766367E-01 0.17364076E+03</pdfrwt>
<totfact> 0.17798954E+05</totfact>
</mgrwt>
</event>
<event>
 4    2  0.3972096E+000  0.1889372E+03  0.7546771E-02  0.1159423E+00
         21   -1    0    0  503  502  0.00000000000E+00  0.00000000000E+00  0.66865536880E+02  0.66865536880E+02  0.00000000000E+00 0. -1.
         21   -1    0    0  501  503 -0.00000000000E+00 -0.00000000000E+00 -0.64297328507E+03  0.64297328507E+03  0.00000000000E+00 0.  1.
          6    1    1    2  501    0 -0.43844651263E+02  0.62015328975E+02 -0.43425800171E+03  0.47357920829E+03  0.17300000000E+03 0. -1.
         -6    1    1    2    0  502  0.43844651263E+02 -0.62015328975E+02 -0.14184974648E+03  0.23625961367E+03  0.17300000000E+03 0. -1.
<mgrwt>
<rscale>  2 0.18893717E+03</rscale>
<asrwt>0</asrwt>
<pdfrwt beam="1">  1       21 0.10287006E-01 0.18893717E+03</pdfrwt>
<pdfrwt beam="2">  1       21 0.98918968E-01 0.18893717E+03</pdfrwt>
<totfact> 0.65128866E+04</totfact>
</mgrwt>
</event>
<event>
 4    2  0.3972096E+000  0.2331486E+03  0.7546771E-02  0.1124443E+00
         21   -1    0    0  501  502  0.00000000000E+00  0.00000000000E+00  0.14095001162E+03  0.14095001162E+03  0.00000000000E+00 0.  1.
         21   -1    0    0  502  503 -0.00000000000E+00 -0.00000000000E+00 -0.73863446079E+03  0.73863446079E+03  0.00000000000E+00 0. -1.
          6    1    1    2  501    0 -0.71241844771E+02 -0.13911822789E+03  0.51808860674E+01  0.23320618207E+03  0.17300000000E+03 0.  1.
         -6    1    1    2    0  503  0.71241844771E+02  0.13911822789E+03 -0.60286533524E+03  0.64637829033E+03  0.17300000000E+03 0. -1.
<mgrwt>
<rscale>  2 0.23314863E+03</rscale>
<asrwt>0</asrwt>
<pdfrwt beam="1">  1       21 0.21684617E-01 0.23314863E+03</pdfrwt>
<pdfrwt beam="2">  1       21 0.11363607E+00 0.23314863E+03</pdfrwt>
<totfact> 0.11657302E+04</totfact>
</mgrwt>
</event>
<event>
 4    2  0.3972096E+000  0.2100305E+03  0.7546771E-02  0.1141542E+00
         21   -1    0    0  503  502  0.00000000000E+00  0.00000000000E+00  0.49296021840E+03  0.49296021840E+03  0.00000000000E+00 0.  1.
         21   -1    0    0  501  503 -0.00000000000E+00 -0.00000000000E+00 -0.93254503604E+02  0.93254503604E+02  0.00000000000E+00 0.  1.
          6    1    1    2  501    0 -0.10044385432E+03 -0.63990903402E+02  0.14092730046E+03  0.25292945183E+03  0.17300000000E+03 0.  1.
         -6    1    1    2    0  502  0.10044385432E+03  0.63990903402E+02  0.25877841434E+03  0.33328527017E+03  0.17300000000E+03 0.  1.
<mgrwt>
<rscale>  2 0.21003048E+03</rscale>
<asrwt>0</asrwt>
<pdfrwt beam="1">  1       21 0.75840032E-01 0.21003048E+03</pdfrwt>
<pdfrwt beam="2">  1       21 0.14346847E-01 0.21003048E+03</pdfrwt>
<totfact> 0.65437346E+04</totfact>
</mgrwt>
</event>
<event>
 4    2  0.3972096E+000  0.2806318E+03  0.7546771E-02  0.1095344E+00
         21   -1    0    0  503  502  0.00000000000E+00  0.00000000000E+00  0.40642134263E+03  0.40642134263E+03  0.00000000000E+00 0.  1.
         21   -1    0    0  501  503 -0.00000000000E+00 -0.00000000000E+00 -0.65108035712E+03  0.65108035712E+03  0.00000000000E+00 0. -1.
          6    1    1    2  501    0 -0.19621920492E+03  0.10160335102E+03 -0.56546549170E+03  0.63127287255E+03  0.17300000000E+03 0. -1.
         -6    1    1    2    0  502  0.19621920492E+03 -0.10160335102E+03  0.32080647721E+03  0.42622882720E+03  0.17300000000E+03 0.  1.
<mgrwt>
<rscale>  2 0.28063182E+03</rscale>
<asrwt>0</asrwt>
<pdfrwt beam="1">  1       21 0.62526360E-01 0.28063182E+03</pdfrwt>
<pdfrwt beam="2">  1       21 0.10016621E+00 0.28063182E+03</pdfrwt>
<totfact> 0.18108153E+03</totfact>
</mgrwt>
</event>
<event>
 4    2  0.3972096E+000  0.1817205E+03  0.7546771E-02  0.1166148E+00
         21   -1    0    0  501  502  0.00000000000E+00  0.00000000000E+00  0.30659071993E+03  0.30659071993E+03  0.00000000000E+00 0. -1.
         21   -1    0    0  502  503 -0.00000000000E+00 -0.00000000000E+00 -0.22232311442E+03  0.22232311442E+03  0.00000000000E+00 0. -1.
          6    1    1    2  501    0  0.38253156287E+02  0.40373506815E+02  0.23201556544E+03  0.29470925779E+03  0.17300000000E+03 0. -1.
         -6    1    1    2    0  503 -0.38253156287E+02 -0.40373506815E+02 -0.14774795993E+03  0.23420457656E+03  0.17300000000E+03 0. -1.
<mgrwt>
<rscale>  2 0.18172046E+03</rscale>
<asrwt>0</asrwt>
<pdfrwt beam="1">  1       21 0.47167803E-01 0.18172046E+03</pdfrwt>
<pdfrwt beam="2">  1       21 0.34203556E-01 0.18172046E+03</pdfrwt>
<totfact> 0.35624883E+04</totfact>
</mgrwt>
</event>
<event>
 4    2  0.3972096E+000  0.2027331E+03  0.7546771E-02  0.1147453E+00
         21   -1    0    0  501  502  0.00000000000E+00  0.00000000000E+00  0.21494495891E+03  0.21494495891E+03  0.00000000000E+00 0. -1.
         21   -1    0    0  502  503 -0.00000000000E+00 -0.00000000000E+00 -0.20986202442E+03  0.20986202442E+03  0.00000000000E+00 0. -1.
          6    1    1    2  501    0 -0.45558293888E+02  0.95373664375E+02  0.65855479344E+02  0.21316106154E+03  0.17300000000E+03 0. -1.
         -6    1    1    2    0  503  0.45558293888E+02 -0.95373664375E+02 -0.60772544852E+02  0.21164592178E+03  0.17300000000E+03 0. -1.
<mgrwt>
<rscale>  2 0.20273306E+03</rscale>
<asrwt>0</asrwt>
<pdfrwt beam="1">  1       21 0.33068455E-01 0.20273306E+03</pdfrwt>
<pdfrwt beam="2">  1       21 0.32286465E-01 0.20273306E+03</pdfrwt>
<totfact> 0.80909360E+04</totfact>
</mgrwt>
</event>
<event>
 4    2  0.3972096E+000  0.2410893E+03  0.7546771E-02  0.1119069E+00
         21   -1    0    0  503  502  0.00000000000E+00  0.00000000000E+00  0.72340847795E+03  0.72340847795E+03  0.00000000000E+00 0.  1.
         21   -1    0    0  501  503 -0.00000000000E+00 -0.00000000000E+00 -0.10029608464E+03  0.10029608464E+03  0.00000000000E+00 0. -1.
          6    1    1    2  501    0 -0.58945297566E+02  0.15722751245E+03  0.12787872617E+03  0.27290475881E+03  0.17300000000E+03 0. -1.
         -6    1    1    2    0  502  0.58945297566E+02 -0.15722751245E+03  0.49523366713E+03  0.55079980377E+03  0.17300000000E+03 0.  1.
<mgrwt>
<rscale>  2 0.24108928E+03</rscale>
<asrwt>0</asrwt>
<pdfrwt beam="1">  1       21 0.11129361E+00 0.24108928E+03</pdfrwt>
<pdfrwt beam="2">  1       21 0.15430167E-01 0.24108928E+03</pdfrwt>
<totfact> 0.23011038E+04</totfact>
</mgrwt>
</event>
<event>
 4    2  0.3972096E+000  0.2097226E+03  0.7546771E-02  0.1141786E+00
         21   -1    0    0  503  502  0.00000000000E+00  0.00000000000E+00  0.35793384481E+03  0.35793384481E+03  0.00000000000E+00 0.  1.
         21   -1    0    0  501  503 -0.00000000000E+00 -0.00000000000E+00 -0.12385650545E+03  0.12385650545E+03  0.00000000000E+00 0.  1.
          6    1    1    2  501    0 -0.73000742599E+02  0.93410179607E+02  0.13840825458E+03  0.25127756567E+03  0.17300000000E+03 0.  1.
         -6    1    1    2    0  502  0.73000742599E+02 -0.93410179607E+02  0.95669084785E+02  0.23051278459E+03  0.17300000000E+03 0.  1.
<mgrwt>
<rscale>  2 0.20972260E+03</rscale>
<asrwt>0</asrwt>
<pdfrwt beam="1">  1       21 0.55066745E-01 0.20972260E+03</pdfrwt>
<pdfrwt beam="2">  1       21 0.19054847E-01 0.20972260E+03</pdfrwt>
<totfact> 0.78018054E+04</totfact>
</mgrwt>
</event>
<event>
 4    2  0.3972096E+000  0.2030772E+03  0.7546771E-02  0.1147168E+00
         21   -1    0    0  501  502  0.00000000000E+00  0.00000000000E+00  0.69635719828E+03  0.69635719828E+03  0.00000000000E+00 0.  1.
         21   -1    0    0  502  503 -0.00000000000E+00 -0.00000000000E+00 -0.10699118026E+03  0.10699118026E+03  0.00000000000E+00 0.  1.
          6    1    1    2  501    0 -0.82313832123E+02 -0.67348336050E+02  0.56307482304E+03  0.59857632903E+03  0.17300000000E+03 0.  1.
         -6    1    1    2    0  503  0.82313832123E+02  0.67348336050E+02  0.26291194974E+02  0.20477204951E+03  0.17300000000E+03 0.  1.
<mgrwt>
<rscale>  2 0.20307724E+03</rscale>
<asrwt>0</asrwt>
<pdfrwt beam="1">  1       21 0.10713187E+00 0.20307724E+03</pdfrwt>
<pdfrwt beam="2">  1       21 0.16460182E-01 0.20307724E+03</pdfrwt>
<totfact> 0.22897304E+04</totfact>
</mgrwt>
</event>
<event>
 4    2  0.3972096E+000  0.2054269E+03  0.7546771E-02  0.1145239E+00
         21   -1    0    0  503  502  0.00000000000E+00  0.00000000000E+00  0.11518348482E+04  0.11518348482E+04  0.00000000000E+00 0.  1.
         21   -1    0    0  501  503 -0.00000000000E+00 -0.00000000000E+00 -0.48748317585E+02  0.48748317585E+02  0.00000000000E+00 0. -1.
          6    1    1    2  501    0 -0.82788896339E+02 -0.73601615711E+02  0.85075009681E+03  0.87520050641E+03  0.17300000000E+03 0.  1.
         -6    1    1    2    0  502  0.82788896339E+02  0.73601615711E+02  0.25233643376E+03  0.32538265933E+03  0.17300000000E+03 0. -1.
<mgrwt>
<rscale>  2 0.20542687E+03</rscale>
<asrwt>0</asrwt>
<pdfrwt beam="1">  1       21 0.17720534E+00 0.20542687E+03</pdfrwt>
<pdfrwt beam="2">  1       21 0.74997420E-02 0.20542687E+03</pdfrwt>
<totfact> 0.25304254E+04</totfact>
</mgrwt>
</event>
<event>
 4    2  0.3972096E+000  0.1860970E+03  0.7546771E-02  0.1162029E+00
         21   -1    0    0  501  502  0.00000000000E+00  0.00000000000E+00  0.11664189555E+04  0.11664189555E+04  0.00000000000E+00 0. -1.
         21   -1    0    0  502  503 -0.00000000000E+00 -0.00000000000E+00 -0.46949439112E+02  0.46949439112E+02  0.00000000000E+00 0. -1.
          6    1    1    2  501    0 -0.35538707824E+02 -0.58652274723E+02  0.92756619312E+03  0.94605027970E+03  0.17300000000E+03 0. -1.
         -6    1    1    2    0  503  0.35538707824E+02  0.58652274723E+02  0.19190332327E+03  0.26731811492E+03  0.17300000000E+03 0. -1.
<mgrwt>
<rscale>  2 0.18609699E+03</rscale>
<asrwt>0</asrwt>
<pdfrwt beam="1">  1       21 0.17944905E+00 0.18609699E+03</pdfrwt>
<pdfrwt beam="2">  1       21 0.72229915E-02 0.18609699E+03</pdfrwt>
<totfact> 0.26417127E+04</totfact>
</mgrwt>
</event>
<event>
 4    2  0.3972096E+000  0.2329178E+03  0.7546771E-02  0.1124603E+00
         21   -1    0    0  503  502  0.00000000000E+00  0.00000000000E+00  0.23424109865E+03  0.23424109865E+03  0.00000000000E+00 0.  1.
         21   -1    0    0  501  503 -0.00000000000E+00 -0.00000000000E+00 -0.44657690527E+03  0.44657690527E+03  0.00000000000E+00 0.  1.
          6    1    1    2  501    0 -0.12103798662E+03 -0.98343884013E+02 -0.34234988389E+03  0.41407023164E+03  0.17300000000E+03 0.  1.
         -6    1    1    2    0  502  0.12103798662E+03  0.98343884013E+02  0.13001407727E+03  0.26674777228E+03  0.17300000000E+03 0.  1.
<mgrwt>
<rscale>  2 0.23291783E+03</rscale>
<asrwt>0</asrwt>
<pdfrwt beam="1">  1       21 0.36037092E-01 0.23291783E+03</pdfrwt>
<pdfrwt beam="2">  1       21 0.68704139E-01 0.23291783E+03</pdfrwt>
<totfact> 0.13987880E+04</totfact>
</mgrwt>
</event>
<event>
 4    2  0.3972096E+000  0.1885482E+03  0.7546771E-02  0.1159777E+00
         21   -1    0    0  501  502  0.00000000000E+00  0.00000000000E+00  0.36574506207E+03  0.36574506207E+03  0.00000000000E+00 0.  1.
         21   -1    0    0  502  503 -0.00000000000E+00 -0.00000000000E+00 -0.58058367823E+03  0.58058367823E+03  0.00000000000E+00 0.  1.
          6    1    1    2  501    0 -0.54589171507E+02 -0.51394970591E+02  0.32432399852E+03  0.37514860610E+03  0.17300000000E+03 0.  1.
         -6    1    1    2    0  503  0.54589171507E+02  0.51394970591E+02 -0.53916261467E+03  0.57118013421E+03  0.17300000000E+03 0.  1.
<mgrwt>
<rscale>  2 0.18854819E+03</rscale>
<asrwt>0</asrwt>
<pdfrwt beam="1">  1       21 0.56268471E-01 0.18854819E+03</pdfrwt>
<pdfrwt beam="2">  1       21 0.89320566E-01 0.18854819E+03</pdfrwt>
<totfact> 0.31887288E+03</totfact>
</mgrwt>
</event>
<event>
 4    2  0.3972096E+000  0.1844058E+03  0.7546771E-02  0.1163606E+00
         21   -1    0    0  501  502  0.00000000000E+00  0.00000000000E+00  0.48140593088E+03  0.48140593088E+03  0.00000000000E+00 0. -1.
         21   -1    0    0  502  503 -0.00000000000E+00 -0.00000000000E+00 -0.91882624790E+02  0.91882624790E+02  0.00000000000E+00 0. -1.
          6    1    1    2  501    0 -0.63844452434E+02  0.62386607181E+00  0.33259431680E+03  0.38029525751E+03  0.17300000000E+03 0. -1.
         -6    1    1    2    0  503  0.63844452434E+02 -0.62386607181E+00  0.56928989296E+02  0.19299329817E+03  0.17300000000E+03 0. -1.
<mgrwt>
<rscale>  2 0.18440581E+03</rscale>
<asrwt>0</asrwt>
<pdfrwt beam="1">  1       21 0.74062449E-01 0.18440581E+03</pdfrwt>
<pdfrwt beam="2">  1       21 0.14135789E-01 0.18440581E+03</pdfrwt>
<totfact> 0.71699955E+04</totfact>
</mgrwt>
</event>
<event>
 4    2  0.3972096E+000  0.4095281E+03  0.7546771E-02  0.1040529E+00
         21   -1    0    0  503  502  0.00000000000E+00  0.00000000000E+00  0.11680740319E+04  0.11680740319E+04  0.00000000000E+00 0.  1.
         21   -1    0    0  501  503 -0.00000000000E+00 -0.00000000000E+00 -0.23379966926E+03  0.23379966926E+03  0.00000000000E+00 0. -1.
          6    1    1    2  501    0 -0.35113231090E+03 -0.12037588529E+03  0.31720440936E+02  0.41075471986E+03  0.17300000000E+03 0. -1.
         -6    1    1    2    0  502  0.35113231090E+03  0.12037588529E+03  0.90255392172E+03  0.99111898132E+03  0.17300000000E+03 0.  1.
<mgrwt>
<rscale>  2 0.40952809E+03</rscale>
<asrwt>0</asrwt>
<pdfrwt beam="1">  1       21 0.17970369E+00 0.40952809E+03</pdfrwt>
<pdfrwt beam="2">  1       21 0.35969180E-01 0.40952809E+03</pdfrwt>
<totfact> 0.11677142E+03</totfact>
</mgrwt>
</event>
<event>
 4    2  0.3972096E+000  0.1909985E+03  0.7546771E-02  0.1157564E+00
         21   -1    0    0  503  502  0.00000000000E+00  0.00000000000E+00  0.35446027610E+03  0.35446027610E+03  0.00000000000E+00 0. -1.
         21   -1    0    0  501  503 -0.00000000000E+00 -0.00000000000E+00 -0.24178009689E+03  0.24178009689E+03  0.00000000000E+00 0. -1.
          6    1    1    2  501    0  0.80733673886E+02 -0.57884791650E+01 -0.16958921913E+03  0.25542305267E+03  0.17300000000E+03 0. -1.
         -6    1    1    2    0  502 -0.80733673886E+02  0.57884791650E+01  0.28226939834E+03  0.34081732032E+03  0.17300000000E+03 0. -1.
<mgrwt>
<rscale>  2 0.19099851E+03</rscale>
<asrwt>0</asrwt>
<pdfrwt beam="1">  1       21 0.54532350E-01 0.19099851E+03</pdfrwt>
<pdfrwt beam="2">  1       21 0.37196938E-01 0.19099851E+03</pdfrwt>
<totfact> 0.22160313E+04</totfact>
</mgrwt>
</event>
<event>
 4    2  0.3972096E+000  0.1858075E+03  0.7546771E-02  0.1162298E+00
         21   -1    0    0  501  502  0.00000000000E+00  0.00000000000E+00  0.24186635416E+03  0.24186635416E+03  0.00000000000E+00 0.  1.
         21   -1    0    0  502  503 -0.00000000000E+00 -0.00000000000E+00 -0.30610653477E+03  0.30610653477E+03  0.00000000000E+00 0.  1.
          6    1    1    2  501    0 -0.29442090889E+02 -0.61062231403E+02  0.16803745424E+03  0.25052149378E+03  0.17300000000E+03 0.  1.
         -6    1    1    2    0  503  0.29442090889E+02  0.61062231403E+02 -0.23227763485E+03  0.29745139514E+03  0.17300000000E+03 0.  1.
<mgrwt>
<rscale>  2 0.18580752E+03</rscale>
<asrwt>0</asrwt>
<pdfrwt beam="1">  1       21 0.37210208E-01 0.18580752E+03</pdfrwt>
<pdfrwt beam="2">  1       21 0.47093313E-01 0.18580752E+03</pdfrwt>
<totfact> 0.30165942E+04</totfact>
</mgrwt>
</event>
<event>
 4    2  0.3972096E+000  0.2183014E+03  0.7546771E-02  0.1135156E+00
         21   -1    0    0  501  502  0.00000000000E+00  0.00000000000E+00  0.17233600327E+03  0.17233600327E+03  0.00000000000E+00 0.  1.
         21   -1    0    0  502  503 -0.00000000000E+00 -0.00000000000E+00 -0.33889599870E+03  0.33889599870E+03  0.00000000000E+00 0.  1.
          6    1    1    2  501    0 -0.11770835778E+03 -0.62219354879E+02  0.26377986772E+02  0.21988929897E+03  0.17300000000E+03 0.  1.
         -6    1    1    2    0  503  0.11770835778E+03  0.62219354879E+02 -0.19293798221E+03  0.29134270300E+03  0.17300000000E+03 0.  1.
<mgrwt>
<rscale>  2 0.21830141E+03</rscale>
<asrwt>0</asrwt>
<pdfrwt beam="1">  1       21 0.26513232E-01 0.21830141E+03</pdfrwt>
<pdfrwt beam="2">  1       21 0.52137845E-01 0.21830141E+03</pdfrwt>
<totfact> 0.46664450E+04</totfact>
</mgrwt>
</event>
<event>
 4    2  0.3972096E+000  0.2692189E+03  0.7546771E-02  0.1101727E+00
         21   -1    0    0  503  502  0.00000000000E+00  0.00000000000E+00  0.10400096373E+04  0.10400096373E+04  0.00000000000E+00 0.  1.
         21   -1    0    0  501  503 -0.00000000000E+00 -0.00000000000E+00 -0.32767597488E+03  0.32767597488E+03  0.00000000000E+00 0.  1.
          6    1    1    2  501    0  0.11547091533E+03 -0.17092772352E+03 -0.25061363018E+03  0.36781246660E+03  0.17300000000E+03 0.  1.
         -6    1    1    2    0  502 -0.11547091533E+03  0.17092772352E+03  0.96294729256E+03  0.99987314555E+03  0.17300000000E+03 0.  1.
<mgrwt>
<rscale>  2 0.26921891E+03</rscale>
<asrwt>0</asrwt>
<pdfrwt beam="1">  1       21 0.16000148E+00 0.26921891E+03</pdfrwt>
<pdfrwt beam="2">  1       21 0.50411689E-01 0.26921891E+03</pdfrwt>
<totfact> 0.87866836E+02</totfact>
</mgrwt>
</event>
<event>
 4    2  0.3972096E+000  0.1810420E+03  0.7546771E-02  0.1166798E+00
         21   -1    0    0  503  502  0.00000000000E+00  0.00000000000E+00  0.47749951865E+03  0.47749951865E+03  0.00000000000E+00 0. -1.
         21   -1    0    0  501  503 -0.00000000000E+00 -0.00000000000E+00 -0.10587139970E+03  0.10587139970E+03  0.00000000000E+00 0. -1.
          6    1    1    2  501    0 -0.37177817237E+02  0.38275663144E+02  0.12843495922E+02  0.18149702992E+03  0.17300000000E+03 0. -1.
         -6    1    1    2    0  502  0.37177817237E+02 -0.38275663144E+02  0.35878462302E+03  0.40187388843E+03  0.17300000000E+03 0. -1.
<mgrwt>
<rscale>  2 0.18104203E+03</rscale>
<asrwt>0</asrwt>
<pdfrwt beam="1">  1       21 0.73461463E-01 0.18104203E+03</pdfrwt>
<pdfrwt beam="2">  1       21 0.16287908E-01 0.18104203E+03</pdfrwt>
<totfact> 0.56495485E+04</totfact>
</mgrwt>
</event>
<event>
 4    2  0.3972096E+000  0.2105433E+03  0.7546771E-02  0.1141137E+00
         21   -1    0    0  501  502  0.00000000000E+00  0.00000000000E+00  0.88837703326E+02  0.88837703326E+02  0.00000000000E+00 0.  1.
         21   -1    0    0  502  503 -0.00000000000E+00 -0.00000000000E+00 -0.73680687796E+03  0.73680687796E+03  0.00000000000E+00 0.  1.
          6    1    1    2  501    0  0.46544732306E+01  0.11990746466E+03 -0.55852324650E+03  0.59688916985E+03  0.17300000000E+03 0.  1.
         -6    1    1    2    0  503 -0.46544732306E+01 -0.11990746466E+03 -0.89445928130E+02  0.22875541143E+03  0.17300000000E+03 0.  1.
<mgrwt>
<rscale>  2 0.21054326E+03</rscale>
<asrwt>0</asrwt>
<pdfrwt beam="1">  1       21 0.13667339E-01 0.21054326E+03</pdfrwt>
<pdfrwt beam="2">  1       21 0.11335490E+00 0.21054326E+03</pdfrwt>
<totfact> 0.27904987E+04</totfact>
</mgrwt>
</event>
<event>
 4    2  0.3972096E+000  0.1828815E+03  0.7546771E-02  0.1165043E+00
         21   -1    0    0  503  502  0.00000000000E+00  0.00000000000E+00  0.10108568858E+03  0.10108568858E+03  0.00000000000E+00 0. -1.
         21   -1    0    0  501  503 -0.00000000000E+00 -0.00000000000E+00 -0.49291035951E+03  0.49291035951E+03  0.00000000000E+00 0. -1.
          6    1    1    2  501    0 -0.37036171054E+02 -0.46313859885E+02 -0.36620217841E+03  0.40932833649E+03  0.17300000000E+03 0. -1.
         -6    1    1    2    0  502  0.37036171054E+02  0.46313859885E+02 -0.25622492523E+02  0.18466771160E+03  0.17300000000E+03 0. -1.
<mgrwt>
<rscale>  2 0.18288152E+03</rscale>
<asrwt>0</asrwt>
<pdfrwt beam="1">  1       21 0.15551644E-01 0.18288152E+03</pdfrwt>
<pdfrwt beam="2">  1       21 0.75832363E-01 0.18288152E+03</pdfrwt>
<totfact> 0.57229527E+04</totfact>
</mgrwt>
</event>
<event>
 4    2  0.3972096E+000  0.2877190E+03  0.7546771E-02  0.1091546E+00
         21   -1    0    0  503  502  0.00000000000E+00  0.00000000000E+00  0.12480470476E+03  0.12480470476E+03  0.00000000000E+00 0.  1.
         21   -1    0    0  501  503 -0.00000000000E+00 -0.00000000000E+00 -0.71063605351E+03  0.71063605351E+03  0.00000000000E+00 0. -1.
          6    1    1    2  501    0 -0.11484364102E+03 -0.19915857645E+03 -0.18509898075E+03  0.34211669519E+03  0.17300000000E+03 0.  1.
         -6    1    1    2    0  502  0.11484364102E+03  0.19915857645E+03 -0.40073236799E+03  0.49332406308E+03  0.17300000000E+03 0. -1.
<mgrwt>
<rscale>  2 0.28771896E+03</rscale>
<asrwt>0</asrwt>
<pdfrwt beam="1">  1       21 0.19200723E-01 0.28771896E+03</pdfrwt>
<pdfrwt beam="2">  1       21 0.10932863E+00 0.28771896E+03</pdfrwt>
<totfact> 0.15664836E+04</totfact>
</mgrwt>
</event>
<event>
 4    2  0.3972096E+000  0.3646319E+03  0.7546771E-02  0.1056765E+00
         21   -1    0    0  501  502  0.00000000000E+00  0.00000000000E+00  0.28945418546E+03  0.28945418546E+03  0.00000000000E+00 0.  1.
         21   -1    0    0  502  503 -0.00000000000E+00 -0.00000000000E+00 -0.13273449175E+04  0.13273449175E+04  0.00000000000E+00 0. -1.
          6    1    1    2  501    0  0.70235016265E+02  0.31320040741E+03  0.13478174991E+03  0.38874486855E+03  0.17300000000E+03 0.  1.
         -6    1    1    2    0  503 -0.70235016265E+02 -0.31320040741E+03 -0.11726724820E+04  0.12280542344E+04  0.17300000000E+03 0. -1.
<mgrwt>
<rscale>  2 0.36463194E+03</rscale>
<asrwt>0</asrwt>
<pdfrwt beam="1">  1       21 0.44531414E-01 0.36463194E+03</pdfrwt>
<pdfrwt beam="2">  1       21 0.20420691E+00 0.36463194E+03</pdfrwt>
<totfact> 0.52693481E+02</totfact>
</mgrwt>
</event>
<event>
 4    2  0.3972096E+000  0.2168458E+03  0.7546771E-02  0.1136257E+00
         21   -1    0    0  503  502  0.00000000000E+00  0.00000000000E+00  0.11725594432E+04  0.11725594432E+04  0.00000000000E+00 0. -1.
         21   -1    0    0  501  503 -0.00000000000E+00 -0.00000000000E+00 -0.49367125348E+02  0.49367125348E+02  0.00000000000E+00 0. -1.
          6    1    1    2  501    0  0.37123931949E+02 -0.12535914572E+03  0.29691722004E+03  0.36767096336E+03  0.17300000000E+03 0. -1.
         -6    1    1    2    0  502 -0.37123931949E+02  0.12535914572E+03  0.82627509783E+03  0.85425560521E+03  0.17300000000E+03 0. -1.
<mgrwt>
<rscale>  2 0.21684580E+03</rscale>
<asrwt>0</asrwt>
<pdfrwt beam="1">  1       21 0.18039374E+00 0.21684580E+03</pdfrwt>
<pdfrwt beam="2">  1       21 0.75949433E-02 0.21684580E+03</pdfrwt>
<totfact> 0.23361578E+04</totfact>
</mgrwt>
</event>
<event>
 4    2  0.3972096E+000  0.1824559E+03  0.7546771E-02  0.1165447E+00
         21   -1    0    0  503  502  0.00000000000E+00  0.00000000000E+00  0.60395632563E+03  0.60395632563E+03  0.00000000000E+00 0. -1.
         21   -1    0    0  501  503 -0.00000000000E+00 -0.00000000000E+00 -0.72009502437E+02  0.72009502437E+02  0.00000000000E+00 0. -1.
          6    1    1    2  501    0  0.31337141699E+01 -0.57890820271E+02  0.42965742144E+03  0.46679295949E+03  0.17300000000E+03 0. -1.
         -6    1    1    2    0  502 -0.31337141699E+01  0.57890820271E+02  0.10228940176E+03  0.20917286858E+03  0.17300000000E+03 0. -1.
<mgrwt>
<rscale>  2 0.18245593E+03</rscale>
<asrwt>0</asrwt>
<pdfrwt beam="1">  1       21 0.92916354E-01 0.18245593E+03</pdfrwt>
<pdfrwt beam="2">  1       21 0.11078385E-01 0.18245593E+03</pdfrwt>
<totfact> 0.66328731E+04</totfact>
</mgrwt>
</event>
<event>
 4    2  0.3972096E+000  0.2144069E+03  0.7546771E-02  0.1138123E+00
         21   -1    0    0  501  502  0.00000000000E+00  0.00000000000E+00  0.13466604521E+03  0.13466604521E+03  0.00000000000E+00 0.  1.
         21   -1    0    0  502  503 -0.00000000000E+00 -0.00000000000E+00 -0.35868087566E+03  0.35868087566E+03  0.00000000000E+00 0.  1.
          6    1    1    2  501    0  0.94298137505E+02  0.84552711045E+02 -0.57808798558E+02  0.22206340732E+03  0.17300000000E+03 0.  1.
         -6    1    1    2    0  503 -0.94298137505E+02 -0.84552711045E+02 -0.16620603189E+03  0.27128351354E+03  0.17300000000E+03 0.  1.
<mgrwt>
<rscale>  2 0.21440686E+03</rscale>
<asrwt>0</asrwt>
<pdfrwt beam="1">  1       21 0.20717853E-01 0.21440686E+03</pdfrwt>
<pdfrwt beam="2">  1       21 0.55181673E-01 0.21440686E+03</pdfrwt>
<totfact> 0.66285171E+04</totfact>
</mgrwt>
</event>
<event>
 4    2  0.3972096E+000  0.4552974E+03  0.7546771E-02  0.1026154E+00
         21   -1    0    0  501  502  0.00000000000E+00  0.00000000000E+00  0.14508379460E+04  0.14508379460E+04  0.00000000000E+00 0.  1.
         21   -1    0    0  502  503 -0.00000000000E+00 -0.00000000000E+00 -0.14956072778E+03  0.14956072778E+03  0.00000000000E+00 0. -1.
          6    1    1    2  501    0  0.28743402214E+03  0.30781222554E+03  0.81976144062E+03  0.93771237744E+03  0.17300000000E+03 0.  1.
         -6    1    1    2    0  503 -0.28743402214E+03 -0.30781222554E+03  0.48151577759E+03  0.66268629633E+03  0.17300000000E+03 0. -1.
<mgrwt>
<rscale>  2 0.45529736E+03</rscale>
<asrwt>0</asrwt>
<pdfrwt beam="1">  1       21 0.22320583E+00 0.45529736E+03</pdfrwt>
<pdfrwt beam="2">  1       21 0.23009344E-01 0.45529736E+03</pdfrwt>
<totfact> 0.14191109E+03</totfact>
</mgrwt>
</event>
<event>
 4    2  0.3972096E+000  0.1983854E+03  0.7546771E-02  0.1151108E+00
         21   -1    0    0  501  502  0.00000000000E+00  0.00000000000E+00  0.65433333382E+03  0.65433333382E+03  0.00000000000E+00 0.  1.
         21   -1    0    0  502  503 -0.00000000000E+00 -0.00000000000E+00 -0.67121154906E+02  0.67121154906E+02  0.00000000000E+00 0.  1.
          6    1    1    2  501    0 -0.39380989038E+02 -0.88751823822E+02  0.40987625972E+03  0.45536281888E+03  0.17300000000E+03 0.  1.
         -6    1    1    2    0  503  0.39380989038E+02  0.88751823822E+02  0.17733591919E+03  0.26609166985E+03  0.17300000000E+03 0.  1.
<mgrwt>
<rscale>  2 0.19838535E+03</rscale>
<asrwt>0</asrwt>
<pdfrwt beam="1">  1       21 0.10066666E+00 0.19838535E+03</pdfrwt>
<pdfrwt beam="2">  1       21 0.10326332E-01 0.19838535E+03</pdfrwt>
<totfact> 0.61779208E+04</totfact>
</mgrwt>
</event>
<event>
 4    2  0.3972096E+000  0.2021412E+03  0.7546771E-02  0.1147945E+00
         21   -1    0    0  503  502  0.00000000000E+00  0.00000000000E+00  0.14253761998E+03  0.14253761998E+03  0.00000000000E+00 0. -1.
         21   -1    0    0  501  503 -0.00000000000E+00 -0.00000000000E+00 -0.37223023035E+03  0.37223023035E+03  0.00000000000E+00 0. -1.
          6    1    1    2  501    0  0.10385174781E+03  0.12119050158E+02 -0.23824631080E+03  0.31244577371E+03  0.17300000000E+03 0. -1.
         -6    1    1    2    0  502 -0.10385174781E+03 -0.12119050158E+02  0.85537004207E+01  0.20232207663E+03  0.17300000000E+03 0. -1.
<mgrwt>
<rscale>  2 0.20214118E+03</rscale>
<asrwt>0</asrwt>
<pdfrwt beam="1">  1       21 0.21928865E-01 0.20214118E+03</pdfrwt>
<pdfrwt beam="2">  1       21 0.57266189E-01 0.20214118E+03</pdfrwt>
<totfact> 0.55351489E+04</totfact>
</mgrwt>
</event>
<event>
 4    2  0.3972096E+000  0.2340770E+03  0.7546771E-02  0.1123803E+00
         21   -1    0    0  501  502  0.00000000000E+00  0.00000000000E+00  0.73860134138E+03  0.73860134138E+03  0.00000000000E+00 0. -1.
         21   -1    0    0  502  503 -0.00000000000E+00 -0.00000000000E+00 -0.14043127438E+03  0.14043127438E+03  0.00000000000E+00 0. -1.
          6    1    1    2  501    0  0.11251080101E+03  0.11047342497E+03  0.60096104902E+03  0.64493894317E+03  0.17300000000E+03 0. -1.
         -6    1    1    2    0  503 -0.11251080101E+03 -0.11047342497E+03 -0.27909820194E+01  0.23409367260E+03  0.17300000000E+03 0. -1.
<mgrwt>
<rscale>  2 0.23407703E+03</rscale>
<asrwt>0</asrwt>
<pdfrwt beam="1">  1       21 0.11363097E+00 0.23407703E+03</pdfrwt>
<pdfrwt beam="2">  1       21 0.21604812E-01 0.23407703E+03</pdfrwt>
<totfact> 0.11733709E+04</totfact>
</mgrwt>
</event>
<event>
 4    2  0.3972096E+000  0.1795687E+03  0.7546771E-02  0.1168221E+00
         21   -1    0    0  503  502  0.00000000000E+00  0.00000000000E+00  0.10369343710E+03  0.10369343710E+03  0.00000000000E+00 0.  1.
         21   -1    0    0  501  503 -0.00000000000E+00 -0.00000000000E+00 -0.60884218767E+03  0.60884218767E+03  0.00000000000E+00 0.  1.
          6    1    1    2  501    0  0.52386387961E+01  0.47838077293E+02 -0.50177181535E+03  0.53293515521E+03  0.17300000000E+03 0.  1.
         -6    1    1    2    0  502 -0.52386387961E+01 -0.47838077293E+02 -0.33769352274E+01  0.17960046956E+03  0.17300000000E+03 0.  1.
<mgrwt>
<rscale>  2 0.17956872E+03</rscale>
<asrwt>0</asrwt>
<pdfrwt beam="1">  1       21 0.15952836E-01 0.17956872E+03</pdfrwt>
<pdfrwt beam="2">  1       21 0.93668029E-01 0.17956872E+03</pdfrwt>
<totfact> 0.33805218E+04</totfact>
</mgrwt>
</event>
<event>
 4    2  0.3972096E+000  0.1942209E+03  0.7546771E-02  0.1154709E+00
         21   -1    0    0  503  502  0.00000000000E+00  0.00000000000E+00  0.12344626813E+03  0.12344626813E+03  0.00000000000E+00 0.  1.
         21   -1    0    0  501  503 -0.00000000000E+00 -0.00000000000E+00 -0.61576043897E+03  0.61576043897E+03  0.00000000000E+00 0. -1.
          6    1    1    2  501    0  0.87938604515E+02 -0.77168174120E+01 -0.50848389464E+03  0.54431389707E+03  0.17300000000E+03 0. -1.
         -6    1    1    2    0  502 -0.87938604515E+02  0.77168174120E+01  0.16169723800E+02  0.19489281003E+03  0.17300000000E+03 0.  1.
<mgrwt>
<rscale>  2 0.19422087E+03</rscale>
<asrwt>0</asrwt>
<pdfrwt beam="1">  1       21 0.18991734E-01 0.19422087E+03</pdfrwt>
<pdfrwt beam="2">  1       21 0.94732375E-01 0.19422087E+03</pdfrwt>
<totfact> 0.23681643E+04</totfact>
</mgrwt>
</event>
<event>
 4    2  0.3972096E+000  0.1772804E+03  0.7546771E-02  0.1170461E+00
         21   -1    0    0  501  502  0.00000000000E+00  0.00000000000E+00  0.35555738240E+03  0.35555738240E+03  0.00000000000E+00 0. -1.
         21   -1    0    0  502  503 -0.00000000000E+00 -0.00000000000E+00 -0.10520494243E+03  0.10520494243E+03  0.00000000000E+00 0. -1.
          6    1    1    2  501    0 -0.27497725203E+02 -0.27262024440E+02  0.33077444858E+02  0.18033984647E+03  0.17300000000E+03 0. -1.
         -6    1    1    2    0  503  0.27497725203E+02  0.27262024440E+02  0.21727499511E+03  0.28042247836E+03  0.17300000000E+03 0. -1.
<mgrwt>
<rscale>  2 0.17728041E+03</rscale>
<asrwt>0</asrwt>
<pdfrwt beam="1">  1       21 0.54701135E-01 0.17728041E+03</pdfrwt>
<pdfrwt beam="2">  1       21 0.16185376E-01 0.17728041E+03</pdfrwt>
<totfact> 0.10834144E+05</totfact>
</mgrwt>
</event>
<event>
 4    2  0.3972096E+000  0.2313289E+03  0.7546771E-02  0.1125708E+00
         21   -1    0    0  503  502  0.00000000000E+00  0.00000000000E+00  0.41785597625E+03  0.41785597625E+03  0.00000000000E+00 0. -1.
         21   -1    0    0  501  503 -0.00000000000E+00 -0.00000000000E+00 -0.15200298287E+03  0.15200298287E+03  0.00000000000E+00 0. -1.
          6    1    1    2  501    0 -0.15183673215E+03  0.23014241888E+02  0.19856313899E+02  0.23217950332E+03  0.17300000000E+03 0. -1.
         -6    1    1    2    0  502  0.15183673215E+03 -0.23014241888E+02  0.24599667948E+03  0.33767945580E+03  0.17300000000E+03 0. -1.
<mgrwt>
<rscale>  2 0.23132888E+03</rscale>
<asrwt>0</asrwt>
<pdfrwt beam="1">  1       21 0.64285535E-01 0.23132888E+03</pdfrwt>
<pdfrwt beam="2">  1       21 0.23385074E-01 0.23132888E+03</pdfrwt>
<totfact> 0.37662264E+04</totfact>
</mgrwt>
</event>
<event>
 4    2  0.3972096E+000  0.1987243E+03  0.7546771E-02  0.1150820E+00
         21   -1    0    0  501  502  0.00000000000E+00  0.00000000000E+00  0.39958014147E+03  0.39958014147E+03  0.00000000000E+00 0. -1.
         21   -1    0    0  502  503 -0.00000000000E+00 -0.00000000000E+00 -0.10617399108E+03  0.10617399108E+03  0.00000000000E+00 0. -1.
          6    1    1    2  501    0 -0.15669945124E+02  0.96523561556E+02  0.21320041869E+03  0.29145456532E+03  0.17300000000E+03 0. -1.
         -6    1    1    2    0  503  0.15669945124E+02 -0.96523561556E+02  0.80205731695E+02  0.21429956722E+03  0.17300000000E+03 0. -1.
<mgrwt>
<rscale>  2 0.19872429E+03</rscale>
<asrwt>0</asrwt>
<pdfrwt beam="1">  1       21 0.61473867E-01 0.19872429E+03</pdfrwt>
<pdfrwt beam="2">  1       21 0.16334460E-01 0.19872429E+03</pdfrwt>
<totfact> 0.82348707E+04</totfact>
</mgrwt>
</event>
<event>
 4    2  0.3972096E+000  0.1939757E+03  0.7546771E-02  0.1154924E+00
         21   -1    0    0  501  502  0.00000000000E+00  0.00000000000E+00  0.91305518517E+03  0.91305518517E+03  0.00000000000E+00 0.  1.
         21   -1    0    0  502  503 -0.00000000000E+00 -0.00000000000E+00 -0.55846744815E+02  0.55846744815E+02  0.00000000000E+00 0.  1.
          6    1    1    2  501    0 -0.73273881031E+02  0.48254829018E+02  0.67662031838E+03  0.70387615772E+03  0.17300000000E+03 0.  1.
         -6    1    1    2    0  503  0.73273881031E+02 -0.48254829018E+02  0.18058812197E+03  0.26502577226E+03  0.17300000000E+03 0.  1.
<mgrwt>
<rscale>  2 0.19397575E+03</rscale>
<asrwt>0</asrwt>
<pdfrwt beam="1">  1       21 0.14047002E+00 0.19397575E+03</pdfrwt>
<pdfrwt beam="2">  1       21 0.85918076E-02 0.19397575E+03</pdfrwt>
<totfact> 0.37558644E+04</totfact>
</mgrwt>
</event>
<event>
 4    2  0.3972096E+000  0.2043268E+03  0.7546771E-02  0.1146139E+00
         21   -1    0    0  503  502  0.00000000000E+00  0.00000000000E+00  0.92173395489E+02  0.92173395489E+02  0.00000000000E+00 0.  1.
         21   -1    0    0  501  503 -0.00000000000E+00 -0.00000000000E+00 -0.25471786194E+04  0.25471786194E+04  0.00000000000E+00 0.  1.
          6    1    1    2  501    0 -0.16107066743E+02 -0.10752211204E+03 -0.24241059920E+04  0.24327020580E+04  0.17300000000E+03 0.  1.
         -6    1    1    2    0  502  0.16107066743E+02  0.10752211204E+03 -0.30899231901E+02  0.20664995695E+03  0.17300000000E+03 0.  1.
<mgrwt>
<rscale>  2 0.20432680E+03</rscale>
<asrwt>0</asrwt>
<pdfrwt beam="1">  1       21 0.14180523E-01 0.20432680E+03</pdfrwt>
<pdfrwt beam="2">  1       21 0.39187362E+00 0.20432680E+03</pdfrwt>
<totfact> 0.41718170E+02</totfact>
</mgrwt>
</event>
<event>
 4    2  0.3972096E+000  0.2362996E+03  0.7546771E-02  0.1122283E+00
         21   -1    0    0  501  502  0.00000000000E+00  0.00000000000E+00  0.87824740210E+03  0.87824740210E+03  0.00000000000E+00 0. -1.
         21   -1    0    0  502  503 -0.00000000000E+00 -0.00000000000E+00 -0.13570581343E+03  0.13570581343E+03  0.00000000000E+00 0.  1.
          6    1    1    2  501    0  0.51485940861E+02 -0.15250477288E+03  0.74087684188E+03  0.77764773689E+03  0.17300000000E+03 0. -1.
         -6    1    1    2    0  503 -0.51485940861E+02  0.15250477288E+03  0.16647467898E+01  0.23630547865E+03  0.17300000000E+03 0.  1.
<mgrwt>
<rscale>  2 0.23629961E+03</rscale>
<asrwt>0</asrwt>
<pdfrwt beam="1">  1       21 0.13511498E+00 0.23629961E+03</pdfrwt>
<pdfrwt beam="2">  1       21 0.20877818E-01 0.23629961E+03</pdfrwt>
<totfact> 0.80938369E+03</totfact>
</mgrwt>
</event>
<event>
 4    2  0.3972096E+000  0.2804759E+03  0.7546771E-02  0.1095429E+00
         21   -1    0    0  501  502  0.00000000000E+00  0.00000000000E+00  0.32593277528E+03  0.32593277528E+03  0.00000000000E+00 0.  1.
         21   -1    0    0  502  503 -0.00000000000E+00 -0.00000000000E+00 -0.32142117820E+03  0.32142117820E+03  0.00000000000E+00 0. -1.
          6    1    1    2  501    0  0.21005751044E+03  0.67923411940E+02  0.16379903294E+03  0.32480281830E+03  0.17300000000E+03 0.  1.
         -6    1    1    2    0  503 -0.21005751044E+03 -0.67923411940E+02 -0.15928743586E+03  0.32255113518E+03  0.17300000000E+03 0. -1.
<mgrwt>
<rscale>  2 0.28047593E+03</rscale>
<asrwt>0</asrwt>
<pdfrwt beam="1">  1       21 0.50143504E-01 0.28047593E+03</pdfrwt>
<pdfrwt beam="2">  1       21 0.49449412E-01 0.28047593E+03</pdfrwt>
<totfact> 0.14074991E+04</totfact>
</mgrwt>
</event>
<event>
 4    2  0.3972096E+000  0.1777987E+03  0.7546771E-02  0.1169951E+00
         21   -1    0    0  501  502  0.00000000000E+00  0.00000000000E+00  0.21634337563E+03  0.21634337563E+03  0.00000000000E+00 0.  1.
         21   -1    0    0  502  503 -0.00000000000E+00 -0.00000000000E+00 -0.37926445540E+03  0.37926445540E+03  0.00000000000E+00 0.  1.
          6    1    1    2  501    0  0.34663887119E+02 -0.21950130976E+02  0.15203069907E+03  0.23393530469E+03  0.17300000000E+03 0.  1.
         -6    1    1    2    0  503 -0.34663887119E+02  0.21950130976E+02 -0.31495177884E+03  0.36167252635E+03  0.17300000000E+03 0.  1.
<mgrwt>
<rscale>  2 0.17779874E+03</rscale>
<asrwt>0</asrwt>
<pdfrwt beam="1">  1       21 0.33283597E-01 0.17779874E+03</pdfrwt>
<pdfrwt beam="2">  1       21 0.58348377E-01 0.17779874E+03</pdfrwt>
<totfact> 0.24117460E+04</totfact>
</mgrwt>
</event>
<event>
 4    2  0.3972096E+000  0.2280279E+03  0.7546771E-02  0.1128036E+00
         21   -1    0    0  503  502  0.00000000000E+00  0.00000000000E+00  0.39375423349E+03  0.39375423349E+03  0.00000000000E+00 0. -1.
         21   -1    0    0  501  503 -0.00000000000E+00 -0.00000000000E+00 -0.22860084539E+03  0.22860084539E+03  0.00000000000E+00 0. -1.
          6    1    1    2  501    0  0.16825301154E+02  0.14759623620E+03 -0.11965016563E+03  0.25751291586E+03  0.17300000000E+03 0. -1.
         -6    1    1    2    0  502 -0.16825301154E+02 -0.14759623620E+03  0.28480355373E+03  0.36484216302E+03  0.17300000000E+03 0. -1.
<mgrwt>
<rscale>  2 0.22802794E+03</rscale>
<asrwt>0</asrwt>
<pdfrwt beam="1">  1       21 0.60577574E-01 0.22802794E+03</pdfrwt>
<pdfrwt beam="2">  1       21 0.35169361E-01 0.22802794E+03</pdfrwt>
<totfact> 0.19384892E+04</totfact>
</mgrwt>
</event>
<event>
 4    2  0.3972096E+000  0.1730022E+03  0.7546771E-02  0.1174753E+00
         21   -1    0    0  501  502  0.00000000000E+00  0.00000000000E+00  0.45938437003E+03  0.45938437003E+03  0.00000000000E+00 0. -1.
         21   -1    0    0  502  503 -0.00000000000E+00 -0.00000000000E+00 -0.78560096576E+02  0.78560096576E+02  0.00000000000E+00 0. -1.
          6    1    1    2  501    0  0.87467814157E+00 -0.59580420642E-01  0.79292327979E+02  0.19030775572E+03  0.17300000000E+03 0. -1.
         -6    1    1    2    0  503 -0.87467814157E+00  0.59580420642E-01  0.30153194547E+03  0.34763671088E+03  0.17300000000E+03 0. -1.
<mgrwt>
<rscale>  2 0.17300222E+03</rscale>
<asrwt>0</asrwt>
<pdfrwt beam="1">  1       21 0.70674517E-01 0.17300222E+03</pdfrwt>
<pdfrwt beam="2">  1       21 0.12086169E-01 0.17300222E+03</pdfrwt>
<totfact> 0.10590219E+05</totfact>
</mgrwt>
</event>
<event>
 4    2  0.3972096E+000  0.2012550E+03  0.7546771E-02  0.1148684E+00
         21   -1    0    0  501  502  0.00000000000E+00  0.00000000000E+00  0.20378779497E+03  0.20378779497E+03  0.00000000000E+00 0.  1.
         21   -1    0    0  502  503 -0.00000000000E+00 -0.00000000000E+00 -0.23451779848E+03  0.23451779848E+03  0.00000000000E+00 0. -1.
          6    1    1    2  501    0 -0.66528190065E+01  0.10261738898E+03  0.70217001585E+02  0.21315256469E+03  0.17300000000E+03 0.  1.
         -6    1    1    2    0  503  0.66528190065E+01 -0.10261738898E+03 -0.10094700510E+03  0.22515302876E+03  0.17300000000E+03 0. -1.
<mgrwt>
<rscale>  2 0.20125503E+03</rscale>
<asrwt>0</asrwt>
<pdfrwt beam="1">  1       21 0.31351968E-01 0.20125503E+03</pdfrwt>
<pdfrwt beam="2">  1       21 0.36079661E-01 0.20125503E+03</pdfrwt>
<totfact> 0.72151631E+04</totfact>
</mgrwt>
</event>
<event>
 4    2  0.3972096E+000  0.2299019E+03  0.7546771E-02  0.1126709E+00
         21   -1    0    0  503  502  0.00000000000E+00  0.00000000000E+00  0.19806079471E+03  0.19806079471E+03  0.00000000000E+00 0.  1.
         21   -1    0    0  501  503 -0.00000000000E+00 -0.00000000000E+00 -0.47800940869E+03  0.47800940869E+03  0.00000000000E+00 0.  1.
          6    1    1    2  501    0  0.52565300628E+02 -0.14199570508E+03 -0.36463986599E+03  0.43106510292E+03  0.17300000000E+03 0.  1.
         -6    1    1    2    0  502 -0.52565300628E+02  0.14199570508E+03  0.84691252010E+02  0.24500510047E+03  0.17300000000E+03 0.  1.
<mgrwt>
<rscale>  2 0.22990192E+03</rscale>
<asrwt>0</asrwt>
<pdfrwt beam="1">  1       21 0.30470892E-01 0.22990192E+03</pdfrwt>
<pdfrwt beam="2">  1       21 0.73539908E-01 0.22990192E+03</pdfrwt>
<totfact> 0.16794850E+04</totfact>
</mgrwt>
</event>
<event>
 4    2  0.3972096E+000  0.1734171E+03  0.7546771E-02  0.1174331E+00
         21   -1    0    0  503  502  0.00000000000E+00  0.00000000000E+00  0.18991706450E+04  0.18991706450E+04  0.00000000000E+00 0. -1.
         21   -1    0    0  501  503 -0.00000000000E+00 -0.00000000000E+00 -0.12509404203E+03  0.12509404203E+03  0.00000000000E+00 0. -1.
          6    1    1    2  501    0  0.10721466699E+02  0.54336358174E+01 -0.58866810639E+02  0.18313594852E+03  0.17300000000E+03 0. -1.
         -6    1    1    2    0  502 -0.10721466699E+02 -0.54336358174E+01  0.18329434136E+04  0.18411287385E+04  0.17300000000E+03 0. -1.
<mgrwt>
<rscale>  2 0.17341705E+03</rscale>
<asrwt>0</asrwt>
<pdfrwt beam="1">  1       21 0.29218008E+00 0.17341705E+03</pdfrwt>
<pdfrwt beam="2">  1       21 0.19245239E-01 0.17341705E+03</pdfrwt>
<totfact> 0.96482251E+02</totfact>
</mgrwt>
</event>
<event>
 4    2  0.3972096E+000  0.1783955E+03  0.7546771E-02  0.1169365E+00
         21   -1    0    0  501  502  0.00000000000E+00  0.00000000000E+00  0.22096801558E+03  0.22096801558E+03  0.00000000000E+00 0. -1.
         21   -1    0    0  502  503 -0.00000000000E+00 -0.00000000000E+00 -0.24879014774E+03  0.24879014774E+03  0.00000000000E+00 0. -1.
          6    1    1    2  501    0  0.41970171430E+02 -0.11595041177E+02  0.13850682961E+03  0.22585190306E+03  0.17300000000E+03 0. -1.
         -6    1    1    2    0  503 -0.41970171430E+02  0.11595041177E+02 -0.16632896177E+03  0.24390626026E+03  0.17300000000E+03 0. -1.
<mgrwt>
<rscale>  2 0.17839546E+03</rscale>
<asrwt>0</asrwt>
<pdfrwt beam="1">  1       21 0.33995079E-01 0.17839546E+03</pdfrwt>
<pdfrwt beam="2">  1       21 0.38275407E-01 0.17839546E+03</pdfrwt>
<totfact> 0.55237513E+04</totfact>
</mgrwt>
</event>
<event>
 4    2  0.3972096E+000  0.2072681E+03  0.7546771E-02  0.1143748E+00
         21   -1    0    0  503  502  0.00000000000E+00  0.00000000000E+00  0.93402412554E+03  0.93402412554E+03  0.00000000000E+00 0.  1.
         21   -1    0    0  501  503 -0.00000000000E+00 -0.00000000000E+00 -0.51467552749E+02  0.51467552749E+02  0.00000000000E+00 0. -1.
          6    1    1    2  501    0 -0.92370462468E+02 -0.67072689952E+02  0.60196050487E+03  0.63664471843E+03  0.17300000000E+03 0.  1.
         -6    1    1    2    0  502  0.92370462468E+02  0.67072689952E+02  0.28059606792E+03  0.34884695986E+03  0.17300000000E+03 0.  1.
<mgrwt>
<rscale>  2 0.20726806E+03</rscale>
<asrwt>0</asrwt>
<pdfrwt beam="1">  1       21 0.14369601E+00 0.20726806E+03</pdfrwt>
<pdfrwt beam="2">  1       21 0.79180857E-02 0.20726806E+03</pdfrwt>
<totfact> 0.40514726E+04</totfact>
</mgrwt>
</event>
<event>
 4    2  0.3972096E+000  0.1864120E+03  0.7546771E-02  0.1161738E+00
         21   -1    0    0  501  502  0.00000000000E+00  0.00000000000E+00  0.33867287241E+03  0.33867287241E+03  0.00000000000E+00 0. -1.
         21   -1    0    0  502  503 -0.00000000000E+00 -0.00000000000E+00 -0.13219623875E+03  0.13219623875E+03  0.00000000000E+00 0. -1.
          6    1    1    2  501    0 -0.39524680308E+02 -0.57080989648E+02  0.21462779958E+03  0.28427896877E+03  0.17300000000E+03 0. -1.
         -6    1    1    2    0  503  0.39524680308E+02  0.57080989648E+02 -0.81511659210E+01  0.18659014239E+03  0.17300000000E+03 0. -1.
<mgrwt>
<rscale>  2 0.18641202E+03</rscale>
<asrwt>0</asrwt>
<pdfrwt beam="1">  1       21 0.52103519E-01 0.18641202E+03</pdfrwt>
<pdfrwt beam="2">  1       21 0.20337883E-01 0.18641202E+03</pdfrwt>
<totfact> 0.78405107E+04</totfact>
</mgrwt>
</event>
<event>
 4    2  0.3972096E+000  0.2282173E+03  0.7546771E-02  0.1127901E+00
         21   -1    0    0  503  502  0.00000000000E+00  0.00000000000E+00  0.10944687960E+03  0.10944687960E+03  0.00000000000E+00 0. -1.
         21   -1    0    0  501  503 -0.00000000000E+00 -0.00000000000E+00 -0.56113477801E+03  0.56113477801E+03  0.00000000000E+00 0. -1.
          6    1    1    2  501    0  0.72592665365E+02 -0.12994013356E+03 -0.35653861529E+03  0.42332365581E+03  0.17300000000E+03 0. -1.
         -6    1    1    2    0  502 -0.72592665365E+02  0.12994013356E+03 -0.95149283121E+02  0.24725800180E+03  0.17300000000E+03 0. -1.
<mgrwt>
<rscale>  2 0.22821729E+03</rscale>
<asrwt>0</asrwt>
<pdfrwt beam="1">  1       21 0.16837982E-01 0.22821729E+03</pdfrwt>
<pdfrwt beam="2">  1       21 0.86328427E-01 0.22821729E+03</pdfrwt>
<totfact> 0.36048675E+04</totfact>
</mgrwt>
</event>
<event>
 4    2  0.3972096E+000  0.2510123E+03  0.7546771E-02  0.1112667E+00
         21   -1    0    0  503  502  0.00000000000E+00  0.00000000000E+00  0.17643675260E+03  0.17643675260E+03  0.00000000000E+00 0. -1.
         21   -1    0    0  501  503 -0.00000000000E+00 -0.00000000000E+00 -0.35715728027E+03  0.35715728027E+03  0.00000000000E+00 0.  1.
          6    1    1    2  501    0  0.13844127015E+03 -0.11794988781E+03 -0.87259949105E+02  0.26574698499E+03  0.17300000000E+03 0.  1.
         -6    1    1    2    0  502 -0.13844127015E+03  0.11794988781E+03 -0.93460578556E+02  0.26784704788E+03  0.17300000000E+03 0. -1.
<mgrwt>
<rscale>  2 0.25101227E+03</rscale>
<asrwt>0</asrwt>
<pdfrwt beam="1">  1       21 0.27144116E-01 0.25101227E+03</pdfrwt>
<pdfrwt beam="2">  1       21 0.54947274E-01 0.25101227E+03</pdfrwt>
<totfact> 0.39336067E+04</totfact>
</mgrwt>
</event>
<event>
 4    2  0.3972096E+000  0.2199731E+03  0.7546771E-02  0.1133903E+00
         21   -1    0    0  503  502  0.00000000000E+00  0.00000000000E+00  0.51641881255E+03  0.51641881255E+03  0.00000000000E+00 0. -1.
         21   -1    0    0  501  503 -0.00000000000E+00 -0.00000000000E+00 -0.18465573187E+03  0.18465573187E+03  0.00000000000E+00 0.  1.
          6    1    1    2  501    0 -0.12297629341E+03 -0.57758154394E+02 -0.80137708953E+02  0.23411583786E+03  0.17300000000E+03 0.  1.
         -6    1    1    2    0  502  0.12297629341E+03  0.57758154394E+02  0.41190078963E+03  0.46695870657E+03  0.17300000000E+03 0. -1.
<mgrwt>
<rscale>  2 0.21997312E+03</rscale>
<asrwt>0</asrwt>
<pdfrwt beam="1">  1       21 0.79449048E-01 0.21997312E+03</pdfrwt>
<pdfrwt beam="2">  1       21 0.28408574E-01 0.21997312E+03</pdfrwt>
<totfact> 0.16274301E+04</totfact>
</mgrwt>
</event>
<event>
 4    2  0.3972096E+000  0.2195066E+03  0.7546771E-02  0.1134251E+00
         21   -1    0    0  501  502  0.00000000000E+00  0.00000000000E+00  0.35930664677E+03  0.35930664677E+03  0.00000000000E+00 0.  1.
         21   -1    0    0  502  503 -0.00000000000E+00 -0.00000000000E+00 -0.14395190286E+03  0.14395190286E+03  0.00000000000E+00 0. -1.
          6    1    1    2  501    0  0.12736942193E+03  0.45068719119E+02  0.17350437316E+03  0.27979801034E+03  0.17300000000E+03 0.  1.
         -6    1    1    2    0  503 -0.12736942193E+03 -0.45068719119E+02  0.41850370756E+02  0.22346053929E+03  0.17300000000E+03 0. -1.
<mgrwt>
<rscale>  2 0.21950663E+03</rscale>
<asrwt>0</asrwt>
<pdfrwt beam="1">  1       21 0.55277946E-01 0.21950663E+03</pdfrwt>
<pdfrwt beam="2">  1       21 0.22146447E-01 0.21950663E+03</pdfrwt>
<totfact> 0.58110118E+04</totfact>
</mgrwt>
</event>
<event>
 4    2  0.3972096E+000  0.1753627E+03  0.7546771E-02  0.1172368E+00
         21   -1    0    0  501  502  0.00000000000E+00  0.00000000000E+00  0.23536856719E+04  0.23536856719E+04  0.00000000000E+00 0.  1.
         21   -1    0    0  502  503 -0.00000000000E+00 -0.00000000000E+00 -0.15745839802E+02  0.15745839802E+02  0.00000000000E+00 0.  1.
          6    1    1    2  501    0 -0.28238290458E+02  0.50671685554E+01  0.16577643790E+04  0.16670137412E+04  0.17300000000E+03 0. -1.
         -6    1    1    2    0  503  0.28238290458E+02 -0.50671685554E+01  0.68017545312E+03  0.70241777047E+03  0.17300000000E+03 0. -1.
<mgrwt>
<rscale>  2 0.17536270E+03</rscale>
<asrwt>0</asrwt>
<pdfrwt beam="1">  1       21 0.36210521E+00 0.17536270E+03</pdfrwt>
<pdfrwt beam="2">  1       21 0.24224388E-02 0.17536270E+03</pdfrwt>
<totfact> 0.13627950E+04</totfact>
</mgrwt>
</event>
<event>
 4    2  0.3972096E+000  0.1870055E+03  0.7546771E-02  0.1161190E+00
         21   -1    0    0  503  502  0.00000000000E+00  0.00000000000E+00  0.18974654105E+03  0.18974654105E+03  0.00000000000E+00 0. -1.
         21   -1    0    0  501  503 -0.00000000000E+00 -0.00000000000E+00 -0.21479177248E+03  0.21479177248E+03  0.00000000000E+00 0. -1.
          6    1    1    2  501    0 -0.62036527536E+02 -0.34547530871E+02 -0.88727548558E+02  0.20698705397E+03  0.17300000000E+03 0. -1.
         -6    1    1    2    0  502  0.62036527536E+02  0.34547530871E+02  0.63682317132E+02  0.19755125956E+03  0.17300000000E+03 0. -1.
<mgrwt>
<rscale>  2 0.18700551E+03</rscale>
<asrwt>0</asrwt>
<pdfrwt beam="1">  1       21 0.29191776E-01 0.18700551E+03</pdfrwt>
<pdfrwt beam="2">  1       21 0.33044888E-01 0.18700551E+03</pdfrwt>
<totfact> 0.99293767E+04</totfact>
</mgrwt>
</event>
<event>
 4    2  0.3972096E+000  0.1913039E+03  0.7546771E-02  0.1157291E+00
         21   -1    0    0  503  502  0.00000000000E+00  0.00000000000E+00  0.17722050395E+03  0.17722050395E+03  0.00000000000E+00 0. -1.
         21   -1    0    0  501  503 -0.00000000000E+00 -0.00000000000E+00 -0.28841115090E+03  0.28841115090E+03  0.00000000000E+00 0.  1.
          6    1    1    2  501    0  0.73111693890E+02 -0.36371254339E+02 -0.17966359466E+03  0.26244274646E+03  0.17300000000E+03 0.  1.
         -6    1    1    2    0  502 -0.73111693890E+02  0.36371254339E+02  0.68472947711E+02  0.20318890839E+03  0.17300000000E+03 0. -1.
<mgrwt>
<rscale>  2 0.19130392E+03</rscale>
<asrwt>0</asrwt>
<pdfrwt beam="1">  1       21 0.27264693E-01 0.19130392E+03</pdfrwt>
<pdfrwt beam="2">  1       21 0.44370946E-01 0.19130392E+03</pdfrwt>
<totfact> 0.62598459E+04</totfact>
</mgrwt>
</event>
<event>
 4    2  0.3972096E+000  0.2408320E+03  0.7546771E-02  0.1119240E+00
         21   -1    0    0  501  502  0.00000000000E+00  0.00000000000E+00  0.11316325196E+04  0.11316325196E+04  0.00000000000E+00 0. -1.
         21   -1    0    0  502  503 -0.00000000000E+00 -0.00000000000E+00 -0.52983458822E+02  0.52983458822E+02  0.00000000000E+00 0.  1.
          6    1    1    2  501    0  0.57721471733E+02 -0.15728732967E+03  0.43229554276E+03  0.49485301723E+03  0.17300000000E+03 0.  1.
         -6    1    1    2    0  503 -0.57721471733E+02  0.15728732967E+03  0.64635351798E+03  0.68976296115E+03  0.17300000000E+03 0. -1.
<mgrwt>
<rscale>  2 0.24083204E+03</rscale>
<asrwt>0</asrwt>
<pdfrwt beam="1">  1       21 0.17409729E+00 0.24083204E+03</pdfrwt>
<pdfrwt beam="2">  1       21 0.81513022E-02 0.24083204E+03</pdfrwt>
<totfact> 0.22493746E+04</totfact>
</mgrwt>
</event>
<event>
 4    2  0.3972096E+000  0.2051920E+03  0.7546771E-02  0.1145431E+00
         21   -1    0    0  503  502  0.00000000000E+00  0.00000000000E+00  0.81270392344E+02  0.81270392344E+02  0.00000000000E+00 0.  1.
         21   -1    0    0  501  503 -0.00000000000E+00 -0.00000000000E+00 -0.60098359491E+03  0.60098359491E+03  0.00000000000E+00 0. -1.
          6    1    1    2  501    0  0.42169638542E+02  0.10196315318E+03 -0.13315056625E+03  0.24460751484E+03  0.17300000000E+03 0.  1.
         -6    1    1    2    0  502 -0.42169638542E+02 -0.10196315318E+03 -0.38656263631E+03  0.43764647241E+03  0.17300000000E+03 0. -1.
<mgrwt>
<rscale>  2 0.20519202E+03</rscale>
<asrwt>0</asrwt>
<pdfrwt beam="1">  1       21 0.12503137E-01 0.20519202E+03</pdfrwt>
<pdfrwt beam="2">  1       21 0.92459018E-01 0.20519202E+03</pdfrwt>
<totfact> 0.53467301E+04</totfact>
</mgrwt>
</event>
<event>
 4    2  0.3972096E+000  0.2323740E+03  0.7546771E-02  0.1124980E+00
         21   -1    0    0  503  502  0.00000000000E+00  0.00000000000E+00  0.34718332493E+03  0.34718332493E+03  0.00000000000E+00 0. -1.
         21   -1    0    0  501  503 -0.00000000000E+00 -0.00000000000E+00 -0.17492956446E+03  0.17492956446E+03  0.00000000000E+00 0.  1.
          6    1    1    2  501    0 -0.16401537056E+02 -0.15427145702E+03  0.17306096481E+03  0.28973745083E+03  0.17300000000E+03 0. -1.
         -6    1    1    2    0  502  0.16401537056E+02  0.15427145702E+03 -0.80720434353E+00  0.23237543857E+03  0.17300000000E+03 0.  1.
<mgrwt>
<rscale>  2 0.23237404E+03</rscale>
<asrwt>0</asrwt>
<pdfrwt beam="1">  1       21 0.53412819E-01 0.23237404E+03</pdfrwt>
<pdfrwt beam="2">  1       21 0.26912241E-01 0.23237404E+03</pdfrwt>
<totfact> 0.42812063E+04</totfact>
</mgrwt>
</event>
<event>
 4    2  0.3972096E+000  0.2207819E+03  0.7546771E-02  0.1133301E+00
         21   -1    0    0  503  502  0.00000000000E+00  0.00000000000E+00  0.53757787334E+03  0.53757787334E+03  0.00000000000E+00 0.  1.
         21   -1    0    0  501  503 -0.00000000000E+00 -0.00000000000E+00 -0.13894399519E+03  0.13894399519E+03  0.00000000000E+00 0. -1.
          6    1    1    2  501    0  0.49638399566E+02  0.12787362357E+03 -0.56860226690E-01  0.22078187776E+03  0.17300000000E+03 0. -1.
         -6    1    1    2    0  502 -0.49638399566E+02 -0.12787362357E+03  0.39869073838E+03  0.45573999077E+03  0.17300000000E+03 0.  1.
<mgrwt>
<rscale>  2 0.22078187E+03</rscale>
<asrwt>0</asrwt>
<pdfrwt beam="1">  1       21 0.82704287E-01 0.22078187E+03</pdfrwt>
<pdfrwt beam="2">  1       21 0.21376000E-01 0.22078187E+03</pdfrwt>
<totfact> 0.25583252E+04</totfact>
</mgrwt>
</event>
<event>
 4    2  0.3972096E+000  0.2123195E+03  0.7546771E-02  0.1139742E+00
         21   -1    0    0  501  502  0.00000000000E+00  0.00000000000E+00  0.33569205836E+03  0.33569205836E+03  0.00000000000E+00 0.  1.
         21   -1    0    0  502  503 -0.00000000000E+00 -0.00000000000E+00 -0.13431727478E+03  0.13431727478E+03  0.00000000000E+00 0.  1.
          6    1    1    2  501    0  0.12305568625E+03 -0.28074621568E+01  0.97247863375E+02  0.23353100585E+03  0.17300000000E+03 0. -1.
         -6    1    1    2    0  503 -0.12305568625E+03  0.28074621568E+01  0.10412692020E+03  0.23647832728E+03  0.17300000000E+03 0. -1.
<mgrwt>
<rscale>  2 0.21231953E+03</rscale>
<asrwt>0</asrwt>
<pdfrwt beam="1">  1       21 0.51644932E-01 0.21231953E+03</pdfrwt>
<pdfrwt beam="2">  1       21 0.20664196E-01 0.21231953E+03</pdfrwt>
<totfact> 0.76674616E+04</totfact>
</mgrwt>
</event>
<event>
 4    2  0.3972096E+000  0.1826234E+03  0.7546771E-02  0.1165288E+00
         21   -1    0    0  503  502  0.00000000000E+00  0.00000000000E+00  0.22927699385E+03  0.22927699385E+03  0.00000000000E+00 0. -1.
         21   -1    0    0  501  503 -0.00000000000E+00 -0.00000000000E+00 -0.16628780066E+03  0.16628780066E+03  0.00000000000E+00 0. -1.
          6    1    1    2  501    0 -0.52119660768E+02  0.26567983098E+02  0.10148652934E+03  0.20892781625E+03  0.17300000000E+03 0. -1.
         -6    1    1    2    0  502  0.52119660768E+02 -0.26567983098E+02 -0.38497336151E+02  0.18663697826E+03  0.17300000000E+03 0. -1.
<mgrwt>
<rscale>  2 0.18262343E+03</rscale>
<asrwt>0</asrwt>
<pdfrwt beam="1">  1       21 0.35273384E-01 0.18262343E+03</pdfrwt>
<pdfrwt beam="2">  1       21 0.25582738E-01 0.18262343E+03</pdfrwt>
<totfact> 0.11271531E+05</totfact>
</mgrwt>
</event>
<event>
 4    2  0.3972096E+000  0.1888022E+03  0.7546771E-02  0.1159546E+00
         21   -1    0    0  501  502  0.00000000000E+00  0.00000000000E+00  0.14746892455E+04  0.14746892455E+04  0.00000000000E+00 0.  1.
         21   -1    0    0  502  503 -0.00000000000E+00 -0.00000000000E+00 -0.59283805424E+02  0.59283805424E+02  0.00000000000E+00 0.  1.
          6    1    1    2  501    0 -0.44596987989E+02 -0.61060430838E+02  0.12979662442E+04  0.13116259523E+04  0.17300000000E+03 0.  1.
         -6    1    1    2    0  503  0.44596987989E+02  0.61060430838E+02  0.11743919585E+03  0.22234709864E+03  0.17300000000E+03 0.  1.
<mgrwt>
<rscale>  2 0.18880219E+03</rscale>
<asrwt>0</asrwt>
<pdfrwt beam="1">  1       21 0.22687524E+00 0.18880219E+03</pdfrwt>
<pdfrwt beam="2">  1       21 0.91205865E-02 0.18880219E+03</pdfrwt>
<totfact> 0.87476439E+03</totfact>
</mgrwt>
</event>
<event>
 4    2  0.3972096E+000  0.2133537E+03  0.7546771E-02  0.1138937E+00
         21   -1    0    0  501  502  0.00000000000E+00  0.00000000000E+00  0.77636325281E+02  0.77636325281E+02  0.00000000000E+00 0. -1.
         21   -1    0    0  502  503 -0.00000000000E+00 -0.00000000000E+00 -0.63018250659E+03  0.63018250659E+03  0.00000000000E+00 0.  1.
          6    1    1    2  501    0 -0.12452172006E+03 -0.92271475633E+01 -0.18290439690E+03  0.28102280588E+03  0.17300000000E+03 0. -1.
         -6    1    1    2    0  503  0.12452172006E+03  0.92271475633E+01 -0.36964178441E+03  0.42679602599E+03  0.17300000000E+03 0.  1.
<mgrwt>
<rscale>  2 0.21335369E+03</rscale>
<asrwt>0</asrwt>
<pdfrwt beam="1">  1       21 0.11944050E-01 0.21335369E+03</pdfrwt>
<pdfrwt beam="2">  1       21 0.96951158E-01 0.21335369E+03</pdfrwt>
<totfact> 0.51725870E+04</totfact>
</mgrwt>
</event>
<event>
 4    2  0.3972096E+000  0.1916034E+03  0.7546771E-02  0.1157023E+00
         21   -1    0    0  503  502  0.00000000000E+00  0.00000000000E+00  0.66971087979E+02  0.66971087979E+02  0.00000000000E+00 0. -1.
         21   -1    0    0  501  503 -0.00000000000E+00 -0.00000000000E+00 -0.12931167196E+04  0.12931167196E+04  0.00000000000E+00 0. -1.
          6    1    1    2  501    0  0.53818169676E+02  0.62341502985E+02 -0.11292268359E+04  0.11453667994E+04  0.17300000000E+03 0. -1.
         -6    1    1    2    0  502 -0.53818169676E+02 -0.62341502985E+02 -0.96918795795E+02  0.21472100819E+03  0.17300000000E+03 0. -1.
<mgrwt>
<rscale>  2 0.19160339E+03</rscale>
<asrwt>0</asrwt>
<pdfrwt beam="1">  1       21 0.10303245E-01 0.19160339E+03</pdfrwt>
<pdfrwt beam="2">  1       21 0.19894101E+00 0.19160339E+03</pdfrwt>
<totfact> 0.10507318E+04</totfact>
</mgrwt>
</event>
<event>
 4    2  0.3972096E+000  0.2562704E+03  0.7546771E-02  0.1109405E+00
         21   -1    0    0  501  502  0.00000000000E+00  0.00000000000E+00  0.35708720443E+03  0.35708720443E+03  0.00000000000E+00 0. -1.
         21   -1    0    0  502  503 -0.00000000000E+00 -0.00000000000E+00 -0.27703741135E+03  0.27703741135E+03  0.00000000000E+00 0. -1.
          6    1    1    2  501    0  0.14688452066E+03  0.11903963444E+03  0.22384680219E+03  0.34026737697E+03  0.17300000000E+03 0. -1.
         -6    1    1    2    0  503 -0.14688452066E+03 -0.11903963444E+03 -0.14379700910E+03  0.29385723882E+03  0.17300000000E+03 0. -1.
<mgrwt>
<rscale>  2 0.25627036E+03</rscale>
<asrwt>0</asrwt>
<pdfrwt beam="1">  1       21 0.54936493E-01 0.25627036E+03</pdfrwt>
<pdfrwt beam="2">  1       21 0.42621140E-01 0.25627036E+03</pdfrwt>
<totfact> 0.15976233E+04</totfact>
</mgrwt>
</event>
<event>
 4    2  0.3972096E+000  0.1977118E+03  0.7546771E-02  0.1151684E+00
         21   -1    0    0  503  502  0.00000000000E+00  0.00000000000E+00  0.52809411274E+03  0.52809411274E+03  0.00000000000E+00 0.  1.
         21   -1    0    0  501  503 -0.00000000000E+00 -0.00000000000E+00 -0.93895258100E+02  0.93895258100E+02  0.00000000000E+00 0. -1.
          6    1    1    2  501    0  0.63417680260E+02  0.71687923010E+02  0.74019555711E+02  0.21111337026E+03  0.17300000000E+03 0. -1.
         -6    1    1    2    0  502 -0.63417680260E+02 -0.71687923010E+02  0.36017929893E+03  0.41087600058E+03  0.17300000000E+03 0.  1.
<mgrwt>
<rscale>  2 0.19771181E+03</rscale>
<asrwt>0</asrwt>
<pdfrwt beam="1">  1       21 0.81245247E-01 0.19771181E+03</pdfrwt>
<pdfrwt beam="2">  1       21 0.14445425E-01 0.19771181E+03</pdfrwt>
<totfact> 0.55655722E+04</totfact>
</mgrwt>
</event>
<event>
 4    2  0.3972096E+000  0.2008560E+03  0.7546771E-02  0.1149019E+00
         21   -1    0    0  501  502  0.00000000000E+00  0.00000000000E+00  0.42006341625E+03  0.42006341625E+03  0.00000000000E+00 0. -1.
         21   -1    0    0  502  503 -0.00000000000E+00 -0.00000000000E+00 -0.18602138659E+03  0.18602138659E+03  0.00000000000E+00 0. -1.
          6    1    1    2  501    0 -0.28111103651E+01 -0.10201095802E+03  0.32778523189E+03  0.38442983253E+03  0.17300000000E+03 0. -1.
         -6    1    1    2    0  503  0.28111103651E+01  0.10201095802E+03 -0.93743202231E+02  0.22165497031E+03  0.17300000000E+03 0. -1.
<mgrwt>
<rscale>  2 0.20085601E+03</rscale>
<asrwt>0</asrwt>
<pdfrwt beam="1">  1       21 0.64625141E-01 0.20085601E+03</pdfrwt>
<pdfrwt beam="2">  1       21 0.28618675E-01 0.20085601E+03</pdfrwt>
<totfact> 0.25654802E+04</totfact>
</mgrwt>
</event>
<event>
 4    2  0.3972096E+000  0.2668952E+03  0.7546771E-02  0.1103070E+00
         21   -1    0    0  501  502  0.00000000000E+00  0.00000000000E+00  0.54501652508E+03  0.54501652508E+03  0.00000000000E+00 0.  1.
         21   -1    0    0  502  503 -0.00000000000E+00 -0.00000000000E+00 -0.13084160892E+03  0.13084160892E+03  0.00000000000E+00 0. -1.
          6    1    1    2  501    0  0.12022257483E+03 -0.16386144555E+03  0.19592570191E+03  0.33108899333E+03  0.17300000000E+03 0.  1.
         -6    1    1    2    0  503 -0.12022257483E+03  0.16386144555E+03  0.21824921425E+03  0.34476914067E+03  0.17300000000E+03 0.  1.
<mgrwt>
<rscale>  2 0.26689519E+03</rscale>
<asrwt>0</asrwt>
<pdfrwt beam="1">  1       21 0.83848695E-01 0.26689519E+03</pdfrwt>
<pdfrwt beam="2">  1       21 0.20129479E-01 0.26689519E+03</pdfrwt>
<totfact> 0.27157885E+04</totfact>
</mgrwt>
</event>
<event>
 4    2  0.3972096E+000  0.2016715E+03  0.7546771E-02  0.1148336E+00
         21   -1    0    0  503  502  0.00000000000E+00  0.00000000000E+00  0.54355197889E+03  0.54355197889E+03  0.00000000000E+00 0. -1.
         21   -1    0    0  501  503 -0.00000000000E+00 -0.00000000000E+00 -0.99394096409E+02  0.99394096409E+02  0.00000000000E+00 0. -1.
          6    1    1    2  501    0  0.74835967233E+02  0.71707556355E+02  0.62249449134E+02  0.21106015623E+03  0.17300000000E+03 0. -1.
         -6    1    1    2    0  502 -0.74835967233E+02 -0.71707556355E+02  0.38190843335E+03  0.43188591907E+03  0.17300000000E+03 0. -1.
<mgrwt>
<rscale>  2 0.20167150E+03</rscale>
<asrwt>0</asrwt>
<pdfrwt beam="1">  1       21 0.83623379E-01 0.20167150E+03</pdfrwt>
<pdfrwt beam="2">  1       21 0.15291400E-01 0.20167150E+03</pdfrwt>
<totfact> 0.46894315E+04</totfact>
</mgrwt>
</event>
<event>
 4    2  0.3972096E+000  0.1856282E+03  0.7546771E-02  0.1162465E+00
         21   -1    0    0  503  502  0.00000000000E+00  0.00000000000E+00  0.10298342400E+03  0.10298342400E+03  0.00000000000E+00 0.  1.
         21   -1    0    0  501  503 -0.00000000000E+00 -0.00000000000E+00 -0.53219874659E+03  0.53219874659E+03  0.00000000000E+00 0. -1.
          6    1    1    2  501    0 -0.67040813165E+02  0.58603113136E+01 -0.40812869062E+03  0.44836016994E+03  0.17300000000E+03 0. -1.
         -6    1    1    2    0  502  0.67040813165E+02 -0.58603113136E+01 -0.21086631969E+02  0.18682200065E+03  0.17300000000E+03 0.  1.
<mgrwt>
<rscale>  2 0.18562816E+03</rscale>
<asrwt>0</asrwt>
<pdfrwt beam="1">  1       21 0.15843603E-01 0.18562816E+03</pdfrwt>
<pdfrwt beam="2">  1       21 0.81876731E-01 0.18562816E+03</pdfrwt>
<totfact> 0.46487518E+04</totfact>
</mgrwt>
</event>
<event>
 4    2  0.3972096E+000  0.2123756E+03  0.7546771E-02  0.1139698E+00
         21   -1    0    0  501  502  0.00000000000E+00  0.00000000000E+00  0.44324580385E+03  0.44324580385E+03  0.00000000000E+00 0. -1.
         21   -1    0    0  502  503 -0.00000000000E+00 -0.00000000000E+00 -0.11922774150E+03  0.11922774150E+03  0.00000000000E+00 0. -1.
          6    1    1    2  501    0  0.10167638004E+03  0.69543680371E+02  0.26966492538E+03  0.34325294131E+03  0.17300000000E+03 0. -1.
         -6    1    1    2    0  503 -0.10167638004E+03 -0.69543680371E+02  0.54353136965E+02  0.21922060404E+03  0.17300000000E+03 0. -1.
<mgrwt>
<rscale>  2 0.21237563E+03</rscale>
<asrwt>0</asrwt>
<pdfrwt beam="1">  1       21 0.68191662E-01 0.21237563E+03</pdfrwt>
<pdfrwt beam="2">  1       21 0.18342730E-01 0.21237563E+03</pdfrwt>
<totfact> 0.52712152E+04</totfact>
</mgrwt>
</event>
<event>
 4    2  0.3972096E+000  0.1879385E+03  0.7546771E-02  0.1160334E+00
         21   -1    0    0  503  502  0.00000000000E+00  0.00000000000E+00  0.17815414305E+03  0.17815414305E+03  0.00000000000E+00 0.  1.
         21   -1    0    0  501  503 -0.00000000000E+00 -0.00000000000E+00 -0.41412704358E+03  0.41412704358E+03  0.00000000000E+00 0.  1.
          6    1    1    2  501    0  0.73429353574E+02  0.15229662603E+00 -0.33179448425E+03  0.38132462933E+03  0.17300000000E+03 0.  1.
         -6    1    1    2    0  502 -0.73429353574E+02 -0.15229662603E+00  0.95821583719E+02  0.21095655730E+03  0.17300000000E+03 0.  1.
<mgrwt>
<rscale>  2 0.18793854E+03</rscale>
<asrwt>0</asrwt>
<pdfrwt beam="1">  1       21 0.27408330E-01 0.18793854E+03</pdfrwt>
<pdfrwt beam="2">  1       21 0.63711853E-01 0.18793854E+03</pdfrwt>
<totfact> 0.28976751E+04</totfact>
</mgrwt>
</event>
<event>
 4    2  0.3972096E+000  0.2133124E+03  0.7546771E-02  0.1138969E+00
         21   -1    0    0  503  502  0.00000000000E+00  0.00000000000E+00  0.43012577756E+03  0.43012577756E+03  0.00000000000E+00 0.  1.
         21   -1    0    0  501  503 -0.00000000000E+00 -0.00000000000E+00 -0.10603915761E+03  0.10603915761E+03  0.00000000000E+00 0.  1.
          6    1    1    2  501    0 -0.10202992666E+03  0.71854676326E+02  0.14899967937E+03  0.26019820310E+03  0.17300000000E+03 0.  1.
         -6    1    1    2    0  502  0.10202992666E+03 -0.71854676326E+02  0.17508694058E+03  0.27596673206E+03  0.17300000000E+03 0.  1.
<mgrwt>
<rscale>  2 0.21331245E+03</rscale>
<asrwt>0</asrwt>
<pdfrwt beam="1">  1       21 0.66173196E-01 0.21331245E+03</pdfrwt>
<pdfrwt beam="2">  1       21 0.16313717E-01 0.21331245E+03</pdfrwt>
<totfact> 0.69886492E+04</totfact>
</mgrwt>
</event>
<event>
 4    2  0.3972096E+000  0.2147369E+03  0.7546771E-02  0.1137869E+00
         21   -1    0    0  501  502  0.00000000000E+00  0.00000000000E+00  0.15100672579E+03  0.15100672579E+03  0.00000000000E+00 0.  1.
         21   -1    0    0  502  503 -0.00000000000E+00 -0.00000000000E+00 -0.39653908722E+03  0.39653908722E+03  0.00000000000E+00 0. -1.
          6    1    1    2  501    0  0.12715184745E+03 -0.39158645390E+01  0.85103232034E+01  0.21490544876E+03  0.17300000000E+03 0.  1.
         -6    1    1    2    0  503 -0.12715184745E+03  0.39158645390E+01 -0.25404268464E+03  0.33264036425E+03  0.17300000000E+03 0. -1.
<mgrwt>
<rscale>  2 0.21473688E+03</rscale>
<asrwt>0</asrwt>
<pdfrwt beam="1">  1       21 0.23231804E-01 0.21473688E+03</pdfrwt>
<pdfrwt beam="2">  1       21 0.61006013E-01 0.21473688E+03</pdfrwt>
<totfact> 0.43061695E+04</totfact>
</mgrwt>
</event>
<event>
 4    2  0.3972096E+000  0.2324488E+03  0.7546771E-02  0.1124928E+00
         21   -1    0    0  503  502  0.00000000000E+00  0.00000000000E+00  0.18910889552E+03  0.18910889552E+03  0.00000000000E+00 0. -1.
         21   -1    0    0  501  503 -0.00000000000E+00 -0.00000000000E+00 -0.28661491727E+03  0.28661491727E+03  0.00000000000E+00 0. -1.
          6    1    1    2  501    0  0.15065600685E+02  0.15452006779E+03 -0.62035258434E+02  0.24058428245E+03  0.17300000000E+03 0. -1.
         -6    1    1    2    0  502 -0.15065600685E+02 -0.15452006779E+03 -0.35470763324E+02  0.23513953033E+03  0.17300000000E+03 0. -1.
<mgrwt>
<rscale>  2 0.23244875E+03</rscale>
<asrwt>0</asrwt>
<pdfrwt beam="1">  1       21 0.29093676E-01 0.23244875E+03</pdfrwt>
<pdfrwt beam="2">  1       21 0.44094603E-01 0.23244875E+03</pdfrwt>
<totfact> 0.54889674E+04</totfact>
</mgrwt>
</event>
<event>
 4    2  0.3972096E+000  0.1993984E+03  0.7546771E-02  0.1150248E+00
         21   -1    0    0  503  502  0.00000000000E+00  0.00000000000E+00  0.10140853146E+03  0.10140853146E+03  0.00000000000E+00 0.  1.
         21   -1    0    0  501  503 -0.00000000000E+00 -0.00000000000E+00 -0.65967372235E+03  0.65967372235E+03  0.00000000000E+00 0. -1.
          6    1    1    2  501    0  0.99107106209E+02 -0.29180697883E+01 -0.52150275914E+03  0.55832325889E+03  0.17300000000E+03 0. -1.
         -6    1    1    2    0  502 -0.99107106209E+02  0.29180697883E+01 -0.36762431744E+02  0.20275899492E+03  0.17300000000E+03 0.  1.
<mgrwt>
<rscale>  2 0.19939843E+03</rscale>
<asrwt>0</asrwt>
<pdfrwt beam="1">  1       21 0.15601313E-01 0.19939843E+03</pdfrwt>
<pdfrwt beam="2">  1       21 0.10148826E+00 0.19939843E+03</pdfrwt>
<totfact> 0.28827992E+04</totfact>
</mgrwt>
</event>
<event>
 4    2  0.3972096E+000  0.2222285E+03  0.7546771E-02  0.1132232E+00
         21   -1    0    0  501  502  0.00000000000E+00  0.00000000000E+00  0.23382451971E+03  0.23382451971E+03  0.00000000000E+00 0. -1.
         21   -1    0    0  502  503 -0.00000000000E+00 -0.00000000000E+00 -0.50027940533E+03  0.50027940533E+03  0.00000000000E+00 0. -1.
          6    1    1    2  501    0 -0.90896663186E+02  0.10580315416E+03  0.14578535296E+03  0.26577975835E+03  0.17300000000E+03 0. -1.
         -6    1    1    2    0  503  0.90896663186E+02 -0.10580315416E+03 -0.41224023858E+03  0.46832416670E+03  0.17300000000E+03 0. -1.
<mgrwt>
<rscale>  2 0.22222851E+03</rscale>
<asrwt>0</asrwt>
<pdfrwt beam="1">  1       21 0.35973003E-01 0.22222851E+03</pdfrwt>
<pdfrwt beam="2">  1       21 0.76966062E-01 0.22222851E+03</pdfrwt>
<totfact> 0.10966206E+04</totfact>
</mgrwt>
</event>
<event>
 4    2  0.3972096E+000  0.1879898E+03  0.7546771E-02  0.1160287E+00
         21   -1    0    0  501  502  0.00000000000E+00  0.00000000000E+00  0.17866523122E+03  0.17866523122E+03  0.00000000000E+00 0.  1.
         21   -1    0    0  502  503 -0.00000000000E+00 -0.00000000000E+00 -0.21620137372E+03  0.21620137372E+03  0.00000000000E+00 0. -1.
          6    1    1    2  501    0  0.13186418850E+02 -0.72368962941E+02 -0.76365800692E+02  0.20290856057E+03  0.17300000000E+03 0. -1.
         -6    1    1    2    0  503 -0.13186418850E+02  0.72368962941E+02  0.38829658191E+02  0.19195804436E+03  0.17300000000E+03 0.  1.
<mgrwt>
<rscale>  2 0.18798976E+03</rscale>
<asrwt>0</asrwt>
<pdfrwt beam="1">  1       21 0.27486959E-01 0.18798976E+03</pdfrwt>
<pdfrwt beam="2">  1       21 0.33261750E-01 0.18798976E+03</pdfrwt>
<totfact> 0.11008817E+05</totfact>
</mgrwt>
</event>
<event>
 4    2  0.3972096E+000  0.1870656E+03  0.7546771E-02  0.1161135E+00
         21   -1    0    0  501  502  0.00000000000E+00  0.00000000000E+00  0.91465986980E+03  0.91465986980E+03  0.00000000000E+00 0.  1.
         21   -1    0    0  502  503 -0.00000000000E+00 -0.00000000000E+00 -0.49025214769E+02  0.49025214769E+02  0.00000000000E+00 0.  1.
          6    1    1    2  501    0 -0.23731994669E+02 -0.67092064287E+02  0.65862367944E+03  0.68467415884E+03  0.17300000000E+03 0.  1.
         -6    1    1    2    0  503  0.23731994669E+02  0.67092064287E+02  0.20701097558E+03  0.27901092572E+03  0.17300000000E+03 0.  1.
<mgrwt>
<rscale>  2 0.18706564E+03</rscale>
<asrwt>0</asrwt>
<pdfrwt beam="1">  1       21 0.14071689E+00 0.18706564E+03</pdfrwt>
<pdfrwt beam="2">  1       21 0.75423414E-02 0.18706564E+03</pdfrwt>
<totfact> 0.47089261E+04</totfact>
</mgrwt>
</event>
<event>
 4    2  0.3972096E+000  0.1926325E+03  0.7546771E-02  0.1156108E+00
         21   -1    0    0  501  502  0.00000000000E+00  0.00000000000E+00  0.20164344645E+02  0.20164344645E+02  0.00000000000E+00 0. -1.
         21   -1    0    0  502  503 -0.00000000000E+00 -0.00000000000E+00 -0.27099780586E+04  0.27099780586E+04  0.00000000000E+00 0. -1.
          6    1    1    2  501    0  0.65284753515E+02  0.54001628015E+02 -0.57157456828E+03  0.60316230152E+03  0.17300000000E+03 0. -1.
         -6    1    1    2    0  503 -0.65284753515E+02 -0.54001628015E+02 -0.21182391457E+04  0.21269801017E+04  0.17300000000E+03 0. -1.
<mgrwt>
<rscale>  2 0.19263249E+03</rscale>
<asrwt>0</asrwt>
<pdfrwt beam="1">  1       21 0.31022087E-02 0.19263249E+03</pdfrwt>
<pdfrwt beam="2">  1       21 0.41691946E+00 0.19263249E+03</pdfrwt>
<totfact> 0.40820185E+03</totfact>
</mgrwt>
</event>
<event>
 4    2  0.3972096E+000  0.2148578E+03  0.7546771E-02  0.1137776E+00
         21   -1    0    0  503  502  0.00000000000E+00  0.00000000000E+00  0.47352319297E+02  0.47352319297E+02  0.00000000000E+00 0. -1.
         21   -1    0    0  501  503 -0.00000000000E+00 -0.00000000000E+00 -0.16584848297E+04  0.16584848297E+04  0.00000000000E+00 0.  1.
          6    1    1    2  501    0  0.11897249813E+03 -0.45611583269E+02 -0.13531460144E+04  0.13700978097E+04  0.17300000000E+03 0.  1.
         -6    1    1    2    0  502 -0.11897249813E+03  0.45611583269E+02 -0.25798649603E+03  0.33573933933E+03  0.17300000000E+03 0. -1.
<mgrwt>
<rscale>  2 0.21485779E+03</rscale>
<asrwt>0</asrwt>
<pdfrwt beam="1">  1       21 0.72849713E-02 0.21485779E+03</pdfrwt>
<pdfrwt beam="2">  1       21 0.25515154E+00 0.21485779E+03</pdfrwt>
<totfact> 0.85740165E+03</totfact>
</mgrwt>
</event>
<event>
 4    2  0.3972096E+000  0.2252321E+03  0.7546771E-02  0.1130041E+00
         21   -1    0    0  501  502  0.00000000000E+00  0.00000000000E+00  0.21273956003E+03  0.21273956003E+03  0.00000000000E+00 0.  1.
         21   -1    0    0  502  503 -0.00000000000E+00 -0.00000000000E+00 -0.30220607618E+03  0.30220607618E+03  0.00000000000E+00 0.  1.
          6    1    1    2  501    0 -0.13700475085E+03  0.45057809139E+02  0.73519806553E+02  0.23692756251E+03  0.17300000000E+03 0.  1.
         -6    1    1    2    0  503  0.13700475085E+03 -0.45057809139E+02 -0.16298632270E+03  0.27801807371E+03  0.17300000000E+03 0.  1.
<mgrwt>
<rscale>  2 0.22523212E+03</rscale>
<asrwt>0</asrwt>
<pdfrwt beam="1">  1       21 0.32729163E-01 0.22523212E+03</pdfrwt>
<pdfrwt beam="2">  1       21 0.46493242E-01 0.22523212E+03</pdfrwt>
<totfact> 0.39171710E+04</totfact>
</mgrwt>
</event>
<event>
 4    2  0.3972096E+000  0.1904024E+03  0.7546771E-02  0.1158099E+00
         21   -1    0    0  501  502  0.00000000000E+00  0.00000000000E+00  0.35321908116E+03  0.35321908116E+03  0.00000000000E+00 0.  1.
         21   -1    0    0  502  503 -0.00000000000E+00 -0.00000000000E+00 -0.12337131257E+03  0.12337131257E+03  0.00000000000E+00 0.  1.
          6    1    1    2  501    0 -0.73640491341E+02 -0.30018981994E+02  0.21261644290E+03  0.28540990354E+03  0.17300000000E+03 0.  1.
         -6    1    1    2    0  503  0.73640491341E+02  0.30018981994E+02  0.17231325690E+02  0.19118049019E+03  0.17300000000E+03 0.  1.
<mgrwt>
<rscale>  2 0.19040237E+03</rscale>
<asrwt>0</asrwt>
<pdfrwt beam="1">  1       21 0.54341397E-01 0.19040237E+03</pdfrwt>
<pdfrwt beam="2">  1       21 0.18980202E-01 0.19040237E+03</pdfrwt>
<totfact> 0.81499575E+04</totfact>
</mgrwt>
</event>
<event>
 4    2  0.3972096E+000  0.2217126E+03  0.7546771E-02  0.1132613E+00
         21   -1    0    0  501  502  0.00000000000E+00  0.00000000000E+00  0.70078776597E+02  0.70078776597E+02  0.00000000000E+00 0.  1.
         21   -1    0    0  502  503 -0.00000000000E+00 -0.00000000000E+00 -0.12474272846E+04  0.12474272846E+04  0.00000000000E+00 0. -1.
          6    1    1    2  501    0  0.65489913582E+02 -0.12222329897E+03 -0.15285745776E+03  0.26929884141E+03  0.17300000000E+03 0.  1.
         -6    1    1    2    0  503 -0.65489913582E+02  0.12222329897E+03 -0.10244910503E+04  0.10482072198E+04  0.17300000000E+03 0. -1.
<mgrwt>
<rscale>  2 0.22171257E+03</rscale>
<asrwt>0</asrwt>
<pdfrwt beam="1">  1       21 0.10781351E-01 0.22171257E+03</pdfrwt>
<pdfrwt beam="2">  1       21 0.19191187E+00 0.22171257E+03</pdfrwt>
<totfact> 0.10518342E+04</totfact>
</mgrwt>
</event>
<event>
 4    2  0.3972096E+000  0.2986183E+03  0.7546771E-02  0.1085933E+00
         21   -1    0    0  503  502  0.00000000000E+00  0.00000000000E+00  0.34414513947E+03  0.34414513947E+03  0.00000000000E+00 0. -1.
         21   -1    0    0  501  503 -0.00000000000E+00 -0.00000000000E+00 -0.78890040963E+03  0.78890040963E+03  0.00000000000E+00 0.  1.
          6    1    1    2  501    0  0.22511684303E+03 -0.92554375016E+02 -0.68663263753E+03  0.74875715975E+03  0.17300000000E+03 0.  1.
         -6    1    1    2    0  502 -0.22511684303E+03  0.92554375016E+02  0.24187736737E+03  0.38428838936E+03  0.17300000000E+03 0. -1.
<mgrwt>
<rscale>  2 0.29861833E+03</rscale>
<asrwt>0</asrwt>
<pdfrwt beam="1">  1       21 0.52945406E-01 0.29861833E+03</pdfrwt>
<pdfrwt beam="2">  1       21 0.12136929E+00 0.29861833E+03</pdfrwt>
<totfact> 0.15992298E+03</totfact>
</mgrwt>
</event>
<event>
 4    2  0.3972096E+000  0.1992788E+03  0.7546771E-02  0.1150349E+00
         21   -1    0    0  501  502  0.00000000000E+00  0.00000000000E+00  0.38415068852E+02  0.38415068852E+02  0.00000000000E+00 0. -1.
         21   -1    0    0  502  503 -0.00000000000E+00 -0.00000000000E+00 -0.21320032561E+04  0.21320032561E+04  0.00000000000E+00 0.  1.
          6    1    1    2  501    0 -0.29641165671E+01 -0.98864771695E+02 -0.26791787237E+03  0.33390420094E+03  0.17300000000E+03 0.  1.
         -6    1    1    2    0  503  0.29641165671E+01  0.98864771695E+02 -0.18256703149E+04  0.18365141240E+04  0.17300000000E+03 0.  1.
<mgrwt>
<rscale>  2 0.19927877E+03</rscale>
<asrwt>0</asrwt>
<pdfrwt beam="1">  1       21 0.59100105E-02 0.19927877E+03</pdfrwt>
<pdfrwt beam="2">  1       21 0.32800050E+00 0.19927877E+03</pdfrwt>
<totfact> 0.47213015E+03</totfact>
</mgrwt>
</event>
<event>
 4    2  0.3972096E+000  0.1846505E+03  0.7546771E-02  0.1163377E+00
         21   -1    0    0  501  502  0.00000000000E+00  0.00000000000E+00  0.51514558319E+02  0.51514558319E+02  0.00000000000E+00 0.  1.
         21   -1    0    0  502  503 -0.00000000000E+00 -0.00000000000E+00 -0.85322277663E+03  0.85322277663E+03  0.00000000000E+00 0.  1.
          6    1    1    2  501    0 -0.43897847884E+02  0.47326280383E+02 -0.18662334965E+03  0.26253394542E+03  0.17300000000E+03 0.  1.
         -6    1    1    2    0  503  0.43897847884E+02 -0.47326280383E+02 -0.61508486866E+03  0.64220338953E+03  0.17300000000E+03 0.  1.
<mgrwt>
<rscale>  2 0.18465047E+03</rscale>
<asrwt>0</asrwt>
<pdfrwt beam="1">  1       21 0.79253166E-02 0.18465047E+03</pdfrwt>
<pdfrwt beam="2">  1       21 0.13126504E+00 0.18465047E+03</pdfrwt>
<totfact> 0.51668099E+04</totfact>
</mgrwt>
</event>
<event>
 4    2  0.3972096E+000  0.2207118E+03  0.7546771E-02  0.1133354E+00
         21   -1    0    0  501  502  0.00000000000E+00  0.00000000000E+00  0.27224023116E+03  0.27224023116E+03  0.00000000000E+00 0. -1.
         21   -1    0    0  502  503 -0.00000000000E+00 -0.00000000000E+00 -0.19292299447E+03  0.19292299447E+03  0.00000000000E+00 0. -1.
          6    1    1    2  501    0  0.13705163128E+03 -0.12402042537E+01 -0.22965168248E+02  0.22190332737E+03  0.17300000000E+03 0. -1.
         -6    1    1    2    0  503 -0.13705163128E+03  0.12402042537E+01  0.10228240494E+03  0.24325989826E+03  0.17300000000E+03 0. -1.
<mgrwt>
<rscale>  2 0.22071178E+03</rscale>
<asrwt>0</asrwt>
<pdfrwt beam="1">  1       21 0.41883112E-01 0.22071178E+03</pdfrwt>
<pdfrwt beam="2">  1       21 0.29680461E-01 0.22071178E+03</pdfrwt>
<totfact> 0.58951111E+04</totfact>
</mgrwt>
</event>
<event>
 4    2  0.3972096E+000  0.5265286E+03  0.7546771E-02  0.1007077E+00
         21   -1    0    0  503  502  0.00000000000E+00  0.00000000000E+00  0.33683677856E+03  0.33683677856E+03  0.00000000000E+00 0.  1.
         21   -1    0    0  501  503 -0.00000000000E+00 -0.00000000000E+00 -0.12108853957E+04  0.12108853957E+04  0.00000000000E+00 0. -1.
          6    1    1    2  501    0  0.40482517348E+03 -0.28882508964E+03  0.93840002669E+00  0.52652942376E+03  0.17300000000E+03 0.  1.
         -6    1    1    2    0  502 -0.40482517348E+03  0.28882508964E+03 -0.87498701718E+03  0.10211927505E+04  0.17300000000E+03 0. -1.
<mgrwt>
<rscale>  2 0.52652859E+03</rscale>
<asrwt>0</asrwt>
<pdfrwt beam="1">  1       21 0.51821042E-01 0.52652859E+03</pdfrwt>
<pdfrwt beam="2">  1       21 0.18629006E+00 0.52652859E+03</pdfrwt>
<totfact> 0.46573398E+02</totfact>
</mgrwt>
</event>
<event>
 4    2  0.3972096E+000  0.2043416E+03  0.7546771E-02  0.1146127E+00
         21   -1    0    0  503  502  0.00000000000E+00  0.00000000000E+00  0.80093057506E+02  0.80093057506E+02  0.00000000000E+00 0.  1.
         21   -1    0    0  501  503 -0.00000000000E+00 -0.00000000000E+00 -0.62692448736E+03  0.62692448736E+03  0.00000000000E+00 0. -1.
          6    1    1    2  501    0 -0.80284881810E+02  0.73354207612E+02 -0.12833887239E+03  0.24130140527E+03  0.17300000000E+03 0.  1.
         -6    1    1    2    0  502  0.80284881810E+02 -0.73354207612E+02 -0.41849255747E+03  0.46571613960E+03  0.17300000000E+03 0. -1.
<mgrwt>
<rscale>  2 0.20434163E+03</rscale>
<asrwt>0</asrwt>
<pdfrwt beam="1">  1       21 0.12322009E-01 0.20434163E+03</pdfrwt>
<pdfrwt beam="2">  1       21 0.96449923E-01 0.20434163E+03</pdfrwt>
<totfact> 0.49735537E+04</totfact>
</mgrwt>
</event>
<event>
 4    2  0.3972096E+000  0.1833812E+03  0.7546771E-02  0.1164570E+00
         21   -1    0    0  501  502  0.00000000000E+00  0.00000000000E+00  0.33609873092E+03  0.33609873092E+03  0.00000000000E+00 0.  1.
         21   -1    0    0  502  503 -0.00000000000E+00 -0.00000000000E+00 -0.12404504401E+03  0.12404504401E+03  0.00000000000E+00 0. -1.
          6    1    1    2  501    0 -0.48428835099E+02 -0.36801124992E+02  0.20720362241E+03  0.27669842068E+03  0.17300000000E+03 0.  1.
         -6    1    1    2    0  503  0.48428835099E+02  0.36801124992E+02  0.48500644990E+01  0.18344535425E+03  0.17300000000E+03 0. -1.
<mgrwt>
<rscale>  2 0.18338123E+03</rscale>
<asrwt>0</asrwt>
<pdfrwt beam="1">  1       21 0.51707497E-01 0.18338123E+03</pdfrwt>
<pdfrwt beam="2">  1       21 0.19083853E-01 0.18338123E+03</pdfrwt>
<totfact> 0.89808070E+04</totfact>
</mgrwt>
</event>
<event>
 4    2  0.3972096E+000  0.1731098E+03  0.7546771E-02  0.1174643E+00
         21   -1    0    0  503  502  0.00000000000E+00  0.00000000000E+00  0.63228017019E+02  0.63228017019E+02  0.00000000000E+00 0.  1.
         21   -1    0    0  501  503 -0.00000000000E+00 -0.00000000000E+00 -0.47843792882E+03  0.47843792882E+03  0.00000000000E+00 0.  1.
          6    1    1    2  501    0  0.54538690401E+01 -0.28737540262E+01 -0.18137805012E+03  0.25072893773E+03  0.17300000000E+03 0.  1.
         -6    1    1    2    0  502 -0.54538690401E+01  0.28737540262E+01 -0.23383186168E+03  0.29093700811E+03  0.17300000000E+03 0.  1.
<mgrwt>
<rscale>  2 0.17310980E+03</rscale>
<asrwt>0</asrwt>
<pdfrwt beam="1">  1       21 0.97273870E-02 0.17310980E+03</pdfrwt>
<pdfrwt beam="2">  1       21 0.73605837E-01 0.17310980E+03</pdfrwt>
<totfact> 0.14221773E+05</totfact>
</mgrwt>
</event>
<event>
 4    2  0.3972096E+000  0.2746119E+03  0.7546771E-02  0.1098669E+00
         21   -1    0    0  503  502  0.00000000000E+00  0.00000000000E+00  0.30963597292E+03  0.30963597292E+03  0.00000000000E+00 0.  1.
         21   -1    0    0  501  503 -0.00000000000E+00 -0.00000000000E+00 -0.29713882042E+03  0.29713882042E+03  0.00000000000E+00 0. -1.
          6    1    1    2  501    0  0.19459709413E+03  0.87262042169E+02  0.13509040355E+03  0.30604102695E+03  0.17300000000E+03 0.  1.
         -6    1    1    2    0  502 -0.19459709413E+03 -0.87262042169E+02 -0.12259325104E+03  0.30073376639E+03  0.17300000000E+03 0. -1.
<mgrwt>
<rscale>  2 0.27461190E+03</rscale>
<asrwt>0</asrwt>
<pdfrwt beam="1">  1       21 0.47636303E-01 0.27461190E+03</pdfrwt>
<pdfrwt beam="2">  1       21 0.45713665E-01 0.27461190E+03</pdfrwt>
<totfact> 0.18516550E+04</totfact>
</mgrwt>
</event>
<event>
 4    2  0.3972096E+000  0.3374605E+03  0.7546771E-02  0.1067883E+00
         21   -1    0    0  501  502  0.00000000000E+00  0.00000000000E+00  0.15793486672E+03  0.15793486672E+03  0.00000000000E+00 0. -1.
         21   -1    0    0  502  503 -0.00000000000E+00 -0.00000000000E+00 -0.93322969040E+03  0.93322969040E+03  0.00000000000E+00 0.  1.
          6    1    1    2  501    0  0.87351476691E+02  0.27626129067E+03 -0.64779134616E+03  0.73041988566E+03  0.17300000000E+03 0.  1.
         -6    1    1    2    0  503 -0.87351476691E+02 -0.27626129067E+03 -0.12750347752E+03  0.36074467146E+03  0.17300000000E+03 0. -1.
<mgrwt>
<rscale>  2 0.33746049E+03</rscale>
<asrwt>0</asrwt>
<pdfrwt beam="1">  1       21 0.24297672E-01 0.33746049E+03</pdfrwt>
<pdfrwt beam="2">  1       21 0.14357380E+00 0.33746049E+03</pdfrwt>
<totfact> 0.48903741E+03</totfact>
</mgrwt>
</event>
<event>
 4    2  0.3972096E+000  0.1866611E+03  0.7546771E-02  0.1161508E+00
         21   -1    0    0  501  502  0.00000000000E+00  0.00000000000E+00  0.49516376738E+03  0.49516376738E+03  0.00000000000E+00 0. -1.
         21   -1    0    0  502  503 -0.00000000000E+00 -0.00000000000E+00 -0.70470112317E+02  0.70470112317E+02  0.00000000000E+00 0. -1.
          6    1    1    2  501    0  0.20134388498E+02 -0.67141572096E+02  0.22325000633E+03  0.29100334986E+03  0.17300000000E+03 0. -1.
         -6    1    1    2    0  503 -0.20134388498E+02  0.67141572096E+02  0.20144364874E+03  0.27463052984E+03  0.17300000000E+03 0. -1.
<mgrwt>
<rscale>  2 0.18666115E+03</rscale>
<asrwt>0</asrwt>
<pdfrwt beam="1">  1       21 0.76179039E-01 0.18666115E+03</pdfrwt>
<pdfrwt beam="2">  1       21 0.10841556E-01 0.18666115E+03</pdfrwt>
<totfact> 0.10822275E+05</totfact>
</mgrwt>
</event>
<event>
 4    2  0.3972096E+000  0.2298442E+03  0.7546771E-02  0.1126749E+00
         21   -1    0    0  501  502  0.00000000000E+00  0.00000000000E+00  0.42904840969E+02  0.42904840969E+02  0.00000000000E+00 0.  1.
         21   -1    0    0  502  503 -0.00000000000E+00 -0.00000000000E+00 -0.14371325058E+04  0.14371325058E+04  0.00000000000E+00 0. -1.
          6    1    1    2  501    0  0.14641868399E+03  0.38222280036E+02 -0.41704806354E+03  0.47619057216E+03  0.17300000000E+03 0. -1.
         -6    1    1    2    0  503 -0.14641868399E+03 -0.38222280036E+02 -0.97717960125E+03  0.10038467746E+04  0.17300000000E+03 0.  1.
<mgrwt>
<rscale>  2 0.22984424E+03</rscale>
<asrwt>0</asrwt>
<pdfrwt beam="1">  1       21 0.66007455E-02 0.22984424E+03</pdfrwt>
<pdfrwt beam="2">  1       21 0.22109728E+00 0.22984424E+03</pdfrwt>
<totfact> 0.16103584E+04</totfact>
</mgrwt>
</event>
<event>
 4    2  0.3972096E+000  0.2168240E+03  0.7546771E-02  0.1136273E+00
         21   -1    0    0  501  502  0.00000000000E+00  0.00000000000E+00  0.16616035037E+03  0.16616035037E+03  0.00000000000E+00 0.  1.
         21   -1    0    0  502  503 -0.00000000000E+00 -0.00000000000E+00 -0.40945513759E+03  0.40945513759E+03  0.00000000000E+00 0.  1.
          6    1    1    2  501    0  0.12824090447E+03 -0.25257246542E+02  0.38337258406E+02  0.22018720095E+03  0.17300000000E+03 0.  1.
         -6    1    1    2    0  503 -0.12824090447E+03  0.25257246542E+02 -0.28163204562E+03  0.35542828701E+03  0.17300000000E+03 0.  1.
<mgrwt>
<rscale>  2 0.21682403E+03</rscale>
<asrwt>0</asrwt>
<pdfrwt beam="1">  1       21 0.25563131E-01 0.21682403E+03</pdfrwt>
<pdfrwt beam="2">  1       21 0.62993097E-01 0.21682403E+03</pdfrwt>
<totfact> 0.33435496E+04</totfact>
</mgrwt>
</event>
<event>
 4    2  0.3972096E+000  0.1889444E+03  0.7546771E-02  0.1159417E+00
         21   -1    0    0  501  502  0.00000000000E+00  0.00000000000E+00  0.65911524520E+03  0.65911524520E+03  0.00000000000E+00 0.  1.
         21   -1    0    0  502  503 -0.00000000000E+00 -0.00000000000E+00 -0.59197020194E+02  0.59197020194E+02  0.00000000000E+00 0.  1.
          6    1    1    2  501    0  0.56626791033E+02 -0.50639810083E+02  0.40468874568E+03  0.44662396343E+03  0.17300000000E+03 0.  1.
         -6    1    1    2    0  503 -0.56626791033E+02  0.50639810083E+02  0.19522947933E+03  0.27168830197E+03  0.17300000000E+03 0.  1.
<mgrwt>
<rscale>  2 0.18894439E+03</rscale>
<asrwt>0</asrwt>
<pdfrwt beam="1">  1       21 0.10140234E+00 0.18894439E+03</pdfrwt>
<pdfrwt beam="2">  1       21 0.91072343E-02 0.18894439E+03</pdfrwt>
<totfact> 0.76108625E+04</totfact>
</mgrwt>
</event>
<event>
 4    2  0.3972096E+000  0.1973113E+03  0.7546771E-02  0.1152027E+00
         21   -1    0    0  503  502  0.00000000000E+00  0.00000000000E+00  0.15703900266E+03  0.15703900266E+03  0.00000000000E+00 0.  1.
         21   -1    0    0  501  503 -0.00000000000E+00 -0.00000000000E+00 -0.26863919428E+03  0.26863919428E+03  0.00000000000E+00 0.  1.
          6    1    1    2  501    0 -0.31792985746E+02 -0.89397763616E+02 -0.11492134419E+03  0.22833893543E+03  0.17300000000E+03 0.  1.
         -6    1    1    2    0  502  0.31792985746E+02  0.89397763616E+02  0.33211525646E+01  0.19733926152E+03  0.17300000000E+03 0.  1.
<mgrwt>
<rscale>  2 0.19731131E+03</rscale>
<asrwt>0</asrwt>
<pdfrwt beam="1">  1       21 0.24159847E-01 0.19731131E+03</pdfrwt>
<pdfrwt beam="2">  1       21 0.41329107E-01 0.19731131E+03</pdfrwt>
<totfact> 0.90967136E+04</totfact>
</mgrwt>
</event>
<event>
 4    2  0.3972096E+000  0.1989333E+03  0.7546771E-02  0.1150642E+00
         21   -1    0    0  503  502  0.00000000000E+00  0.00000000000E+00  0.12821093649E+03  0.12821093649E+03  0.00000000000E+00 0. -1.
         21   -1    0    0  501  503 -0.00000000000E+00 -0.00000000000E+00 -0.31542846518E+03  0.31542846518E+03  0.00000000000E+00 0.  1.
          6    1    1    2  501    0  0.89037526810E+02 -0.41446091005E+02 -0.12608580638E+03  0.23552513711E+03  0.17300000000E+03 0. -1.
         -6    1    1    2    0  502 -0.89037526810E+02  0.41446091005E+02 -0.61131722303E+02  0.20811426456E+03  0.17300000000E+03 0. -1.
<mgrwt>
<rscale>  2 0.19893330E+03</rscale>
<asrwt>0</asrwt>
<pdfrwt beam="1">  1       21 0.19724760E-01 0.19893330E+03</pdfrwt>
<pdfrwt beam="2">  1       21 0.48527456E-01 0.19893330E+03</pdfrwt>
<totfact> 0.95806816E+04</totfact>
</mgrwt>
</event>
<event>
 4    2  0.3972096E+000  0.1860622E+03  0.7546771E-02  0.1162062E+00
         21   -1    0    0  501  502  0.00000000000E+00  0.00000000000E+00  0.96711284173E+03  0.96711284173E+03  0.00000000000E+00 0. -1.
         21   -1    0    0  502  503 -0.00000000000E+00 -0.00000000000E+00 -0.37986818072E+02  0.37986818072E+02  0.00000000000E+00 0. -1.
          6    1    1    2  501    0 -0.58592892934E+02  0.35454428279E+02  0.34388513259E+03  0.39099376977E+03  0.17300000000E+03 0.  1.
         -6    1    1    2    0  503  0.58592892934E+02 -0.35454428279E+02  0.58524089107E+03  0.61410589003E+03  0.17300000000E+03 0.  1.
<mgrwt>
<rscale>  2 0.18606220E+03</rscale>
<asrwt>0</asrwt>
<pdfrwt beam="1">  1       21 0.14878657E+00 0.18606220E+03</pdfrwt>
<pdfrwt beam="2">  1       21 0.58441266E-02 0.18606220E+03</pdfrwt>
<totfact> 0.63200941E+04</totfact>
</mgrwt>
</event>
<event>
 4    2  0.3972096E+000  0.1818289E+03  0.7546771E-02  0.1166045E+00
         21   -1    0    0  501  502  0.00000000000E+00  0.00000000000E+00  0.15424689464E+03  0.15424689464E+03  0.00000000000E+00 0. -1.
         21   -1    0    0  502  503 -0.00000000000E+00 -0.00000000000E+00 -0.21691121499E+03  0.21691121499E+03  0.00000000000E+00 0.  1.
          6    1    1    2  501    0 -0.23094815083E+02 -0.50984019936E+02 -0.11138995303E+02  0.18216975048E+03  0.17300000000E+03 0. -1.
         -6    1    1    2    0  503  0.23094815083E+02  0.50984019936E+02 -0.51525325053E+02  0.18898835915E+03  0.17300000000E+03 0.  1.
<mgrwt>
<rscale>  2 0.18182888E+03</rscale>
<asrwt>0</asrwt>
<pdfrwt beam="1">  1       21 0.23730292E-01 0.18182888E+03</pdfrwt>
<pdfrwt beam="2">  1       21 0.33370956E-01 0.18182888E+03</pdfrwt>
<totfact> 0.14516247E+05</totfact>
</mgrwt>
</event>
<event>
 4    2  0.3972096E+000  0.1762299E+03  0.7546771E-02  0.1171502E+00
         21   -1    0    0  501  502  0.00000000000E+00  0.00000000000E+00  0.12214875104E+02  0.12214875104E+02  0.00000000000E+00 0. -1.
         21   -1    0    0  502  503 -0.00000000000E+00 -0.00000000000E+00 -0.26410898814E+04  0.26410898814E+04  0.00000000000E+00 0. -1.
          6    1    1    2  501    0  0.14927391847E+02  0.30085971602E+02 -0.10581895659E+04  0.10727637905E+04  0.17300000000E+03 0. -1.
         -6    1    1    2    0  503 -0.14927391847E+02 -0.30085971602E+02 -0.15706854404E+04  0.15805409660E+04  0.17300000000E+03 0. -1.
<mgrwt>
<rscale>  2 0.17622994E+03</rscale>
<asrwt>0</asrwt>
<pdfrwt beam="1">  1       21 0.18792122E-02 0.17622994E+03</pdfrwt>
<pdfrwt beam="2">  1       21 0.40632137E+00 0.17622994E+03</pdfrwt>
<totfact> 0.11078929E+04</totfact>
</mgrwt>
</event>
<event>
 4    2  0.3972096E+000  0.1946410E+03  0.7546771E-02  0.1154341E+00
         21   -1    0    0  501  502  0.00000000000E+00  0.00000000000E+00  0.75890326261E+03  0.75890326261E+03  0.00000000000E+00 0. -1.
         21   -1    0    0  502  503 -0.00000000000E+00 -0.00000000000E+00 -0.14159055966E+03  0.14159055966E+03  0.00000000000E+00 0. -1.
          6    1    1    2  501    0  0.84404095778E+02  0.28845872060E+02  0.67093805118E+03  0.69860074738E+03  0.17300000000E+03 0. -1.
         -6    1    1    2    0  503 -0.84404095778E+02 -0.28845872060E+02 -0.53625348226E+02  0.20189307490E+03  0.17300000000E+03 0. -1.
<mgrwt>
<rscale>  2 0.19464104E+03</rscale>
<asrwt>0</asrwt>
<pdfrwt beam="1">  1       21 0.11675435E+00 0.19464104E+03</pdfrwt>
<pdfrwt beam="2">  1       21 0.21783163E-01 0.19464104E+03</pdfrwt>
<totfact> 0.11096206E+04</totfact>
</mgrwt>
</event>
<event>
 4    2  0.3972096E+000  0.1939864E+03  0.7546771E-02  0.1154914E+00
         21   -1    0    0  501  502  0.00000000000E+00  0.00000000000E+00  0.25305036567E+03  0.25305036567E+03  0.00000000000E+00 0. -1.
         21   -1    0    0  502  503 -0.00000000000E+00 -0.00000000000E+00 -0.17792239150E+03  0.17792239150E+03  0.00000000000E+00 0. -1.
          6    1    1    2  501    0 -0.58673057585E+02  0.65262455312E+02  0.12488121625E+03  0.23070768069E+03  0.17300000000E+03 0. -1.
         -6    1    1    2    0  503  0.58673057585E+02 -0.65262455312E+02 -0.49753242079E+02  0.20026507648E+03  0.17300000000E+03 0. -1.
<mgrwt>
<rscale>  2 0.19398638E+03</rscale>
<asrwt>0</asrwt>
<pdfrwt beam="1">  1       21 0.38930825E-01 0.19398638E+03</pdfrwt>
<pdfrwt beam="2">  1       21 0.27372676E-01 0.19398638E+03</pdfrwt>
<totfact> 0.80934718E+04</totfact>
</mgrwt>
</event>
<event>
 4    2  0.3972096E+000  0.1758545E+03  0.7546771E-02  0.1171877E+00
         21   -1    0    0  501  502  0.00000000000E+00  0.00000000000E+00  0.13753212850E+04  0.13753212850E+04  0.00000000000E+00 0. -1.
         21   -1    0    0  502  503 -0.00000000000E+00 -0.00000000000E+00 -0.22597982206E+02  0.22597982206E+02  0.00000000000E+00 0. -1.
          6    1    1    2  501    0 -0.19600191812E+02  0.24730976937E+02  0.62704922289E+03  0.65124151946E+03  0.17300000000E+03 0. -1.
         -6    1    1    2    0  503  0.19600191812E+02 -0.24730976937E+02  0.72567407993E+03  0.74667774777E+03  0.17300000000E+03 0. -1.
<mgrwt>
<rscale>  2 0.17585445E+03</rscale>
<asrwt>0</asrwt>
<pdfrwt beam="1">  1       21 0.21158782E+00 0.17585445E+03</pdfrwt>
<pdfrwt beam="2">  1       21 0.34766137E-02 0.17585445E+03</pdfrwt>
<totfact> 0.56821268E+04</totfact>
</mgrwt>
</event>
<event>
 4    2  0.3972096E+000  0.2870457E+03  0.7546771E-02  0.1091902E+00
         21   -1    0    0  501  502  0.00000000000E+00  0.00000000000E+00  0.41889508988E+02  0.41889508988E+02  0.00000000000E+00 0. -1.
         21   -1    0    0  502  503 -0.00000000000E+00 -0.00000000000E+00 -0.21698934932E+04  0.21698934932E+04  0.00000000000E+00 0.  1.
          6    1    1    2  501    0  0.34014399088E+02 -0.22651544101E+03 -0.72580934984E+03  0.78050908815E+03  0.17300000000E+03 0.  1.
         -6    1    1    2    0  503 -0.34014399088E+02  0.22651544101E+03 -0.14021946344E+04  0.14312739141E+04  0.17300000000E+03 0. -1.
<mgrwt>
<rscale>  2 0.28704568E+03</rscale>
<asrwt>0</asrwt>
<pdfrwt beam="1">  1       21 0.64445384E-02 0.28704568E+03</pdfrwt>
<pdfrwt beam="2">  1       21 0.33382984E+00 0.28704568E+03</pdfrwt>
<totfact> 0.34395635E+03</totfact>
</mgrwt>
</event>
<event>
 4    2  0.3972096E+000  0.1781161E+03  0.7546771E-02  0.1169639E+00
         21   -1    0    0  501  502  0.00000000000E+00  0.00000000000E+00  0.47866002211E+03  0.47866002211E+03  0.00000000000E+00 0.  1.
         21   -1    0    0  502  503 -0.00000000000E+00 -0.00000000000E+00 -0.11949575330E+03  0.11949575330E+03  0.00000000000E+00 0.  1.
          6    1    1    2  501    0  0.84020652927E+00  0.42374810037E+02 -0.20003995353E+02  0.17923585105E+03  0.17300000000E+03 0.  1.
         -6    1    1    2    0  503 -0.84020652927E+00 -0.42374810037E+02  0.37916826417E+03  0.41891992436E+03  0.17300000000E+03 0.  1.
<mgrwt>
<rscale>  2 0.17811606E+03</rscale>
<asrwt>0</asrwt>
<pdfrwt beam="1">  1       21 0.73640003E-01 0.17811606E+03</pdfrwt>
<pdfrwt beam="2">  1       21 0.18383962E-01 0.17811606E+03</pdfrwt>
<totfact> 0.45038998E+04</totfact>
</mgrwt>
</event>
<event>
 4    2  0.3972096E+000  0.2537019E+03  0.7546771E-02  0.1110987E+00
         21   -1    0    0  501  502  0.00000000000E+00  0.00000000000E+00  0.17940375065E+03  0.17940375065E+03  0.00000000000E+00 0. -1.
         21   -1    0    0  502  503 -0.00000000000E+00 -0.00000000000E+00 -0.38926190305E+03  0.38926190305E+03  0.00000000000E+00 0.  1.
          6    1    1    2  501    0 -0.21080647004E+02 -0.18436723156E+03 -0.25350004688E+02  0.25496527703E+03  0.17300000000E+03 0.  1.
         -6    1    1    2    0  503  0.21080647004E+02  0.18436723156E+03 -0.18450814771E+03  0.31370037667E+03  0.17300000000E+03 0.  1.
<mgrwt>
<rscale>  2 0.25370193E+03</rscale>
<asrwt>0</asrwt>
<pdfrwt beam="1">  1       21 0.27600577E-01 0.25370193E+03</pdfrwt>
<pdfrwt beam="2">  1       21 0.59886447E-01 0.25370193E+03</pdfrwt>
<totfact> 0.31625614E+04</totfact>
</mgrwt>
</event>
<event>
 4    2  0.3972096E+000  0.1889998E+03  0.7546771E-02  0.1159367E+00
         21   -1    0    0  503  502  0.00000000000E+00  0.00000000000E+00  0.60315024724E+02  0.60315024724E+02  0.00000000000E+00 0. -1.
         21   -1    0    0  501  503 -0.00000000000E+00 -0.00000000000E+00 -0.59290822237E+03  0.59290822237E+03  0.00000000000E+00 0. -1.
          6    1    1    2  501    0 -0.51649492617E+01 -0.75929277134E+02 -0.27726656475E+03  0.33555577741E+03  0.17300000000E+03 0. -1.
         -6    1    1    2    0  502  0.51649492617E+01  0.75929277134E+02 -0.25532663290E+03  0.31766746968E+03  0.17300000000E+03 0. -1.
<mgrwt>
<rscale>  2 0.18899982E+03</rscale>
<asrwt>0</asrwt>
<pdfrwt beam="1">  1       21 0.92792351E-02 0.18899982E+03</pdfrwt>
<pdfrwt beam="2">  1       21 0.91216645E-01 0.18899982E+03</pdfrwt>
<totfact> 0.94423940E+04</totfact>
</mgrwt>
</event>
<event>
 4    2  0.3972096E+000  0.1748376E+03  0.7546771E-02  0.1172895E+00
         21   -1    0    0  503  502  0.00000000000E+00  0.00000000000E+00  0.18450637048E+03  0.18450637048E+03  0.00000000000E+00 0. -1.
         21   -1    0    0  501  503 -0.00000000000E+00 -0.00000000000E+00 -0.18009344597E+03  0.18009344597E+03  0.00000000000E+00 0. -1.
          6    1    1    2  501    0  0.15085894058E+02  0.20287610490E+02  0.53787529384E+02  0.18292421834E+03  0.17300000000E+03 0. -1.
         -6    1    1    2    0  502 -0.15085894058E+02 -0.20287610490E+02 -0.49374604876E+02  0.18167559810E+03  0.17300000000E+03 0. -1.
<mgrwt>
<rscale>  2 0.17483756E+03</rscale>
<asrwt>0</asrwt>
<pdfrwt beam="1">  1       21 0.28385595E-01 0.17483756E+03</pdfrwt>
<pdfrwt beam="2">  1       21 0.27706684E-01 0.17483756E+03</pdfrwt>
<totfact> 0.14838963E+05</totfact>
</mgrwt>
</event>
<event>
 4    2  0.3972096E+000  0.2242372E+03  0.7546771E-02  0.1130763E+00
         21   -1    0    0  501  502  0.00000000000E+00  0.00000000000E+00  0.13073313793E+03  0.13073313793E+03  0.00000000000E+00 0.  1.
         21   -1    0    0  502  503 -0.00000000000E+00 -0.00000000000E+00 -0.69648440181E+03  0.69648440181E+03  0.00000000000E+00 0.  1.
          6    1    1    2  501    0  0.14266504589E+03 -0.13529318343E+00 -0.61061166271E+01  0.22432034746E+03  0.17300000000E+03 0.  1.
         -6    1    1    2    0  503 -0.14266504589E+03  0.13529318343E+00 -0.55964514725E+03  0.60289719228E+03  0.17300000000E+03 0.  1.
<mgrwt>
<rscale>  2 0.22423723E+03</rscale>
<asrwt>0</asrwt>
<pdfrwt beam="1">  1       21 0.20112791E-01 0.22423723E+03</pdfrwt>
<pdfrwt beam="2">  1       21 0.10715145E+00 0.22423723E+03</pdfrwt>
<totfact> 0.15580290E+04</totfact>
</mgrwt>
</event>
<event>
 4    2  0.3972096E+000  0.1742526E+03  0.7546771E-02  0.1173484E+00
         21   -1    0    0  501  502  0.00000000000E+00  0.00000000000E+00  0.60674950042E+03  0.60674950042E+03  0.00000000000E+00 0.  1.
         21   -1    0    0  502  503 -0.00000000000E+00 -0.00000000000E+00 -0.52435249653E+02  0.52435249653E+02  0.00000000000E+00 0.  1.
          6    1    1    2  501    0 -0.20560129576E+02  0.35000622154E+01  0.34754668873E+03  0.38878357760E+03  0.17300000000E+03 0.  1.
         -6    1    1    2    0  503  0.20560129576E+02 -0.35000622154E+01  0.20676756203E+03  0.27040117247E+03  0.17300000000E+03 0.  1.
<mgrwt>
<rscale>  2 0.17425260E+03</rscale>
<asrwt>0</asrwt>
<pdfrwt beam="1">  1       21 0.93346072E-01 0.17425260E+03</pdfrwt>
<pdfrwt beam="2">  1       21 0.80669619E-02 0.17425260E+03</pdfrwt>
<totfact> 0.11497748E+05</totfact>
</mgrwt>
</event>
<event>
 4    2  0.3972096E+000  0.2036286E+03  0.7546771E-02  0.1146713E+00
         21   -1    0    0  503  502  0.00000000000E+00  0.00000000000E+00  0.82542502320E+02  0.82542502320E+02  0.00000000000E+00 0. -1.
         21   -1    0    0  501  503 -0.00000000000E+00 -0.00000000000E+00 -0.53654045570E+03  0.53654045570E+03  0.00000000000E+00 0. -1.
          6    1    1    2  501    0  0.74166464687E+02  0.77684950563E+02 -0.14885113421E+03  0.25223258351E+03  0.17300000000E+03 0. -1.
         -6    1    1    2    0  502 -0.74166464687E+02 -0.77684950563E+02 -0.30514681917E+03  0.36685037451E+03  0.17300000000E+03 0. -1.
<mgrwt>
<rscale>  2 0.20362862E+03</rscale>
<asrwt>0</asrwt>
<pdfrwt beam="1">  1       21 0.12698846E-01 0.20362862E+03</pdfrwt>
<pdfrwt beam="2">  1       21 0.82544688E-01 0.20362862E+03</pdfrwt>
<totfact> 0.67577090E+04</totfact>
</mgrwt>
</event>
<event>
 4    2  0.3972096E+000  0.1943151E+03  0.7546771E-02  0.1154626E+00
         21   -1    0    0  503  502  0.00000000000E+00  0.00000000000E+00  0.15395671587E+03  0.15395671587E+03  0.00000000000E+00 0. -1.
         21   -1    0    0  501  503 -0.00000000000E+00 -0.00000000000E+00 -0.29396859968E+03  0.29396859968E+03  0.00000000000E+00 0.  1.
          6    1    1    2  501    0 -0.75185882600E+02 -0.46652434250E+02 -0.16117733370E+03  0.25246088699E+03  0.17300000000E+03 0.  1.
         -6    1    1    2    0  502  0.75185882600E+02  0.46652434250E+02  0.21165449885E+02  0.19546442856E+03  0.17300000000E+03 0. -1.
<mgrwt>
<rscale>  2 0.19431512E+03</rscale>
<asrwt>0</asrwt>
<pdfrwt beam="1">  1       21 0.23685649E-01 0.19431512E+03</pdfrwt>
<pdfrwt beam="2">  1       21 0.45225938E-01 0.19431512E+03</pdfrwt>
<totfact> 0.78681714E+04</totfact>
</mgrwt>
</event>
<event>
 4    2  0.3972096E+000  0.1890531E+03  0.7546771E-02  0.1159318E+00
         21   -1    0    0  503  502  0.00000000000E+00  0.00000000000E+00  0.24145117378E+03  0.24145117378E+03  0.00000000000E+00 0. -1.
         21   -1    0    0  501  503 -0.00000000000E+00 -0.00000000000E+00 -0.20879377272E+03  0.20879377272E+03  0.00000000000E+00 0. -1.
          6    1    1    2  501    0  0.35667960475E+02 -0.67378478735E+02 -0.10512103459E+03  0.21631341778E+03  0.17300000000E+03 0. -1.
         -6    1    1    2    0  502 -0.35667960475E+02  0.67378478735E+02  0.13777843565E+03  0.23393152872E+03  0.17300000000E+03 0. -1.
<mgrwt>
<rscale>  2 0.18905307E+03</rscale>
<asrwt>0</asrwt>
<pdfrwt beam="1">  1       21 0.37146334E-01 0.18905307E+03</pdfrwt>
<pdfrwt beam="2">  1       21 0.32122119E-01 0.18905307E+03</pdfrwt>
<totfact> 0.65260381E+04</totfact>
</mgrwt>
</event>
<event>
 4    2  0.3972096E+000  0.2678593E+03  0.7546771E-02  0.1102511E+00
         21   -1    0    0  501  502  0.00000000000E+00  0.00000000000E+00  0.10972668356E+03  0.10972668356E+03  0.00000000000E+00 0.  1.
         21   -1    0    0  502  503 -0.00000000000E+00 -0.00000000000E+00 -0.10346548384E+04  0.10346548384E+04  0.00000000000E+00 0. -1.
          6    1    1    2  501    0  0.44780995978E+02 -0.19953509079E+03 -0.11534811550E+03  0.29163980834E+03  0.17300000000E+03 0.  1.
         -6    1    1    2    0  503 -0.44780995978E+02  0.19953509079E+03 -0.80958003934E+03  0.85274171362E+03  0.17300000000E+03 0. -1.
<mgrwt>
<rscale>  2 0.26785927E+03</rscale>
<asrwt>0</asrwt>
<pdfrwt beam="1">  1       21 0.16881029E-01 0.26785927E+03</pdfrwt>
<pdfrwt beam="2">  1       21 0.15917766E+00 0.26785927E+03</pdfrwt>
<totfact> 0.76539966E+03</totfact>
</mgrwt>
</event>
<event>
 4    2  0.3972096E+000  0.1905358E+03  0.7546771E-02  0.1157979E+00
         21   -1    0    0  501  502  0.00000000000E+00  0.00000000000E+00  0.54551245720E+03  0.54551245720E+03  0.00000000000E+00 0.  1.
         21   -1    0    0  502  503 -0.00000000000E+00 -0.00000000000E+00 -0.74913047068E+02  0.74913047068E+02  0.00000000000E+00 0.  1.
          6    1    1    2  501    0 -0.19074804184E+02 -0.77531002243E+02  0.33894767143E+03  0.38883084810E+03  0.17300000000E+03 0.  1.
         -6    1    1    2    0  503  0.19074804184E+02  0.77531002243E+02  0.13165173870E+03  0.23159465617E+03  0.17300000000E+03 0.  1.
<mgrwt>
<rscale>  2 0.19053584E+03</rscale>
<asrwt>0</asrwt>
<pdfrwt beam="1">  1       21 0.83924991E-01 0.19053584E+03</pdfrwt>
<pdfrwt beam="2">  1       21 0.11525085E-01 0.19053584E+03</pdfrwt>
<totfact> 0.77878544E+04</totfact>
</mgrwt>
</event>
<event>
 4    2  0.3972096E+000  0.2148706E+03  0.7546771E-02  0.1137766E+00
         21   -1    0    0  501  502  0.00000000000E+00  0.00000000000E+00  0.15108778126E+03  0.15108778126E+03  0.00000000000E+00 0. -1.
         21   -1    0    0  502  503 -0.00000000000E+00 -0.00000000000E+00 -0.32461731781E+03  0.32461731781E+03  0.00000000000E+00 0. -1.
          6    1    1    2  501    0 -0.11240687500E+03  0.60042401000E+02 -0.29164367149E+02  0.21684085357E+03  0.17300000000E+03 0. -1.
         -6    1    1    2    0  503  0.11240687500E+03 -0.60042401000E+02 -0.14436516939E+03  0.25886424550E+03  0.17300000000E+03 0. -1.
<mgrwt>
<rscale>  2 0.21487065E+03</rscale>
<asrwt>0</asrwt>
<pdfrwt beam="1">  1       21 0.23244274E-01 0.21487065E+03</pdfrwt>
<pdfrwt beam="2">  1       21 0.49941125E-01 0.21487065E+03</pdfrwt>
<totfact> 0.65795240E+04</totfact>
</mgrwt>
</event>
<event>
 4    2  0.3972096E+000  0.2019391E+03  0.7546771E-02  0.1148113E+00
         21   -1    0    0  501  502  0.00000000000E+00  0.00000000000E+00  0.15814042991E+04  0.15814042991E+04  0.00000000000E+00 0. -1.
         21   -1    0    0  502  503 -0.00000000000E+00 -0.00000000000E+00 -0.35056443950E+02  0.35056443950E+02  0.00000000000E+00 0.  1.
          6    1    1    2  501    0 -0.88940868561E+02 -0.54220886200E+02  0.11887804688E+04  0.12058102611E+04  0.17300000000E+03 0. -1.
         -6    1    1    2    0  503  0.88940868561E+02  0.54220886200E+02  0.35756738632E+03  0.41065048199E+03  0.17300000000E+03 0.  1.
<mgrwt>
<rscale>  2 0.20193906E+03</rscale>
<asrwt>0</asrwt>
<pdfrwt beam="1">  1       21 0.24329291E+00 0.20193906E+03</pdfrwt>
<pdfrwt beam="2">  1       21 0.53933003E-02 0.20193906E+03</pdfrwt>
<totfact> 0.17089459E+04</totfact>
</mgrwt>
</event>
<event>
 4    2  0.3972096E+000  0.2038421E+03  0.7546771E-02  0.1146537E+00
         21   -1    0    0  503  502  0.00000000000E+00  0.00000000000E+00  0.31836925269E+03  0.31836925269E+03  0.00000000000E+00 0. -1.
         21   -1    0    0  501  503 -0.00000000000E+00 -0.00000000000E+00 -0.13644023620E+03  0.13644023620E+03  0.00000000000E+00 0. -1.
          6    1    1    2  501    0  0.95891939157E+02 -0.49267821942E+02  0.43570335553E+02  0.20844653131E+03  0.17300000000E+03 0. -1.
         -6    1    1    2    0  502 -0.95891939157E+02  0.49267821942E+02  0.13835868094E+03  0.24636295758E+03  0.17300000000E+03 0. -1.
<mgrwt>
<rscale>  2 0.20384205E+03</rscale>
<asrwt>0</asrwt>
<pdfrwt beam="1">  1       21 0.48979885E-01 0.20384205E+03</pdfrwt>
<pdfrwt beam="2">  1       21 0.20990806E-01 0.20384205E+03</pdfrwt>
<totfact> 0.83467707E+04</totfact>
</mgrwt>
</event>
<event>
 4    2  0.3972096E+000  0.2649711E+03  0.7546771E-02  0.1104193E+00
         21   -1    0    0  503  502  0.00000000000E+00  0.00000000000E+00  0.13994546861E+04  0.13994546861E+04  0.00000000000E+00 0.  1.
         21   -1    0    0  501  503 -0.00000000000E+00 -0.00000000000E+00 -0.50625257594E+02  0.50625257594E+02  0.00000000000E+00 0. -1.
          6    1    1    2  501    0  0.44428623947E+02 -0.19572123040E+03  0.74322077804E+03  0.78904171471E+03  0.17300000000E+03 0. -1.
         -6    1    1    2    0  502 -0.44428623947E+02  0.19572123040E+03  0.60560865052E+03  0.66103822903E+03  0.17300000000E+03 0.  1.
<mgrwt>
<rscale>  2 0.26497114E+03</rscale>
<asrwt>0</asrwt>
<pdfrwt beam="1">  1       21 0.21530069E+00 0.26497114E+03</pdfrwt>
<pdfrwt beam="2">  1       21 0.77885022E-02 0.26497114E+03</pdfrwt>
<totfact> 0.12821201E+04</totfact>
</mgrwt>
</event>
<event>
 4    2  0.3972096E+000  0.2029492E+03  0.7546771E-02  0.1147274E+00
         21   -1    0    0  501  502  0.00000000000E+00  0.00000000000E+00  0.12134160284E+03  0.12134160284E+03  0.00000000000E+00 0.  1.
         21   -1    0    0  502  503 -0.00000000000E+00 -0.00000000000E+00 -0.33946765299E+03  0.33946765299E+03  0.00000000000E+00 0.  1.
          6    1    1    2  501    0  0.10549884891E+03 -0.11373257035E+02 -0.10703509697E+03  0.22944469939E+03  0.17300000000E+03 0.  1.
         -6    1    1    2    0  503 -0.10549884891E+03  0.11373257035E+02 -0.11109095318E+03  0.23136455644E+03  0.17300000000E+03 0.  1.
<mgrwt>
<rscale>  2 0.20294915E+03</rscale>
<asrwt>0</asrwt>
<pdfrwt beam="1">  1       21 0.18667939E-01 0.20294915E+03</pdfrwt>
<pdfrwt beam="2">  1       21 0.52225792E-01 0.20294915E+03</pdfrwt>
<totfact> 0.90900040E+04</totfact>
</mgrwt>
</event>
<event>
 4    2  0.3972096E+000  0.2590137E+03  0.7546771E-02  0.1107737E+00
         21   -1    0    0  501  502  0.00000000000E+00  0.00000000000E+00  0.44767388462E+03  0.44767388462E+03  0.00000000000E+00 0. -1.
         21   -1    0    0  502  503 -0.00000000000E+00 -0.00000000000E+00 -0.15119308627E+03  0.15119308627E+03  0.00000000000E+00 0.  1.
          6    1    1    2  501    0  0.17396120407E+03  0.83045881769E+02  0.17636386139E+03  0.31335655507E+03  0.17300000000E+03 0. -1.
         -6    1    1    2    0  503 -0.17396120407E+03 -0.83045881769E+02  0.12011693696E+03  0.28551041582E+03  0.17300000000E+03 0.  1.
<mgrwt>
<rscale>  2 0.25901374E+03</rscale>
<asrwt>0</asrwt>
<pdfrwt beam="1">  1       21 0.68872905E-01 0.25901374E+03</pdfrwt>
<pdfrwt beam="2">  1       21 0.23260475E-01 0.25901374E+03</pdfrwt>
<totfact> 0.32301175E+04</totfact>
</mgrwt>
</event>
<event>
 4    2  0.3972096E+000  0.1731369E+03  0.7546771E-02  0.1174615E+00
         21   -1    0    0  503  502  0.00000000000E+00  0.00000000000E+00  0.46023662953E+03  0.46023662953E+03  0.00000000000E+00 0.  1.
         21   -1    0    0  501  503 -0.00000000000E+00 -0.00000000000E+00 -0.16680993109E+03  0.16680993109E+03  0.00000000000E+00 0.  1.
          6    1    1    2  501    0 -0.56526233361E+01 -0.39305503721E+01 -0.98063840307E+02  0.19897969281E+03  0.17300000000E+03 0.  1.
         -6    1    1    2    0  502  0.56526233361E+01  0.39305503721E+01  0.39149053875E+03  0.42806686780E+03  0.17300000000E+03 0.  1.
<mgrwt>
<rscale>  2 0.17313694E+03</rscale>
<asrwt>0</asrwt>
<pdfrwt beam="1">  1       21 0.70805635E-01 0.17313694E+03</pdfrwt>
<pdfrwt beam="2">  1       21 0.25663067E-01 0.17313694E+03</pdfrwt>
<totfact> 0.26322680E+04</totfact>
</mgrwt>
</event>
<event>
 4    2  0.3972096E+000  0.1998804E+03  0.7546771E-02  0.1149840E+00
         21   -1    0    0  501  502  0.00000000000E+00  0.00000000000E+00  0.16243032511E+03  0.16243032511E+03  0.00000000000E+00 0. -1.
         21   -1    0    0  502  503 -0.00000000000E+00 -0.00000000000E+00 -0.52728363424E+03  0.52728363424E+03  0.00000000000E+00 0. -1.
          6    1    1    2  501    0 -0.11453365449E+02 -0.99458430463E+02  0.69466404247E+02  0.21160751473E+03  0.17300000000E+03 0. -1.
         -6    1    1    2    0  503  0.11453365449E+02  0.99458430463E+02 -0.43431971338E+03  0.47810644463E+03  0.17300000000E+03 0. -1.
<mgrwt>
<rscale>  2 0.19988036E+03</rscale>
<asrwt>0</asrwt>
<pdfrwt beam="1">  1       21 0.24989281E-01 0.19988036E+03</pdfrwt>
<pdfrwt beam="2">  1       21 0.81120557E-01 0.19988036E+03</pdfrwt>
<totfact> 0.20114168E+04</totfact>
</mgrwt>
</event>
<event>
 4    2  0.3972096E+000  0.2683508E+03  0.7546771E-02  0.1102227E+00
         21   -1    0    0  503  502  0.00000000000E+00  0.00000000000E+00  0.39184773699E+03  0.39184773699E+03  0.00000000000E+00 0. -1.
         21   -1    0    0  501  503 -0.00000000000E+00 -0.00000000000E+00 -0.28295594254E+03  0.28295594254E+03  0.00000000000E+00 0. -1.
          6    1    1    2  501    0 -0.11965755854E+03  0.16662900503E+03 -0.14531029897E+03  0.30516755990E+03  0.17300000000E+03 0. -1.
         -6    1    1    2    0  502  0.11965755854E+03 -0.16662900503E+03  0.25420209342E+03  0.36963611963E+03  0.17300000000E+03 0. -1.
<mgrwt>
<rscale>  2 0.26835081E+03</rscale>
<asrwt>0</asrwt>
<pdfrwt beam="1">  1       21 0.60284267E-01 0.26835081E+03</pdfrwt>
<pdfrwt beam="2">  1       21 0.43531683E-01 0.26835081E+03</pdfrwt>
<totfact> 0.12454961E+04</totfact>
</mgrwt>
</event>
<event>
 4    2  0.3972096E+000  0.2220645E+03  0.7546771E-02  0.1132353E+00
         21   -1    0    0  501  502  0.00000000000E+00  0.00000000000E+00  0.39495313905E+02  0.39495313905E+02  0.00000000000E+00 0.  1.
         21   -1    0    0  502  503 -0.00000000000E+00 -0.00000000000E+00 -0.15219227707E+04  0.15219227707E+04  0.00000000000E+00 0.  1.
          6    1    1    2  501    0  0.80171877921E+02 -0.11382498153E+03 -0.41034570571E+03  0.46657931226E+03  0.17300000000E+03 0.  1.
         -6    1    1    2    0  503 -0.80171877921E+02  0.11382498153E+03 -0.10720817511E+04  0.10948387723E+04  0.17300000000E+03 0.  1.
<mgrwt>
<rscale>  2 0.22206453E+03</rscale>
<asrwt>0</asrwt>
<pdfrwt beam="1">  1       21 0.60762031E-02 0.22206453E+03</pdfrwt>
<pdfrwt beam="2">  1       21 0.23414193E+00 0.22206453E+03</pdfrwt>
<totfact> 0.15552098E+04</totfact>
</mgrwt>
</event>
<event>
 4    2  0.3972096E+000  0.1805687E+03  0.7546771E-02  0.1167254E+00
         21   -1    0    0  503  502  0.00000000000E+00  0.00000000000E+00  0.41801627890E+03  0.41801627890E+03  0.00000000000E+00 0. -1.
         21   -1    0    0  501  503 -0.00000000000E+00 -0.00000000000E+00 -0.78138841919E+02  0.78138841919E+02  0.00000000000E+00 0. -1.
          6    1    1    2  501    0 -0.25991076070E+02  0.44727215779E+02  0.18041478314E+03  0.25525390074E+03  0.17300000000E+03 0. -1.
         -6    1    1    2    0  502  0.25991076070E+02 -0.44727215779E+02  0.15946265384E+03  0.24090122008E+03  0.17300000000E+03 0. -1.
<mgrwt>
<rscale>  2 0.18056871E+03</rscale>
<asrwt>0</asrwt>
<pdfrwt beam="1">  1       21 0.64310195E-01 0.18056871E+03</pdfrwt>
<pdfrwt beam="2">  1       21 0.12021361E-01 0.18056871E+03</pdfrwt>
<totfact> 0.13103527E+05</totfact>
</mgrwt>
</event>
<event>
 4    2  0.3972096E+000  0.1893108E+03  0.7546771E-02  0.1159084E+00
         21   -1    0    0  501  502  0.00000000000E+00  0.00000000000E+00  0.74556757399E+02  0.74556757399E+02  0.00000000000E+00 0.  1.
         21   -1    0    0  502  503 -0.00000000000E+00 -0.00000000000E+00 -0.52800716454E+03  0.52800716454E+03  0.00000000000E+00 0. -1.
          6    1    1    2  501    0  0.76802424822E+02  0.33133345871E+01 -0.13653309248E+03  0.23340924572E+03  0.17300000000E+03 0. -1.
         -6    1    1    2    0  503 -0.76802424822E+02 -0.33133345871E+01 -0.31691731466E+03  0.36915467623E+03  0.17300000000E+03 0. -1.
<mgrwt>
<rscale>  2 0.18931083E+03</rscale>
<asrwt>0</asrwt>
<pdfrwt beam="1">  1       21 0.11470271E-01 0.18931083E+03</pdfrwt>
<pdfrwt beam="2">  1       21 0.81231870E-01 0.18931083E+03</pdfrwt>
<totfact> 0.84630962E+04</totfact>
</mgrwt>
</event>
<event>
 4    2  0.3972096E+000  0.3499489E+03  0.7546771E-02  0.1062636E+00
         21   -1    0    0  503  502  0.00000000000E+00  0.00000000000E+00  0.72187603804E+03  0.72187603804E+03  0.00000000000E+00 0.  1.
         21   -1    0    0  501  503 -0.00000000000E+00 -0.00000000000E+00 -0.42691943254E+03  0.42691943254E+03  0.00000000000E+00 0. -1.
          6    1    1    2  501    0  0.31474232556E+02 -0.30256338741E+03 -0.29842042755E+03  0.45991192885E+03  0.17300000000E+03 0. -1.
         -6    1    1    2    0  502 -0.31474232556E+02  0.30256338741E+03  0.59337703305E+03  0.68888354174E+03  0.17300000000E+03 0.  1.
<mgrwt>
<rscale>  2 0.34994890E+03</rscale>
<asrwt>0</asrwt>
<pdfrwt beam="1">  1       21 0.11105785E+00 0.34994890E+03</pdfrwt>
<pdfrwt beam="2">  1       21 0.65679913E-01 0.34994890E+03</pdfrwt>
<totfact> 0.12136323E+03</totfact>
</mgrwt>
</event>
<event>
 4    2  0.3972096E+000  0.1759123E+03  0.7546771E-02  0.1171819E+00
         21   -1    0    0  503  502  0.00000000000E+00  0.00000000000E+00  0.75958128455E+03  0.75958128455E+03  0.00000000000E+00 0.  1.
         21   -1    0    0  501  503 -0.00000000000E+00 -0.00000000000E+00 -0.61398460302E+02  0.61398460302E+02  0.00000000000E+00 0.  1.
          6    1    1    2  501    0  0.15405883589E+02 -0.27907202852E+02  0.11098269926E+03  0.20799594409E+03  0.17300000000E+03 0.  1.
         -6    1    1    2    0  502 -0.15405883589E+02  0.27907202852E+02  0.58720012499E+03  0.61298380077E+03  0.17300000000E+03 0.  1.
<mgrwt>
<rscale>  2 0.17591235E+03</rscale>
<asrwt>0</asrwt>
<pdfrwt beam="1">  1       21 0.11685865E+00 0.17591235E+03</pdfrwt>
<pdfrwt beam="2">  1       21 0.94459175E-02 0.17591235E+03</pdfrwt>
<totfact> 0.51023329E+04</totfact>
</mgrwt>
</event>
<event>
 4    2  0.3972096E+000  0.1863252E+03  0.7546771E-02  0.1161818E+00
         21   -1    0    0  501  502  0.00000000000E+00  0.00000000000E+00  0.87765312964E+03  0.87765312964E+03  0.00000000000E+00 0.  1.
         21   -1    0    0  502  503 -0.00000000000E+00 -0.00000000000E+00 -0.60681478685E+02  0.60681478685E+02  0.00000000000E+00 0.  1.
          6    1    1    2  501    0  0.89165637642E+01 -0.68618948679E+02  0.68530470230E+03  0.71018279353E+03  0.17300000000E+03 0.  1.
         -6    1    1    2    0  503 -0.89165637642E+01  0.68618948679E+02  0.13166694866E+03  0.22815181480E+03  0.17300000000E+03 0.  1.
<mgrwt>
<rscale>  2 0.18632516E+03</rscale>
<asrwt>0</asrwt>
<pdfrwt beam="1">  1       21 0.13502355E+00 0.18632516E+03</pdfrwt>
<pdfrwt beam="2">  1       21 0.93356127E-02 0.18632516E+03</pdfrwt>
<totfact> 0.36098446E+04</totfact>
</mgrwt>
</event>
<event>
 4    2  0.3972096E+000  0.2357387E+03  0.7546771E-02  0.1122665E+00
         21   -1    0    0  501  502  0.00000000000E+00  0.00000000000E+00  0.23627192616E+03  0.23627192616E+03  0.00000000000E+00 0.  1.
         21   -1    0    0  502  503 -0.00000000000E+00 -0.00000000000E+00 -0.41140576942E+03  0.41140576942E+03  0.00000000000E+00 0.  1.
          6    1    1    2  501    0  0.91324097862E+02 -0.13154324524E+03  0.12436466340E+03  0.26653196004E+03  0.17300000000E+03 0.  1.
         -6    1    1    2    0  503 -0.91324097862E+02  0.13154324524E+03 -0.29949850667E+03  0.38114573553E+03  0.17300000000E+03 0.  1.
<mgrwt>
<rscale>  2 0.23573866E+03</rscale>
<asrwt>0</asrwt>
<pdfrwt beam="1">  1       21 0.36349527E-01 0.23573866E+03</pdfrwt>
<pdfrwt beam="2">  1       21 0.63293195E-01 0.23573866E+03</pdfrwt>
<totfact> 0.16432796E+04</totfact>
</mgrwt>
</event>
<event>
 4    2  0.3972096E+000  0.2475682E+03  0.7546771E-02  0.1114851E+00
         21   -1    0    0  501  502  0.00000000000E+00  0.00000000000E+00  0.11405130277E+03  0.11405130277E+03  0.00000000000E+00 0. -1.
         21   -1    0    0  502  503 -0.00000000000E+00 -0.00000000000E+00 -0.82049030476E+03  0.82049030476E+03  0.00000000000E+00 0.  1.
          6    1    1    2  501    0 -0.58432761524E+02  0.16717246293E+03 -0.78744906360E+02  0.25978987713E+03  0.17300000000E+03 0. -1.
         -6    1    1    2    0  503  0.58432761524E+02 -0.16717246293E+03 -0.62769409564E+03  0.67475173040E+03  0.17300000000E+03 0.  1.
<mgrwt>
<rscale>  2 0.24756821E+03</rscale>
<asrwt>0</asrwt>
<pdfrwt beam="1">  1       21 0.17546354E-01 0.24756821E+03</pdfrwt>
<pdfrwt beam="2">  1       21 0.12622928E+00 0.24756821E+03</pdfrwt>
<totfact> 0.13232154E+04</totfact>
</mgrwt>
</event>
<event>
 4    2  0.3972096E+000  0.1836180E+03  0.7546771E-02  0.1164347E+00
         21   -1    0    0  503  502  0.00000000000E+00  0.00000000000E+00  0.13985518279E+04  0.13985518279E+04  0.00000000000E+00 0.  1.
         21   -1    0    0  501  503 -0.00000000000E+00 -0.00000000000E+00 -0.52030045641E+02  0.52030045641E+02  0.00000000000E+00 0.  1.
          6    1    1    2  501    0 -0.41847438738E+02 -0.45114831327E+02  0.14193273564E+03  0.23207855907E+03  0.17300000000E+03 0.  1.
         -6    1    1    2    0  502  0.41847438738E+02  0.45114831327E+02  0.12045890467E+04  0.12185033145E+04  0.17300000000E+03 0.  1.
<mgrwt>
<rscale>  2 0.18361796E+03</rscale>
<asrwt>0</asrwt>
<pdfrwt beam="1">  1       21 0.21516179E+00 0.18361796E+03</pdfrwt>
<pdfrwt beam="2">  1       21 0.80046235E-02 0.18361796E+03</pdfrwt>
<totfact> 0.13017704E+04</totfact>
</mgrwt>
</event>
<event>
 4    2  0.3972096E+000  0.2008403E+03  0.7546771E-02  0.1149032E+00
         21   -1    0    0  503  502  0.00000000000E+00  0.00000000000E+00  0.87563439660E+03  0.87563439660E+03  0.00000000000E+00 0. -1.
         21   -1    0    0  501  503 -0.00000000000E+00 -0.00000000000E+00 -0.87597254916E+02  0.87597254916E+02  0.00000000000E+00 0.  1.
          6    1    1    2  501    0  0.86377080124E+02  0.54284589166E+02  0.62396086453E+02  0.21030950572E+03  0.17300000000E+03 0.  1.
         -6    1    1    2    0  502 -0.86377080124E+02 -0.54284589166E+02  0.72564105523E+03  0.75292214579E+03  0.17300000000E+03 0. -1.
<mgrwt>
<rscale>  2 0.20084028E+03</rscale>
<asrwt>0</asrwt>
<pdfrwt beam="1">  1       21 0.13471298E+00 0.20084028E+03</pdfrwt>
<pdfrwt beam="2">  1       21 0.13476501E-01 0.20084028E+03</pdfrwt>
<totfact> 0.18712956E+04</totfact>
</mgrwt>
</event>
<event>
 4    2  0.3972096E+000  0.1978267E+03  0.7546771E-02  0.1151586E+00
         21   -1    0    0  503  502  0.00000000000E+00  0.00000000000E+00  0.11117838799E+03  0.11117838799E+03  0.00000000000E+00 0.  1.
         21   -1    0    0  501  503 -0.00000000000E+00 -0.00000000000E+00 -0.44088667859E+03  0.44088667859E+03  0.00000000000E+00 0. -1.
          6    1    1    2  501    0  0.15645282773E+02 -0.94665901419E+02 -0.28879132343E+03  0.35005119091E+03  0.17300000000E+03 0. -1.
         -6    1    1    2    0  502 -0.15645282773E+02  0.94665901419E+02 -0.40916967169E+02  0.20201387568E+03  0.17300000000E+03 0.  1.
<mgrwt>
<rscale>  2 0.19782671E+03</rscale>
<asrwt>0</asrwt>
<pdfrwt beam="1">  1       21 0.17104367E-01 0.19782671E+03</pdfrwt>
<pdfrwt beam="2">  1       21 0.67828721E-01 0.19782671E+03</pdfrwt>
<totfact> 0.61109941E+04</totfact>
</mgrwt>
</event>
<event>
 4    2  0.3972096E+000  0.1757810E+03  0.7546771E-02  0.1171950E+00
         21   -1    0    0  503  502  0.00000000000E+00  0.00000000000E+00  0.18312031591E+02  0.18312031591E+02  0.00000000000E+00 0.  1.
         21   -1    0    0  501  503 -0.00000000000E+00 -0.00000000000E+00 -0.17760895958E+04  0.17760895958E+04  0.00000000000E+00 0.  1.
          6    1    1    2  501    0  0.30648883517E+02  0.55315661519E+01 -0.10794266834E+04  0.10936456999E+04  0.17300000000E+03 0.  1.
         -6    1    1    2    0  502 -0.30648883517E+02 -0.55315661519E+01 -0.67835088087E+03  0.70075592746E+03  0.17300000000E+03 0.  1.
<mgrwt>
<rscale>  2 0.17578098E+03</rscale>
<asrwt>0</asrwt>
<pdfrwt beam="1">  1       21 0.28172359E-02 0.17578098E+03</pdfrwt>
<pdfrwt beam="2">  1       21 0.27324452E+00 0.17578098E+03</pdfrwt>
<totfact> 0.34698425E+04</totfact>
</mgrwt>
</event>
<event>
 4    2  0.3972096E+000  0.2157378E+03  0.7546771E-02  0.1137101E+00
         21   -1    0    0  501  502  0.00000000000E+00  0.00000000000E+00  0.23337170731E+03  0.23337170731E+03  0.00000000000E+00 0.  1.
         21   -1    0    0  502  503 -0.00000000000E+00 -0.00000000000E+00 -0.10715489226E+04  0.10715489226E+04  0.00000000000E+00 0. -1.
          6    1    1    2  501    0 -0.44879872087E+02 -0.12082871894E+03  0.16953055113E+03  0.27437818792E+03  0.17300000000E+03 0.  1.
         -6    1    1    2    0  503  0.44879872087E+02  0.12082871894E+03 -0.10077077664E+04  0.10305424420E+04  0.17300000000E+03 0. -1.
<mgrwt>
<rscale>  2 0.21573776E+03</rscale>
<asrwt>0</asrwt>
<pdfrwt beam="1">  1       21 0.35903340E-01 0.21573776E+03</pdfrwt>
<pdfrwt beam="2">  1       21 0.16485368E+00 0.21573776E+03</pdfrwt>
<totfact> 0.16981093E+03</totfact>
</mgrwt>
</event>
<event>
 4    2  0.3972096E+000  0.1839497E+03  0.7546771E-02  0.1164034E+00
         21   -1    0    0  503  502  0.00000000000E+00  0.00000000000E+00  0.14154391784E+04  0.14154391784E+04  0.00000000000E+00 0.  1.
         21   -1    0    0  501  503 -0.00000000000E+00 -0.00000000000E+00 -0.34570870158E+02  0.34570870158E+02  0.00000000000E+00 0. -1.
          6    1    1    2  501    0 -0.34005332353E+02 -0.52460666434E+02  0.28775076357E+03  0.34152303888E+03  0.17300000000E+03 0. -1.
         -6    1    1    2    0  502  0.34005332353E+02  0.52460666434E+02  0.10931175447E+04  0.11084870097E+04  0.17300000000E+03 0.  1.
<mgrwt>
<rscale>  2 0.18394968E+03</rscale>
<asrwt>0</asrwt>
<pdfrwt beam="1">  1       21 0.21775983E+00 0.18394968E+03</pdfrwt>
<pdfrwt beam="2">  1       21 0.53185965E-02 0.18394968E+03</pdfrwt>
<totfact> 0.25321535E+04</totfact>
</mgrwt>
</event>
<event>
 4    2  0.3972096E+000  0.1907232E+03  0.7546771E-02  0.1157811E+00
         21   -1    0    0  503  502  0.00000000000E+00  0.00000000000E+00  0.26180551309E+04  0.26180551309E+04  0.00000000000E+00 0.  1.
         21   -1    0    0  501  503 -0.00000000000E+00 -0.00000000000E+00 -0.14262181098E+02  0.14262181098E+02  0.00000000000E+00 0.  1.
          6    1    1    2  501    0 -0.80117266270E+02  0.52498497880E+01  0.10904365116E+04  0.11069901188E+04  0.17300000000E+03 0.  1.
         -6    1    1    2    0  502  0.80117266270E+02 -0.52498497880E+01  0.15133564381E+04  0.15253271931E+04  0.17300000000E+03 0.  1.
<mgrwt>
<rscale>  2 0.19072320E+03</rscale>
<asrwt>0</asrwt>
<pdfrwt beam="1">  1       21 0.40277733E+00 0.19072320E+03</pdfrwt>
<pdfrwt beam="2">  1       21 0.21941838E-02 0.19072320E+03</pdfrwt>
<totfact> 0.88814549E+03</totfact>
</mgrwt>
</event>
<event>
 4    2  0.3972096E+000  0.3235913E+03  0.7546771E-02  0.1074008E+00
         21   -1    0    0  503  502  0.00000000000E+00  0.00000000000E+00  0.98582214056E+02  0.98582214056E+02  0.00000000000E+00 0. -1.
         21   -1    0    0  501  503 -0.00000000000E+00 -0.00000000000E+00 -0.11663613703E+04  0.11663613703E+04  0.00000000000E+00 0.  1.
          6    1    1    2  501    0  0.26796801830E+03  0.54547985577E+02 -0.34485783571E+03  0.47290407950E+03  0.17300000000E+03 0.  1.
         -6    1    1    2    0  502 -0.26796801830E+03 -0.54547985577E+02 -0.72292132055E+03  0.79203950486E+03  0.17300000000E+03 0. -1.
<mgrwt>
<rscale>  2 0.32359132E+03</rscale>
<asrwt>0</asrwt>
<pdfrwt beam="1">  1       21 0.15166494E-01 0.32359132E+03</pdfrwt>
<pdfrwt beam="2">  1       21 0.17944021E+00 0.32359132E+03</pdfrwt>
<totfact> 0.64698020E+03</totfact>
</mgrwt>
</event>
<event>
 4    2  0.3972096E+000  0.1751496E+03  0.7546771E-02  0.1172582E+00
         21   -1    0    0  503  502  0.00000000000E+00  0.00000000000E+00  0.15565475160E+04  0.15565475160E+04  0.00000000000E+00 0. -1.
         21   -1    0    0  501  503 -0.00000000000E+00 -0.00000000000E+00 -0.68260605803E+02  0.68260605803E+02  0.00000000000E+00 0. -1.
          6    1    1    2  501    0 -0.15369102548E+02 -0.22630950983E+02  0.58985643371E+02  0.18481524661E+03  0.17300000000E+03 0. -1.
         -6    1    1    2    0  502  0.15369102548E+02  0.22630950983E+02  0.14293012669E+04  0.14399928752E+04  0.17300000000E+03 0. -1.
<mgrwt>
<rscale>  2 0.17514956E+03</rscale>
<asrwt>0</asrwt>
<pdfrwt beam="1">  1       21 0.23946882E+00 0.17514956E+03</pdfrwt>
<pdfrwt beam="2">  1       21 0.10501633E-01 0.17514956E+03</pdfrwt>
<totfact> 0.58149697E+03</totfact>
</mgrwt>
</event>
<event>
 4    2  0.3972096E+000  0.3003495E+03  0.7546771E-02  0.1085066E+00
         21   -1    0    0  501  502  0.00000000000E+00  0.00000000000E+00  0.11867167274E+03  0.11867167274E+03  0.00000000000E+00 0. -1.
         21   -1    0    0  502  503 -0.00000000000E+00 -0.00000000000E+00 -0.12029456633E+04  0.12029456633E+04  0.00000000000E+00 0. -1.
          6    1    1    2  501    0  0.22025425845E+03 -0.10848459465E+03 -0.14122606008E+03  0.33189553429E+03  0.17300000000E+03 0. -1.
         -6    1    1    2    0  503 -0.22025425845E+03  0.10848459465E+03 -0.94304793046E+03  0.98972180172E+03  0.17300000000E+03 0. -1.
<mgrwt>
<rscale>  2 0.30034954E+03</rscale>
<asrwt>0</asrwt>
<pdfrwt beam="1">  1       21 0.18257182E-01 0.30034954E+03</pdfrwt>
<pdfrwt beam="2">  1       21 0.18506855E+00 0.30034954E+03</pdfrwt>
<totfact> 0.42469641E+03</totfact>
</mgrwt>
</event>
<event>
 4    2  0.3972096E+000  0.2105009E+03  0.7546771E-02  0.1141170E+00
         21   -1    0    0  503  502  0.00000000000E+00  0.00000000000E+00  0.13073758309E+03  0.13073758309E+03  0.00000000000E+00 0. -1.
         21   -1    0    0  501  503 -0.00000000000E+00 -0.00000000000E+00 -0.43817336316E+03  0.43817336316E+03  0.00000000000E+00 0.  1.
          6    1    1    2  501    0  0.83752310320E+02 -0.85832389256E+02 -0.28909525905E+03  0.35761252402E+03  0.17300000000E+03 0.  1.
         -6    1    1    2    0  502 -0.83752310320E+02  0.85832389256E+02 -0.18340521017E+02  0.21129842224E+03  0.17300000000E+03 0. -1.
<mgrwt>
<rscale>  2 0.21050095E+03</rscale>
<asrwt>0</asrwt>
<pdfrwt beam="1">  1       21 0.20113474E-01 0.21050095E+03</pdfrwt>
<pdfrwt beam="2">  1       21 0.67411287E-01 0.21050095E+03</pdfrwt>
<totfact> 0.45566783E+04</totfact>
</mgrwt>
</event>
<event>
 4    2  0.3972096E+000  0.2132894E+03  0.7546771E-02  0.1138987E+00
         21   -1    0    0  503  502  0.00000000000E+00  0.00000000000E+00  0.39573784997E+03  0.39573784997E+03  0.00000000000E+00 0. -1.
         21   -1    0    0  501  503 -0.00000000000E+00 -0.00000000000E+00 -0.13400367427E+03  0.13400367427E+03  0.00000000000E+00 0.  1.
          6    1    1    2  501    0  0.91648900535E+02 -0.84639572785E+02  0.31005507970E+02  0.21553125011E+03  0.17300000000E+03 0.  1.
         -6    1    1    2    0  502 -0.91648900535E+02  0.84639572785E+02  0.23072866773E+03  0.31421027412E+03  0.17300000000E+03 0. -1.
<mgrwt>
<rscale>  2 0.21328942E+03</rscale>
<asrwt>0</asrwt>
<pdfrwt beam="1">  1       21 0.60882745E-01 0.21328942E+03</pdfrwt>
<pdfrwt beam="2">  1       21 0.20615950E-01 0.21328942E+03</pdfrwt>
<totfact> 0.54233374E+04</totfact>
</mgrwt>
</event>
<event>
 4    2  0.3972096E+000  0.2445658E+03  0.7546771E-02  0.1116788E+00
         21   -1    0    0  501  502  0.00000000000E+00  0.00000000000E+00  0.17589410070E+03  0.17589410070E+03  0.00000000000E+00 0.  1.
         21   -1    0    0  502  503 -0.00000000000E+00 -0.00000000000E+00 -0.36291867915E+03  0.36291867915E+03  0.00000000000E+00 0.  1.
          6    1    1    2  501    0 -0.11547415437E+03 -0.12864352011E+03 -0.25881750568E+02  0.24593149576E+03  0.17300000000E+03 0.  1.
         -6    1    1    2    0  503  0.11547415437E+03  0.12864352011E+03 -0.16114282788E+03  0.29288128409E+03  0.17300000000E+03 0.  1.
<mgrwt>
<rscale>  2 0.24456581E+03</rscale>
<asrwt>0</asrwt>
<pdfrwt beam="1">  1       21 0.27060631E-01 0.24456581E+03</pdfrwt>
<pdfrwt beam="2">  1       21 0.55833643E-01 0.24456581E+03</pdfrwt>
<totfact> 0.38348711E+04</totfact>
</mgrwt>
</event>
<event>
 4    2  0.3972096E+000  0.2335485E+03  0.7546771E-02  0.1124167E+00
         21   -1    0    0  501  502  0.00000000000E+00  0.00000000000E+00  0.11628137590E+03  0.11628137590E+03  0.00000000000E+00 0.  1.
         21   -1    0    0  502  503 -0.00000000000E+00 -0.00000000000E+00 -0.46907923074E+03  0.46907923074E+03  0.00000000000E+00 0.  1.
          6    1    1    2  501    0  0.12398974362E+03 -0.96137714367E+02 -0.17704002523E+03  0.29306669408E+03  0.17300000000E+03 0.  1.
         -6    1    1    2    0  503 -0.12398974362E+03  0.96137714367E+02 -0.17575782961E+03  0.29229391255E+03  0.17300000000E+03 0.  1.
<mgrwt>
<rscale>  2 0.23354853E+03</rscale>
<asrwt>0</asrwt>
<pdfrwt beam="1">  1       21 0.17889442E-01 0.23354853E+03</pdfrwt>
<pdfrwt beam="2">  1       21 0.72166035E-01 0.23354853E+03</pdfrwt>
<totfact> 0.48248443E+04</totfact>
</mgrwt>
</event>
<event>
 4    2  0.3972096E+000  0.1753097E+03  0.7546771E-02  0.1172421E+00
         21   -1    0    0  501  502  0.00000000000E+00  0.00000000000E+00  0.86341399133E+03  0.86341399133E+03  0.00000000000E+00 0.  1.
         21   -1    0    0  502  503 -0.00000000000E+00 -0.00000000000E+00 -0.11266032143E+03  0.11266032143E+03  0.00000000000E+00 0.  1.
          6    1    1    2  501    0  0.26779002635E+02 -0.93481666967E+01  0.77901848344E+03  0.79850065794E+03  0.17300000000E+03 0.  1.
         -6    1    1    2    0  503 -0.26779002635E+02  0.93481666967E+01 -0.28264813532E+02  0.17757365482E+03  0.17300000000E+03 0.  1.
<mgrwt>
<rscale>  2 0.17530974E+03</rscale>
<asrwt>0</asrwt>
<pdfrwt beam="1">  1       21 0.13283292E+00 0.17530974E+03</pdfrwt>
<pdfrwt beam="2">  1       21 0.17332358E-01 0.17530974E+03</pdfrwt>
<totfact> 0.12477653E+04</totfact>
</mgrwt>
</event>
<event>
 4    2  0.3972096E+000  0.2066015E+03  0.7546771E-02  0.1144286E+00
         21   -1    0    0  503  502  0.00000000000E+00  0.00000000000E+00  0.88343176335E+03  0.88343176335E+03  0.00000000000E+00 0. -1.
         21   -1    0    0  501  503 -0.00000000000E+00 -0.00000000000E+00 -0.67896960855E+02  0.67896960855E+02  0.00000000000E+00 0.  1.
          6    1    1    2  501    0  0.38421293822E+02  0.10620247417E+03  0.66320747361E+03  0.69464258031E+03  0.17300000000E+03 0. -1.
         -6    1    1    2    0  502 -0.38421293822E+02 -0.10620247417E+03  0.15232732888E+03  0.25668614389E+03  0.17300000000E+03 0.  1.
<mgrwt>
<rscale>  2 0.20660146E+03</rscale>
<asrwt>0</asrwt>
<pdfrwt beam="1">  1       21 0.13591257E+00 0.20660146E+03</pdfrwt>
<pdfrwt beam="2">  1       21 0.10445687E-01 0.20660146E+03</pdfrwt>
<totfact> 0.28762434E+04</totfact>
</mgrwt>
</event>
<event>
 4    2  0.3972096E+000  0.1987436E+03  0.7546771E-02  0.1150803E+00
         21   -1    0    0  501  502  0.00000000000E+00  0.00000000000E+00  0.76196417443E+03  0.76196417443E+03  0.00000000000E+00 0. -1.
         21   -1    0    0  502  503 -0.00000000000E+00 -0.00000000000E+00 -0.13433890376E+03  0.13433890376E+03  0.00000000000E+00 0. -1.
          6    1    1    2  501    0 -0.37739545783E+02 -0.90253707175E+02  0.66501084065E+03  0.69407378798E+03  0.17300000000E+03 0. -1.
         -6    1    1    2    0  503  0.37739545783E+02  0.90253707175E+02 -0.37385569978E+02  0.20222929021E+03  0.17300000000E+03 0. -1.
<mgrwt>
<rscale>  2 0.19874357E+03</rscale>
<asrwt>0</asrwt>
<pdfrwt beam="1">  1       21 0.11722525E+00 0.19874357E+03</pdfrwt>
<pdfrwt beam="2">  1       21 0.20667524E-01 0.19874357E+03</pdfrwt>
<totfact> 0.12093054E+04</totfact>
</mgrwt>
</event>
<event>
 4    2  0.3972096E+000  0.1949897E+03  0.7546771E-02  0.1154036E+00
         21   -1    0    0  503  502  0.00000000000E+00  0.00000000000E+00  0.17635075362E+04  0.17635075362E+04  0.00000000000E+00 0.  1.
         21   -1    0    0  501  503 -0.00000000000E+00 -0.00000000000E+00 -0.63525723925E+02  0.63525723925E+02  0.00000000000E+00 0.  1.
          6    1    1    2  501    0 -0.30746513292E+02 -0.84537798835E+02  0.10750246771E+03  0.22266065677E+03  0.17300000000E+03 0.  1.
         -6    1    1    2    0  502  0.30746513292E+02  0.84537798835E+02  0.15924793446E+04  0.16043726034E+04  0.17300000000E+03 0.  1.
<mgrwt>
<rscale>  2 0.19498971E+03</rscale>
<asrwt>0</asrwt>
<pdfrwt beam="1">  1       21 0.27130881E+00 0.19498971E+03</pdfrwt>
<pdfrwt beam="2">  1       21 0.97731897E-02 0.19498971E+03</pdfrwt>
<totfact> 0.42101869E+03</totfact>
</mgrwt>
</event>
<event>
 4    2  0.3972096E+000  0.1932096E+03  0.7546771E-02  0.1155598E+00
         21   -1    0    0  501  502  0.00000000000E+00  0.00000000000E+00  0.33396536420E+02  0.33396536420E+02  0.00000000000E+00 0. -1.
         21   -1    0    0  502  503 -0.00000000000E+00 -0.00000000000E+00 -0.12791614935E+04  0.12791614935E+04  0.00000000000E+00 0. -1.
          6    1    1    2  501    0 -0.81784373757E+02  0.26688491311E+02 -0.38977642872E+03  0.43503519828E+03  0.17300000000E+03 0. -1.
         -6    1    1    2    0  503  0.81784373757E+02 -0.26688491311E+02 -0.85598852837E+03  0.87752283164E+03  0.17300000000E+03 0. -1.
<mgrwt>
<rscale>  2 0.19320963E+03</rscale>
<asrwt>0</asrwt>
<pdfrwt beam="1">  1       21 0.51379298E-02 0.19320963E+03</pdfrwt>
<pdfrwt beam="2">  1       21 0.19679403E+00 0.19320963E+03</pdfrwt>
<totfact> 0.36155850E+04</totfact>
</mgrwt>
</event>
<event>
 4    2  0.3972096E+000  0.2404946E+03  0.7546771E-02  0.1119464E+00
         21   -1    0    0  501  502  0.00000000000E+00  0.00000000000E+00  0.10341230674E+04  0.10341230674E+04  0.00000000000E+00 0. -1.
         21   -1    0    0  502  503 -0.00000000000E+00 -0.00000000000E+00 -0.58563899593E+02  0.58563899593E+02  0.00000000000E+00 0. -1.
          6    1    1    2  501    0 -0.16008387234E+03 -0.47768106664E+02  0.60366247660E+03  0.64980460436E+03  0.17300000000E+03 0.  1.
         -6    1    1    2    0  503  0.16008387234E+03  0.47768106664E+02  0.37189669120E+03  0.44288236262E+03  0.17300000000E+03 0.  1.
<mgrwt>
<rscale>  2 0.24049457E+03</rscale>
<asrwt>0</asrwt>
<pdfrwt beam="1">  1       21 0.15909584E+00 0.24049457E+03</pdfrwt>
<pdfrwt beam="2">  1       21 0.90098314E-02 0.24049457E+03</pdfrwt>
<totfact> 0.24192270E+04</totfact>
</mgrwt>
</event>
<event>
 4    2  0.3972096E+000  0.2186240E+03  0.7546771E-02  0.1134913E+00
         21   -1    0    0  501  502  0.00000000000E+00  0.00000000000E+00  0.10334238149E+04  0.10334238149E+04  0.00000000000E+00 0. -1.
         21   -1    0    0  502  503 -0.00000000000E+00 -0.00000000000E+00 -0.73734185032E+02  0.73734185032E+02  0.00000000000E+00 0. -1.
          6    1    1    2  501    0 -0.12547364784E+03  0.46085100031E+02  0.81781769004E+03  0.84653543747E+03  0.17300000000E+03 0. -1.
         -6    1    1    2    0  503  0.12547364784E+03 -0.46085100031E+02  0.14187193979E+03  0.26062256243E+03  0.17300000000E+03 0. -1.
<mgrwt>
<rscale>  2 0.21862404E+03</rscale>
<asrwt>0</asrwt>
<pdfrwt beam="1">  1       21 0.15898827E+00 0.21862404E+03</pdfrwt>
<pdfrwt beam="2">  1       21 0.11343721E-01 0.21862404E+03</pdfrwt>
<totfact> 0.16316643E+04</totfact>
</mgrwt>
</event>
<event>
 4    2  0.3972096E+000  0.1925608E+03  0.7546771E-02  0.1156172E+00
         21   -1    0    0  501  502  0.00000000000E+00  0.00000000000E+00  0.48901542005E+03  0.48901542005E+03  0.00000000000E+00 0.  1.
         21   -1    0    0  502  503 -0.00000000000E+00 -0.00000000000E+00 -0.10150864276E+03  0.10150864276E+03  0.00000000000E+00 0. -1.
          6    1    1    2  501    0 -0.37393912666E+02  0.75844172141E+02  0.34227291558E+03  0.39272177415E+03  0.17300000000E+03 0.  1.
         -6    1    1    2    0  503  0.37393912666E+02 -0.75844172141E+02  0.45233861716E+02  0.19780228866E+03  0.17300000000E+03 0. -1.
<mgrwt>
<rscale>  2 0.19256075E+03</rscale>
<asrwt>0</asrwt>
<pdfrwt beam="1">  1       21 0.75233140E-01 0.19256075E+03</pdfrwt>
<pdfrwt beam="2">  1       21 0.15616715E-01 0.19256075E+03</pdfrwt>
<totfact> 0.57556580E+04</totfact>
</mgrwt>
</event>
<event>
 4    2  0.3972096E+000  0.1958582E+03  0.7546771E-02  0.1153281E+00
         21   -1    0    0  503  502  0.00000000000E+00  0.00000000000E+00  0.13288708718E+03  0.13288708718E+03  0.00000000000E+00 0.  1.
         21   -1    0    0  501  503 -0.00000000000E+00 -0.00000000000E+00 -0.36286723178E+03  0.36286723178E+03  0.00000000000E+00 0. -1.
          6    1    1    2  501    0  0.52756325264E+02  0.75154569368E+02 -0.22707782625E+03  0.29987460433E+03  0.17300000000E+03 0. -1.
         -6    1    1    2    0  502 -0.52756325264E+02 -0.75154569368E+02 -0.29023183522E+01  0.19587971463E+03  0.17300000000E+03 0.  1.
<mgrwt>
<rscale>  2 0.19585821E+03</rscale>
<asrwt>0</asrwt>
<pdfrwt beam="1">  1       21 0.20444168E-01 0.19585821E+03</pdfrwt>
<pdfrwt beam="2">  1       21 0.55825727E-01 0.19585821E+03</pdfrwt>
<totfact> 0.66860692E+04</totfact>
</mgrwt>
</event>
<event>
 4    2  0.3972096E+000  0.1848183E+03  0.7546771E-02  0.1163220E+00
         21   -1    0    0  501  502  0.00000000000E+00  0.00000000000E+00  0.79424704009E+03  0.79424704009E+03  0.00000000000E+00 0. -1.
         21   -1    0    0  502  503 -0.00000000000E+00 -0.00000000000E+00 -0.53212804577E+02  0.53212804577E+02  0.00000000000E+00 0.  1.
          6    1    1    2  501    0 -0.25364820796E+02  0.59878448937E+02  0.55609014554E+03  0.58599833852E+03  0.17300000000E+03 0. -1.
         -6    1    1    2    0  503  0.25364820796E+02 -0.59878448937E+02  0.18494408997E+03  0.26146150615E+03  0.17300000000E+03 0.  1.
<mgrwt>
<rscale>  2 0.18481830E+03</rscale>
<asrwt>0</asrwt>
<pdfrwt beam="1">  1       21 0.12219184E+00 0.18481830E+03</pdfrwt>
<pdfrwt beam="2">  1       21 0.81865859E-02 0.18481830E+03</pdfrwt>
<totfact> 0.58428392E+04</totfact>
</mgrwt>
</event>
<event>
 4    2  0.3972096E+000  0.1829943E+03  0.7546771E-02  0.1164936E+00
         21   -1    0    0  501  502  0.00000000000E+00  0.00000000000E+00  0.25527051581E+03  0.25527051581E+03  0.00000000000E+00 0.  1.
         21   -1    0    0  502  503 -0.00000000000E+00 -0.00000000000E+00 -0.15666947125E+03  0.15666947125E+03  0.00000000000E+00 0.  1.
          6    1    1    2  501    0 -0.44170885452E+02  0.40085347991E+02  0.13237640401E+03  0.22585485291E+03  0.17300000000E+03 0.  1.
         -6    1    1    2    0  503  0.44170885452E+02 -0.40085347991E+02 -0.33775359441E+02  0.18608513415E+03  0.17300000000E+03 0.  1.
<mgrwt>
<rscale>  2 0.18299427E+03</rscale>
<asrwt>0</asrwt>
<pdfrwt beam="1">  1       21 0.39272387E-01 0.18299427E+03</pdfrwt>
<pdfrwt beam="2">  1       21 0.24102996E-01 0.18299427E+03</pdfrwt>
<totfact> 0.10187260E+05</totfact>
</mgrwt>
</event>
<event>
 4    2  0.3972096E+000  0.3392037E+03  0.7546771E-02  0.1067136E+00
         21   -1    0    0  503  502  0.00000000000E+00  0.00000000000E+00  0.56246242866E+03  0.56246242866E+03  0.00000000000E+00 0.  1.
         21   -1    0    0  501  503 -0.00000000000E+00 -0.00000000000E+00 -0.58109062536E+03  0.58109062536E+03  0.00000000000E+00 0. -1.
          6    1    1    2  501    0  0.12387446769E+03 -0.26416896417E+03 -0.46957351621E+03  0.57927403921E+03  0.17300000000E+03 0. -1.
         -6    1    1    2    0  502 -0.12387446769E+03  0.26416896417E+03  0.45094531950E+03  0.56427901481E+03  0.17300000000E+03 0.  1.
<mgrwt>
<rscale>  2 0.33920366E+03</rscale>
<asrwt>0</asrwt>
<pdfrwt beam="1">  1       21 0.86532682E-01 0.33920366E+03</pdfrwt>
<pdfrwt beam="2">  1       21 0.89398557E-01 0.33920366E+03</pdfrwt>
<totfact> 0.11010559E+03</totfact>
</mgrwt>
</event>
<event>
 4    2  0.3972096E+000  0.1828695E+03  0.7546771E-02  0.1165054E+00
         21   -1    0    0  501  502  0.00000000000E+00  0.00000000000E+00  0.43903506928E+03  0.43903506928E+03  0.00000000000E+00 0. -1.
         21   -1    0    0  502  503 -0.00000000000E+00 -0.00000000000E+00 -0.12718818667E+03  0.12718818667E+03  0.00000000000E+00 0. -1.
          6    1    1    2  501    0  0.37820537135E+01 -0.59143525993E+02  0.33523043223E+03  0.38186477095E+03  0.17300000000E+03 0. -1.
         -6    1    1    2    0  503 -0.37820537135E+01  0.59143525993E+02 -0.23383549624E+02  0.18435848500E+03  0.17300000000E+03 0. -1.
<mgrwt>
<rscale>  2 0.18286952E+03</rscale>
<asrwt>0</asrwt>
<pdfrwt beam="1">  1       21 0.67543856E-01 0.18286952E+03</pdfrwt>
<pdfrwt beam="2">  1       21 0.19567414E-01 0.18286952E+03</pdfrwt>
<totfact> 0.48417213E+04</totfact>
</mgrwt>
</event>
<event>
 4    2  0.3972096E+000  0.1943889E+03  0.7546771E-02  0.1154561E+00
         21   -1    0    0  503  502  0.00000000000E+00  0.00000000000E+00  0.41136918850E+03  0.41136918850E+03  0.00000000000E+00 0. -1.
         21   -1    0    0  501  503 -0.00000000000E+00 -0.00000000000E+00 -0.19822793307E+03  0.19822793307E+03  0.00000000000E+00 0.  1.
          6    1    1    2  501    0  0.39140384968E+02 -0.79536630475E+02 -0.11670557513E+03  0.22673164003E+03  0.17300000000E+03 0.  1.
         -6    1    1    2    0  502 -0.39140384968E+02  0.79536630475E+02  0.32984683056E+03  0.38286548154E+03  0.17300000000E+03 0. -1.
<mgrwt>
<rscale>  2 0.19438890E+03</rscale>
<asrwt>0</asrwt>
<pdfrwt beam="1">  1       21 0.63287567E-01 0.19438890E+03</pdfrwt>
<pdfrwt beam="2">  1       21 0.30496605E-01 0.19438890E+03</pdfrwt>
<totfact> 0.23812727E+04</totfact>
</mgrwt>
</event>
<event>
 4    2  0.3972096E+000  0.2096830E+03  0.7546771E-02  0.1141817E+00
         21   -1    0    0  503  502  0.00000000000E+00  0.00000000000E+00  0.23840605381E+03  0.23840605381E+03  0.00000000000E+00 0.  1.
         21   -1    0    0  501  503 -0.00000000000E+00 -0.00000000000E+00 -0.20232791359E+03  0.20232791359E+03  0.00000000000E+00 0.  1.
          6    1    1    2  501    0  0.10963424771E+03 -0.44925281652E+02 -0.47520454018E+02  0.21500033198E+03  0.17300000000E+03 0.  1.
         -6    1    1    2    0  502 -0.10963424771E+03  0.44925281652E+02  0.83598594238E+02  0.22573363542E+03  0.17300000000E+03 0.  1.
<mgrwt>
<rscale>  2 0.20968297E+03</rscale>
<asrwt>0</asrwt>
<pdfrwt beam="1">  1       21 0.36677854E-01 0.20968297E+03</pdfrwt>
<pdfrwt beam="2">  1       21 0.31127371E-01 0.20968297E+03</pdfrwt>
<totfact> 0.70551622E+04</totfact>
</mgrwt>
</event>
<event>
 4    2  0.3972096E+000  0.2570857E+03  0.7546771E-02  0.1108907E+00
         21   -1    0    0  503  502  0.00000000000E+00  0.00000000000E+00  0.71490739663E+03  0.71490739663E+03  0.00000000000E+00 0.  1.
         21   -1    0    0  501  503 -0.00000000000E+00 -0.00000000000E+00 -0.10212468433E+03  0.10212468433E+03  0.00000000000E+00 0. -1.
          6    1    1    2  501    0 -0.19015081528E+03  0.25965296909E+01  0.18065358996E+03  0.31421138440E+03  0.17300000000E+03 0. -1.
         -6    1    1    2    0  502  0.19015081528E+03 -0.25965296909E+01  0.43212912234E+03  0.50282069656E+03  0.17300000000E+03 0.  1.
<mgrwt>
<rscale>  2 0.25708573E+03</rscale>
<asrwt>0</asrwt>
<pdfrwt beam="1">  1       21 0.10998575E+00 0.25708573E+03</pdfrwt>
<pdfrwt beam="2">  1       21 0.15711490E-01 0.25708573E+03</pdfrwt>
<totfact> 0.22731693E+04</totfact>
</mgrwt>
</event>
<event>
 4    2  0.3972096E+000  0.1961488E+03  0.7546771E-02  0.1153030E+00
         21   -1    0    0  501  502  0.00000000000E+00  0.00000000000E+00  0.46219458719E+03  0.46219458719E+03  0.00000000000E+00 0.  1.
         21   -1    0    0  502  503 -0.00000000000E+00 -0.00000000000E+00 -0.83270249286E+02  0.83270249286E+02  0.00000000000E+00 0.  1.
          6    1    1    2  501    0  0.74895862157E+02  0.54184491033E+02  0.18450607559E+03  0.26928951180E+03  0.17300000000E+03 0.  1.
         -6    1    1    2    0  503 -0.74895862157E+02 -0.54184491033E+02  0.19441826231E+03  0.27617532467E+03  0.17300000000E+03 0.  1.
<mgrwt>
<rscale>  2 0.19614879E+03</rscale>
<asrwt>0</asrwt>
<pdfrwt beam="1">  1       21 0.71106858E-01 0.19614879E+03</pdfrwt>
<pdfrwt beam="2">  1       21 0.12810808E-01 0.19614879E+03</pdfrwt>
<totfact> 0.93275273E+04</totfact>
</mgrwt>
</event>
<event>
 4    2  0.3972096E+000  0.1891080E+03  0.7546771E-02  0.1159268E+00
         21   -1    0    0  501  502  0.00000000000E+00  0.00000000000E+00  0.16360128788E+03  0.16360128788E+03  0.00000000000E+00 0. -1.
         21   -1    0    0  502  503 -0.00000000000E+00 -0.00000000000E+00 -0.40794725486E+03  0.40794725486E+03  0.00000000000E+00 0. -1.
          6    1    1    2  501    0 -0.75095397123E+02 -0.13910967599E+02  0.72524569716E+02  0.20253801347E+03  0.17300000000E+03 0. -1.
         -6    1    1    2    0  503  0.75095397123E+02  0.13910967599E+02 -0.31687053669E+03  0.36901052927E+03  0.17300000000E+03 0. -1.
<mgrwt>
<rscale>  2 0.18910799E+03</rscale>
<asrwt>0</asrwt>
<pdfrwt beam="1">  1       21 0.25169429E-01 0.18910799E+03</pdfrwt>
<pdfrwt beam="2">  1       21 0.62761115E-01 0.18910799E+03</pdfrwt>
<totfact> 0.35229769E+04</totfact>
</mgrwt>
</event>
<event>
 4    2  0.3972096E+000  0.1860954E+03  0.7546771E-02  0.1162031E+00
         21   -1    0    0  501  502  0.00000000000E+00  0.00000000000E+00  0.17293990355E+04  0.17293990355E+04  0.00000000000E+00 0.  1.
         21   -1    0    0  502  503 -0.00000000000E+00 -0.00000000000E+00 -0.24374296916E+02  0.24374296916E+02  0.00000000000E+00 0.  1.
          6    1    1    2  501    0  0.67915178911E+02 -0.94883855518E+01  0.12229189633E+04  0.12369972885E+04  0.17300000000E+03 0.  1.
         -6    1    1    2    0  503 -0.67915178911E+02  0.94883855518E+01  0.48210577521E+03  0.51677604383E+03  0.17300000000E+03 0.  1.
<mgrwt>
<rscale>  2 0.18609541E+03</rscale>
<asrwt>0</asrwt>
<pdfrwt beam="1">  1       21 0.26606129E+00 0.18609541E+03</pdfrwt>
<pdfrwt beam="2">  1       21 0.37498932E-02 0.18609541E+03</pdfrwt>
<totfact> 0.23531289E+04</totfact>
</mgrwt>
</event>
<event>
 4    2  0.3972096E+000  0.2337084E+03  0.7546771E-02  0.1124057E+00
         21   -1    0    0  501  502  0.00000000000E+00  0.00000000000E+00  0.11193321479E+03  0.11193321479E+03  0.00000000000E+00 0. -1.
         21   -1    0    0  502  503 -0.00000000000E+00 -0.00000000000E+00 -0.49351160225E+03  0.49351160225E+03  0.00000000000E+00 0. -1.
          6    1    1    2  501    0 -0.21494400485E+02 -0.15565535543E+03 -0.15869904711E+03  0.28249776367E+03  0.17300000000E+03 0. -1.
         -6    1    1    2    0  503  0.21494400485E+02  0.15565535543E+03 -0.22287934035E+03  0.32294705337E+03  0.17300000000E+03 0. -1.
<mgrwt>
<rscale>  2 0.23370836E+03</rscale>
<asrwt>0</asrwt>
<pdfrwt beam="1">  1       21 0.17220495E-01 0.23370836E+03</pdfrwt>
<pdfrwt beam="2">  1       21 0.75924861E-01 0.23370836E+03</pdfrwt>
<totfact> 0.46212256E+04</totfact>
</mgrwt>
</event>
<event>
 4    2  0.3972096E+000  0.2796469E+03  0.7546771E-02  0.1095882E+00
         21   -1    0    0  503  502  0.00000000000E+00  0.00000000000E+00  0.16683283831E+03  0.16683283831E+03  0.00000000000E+00 0. -1.
         21   -1    0    0  501  503 -0.00000000000E+00 -0.00000000000E+00 -0.94290795196E+03  0.94290795196E+03  0.00000000000E+00 0.  1.
          6    1    1    2  501    0  0.27503070782E+02 -0.21798392547E+03 -0.78151491583E+03  0.83004094738E+03  0.17300000000E+03 0.  1.
         -6    1    1    2    0  502 -0.27503070782E+02  0.21798392547E+03  0.54398021889E+01  0.27969984289E+03  0.17300000000E+03 0. -1.
<mgrwt>
<rscale>  2 0.27964694E+03</rscale>
<asrwt>0</asrwt>
<pdfrwt beam="1">  1       21 0.25666591E-01 0.27964694E+03</pdfrwt>
<pdfrwt beam="2">  1       21 0.14506276E+00 0.27964694E+03</pdfrwt>
<totfact> 0.44149134E+03</totfact>
</mgrwt>
</event>
<event>
 4    2  0.3972096E+000  0.1780166E+03  0.7546771E-02  0.1169736E+00
         21   -1    0    0  503  502  0.00000000000E+00  0.00000000000E+00  0.19548596199E+03  0.19548596199E+03  0.00000000000E+00 0. -1.
         21   -1    0    0  501  503 -0.00000000000E+00 -0.00000000000E+00 -0.19953203055E+03  0.19953203055E+03  0.00000000000E+00 0. -1.
          6    1    1    2  501    0  0.12593115598E+02 -0.40029212377E+02  0.83513824104E+02  0.19663286404E+03  0.17300000000E+03 0. -1.
         -6    1    1    2    0  502 -0.12593115598E+02  0.40029212377E+02 -0.87559892666E+02  0.19838512849E+03  0.17300000000E+03 0. -1.
<mgrwt>
<rscale>  2 0.17801664E+03</rscale>
<asrwt>0</asrwt>
<pdfrwt beam="1">  1       21 0.30074764E-01 0.17801664E+03</pdfrwt>
<pdfrwt beam="2">  1       21 0.30697235E-01 0.17801664E+03</pdfrwt>
<totfact> 0.10862939E+05</totfact>
</mgrwt>
</event>
<event>
 4    2  0.3972096E+000  0.2040713E+03  0.7546771E-02  0.1146349E+00
         21   -1    0    0  501  502  0.00000000000E+00  0.00000000000E+00  0.25934337475E+03  0.25934337475E+03  0.00000000000E+00 0. -1.
         21   -1    0    0  502  503 -0.00000000000E+00 -0.00000000000E+00 -0.19993890480E+03  0.19993890480E+03  0.00000000000E+00 0.  1.
          6    1    1    2  501    0  0.25592007263E+02  0.10517206419E+03 -0.72186872518E+02  0.21646260297E+03  0.17300000000E+03 0. -1.
         -6    1    1    2    0  503 -0.25592007263E+02 -0.10517206419E+03  0.13159134246E+03  0.24281967658E+03  0.17300000000E+03 0. -1.
<mgrwt>
<rscale>  2 0.20407135E+03</rscale>
<asrwt>0</asrwt>
<pdfrwt beam="1">  1       21 0.39898981E-01 0.20407135E+03</pdfrwt>
<pdfrwt beam="2">  1       21 0.30759831E-01 0.20407135E+03</pdfrwt>
<totfact> 0.61119086E+04</totfact>
</mgrwt>
</event>
<event>
 4    2  0.3972096E+000  0.1778709E+03  0.7546771E-02  0.1169880E+00
         21   -1    0    0  501  502  0.00000000000E+00  0.00000000000E+00  0.48152677496E+03  0.48152677496E+03  0.00000000000E+00 0.  1.
         21   -1    0    0  502  503 -0.00000000000E+00 -0.00000000000E+00 -0.66530118921E+02  0.66530118921E+02  0.00000000000E+00 0.  1.
          6    1    1    2  501    0  0.22057313496E+02 -0.34964843780E+02  0.17695611677E+03  0.25090144009E+03  0.17300000000E+03 0. -1.
         -6    1    1    2    0  503 -0.22057313496E+02  0.34964843780E+02  0.23804053927E+03  0.29715545379E+03  0.17300000000E+03 0. -1.
<mgrwt>
<rscale>  2 0.17787092E+03</rscale>
<asrwt>0</asrwt>
<pdfrwt beam="1">  1       21 0.74081040E-01 0.17787092E+03</pdfrwt>
<pdfrwt beam="2">  1       21 0.10235403E-01 0.17787092E+03</pdfrwt>
<totfact> 0.12794542E+05</totfact>
</mgrwt>
</event>
<event>
 4    2  0.3972096E+000  0.2136929E+03  0.7546771E-02  0.1138675E+00
         21   -1    0    0  503  502  0.00000000000E+00  0.00000000000E+00  0.14476382381E+03  0.14476382381E+03  0.00000000000E+00 0. -1.
         21   -1    0    0  501  503 -0.00000000000E+00 -0.00000000000E+00 -0.31581635250E+03  0.31581635250E+03  0.00000000000E+00 0. -1.
          6    1    1    2  501    0  0.11957572793E+03 -0.37911501284E+02 -0.77601036021E+02  0.22734677792E+03  0.17300000000E+03 0. -1.
         -6    1    1    2    0  502 -0.11957572793E+03  0.37911501284E+02 -0.93451492665E+02  0.23323339838E+03  0.17300000000E+03 0. -1.
<mgrwt>
<rscale>  2 0.21369286E+03</rscale>
<asrwt>0</asrwt>
<pdfrwt beam="1">  1       21 0.22271358E-01 0.21369286E+03</pdfrwt>
<pdfrwt beam="2">  1       21 0.48587131E-01 0.21369286E+03</pdfrwt>
<totfact> 0.75599219E+04</totfact>
</mgrwt>
</event>
<event>
 4    2  0.3972096E+000  0.2053888E+03  0.7546771E-02  0.1145270E+00
         21   -1    0    0  501  502  0.00000000000E+00  0.00000000000E+00  0.48852003488E+03  0.48852003488E+03  0.00000000000E+00 0.  1.
         21   -1    0    0  502  503 -0.00000000000E+00 -0.00000000000E+00 -0.86384995624E+02  0.86384995624E+02  0.00000000000E+00 0.  1.
          6    1    1    2  501    0 -0.84527199122E+01 -0.11038165194E+03  0.20670708697E+03  0.29139728441E+03  0.17300000000E+03 0.  1.
         -6    1    1    2    0  503  0.84527199122E+01  0.11038165194E+03  0.19542795229E+03  0.28350774610E+03  0.17300000000E+03 0.  1.
<mgrwt>
<rscale>  2 0.20538880E+03</rscale>
<asrwt>0</asrwt>
<pdfrwt beam="1">  1       21 0.75156927E-01 0.20538880E+03</pdfrwt>
<pdfrwt beam="2">  1       21 0.13290000E-01 0.20538880E+03</pdfrwt>
<totfact> 0.76867894E+04</totfact>
</mgrwt>
</event>
<event>
 4    2  0.3972096E+000  0.1771418E+03  0.7546771E-02  0.1170598E+00
         21   -1    0    0  501  502  0.00000000000E+00  0.00000000000E+00  0.14573906507E+03  0.14573906507E+03  0.00000000000E+00 0.  1.
         21   -1    0    0  502  503 -0.00000000000E+00 -0.00000000000E+00 -0.40811861366E+03  0.40811861366E+03  0.00000000000E+00 0. -1.
          6    1    1    2  501    0  0.32400519333E+02 -0.20010430014E+02  0.59153341178E+02  0.18675740610E+03  0.17300000000E+03 0.  1.
         -6    1    1    2    0  503 -0.32400519333E+02  0.20010430014E+02 -0.32153288977E+03  0.36710027263E+03  0.17300000000E+03 0. -1.
<mgrwt>
<rscale>  2 0.17714178E+03</rscale>
<asrwt>0</asrwt>
<pdfrwt beam="1">  1       21 0.22421395E-01 0.17714178E+03</pdfrwt>
<pdfrwt beam="2">  1       21 0.62787479E-01 0.17714178E+03</pdfrwt>
<totfact> 0.44097038E+04</totfact>
</mgrwt>
</event>
<event>
 4    2  0.3972096E+000  0.2210847E+03  0.7546771E-02  0.1133077E+00
         21   -1    0    0  501  502  0.00000000000E+00  0.00000000000E+00  0.42722353128E+03  0.42722353128E+03  0.00000000000E+00 0.  1.
         21   -1    0    0  502  503 -0.00000000000E+00 -0.00000000000E+00 -0.14928257280E+03  0.14928257280E+03  0.00000000000E+00 0.  1.
          6    1    1    2  501    0 -0.74743943668E+02  0.11559746734E+03  0.27829079586E+03  0.35542115670E+03  0.17300000000E+03 0.  1.
         -6    1    1    2    0  503  0.74743943668E+02 -0.11559746734E+03 -0.34983737737E+00  0.22108494738E+03  0.17300000000E+03 0.  1.
<mgrwt>
<rscale>  2 0.22108467E+03</rscale>
<asrwt>0</asrwt>
<pdfrwt beam="1">  1       21 0.65726696E-01 0.22108467E+03</pdfrwt>
<pdfrwt beam="2">  1       21 0.22966550E-01 0.22108467E+03</pdfrwt>
<totfact> 0.37314509E+04</totfact>
</mgrwt>
</event>
<event>
 4    2  0.3972096E+000  0.2924041E+03  0.7546771E-02  0.1089101E+00
         21   -1    0    0  501  502  0.00000000000E+00  0.00000000000E+00  0.41554586268E+03  0.41554586268E+03  0.00000000000E+00 0. -1.
         21   -1    0    0  502  503 -0.00000000000E+00 -0.00000000000E+00 -0.23077159639E+03  0.23077159639E+03  0.00000000000E+00 0.  1.
          6    1    1    2  501    0 -0.22241445350E+03  0.78121428443E+02  0.19878896581E+03  0.35357771371E+03  0.17300000000E+03 0.  1.
         -6    1    1    2    0  503  0.22241445350E+03 -0.78121428443E+02 -0.14014699524E+02  0.29273974536E+03  0.17300000000E+03 0. -1.
<mgrwt>
<rscale>  2 0.29240408E+03</rscale>
<asrwt>0</asrwt>
<pdfrwt beam="1">  1       21 0.63930133E-01 0.29240408E+03</pdfrwt>
<pdfrwt beam="2">  1       21 0.35503323E-01 0.29240408E+03</pdfrwt>
<totfact> 0.16407614E+04</totfact>
</mgrwt>
</event>
<event>
 4    2  0.3972096E+000  0.2704984E+03  0.7546771E-02  0.1100995E+00
         21   -1    0    0  501  502  0.00000000000E+00  0.00000000000E+00  0.99825220910E+02  0.99825220910E+02  0.00000000000E+00 0.  1.
         21   -1    0    0  502  503 -0.00000000000E+00 -0.00000000000E+00 -0.75425840797E+03  0.75425840797E+03  0.00000000000E+00 0. -1.
          6    1    1    2  501    0 -0.20782268541E+03 -0.70799178272E+01 -0.39895151872E+03  0.48200799589E+03  0.17300000000E+03 0. -1.
         -6    1    1    2    0  503  0.20782268541E+03  0.70799178272E+01 -0.25548166834E+03  0.37207563299E+03  0.17300000000E+03 0.  1.
<mgrwt>
<rscale>  2 0.27049842E+03</rscale>
<asrwt>0</asrwt>
<pdfrwt beam="1">  1       21 0.15357726E-01 0.27049842E+03</pdfrwt>
<pdfrwt beam="2">  1       21 0.11603976E+00 0.27049842E+03</pdfrwt>
<totfact> 0.20651203E+04</totfact>
</mgrwt>
</event>
<event>
 4    2  0.3972096E+000  0.2339394E+03  0.7546771E-02  0.1123897E+00
         21   -1    0    0  503  502  0.00000000000E+00  0.00000000000E+00  0.67706017844E+02  0.67706017844E+02  0.00000000000E+00 0. -1.
         21   -1    0    0  501  503 -0.00000000000E+00 -0.00000000000E+00 -0.85052583904E+03  0.85052583904E+03  0.00000000000E+00 0.  1.
          6    1    1    2  501    0 -0.12266882545E+03  0.98747216751E+02 -0.49369231995E+03  0.54631470814E+03  0.17300000000E+03 0.  1.
         -6    1    1    2    0  502  0.12266882545E+03 -0.98747216751E+02 -0.28912750125E+03  0.37191714875E+03  0.17300000000E+03 0. -1.
<mgrwt>
<rscale>  2 0.23393942E+03</rscale>
<asrwt>0</asrwt>
<pdfrwt beam="1">  1       21 0.10416311E-01 0.23393942E+03</pdfrwt>
<pdfrwt beam="2">  1       21 0.13085013E+00 0.23393942E+03</pdfrwt>
<totfact> 0.31362657E+04</totfact>
</mgrwt>
</event>
<event>
 4    2  0.3972096E+000  0.2004314E+03  0.7546771E-02  0.1149376E+00
         21   -1    0    0  503  502  0.00000000000E+00  0.00000000000E+00  0.43823297303E+03  0.43823297303E+03  0.00000000000E+00 0. -1.
         21   -1    0    0  501  503 -0.00000000000E+00 -0.00000000000E+00 -0.96104553741E+02  0.96104553741E+02  0.00000000000E+00 0.  1.
          6    1    1    2  501    0 -0.44749816479E+02  0.90781053292E+02  0.11367284080E+03  0.23042191833E+03  0.17300000000E+03 0.  1.
         -6    1    1    2    0  502  0.44749816479E+02 -0.90781053292E+02  0.22845557849E+03  0.30391560844E+03  0.17300000000E+03 0.  1.
<mgrwt>
<rscale>  2 0.20043140E+03</rscale>
<asrwt>0</asrwt>
<pdfrwt beam="1">  1       21 0.67420456E-01 0.20043140E+03</pdfrwt>
<pdfrwt beam="2">  1       21 0.14785316E-01 0.20043140E+03</pdfrwt>
<totfact> 0.80761425E+04</totfact>
</mgrwt>
</event>
<event>
 4    2  0.3972096E+000  0.2053092E+03  0.7546771E-02  0.1145335E+00
         21   -1    0    0  501  502  0.00000000000E+00  0.00000000000E+00  0.97956153222E+03  0.97956153222E+03  0.00000000000E+00 0. -1.
         21   -1    0    0  502  503 -0.00000000000E+00 -0.00000000000E+00 -0.79420238354E+02  0.79420238354E+02  0.00000000000E+00 0. -1.
          6    1    1    2  501    0 -0.40339252374E+02  0.10293508163E+03  0.80847815577E+03  0.83413956546E+03  0.17300000000E+03 0. -1.
         -6    1    1    2    0  503  0.40339252374E+02 -0.10293508163E+03  0.91663138092E+02  0.22484220511E+03  0.17300000000E+03 0. -1.
<mgrwt>
<rscale>  2 0.20530925E+03</rscale>
<asrwt>0</asrwt>
<pdfrwt beam="1">  1       21 0.15070177E+00 0.20530925E+03</pdfrwt>
<pdfrwt beam="2">  1       21 0.12218499E-01 0.20530925E+03</pdfrwt>
<totfact> 0.16628443E+04</totfact>
</mgrwt>
</event>
<event>
 4    2  0.3972096E+000  0.3814006E+03  0.7546771E-02  0.1050417E+00
         21   -1    0    0  503  502  0.00000000000E+00  0.00000000000E+00  0.76383175009E+02  0.76383175009E+02  0.00000000000E+00 0.  1.
         21   -1    0    0  501  503 -0.00000000000E+00 -0.00000000000E+00 -0.20783067855E+04  0.20783067855E+04  0.00000000000E+00 0. -1.
          6    1    1    2  501    0 -0.33031402682E+03  0.80187534486E+02 -0.13125786876E+04  0.13668683946E+04  0.17300000000E+03 0. -1.
         -6    1    1    2    0  502  0.33031402682E+03 -0.80187534486E+02 -0.68934492290E+03  0.78782156592E+03  0.17300000000E+03 0.  1.
<mgrwt>
<rscale>  2 0.38140057E+03</rscale>
<asrwt>0</asrwt>
<pdfrwt beam="1">  1       21 0.11751259E-01 0.38140057E+03</pdfrwt>
<pdfrwt beam="2">  1       21 0.31973947E+00 0.38140057E+03</pdfrwt>
<totfact> 0.13433161E+03</totfact>
</mgrwt>
</event>
<event>
 4    2  0.3972096E+000  0.2063705E+03  0.7546771E-02  0.1144473E+00
         21   -1    0    0  503  502  0.00000000000E+00  0.00000000000E+00  0.19999605021E+03  0.19999605021E+03  0.00000000000E+00 0. -1.
         21   -1    0    0  501  503 -0.00000000000E+00 -0.00000000000E+00 -0.22012939717E+03  0.22012939717E+03  0.00000000000E+00 0.  1.
          6    1    1    2  501    0  0.22631629609E+02 -0.11021607985E+03 -0.48007957282E+02  0.21188095450E+03  0.17300000000E+03 0. -1.
         -6    1    1    2    0  502 -0.22631629609E+02  0.11021607985E+03  0.27874610319E+02  0.20824449289E+03  0.17300000000E+03 0. -1.
<mgrwt>
<rscale>  2 0.20637048E+03</rscale>
<asrwt>0</asrwt>
<pdfrwt beam="1">  1       21 0.30768623E-01 0.20637048E+03</pdfrwt>
<pdfrwt beam="2">  1       21 0.33866061E-01 0.20637048E+03</pdfrwt>
<totfact> 0.84707534E+04</totfact>
</mgrwt>
</event>
<event>
 4    2  0.3972096E+000  0.2162167E+03  0.7546771E-02  0.1136736E+00
         21   -1    0    0  503  502  0.00000000000E+00  0.00000000000E+00  0.16972471320E+03  0.16972471320E+03  0.00000000000E+00 0. -1.
         21   -1    0    0  501  503 -0.00000000000E+00 -0.00000000000E+00 -0.32798097509E+03  0.32798097509E+03  0.00000000000E+00 0.  1.
          6    1    1    2  501    0  0.79801689770E+02  0.10223666497E+03 -0.17872622379E+03  0.28052220665E+03  0.17300000000E+03 0.  1.
         -6    1    1    2    0  502 -0.79801689770E+02 -0.10223666497E+03  0.20469961899E+02  0.21718348163E+03  0.17300000000E+03 0. -1.
<mgrwt>
<rscale>  2 0.21621666E+03</rscale>
<asrwt>0</asrwt>
<pdfrwt beam="1">  1       21 0.26111494E-01 0.21621666E+03</pdfrwt>
<pdfrwt beam="2">  1       21 0.50458611E-01 0.21621666E+03</pdfrwt>
<totfact> 0.51524347E+04</totfact>
</mgrwt>
</event>
<event>
 4    2  0.3972096E+000  0.2140136E+03  0.7546771E-02  0.1138427E+00
         21   -1    0    0  501  502  0.00000000000E+00  0.00000000000E+00  0.16546399879E+03  0.16546399879E+03  0.00000000000E+00 0.  1.
         21   -1    0    0  502  503 -0.00000000000E+00 -0.00000000000E+00 -0.34102398906E+03  0.34102398906E+03  0.00000000000E+00 0.  1.
          6    1    1    2  501    0  0.12573799492E+03 -0.79219907955E+01  0.22112340499E+02  0.21515286869E+03  0.17300000000E+03 0.  1.
         -6    1    1    2    0  503 -0.12573799492E+03  0.79219907955E+01 -0.19767233076E+03  0.29133511916E+03  0.17300000000E+03 0.  1.
<mgrwt>
<rscale>  2 0.21401355E+03</rscale>
<asrwt>0</asrwt>
<pdfrwt beam="1">  1       21 0.25456000E-01 0.21401355E+03</pdfrwt>
<pdfrwt beam="2">  1       21 0.52465229E-01 0.21401355E+03</pdfrwt>
<totfact> 0.49898758E+04</totfact>
</mgrwt>
</event>
<event>
 4    2  0.3972096E+000  0.1743550E+03  0.7546771E-02  0.1173381E+00
         21   -1    0    0  503  502  0.00000000000E+00  0.00000000000E+00  0.14149625240E+03  0.14149625240E+03  0.00000000000E+00 0. -1.
         21   -1    0    0  501  503 -0.00000000000E+00 -0.00000000000E+00 -0.33206817243E+03  0.33206817243E+03  0.00000000000E+00 0. -1.
          6    1    1    2  501    0  0.21388498483E+02 -0.36321518505E+01 -0.23596957462E+03  0.29339614950E+03  0.17300000000E+03 0. -1.
         -6    1    1    2    0  502 -0.21388498483E+02  0.36321518505E+01  0.45397654596E+02  0.18016827534E+03  0.17300000000E+03 0. -1.
<mgrwt>
<rscale>  2 0.17435498E+03</rscale>
<asrwt>0</asrwt>
<pdfrwt beam="1">  1       21 0.21768654E-01 0.17435498E+03</pdfrwt>
<pdfrwt beam="2">  1       21 0.51087411E-01 0.17435498E+03</pdfrwt>
<totfact> 0.72298863E+04</totfact>
</mgrwt>
</event>
<event>
 4    2  0.3972096E+000  0.2444522E+03  0.7546771E-02  0.1116862E+00
         21   -1    0    0  503  502  0.00000000000E+00  0.00000000000E+00  0.19927457615E+03  0.19927457615E+03  0.00000000000E+00 0. -1.
         21   -1    0    0  501  503 -0.00000000000E+00 -0.00000000000E+00 -0.45912052191E+03  0.45912052191E+03  0.00000000000E+00 0. -1.
          6    1    1    2  501    0 -0.14547406906E+03 -0.93086996506E+02 -0.32380196523E+03  0.40571493240E+03  0.17300000000E+03 0. -1.
         -6    1    1    2    0  502  0.14547406906E+03  0.93086996506E+02  0.63956019468E+02  0.25268016565E+03  0.17300000000E+03 0. -1.
<mgrwt>
<rscale>  2 0.24445223E+03</rscale>
<asrwt>0</asrwt>
<pdfrwt beam="1">  1       21 0.30657628E-01 0.24445223E+03</pdfrwt>
<pdfrwt beam="2">  1       21 0.70633925E-01 0.24445223E+03</pdfrwt>
<totfact> 0.18016761E+04</totfact>
</mgrwt>
</event>
<event>
 4    2  0.3972096E+000  0.1960116E+03  0.7546771E-02  0.1153148E+00
         21   -1    0    0  501  502  0.00000000000E+00  0.00000000000E+00  0.39029545425E+03  0.39029545425E+03  0.00000000000E+00 0. -1.
         21   -1    0    0  502  503 -0.00000000000E+00 -0.00000000000E+00 -0.13710542300E+03  0.13710542300E+03  0.00000000000E+00 0. -1.
          6    1    1    2  501    0 -0.61779999854E+02  0.68372356644E+02  0.26663333484E+03  0.33092881831E+03  0.17300000000E+03 0. -1.
         -6    1    1    2    0  503  0.61779999854E+02 -0.68372356644E+02 -0.13443303601E+02  0.19647205895E+03  0.17300000000E+03 0. -1.
<mgrwt>
<rscale>  2 0.19601160E+03</rscale>
<asrwt>0</asrwt>
<pdfrwt beam="1">  1       21 0.60045454E-01 0.19601160E+03</pdfrwt>
<pdfrwt beam="2">  1       21 0.21093142E-01 0.19601160E+03</pdfrwt>
<totfact> 0.53966101E+04</totfact>
</mgrwt>
</event>
<event>
 4    2  0.3972096E+000  0.1875995E+03  0.7546771E-02  0.1160644E+00
         21   -1    0    0  501  502  0.00000000000E+00  0.00000000000E+00  0.10857163095E+03  0.10857163095E+03  0.00000000000E+00 0.  1.
         21   -1    0    0  502  503 -0.00000000000E+00 -0.00000000000E+00 -0.37808022821E+03  0.37808022821E+03  0.00000000000E+00 0.  1.
          6    1    1    2  501    0  0.72215632655E+02 -0.70345496955E+01 -0.42855621092E+02  0.19243229133E+03  0.17300000000E+03 0.  1.
         -6    1    1    2    0  503 -0.72215632655E+02  0.70345496955E+01 -0.22665297617E+03  0.29421956783E+03  0.17300000000E+03 0.  1.
<mgrwt>
<rscale>  2 0.18759953E+03</rscale>
<asrwt>0</asrwt>
<pdfrwt beam="1">  1       21 0.16703328E-01 0.18759953E+03</pdfrwt>
<pdfrwt beam="2">  1       21 0.58166189E-01 0.18759953E+03</pdfrwt>
<totfact> 0.89415378E+04</totfact>
</mgrwt>
</event>
<event>
 4    2  0.3972096E+000  0.2058255E+03  0.7546771E-02  0.1144915E+00
         21   -1    0    0  501  502  0.00000000000E+00  0.00000000000E+00  0.76360127725E+03  0.76360127725E+03  0.00000000000E+00 0.  1.
         21   -1    0    0  502  503 -0.00000000000E+00 -0.00000000000E+00 -0.67563262988E+03  0.67563262988E+03  0.00000000000E+00 0.  1.
          6    1    1    2  501    0  0.83103920716E+02  0.74356381305E+02  0.73342291118E+03  0.76175671951E+03  0.17300000000E+03 0.  1.
         -6    1    1    2    0  503 -0.83103920716E+02 -0.74356381305E+02 -0.64545426380E+03  0.67747718762E+03  0.17300000000E+03 0.  1.
<mgrwt>
<rscale>  2 0.20582549E+03</rscale>
<asrwt>0</asrwt>
<pdfrwt beam="1">  1       21 0.11747712E+00 0.20582549E+03</pdfrwt>
<pdfrwt beam="2">  1       21 0.10394348E+00 0.20582549E+03</pdfrwt>
<totfact> 0.41045216E+02</totfact>
</mgrwt>
</event>
<event>
 4    2  0.3972096E+000  0.1904160E+03  0.7546771E-02  0.1158087E+00
         21   -1    0    0  503  502  0.00000000000E+00  0.00000000000E+00  0.40052226791E+03  0.40052226791E+03  0.00000000000E+00 0.  1.
         21   -1    0    0  501  503 -0.00000000000E+00 -0.00000000000E+00 -0.10026381344E+03  0.10026381344E+03  0.00000000000E+00 0. -1.
          6    1    1    2  501    0  0.10007371931E+01 -0.79550248008E+02  0.22815703989E+03  0.29717651032E+03  0.17300000000E+03 0.  1.
         -6    1    1    2    0  502 -0.10007371931E+01  0.79550248008E+02  0.72101414571E+02  0.20360957103E+03  0.17300000000E+03 0. -1.
<mgrwt>
<rscale>  2 0.19041597E+03</rscale>
<asrwt>0</asrwt>
<pdfrwt beam="1">  1       21 0.61618810E-01 0.19041597E+03</pdfrwt>
<pdfrwt beam="2">  1       21 0.15425202E-01 0.19041597E+03</pdfrwt>
<totfact> 0.91303069E+04</totfact>
</mgrwt>
</event>
<event>
 4    2  0.3972096E+000  0.2073028E+03  0.7546771E-02  0.1143720E+00
         21   -1    0    0  501  502  0.00000000000E+00  0.00000000000E+00  0.57920747188E+03  0.57920747188E+03  0.00000000000E+00 0.  1.
         21   -1    0    0  502  503 -0.00000000000E+00 -0.00000000000E+00 -0.10037449341E+03  0.10037449341E+03  0.00000000000E+00 0.  1.
          6    1    1    2  501    0 -0.49177314390E+02 -0.10308759602E+03  0.41294804516E+03  0.46206119584E+03  0.17300000000E+03 0.  1.
         -6    1    1    2    0  503  0.49177314390E+02  0.10308759602E+03  0.65884933318E+02  0.21752076945E+03  0.17300000000E+03 0.  1.
<mgrwt>
<rscale>  2 0.20730282E+03</rscale>
<asrwt>0</asrwt>
<pdfrwt beam="1">  1       21 0.89108839E-01 0.20730282E+03</pdfrwt>
<pdfrwt beam="2">  1       21 0.15442230E-01 0.20730282E+03</pdfrwt>
<totfact> 0.39687083E+04</totfact>
</mgrwt>
</event>
<event>
 4    2  0.3972096E+000  0.2192008E+03  0.7546771E-02  0.1134480E+00
         21   -1    0    0  501  502  0.00000000000E+00  0.00000000000E+00  0.23514134648E+03  0.23514134648E+03  0.00000000000E+00 0.  1.
         21   -1    0    0  502  503 -0.00000000000E+00 -0.00000000000E+00 -0.10693014222E+04  0.10693014222E+04  0.00000000000E+00 0.  1.
          6    1    1    2  501    0 -0.86433149059E+02 -0.10319548491E+03  0.16952137083E+03  0.27710375770E+03  0.17300000000E+03 0.  1.
         -6    1    1    2    0  503  0.86433149059E+02  0.10319548491E+03 -0.10036814465E+04  0.10273390110E+04  0.17300000000E+03 0.  1.
<mgrwt>
<rscale>  2 0.21920082E+03</rscale>
<asrwt>0</asrwt>
<pdfrwt beam="1">  1       21 0.36175592E-01 0.21920082E+03</pdfrwt>
<pdfrwt beam="2">  1       21 0.16450791E+00 0.21920082E+03</pdfrwt>
<totfact> 0.16769869E+03</totfact>
</mgrwt>
</event>
<event>
 4    2  0.3972096E+000  0.2335869E+03  0.7546771E-02  0.1124140E+00
         21   -1    0    0  501  502  0.00000000000E+00  0.00000000000E+00  0.58299915798E+03  0.58299915798E+03  0.00000000000E+00 0.  1.
         21   -1    0    0  502  503 -0.00000000000E+00 -0.00000000000E+00 -0.45487718222E+03  0.45487718222E+03  0.00000000000E+00 0. -1.
          6    1    1    2  501    0 -0.15687648321E+03  0.48593898187E+01  0.52654302034E+03  0.57602985767E+03  0.17300000000E+03 0.  1.
         -6    1    1    2    0  503  0.15687648321E+03 -0.48593898187E+01 -0.39842104459E+03  0.46184648253E+03  0.17300000000E+03 0. -1.
<mgrwt>
<rscale>  2 0.23358691E+03</rscale>
<asrwt>0</asrwt>
<pdfrwt beam="1">  1       21 0.89692179E-01 0.23358691E+03</pdfrwt>
<pdfrwt beam="2">  1       21 0.69981104E-01 0.23358691E+03</pdfrwt>
<totfact> 0.18959632E+03</totfact>
</mgrwt>
</event>
<event>
 4    2  0.3972096E+000  0.2649894E+03  0.7546771E-02  0.1104182E+00
         21   -1    0    0  501  502  0.00000000000E+00  0.00000000000E+00  0.45372033185E+03  0.45372033185E+03  0.00000000000E+00 0. -1.
         21   -1    0    0  502  503 -0.00000000000E+00 -0.00000000000E+00 -0.38879143643E+03  0.38879143643E+03  0.00000000000E+00 0. -1.
          6    1    1    2  501    0 -0.16105118555E+03 -0.11980361183E+03  0.35929405957E+03  0.44644328981E+03  0.17300000000E+03 0. -1.
         -6    1    1    2    0  503  0.16105118555E+03  0.11980361183E+03 -0.29436516414E+03  0.39606847847E+03  0.17300000000E+03 0. -1.
<mgrwt>
<rscale>  2 0.26498941E+03</rscale>
<asrwt>0</asrwt>
<pdfrwt beam="1">  1       21 0.69803128E-01 0.26498941E+03</pdfrwt>
<pdfrwt beam="2">  1       21 0.59814067E-01 0.26498941E+03</pdfrwt>
<totfact> 0.46272248E+03</totfact>
</mgrwt>
</event>
