<event>
 4    1  0.5015492E-001  0.9194089E+02  0.7546771E-02  0.1298218E+00
          1   -1    0    0  501    0  0.00000000000E+00  0.00000000000E+00  0.44615941035E+03  0.44615941035E+03  0.00000000000E+00 0. -1.
         -1   -1    0    0    0  501 -0.00000000000E+00 -0.00000000000E+00 -0.19498619054E+02  0.19498619054E+02  0.00000000000E+00 0.  1.
         24    1    1    2    0    0  0.13892588943E+02  0.42342737519E+02  0.17414902460E+03  0.19692894701E+03  0.80419002446E+02 0. -1.
        -24    1    1    2    0    0 -0.13892588943E+02 -0.42342737519E+02  0.25251176670E+03  0.26872908239E+03  0.80419002446E+02 0.  0.
<mgrwt>
<rscale>  0 0.91940891E+02</rscale>
<asrwt>0</asrwt>
<pdfrwt beam="1">  1        1 0.68639902E-01 0.91940891E+02</pdfrwt>
<pdfrwt beam="2">  1       -1 0.29997879E-02 0.91940891E+02</pdfrwt>
<totfact> 0.17976557E+04</totfact>
</mgrwt>
</event>
<event>
 4    1  0.5015492E-001  0.9554984E+02  0.7546771E-02  0.1289943E+00
         -2   -1    0    0    0  501 -0.00000000000E+00  0.00000000000E+00  0.17871780311E+02  0.17871780311E+02  0.00000000000E+00 0.  1.
          2   -1    0    0  501    0  0.00000000000E+00 -0.00000000000E+00 -0.91083999969E+03  0.91083999969E+03  0.00000000000E+00 0. -1.
         24    1    1    2    0    0 -0.36251090337E+02 -0.36720750462E+02 -0.75420382872E+03  0.76023232388E+03  0.80419002446E+02 0. -1.
        -24    1    1    2    0    0  0.36251090337E+02  0.36720750462E+02 -0.13876439066E+03  0.16847945612E+03  0.80419002446E+02 0.  1.
<mgrwt>
<rscale>  0 0.95549835E+02</rscale>
<asrwt>0</asrwt>
<pdfrwt beam="1">  1        2 0.14012921E+00 0.95549835E+02</pdfrwt>
<pdfrwt beam="2">  1       -2 0.27495051E-02 0.95549835E+02</pdfrwt>
<totfact> 0.13467042E+04</totfact>
</mgrwt>
</event>
<event>
 4    1  0.5015492E-001  0.8099314E+02  0.7546771E-02  0.1326256E+00
         -1   -1    0    0    0  501 -0.00000000000E+00  0.00000000000E+00  0.30091749448E+02  0.30091749448E+02  0.00000000000E+00 0.  1.
          1   -1    0    0  501    0  0.00000000000E+00 -0.00000000000E+00 -0.21610569242E+04  0.21610569242E+04  0.00000000000E+00 0. -1.
         24    1    1    2    0    0  0.79641392065E+01  0.54078920998E+01 -0.26634780063E+02  0.85260191612E+02  0.80419002446E+02 0.  1.
        -24    1    1    2    0    0 -0.79641392065E+01 -0.54078920998E+01 -0.21043303946E+04  0.21058884820E+04  0.80419002446E+02 0. -1.
<mgrwt>
<rscale>  0 0.80993140E+02</rscale>
<asrwt>0</asrwt>
<pdfrwt beam="1">  1        1 0.33247033E+00 0.80993140E+02</pdfrwt>
<pdfrwt beam="2">  1       -1 0.46294994E-02 0.80993140E+02</pdfrwt>
<totfact> 0.54758181E+02</totfact>
</mgrwt>
</event>
<event>
 4    1  0.5015492E-001  0.8722946E+02  0.7546771E-02  0.1309703E+00
          2   -1    0    0  501    0  0.00000000000E+00  0.00000000000E+00  0.10897370879E+04  0.10897370879E+04  0.00000000000E+00 0. -1.
         -2   -1    0    0    0  501 -0.00000000000E+00 -0.00000000000E+00 -0.71559095638E+01  0.71559095638E+01  0.00000000000E+00 0.  1.
         24    1    1    2    0    0 -0.24478766659E+02  0.23292678273E+02  0.45588824958E+03  0.46415845456E+03  0.80419002446E+02 0. -1.
        -24    1    1    2    0    0  0.24478766659E+02 -0.23292678273E+02  0.62669292872E+03  0.63273454287E+03  0.80419002446E+02 0.  0.
<mgrwt>
<rscale>  0 0.87229449E+02</rscale>
<asrwt>0</asrwt>
<pdfrwt beam="1">  1        2 0.16765173E+00 0.87229460E+02</pdfrwt>
<pdfrwt beam="2">  1       -2 0.11009100E-02 0.87229460E+02</pdfrwt>
<totfact> 0.38908211E+04</totfact>
</mgrwt>
</event>
<event>
 4    1  0.5015492E-001  0.8990296E+02  0.7546771E-02  0.1303087E+00
          2   -1    0    0  501    0  0.00000000000E+00  0.00000000000E+00  0.10816865660E+04  0.10816865660E+04  0.00000000000E+00 0. -1.
         -2   -1    0    0    0  501 -0.00000000000E+00 -0.00000000000E+00 -0.13392990786E+02  0.13392990786E+02  0.00000000000E+00 0.  1.
         24    1    1    2    0    0 -0.28765554475E+02 -0.28069009105E+02  0.89820260008E+03  0.90269067412E+03  0.80419002446E+02 0. -1.
        -24    1    1    2    0    0  0.28765554475E+02  0.28069009105E+02  0.17009097511E+03  0.19238888265E+03  0.80419002446E+02 0.  1.
<mgrwt>
<rscale>  0 0.89902961E+02</rscale>
<asrwt>0</asrwt>
<pdfrwt beam="1">  1        2 0.16641325E+00 0.89902961E+02</pdfrwt>
<pdfrwt beam="2">  1       -2 0.20604610E-02 0.89902961E+02</pdfrwt>
<totfact> 0.16129024E+04</totfact>
</mgrwt>
</event>
<event>
 4    1  0.5015492E-001  0.9492354E+02  0.7546771E-02  0.1291348E+00
          2   -1    0    0  501    0  0.00000000000E+00  0.00000000000E+00  0.47764298062E+04  0.47764298062E+04  0.00000000000E+00 0. -1.
         -2   -1    0    0    0  501 -0.00000000000E+00 -0.00000000000E+00 -0.47896017094E+01  0.47896017094E+01  0.00000000000E+00 0.  1.
         24    1    1    2    0    0 -0.42266820987E+02 -0.27509616991E+02  0.42470246619E+04  0.42480853284E+04  0.80419002446E+02 0.  0.
        -24    1    1    2    0    0  0.42266820987E+02  0.27509616991E+02  0.52461554264E+03  0.53313407949E+03  0.80419002446E+02 0.  0.
<mgrwt>
<rscale>  0 0.94923544E+02</rscale>
<asrwt>0</asrwt>
<pdfrwt beam="1">  1        2 0.73483154E+00 0.94923544E+02</pdfrwt>
<pdfrwt beam="2">  1       -2 0.73686562E-03 0.94923544E+02</pdfrwt>
<totfact> 0.33392345E+02</totfact>
</mgrwt>
</event>
<event>
 4    1  0.5015492E-001  0.8341289E+02  0.7546771E-02  0.1319636E+00
          1   -1    0    0  501    0  0.00000000000E+00  0.00000000000E+00  0.27665186895E+04  0.27665186895E+04  0.00000000000E+00 0. -1.
         -1   -1    0    0    0  501 -0.00000000000E+00 -0.00000000000E+00 -0.25877716456E+01  0.25877716456E+01  0.00000000000E+00 0.  1.
         24    1    1    2    0    0  0.17735027440E+02  0.13265104077E+02  0.11497352263E+04  0.11527570433E+04  0.80419002446E+02 0.  0.
        -24    1    1    2    0    0 -0.17735027440E+02 -0.13265104077E+02  0.16141956915E+04  0.16163494178E+04  0.80419002446E+02 0.  1.
<mgrwt>
<rscale>  0 0.83412890E+02</rscale>
<asrwt>0</asrwt>
<pdfrwt beam="1">  1        1 0.42561590E+00 0.83412890E+02</pdfrwt>
<pdfrwt beam="2">  1       -1 0.39812093E-03 0.83412890E+02</pdfrwt>
<totfact> 0.72370563E+03</totfact>
</mgrwt>
</event>
<event>
 4    1  0.5015492E-001  0.1096680E+03  0.7546771E-02  0.1261186E+00
         -1   -1    0    0    0  501 -0.00000000000E+00  0.00000000000E+00  0.28031878018E+03  0.28031878018E+03  0.00000000000E+00 0.  1.
          1   -1    0    0  501    0  0.00000000000E+00 -0.00000000000E+00 -0.22302251345E+03  0.22302251345E+03  0.00000000000E+00 0. -1.
         24    1    1    2    0    0  0.46322628640E+02  0.58429991153E+02  0.25481877664E+03  0.27741606780E+03  0.80419002446E+02 0.  1.
        -24    1    1    2    0    0 -0.46322628640E+02 -0.58429991153E+02 -0.19752250991E+03  0.22592522583E+03  0.80419002446E+02 0. -1.
<mgrwt>
<rscale>  0 0.10966798E+03</rscale>
<asrwt>0</asrwt>
<pdfrwt beam="1">  1        1 0.34311156E-01 0.10966798E+03</pdfrwt>
<pdfrwt beam="2">  1       -1 0.43125966E-01 0.10966798E+03</pdfrwt>
<totfact> 0.68641361E+02</totfact>
</mgrwt>
</event>
<event>
 4    1  0.5015492E-001  0.9737402E+02  0.7546771E-02  0.1285917E+00
          1   -1    0    0  501    0  0.00000000000E+00  0.00000000000E+00  0.10157695621E+04  0.10157695621E+04  0.00000000000E+00 0. -1.
         -1   -1    0    0    0  501 -0.00000000000E+00 -0.00000000000E+00 -0.19302706758E+02  0.19302706758E+02  0.00000000000E+00 0.  1.
         24    1    1    2    0    0  0.54235119557E+02 -0.85461000250E+01  0.12632149617E+03  0.15949551833E+03  0.80419002446E+02 0.  1.
        -24    1    1    2    0    0 -0.54235119557E+02  0.85461000250E+01  0.87014535916E+03  0.87557675051E+03  0.80419002446E+02 0. -1.
<mgrwt>
<rscale>  0 0.97374021E+02</rscale>
<asrwt>0</asrwt>
<pdfrwt beam="1">  1        1 0.15627220E+00 0.97374021E+02</pdfrwt>
<pdfrwt beam="2">  1       -1 0.29696480E-02 0.97374021E+02</pdfrwt>
<totfact> 0.57139909E+03</totfact>
</mgrwt>
</event>
<event>
 4    1  0.5015492E-001  0.9616881E+02  0.7546771E-02  0.1288565E+00
         -2   -1    0    0    0  501 -0.00000000000E+00  0.00000000000E+00  0.18290931171E+02  0.18290931171E+02  0.00000000000E+00 0.  1.
          2   -1    0    0  501    0  0.00000000000E+00 -0.00000000000E+00 -0.14703161996E+04  0.14703161996E+04  0.00000000000E+00 0. -1.
         24    1    1    2    0    0 -0.30148538269E+02  0.43269967586E+02 -0.13289022443E+04  0.13323774298E+04  0.80419002446E+02 0. -1.
        -24    1    1    2    0    0  0.30148538269E+02 -0.43269967586E+02 -0.12312302412E+03  0.15622970101E+03  0.80419002446E+02 0.  1.
<mgrwt>
<rscale>  0 0.96168812E+02</rscale>
<asrwt>0</asrwt>
<pdfrwt beam="1">  1        2 0.22620257E+00 0.96168812E+02</pdfrwt>
<pdfrwt beam="2">  1       -2 0.28139885E-02 0.96168812E+02</pdfrwt>
<totfact> 0.63947253E+03</totfact>
</mgrwt>
</event>
<event>
 4    1  0.5015492E-001  0.8253908E+02  0.7546771E-02  0.1321997E+00
         -2   -1    0    0    0  501 -0.00000000000E+00  0.00000000000E+00  0.38920460641E+02  0.38920460641E+02  0.00000000000E+00 0.  1.
          2   -1    0    0  501    0  0.00000000000E+00 -0.00000000000E+00 -0.32763834465E+03  0.32763834465E+03  0.00000000000E+00 0. -1.
         24    1    1    2    0    0 -0.44865495579E+01 -0.18037573402E+02 -0.26943925358E+03  0.28179817335E+03  0.80419002446E+02 0.  0.
        -24    1    1    2    0    0  0.44865495579E+01  0.18037573402E+02 -0.19278630430E+02  0.84760631940E+02  0.80419002446E+02 0.  1.
<mgrwt>
<rscale>  0 0.82539076E+02</rscale>
<asrwt>0</asrwt>
<pdfrwt beam="1">  1        2 0.50405900E-01 0.82539076E+02</pdfrwt>
<pdfrwt beam="2">  1       -2 0.59877631E-02 0.82539076E+02</pdfrwt>
<totfact> 0.13283169E+04</totfact>
</mgrwt>
</event>
<event>
 4    1  0.5015492E-001  0.8144524E+02  0.7546771E-02  0.1324999E+00
          2   -1    0    0  501    0  0.00000000000E+00  0.00000000000E+00  0.79096943409E+03  0.79096943409E+03  0.00000000000E+00 0. -1.
         -2   -1    0    0    0  501 -0.00000000000E+00 -0.00000000000E+00 -0.89000532127E+01  0.89000532127E+01  0.00000000000E+00 0.  1.
         24    1    1    2    0    0  0.60261724046E+01 -0.11392842514E+02  0.48712046555E+03  0.49388224865E+03  0.80419002446E+02 0.  0.
        -24    1    1    2    0    0 -0.60261724046E+01  0.11392842514E+02  0.29494891533E+03  0.30598723866E+03  0.80419002446E+02 0.  0.
<mgrwt>
<rscale>  0 0.81445243E+02</rscale>
<asrwt>0</asrwt>
<pdfrwt beam="1">  1        2 0.12168755E+00 0.81445243E+02</pdfrwt>
<pdfrwt beam="2">  1       -2 0.13692396E-02 0.81445243E+02</pdfrwt>
<totfact> 0.43009820E+04</totfact>
</mgrwt>
</event>
<event>
 4    1  0.5015492E-001  0.8843280E+02  0.7546771E-02  0.1306692E+00
          1   -1    0    0  501    0  0.00000000000E+00  0.00000000000E+00  0.57295616634E+02  0.57295616634E+02  0.00000000000E+00 0. -1.
         -1   -1    0    0    0  501 -0.00000000000E+00 -0.00000000000E+00 -0.13718103145E+03  0.13718103145E+03  0.00000000000E+00 0.  1.
         24    1    1    2    0    0 -0.30708925683E+02 -0.20251071155E+02 -0.46837057375E+02  0.10007032476E+03  0.80419002446E+02 0.  0.
        -24    1    1    2    0    0  0.30708925683E+02  0.20251071155E+02 -0.33048357439E+02  0.94406323323E+02  0.80419002446E+02 0. -1.
<mgrwt>
<rscale>  0 0.88432799E+02</rscale>
<asrwt>0</asrwt>
<pdfrwt beam="1">  1        1 0.88147103E-02 0.88432799E+02</pdfrwt>
<pdfrwt beam="2">  1       -1 0.21104774E-01 0.88432799E+02</pdfrwt>
<totfact> 0.12590840E+04</totfact>
</mgrwt>
</event>
<event>
 4    1  0.5015492E-001  0.9915715E+02  0.7546771E-02  0.1282078E+00
          2   -1    0    0  501    0  0.00000000000E+00  0.00000000000E+00  0.56227698245E+03  0.56227698245E+03  0.00000000000E+00 0. -1.
         -2   -1    0    0    0  501 -0.00000000000E+00 -0.00000000000E+00 -0.26226843315E+03  0.26226843315E+03  0.00000000000E+00 0.  1.
         24    1    1    2    0    0  0.57927971047E+02  0.30455035883E+01  0.54829614076E+03  0.55719009220E+03  0.80419002446E+02 0. -1.
        -24    1    1    2    0    0 -0.57927971047E+02 -0.30455035883E+01 -0.24828759146E+03  0.26735532339E+03  0.80419002446E+02 0.  1.
<mgrwt>
<rscale>  0 0.99157152E+02</rscale>
<asrwt>0</asrwt>
<pdfrwt beam="1">  1        2 0.86504151E-01 0.99157152E+02</pdfrwt>
<pdfrwt beam="2">  1       -2 0.40348990E-01 0.99157152E+02</pdfrwt>
<totfact> 0.32602920E+02</totfact>
</mgrwt>
</event>
<event>
 4    1  0.5015492E-001  0.1096077E+03  0.7546771E-02  0.1261298E+00
          2   -1    0    0  501    0  0.00000000000E+00  0.00000000000E+00  0.61577135398E+03  0.61577135398E+03  0.00000000000E+00 0. -1.
         -2   -1    0    0    0  501 -0.00000000000E+00 -0.00000000000E+00 -0.25260587701E+02  0.25260587701E+02  0.00000000000E+00 0.  1.
         24    1    1    2    0    0  0.61402763735E+02 -0.42146623929E+02  0.44817901806E+03  0.46138734864E+03  0.80419002446E+02 0. -1.
        -24    1    1    2    0    0 -0.61402763735E+02  0.42146623929E+02  0.14233174822E+03  0.17964459304E+03  0.80419002446E+02 0.  0.
<mgrwt>
<rscale>  0 0.10960772E+03</rscale>
<asrwt>0</asrwt>
<pdfrwt beam="1">  1        2 0.94734043E-01 0.10960772E+03</pdfrwt>
<pdfrwt beam="2">  1       -2 0.38862447E-02 0.10960772E+03</pdfrwt>
<totfact> 0.13142433E+04</totfact>
</mgrwt>
</event>
<event>
 4    1  0.5015492E-001  0.1037372E+03  0.7546771E-02  0.1272628E+00
         -1   -1    0    0    0  501 -0.00000000000E+00  0.00000000000E+00  0.35810281980E+03  0.35810281980E+03  0.00000000000E+00 0.  1.
          1   -1    0    0  501    0  0.00000000000E+00 -0.00000000000E+00 -0.12329206268E+03  0.12329206268E+03  0.00000000000E+00 0. -1.
         24    1    1    2    0    0 -0.65491714173E+02  0.22411619167E+01  0.32672365996E+03  0.34279695647E+03  0.80419002446E+02 0.  1.
        -24    1    1    2    0    0  0.65491714173E+02 -0.22411619167E+01 -0.91912902835E+02  0.13859792601E+03  0.80419002446E+02 0. -1.
<mgrwt>
<rscale>  0 0.10373718E+03</rscale>
<asrwt>0</asrwt>
<pdfrwt beam="1">  1        1 0.18968010E-01 0.10373718E+03</pdfrwt>
<pdfrwt beam="2">  1       -1 0.55092741E-01 0.10373718E+03</pdfrwt>
<totfact> 0.92177016E+02</totfact>
</mgrwt>
</event>
<event>
 4    1  0.5015492E-001  0.8980771E+02  0.7546771E-02  0.1303318E+00
          1   -1    0    0  501    0  0.00000000000E+00  0.00000000000E+00  0.94590778144E+03  0.94590778144E+03  0.00000000000E+00 0. -1.
         -1   -1    0    0    0  501 -0.00000000000E+00 -0.00000000000E+00 -0.22477611570E+02  0.22477611570E+02  0.00000000000E+00 0.  1.
         24    1    1    2    0    0 -0.24419636431E+02  0.31652642990E+02  0.80258402421E+02  0.12044432558E+03  0.80419002446E+02 0.  1.
        -24    1    1    2    0    0  0.24419636431E+02 -0.31652642990E+02  0.84317176745E+03  0.84794106743E+03  0.80419002446E+02 0. -1.
<mgrwt>
<rscale>  0 0.89807708E+02</rscale>
<asrwt>0</asrwt>
<pdfrwt beam="1">  1        1 0.14552424E+00 0.89807708E+02</pdfrwt>
<pdfrwt beam="2">  1       -1 0.34580948E-02 0.89807708E+02</pdfrwt>
<totfact> 0.51340599E+03</totfact>
</mgrwt>
</event>
<event>
 4    1  0.5015492E-001  0.8187257E+02  0.7546771E-02  0.1323820E+00
          2   -1    0    0  501    0  0.00000000000E+00  0.00000000000E+00  0.36863472476E+03  0.36863472476E+03  0.00000000000E+00 0. -1.
         -2   -1    0    0    0  501 -0.00000000000E+00 -0.00000000000E+00 -0.25308005540E+02  0.25308005540E+02  0.00000000000E+00 0.  1.
         24    1    1    2    0    0 -0.14635348436E+02 -0.46592936615E+01  0.27617085928E+03  0.28805114461E+03  0.80419002446E+02 0.  0.
        -24    1    1    2    0    0  0.14635348436E+02  0.46592936615E+01  0.67155859940E+02  0.10589158569E+03  0.80419002446E+02 0.  1.
<mgrwt>
<rscale>  0 0.81872574E+02</rscale>
<asrwt>0</asrwt>
<pdfrwt beam="1">  1        2 0.56713031E-01 0.81872574E+02</pdfrwt>
<pdfrwt beam="2">  1       -2 0.38935396E-02 0.81872574E+02</pdfrwt>
<totfact> 0.22183826E+04</totfact>
</mgrwt>
</event>
<event>
 4    1  0.5015492E-001  0.9017609E+02  0.7546771E-02  0.1302426E+00
          3   -1    0    0  501    0  0.00000000000E+00  0.00000000000E+00  0.10879679479E+04  0.10879679479E+04  0.00000000000E+00 0. -1.
         -3   -1    0    0    0  501 -0.00000000000E+00 -0.00000000000E+00 -0.15346970484E+02  0.15346970484E+02  0.00000000000E+00 0.  1.
         24    1    1    2    0    0 -0.16076619534E+02 -0.37497368791E+02  0.14119774130E+03  0.16753664812E+03  0.80419002446E+02 0.  1.
        -24    1    1    2    0    0  0.16076619534E+02  0.37497368791E+02  0.93142323614E+03  0.93577827028E+03  0.80419002446E+02 0. -1.
<mgrwt>
<rscale>  0 0.90176085E+02</rscale>
<asrwt>0</asrwt>
<pdfrwt beam="1">  1        3 0.16737962E+00 0.90176085E+02</pdfrwt>
<pdfrwt beam="2">  1       -3 0.23610733E-02 0.90176085E+02</pdfrwt>
<totfact> 0.42110455E+02</totfact>
</mgrwt>
</event>
<event>
 4    1  0.5015492E-001  0.8551955E+02  0.7546771E-02  0.1314079E+00
         -3   -1    0    0    0  501 -0.00000000000E+00  0.00000000000E+00  0.56241199246E+03  0.56241199246E+03  0.00000000000E+00 0.  1.
          3   -1    0    0  501    0  0.00000000000E+00 -0.00000000000E+00 -0.70584122011E+02  0.70584122011E+02  0.00000000000E+00 0. -1.
         24    1    1    2    0    0  0.10194595060E+02  0.27247893914E+02  0.53177427898E+03  0.53860697844E+03  0.80419002446E+02 0.  1.
        -24    1    1    2    0    0 -0.10194595060E+02 -0.27247893914E+02 -0.39946408530E+02  0.94389136027E+02  0.80419002446E+02 0. -1.
<mgrwt>
<rscale>  0 0.85519550E+02</rscale>
<asrwt>0</asrwt>
<pdfrwt beam="1">  1        3 0.10859096E-01 0.85519550E+02</pdfrwt>
<pdfrwt beam="2">  1       -3 0.86524919E-01 0.85519550E+02</pdfrwt>
<totfact> 0.17714295E+02</totfact>
</mgrwt>
</event>
<event>
 4    1  0.5015492E-001  0.9182098E+02  0.7546771E-02  0.1298501E+00
         -4   -1    0    0    0  501 -0.00000000000E+00  0.00000000000E+00  0.22329363025E+03  0.22329363025E+03  0.00000000000E+00 0.  1.
          4   -1    0    0  501    0  0.00000000000E+00 -0.00000000000E+00 -0.37757892609E+02  0.37757892609E+02  0.00000000000E+00 0. -1.
         24    1    1    2    0    0 -0.33643152574E+02  0.28844576914E+02  0.92907326521E+02  0.13062487745E+03  0.80419002446E+02 0.  0.
        -24    1    1    2    0    0  0.33643152574E+02 -0.28844576914E+02  0.92628411123E+02  0.13042664541E+03  0.80419002446E+02 0.  1.
<mgrwt>
<rscale>  0 0.91820964E+02</rscale>
<asrwt>0</asrwt>
<pdfrwt beam="1">  1        4 0.58089067E-02 0.91820975E+02</pdfrwt>
<pdfrwt beam="2">  1       -4 0.34352865E-01 0.91820975E+02</pdfrwt>
<totfact> 0.22877367E+03</totfact>
</mgrwt>
</event>
<event>
 4    1  0.5015492E-001  0.8613850E+02  0.7546771E-02  0.1312482E+00
         -2   -1    0    0    0  501 -0.00000000000E+00  0.00000000000E+00  0.36186121286E+02  0.36186121286E+02  0.00000000000E+00 0.  1.
          2   -1    0    0  501    0  0.00000000000E+00 -0.00000000000E+00 -0.21045027948E+03  0.21045027948E+03  0.00000000000E+00 0. -1.
         24    1    1    2    0    0 -0.21806346543E+02  0.21842812134E+02 -0.10689254616E+03  0.13728021551E+03  0.80419002446E+02 0. -1.
        -24    1    1    2    0    0  0.21806346543E+02 -0.21842812134E+02 -0.67371612035E+02  0.10935618526E+03  0.80419002446E+02 0.  1.
<mgrwt>
<rscale>  0 0.86138500E+02</rscale>
<asrwt>0</asrwt>
<pdfrwt beam="1">  1        2 0.32376967E-01 0.86138500E+02</pdfrwt>
<pdfrwt beam="2">  1       -2 0.55670955E-02 0.86138500E+02</pdfrwt>
<totfact> 0.23653318E+04</totfact>
</mgrwt>
</event>
<event>
 4    1  0.5015492E-001  0.9047846E+02  0.7546771E-02  0.1301697E+00
          2   -1    0    0  501    0  0.00000000000E+00  0.00000000000E+00  0.22478539788E+03  0.22478539788E+03  0.00000000000E+00 0. -1.
         -2   -1    0    0    0  501 -0.00000000000E+00 -0.00000000000E+00 -0.39952326542E+02  0.39952326542E+02  0.00000000000E+00 0.  1.
         24    1    1    2    0    0  0.24243011327E+02  0.33636475502E+02  0.13178387278E+03  0.15985412464E+03  0.80419002446E+02 0.  0.
        -24    1    1    2    0    0 -0.24243011327E+02 -0.33636475502E+02  0.53049198550E+02  0.10488359978E+03  0.80419002446E+02 0. -1.
<mgrwt>
<rscale>  0 0.90478462E+02</rscale>
<asrwt>0</asrwt>
<pdfrwt beam="1">  1        2 0.34582368E-01 0.90478462E+02</pdfrwt>
<pdfrwt beam="2">  1       -2 0.61465119E-02 0.90478462E+02</pdfrwt>
<totfact> 0.19125163E+04</totfact>
</mgrwt>
</event>
<event>
 4    1  0.5015492E-001  0.8379661E+02  0.7546771E-02  0.1318610E+00
         -1   -1    0    0    0  501 -0.00000000000E+00  0.00000000000E+00  0.46834317681E+01  0.46834317681E+01  0.00000000000E+00 0.  1.
          1   -1    0    0  501    0  0.00000000000E+00 -0.00000000000E+00 -0.21820164340E+04  0.21820164340E+04  0.00000000000E+00 0. -1.
         24    1    1    2    0    0  0.15207854511E+02 -0.17982695574E+02 -0.47709089168E+03  0.48439404523E+03  0.80419002446E+02 0.  1.
        -24    1    1    2    0    0 -0.15207854511E+02  0.17982695574E+02 -0.17002421105E+04  0.17023058205E+04  0.80419002446E+02 0. -1.
<mgrwt>
<rscale>  0 0.83796612E+02</rscale>
<asrwt>0</asrwt>
<pdfrwt beam="1">  1        1 0.33569481E+00 0.83796612E+02</pdfrwt>
<pdfrwt beam="2">  1       -1 0.72052802E-03 0.83796612E+02</pdfrwt>
<totfact> 0.74964050E+03</totfact>
</mgrwt>
</event>
<event>
 4    1  0.5015492E-001  0.8238282E+02  0.7546771E-02  0.1322422E+00
         -2   -1    0    0    0  501 -0.00000000000E+00  0.00000000000E+00  0.15856507471E+03  0.15856507471E+03  0.00000000000E+00 0.  1.
          2   -1    0    0  501    0  0.00000000000E+00 -0.00000000000E+00 -0.46080911741E+02  0.46080911741E+02  0.00000000000E+00 0. -1.
         24    1    1    2    0    0 -0.38874538732E+01 -0.17452824287E+02  0.28948137823E+02  0.87320810870E+02  0.80419002446E+02 0. -1.
        -24    1    1    2    0    0  0.38874538732E+01  0.17452824287E+02  0.83536025141E+02  0.11732517558E+03  0.80419002446E+02 0.  1.
<mgrwt>
<rscale>  0 0.82382822E+02</rscale>
<asrwt>0</asrwt>
<pdfrwt beam="1">  1        2 0.70893711E-02 0.82382822E+02</pdfrwt>
<pdfrwt beam="2">  1       -2 0.24394627E-01 0.82382822E+02</pdfrwt>
<totfact> 0.13056229E+04</totfact>
</mgrwt>
</event>
<event>
 4    1  0.5015492E-001  0.1027845E+03  0.7546771E-02  0.1274547E+00
          1   -1    0    0  501    0  0.00000000000E+00  0.00000000000E+00  0.44113340473E+03  0.44113340473E+03  0.00000000000E+00 0. -1.
         -1   -1    0    0    0  501 -0.00000000000E+00 -0.00000000000E+00 -0.42187380373E+02  0.42187380373E+02  0.00000000000E+00 0.  1.
         24    1    1    2    0    0  0.26074494125E+02 -0.58459899748E+02  0.40578590837E+02  0.11050464746E+03  0.80419002446E+02 0.  1.
        -24    1    1    2    0    0 -0.26074494125E+02  0.58459899748E+02  0.35836743352E+03  0.37281613764E+03  0.80419002446E+02 0. -1.
<mgrwt>
<rscale>  0 0.10278451E+03</rscale>
<asrwt>0</asrwt>
<pdfrwt beam="1">  1        1 0.67866675E-01 0.10278451E+03</pdfrwt>
<pdfrwt beam="2">  1       -1 0.64903665E-02 0.10278451E+03</pdfrwt>
<totfact> 0.59612113E+03</totfact>
</mgrwt>
</event>
<event>
 4    1  0.5015492E-001  0.1282201E+03  0.7546771E-02  0.1230121E+00
         -2   -1    0    0    0  501 -0.00000000000E+00  0.00000000000E+00  0.28292992981E+02  0.28292992981E+02  0.00000000000E+00 0.  1.
          2   -1    0    0  501    0  0.00000000000E+00 -0.00000000000E+00 -0.62808732910E+03  0.62808732910E+03  0.00000000000E+00 0. -1.
         24    1    1    2    0    0  0.43529840494E+02 -0.89879521459E+02 -0.21010988684E+03  0.24614336451E+03  0.80419002446E+02 0.  1.
        -24    1    1    2    0    0 -0.43529840494E+02  0.89879521459E+02 -0.38968444928E+03  0.41023695757E+03  0.80419002446E+02 0.  1.
<mgrwt>
<rscale>  0 0.12822011E+03</rscale>
<asrwt>0</asrwt>
<pdfrwt beam="1">  1        2 0.96628815E-01 0.12822012E+03</pdfrwt>
<pdfrwt beam="2">  1       -2 0.43527684E-02 0.12822012E+03</pdfrwt>
<totfact> 0.10986641E+04</totfact>
</mgrwt>
</event>
<event>
 4    1  0.5015492E-001  0.9245325E+02  0.7546771E-02  0.1297017E+00
         -2   -1    0    0    0  501 -0.00000000000E+00  0.00000000000E+00  0.34975755052E+02  0.34975755052E+02  0.00000000000E+00 0.  1.
          2   -1    0    0  501    0  0.00000000000E+00 -0.00000000000E+00 -0.98378070415E+03  0.98378070415E+03  0.00000000000E+00 0. -1.
         24    1    1    2    0    0  0.45365700386E+02 -0.47265853298E+01 -0.91600265524E+03  0.92065654169E+03  0.80419002446E+02 0. -1.
        -24    1    1    2    0    0 -0.45365700386E+02  0.47265853298E+01 -0.32802293856E+02  0.98099917518E+02  0.80419002446E+02 0.  1.
<mgrwt>
<rscale>  0 0.92453249E+02</rscale>
<asrwt>0</asrwt>
<pdfrwt beam="1">  1        2 0.15135089E+00 0.92453249E+02</pdfrwt>
<pdfrwt beam="2">  1       -2 0.53808848E-02 0.92453249E+02</pdfrwt>
<totfact> 0.45261757E+03</totfact>
</mgrwt>
</event>
<event>
 4    1  0.5015492E-001  0.9138866E+02  0.7546771E-02  0.1299523E+00
         -2   -1    0    0    0  501 -0.00000000000E+00  0.00000000000E+00  0.49872399387E+02  0.49872399387E+02  0.00000000000E+00 0.  1.
          2   -1    0    0  501    0  0.00000000000E+00 -0.00000000000E+00 -0.80963737892E+03  0.80963737892E+03  0.00000000000E+00 0. -1.
         24    1    1    2    0    0  0.37630595958E+02  0.21647388191E+02 -0.76262026044E+03  0.76807652533E+03  0.80419002446E+02 0. -1.
        -24    1    1    2    0    0 -0.37630595958E+02 -0.21647388191E+02  0.28552809048E+01  0.91433252983E+02  0.80419002446E+02 0.  1.
<mgrwt>
<rscale>  0 0.91388660E+02</rscale>
<asrwt>0</asrwt>
<pdfrwt beam="1">  1        2 0.12455959E+00 0.91388660E+02</pdfrwt>
<pdfrwt beam="2">  1       -2 0.76726770E-02 0.91388660E+02</pdfrwt>
<totfact> 0.34008860E+03</totfact>
</mgrwt>
</event>
<event>
 4    1  0.5015492E-001  0.9387014E+02  0.7546771E-02  0.1293741E+00
          1   -1    0    0  501    0  0.00000000000E+00  0.00000000000E+00  0.41549062209E+03  0.41549062209E+03  0.00000000000E+00 0. -1.
         -1   -1    0    0    0  501 -0.00000000000E+00 -0.00000000000E+00 -0.34622723867E+02  0.34622723867E+02  0.00000000000E+00 0.  1.
         24    1    1    2    0    0  0.12261961787E+02  0.46840485841E+02  0.50344020733E+02  0.10651818248E+03  0.80419002446E+02 0.  1.
        -24    1    1    2    0    0 -0.12261961787E+02 -0.46840485841E+02  0.33052387749E+03  0.34359516348E+03  0.80419002446E+02 0. -1.
<mgrwt>
<rscale>  0 0.93870138E+02</rscale>
<asrwt>0</asrwt>
<pdfrwt beam="1">  1        1 0.63921631E-01 0.93870138E+02</pdfrwt>
<pdfrwt beam="2">  1       -1 0.53265732E-02 0.93870138E+02</pdfrwt>
<totfact> 0.85474485E+03</totfact>
</mgrwt>
</event>
<event>
 4    1  0.5015492E-001  0.8928593E+02  0.7546771E-02  0.1304590E+00
         -2   -1    0    0    0  501 -0.00000000000E+00  0.00000000000E+00  0.53313564566E+01  0.53313564566E+01  0.00000000000E+00 0.  1.
          2   -1    0    0  501    0  0.00000000000E+00 -0.00000000000E+00 -0.17001933349E+04  0.17001933349E+04  0.00000000000E+00 0. -1.
         24    1    1    2    0    0  0.17263934577E+02 -0.34737845794E+02 -0.11434657940E+04  0.11469463803E+04  0.80419002446E+02 0. -1.
        -24    1    1    2    0    0 -0.17263934577E+02  0.34737845794E+02 -0.55139618444E+03  0.55857831101E+03  0.80419002446E+02 0.  1.
<mgrwt>
<rscale>  0 0.89285930E+02</rscale>
<asrwt>0</asrwt>
<pdfrwt beam="1">  1        2 0.26156828E+00 0.89285930E+02</pdfrwt>
<pdfrwt beam="2">  1       -2 0.82020846E-03 0.89285930E+02</pdfrwt>
<totfact> 0.28339005E+04</totfact>
</mgrwt>
</event>
<event>
 4    1  0.5015492E-001  0.8252987E+02  0.7546771E-02  0.1322022E+00
         -1   -1    0    0    0  501 -0.00000000000E+00  0.00000000000E+00  0.17738667504E+03  0.17738667504E+03  0.00000000000E+00 0.  1.
          1   -1    0    0  501    0  0.00000000000E+00 -0.00000000000E+00 -0.71928770428E+02  0.71928770428E+02  0.00000000000E+00 0. -1.
         24    1    1    2    0    0  0.57136640275E+01  0.17644203315E+02  0.13784153883E+03  0.16065948353E+03  0.80419002446E+02 0.  0.
        -24    1    1    2    0    0 -0.57136640275E+01 -0.17644203315E+02 -0.32383634218E+02  0.88655961936E+02  0.80419002446E+02 0. -1.
<mgrwt>
<rscale>  0 0.82529872E+02</rscale>
<asrwt>0</asrwt>
<pdfrwt beam="1">  1        1 0.11065965E-01 0.82529872E+02</pdfrwt>
<pdfrwt beam="2">  1       -1 0.27290258E-01 0.82529872E+02</pdfrwt>
<totfact> 0.61325991E+03</totfact>
</mgrwt>
</event>
<event>
 4    1  0.5015492E-001  0.8684176E+02  0.7546771E-02  0.1310685E+00
         -2   -1    0    0    0  501 -0.00000000000E+00  0.00000000000E+00  0.10270266499E+03  0.10270266499E+03  0.00000000000E+00 0.  1.
          2   -1    0    0  501    0  0.00000000000E+00 -0.00000000000E+00 -0.30668517294E+03  0.30668517294E+03  0.00000000000E+00 0. -1.
         24    1    1    2    0    0 -0.32421256735E+02 -0.48100522577E+01 -0.28050591388E+03  0.29364103624E+03  0.80419002446E+02 0. -1.
        -24    1    1    2    0    0  0.32421256735E+02  0.48100522577E+01  0.76523405925E+02  0.11574680168E+03  0.80419002446E+02 0.  1.
<mgrwt>
<rscale>  0 0.86841755E+02</rscale>
<asrwt>0</asrwt>
<pdfrwt beam="1">  1        2 0.47182334E-01 0.86841755E+02</pdfrwt>
<pdfrwt beam="2">  1       -2 0.15800410E-01 0.86841755E+02</pdfrwt>
<totfact> 0.31668966E+03</totfact>
</mgrwt>
</event>
<event>
 4    1  0.5015492E-001  0.9175771E+02  0.7546771E-02  0.1298650E+00
         -2   -1    0    0    0  501 -0.00000000000E+00  0.00000000000E+00  0.42613863534E+02  0.42613863534E+02  0.00000000000E+00 0.  1.
          2   -1    0    0  501    0  0.00000000000E+00 -0.00000000000E+00 -0.23460251134E+03  0.23460251134E+03  0.00000000000E+00 0. -1.
         24    1    1    2    0    0 -0.44184391193E+02  0.17335941830E-01 -0.15105974391E+03  0.17674423021E+03  0.80419002446E+02 0. -1.
        -24    1    1    2    0    0  0.44184391193E+02 -0.17335941830E-01 -0.40928903891E+02  0.10047214467E+03  0.80419002446E+02 0.  1.
<mgrwt>
<rscale>  0 0.91757706E+02</rscale>
<asrwt>0</asrwt>
<pdfrwt beam="1">  1        2 0.36092694E-01 0.91757706E+02</pdfrwt>
<pdfrwt beam="2">  1       -2 0.65559791E-02 0.91757706E+02</pdfrwt>
<totfact> 0.16613170E+04</totfact>
</mgrwt>
</event>
<event>
 4    1  0.5015492E-001  0.8090588E+02  0.7546771E-02  0.1326500E+00
          1   -1    0    0  501    0  0.00000000000E+00  0.00000000000E+00  0.37932722863E+03  0.37932722863E+03  0.00000000000E+00 0. -1.
         -1   -1    0    0    0  501 -0.00000000000E+00 -0.00000000000E+00 -0.19199641885E+02  0.19199641885E+02  0.00000000000E+00 0.  1.
         24    1    1    2    0    0  0.65386356267E+01 -0.59826561053E+01  0.11666772818E+03  0.14197577499E+03  0.80419002446E+02 0.  0.
        -24    1    1    2    0    0 -0.65386356267E+01  0.59826561053E+01  0.24345985856E+03  0.25655109552E+03  0.80419002446E+02 0. -1.
<mgrwt>
<rscale>  0 0.80905883E+02</rscale>
<asrwt>0</asrwt>
<pdfrwt beam="1">  1        1 0.58358029E-01 0.80905883E+02</pdfrwt>
<pdfrwt beam="2">  1       -1 0.29537913E-02 0.80905883E+02</pdfrwt>
<totfact> 0.22191421E+04</totfact>
</mgrwt>
</event>
<event>
 4    1  0.5015492E-001  0.8325190E+02  0.7546771E-02  0.1320068E+00
         -2   -1    0    0    0  501 -0.00000000000E+00  0.00000000000E+00  0.23732459131E+03  0.23732459131E+03  0.00000000000E+00 0.  1.
          2   -1    0    0  501    0  0.00000000000E+00 -0.00000000000E+00 -0.23151924661E+03  0.23151924661E+03  0.00000000000E+00 0. -1.
         24    1    1    2    0    0  0.30193396307E+01 -0.21320086394E+02 -0.21623585651E+03  0.23170848946E+03  0.80419002446E+02 0. -1.
        -24    1    1    2    0    0 -0.30193396307E+01  0.21320086394E+02  0.22204120121E+03  0.23713534845E+03  0.80419002446E+02 0.  1.
<mgrwt>
<rscale>  0 0.83251898E+02</rscale>
<asrwt>0</asrwt>
<pdfrwt beam="1">  1        2 0.35618346E-01 0.83251898E+02</pdfrwt>
<pdfrwt beam="2">  1       -2 0.36511476E-01 0.83251898E+02</pdfrwt>
<totfact> 0.10021447E+03</totfact>
</mgrwt>
</event>
<event>
 4    1  0.5015492E-001  0.8415903E+02  0.7546771E-02  0.1317647E+00
         -2   -1    0    0    0  501 -0.00000000000E+00  0.00000000000E+00  0.31248714179E+02  0.31248714179E+02  0.00000000000E+00 0.  1.
          2   -1    0    0  501    0  0.00000000000E+00 -0.00000000000E+00 -0.29196621230E+03  0.29196621230E+03  0.00000000000E+00 0. -1.
         24    1    1    2    0    0  0.83401365347E+01 -0.23365960443E+02 -0.20679196123E+03  0.22326140994E+03  0.80419002446E+02 0.  0.
        -24    1    1    2    0    0 -0.83401365347E+01  0.23365960443E+02 -0.53925536887E+02  0.99953516535E+02  0.80419002446E+02 0.  1.
<mgrwt>
<rscale>  0 0.84159028E+02</rscale>
<asrwt>0</asrwt>
<pdfrwt beam="1">  1        2 0.44917876E-01 0.84159028E+02</pdfrwt>
<pdfrwt beam="2">  1       -2 0.48074948E-02 0.84159028E+02</pdfrwt>
<totfact> 0.20803552E+04</totfact>
</mgrwt>
</event>
<event>
 4    1  0.5015492E-001  0.9054848E+02  0.7546771E-02  0.1301529E+00
          2   -1    0    0  501    0  0.00000000000E+00  0.00000000000E+00  0.24375027646E+02  0.24375027646E+02  0.00000000000E+00 0. -1.
         -2   -1    0    0    0  501 -0.00000000000E+00 -0.00000000000E+00 -0.65852113293E+03  0.65852113293E+03  0.00000000000E+00 0.  1.
         24    1    1    2    0    0  0.54293743048E+01  0.41259331516E+02 -0.78253603964E+02  0.11967728703E+03  0.80419002446E+02 0. -1.
        -24    1    1    2    0    0 -0.54293743048E+01 -0.41259331516E+02 -0.55589250132E+03  0.56321887355E+03  0.80419002446E+02 0.  1.
<mgrwt>
<rscale>  0 0.90548476E+02</rscale>
<asrwt>0</asrwt>
<pdfrwt beam="1">  1        2 0.37500048E-02 0.90548476E+02</pdfrwt>
<pdfrwt beam="2">  1       -2 0.10131093E+00 0.90548476E+02</pdfrwt>
<totfact> 0.17966465E+03</totfact>
</mgrwt>
</event>
<event>
 4    1  0.5015492E-001  0.9409355E+02  0.7546771E-02  0.1293231E+00
         -2   -1    0    0    0  501 -0.00000000000E+00  0.00000000000E+00  0.92519128748E+01  0.92519128748E+01  0.00000000000E+00 0.  1.
          2   -1    0    0  501    0  0.00000000000E+00 -0.00000000000E+00 -0.12010506472E+04  0.12010506472E+04  0.00000000000E+00 0. -1.
         24    1    1    2    0    0 -0.22243243652E+02 -0.43492745483E+02 -0.86871534782E+03  0.87379628764E+03  0.80419002446E+02 0. -1.
        -24    1    1    2    0    0  0.22243243652E+02  0.43492745483E+02 -0.32308338645E+03  0.33650627239E+03  0.80419002446E+02 0.  1.
<mgrwt>
<rscale>  0 0.94093553E+02</rscale>
<asrwt>0</asrwt>
<pdfrwt beam="1">  1        2 0.18477696E+00 0.94093553E+02</pdfrwt>
<pdfrwt beam="2">  1       -2 0.14233717E-02 0.94093553E+02</pdfrwt>
<totfact> 0.23605596E+04</totfact>
</mgrwt>
</event>
<event>
 4    1  0.5015492E-001  0.1198798E+03  0.7546771E-02  0.1243295E+00
         -1   -1    0    0    0  501 -0.00000000000E+00  0.00000000000E+00  0.10296148053E+02  0.10296148053E+02  0.00000000000E+00 0.  1.
          1   -1    0    0  501    0  0.00000000000E+00 -0.00000000000E+00 -0.15102657351E+04  0.15102657351E+04  0.00000000000E+00 0. -1.
         24    1    1    2    0    0  0.66055395199E+02  0.59503221376E+02 -0.95931013851E+03  0.96677148613E+03  0.80419002446E+02 0. -1.
        -24    1    1    2    0    0 -0.66055395199E+02 -0.59503221376E+02 -0.54065944852E+03  0.55379039701E+03  0.80419002446E+02 0.  1.
<mgrwt>
<rscale>  0 0.11987981E+03</rscale>
<asrwt>0</asrwt>
<pdfrwt beam="1">  1        1 0.23234843E+00 0.11987982E+03</pdfrwt>
<pdfrwt beam="2">  1       -1 0.15840238E-02 0.11987982E+03</pdfrwt>
<totfact> 0.66187179E+03</totfact>
</mgrwt>
</event>
<event>
 4    1  0.5015492E-001  0.8281341E+02  0.7546771E-02  0.1321252E+00
         -1   -1    0    0    0  501 -0.00000000000E+00  0.00000000000E+00  0.15747901637E+02  0.15747901637E+02  0.00000000000E+00 0.  1.
          1   -1    0    0  501    0  0.00000000000E+00 -0.00000000000E+00 -0.45349598818E+03  0.45349598818E+03  0.00000000000E+00 0. -1.
         24    1    1    2    0    0  0.14572660660E+02 -0.13359750264E+02 -0.17212372861E+03  0.19100952665E+03  0.80419002446E+02 0.  0.
        -24    1    1    2    0    0 -0.14572660660E+02  0.13359750264E+02 -0.26562435794E+03  0.27823436317E+03  0.80419002446E+02 0.  0.
<mgrwt>
<rscale>  0 0.82813413E+02</rscale>
<asrwt>0</asrwt>
<pdfrwt beam="1">  1        1 0.69768622E-01 0.82813413E+02</pdfrwt>
<pdfrwt beam="2">  1       -1 0.24227538E-02 0.82813413E+02</pdfrwt>
<totfact> 0.23665129E+04</totfact>
</mgrwt>
</event>
<event>
 4    1  0.5015492E-001  0.9310351E+02  0.7546771E-02  0.1295505E+00
          2   -1    0    0  501    0  0.00000000000E+00  0.00000000000E+00  0.83977767673E+01  0.83977767673E+01  0.00000000000E+00 0. -1.
         -2   -1    0    0    0  501 -0.00000000000E+00 -0.00000000000E+00 -0.10491923584E+04  0.10491923584E+04  0.00000000000E+00 0.  1.
         24    1    1    2    0    0 -0.41982362387E+02  0.20941066941E+02 -0.45312004168E+03  0.46258624619E+03  0.80419002446E+02 0.  1.
        -24    1    1    2    0    0  0.41982362387E+02 -0.20941066941E+02 -0.58767453990E+03  0.59500388893E+03  0.80419002446E+02 0. -1.
<mgrwt>
<rscale>  0 0.93103507E+02</rscale>
<asrwt>0</asrwt>
<pdfrwt beam="1">  1        2 0.12919667E-02 0.93103507E+02</pdfrwt>
<pdfrwt beam="2">  1       -2 0.16141408E+00 0.93103507E+02</pdfrwt>
<totfact> 0.24294419E+03</totfact>
</mgrwt>
</event>
<event>
 4    1  0.5015492E-001  0.1002371E+03  0.7546771E-02  0.1279798E+00
          2   -1    0    0  501    0  0.00000000000E+00  0.00000000000E+00  0.69723813860E+03  0.69723813860E+03  0.00000000000E+00 0. -1.
         -2   -1    0    0    0  501 -0.00000000000E+00 -0.00000000000E+00 -0.31190193439E+02  0.31190193439E+02  0.00000000000E+00 0.  1.
         24    1    1    2    0    0  0.24100700959E+02 -0.54766850269E+02  0.60016546198E+03  0.60847847076E+03  0.80419002446E+02 0. -1.
        -24    1    1    2    0    0 -0.24100700959E+02  0.54766850269E+02  0.65882483178E+02  0.11994986127E+03  0.80419002446E+02 0.  1.
<mgrwt>
<rscale>  0 0.10023706E+03</rscale>
<asrwt>0</asrwt>
<pdfrwt beam="1">  1        2 0.10726739E+00 0.10023706E+03</pdfrwt>
<pdfrwt beam="2">  1       -2 0.47984918E-02 0.10023706E+03</pdfrwt>
<totfact> 0.82802387E+03</totfact>
</mgrwt>
</event>
<event>
 4    1  0.5015492E-001  0.8220031E+02  0.7546771E-02  0.1322921E+00
          1   -1    0    0  501    0  0.00000000000E+00  0.00000000000E+00  0.32000718570E+02  0.32000718570E+02  0.00000000000E+00 0. -1.
         -1   -1    0    0    0  501 -0.00000000000E+00 -0.00000000000E+00 -0.34149640479E+03  0.34149640479E+03  0.00000000000E+00 0.  1.
         24    1    1    2    0    0 -0.42640908095E+01  0.16477038453E+02 -0.27012421444E+03  0.28235435617E+03  0.80419002446E+02 0.  1.
        -24    1    1    2    0    0  0.42640908095E+01 -0.16477038453E+02 -0.39371471780E+02  0.91142767190E+02  0.80419002446E+02 0.  1.
<mgrwt>
<rscale>  0 0.82200312E+02</rscale>
<asrwt>0</asrwt>
<pdfrwt beam="1">  1        1 0.49231876E-02 0.82200312E+02</pdfrwt>
<pdfrwt beam="2">  1       -1 0.52537907E-01 0.82200312E+02</pdfrwt>
<totfact> 0.58136235E+03</totfact>
</mgrwt>
</event>
<event>
 4    1  0.5015492E-001  0.9623919E+02  0.7546771E-02  0.1288409E+00
         -2   -1    0    0    0  501 -0.00000000000E+00  0.00000000000E+00  0.24638912209E+02  0.24638912209E+02  0.00000000000E+00 0.  1.
          2   -1    0    0  501    0  0.00000000000E+00 -0.00000000000E+00 -0.61750486054E+03  0.61750486054E+03  0.00000000000E+00 0. -1.
         24    1    1    2    0    0 -0.45091087416E+02  0.27596360274E+02 -0.49726229161E+03  0.50648965229E+03  0.80419002446E+02 0. -1.
        -24    1    1    2    0    0  0.45091087416E+02 -0.27596360274E+02 -0.95603656719E+02  0.13565412046E+03  0.80419002446E+02 0.  1.
<mgrwt>
<rscale>  0 0.96239188E+02</rscale>
<asrwt>0</asrwt>
<pdfrwt beam="1">  1        2 0.95000749E-01 0.96239188E+02</pdfrwt>
<pdfrwt beam="2">  1       -2 0.37906018E-02 0.96239188E+02</pdfrwt>
<totfact> 0.13447714E+04</totfact>
</mgrwt>
</event>
<event>
 4    1  0.5015492E-001  0.1210200E+03  0.7546771E-02  0.1241424E+00
          3   -1    0    0  501    0  0.00000000000E+00  0.00000000000E+00  0.20005954219E+03  0.20005954219E+03  0.00000000000E+00 0. -1.
         -3   -1    0    0    0  501 -0.00000000000E+00 -0.00000000000E+00 -0.10456458203E+03  0.10456458203E+03  0.00000000000E+00 0.  1.
         24    1    1    2    0    0 -0.71863379166E+02 -0.54902530940E+02 -0.35660990106E+02  0.12616479437E+03  0.80419002446E+02 0.  1.
        -24    1    1    2    0    0  0.71863379166E+02  0.54902530940E+02  0.13115595027E+03  0.17845932986E+03  0.80419002446E+02 0. -1.
<mgrwt>
<rscale>  0 0.12102004E+03</rscale>
<asrwt>0</asrwt>
<pdfrwt beam="1">  1        3 0.30778391E-01 0.12102004E+03</pdfrwt>
<pdfrwt beam="2">  1       -3 0.16086859E-01 0.12102004E+03</pdfrwt>
<totfact> 0.76405423E+02</totfact>
</mgrwt>
</event>
<event>
 4    1  0.5015492E-001  0.1444422E+03  0.7546771E-02  0.1207474E+00
          2   -1    0    0  501    0  0.00000000000E+00  0.00000000000E+00  0.80119015786E+03  0.80119015786E+03  0.00000000000E+00 0. -1.
         -2   -1    0    0    0  501 -0.00000000000E+00 -0.00000000000E+00 -0.27513277017E+02  0.27513277017E+02  0.00000000000E+00 0.  1.
         24    1    1    2    0    0  0.51228525469E+02 -0.10849861559E+03  0.29097751289E+03  0.32485603022E+03  0.80419002446E+02 0.  1.
        -24    1    1    2    0    0 -0.51228525469E+02  0.10849861559E+03  0.48269936795E+03  0.50384740466E+03  0.80419002446E+02 0. -1.
<mgrwt>
<rscale>  0 0.14444214E+03</rscale>
<asrwt>0</asrwt>
<pdfrwt beam="1">  1        2 0.12326001E+00 0.14444216E+03</pdfrwt>
<pdfrwt beam="2">  1       -2 0.42328125E-02 0.14444216E+03</pdfrwt>
<totfact> 0.86282991E+03</totfact>
</mgrwt>
</event>
<event>
 4    1  0.5015492E-001  0.8188537E+02  0.7546771E-02  0.1323785E+00
         -2   -1    0    0    0  501 -0.00000000000E+00  0.00000000000E+00  0.28963528396E+02  0.28963528396E+02  0.00000000000E+00 0.  1.
          2   -1    0    0  501    0  0.00000000000E+00 -0.00000000000E+00 -0.42802474093E+03  0.42802474093E+03  0.00000000000E+00 0. -1.
         24    1    1    2    0    0  0.13794380299E+02 -0.69073985787E+01 -0.35435638626E+03  0.36369446176E+03  0.80419002446E+02 0. -1.
        -24    1    1    2    0    0 -0.13794380299E+02  0.69073985787E+01 -0.44704826284E+02  0.93293807567E+02  0.80419002446E+02 0.  1.
<mgrwt>
<rscale>  0 0.81885365E+02</rscale>
<asrwt>0</asrwt>
<pdfrwt beam="1">  1        2 0.65849958E-01 0.81885365E+02</pdfrwt>
<pdfrwt beam="2">  1       -2 0.44559276E-02 0.81885365E+02</pdfrwt>
<totfact> 0.15558981E+04</totfact>
</mgrwt>
</event>
<event>
 4    1  0.5015492E-001  0.1235124E+03  0.7546771E-02  0.1237413E+00
          2   -1    0    0  501    0  0.00000000000E+00  0.00000000000E+00  0.88781164831E+02  0.88781164831E+02  0.00000000000E+00 0. -1.
         -2   -1    0    0    0  501 -0.00000000000E+00 -0.00000000000E+00 -0.19405361448E+03  0.19405361448E+03  0.00000000000E+00 0.  1.
         24    1    1    2    0    0 -0.90821219926E+02 -0.23229045077E+02 -0.10049327127E+03  0.15923000989E+03  0.80419002446E+02 0.  1.
        -24    1    1    2    0    0  0.90821219926E+02  0.23229045077E+02 -0.47791783797E+01  0.12360476942E+03  0.80419002446E+02 0. -1.
<mgrwt>
<rscale>  0 0.12351236E+03</rscale>
<asrwt>0</asrwt>
<pdfrwt beam="1">  1        2 0.13658641E-01 0.12351237E+03</pdfrwt>
<pdfrwt beam="2">  1       -2 0.29854402E-01 0.12351237E+03</pdfrwt>
<totfact> 0.42725562E+03</totfact>
</mgrwt>
</event>
<event>
 4    1  0.5015492E-001  0.8203714E+02  0.7546771E-02  0.1323368E+00
         -1   -1    0    0    0  501 -0.00000000000E+00  0.00000000000E+00  0.20861196121E+02  0.20861196121E+02  0.00000000000E+00 0.  1.
          1   -1    0    0  501    0  0.00000000000E+00 -0.00000000000E+00 -0.51810379939E+03  0.51810379939E+03  0.00000000000E+00 0. -1.
         24    1    1    2    0    0  0.15942744028E+02 -0.29505070590E+01 -0.83088004698E+02  0.11676347485E+03  0.80419002446E+02 0.  1.
        -24    1    1    2    0    0 -0.15942744028E+02  0.29505070590E+01 -0.41415459857E+03  0.42220152067E+03  0.80419002446E+02 0. -1.
<mgrwt>
<rscale>  0 0.82037141E+02</rscale>
<asrwt>0</asrwt>
<pdfrwt beam="1">  1        1 0.79708268E-01 0.82037141E+02</pdfrwt>
<pdfrwt beam="2">  1       -1 0.32094152E-02 0.82037141E+02</pdfrwt>
<totfact> 0.13335426E+04</totfact>
</mgrwt>
</event>
<event>
 4    1  0.5015492E-001  0.9781744E+02  0.7546771E-02  0.1284954E+00
          2   -1    0    0  501    0  0.00000000000E+00  0.00000000000E+00  0.69485293013E+02  0.69485293013E+02  0.00000000000E+00 0. -1.
         -2   -1    0    0    0  501 -0.00000000000E+00 -0.00000000000E+00 -0.13999591478E+03  0.13999591478E+03  0.00000000000E+00 0.  1.
         24    1    1    2    0    0  0.51383351669E+02  0.21465839725E+02 -0.48663461003E+02  0.10925373904E+03  0.80419002446E+02 0.  0.
        -24    1    1    2    0    0 -0.51383351669E+02 -0.21465839725E+02 -0.21847160762E+02  0.10022746875E+03  0.80419002446E+02 0.  0.
<mgrwt>
<rscale>  0 0.97817429E+02</rscale>
<asrwt>0</asrwt>
<pdfrwt beam="1">  1        2 0.10690045E-01 0.97817441E+02</pdfrwt>
<pdfrwt beam="2">  1       -2 0.21537833E-01 0.97817441E+02</pdfrwt>
<totfact> 0.99243054E+03</totfact>
</mgrwt>
</event>
<event>
 4    1  0.5015492E-001  0.8099650E+02  0.7546771E-02  0.1326247E+00
         -1   -1    0    0    0  501 -0.00000000000E+00  0.00000000000E+00  0.11278920645E+02  0.11278920645E+02  0.00000000000E+00 0.  1.
          1   -1    0    0  501    0  0.00000000000E+00 -0.00000000000E+00 -0.58206094948E+03  0.58206094948E+03  0.00000000000E+00 0. -1.
         24    1    1    2    0    0  0.63022665742E+01  0.73140861419E+01 -0.29323450068E+03  0.30421522441E+03  0.80419002446E+02 0.  0.
        -24    1    1    2    0    0 -0.63022665742E+01 -0.73140861419E+01 -0.27754752815E+03  0.28912464571E+03  0.80419002446E+02 0. -1.
<mgrwt>
<rscale>  0 0.80996494E+02</rscale>
<asrwt>0</asrwt>
<pdfrwt beam="1">  1        1 0.89547869E-01 0.80996504E+02</pdfrwt>
<pdfrwt beam="2">  1       -1 0.17352180E-02 0.80996504E+02</pdfrwt>
<totfact> 0.27528966E+04</totfact>
</mgrwt>
</event>
<event>
 4    1  0.5015492E-001  0.8306375E+02  0.7546771E-02  0.1320575E+00
          2   -1    0    0  501    0  0.00000000000E+00  0.00000000000E+00  0.20857326093E+04  0.20857326093E+04  0.00000000000E+00 0. -1.
         -2   -1    0    0    0  501 -0.00000000000E+00 -0.00000000000E+00 -0.35024884643E+01  0.35024884643E+01  0.00000000000E+00 0.  1.
         24    1    1    2    0    0  0.54403287712E+01 -0.20069195873E+02  0.12872795296E+04  0.12899566555E+04  0.80419002446E+02 0. -1.
        -24    1    1    2    0    0 -0.54403287712E+01  0.20069195873E+02  0.79495059126E+03  0.79927844228E+03  0.80419002446E+02 0.  1.
<mgrwt>
<rscale>  0 0.83063745E+02</rscale>
<asrwt>0</asrwt>
<pdfrwt beam="1">  1        2 0.32088095E+00 0.83063745E+02</pdfrwt>
<pdfrwt beam="2">  1       -2 0.53884605E-03 0.83063745E+02</pdfrwt>
<totfact> 0.32600262E+04</totfact>
</mgrwt>
</event>
<event>
 4    1  0.5015492E-001  0.9991913E+02  0.7546771E-02  0.1280466E+00
         -1   -1    0    0    0  501 -0.00000000000E+00  0.00000000000E+00  0.20653771501E+02  0.20653771501E+02  0.00000000000E+00 0.  1.
          1   -1    0    0  501    0  0.00000000000E+00 -0.00000000000E+00 -0.68923385409E+03  0.68923385409E+03  0.00000000000E+00 0. -1.
         24    1    1    2    0    0 -0.34965762287E+02 -0.47895841465E+02 -0.14031538969E+03  0.17225632267E+03  0.80419002446E+02 0. -1.
        -24    1    1    2    0    0  0.34965762287E+02  0.47895841465E+02 -0.52826469289E+03  0.53763130292E+03  0.80419002446E+02 0.  1.
<mgrwt>
<rscale>  0 0.99919128E+02</rscale>
<asrwt>0</asrwt>
<pdfrwt beam="1">  1        1 0.10603596E+00 0.99919128E+02</pdfrwt>
<pdfrwt beam="2">  1       -1 0.31775038E-02 0.99919128E+02</pdfrwt>
<totfact> 0.93773497E+03</totfact>
</mgrwt>
</event>
<event>
 4    1  0.5015492E-001  0.8419376E+02  0.7546771E-02  0.1317554E+00
         -1   -1    0    0    0  501 -0.00000000000E+00  0.00000000000E+00  0.10654043111E+02  0.10654043111E+02  0.00000000000E+00 0.  1.
          1   -1    0    0  501    0  0.00000000000E+00 -0.00000000000E+00 -0.90094259409E+03  0.90094259409E+03  0.00000000000E+00 0. -1.
         24    1    1    2    0    0  0.21592035434E+02  0.12456231467E+02 -0.21206067499E+03  0.22816292321E+03  0.80419002446E+02 0.  1.
        -24    1    1    2    0    0 -0.21592035434E+02 -0.12456231467E+02 -0.67822787599E+03  0.68343371399E+03  0.80419002446E+02 0. -1.
<mgrwt>
<rscale>  0 0.84193763E+02</rscale>
<asrwt>0</asrwt>
<pdfrwt beam="1">  1        1 0.13860666E+00 0.84193763E+02</pdfrwt>
<pdfrwt beam="2">  1       -1 0.16390823E-02 0.84193763E+02</pdfrwt>
<totfact> 0.16068484E+04</totfact>
</mgrwt>
</event>
<event>
 4    1  0.5015492E-001  0.1074704E+03  0.7546771E-02  0.1265327E+00
          1   -1    0    0  501    0  0.00000000000E+00  0.00000000000E+00  0.28900193239E+03  0.28900193239E+03  0.00000000000E+00 0. -1.
         -1   -1    0    0    0  501 -0.00000000000E+00 -0.00000000000E+00 -0.70427076193E+02  0.70427076193E+02  0.00000000000E+00 0.  1.
         24    1    1    2    0    0  0.70937074442E+02  0.71141533270E+01 -0.89063708387E+01  0.10783885711E+03  0.80419002446E+02 0.  1.
        -24    1    1    2    0    0 -0.70937074442E+02 -0.71141533270E+01  0.22748122704E+03  0.25159015147E+03  0.80419002446E+02 0. -1.
<mgrwt>
<rscale>  0 0.10747044E+03</rscale>
<asrwt>0</asrwt>
<pdfrwt beam="1">  1        1 0.44461835E-01 0.10747044E+03</pdfrwt>
<pdfrwt beam="2">  1       -1 0.10834935E-01 0.10747044E+03</pdfrwt>
<totfact> 0.46773850E+03</totfact>
</mgrwt>
</event>
<event>
 4    1  0.5015492E-001  0.8523300E+02  0.7546771E-02  0.1314824E+00
         -2   -1    0    0    0  501 -0.00000000000E+00  0.00000000000E+00  0.24353227128E+01  0.24353227128E+01  0.00000000000E+00 0.  1.
          2   -1    0    0  501    0  0.00000000000E+00 -0.00000000000E+00 -0.32641833328E+04  0.32641833328E+04  0.00000000000E+00 0. -1.
         24    1    1    2    0    0  0.11679725876E+02 -0.25710555438E+02 -0.21102157021E+04  0.21119363091E+04  0.80419002446E+02 0. -1.
        -24    1    1    2    0    0 -0.11679725876E+02  0.25710555438E+02 -0.11515323080E+04  0.11546823464E+04  0.80419002446E+02 0.  1.
<mgrwt>
<rscale>  0 0.85233002E+02</rscale>
<asrwt>0</asrwt>
<pdfrwt beam="1">  1        2 0.50218165E+00 0.85233002E+02</pdfrwt>
<pdfrwt beam="2">  1       -2 0.37466534E-03 0.85233002E+02</pdfrwt>
<totfact> 0.12482189E+04</totfact>
</mgrwt>
</event>
<event>
 4    1  0.5015492E-001  0.8553973E+02  0.7546771E-02  0.1314027E+00
         -2   -1    0    0    0  501 -0.00000000000E+00  0.00000000000E+00  0.22012984588E+02  0.22012984588E+02  0.00000000000E+00 0.  1.
          2   -1    0    0  501    0  0.00000000000E+00 -0.00000000000E+00 -0.35637585047E+03  0.35637585047E+03  0.00000000000E+00 0. -1.
         24    1    1    2    0    0  0.19783820603E+02  0.21410966016E+02 -0.21625757850E+03  0.23256049801E+03  0.80419002446E+02 0. -1.
        -24    1    1    2    0    0 -0.19783820603E+02 -0.21410966016E+02 -0.11810528739E+03  0.14582833705E+03  0.80419002446E+02 0.  1.
<mgrwt>
<rscale>  0 0.85539727E+02</rscale>
<asrwt>0</asrwt>
<pdfrwt beam="1">  1        2 0.54827053E-01 0.85539727E+02</pdfrwt>
<pdfrwt beam="2">  1       -2 0.33866131E-02 0.85539727E+02</pdfrwt>
<totfact> 0.28316929E+04</totfact>
</mgrwt>
</event>
<event>
 4    1  0.5015492E-001  0.9226143E+02  0.7546771E-02  0.1297466E+00
          3   -1    0    0  501    0  0.00000000000E+00  0.00000000000E+00  0.42126291886E+03  0.42126291886E+03  0.00000000000E+00 0. -1.
         -3   -1    0    0    0  501 -0.00000000000E+00 -0.00000000000E+00 -0.29867719083E+02  0.29867719083E+02  0.00000000000E+00 0.  1.
         24    1    1    2    0    0 -0.43408489085E+02  0.12675106977E+02  0.67408008349E+02  0.11426290214E+03  0.80419002446E+02 0.  1.
        -24    1    1    2    0    0  0.43408489085E+02 -0.12675106977E+02  0.32398719143E+03  0.33686773580E+03  0.80419002446E+02 0. -1.
<mgrwt>
<rscale>  0 0.92261429E+02</rscale>
<asrwt>0</asrwt>
<pdfrwt beam="1">  1        3 0.64809676E-01 0.92261429E+02</pdfrwt>
<pdfrwt beam="2">  1       -3 0.45950340E-02 0.92261429E+02</pdfrwt>
<totfact> 0.13130835E+03</totfact>
</mgrwt>
</event>
<event>
 4    1  0.5015492E-001  0.1083714E+03  0.7546771E-02  0.1263616E+00
          2   -1    0    0  501    0  0.00000000000E+00  0.00000000000E+00  0.23892999592E+04  0.23892999592E+04  0.00000000000E+00 0. -1.
         -2   -1    0    0    0  501 -0.00000000000E+00 -0.00000000000E+00 -0.55379041603E+01  0.55379041603E+01  0.00000000000E+00 0.  1.
         24    1    1    2    0    0  0.48427946664E+02  0.54146787394E+02  0.15933442507E+04  0.15970254406E+04  0.80419002446E+02 0.  1.
        -24    1    1    2    0    0 -0.48427946664E+02 -0.54146787394E+02  0.79041780436E+03  0.79781242282E+03  0.80419002446E+02 0.  0.
<mgrwt>
<rscale>  0 0.10837138E+03</rscale>
<asrwt>0</asrwt>
<pdfrwt beam="1">  1        2 0.36758379E+00 0.10837138E+03</pdfrwt>
<pdfrwt beam="2">  1       -2 0.85198716E-03 0.10837138E+03</pdfrwt>
<totfact> 0.12127028E+04</totfact>
</mgrwt>
</event>
<event>
 4    1  0.5015492E-001  0.1220039E+03  0.7546771E-02  0.1239827E+00
         -2   -1    0    0    0  501 -0.00000000000E+00  0.00000000000E+00  0.10284781403E+03  0.10284781403E+03  0.00000000000E+00 0.  1.
          2   -1    0    0  501    0  0.00000000000E+00 -0.00000000000E+00 -0.22509568465E+03  0.22509568465E+03  0.00000000000E+00 0. -1.
         24    1    1    2    0    0 -0.21022931978E+02  0.89307217113E+02 -0.15910139337E+03  0.20049491770E+03  0.80419002446E+02 0. -1.
        -24    1    1    2    0    0  0.21022931978E+02 -0.89307217113E+02  0.36853522752E+02  0.12744858097E+03  0.80419002446E+02 0.  1.
<mgrwt>
<rscale>  0 0.12200393E+03</rscale>
<asrwt>0</asrwt>
<pdfrwt beam="1">  1        2 0.34630105E-01 0.12200393E+03</pdfrwt>
<pdfrwt beam="2">  1       -2 0.15822741E-01 0.12200393E+03</pdfrwt>
<totfact> 0.44645322E+03</totfact>
</mgrwt>
</event>
<event>
 4    1  0.5015492E-001  0.8886786E+02  0.7546771E-02  0.1305617E+00
          2   -1    0    0  501    0  0.00000000000E+00  0.00000000000E+00  0.12623346107E+04  0.12623346107E+04  0.00000000000E+00 0. -1.
         -2   -1    0    0    0  501 -0.00000000000E+00 -0.00000000000E+00 -0.12371325184E+02  0.12371325184E+02  0.00000000000E+00 0.  1.
         24    1    1    2    0    0 -0.23001408770E+02  0.30020245465E+02  0.10730789974E+04  0.10767525391E+04  0.80419002446E+02 0.  1.
        -24    1    1    2    0    0  0.23001408770E+02 -0.30020245465E+02  0.17688428812E+03  0.19795339674E+03  0.80419002446E+02 0.  0.
<mgrwt>
<rscale>  0 0.88867856E+02</rscale>
<asrwt>0</asrwt>
<pdfrwt beam="1">  1        2 0.19420522E+00 0.88867856E+02</pdfrwt>
<pdfrwt beam="2">  1       -2 0.19032818E-02 0.88867856E+02</pdfrwt>
<totfact> 0.14378662E+04</totfact>
</mgrwt>
</event>
<event>
 4    1  0.5015492E-001  0.8474235E+02  0.7546771E-02  0.1316108E+00
         -2   -1    0    0    0  501 -0.00000000000E+00  0.00000000000E+00  0.17732433017E+03  0.17732433017E+03  0.00000000000E+00 0.  1.
          2   -1    0    0  501    0  0.00000000000E+00 -0.00000000000E+00 -0.63425536119E+02  0.63425536119E+02  0.00000000000E+00 0. -1.
         24    1    1    2    0    0  0.21233374365E+02  0.16223240444E+02 -0.15424754033E+02  0.86134712566E+02  0.80419002446E+02 0. -1.
        -24    1    1    2    0    0 -0.21233374365E+02 -0.16223240444E+02  0.12932354809E+03  0.15461515372E+03  0.80419002446E+02 0.  1.
<mgrwt>
<rscale>  0 0.84742349E+02</rscale>
<asrwt>0</asrwt>
<pdfrwt beam="1">  1        2 0.97577749E-02 0.84742349E+02</pdfrwt>
<pdfrwt beam="2">  1       -2 0.27280666E-01 0.84742349E+02</pdfrwt>
<totfact> 0.72766847E+03</totfact>
</mgrwt>
</event>
<event>
 4    1  0.5015492E-001  0.2634573E+03  0.7546771E-02  0.1105084E+00
         -2   -1    0    0    0  501 -0.00000000000E+00  0.00000000000E+00  0.25796527081E+03  0.25796527081E+03  0.00000000000E+00 0.  1.
          2   -1    0    0  501    0  0.00000000000E+00 -0.00000000000E+00 -0.54871869970E+03  0.54871869970E+03  0.00000000000E+00 0. -1.
         24    1    1    2    0    0 -0.12250796055E+03 -0.21893913383E+03 -0.43332057774E+03  0.50712570806E+03  0.80419002446E+02 0. -1.
        -24    1    1    2    0    0  0.12250796055E+03  0.21893913383E+03  0.14256714885E+03  0.29955826246E+03  0.80419002446E+02 0.  1.
<mgrwt>
<rscale>  0 0.26345732E+03</rscale>
<asrwt>0</asrwt>
<pdfrwt beam="1">  1        2 0.84418260E-01 0.26345732E+03</pdfrwt>
<pdfrwt beam="2">  1       -2 0.39686965E-01 0.26345732E+03</pdfrwt>
<totfact> 0.34123625E+02</totfact>
</mgrwt>
</event>
<event>
 4    1  0.5015492E-001  0.8677460E+02  0.7546771E-02  0.1310856E+00
          2   -1    0    0  501    0  0.00000000000E+00  0.00000000000E+00  0.13648393661E+04  0.13648393661E+04  0.00000000000E+00 0. -1.
         -2   -1    0    0    0  501 -0.00000000000E+00 -0.00000000000E+00 -0.61455292090E+01  0.61455292090E+01  0.00000000000E+00 0.  1.
         24    1    1    2    0    0 -0.78163498742E+01  0.31646806185E+02  0.89856809962E+03  0.90274828235E+03  0.80419002446E+02 0.  0.
        -24    1    1    2    0    0  0.78163498742E+01 -0.31646806185E+02  0.46012573729E+03  0.46823661299E+03  0.80419002446E+02 0. -1.
<mgrwt>
<rscale>  0 0.86774602E+02</rscale>
<asrwt>0</asrwt>
<pdfrwt beam="1">  1        2 0.20997505E+00 0.86774602E+02</pdfrwt>
<pdfrwt beam="2">  1       -2 0.94546712E-03 0.86774602E+02</pdfrwt>
<totfact> 0.34280877E+04</totfact>
</mgrwt>
</event>
<event>
 4    1  0.5015492E-001  0.8505013E+02  0.7546771E-02  0.1315302E+00
          1   -1    0    0  501    0  0.00000000000E+00  0.00000000000E+00  0.31052398524E+02  0.31052398524E+02  0.00000000000E+00 0. -1.
         -1   -1    0    0    0  501 -0.00000000000E+00 -0.00000000000E+00 -0.24192938486E+03  0.24192938486E+03  0.00000000000E+00 0.  1.
         24    1    1    2    0    0 -0.52189025177E+00 -0.27677297600E+02 -0.79136549198E+02  0.11617277885E+03  0.80419002446E+02 0.  1.
        -24    1    1    2    0    0  0.52189025177E+00  0.27677297600E+02 -0.13174043714E+03  0.15680900454E+03  0.80419002446E+02 0.  1.
<mgrwt>
<rscale>  0 0.85050120E+02</rscale>
<asrwt>0</asrwt>
<pdfrwt beam="1">  1        1 0.47772920E-02 0.85050131E+02</pdfrwt>
<pdfrwt beam="2">  1       -1 0.37219906E-01 0.85050131E+02</pdfrwt>
<totfact> 0.11150695E+04</totfact>
</mgrwt>
</event>
<event>
 4    1  0.5015492E-001  0.8688936E+02  0.7546771E-02  0.1310564E+00
         -2   -1    0    0    0  501 -0.00000000000E+00  0.00000000000E+00  0.11644165057E+02  0.11644165057E+02  0.00000000000E+00 0.  1.
          2   -1    0    0  501    0  0.00000000000E+00 -0.00000000000E+00 -0.34316931361E+04  0.34316931361E+04  0.00000000000E+00 0. -1.
         24    1    1    2    0    0 -0.25374171889E+02  0.20945078329E+02 -0.32605429360E+04  0.32617004765E+04  0.80419002446E+02 0. -1.
        -24    1    1    2    0    0  0.25374171889E+02 -0.20945078329E+02 -0.15950603506E+03  0.18163682468E+03  0.80419002446E+02 0.  1.
<mgrwt>
<rscale>  0 0.86889360E+02</rscale>
<asrwt>0</asrwt>
<pdfrwt beam="1">  1        2 0.52795303E+00 0.86889360E+02</pdfrwt>
<pdfrwt beam="2">  1       -2 0.17914092E-02 0.86889360E+02</pdfrwt>
<totfact> 0.10849956E+03</totfact>
</mgrwt>
</event>
<event>
 4    1  0.5015492E-001  0.8100291E+02  0.7546771E-02  0.1326229E+00
         -1   -1    0    0    0  501 -0.00000000000E+00  0.00000000000E+00  0.39398206094E+02  0.39398206094E+02  0.00000000000E+00 0.  1.
          1   -1    0    0  501    0  0.00000000000E+00 -0.00000000000E+00 -0.10832491832E+04  0.10832491832E+04  0.00000000000E+00 0. -1.
         24    1    1    2    0    0  0.80322588560E+01  0.54532347335E+01 -0.55514280765E+01  0.81192913850E+02  0.80419002446E+02 0.  1.
        -24    1    1    2    0    0 -0.80322588560E+01 -0.54532347335E+01 -0.10382995491E+04  0.10414544755E+04  0.80419002446E+02 0. -1.
<mgrwt>
<rscale>  0 0.81002907E+02</rscale>
<asrwt>0</asrwt>
<pdfrwt beam="1">  1        1 0.16665372E+00 0.81002907E+02</pdfrwt>
<pdfrwt beam="2">  1       -1 0.60612626E-02 0.81002907E+02</pdfrwt>
<totfact> 0.18020202E+03</totfact>
</mgrwt>
</event>
<event>
 4    1  0.5015492E-001  0.1074547E+03  0.7546771E-02  0.1265357E+00
          1   -1    0    0  501    0  0.00000000000E+00  0.00000000000E+00  0.50326114456E+02  0.50326114456E+02  0.00000000000E+00 0. -1.
         -1   -1    0    0    0  501 -0.00000000000E+00 -0.00000000000E+00 -0.34041966147E+03  0.34041966147E+03  0.00000000000E+00 0.  1.
         24    1    1    2    0    0 -0.34003610661E+02  0.62634209612E+02 -0.25660228694E+03  0.27819280970E+03  0.80419002446E+02 0.  1.
        -24    1    1    2    0    0  0.34003610661E+02 -0.62634209612E+02 -0.33491260081E+02  0.11255296623E+03  0.80419002446E+02 0. -1.
<mgrwt>
<rscale>  0 0.10745467E+03</rscale>
<asrwt>0</asrwt>
<pdfrwt beam="1">  1        1 0.77424788E-02 0.10745467E+03</pdfrwt>
<pdfrwt beam="2">  1       -1 0.52372258E-01 0.10745467E+03</pdfrwt>
<totfact> 0.32507034E+03</totfact>
</mgrwt>
</event>
<event>
 4    1  0.5015492E-001  0.1341820E+03  0.7546771E-02  0.1221379E+00
         -2   -1    0    0    0  501 -0.00000000000E+00  0.00000000000E+00  0.30460068269E+02  0.30460068269E+02  0.00000000000E+00 0.  1.
          2   -1    0    0  501    0  0.00000000000E+00 -0.00000000000E+00 -0.59704433414E+03  0.59704433414E+03  0.00000000000E+00 0. -1.
         24    1    1    2    0    0  0.11835387450E+02 -0.10675914174E+03 -0.31461074603E+03  0.34203030306E+03  0.80419002446E+02 0.  0.
        -24    1    1    2    0    0 -0.11835387450E+02  0.10675914174E+03 -0.25197351984E+03  0.28547409934E+03  0.80419002446E+02 0.  1.
<mgrwt>
<rscale>  0 0.13418199E+03</rscale>
<asrwt>0</asrwt>
<pdfrwt beam="1">  1        2 0.91852977E-01 0.13418199E+03</pdfrwt>
<pdfrwt beam="2">  1       -2 0.46861642E-02 0.13418199E+03</pdfrwt>
<totfact> 0.10459560E+04</totfact>
</mgrwt>
</event>
<event>
 4    1  0.5015492E-001  0.9166147E+02  0.7546771E-02  0.1298877E+00
          1   -1    0    0  501    0  0.00000000000E+00  0.00000000000E+00  0.11503468703E+02  0.11503468703E+02  0.00000000000E+00 0. -1.
         -1   -1    0    0    0  501 -0.00000000000E+00 -0.00000000000E+00 -0.85218664225E+03  0.85218664225E+03  0.00000000000E+00 0.  1.
         24    1    1    2    0    0  0.42025251024E+02  0.12980249593E+02 -0.58361230569E+03  0.59076657650E+03  0.80419002446E+02 0.  1.
        -24    1    1    2    0    0 -0.42025251024E+02 -0.12980249593E+02 -0.25707086785E+03  0.27292353445E+03  0.80419002446E+02 0. -1.
<mgrwt>
<rscale>  0 0.91661467E+02</rscale>
<asrwt>0</asrwt>
<pdfrwt beam="1">  1        1 0.17697640E-02 0.91661467E+02</pdfrwt>
<pdfrwt beam="2">  1       -1 0.13110567E+00 0.91661467E+02</pdfrwt>
<totfact> 0.35782354E+03</totfact>
</mgrwt>
</event>
<event>
 4    1  0.5015492E-001  0.9136031E+02  0.7546771E-02  0.1299591E+00
          1   -1    0    0  501    0  0.00000000000E+00  0.00000000000E+00  0.73495341793E+03  0.73495341793E+03  0.00000000000E+00 0. -1.
         -1   -1    0    0    0  501 -0.00000000000E+00 -0.00000000000E+00 -0.11632292512E+02  0.11632292512E+02  0.00000000000E+00 0.  1.
         24    1    1    2    0    0 -0.42376514536E+02  0.91497186071E+01  0.41911053402E+03  0.42895261046E+03  0.80419002446E+02 0. -1.
        -24    1    1    2    0    0  0.42376514536E+02 -0.91497186071E+01  0.30421059139E+03  0.31763309998E+03  0.80419002446E+02 0.  1.
<mgrwt>
<rscale>  0 0.91360300E+02</rscale>
<asrwt>0</asrwt>
<pdfrwt beam="1">  1        1 0.11306972E+00 0.91360311E+02</pdfrwt>
<pdfrwt beam="2">  1       -1 0.17895840E-02 0.91360311E+02</pdfrwt>
<totfact> 0.19365399E+04</totfact>
</mgrwt>
</event>
<event>
 4    1  0.5015492E-001  0.1300886E+03  0.7546771E-02  0.1227324E+00
         -1   -1    0    0    0  501 -0.00000000000E+00  0.00000000000E+00  0.42329914538E+03  0.42329914538E+03  0.00000000000E+00 0.  1.
          1   -1    0    0  501    0  0.00000000000E+00 -0.00000000000E+00 -0.78318497311E+02  0.78318497311E+02  0.00000000000E+00 0. -1.
         24    1    1    2    0    0  0.30101926626E+02  0.97722622397E+02  0.34797296346E+03  0.37149459777E+03  0.80419002446E+02 0.  1.
        -24    1    1    2    0    0 -0.30101926626E+02 -0.97722622397E+02 -0.29923153929E+01  0.13012304492E+03  0.80419002446E+02 0. -1.
<mgrwt>
<rscale>  0 0.13008863E+03</rscale>
<asrwt>0</asrwt>
<pdfrwt beam="1">  1        1 0.12049000E-01 0.13008863E+03</pdfrwt>
<pdfrwt beam="2">  1       -1 0.65122944E-01 0.13008863E+03</pdfrwt>
<totfact> 0.12124985E+03</totfact>
</mgrwt>
</event>
<event>
 4    1  0.5015492E-001  0.1001662E+03  0.7546771E-02  0.1279947E+00
         -1   -1    0    0    0  501 -0.00000000000E+00  0.00000000000E+00  0.48460834024E+02  0.48460834024E+02  0.00000000000E+00 0.  1.
          1   -1    0    0  501    0  0.00000000000E+00 -0.00000000000E+00 -0.11327040974E+04  0.11327040974E+04  0.00000000000E+00 0. -1.
         24    1    1    2    0    0 -0.32441537122E+02  0.50135733058E+02 -0.82346121984E+01  0.10050407879E+03  0.80419002446E+02 0.  1.
        -24    1    1    2    0    0  0.32441537122E+02 -0.50135733058E+02 -0.10760086512E+04  0.10806608527E+04  0.80419002446E+02 0. -1.
<mgrwt>
<rscale>  0 0.10016617E+03</rscale>
<asrwt>0</asrwt>
<pdfrwt beam="1">  1        1 0.17426217E+00 0.10016617E+03</pdfrwt>
<pdfrwt beam="2">  1       -1 0.74555127E-02 0.10016617E+03</pdfrwt>
<totfact> 0.12291394E+03</totfact>
</mgrwt>
</event>
<event>
 4    1  0.5015492E-001  0.8663642E+02  0.7546771E-02  0.1311208E+00
          1   -1    0    0  501    0  0.00000000000E+00  0.00000000000E+00  0.26275573573E+04  0.26275573573E+04  0.00000000000E+00 0. -1.
         -1   -1    0    0    0  501 -0.00000000000E+00 -0.00000000000E+00 -0.29874654119E+01  0.29874654119E+01  0.00000000000E+00 0.  1.
         24    1    1    2    0    0 -0.53323626223E+01 -0.31783881533E+02  0.15875723177E+04  0.15899345047E+04  0.80419002446E+02 0. -1.
        -24    1    1    2    0    0  0.53323626223E+01  0.31783881533E+02  0.10369975742E+04  0.10406103180E+04  0.80419002446E+02 0.  1.
<mgrwt>
<rscale>  0 0.86636407E+02</rscale>
<asrwt>0</asrwt>
<pdfrwt beam="1">  1        1 0.40423775E+00 0.86636418E+02</pdfrwt>
<pdfrwt beam="2">  1       -1 0.45961216E-03 0.86636418E+02</pdfrwt>
<totfact> 0.73135435E+03</totfact>
</mgrwt>
</event>
<event>
 4    1  0.5015492E-001  0.1066170E+03  0.7546771E-02  0.1266966E+00
          2   -1    0    0  501    0  0.00000000000E+00  0.00000000000E+00  0.82066545758E+02  0.82066545758E+02  0.00000000000E+00 0. -1.
         -2   -1    0    0    0  501 -0.00000000000E+00 -0.00000000000E+00 -0.13972727201E+03  0.13972727201E+03  0.00000000000E+00 0.  1.
         24    1    1    2    0    0 -0.38502559938E+02  0.58459599736E+02 -0.18487399235E+02  0.10820800251E+03  0.80419002446E+02 0.  1.
        -24    1    1    2    0    0  0.38502559938E+02 -0.58459599736E+02 -0.39173327017E+02  0.11358581525E+03  0.80419002446E+02 0. -1.
<mgrwt>
<rscale>  0 0.10661701E+03</rscale>
<asrwt>0</asrwt>
<pdfrwt beam="1">  1        2 0.12625623E-01 0.10661701E+03</pdfrwt>
<pdfrwt beam="2">  1       -2 0.21496503E-01 0.10661701E+03</pdfrwt>
<totfact> 0.82235267E+03</totfact>
</mgrwt>
</event>
<event>
 4    1  0.5015492E-001  0.1312234E+03  0.7546771E-02  0.1225652E+00
          2   -1    0    0  501    0  0.00000000000E+00  0.00000000000E+00  0.22459681829E+04  0.22459681829E+04  0.00000000000E+00 0. -1.
         -2   -1    0    0    0  501 -0.00000000000E+00 -0.00000000000E+00 -0.32752347067E+02  0.32752347067E+02  0.00000000000E+00 0.  1.
         24    1    1    2    0    0  0.10176648607E+03 -0.19898555005E+02  0.21037358537E+04  0.21078245013E+04  0.80419002446E+02 0. -1.
        -24    1    1    2    0    0 -0.10176648607E+03  0.19898555005E+02  0.10947998219E+03  0.17089602872E+03  0.80419002446E+02 0.  1.
<mgrwt>
<rscale>  0 0.13122342E+03</rscale>
<asrwt>0</asrwt>
<pdfrwt beam="1">  1        2 0.34553345E+00 0.13122342E+03</pdfrwt>
<pdfrwt beam="2">  1       -2 0.50388244E-02 0.13122342E+03</pdfrwt>
<totfact> 0.10905782E+03</totfact>
</mgrwt>
</event>
<event>
 4    1  0.5015492E-001  0.9223011E+02  0.7546771E-02  0.1297539E+00
         -1   -1    0    0    0  501 -0.00000000000E+00  0.00000000000E+00  0.75922517570E+02  0.75922517570E+02  0.00000000000E+00 0.  1.
          1   -1    0    0  501    0  0.00000000000E+00 -0.00000000000E+00 -0.41594555536E+03  0.41594555536E+03  0.00000000000E+00 0. -1.
         24    1    1    2    0    0  0.45154649688E+02 -0.48397614091E+00  0.40206237251E+02  0.10061279287E+03  0.80419002446E+02 0.  1.
        -24    1    1    2    0    0 -0.45154649688E+02  0.48397614091E+00 -0.38022927504E+03  0.39125528006E+03  0.80419002446E+02 0. -1.
<mgrwt>
<rscale>  0 0.92230107E+02</rscale>
<asrwt>0</asrwt>
<pdfrwt beam="1">  1        1 0.63991624E-01 0.92230107E+02</pdfrwt>
<pdfrwt beam="2">  1       -1 0.11680387E-01 0.92230107E+02</pdfrwt>
<totfact> 0.26390522E+03</totfact>
</mgrwt>
</event>
<event>
 4    1  0.5015492E-001  0.8577003E+02  0.7546771E-02  0.1313431E+00
          1   -1    0    0  501    0  0.00000000000E+00  0.00000000000E+00  0.16815378823E+03  0.16815378823E+03  0.00000000000E+00 0. -1.
         -1   -1    0    0    0  501 -0.00000000000E+00 -0.00000000000E+00 -0.43944125732E+02  0.43944125732E+02  0.00000000000E+00 0.  1.
         24    1    1    2    0    0 -0.19043105586E+02  0.22948616879E+02  0.69178497964E+02  0.11019146710E+03  0.80419002446E+02 0. -1.
        -24    1    1    2    0    0  0.19043105586E+02 -0.22948616879E+02  0.55031164532E+02  0.10190644686E+03  0.80419002446E+02 0.  1.
<mgrwt>
<rscale>  0 0.85770022E+02</rscale>
<asrwt>0</asrwt>
<pdfrwt beam="1">  1        1 0.25869813E-01 0.85770033E+02</pdfrwt>
<pdfrwt beam="2">  1       -1 0.67606348E-02 0.85770033E+02</pdfrwt>
<totfact> 0.18092611E+04</totfact>
</mgrwt>
</event>
<event>
 4    1  0.5015492E-001  0.1855726E+03  0.7546771E-02  0.1162516E+00
          2   -1    0    0  501    0  0.00000000000E+00  0.00000000000E+00  0.19764103566E+04  0.19764103566E+04  0.00000000000E+00 0. -1.
         -2   -1    0    0    0  501 -0.00000000000E+00 -0.00000000000E+00 -0.17668738203E+02  0.17668738203E+02  0.00000000000E+00 0.  1.
         24    1    1    2    0    0  0.16406604650E+03  0.32439190839E+02  0.86205246394E+03  0.88180022412E+03  0.80419002446E+02 0.  1.
        -24    1    1    2    0    0 -0.16406604650E+03 -0.32439190839E+02  0.10966891545E+04  0.11122788707E+04  0.80419002446E+02 0. -1.
<mgrwt>
<rscale>  0 0.18557261E+03</rscale>
<asrwt>0</asrwt>
<pdfrwt beam="1">  1        2 0.30406296E+00 0.18557263E+03</pdfrwt>
<pdfrwt beam="2">  1       -2 0.27182690E-02 0.18557263E+03</pdfrwt>
<totfact> 0.37485967E+03</totfact>
</mgrwt>
</event>
<event>
 4    1  0.5015492E-001  0.1122225E+03  0.7546771E-02  0.1256509E+00
         -1   -1    0    0    0  501 -0.00000000000E+00  0.00000000000E+00  0.15823650614E+03  0.15823650614E+03  0.00000000000E+00 0.  1.
          1   -1    0    0  501    0  0.00000000000E+00 -0.00000000000E+00 -0.10816006490E+03  0.10816006490E+03  0.00000000000E+00 0. -1.
         24    1    1    2    0    0 -0.46104145264E+02  0.63254084383E+02  0.93496862579E+02  0.14606693900E+03  0.80419002446E+02 0.  1.
        -24    1    1    2    0    0  0.46104145264E+02 -0.63254084383E+02 -0.43420421339E+02  0.12032963203E+03  0.80419002446E+02 0. -1.
<mgrwt>
<rscale>  0 0.11222249E+03</rscale>
<asrwt>0</asrwt>
<pdfrwt beam="1">  1        1 0.16640010E-01 0.11222249E+03</pdfrwt>
<pdfrwt beam="2">  1       -1 0.24344078E-01 0.11222249E+03</pdfrwt>
<totfact> 0.44709024E+03</totfact>
</mgrwt>
</event>
<event>
 4    1  0.5015492E-001  0.8188812E+02  0.7546771E-02  0.1323777E+00
          2   -1    0    0  501    0  0.00000000000E+00  0.00000000000E+00  0.39446127570E+03  0.39446127570E+03  0.00000000000E+00 0. -1.
         -2   -1    0    0    0  501 -0.00000000000E+00 -0.00000000000E+00 -0.25303043279E+02  0.25303043279E+02  0.00000000000E+00 0.  1.
         24    1    1    2    0    0 -0.68775858749E+01  0.13825594069E+02  0.30481097550E+03  0.31561906625E+03  0.80419002446E+02 0. -1.
        -24    1    1    2    0    0  0.68775858749E+01 -0.13825594069E+02  0.64347256917E+02  0.10414525273E+03  0.80419002446E+02 0.  1.
<mgrwt>
<rscale>  0 0.81888120E+02</rscale>
<asrwt>0</asrwt>
<pdfrwt beam="1">  1        2 0.60686346E-01 0.81888120E+02</pdfrwt>
<pdfrwt beam="2">  1       -2 0.38927762E-02 0.81888120E+02</pdfrwt>
<totfact> 0.20674050E+04</totfact>
</mgrwt>
</event>
<event>
 4    1  0.5015492E-001  0.8597921E+02  0.7546771E-02  0.1312891E+00
         -1   -1    0    0    0  501 -0.00000000000E+00  0.00000000000E+00  0.34580011048E+03  0.34580011048E+03  0.00000000000E+00 0.  1.
          1   -1    0    0  501    0  0.00000000000E+00 -0.00000000000E+00 -0.33387887372E+02  0.33387887372E+02  0.00000000000E+00 0. -1.
         24    1    1    2    0    0  0.24586484646E+02  0.17908456690E+02  0.26991759616E+03  0.28328066069E+03  0.80419002446E+02 0.  1.
        -24    1    1    2    0    0 -0.24586484646E+02 -0.17908456690E+02  0.42494626948E+02  0.95907337165E+02  0.80419002446E+02 0. -1.
<mgrwt>
<rscale>  0 0.85979207E+02</rscale>
<asrwt>0</asrwt>
<pdfrwt beam="1">  1        1 0.51365983E-02 0.85979207E+02</pdfrwt>
<pdfrwt beam="2">  1       -1 0.53200014E-01 0.85979207E+02</pdfrwt>
<totfact> 0.53876640E+03</totfact>
</mgrwt>
</event>
<event>
 4    1  0.5015492E-001  0.1633268E+03  0.7546771E-02  0.1184991E+00
          4   -1    0    0  501    0  0.00000000000E+00  0.00000000000E+00  0.10535333904E+03  0.10535333904E+03  0.00000000000E+00 0. -1.
         -4   -1    0    0    0  501 -0.00000000000E+00 -0.00000000000E+00 -0.62693134563E+03  0.62693134563E+03  0.00000000000E+00 0.  1.
         24    1    1    2    0    0  0.62176930902E+02  0.12783766978E+03  0.21906351242E+02  0.16478939508E+03  0.80419002446E+02 0. -1.
        -24    1    1    2    0    0 -0.62176930902E+02 -0.12783766978E+03 -0.54348435783E+03  0.56749528959E+03  0.80419002446E+02 0.  1.
<mgrwt>
<rscale>  0 0.16332684E+03</rscale>
<asrwt>0</asrwt>
<pdfrwt beam="1">  1        4 0.16208206E-01 0.16332684E+03</pdfrwt>
<pdfrwt beam="2">  1       -4 0.96450979E-01 0.16332684E+03</pdfrwt>
<totfact> 0.52920436E+01</totfact>
</mgrwt>
</event>
<event>
 4    1  0.5015492E-001  0.8504702E+02  0.7546771E-02  0.1315310E+00
         -2   -1    0    0    0  501 -0.00000000000E+00  0.00000000000E+00  0.94473389250E+02  0.94473389250E+02  0.00000000000E+00 0.  1.
          2   -1    0    0  501    0  0.00000000000E+00 -0.00000000000E+00 -0.27103622443E+03  0.27103622443E+03  0.00000000000E+00 0. -1.
         24    1    1    2    0    0 -0.16923136552E+02  0.21894925587E+02 -0.24308715552E+03  0.25753516546E+03  0.80419002446E+02 0. -1.
        -24    1    1    2    0    0  0.16923136552E+02 -0.21894925587E+02  0.66524320338E+02  0.10797444822E+03  0.80419002446E+02 0.  1.
<mgrwt>
<rscale>  0 0.85047024E+02</rscale>
<asrwt>0</asrwt>
<pdfrwt beam="1">  1        2 0.41697880E-01 0.85047024E+02</pdfrwt>
<pdfrwt beam="2">  1       -2 0.14534368E-01 0.85047024E+02</pdfrwt>
<totfact> 0.41182636E+03</totfact>
</mgrwt>
</event>
<event>
 4    1  0.5015492E-001  0.8327515E+02  0.7546771E-02  0.1320006E+00
          1   -1    0    0  501    0  0.00000000000E+00  0.00000000000E+00  0.16320048707E+03  0.16320048707E+03  0.00000000000E+00 0. -1.
         -1   -1    0    0    0  501 -0.00000000000E+00 -0.00000000000E+00 -0.20896722908E+03  0.20896722908E+03  0.00000000000E+00 0.  1.
         24    1    1    2    0    0  0.66450266845E+01  0.20576156366E+02 -0.18897362031E+03  0.20650854636E+03  0.80419002446E+02 0.  1.
        -24    1    1    2    0    0 -0.66450266845E+01 -0.20576156366E+02  0.14320687830E+03  0.16565916980E+03  0.80419002446E+02 0. -1.
<mgrwt>
<rscale>  0 0.83275150E+02</rscale>
<asrwt>0</asrwt>
<pdfrwt beam="1">  1        1 0.25107767E-01 0.83275150E+02</pdfrwt>
<pdfrwt beam="2">  1       -1 0.32148804E-01 0.83275150E+02</pdfrwt>
<totfact> 0.16575774E+03</totfact>
</mgrwt>
</event>
<event>
 4    1  0.5015492E-001  0.8958035E+02  0.7546771E-02  0.1303871E+00
         -2   -1    0    0    0  501 -0.00000000000E+00  0.00000000000E+00  0.12185031460E+02  0.12185031460E+02  0.00000000000E+00 0.  1.
          2   -1    0    0  501    0  0.00000000000E+00 -0.00000000000E+00 -0.78011270206E+03  0.78011270206E+03  0.00000000000E+00 0. -1.
         24    1    1    2    0    0 -0.39008257422E+02 -0.59814972967E+01 -0.54033355407E+03  0.54770885337E+03  0.80419002446E+02 0. -1.
        -24    1    1    2    0    0  0.39008257422E+02  0.59814972967E+01 -0.22759411654E+03  0.24458888015E+03  0.80419002446E+02 0.  1.
<mgrwt>
<rscale>  0 0.89580346E+02</rscale>
<asrwt>0</asrwt>
<pdfrwt beam="1">  1        2 0.12001737E+00 0.89580346E+02</pdfrwt>
<pdfrwt beam="2">  1       -2 0.18746197E-02 0.89580346E+02</pdfrwt>
<totfact> 0.28233345E+04</totfact>
</mgrwt>
</event>
<event>
 4    1  0.5015492E-001  0.9569053E+02  0.7546771E-02  0.1289628E+00
          1   -1    0    0  501    0  0.00000000000E+00  0.00000000000E+00  0.10025960570E+04  0.10025960570E+04  0.00000000000E+00 0. -1.
         -1   -1    0    0    0  501 -0.00000000000E+00 -0.00000000000E+00 -0.95927863331E+01  0.95927863331E+01  0.00000000000E+00 0.  1.
         24    1    1    2    0    0 -0.36480046610E+02  0.36860110433E+02  0.38569840934E+03  0.39739141972E+03  0.80419002446E+02 0.  1.
        -24    1    1    2    0    0  0.36480046610E+02 -0.36860110433E+02  0.60730486136E+03  0.61479742365E+03  0.80419002446E+02 0. -1.
<mgrwt>
<rscale>  0 0.95690530E+02</rscale>
<asrwt>0</asrwt>
<pdfrwt beam="1">  1        1 0.15424546E+00 0.95690530E+02</pdfrwt>
<pdfrwt beam="2">  1       -1 0.14758141E-02 0.95690530E+02</pdfrwt>
<totfact> 0.15866470E+04</totfact>
</mgrwt>
</event>
<event>
 4    1  0.5015492E-001  0.1197499E+03  0.7546771E-02  0.1243510E+00
         -2   -1    0    0    0  501 -0.00000000000E+00  0.00000000000E+00  0.23990753333E+03  0.23990753333E+03  0.00000000000E+00 0.  1.
          2   -1    0    0  501    0  0.00000000000E+00 -0.00000000000E+00 -0.63384555183E+02  0.63384555183E+02  0.00000000000E+00 0. -1.
         24    1    1    2    0    0  0.68900467224E+02  0.55906552484E+02  0.52064164222E+02  0.13057836783E+03  0.80419002446E+02 0. -1.
        -24    1    1    2    0    0 -0.68900467224E+02 -0.55906552484E+02  0.12445881392E+03  0.17271372068E+03  0.80419002446E+02 0.  1.
<mgrwt>
<rscale>  0 0.11974988E+03</rscale>
<asrwt>0</asrwt>
<pdfrwt beam="1">  1        2 0.97514701E-02 0.11974988E+03</pdfrwt>
<pdfrwt beam="2">  1       -2 0.36908851E-01 0.11974988E+03</pdfrwt>
<totfact> 0.43421620E+03</totfact>
</mgrwt>
</event>
<event>
 4    1  0.5015492E-001  0.8844233E+02  0.7546771E-02  0.1306668E+00
          2   -1    0    0  501    0  0.00000000000E+00  0.00000000000E+00  0.90380147474E+03  0.90380147474E+03  0.00000000000E+00 0. -1.
         -2   -1    0    0    0  501 -0.00000000000E+00 -0.00000000000E+00 -0.86695520790E+01  0.86695520790E+01  0.00000000000E+00 0.  1.
         24    1    1    2    0    0 -0.33271477516E+02  0.15742911290E+02  0.46650867405E+03  0.47481826986E+03  0.80419002446E+02 0.  0.
        -24    1    1    2    0    0  0.33271477516E+02 -0.15742911290E+02  0.42862324861E+03  0.43765275696E+03  0.80419002446E+02 0.  1.
<mgrwt>
<rscale>  0 0.88442334E+02</rscale>
<asrwt>0</asrwt>
<pdfrwt beam="1">  1        2 0.13904631E+00 0.88442334E+02</pdfrwt>
<pdfrwt beam="2">  1       -2 0.13337780E-02 0.88442334E+02</pdfrwt>
<totfact> 0.38162695E+04</totfact>
</mgrwt>
</event>
<event>
 4    1  0.5015492E-001  0.8869702E+02  0.7546771E-02  0.1306038E+00
          1   -1    0    0  501    0  0.00000000000E+00  0.00000000000E+00  0.72819631709E+03  0.72819631709E+03  0.00000000000E+00 0. -1.
         -1   -1    0    0    0  501 -0.00000000000E+00 -0.00000000000E+00 -0.17697930536E+02  0.17697930536E+02  0.00000000000E+00 0.  1.
         24    1    1    2    0    0  0.34882932305E+02 -0.13532436280E+02  0.12247694375E+03  0.15122090961E+03  0.80419002446E+02 0.  0.
        -24    1    1    2    0    0 -0.34882932305E+02  0.13532436280E+02  0.58802144280E+03  0.59467333802E+03  0.80419002446E+02 0. -1.
<mgrwt>
<rscale>  0 0.88697022E+02</rscale>
<asrwt>0</asrwt>
<pdfrwt beam="1">  1        1 0.11203018E+00 0.88697022E+02</pdfrwt>
<pdfrwt beam="2">  1       -1 0.27227591E-02 0.88697022E+02</pdfrwt>
<totfact> 0.10742387E+04</totfact>
</mgrwt>
</event>
<event>
 4    1  0.5015492E-001  0.1045993E+03  0.7546771E-02  0.1270911E+00
         -2   -1    0    0    0  501 -0.00000000000E+00  0.00000000000E+00  0.91761788100E+01  0.91761788100E+01  0.00000000000E+00 0.  1.
          2   -1    0    0  501    0  0.00000000000E+00 -0.00000000000E+00 -0.12852445189E+04  0.12852445189E+04  0.00000000000E+00 0. -1.
         24    1    1    2    0    0 -0.15903082233E+02 -0.64968309928E+02 -0.46401323539E+03  0.47565669121E+03  0.80419002446E+02 0.  0.
        -24    1    1    2    0    0  0.15903082233E+02  0.64968309928E+02 -0.81205510468E+03  0.81876400649E+03  0.80419002446E+02 0.  1.
<mgrwt>
<rscale>  0 0.10459927E+03</rscale>
<asrwt>0</asrwt>
<pdfrwt beam="1">  1        2 0.19772992E+00 0.10459929E+03</pdfrwt>
<pdfrwt beam="2">  1       -2 0.14117199E-02 0.10459929E+03</pdfrwt>
<totfact> 0.21695706E+04</totfact>
</mgrwt>
</event>
<event>
 4    1  0.5015492E-001  0.1146399E+03  0.7546771E-02  0.1252211E+00
          1   -1    0    0  501    0  0.00000000000E+00  0.00000000000E+00  0.89989904147E+03  0.89989904147E+03  0.00000000000E+00 0. -1.
         -1   -1    0    0    0  501 -0.00000000000E+00 -0.00000000000E+00 -0.24293534379E+02  0.24293534379E+02  0.00000000000E+00 0.  1.
         24    1    1    2    0    0 -0.41688222130E+01 -0.81594842443E+02  0.14597008487E+03  0.18560597787E+03  0.80419002446E+02 0.  0.
        -24    1    1    2    0    0  0.41688222130E+01  0.81594842443E+02  0.72963542222E+03  0.73858659797E+03  0.80419002446E+02 0. -1.
<mgrwt>
<rscale>  0 0.11463993E+03</rscale>
<asrwt>0</asrwt>
<pdfrwt beam="1">  1        1 0.13844598E+00 0.11463993E+03</pdfrwt>
<pdfrwt beam="2">  1       -1 0.37374675E-02 0.11463993E+03</pdfrwt>
<totfact> 0.50246526E+03</totfact>
</mgrwt>
</event>
<event>
 4    1  0.5015492E-001  0.8461537E+02  0.7546771E-02  0.1316441E+00
          2   -1    0    0  501    0  0.00000000000E+00  0.00000000000E+00  0.45854422054E+03  0.45854422054E+03  0.00000000000E+00 0. -1.
         -2   -1    0    0    0  501 -0.00000000000E+00 -0.00000000000E+00 -0.54184279183E+02  0.54184279183E+02  0.00000000000E+00 0.  1.
         24    1    1    2    0    0  0.33137953956E+01 -0.26106762734E+02  0.41847502035E+03  0.42694391073E+03  0.80419002446E+02 0. -1.
        -24    1    1    2    0    0 -0.33137953956E+01  0.26106762734E+02 -0.14115078986E+02  0.85784588998E+02  0.80419002446E+02 0.  1.
<mgrwt>
<rscale>  0 0.84615367E+02</rscale>
<asrwt>0</asrwt>
<pdfrwt beam="1">  1        2 0.70545262E-01 0.84615367E+02</pdfrwt>
<pdfrwt beam="2">  1       -2 0.83360433E-02 0.84615367E+02</pdfrwt>
<totfact> 0.56710207E+03</totfact>
</mgrwt>
</event>
<event>
 4    1  0.5015492E-001  0.8156363E+02  0.7546771E-02  0.1324672E+00
         -1   -1    0    0    0  501 -0.00000000000E+00  0.00000000000E+00  0.30125167579E+02  0.30125167579E+02  0.00000000000E+00 0.  1.
          1   -1    0    0  501    0  0.00000000000E+00 -0.00000000000E+00 -0.22423616877E+03  0.22423616877E+03  0.00000000000E+00 0. -1.
         24    1    1    2    0    0 -0.27585834732E+01 -0.13334024494E+02 -0.11272407443E+03  0.13913784137E+03  0.80419002446E+02 0.  0.
        -24    1    1    2    0    0  0.27585834732E+01  0.13334024494E+02 -0.81386926758E+02  0.11522349497E+03  0.80419002446E+02 0. -1.
<mgrwt>
<rscale>  0 0.81563617E+02</rscale>
<asrwt>0</asrwt>
<pdfrwt beam="1">  1        1 0.34497872E-01 0.81563627E+02</pdfrwt>
<pdfrwt beam="2">  1       -1 0.46346411E-02 0.81563627E+02</pdfrwt>
<totfact> 0.21992285E+04</totfact>
</mgrwt>
</event>
<event>
 4    1  0.5015492E-001  0.1061191E+03  0.7546771E-02  0.1267930E+00
          2   -1    0    0  501    0  0.00000000000E+00  0.00000000000E+00  0.26168087936E+04  0.26168087936E+04  0.00000000000E+00 0. -1.
         -2   -1    0    0    0  501 -0.00000000000E+00 -0.00000000000E+00 -0.43035621231E+01  0.43035621231E+01  0.00000000000E+00 0.  1.
         24    1    1    2    0    0  0.23319896349E+02  0.65193749506E+02  0.13134611973E+04  0.13177410881E+04  0.80419002446E+02 0.  1.
        -24    1    1    2    0    0 -0.23319896349E+02 -0.65193749506E+02  0.12990440341E+04  0.13033712676E+04  0.80419002446E+02 0.  0.
<mgrwt>
<rscale>  0 0.10611908E+03</rscale>
<asrwt>0</asrwt>
<pdfrwt beam="1">  1        2 0.40258470E+00 0.10611908E+03</pdfrwt>
<pdfrwt beam="2">  1       -2 0.66208857E-03 0.10611908E+03</pdfrwt>
<totfact> 0.13125342E+04</totfact>
</mgrwt>
</event>
<event>
 4    1  0.5015492E-001  0.1109908E+03  0.7546771E-02  0.1258746E+00
          2   -1    0    0  501    0  0.00000000000E+00  0.00000000000E+00  0.21378224879E+03  0.21378224879E+03  0.00000000000E+00 0. -1.
         -2   -1    0    0    0  501 -0.00000000000E+00 -0.00000000000E+00 -0.66206874930E+02  0.66206874930E+02  0.00000000000E+00 0.  1.
         24    1    1    2    0    0  0.26230500938E+02 -0.71858973028E+02  0.12419325552E+03  0.16656209609E+03  0.80419002446E+02 0.  0.
        -24    1    1    2    0    0 -0.26230500938E+02  0.71858973028E+02  0.23382118344E+02  0.11342702763E+03  0.80419002446E+02 0. -1.
<mgrwt>
<rscale>  0 0.11099084E+03</rscale>
<asrwt>0</asrwt>
<pdfrwt beam="1">  1        2 0.32889576E-01 0.11099084E+03</pdfrwt>
<pdfrwt beam="2">  1       -2 0.10185673E-01 0.11099084E+03</pdfrwt>
<totfact> 0.94842820E+03</totfact>
</mgrwt>
</event>
<event>
 4    1  0.5015492E-001  0.8198877E+02  0.7546771E-02  0.1323500E+00
         -2   -1    0    0    0  501 -0.00000000000E+00  0.00000000000E+00  0.15259283713E+02  0.15259283713E+02  0.00000000000E+00 0.  1.
          2   -1    0    0  501    0  0.00000000000E+00 -0.00000000000E+00 -0.56656535098E+03  0.56656535098E+03  0.00000000000E+00 0. -1.
         24    1    1    2    0    0 -0.14843628648E+02  0.58829783088E+01 -0.41286273599E+03  0.42092493092E+03  0.80419002446E+02 0. -1.
        -24    1    1    2    0    0  0.14843628648E+02 -0.58829783088E+01 -0.13844333127E+03  0.16089970377E+03  0.80419002446E+02 0.  1.
<mgrwt>
<rscale>  0 0.81988772E+02</rscale>
<asrwt>0</asrwt>
<pdfrwt beam="1">  1        2 0.87163899E-01 0.81988772E+02</pdfrwt>
<pdfrwt beam="2">  1       -2 0.23475821E-02 0.81988772E+02</pdfrwt>
<totfact> 0.29236516E+04</totfact>
</mgrwt>
</event>
<event>
 4    1  0.5015492E-001  0.8164550E+02  0.7546771E-02  0.1324446E+00
         -2   -1    0    0    0  501 -0.00000000000E+00  0.00000000000E+00  0.36664109202E+03  0.36664109202E+03  0.00000000000E+00 0.  1.
          2   -1    0    0  501    0  0.00000000000E+00 -0.00000000000E+00 -0.23272475726E+02  0.23272475726E+02  0.00000000000E+00 0. -1.
         24    1    1    2    0    0 -0.12808967656E+02 -0.58909127801E+01  0.80498173933E+02  0.11465576508E+03  0.80419002446E+02 0. -1.
        -24    1    1    2    0    0  0.12808967656E+02  0.58909127801E+01  0.26287044236E+03  0.27525780266E+03  0.80419002446E+02 0.  1.
<mgrwt>
<rscale>  0 0.81645505E+02</rscale>
<asrwt>0</asrwt>
<pdfrwt beam="1">  1        2 0.35803811E-02 0.81645505E+02</pdfrwt>
<pdfrwt beam="2">  1       -2 0.56406318E-01 0.81645505E+02</pdfrwt>
<totfact> 0.66373209E+03</totfact>
</mgrwt>
</event>
<event>
 4    1  0.5015492E-001  0.9802723E+02  0.7546771E-02  0.1284500E+00
          1   -1    0    0  501    0  0.00000000000E+00  0.00000000000E+00  0.65886562530E+03  0.65886562530E+03  0.00000000000E+00 0. -1.
         -1   -1    0    0    0  501 -0.00000000000E+00 -0.00000000000E+00 -0.17386403339E+02  0.17386403339E+02  0.00000000000E+00 0.  1.
         24    1    1    2    0    0 -0.56037900994E+02 -0.13691978273E+01  0.18500606559E+03  0.20937187326E+03  0.80419002446E+02 0.  1.
        -24    1    1    2    0    0  0.56037900994E+02  0.13691978273E+01  0.45647315637E+03  0.46688015538E+03  0.80419002446E+02 0. -1.
<mgrwt>
<rscale>  0 0.98027226E+02</rscale>
<asrwt>0</asrwt>
<pdfrwt beam="1">  1        1 0.10136392E+00 0.98027226E+02</pdfrwt>
<pdfrwt beam="2">  1       -1 0.26748318E-02 0.98027226E+02</pdfrwt>
<totfact> 0.12782501E+04</totfact>
</mgrwt>
</event>
<event>
 4    1  0.5015492E-001  0.8529085E+02  0.7546771E-02  0.1314674E+00
         -2   -1    0    0    0  501 -0.00000000000E+00  0.00000000000E+00  0.10083141043E+03  0.10083141043E+03  0.00000000000E+00 0.  1.
          2   -1    0    0  501    0  0.00000000000E+00 -0.00000000000E+00 -0.85247426873E+02  0.85247426873E+02  0.00000000000E+00 0. -1.
         24    1    1    2    0    0  0.46272405604E+01 -0.28033948748E+02 -0.28682933894E+02  0.89984666965E+02  0.80419002446E+02 0. -1.
        -24    1    1    2    0    0 -0.46272405604E+01  0.28033948748E+02  0.44266917449E+02  0.96094170335E+02  0.80419002446E+02 0.  1.
<mgrwt>
<rscale>  0 0.85290853E+02</rscale>
<asrwt>0</asrwt>
<pdfrwt beam="1">  1        2 0.13114989E-01 0.85290853E+02</pdfrwt>
<pdfrwt beam="2">  1       -2 0.15512525E-01 0.85290853E+02</pdfrwt>
<totfact> 0.13222923E+04</totfact>
</mgrwt>
</event>
<event>
 4    1  0.5015492E-001  0.8763298E+02  0.7546771E-02  0.1308687E+00
         -1   -1    0    0    0  501 -0.00000000000E+00  0.00000000000E+00  0.59674231672E+03  0.59674231672E+03  0.00000000000E+00 0.  1.
          1   -1    0    0  501    0  0.00000000000E+00 -0.00000000000E+00 -0.15612567828E+02  0.15612567828E+02  0.00000000000E+00 0. -1.
         24    1    1    2    0    0 -0.23130209959E+02  0.26025301701E+02  0.41891185207E+03  0.42797976436E+03  0.80419002446E+02 0.  1.
        -24    1    1    2    0    0  0.23130209959E+02 -0.26025301701E+02  0.16221789682E+03  0.18437512019E+03  0.80419002446E+02 0. -1.
<mgrwt>
<rscale>  0 0.87632978E+02</rscale>
<asrwt>0</asrwt>
<pdfrwt beam="1">  1        1 0.24019340E-02 0.87632978E+02</pdfrwt>
<pdfrwt beam="2">  1       -1 0.91806492E-01 0.87632978E+02</pdfrwt>
<totfact> 0.52251078E+03</totfact>
</mgrwt>
</event>
<event>
 4    1  0.5015492E-001  0.8644213E+02  0.7546771E-02  0.1311704E+00
          2   -1    0    0  501    0  0.00000000000E+00  0.00000000000E+00  0.72926168122E+03  0.72926168122E+03  0.00000000000E+00 0. -1.
         -2   -1    0    0    0  501 -0.00000000000E+00 -0.00000000000E+00 -0.10254431024E+02  0.10254431024E+02  0.00000000000E+00 0.  1.
         24    1    1    2    0    0 -0.29379444945E+02  0.11911102471E+02  0.36990848592E+03  0.37987436089E+03  0.80419002446E+02 0. -1.
        -24    1    1    2    0    0  0.29379444945E+02 -0.11911102471E+02  0.34909876427E+03  0.35964175135E+03  0.80419002446E+02 0.  1.
<mgrwt>
<rscale>  0 0.86442132E+02</rscale>
<asrwt>0</asrwt>
<pdfrwt beam="1">  1        2 0.11219406E+00 0.86442132E+02</pdfrwt>
<pdfrwt beam="2">  1       -2 0.15776053E-02 0.86442132E+02</pdfrwt>
<totfact> 0.39007045E+04</totfact>
</mgrwt>
</event>
<event>
 4    1  0.5015492E-001  0.8955771E+02  0.7546771E-02  0.1303926E+00
          2   -1    0    0  501    0  0.00000000000E+00  0.00000000000E+00  0.19645981043E+04  0.19645981043E+04  0.00000000000E+00 0. -1.
         -2   -1    0    0    0  501 -0.00000000000E+00 -0.00000000000E+00 -0.43002230958E+01  0.43002230958E+01  0.00000000000E+00 0.  1.
         24    1    1    2    0    0 -0.30593115160E+02 -0.24848034621E+02  0.75866340863E+03  0.76393111409E+03  0.80419002446E+02 0.  1.
        -24    1    1    2    0    0  0.30593115160E+02  0.24848034621E+02  0.12016344726E+04  0.12049672133E+04  0.80419002446E+02 0. -1.
<mgrwt>
<rscale>  0 0.89557699E+02</rscale>
<asrwt>0</asrwt>
<pdfrwt beam="1">  1        2 0.30224515E+00 0.89557710E+02</pdfrwt>
<pdfrwt beam="2">  1       -2 0.66157435E-03 0.89557710E+02</pdfrwt>
<totfact> 0.28274444E+04</totfact>
</mgrwt>
</event>
<event>
 4    1  0.5015492E-001  0.8045795E+02  0.7546771E-02  0.1327757E+00
         -2   -1    0    0    0  501 -0.00000000000E+00  0.00000000000E+00  0.20854467031E+03  0.20854467031E+03  0.00000000000E+00 0.  1.
          2   -1    0    0  501    0  0.00000000000E+00 -0.00000000000E+00 -0.40099140433E+02  0.40099140433E+02  0.00000000000E+00 0. -1.
         24    1    1    2    0    0 -0.21601017867E+01  0.12649421627E+01  0.25135450380E+02  0.84292781059E+02  0.80419002446E+02 0.  0.
        -24    1    1    2    0    0  0.21601017867E+01 -0.12649421627E+01  0.14331007949E+03  0.16435102968E+03  0.80419002446E+02 0.  1.
<mgrwt>
<rscale>  0 0.80457952E+02</rscale>
<asrwt>0</asrwt>
<pdfrwt beam="1">  1        2 0.61690987E-02 0.80457952E+02</pdfrwt>
<pdfrwt beam="2">  1       -2 0.32083795E-01 0.80457952E+02</pdfrwt>
<totfact> 0.95828749E+03</totfact>
</mgrwt>
</event>
<event>
 4    1  0.5015492E-001  0.8884079E+02  0.7546771E-02  0.1305683E+00
          1   -1    0    0  501    0  0.00000000000E+00  0.00000000000E+00  0.17763562559E+03  0.17763562559E+03  0.00000000000E+00 0. -1.
         -1   -1    0    0    0  501 -0.00000000000E+00 -0.00000000000E+00 -0.47870948228E+02  0.47870948228E+02  0.00000000000E+00 0.  1.
         24    1    1    2    0    0 -0.37739189111E+02  0.11058974346E+01  0.34661021187E+02  0.95362842596E+02  0.80419002446E+02 0.  1.
        -24    1    1    2    0    0  0.37739189111E+02 -0.11058974346E+01  0.95103656173E+02  0.13014373122E+03  0.80419002446E+02 0. -1.
<mgrwt>
<rscale>  0 0.88840787E+02</rscale>
<asrwt>0</asrwt>
<pdfrwt beam="1">  1        1 0.27328557E-01 0.88840787E+02</pdfrwt>
<pdfrwt beam="2">  1       -1 0.73647614E-02 0.88840787E+02</pdfrwt>
<totfact> 0.14950752E+04</totfact>
</mgrwt>
</event>
<event>
 4    1  0.5015492E-001  0.8464083E+02  0.7546771E-02  0.1316374E+00
          2   -1    0    0  501    0  0.00000000000E+00  0.00000000000E+00  0.28679853426E+02  0.28679853426E+02  0.00000000000E+00 0. -1.
         -2   -1    0    0    0  501 -0.00000000000E+00 -0.00000000000E+00 -0.77746729468E+03  0.77746729468E+03  0.00000000000E+00 0.  1.
         24    1    1    2    0    0 -0.42854288723E+01  0.26047823597E+02 -0.42326804378E+02  0.94634181657E+02  0.80419002446E+02 0. -1.
        -24    1    1    2    0    0  0.42854288723E+01 -0.26047823597E+02 -0.70646063688E+03  0.71151296645E+03  0.80419002446E+02 0.  1.
<mgrwt>
<rscale>  0 0.84640829E+02</rscale>
<asrwt>0</asrwt>
<pdfrwt beam="1">  1        2 0.44122851E-02 0.84640829E+02</pdfrwt>
<pdfrwt beam="2">  1       -2 0.11961035E+00 0.84640829E+02</pdfrwt>
<totfact> 0.98155826E+02</totfact>
</mgrwt>
</event>
<event>
 4    1  0.5015492E-001  0.8498180E+02  0.7546771E-02  0.1315480E+00
          1   -1    0    0  501    0  0.00000000000E+00  0.00000000000E+00  0.91160719373E+02  0.91160719373E+02  0.00000000000E+00 0. -1.
         -1   -1    0    0    0  501 -0.00000000000E+00 -0.00000000000E+00 -0.79538032166E+02  0.79538032166E+02  0.00000000000E+00 0.  1.
         24    1    1    2    0    0 -0.26877215276E+02 -0.56838026684E+01  0.42875315925E+00  0.84982881202E+02  0.80419002446E+02 0.  1.
        -24    1    1    2    0    0  0.26877215276E+02  0.56838026684E+01  0.11193934047E+02  0.85715870337E+02  0.80419002446E+02 0. -1.
<mgrwt>
<rscale>  0 0.84981800E+02</rscale>
<asrwt>0</asrwt>
<pdfrwt beam="1">  1        1 0.14024726E-01 0.84981800E+02</pdfrwt>
<pdfrwt beam="2">  1       -1 0.12236620E-01 0.84981800E+02</pdfrwt>
<totfact> 0.16024916E+04</totfact>
</mgrwt>
</event>
<event>
 4    1  0.5015492E-001  0.9860566E+02  0.7546771E-02  0.1283256E+00
         -3   -1    0    0    0  501 -0.00000000000E+00  0.00000000000E+00  0.20920114046E+03  0.20920114046E+03  0.00000000000E+00 0.  1.
          3   -1    0    0  501    0  0.00000000000E+00 -0.00000000000E+00 -0.55197414501E+02  0.55197414501E+02  0.00000000000E+00 0. -1.
         24    1    1    2    0    0 -0.56490769967E+02 -0.80404503716E+01  0.24456469362E+02  0.10159326150E+03  0.80419002446E+02 0. -1.
        -24    1    1    2    0    0  0.56490769967E+02  0.80404503716E+01  0.12954725659E+03  0.16280529346E+03  0.80419002446E+02 0.  1.
<mgrwt>
<rscale>  0 0.98605651E+02</rscale>
<asrwt>0</asrwt>
<pdfrwt beam="1">  1        3 0.84919100E-02 0.98605663E+02</pdfrwt>
<pdfrwt beam="2">  1       -3 0.32184791E-01 0.98605663E+02</pdfrwt>
<totfact> 0.19663949E+03</totfact>
</mgrwt>
</event>
<event>
 4    1  0.5015492E-001  0.8340845E+02  0.7546771E-02  0.1319648E+00
          3   -1    0    0  501    0  0.00000000000E+00  0.00000000000E+00  0.11007608877E+03  0.11007608877E+03  0.00000000000E+00 0. -1.
         -3   -1    0    0    0  501 -0.00000000000E+00 -0.00000000000E+00 -0.95482108557E+02  0.95482108557E+02  0.00000000000E+00 0.  1.
         24    1    1    2    0    0  0.13103907903E+02 -0.17833720977E+02 -0.52463603567E+02  0.98536286006E+02  0.80419002446E+02 0.  1.
        -24    1    1    2    0    0 -0.13103907903E+02  0.17833720977E+02  0.67057583786E+02  0.10702191133E+03  0.80419002446E+02 0. -1.
<mgrwt>
<rscale>  0 0.83408453E+02</rscale>
<asrwt>0</asrwt>
<pdfrwt beam="1">  1        3 0.16934783E-01 0.83408453E+02</pdfrwt>
<pdfrwt beam="2">  1       -3 0.14689555E-01 0.83408453E+02</pdfrwt>
<totfact> 0.24057515E+03</totfact>
</mgrwt>
</event>
<event>
 4    1  0.5015492E-001  0.8684868E+02  0.7546771E-02  0.1310668E+00
          1   -1    0    0  501    0  0.00000000000E+00  0.00000000000E+00  0.12112720566E+03  0.12112720566E+03  0.00000000000E+00 0. -1.
         -1   -1    0    0    0  501 -0.00000000000E+00 -0.00000000000E+00 -0.18763578834E+03  0.18763578834E+03  0.00000000000E+00 0.  1.
         24    1    1    2    0    0 -0.55777570576E+01  0.32316642270E+02 -0.15944444665E+03  0.18156327895E+03  0.80419002446E+02 0.  1.
        -24    1    1    2    0    0  0.55777570576E+01 -0.32316642270E+02  0.92935863969E+02  0.12719971504E+03  0.80419002446E+02 0. -1.
<mgrwt>
<rscale>  0 0.86848677E+02</rscale>
<asrwt>0</asrwt>
<pdfrwt beam="1">  1        1 0.18634955E-01 0.86848677E+02</pdfrwt>
<pdfrwt beam="2">  1       -1 0.28867044E-01 0.86848677E+02</pdfrwt>
<totfact> 0.28815082E+03</totfact>
</mgrwt>
</event>
<event>
 4    1  0.5015492E-001  0.3546198E+03  0.7546771E-02  0.1060735E+00
         -2   -1    0    0    0  501 -0.00000000000E+00  0.00000000000E+00  0.17225264736E+03  0.17225264736E+03  0.00000000000E+00 0.  1.
          2   -1    0    0  501    0  0.00000000000E+00 -0.00000000000E+00 -0.97585390820E+03  0.97585390820E+03  0.00000000000E+00 0. -1.
         24    1    1    2    0    0  0.34324039448E+03 -0.38392678608E+02 -0.68990061188E+03  0.77570486423E+03  0.80419002446E+02 0.  1.
        -24    1    1    2    0    0 -0.34324039448E+03  0.38392678608E+02 -0.11370064896E+03  0.37240169132E+03  0.80419002446E+02 0. -1.
<mgrwt>
<rscale>  0 0.35461977E+03</rscale>
<asrwt>0</asrwt>
<pdfrwt beam="1">  1        2 0.15013137E+00 0.35461977E+03</pdfrwt>
<pdfrwt beam="2">  1       -2 0.26500407E-01 0.35461977E+03</pdfrwt>
<totfact> 0.34767149E+02</totfact>
</mgrwt>
</event>
<event>
 4    1  0.5015492E-001  0.8127487E+02  0.7546771E-02  0.1325472E+00
         -1   -1    0    0    0  501 -0.00000000000E+00  0.00000000000E+00  0.59948643622E+02  0.59948643622E+02  0.00000000000E+00 0.  1.
          1   -1    0    0  501    0  0.00000000000E+00 -0.00000000000E+00 -0.11569514712E+03  0.11569514712E+03  0.00000000000E+00 0. -1.
         24    1    1    2    0    0 -0.45937319065E+01 -0.10829879911E+02 -0.87121958669E+01  0.81740485580E+02  0.80419002446E+02 0.  1.
        -24    1    1    2    0    0  0.45937319065E+01  0.10829879911E+02 -0.47034307632E+02  0.93903305163E+02  0.80419002446E+02 0. -1.
<mgrwt>
<rscale>  0 0.81274871E+02</rscale>
<asrwt>0</asrwt>
<pdfrwt beam="1">  1        1 0.17799253E-01 0.81274871E+02</pdfrwt>
<pdfrwt beam="2">  1       -1 0.92228683E-02 0.81274871E+02</pdfrwt>
<totfact> 0.18058644E+04</totfact>
</mgrwt>
</event>
<event>
 4    1  0.5015492E-001  0.8741843E+02  0.7546771E-02  0.1309227E+00
          2   -1    0    0  501    0  0.00000000000E+00  0.00000000000E+00  0.44242109465E+03  0.44242109465E+03  0.00000000000E+00 0. -1.
         -2   -1    0    0    0  501 -0.00000000000E+00 -0.00000000000E+00 -0.21039188231E+02  0.21039188231E+02  0.00000000000E+00 0.  1.
         24    1    1    2    0    0  0.25427045594E+02 -0.22983292575E+02  0.30873324938E+03  0.32087100463E+03  0.80419002446E+02 0.  1.
        -24    1    1    2    0    0 -0.25427045594E+02  0.22983292575E+02  0.11264865704E+03  0.14258927826E+03  0.80419002446E+02 0.  0.
<mgrwt>
<rscale>  0 0.87418432E+02</rscale>
<asrwt>0</asrwt>
<pdfrwt beam="1">  1        2 0.68064777E-01 0.87418432E+02</pdfrwt>
<pdfrwt beam="2">  1       -2 0.32367985E-02 0.87418432E+02</pdfrwt>
<totfact> 0.24153987E+04</totfact>
</mgrwt>
</event>
<event>
 4    1  0.5015492E-001  0.8271507E+02  0.7546771E-02  0.1321518E+00
         -1   -1    0    0    0  501 -0.00000000000E+00  0.00000000000E+00  0.20888585920E+03  0.20888585920E+03  0.00000000000E+00 0.  1.
          1   -1    0    0  501    0  0.00000000000E+00 -0.00000000000E+00 -0.13735283568E+03  0.13735283568E+03  0.00000000000E+00 0. -1.
         24    1    1    2    0    0 -0.19041384750E+02 -0.34631387615E+01  0.18684090226E+03  0.20433136415E+03  0.80419002446E+02 0.  1.
        -24    1    1    2    0    0  0.19041384750E+02  0.34631387615E+01 -0.11530787873E+03  0.14190733073E+03  0.80419002446E+02 0. -1.
<mgrwt>
<rscale>  0 0.82715075E+02</rscale>
<asrwt>0</asrwt>
<pdfrwt beam="1">  1        1 0.21131206E-01 0.82715075E+02</pdfrwt>
<pdfrwt beam="2">  1       -1 0.32136286E-01 0.82715075E+02</pdfrwt>
<totfact> 0.20539101E+03</totfact>
</mgrwt>
</event>
<event>
 4    1  0.5015492E-001  0.1717447E+03  0.7546771E-02  0.1176041E+00
          2   -1    0    0  501    0  0.00000000000E+00  0.00000000000E+00  0.86084169324E+02  0.86084169324E+02  0.00000000000E+00 0. -1.
         -2   -1    0    0    0  501 -0.00000000000E+00 -0.00000000000E+00 -0.45041835371E+03  0.45041835371E+03  0.00000000000E+00 0.  1.
         24    1    1    2    0    0  0.74763948277E+02  0.13205824564E+03 -0.50949828203E+02  0.17914276193E+03  0.80419002446E+02 0. -1.
        -24    1    1    2    0    0 -0.74763948277E+02 -0.13205824564E+03 -0.31338435618E+03  0.35735976110E+03  0.80419002446E+02 0.  1.
<mgrwt>
<rscale>  0 0.17174471E+03</rscale>
<asrwt>0</asrwt>
<pdfrwt beam="1">  1        2 0.13243718E-01 0.17174471E+03</pdfrwt>
<pdfrwt beam="2">  1       -2 0.69295134E-01 0.17174471E+03</pdfrwt>
<totfact> 0.87249817E+02</totfact>
</mgrwt>
</event>
<event>
 4    1  0.5015492E-001  0.8563720E+02  0.7546771E-02  0.1313775E+00
          3   -1    0    0  501    0  0.00000000000E+00  0.00000000000E+00  0.10340325969E+03  0.10340325969E+03  0.00000000000E+00 0. -1.
         -3   -1    0    0    0  501 -0.00000000000E+00 -0.00000000000E+00 -0.71261659439E+02  0.71261659439E+02  0.00000000000E+00 0.  1.
         24    1    1    2    0    0 -0.10041287065E+02  0.27670973480E+02  0.22086371737E+02  0.88439436849E+02  0.80419002446E+02 0. -1.
        -24    1    1    2    0    0  0.10041287065E+02 -0.27670973480E+02  0.10055228512E+02  0.86225482278E+02  0.80419002446E+02 0.  1.
<mgrwt>
<rscale>  0 0.85637188E+02</rscale>
<asrwt>0</asrwt>
<pdfrwt beam="1">  1        3 0.15908194E-01 0.85637199E+02</pdfrwt>
<pdfrwt beam="2">  1       -3 0.10963332E-01 0.85637199E+02</pdfrwt>
<totfact> 0.43834315E+03</totfact>
</mgrwt>
</event>
<event>
 4    1  0.5015492E-001  0.9077306E+02  0.7546771E-02  0.1300990E+00
          1   -1    0    0  501    0  0.00000000000E+00  0.00000000000E+00  0.11013465431E+03  0.11013465431E+03  0.00000000000E+00 0. -1.
         -1   -1    0    0    0  501 -0.00000000000E+00 -0.00000000000E+00 -0.95802811064E+02  0.95802811064E+02  0.00000000000E+00 0.  1.
         24    1    1    2    0    0 -0.23143873262E+02  0.35169486585E+02 -0.41028593085E+02  0.99614723115E+02  0.80419002446E+02 0.  1.
        -24    1    1    2    0    0  0.23143873262E+02 -0.35169486585E+02  0.55360436332E+02  0.10632274226E+03  0.80419002446E+02 0. -1.
<mgrwt>
<rscale>  0 0.90773056E+02</rscale>
<asrwt>0</asrwt>
<pdfrwt beam="1">  1        1 0.16943793E-01 0.90773056E+02</pdfrwt>
<pdfrwt beam="2">  1       -1 0.14738894E-01 0.90773056E+02</pdfrwt>
<totfact> 0.95251822E+03</totfact>
</mgrwt>
</event>
<event>
 4    1  0.5015492E-001  0.1245714E+03  0.7546771E-02  0.1235741E+00
         -2   -1    0    0    0  501 -0.00000000000E+00  0.00000000000E+00  0.46229901368E+02  0.46229901368E+02  0.00000000000E+00 0.  1.
          2   -1    0    0  501    0  0.00000000000E+00 -0.00000000000E+00 -0.51313535995E+03  0.51313535995E+03  0.00000000000E+00 0. -1.
         24    1    1    2    0    0  0.40011263570E+02  0.86312921403E+02 -0.39792969631E+03  0.41697251800E+03  0.80419002446E+02 0. -1.
        -24    1    1    2    0    0 -0.40011263570E+02 -0.86312921403E+02 -0.68975762280E+02  0.14239274332E+03  0.80419002446E+02 0.  1.
<mgrwt>
<rscale>  0 0.12457142E+03</rscale>
<asrwt>0</asrwt>
<pdfrwt beam="1">  1        2 0.78943898E-01 0.12457142E+03</pdfrwt>
<pdfrwt beam="2">  1       -2 0.71122928E-02 0.12457142E+03</pdfrwt>
<totfact> 0.65611696E+03</totfact>
</mgrwt>
</event>
<event>
 4    1  0.5015492E-001  0.2105742E+03  0.7546771E-02  0.1141112E+00
         -1   -1    0    0    0  501 -0.00000000000E+00  0.00000000000E+00  0.13854517090E+03  0.13854517090E+03  0.00000000000E+00 0.  1.
          1   -1    0    0  501    0  0.00000000000E+00 -0.00000000000E+00 -0.50869517984E+03  0.50869517984E+03  0.00000000000E+00 0. -1.
         24    1    1    2    0    0 -0.91358556634E+02 -0.17183687308E+03  0.11998639569E+02  0.21091581289E+03  0.80419002446E+02 0.  1.
        -24    1    1    2    0    0  0.91358556634E+02  0.17183687308E+03 -0.38214864851E+03  0.43632453785E+03  0.80419002446E+02 0. -1.
<mgrwt>
<rscale>  0 0.21057425E+03</rscale>
<asrwt>0</asrwt>
<pdfrwt beam="1">  1        1 0.78260796E-01 0.21057425E+03</pdfrwt>
<pdfrwt beam="2">  1       -1 0.21314642E-01 0.21057425E+03</pdfrwt>
<totfact> 0.80381229E+02</totfact>
</mgrwt>
</event>
<event>
 4    1  0.5015492E-001  0.8281297E+02  0.7546771E-02  0.1321253E+00
         -3   -1    0    0    0  501 -0.00000000000E+00  0.00000000000E+00  0.78640257438E+01  0.78640257438E+01  0.00000000000E+00 0.  1.
          3   -1    0    0  501    0  0.00000000000E+00 -0.00000000000E+00 -0.92423416777E+03  0.92423416777E+03  0.00000000000E+00 0. -1.
         24    1    1    2    0    0 -0.18090984798E+02  0.79679284432E+01 -0.34746578205E+03  0.35719806447E+03  0.80419002446E+02 0.  1.
        -24    1    1    2    0    0  0.18090984798E+02 -0.79679284432E+01 -0.56890435998E+03  0.57490012904E+03  0.80419002446E+02 0. -1.
<mgrwt>
<rscale>  0 0.82812967E+02</rscale>
<asrwt>0</asrwt>
<pdfrwt beam="1">  1        3 0.14218982E+00 0.82812967E+02</pdfrwt>
<pdfrwt beam="2">  1       -3 0.12098505E-02 0.82812967E+02</pdfrwt>
<totfact> 0.16919314E+03</totfact>
</mgrwt>
</event>
<event>
 4    1  0.5015492E-001  0.1416076E+03  0.7546771E-02  0.1211182E+00
         -2   -1    0    0    0  501 -0.00000000000E+00  0.00000000000E+00  0.12904676265E+03  0.12904676265E+03  0.00000000000E+00 0.  1.
          2   -1    0    0  501    0  0.00000000000E+00 -0.00000000000E+00 -0.21716467077E+03  0.21716467077E+03  0.00000000000E+00 0. -1.
         24    1    1    2    0    0  0.27611330906E+02 -0.11323914356E+03 -0.13638378829E+03  0.19660427994E+03  0.80419002446E+02 0. -1.
        -24    1    1    2    0    0 -0.27611330906E+02  0.11323914356E+03  0.48265880177E+02  0.14960715348E+03  0.80419002446E+02 0.  1.
<mgrwt>
<rscale>  0 0.14160757E+03</rscale>
<asrwt>0</asrwt>
<pdfrwt beam="1">  1        2 0.33409949E-01 0.14160757E+03</pdfrwt>
<pdfrwt beam="2">  1       -2 0.19853348E-01 0.14160757E+03</pdfrwt>
<totfact> 0.32056653E+03</totfact>
</mgrwt>
</event>
<event>
 4    1  0.5015492E-001  0.1237023E+03  0.7546771E-02  0.1237111E+00
          2   -1    0    0  501    0  0.00000000000E+00  0.00000000000E+00  0.71951221433E+03  0.71951221433E+03  0.00000000000E+00 0. -1.
         -2   -1    0    0    0  501 -0.00000000000E+00 -0.00000000000E+00 -0.25583684892E+02  0.25583684892E+02  0.00000000000E+00 0.  1.
         24    1    1    2    0    0  0.89575481330E+02  0.28482991522E+02  0.49998420214E+03  0.51505967227E+03  0.80419002446E+02 0. -1.
        -24    1    1    2    0    0 -0.89575481330E+02 -0.28482991522E+02  0.19394432730E+03  0.23003622695E+03  0.80419002446E+02 0.  1.
<mgrwt>
<rscale>  0 0.12370232E+03</rscale>
<asrwt>0</asrwt>
<pdfrwt beam="1">  1        2 0.11069417E+00 0.12370232E+03</pdfrwt>
<pdfrwt beam="2">  1       -2 0.39359521E-02 0.12370232E+03</pdfrwt>
<totfact> 0.10856705E+04</totfact>
</mgrwt>
</event>
<event>
 4    1  0.5015492E-001  0.8300328E+02  0.7546771E-02  0.1320738E+00
         -3   -1    0    0    0  501 -0.00000000000E+00  0.00000000000E+00  0.11180352217E+02  0.11180352217E+02  0.00000000000E+00 0.  1.
          3   -1    0    0  501    0  0.00000000000E+00 -0.00000000000E+00 -0.14791636039E+04  0.14791636039E+04  0.00000000000E+00 0. -1.
         24    1    1    2    0    0 -0.15035647735E+02 -0.14009221863E+02 -0.16482440679E+03  0.18454438498E+03  0.80419002446E+02 0.  0.
        -24    1    1    2    0    0  0.15035647735E+02  0.14009221863E+02 -0.13031588449E+04  0.13057995711E+04  0.80419002446E+02 0. -1.
<mgrwt>
<rscale>  0 0.83003283E+02</rscale>
<asrwt>0</asrwt>
<pdfrwt beam="1">  1        3 0.22756358E+00 0.83003283E+02</pdfrwt>
<pdfrwt beam="2">  1       -3 0.17200546E-02 0.83003283E+02</pdfrwt>
<totfact> 0.29389372E+02</totfact>
</mgrwt>
</event>
<event>
 4    1  0.5015492E-001  0.8147128E+02  0.7546771E-02  0.1324927E+00
          2   -1    0    0  501    0  0.00000000000E+00  0.00000000000E+00  0.66526430517E+03  0.66526430517E+03  0.00000000000E+00 0. -1.
         -2   -1    0    0    0  501 -0.00000000000E+00 -0.00000000000E+00 -0.10236587435E+02  0.10236587435E+02  0.00000000000E+00 0.  1.
         24    1    1    2    0    0  0.79940340128E+01  0.10317273038E+02  0.27376398362E+03  0.28562962974E+03  0.80419002446E+02 0. -1.
        -24    1    1    2    0    0 -0.79940340128E+01 -0.10317273038E+02  0.38126373411E+03  0.38987126286E+03  0.80419002446E+02 0. -1.
<mgrwt>
<rscale>  0 0.81471273E+02</rscale>
<asrwt>0</asrwt>
<pdfrwt beam="1">  1        2 0.10234832E+00 0.81471283E+02</pdfrwt>
<pdfrwt beam="2">  1       -2 0.15748601E-02 0.81471283E+02</pdfrwt>
<totfact> 0.43203676E+04</totfact>
</mgrwt>
</event>
<event>
 4    1  0.5015492E-001  0.2006723E+03  0.7546771E-02  0.1149173E+00
         -2   -1    0    0    0  501 -0.00000000000E+00  0.00000000000E+00  0.34517618452E+02  0.34517618452E+02  0.00000000000E+00 0.  1.
          2   -1    0    0  501    0  0.00000000000E+00 -0.00000000000E+00 -0.24358840542E+04  0.24358840542E+04  0.00000000000E+00 0. -1.
         24    1    1    2    0    0  0.15915771246E+03 -0.92038015409E+02 -0.20923098922E+04  0.21019110529E+04  0.80419002446E+02 0. -1.
        -24    1    1    2    0    0 -0.15915771246E+03  0.92038015409E+02 -0.30905654355E+03  0.36849061967E+03  0.80419002446E+02 0.  1.
<mgrwt>
<rscale>  0 0.20067234E+03</rscale>
<asrwt>0</asrwt>
<pdfrwt beam="1">  1        2 0.37475144E+00 0.20067234E+03</pdfrwt>
<pdfrwt beam="2">  1       -2 0.53104022E-02 0.20067234E+03</pdfrwt>
<totfact> 0.78706670E+02</totfact>
</mgrwt>
</event>
<event>
 4    1  0.5015492E-001  0.8715226E+02  0.7546771E-02  0.1309898E+00
          2   -1    0    0  501    0  0.00000000000E+00  0.00000000000E+00  0.44608784263E+03  0.44608784263E+03  0.00000000000E+00 0. -1.
         -2   -1    0    0    0  501 -0.00000000000E+00 -0.00000000000E+00 -0.41531565903E+02  0.41531565903E+02  0.00000000000E+00 0.  1.
         24    1    1    2    0    0  0.33572634992E+02  0.10857896492E+01  0.38955570518E+03  0.39918562619E+03  0.80419002446E+02 0. -1.
        -24    1    1    2    0    0 -0.33572634992E+02 -0.10857896492E+01  0.15000571547E+02  0.88433782349E+02  0.80419002446E+02 0.  1.
<mgrwt>
<rscale>  0 0.87152262E+02</rscale>
<asrwt>0</asrwt>
<pdfrwt beam="1">  1        2 0.68628895E-01 0.87152262E+02</pdfrwt>
<pdfrwt beam="2">  1       -2 0.63894720E-02 0.87152262E+02</pdfrwt>
<totfact> 0.87596985E+03</totfact>
</mgrwt>
</event>
<event>
 4    1  0.5015492E-001  0.1024071E+03  0.7546771E-02  0.1275314E+00
         -1   -1    0    0    0  501 -0.00000000000E+00  0.00000000000E+00  0.15955217460E+03  0.15955217460E+03  0.00000000000E+00 0.  1.
          1   -1    0    0  501    0  0.00000000000E+00 -0.00000000000E+00 -0.66904206105E+02  0.66904206105E+02  0.00000000000E+00 0. -1.
         24    1    1    2    0    0  0.33160437703E+02  0.54040511001E+02  0.61330571825E+02  0.11936769434E+03  0.80419002446E+02 0.  1.
        -24    1    1    2    0    0 -0.33160437703E+02 -0.54040511001E+02  0.31317396667E+02  0.10708868636E+03  0.80419002446E+02 0. -1.
<mgrwt>
<rscale>  0 0.10240707E+03</rscale>
<asrwt>0</asrwt>
<pdfrwt beam="1">  1        1 0.10292955E-01 0.10240707E+03</pdfrwt>
<pdfrwt beam="2">  1       -1 0.24546488E-01 0.10240707E+03</pdfrwt>
<totfact> 0.81631438E+03</totfact>
</mgrwt>
</event>
<event>
 4    1  0.5015492E-001  0.1043515E+03  0.7546771E-02  0.1271403E+00
         -2   -1    0    0    0  501 -0.00000000000E+00  0.00000000000E+00  0.36011870305E+01  0.36011870305E+01  0.00000000000E+00 0.  1.
          2   -1    0    0  501    0  0.00000000000E+00 -0.00000000000E+00 -0.31290879018E+04  0.31290879018E+04  0.00000000000E+00 0. -1.
         24    1    1    2    0    0 -0.66456316809E+02  0.23630429421E+01 -0.18500749159E+04  0.18530154982E+04  0.80419002446E+02 0.  1.
        -24    1    1    2    0    0  0.66456316809E+02 -0.23630429421E+01 -0.12754117989E+04  0.12796735907E+04  0.80419002446E+02 0. -1.
<mgrwt>
<rscale>  0 0.10435153E+03</rscale>
<asrwt>0</asrwt>
<pdfrwt beam="1">  1        2 0.48139870E+00 0.10435153E+03</pdfrwt>
<pdfrwt beam="2">  1       -2 0.55402813E-03 0.10435153E+03</pdfrwt>
<totfact> 0.87105404E+03</totfact>
</mgrwt>
</event>
<event>
 4    1  0.5015492E-001  0.9729954E+02  0.7546771E-02  0.1286079E+00
         -2   -1    0    0    0  501 -0.00000000000E+00  0.00000000000E+00  0.90820381565E+01  0.90820381565E+01  0.00000000000E+00 0.  1.
          2   -1    0    0  501    0  0.00000000000E+00 -0.00000000000E+00 -0.12084604209E+04  0.12084604209E+04  0.00000000000E+00 0. -1.
         24    1    1    2    0    0  0.54578426955E+02 -0.46021455021E+01 -0.82535143587E+03  0.83106690049E+03  0.80419002446E+02 0. -1.
        -24    1    1    2    0    0 -0.54578426955E+02  0.46021455021E+01 -0.37402694686E+03  0.38647555856E+03  0.80419002446E+02 0.  1.
<mgrwt>
<rscale>  0 0.97299539E+02</rscale>
<asrwt>0</asrwt>
<pdfrwt beam="1">  1        2 0.18591685E+00 0.97299539E+02</pdfrwt>
<pdfrwt beam="2">  1       -2 0.13972377E-02 0.97299539E+02</pdfrwt>
<totfact> 0.24080636E+04</totfact>
</mgrwt>
</event>
<event>
 4    1  0.5015492E-001  0.8197756E+02  0.7546771E-02  0.1323531E+00
          2   -1    0    0  501    0  0.00000000000E+00  0.00000000000E+00  0.16254513465E+04  0.16254513465E+04  0.00000000000E+00 0. -1.
         -2   -1    0    0    0  501 -0.00000000000E+00 -0.00000000000E+00 -0.42536302430E+01  0.42536302430E+01  0.00000000000E+00 0.  1.
         24    1    1    2    0    0 -0.10744126307E+02 -0.11733228249E+02  0.94700405943E+03  0.95054563774E+03  0.80419002446E+02 0.  1.
        -24    1    1    2    0    0  0.10744126307E+02  0.11733228249E+02  0.67419365686E+03  0.67915933904E+03  0.80419002446E+02 0.  1.
<mgrwt>
<rscale>  0 0.81977563E+02</rscale>
<asrwt>0</asrwt>
<pdfrwt beam="1">  1        2 0.25006894E+00 0.81977563E+02</pdfrwt>
<pdfrwt beam="2">  1       -2 0.65440595E-03 0.81977563E+02</pdfrwt>
<totfact> 0.42141216E+04</totfact>
</mgrwt>
</event>
<event>
 4    1  0.5015492E-001  0.9312417E+02  0.7546771E-02  0.1295458E+00
          2   -1    0    0  501    0  0.00000000000E+00  0.00000000000E+00  0.12166778559E+04  0.12166778559E+04  0.00000000000E+00 0. -1.
         -2   -1    0    0    0  501 -0.00000000000E+00 -0.00000000000E+00 -0.88520147374E+01  0.88520147374E+01  0.00000000000E+00 0.  1.
         24    1    1    2    0    0 -0.40917019977E+02 -0.23036751536E+02  0.87435954304E+03  0.87930468036E+03  0.80419002446E+02 0. -1.
        -24    1    1    2    0    0  0.40917019977E+02  0.23036751536E+02  0.33346629817E+03  0.34622519032E+03  0.80419002446E+02 0.  1.
<mgrwt>
<rscale>  0 0.93124167E+02</rscale>
<asrwt>0</asrwt>
<pdfrwt beam="1">  1        2 0.18718108E+00 0.93124167E+02</pdfrwt>
<pdfrwt beam="2">  1       -2 0.13618494E-02 0.93124167E+02</pdfrwt>
<totfact> 0.24633080E+04</totfact>
</mgrwt>
</event>
<event>
 4    1  0.5015492E-001  0.1294306E+03  0.7546771E-02  0.1228303E+00
          1   -1    0    0  501    0  0.00000000000E+00  0.00000000000E+00  0.28091003784E+03  0.28091003784E+03  0.00000000000E+00 0. -1.
         -1   -1    0    0    0  501 -0.00000000000E+00 -0.00000000000E+00 -0.60734151221E+02  0.60734151221E+02  0.00000000000E+00 0.  1.
         24    1    1    2    0    0 -0.58778561464E+02 -0.82644564734E+02  0.13306123198E+03  0.18562745157E+03  0.80419002446E+02 0. -1.
        -24    1    1    2    0    0  0.58778561464E+02  0.82644564734E+02  0.87114654634E+02  0.15601673748E+03  0.80419002446E+02 0.  1.
<mgrwt>
<rscale>  0 0.12943054E+03</rscale>
<asrwt>0</asrwt>
<pdfrwt beam="1">  1        1 0.43216928E-01 0.12943055E+03</pdfrwt>
<pdfrwt beam="2">  1       -1 0.93437157E-02 0.12943055E+03</pdfrwt>
<totfact> 0.61388789E+03</totfact>
</mgrwt>
</event>
<event>
 4    1  0.5015492E-001  0.8109820E+02  0.7546771E-02  0.1325963E+00
          2   -1    0    0  501    0  0.00000000000E+00  0.00000000000E+00  0.71116893644E+03  0.71116893644E+03  0.00000000000E+00 0. -1.
         -2   -1    0    0    0  501 -0.00000000000E+00 -0.00000000000E+00 -0.10803846906E+02  0.10803846906E+02  0.00000000000E+00 0.  1.
         24    1    1    2    0    0 -0.89627802962E+01 -0.54194977214E+01  0.48716960683E+03  0.49387361152E+03  0.80419002446E+02 0.  0.
        -24    1    1    2    0    0  0.89627802962E+01  0.54194977214E+01  0.21319548270E+03  0.22809917182E+03  0.80419002446E+02 0.  1.
<mgrwt>
<rscale>  0 0.81098202E+02</rscale>
<asrwt>0</asrwt>
<pdfrwt beam="1">  1        2 0.10941057E+00 0.81098202E+02</pdfrwt>
<pdfrwt beam="2">  1       -2 0.16621308E-02 0.81098202E+02</pdfrwt>
<totfact> 0.37022123E+04</totfact>
</mgrwt>
</event>
<event>
 4    1  0.5015492E-001  0.8629165E+02  0.7546771E-02  0.1312089E+00
         -1   -1    0    0    0  501 -0.00000000000E+00  0.00000000000E+00  0.13697421944E+03  0.13697421944E+03  0.00000000000E+00 0.  1.
          1   -1    0    0  501    0  0.00000000000E+00 -0.00000000000E+00 -0.12912485135E+03  0.12912485135E+03  0.00000000000E+00 0. -1.
         24    1    1    2    0    0 -0.31070960415E+02  0.36917629076E+01  0.10516422373E+03  0.13603589085E+03  0.80419002446E+02 0.  1.
        -24    1    1    2    0    0  0.31070960415E+02 -0.36917629076E+01 -0.97314855631E+02  0.13006317994E+03  0.80419002446E+02 0. -1.
<mgrwt>
<rscale>  0 0.86291655E+02</rscale>
<asrwt>0</asrwt>
<pdfrwt beam="1">  1        1 0.19865362E-01 0.86291655E+02</pdfrwt>
<pdfrwt beam="2">  1       -1 0.21072957E-01 0.86291655E+02</pdfrwt>
<totfact> 0.44274151E+03</totfact>
</mgrwt>
</event>
<event>
 4    1  0.5015492E-001  0.8936485E+02  0.7546771E-02  0.1304397E+00
          1   -1    0    0  501    0  0.00000000000E+00  0.00000000000E+00  0.11386506374E+03  0.11386506374E+03  0.00000000000E+00 0. -1.
         -1   -1    0    0    0  501 -0.00000000000E+00 -0.00000000000E+00 -0.99909294307E+02  0.99909294307E+02  0.00000000000E+00 0.  1.
         24    1    1    2    0    0 -0.38523170648E+02 -0.59013659628E+01 -0.51371162364E+02  0.10307799510E+03  0.80419002446E+02 0.  1.
        -24    1    1    2    0    0  0.38523170648E+02  0.59013659628E+01  0.65326931793E+02  0.11069636294E+03  0.80419002446E+02 0. -1.
<mgrwt>
<rscale>  0 0.89364852E+02</rscale>
<asrwt>0</asrwt>
<pdfrwt beam="1">  1        1 0.17517702E-01 0.89364852E+02</pdfrwt>
<pdfrwt beam="2">  1       -1 0.15370661E-01 0.89364852E+02</pdfrwt>
<totfact> 0.85437952E+03</totfact>
</mgrwt>
</event>
<event>
 4    1  0.5015492E-001  0.1010993E+03  0.7546771E-02  0.1278001E+00
         -1   -1    0    0    0  501 -0.00000000000E+00  0.00000000000E+00  0.15485464227E+03  0.15485464227E+03  0.00000000000E+00 0.  1.
          1   -1    0    0  501    0  0.00000000000E+00 -0.00000000000E+00 -0.31364602441E+03  0.31364602441E+03  0.00000000000E+00 0. -1.
         24    1    1    2    0    0 -0.60404549375E+02  0.10253671160E+02  0.12875232915E+03  0.16370163583E+03  0.80419002446E+02 0.  1.
        -24    1    1    2    0    0  0.60404549375E+02 -0.10253671160E+02 -0.28754371129E+03  0.30479903086E+03  0.80419002446E+02 0. -1.
<mgrwt>
<rscale>  0 0.10109927E+03</rscale>
<asrwt>0</asrwt>
<pdfrwt beam="1">  1        1 0.48253234E-01 0.10109927E+03</pdfrwt>
<pdfrwt beam="2">  1       -1 0.23823792E-01 0.10109927E+03</pdfrwt>
<totfact> 0.12273004E+03</totfact>
</mgrwt>
</event>
<event>
 4    1  0.5015492E-001  0.9437695E+02  0.7546771E-02  0.1292586E+00
          2   -1    0    0  501    0  0.00000000000E+00  0.00000000000E+00  0.13419773119E+03  0.13419773119E+03  0.00000000000E+00 0. -1.
         -2   -1    0    0    0  501 -0.00000000000E+00 -0.00000000000E+00 -0.77690998970E+02  0.77690998970E+02  0.00000000000E+00 0.  1.
         24    1    1    2    0    0  0.29596553100E+02 -0.39545330724E+02 -0.12184828941E+02  0.95160260341E+02  0.80419002446E+02 0.  0.
        -24    1    1    2    0    0 -0.29596553100E+02  0.39545330724E+02  0.68691561166E+02  0.11672846982E+03  0.80419002446E+02 0. -1.
<mgrwt>
<rscale>  0 0.94376943E+02</rscale>
<asrwt>0</asrwt>
<pdfrwt beam="1">  1        2 0.20645805E-01 0.94376955E+02</pdfrwt>
<pdfrwt beam="2">  1       -2 0.11952461E-01 0.94376955E+02</pdfrwt>
<totfact> 0.12070810E+04</totfact>
</mgrwt>
</event>
<event>
 4    1  0.5015492E-001  0.9223099E+02  0.7546771E-02  0.1297537E+00
         -1   -1    0    0    0  501 -0.00000000000E+00  0.00000000000E+00  0.73206387308E+01  0.73206387308E+01  0.00000000000E+00 0.  1.
          1   -1    0    0  501    0  0.00000000000E+00 -0.00000000000E+00 -0.17380424490E+04  0.17380424490E+04  0.00000000000E+00 0. -1.
         24    1    1    2    0    0  0.27219364664E+02  0.36033954734E+02 -0.36295560476E+03  0.37449075648E+03  0.80419002446E+02 0.  1.
        -24    1    1    2    0    0 -0.27219364664E+02 -0.36033954734E+02 -0.13677662055E+04  0.13708723312E+04  0.80419002446E+02 0. -1.
<mgrwt>
<rscale>  0 0.92230991E+02</rscale>
<asrwt>0</asrwt>
<pdfrwt beam="1">  1        1 0.26739125E+00 0.92230991E+02</pdfrwt>
<pdfrwt beam="2">  1       -1 0.11262517E-02 0.92230991E+02</pdfrwt>
<totfact> 0.76177741E+03</totfact>
</mgrwt>
</event>
<event>
 4    1  0.5015492E-001  0.9493269E+02  0.7546771E-02  0.1291328E+00
          3   -1    0    0  501    0  0.00000000000E+00  0.00000000000E+00  0.14265420104E+03  0.14265420104E+03  0.00000000000E+00 0. -1.
         -3   -1    0    0    0  501 -0.00000000000E+00 -0.00000000000E+00 -0.75871227323E+03  0.75871227323E+03  0.00000000000E+00 0.  1.
         24    1    1    2    0    0 -0.50331542913E+02  0.34257818398E+01 -0.73954113148E+03  0.74560934898E+03  0.80419002446E+02 0.  1.
        -24    1    1    2    0    0  0.50331542913E+02 -0.34257818398E+01  0.12348305928E+03  0.15575712529E+03  0.80419002446E+02 0. -1.
<mgrwt>
<rscale>  0 0.94932693E+02</rscale>
<asrwt>0</asrwt>
<pdfrwt beam="1">  1        3 0.21946800E-01 0.94932693E+02</pdfrwt>
<pdfrwt beam="2">  1       -3 0.11672496E+00 0.94932693E+02</pdfrwt>
<totfact> 0.27654815E+01</totfact>
</mgrwt>
</event>
<event>
 4    1  0.5015492E-001  0.8232322E+02  0.7546771E-02  0.1322585E+00
         -2   -1    0    0    0  501 -0.00000000000E+00  0.00000000000E+00  0.26167073045E+01  0.26167073045E+01  0.00000000000E+00 0.  1.
          2   -1    0    0  501    0  0.00000000000E+00 -0.00000000000E+00 -0.25981867617E+04  0.25981867617E+04  0.00000000000E+00 0. -1.
         24    1    1    2    0    0  0.25548110294E+01 -0.17417395890E+02 -0.12245115687E+04  0.12272757191E+04  0.80419002446E+02 0.  1.
        -24    1    1    2    0    0 -0.25548110294E+01  0.17417395890E+02 -0.13710584857E+04  0.13735277499E+04  0.80419002446E+02 0. -1.
<mgrwt>
<rscale>  0 0.82323207E+02</rscale>
<asrwt>0</asrwt>
<pdfrwt beam="1">  1        2 0.39972182E+00 0.82323217E+02</pdfrwt>
<pdfrwt beam="2">  1       -2 0.40256957E-03 0.82323217E+02</pdfrwt>
<totfact> 0.26687010E+04</totfact>
</mgrwt>
</event>
<event>
 4    1  0.5015492E-001  0.8394967E+02  0.7546771E-02  0.1318202E+00
         -1   -1    0    0    0  501 -0.00000000000E+00  0.00000000000E+00  0.34058132099E+02  0.34058132099E+02  0.00000000000E+00 0.  1.
          1   -1    0    0  501    0  0.00000000000E+00 -0.00000000000E+00 -0.52098944282E+03  0.52098944282E+03  0.00000000000E+00 0. -1.
         24    1    1    2    0    0  0.51586675224E+01 -0.23531222963E+02 -0.27992202229E+02  0.88493557080E+02  0.80419002446E+02 0.  1.
        -24    1    1    2    0    0 -0.51586675224E+01  0.23531222963E+02 -0.45893910849E+03  0.46655401784E+03  0.80419002446E+02 0. -1.
<mgrwt>
<rscale>  0 0.83949665E+02</rscale>
<asrwt>0</asrwt>
<pdfrwt beam="1">  1        1 0.80152220E-01 0.83949665E+02</pdfrwt>
<pdfrwt beam="2">  1       -1 0.52397128E-02 0.83949665E+02</pdfrwt>
<totfact> 0.65168564E+03</totfact>
</mgrwt>
</event>
<event>
 4    1  0.5015492E-001  0.8477104E+02  0.7546771E-02  0.1316032E+00
          1   -1    0    0  501    0  0.00000000000E+00  0.00000000000E+00  0.98786560044E+03  0.98786560044E+03  0.00000000000E+00 0. -1.
         -1   -1    0    0    0  501 -0.00000000000E+00 -0.00000000000E+00 -0.48648958957E+02  0.48648958957E+02  0.00000000000E+00 0.  1.
         24    1    1    2    0    0  0.23543342099E+02 -0.12830583113E+02 -0.83338240578E+01  0.85179700622E+02  0.80419002446E+02 0.  1.
        -24    1    1    2    0    0 -0.23543342099E+02  0.12830583113E+02  0.94755046554E+03  0.95133485877E+03  0.80419002446E+02 0. -1.
<mgrwt>
<rscale>  0 0.84771037E+02</rscale>
<asrwt>0</asrwt>
<pdfrwt beam="1">  1        1 0.15197931E+00 0.84771037E+02</pdfrwt>
<pdfrwt beam="2">  1       -1 0.74844560E-02 0.84771037E+02</pdfrwt>
<totfact> 0.15427302E+03</totfact>
</mgrwt>
</event>
<event>
 4    1  0.5015492E-001  0.8575649E+02  0.7546771E-02  0.1313466E+00
          2   -1    0    0  501    0  0.00000000000E+00  0.00000000000E+00  0.11237405819E+03  0.11237405819E+03  0.00000000000E+00 0. -1.
         -2   -1    0    0    0  501 -0.00000000000E+00 -0.00000000000E+00 -0.85967341449E+02  0.85967341449E+02  0.00000000000E+00 0.  1.
         24    1    1    2    0    0  0.18575005884E+02  0.23279363688E+02  0.61658928241E+02  0.10562196269E+03  0.80419002446E+02 0. -1.
        -24    1    1    2    0    0 -0.18575005884E+02 -0.23279363688E+02 -0.35252211500E+02  0.92719436945E+02  0.80419002446E+02 0.  1.
<mgrwt>
<rscale>  0 0.85756490E+02</rscale>
<asrwt>0</asrwt>
<pdfrwt beam="1">  1        2 0.17288317E-01 0.85756490E+02</pdfrwt>
<pdfrwt beam="2">  1       -2 0.13225745E-01 0.85756490E+02</pdfrwt>
<totfact> 0.12430342E+04</totfact>
</mgrwt>
</event>
<event>
 4    1  0.5015492E-001  0.8894234E+02  0.7546771E-02  0.1305433E+00
          1   -1    0    0  501    0  0.00000000000E+00  0.00000000000E+00  0.77642243345E+03  0.77642243345E+03  0.00000000000E+00 0. -1.
         -1   -1    0    0    0  501 -0.00000000000E+00 -0.00000000000E+00 -0.18899142559E+02  0.18899142559E+02  0.00000000000E+00 0.  1.
         24    1    1    2    0    0 -0.67027332755E+01 -0.37397818285E+02  0.10879401446E+03  0.14052358159E+03  0.80419002446E+02 0.  1.
        -24    1    1    2    0    0  0.67027332755E+01  0.37397818285E+02  0.64872927643E+03  0.65479799442E+03  0.80419002446E+02 0. -1.
<mgrwt>
<rscale>  0 0.88942338E+02</rscale>
<asrwt>0</asrwt>
<pdfrwt beam="1">  1        1 0.11944958E+00 0.88942338E+02</pdfrwt>
<pdfrwt beam="2">  1       -1 0.29075610E-02 0.88942338E+02</pdfrwt>
<totfact> 0.89129456E+03</totfact>
</mgrwt>
</event>
<event>
 4    1  0.5015492E-001  0.8315302E+02  0.7546771E-02  0.1320334E+00
         -2   -1    0    0    0  501 -0.00000000000E+00  0.00000000000E+00  0.16145879800E+03  0.16145879800E+03  0.00000000000E+00 0.  1.
          2   -1    0    0  501    0  0.00000000000E+00 -0.00000000000E+00 -0.43512088250E+02  0.43512088250E+02  0.00000000000E+00 0. -1.
         24    1    1    2    0    0 -0.16374028836E+02 -0.13382844027E+02  0.46092137840E+02  0.95073184756E+02  0.80419002446E+02 0. -1.
        -24    1    1    2    0    0  0.16374028836E+02  0.13382844027E+02  0.71854571906E+02  0.10989770149E+03  0.80419002446E+02 0.  1.
<mgrwt>
<rscale>  0 0.83153023E+02</rscale>
<asrwt>0</asrwt>
<pdfrwt beam="1">  1        2 0.66941675E-02 0.83153023E+02</pdfrwt>
<pdfrwt beam="2">  1       -2 0.24839815E-01 0.83153023E+02</pdfrwt>
<totfact> 0.13613438E+04</totfact>
</mgrwt>
</event>
<event>
 4    1  0.5015492E-001  0.1228632E+03  0.7546771E-02  0.1238447E+00
          1   -1    0    0  501    0  0.00000000000E+00  0.00000000000E+00  0.66434929809E+01  0.66434929809E+01  0.00000000000E+00 0. -1.
         -1   -1    0    0    0  501 -0.00000000000E+00 -0.00000000000E+00 -0.25865145593E+04  0.25865145593E+04  0.00000000000E+00 0.  1.
         24    1    1    2    0    0 -0.70687195380E+02 -0.60261756086E+02 -0.17419170274E+04  0.17462446293E+04  0.80419002446E+02 0.  1.
        -24    1    1    2    0    0  0.70687195380E+02  0.60261756086E+02 -0.83795403890E+03  0.84691342302E+03  0.80419002446E+02 0.  0.
<mgrwt>
<rscale>  0 0.12286324E+03</rscale>
<asrwt>0</asrwt>
<pdfrwt beam="1">  1        1 0.10220752E-02 0.12286324E+03</pdfrwt>
<pdfrwt beam="2">  1       -1 0.39792556E+00 0.12286324E+03</pdfrwt>
<totfact> 0.14450766E+02</totfact>
</mgrwt>
</event>
<event>
 4    1  0.5015492E-001  0.1043456E+03  0.7546771E-02  0.1271414E+00
         -1   -1    0    0    0  501 -0.00000000000E+00  0.00000000000E+00  0.20386960889E+02  0.20386960889E+02  0.00000000000E+00 0.  1.
          1   -1    0    0  501    0  0.00000000000E+00 -0.00000000000E+00 -0.82558437036E+03  0.82558437036E+03  0.00000000000E+00 0. -1.
         24    1    1    2    0    0 -0.28182055984E+02  0.60220929863E+02 -0.15124975221E+03  0.18375116917E+03  0.80419002446E+02 0.  1.
        -24    1    1    2    0    0  0.28182055984E+02 -0.60220929863E+02 -0.65394765726E+03  0.66222016208E+03  0.80419002446E+02 0. -1.
<mgrwt>
<rscale>  0 0.10434560E+03</rscale>
<asrwt>0</asrwt>
<pdfrwt beam="1">  1        1 0.12701294E+00 0.10434560E+03</pdfrwt>
<pdfrwt beam="2">  1       -1 0.31364564E-02 0.10434560E+03</pdfrwt>
<totfact> 0.73694774E+03</totfact>
</mgrwt>
</event>
<event>
 4    1  0.5015492E-001  0.8049669E+02  0.7546771E-02  0.1327648E+00
         -2   -1    0    0    0  501 -0.00000000000E+00  0.00000000000E+00  0.14414003337E+01  0.14414003337E+01  0.00000000000E+00 0.  1.
          2   -1    0    0  501    0  0.00000000000E+00 -0.00000000000E+00 -0.44960081726E+04  0.44960081726E+04  0.00000000000E+00 0. -1.
         24    1    1    2    0    0 -0.17610686133E+01  0.30652960859E+01 -0.22217682646E+04  0.22232260198E+04  0.80419002446E+02 0. -1.
        -24    1    1    2    0    0  0.17610686133E+01 -0.30652960859E+01 -0.22727985076E+04  0.22742235531E+04  0.80419002446E+02 0.  1.
<mgrwt>
<rscale>  0 0.80496677E+02</rscale>
<asrwt>0</asrwt>
<pdfrwt beam="1">  1        2 0.69169260E+00 0.80496687E+02</pdfrwt>
<pdfrwt beam="2">  1       -2 0.22175421E-03 0.80496687E+02</pdfrwt>
<totfact> 0.33455091E+03</totfact>
</mgrwt>
</event>
<event>
 4    1  0.5015492E-001  0.1030136E+03  0.7546771E-02  0.1274083E+00
         -2   -1    0    0    0  501 -0.00000000000E+00  0.00000000000E+00  0.11570577102E+02  0.11570577102E+02  0.00000000000E+00 0.  1.
          2   -1    0    0  501    0  0.00000000000E+00 -0.00000000000E+00 -0.12323679120E+04  0.12323679120E+04  0.00000000000E+00 0. -1.
         24    1    1    2    0    0 -0.55713723177E+02  0.32257903858E+02 -0.92496551211E+03  0.93068416010E+03  0.80419002446E+02 0. -1.
        -24    1    1    2    0    0  0.55713723177E+02 -0.32257903858E+02 -0.29583182279E+03  0.31325432901E+03  0.80419002446E+02 0.  1.
<mgrwt>
<rscale>  0 0.10301363E+03</rscale>
<asrwt>0</asrwt>
<pdfrwt beam="1">  1        2 0.18959493E+00 0.10301363E+03</pdfrwt>
<pdfrwt beam="2">  1       -2 0.17800900E-02 0.10301363E+03</pdfrwt>
<totfact> 0.16594983E+04</totfact>
</mgrwt>
</event>
<event>
 4    1  0.5015492E-001  0.8061185E+02  0.7546771E-02  0.1327324E+00
         -2   -1    0    0    0  501 -0.00000000000E+00  0.00000000000E+00  0.12225628052E+04  0.12225628052E+04  0.00000000000E+00 0.  1.
          2   -1    0    0  501    0  0.00000000000E+00 -0.00000000000E+00 -0.53278465704E+01  0.53278465704E+01  0.00000000000E+00 0. -1.
         24    1    1    2    0    0  0.44271728798E+01  0.33838813517E+01  0.63843160530E+03  0.64350072347E+03  0.80419002446E+02 0. -1.
        -24    1    1    2    0    0 -0.44271728798E+01 -0.33838813517E+01  0.57880335330E+03  0.58438992827E+03  0.80419002446E+02 0.  1.
<mgrwt>
<rscale>  0 0.80611836E+02</rscale>
<asrwt>0</asrwt>
<pdfrwt beam="1">  1        2 0.81966968E-03 0.80611846E+02</pdfrwt>
<pdfrwt beam="2">  1       -2 0.18808636E+00 0.80611846E+02</pdfrwt>
<totfact> 0.29662687E+03</totfact>
</mgrwt>
</event>
<event>
 4    1  0.5015492E-001  0.8284966E+02  0.7546771E-02  0.1321154E+00
          1   -1    0    0  501    0  0.00000000000E+00  0.00000000000E+00  0.50485386299E+02  0.50485386299E+02  0.00000000000E+00 0. -1.
         -1   -1    0    0    0  501 -0.00000000000E+00 -0.00000000000E+00 -0.40757296815E+03  0.40757296815E+03  0.00000000000E+00 0.  1.
         24    1    1    2    0    0 -0.19914268322E+02  0.52144229045E+00 -0.36550961343E+03  0.37478172774E+03  0.80419002446E+02 0.  1.
        -24    1    1    2    0    0  0.19914268322E+02 -0.52144229045E+00  0.84220315825E+01  0.83276626704E+02  0.80419002446E+02 0. -1.
<mgrwt>
<rscale>  0 0.82849659E+02</rscale>
<asrwt>0</asrwt>
<pdfrwt beam="1">  1        1 0.77669824E-02 0.82849659E+02</pdfrwt>
<pdfrwt beam="2">  1       -1 0.62703534E-01 0.82849659E+02</pdfrwt>
<totfact> 0.22786433E+03</totfact>
</mgrwt>
</event>
<event>
 4    1  0.5015492E-001  0.1258061E+03  0.7546771E-02  0.1233815E+00
          1   -1    0    0  501    0  0.00000000000E+00  0.00000000000E+00  0.10971114282E+03  0.10971114282E+03  0.00000000000E+00 0. -1.
         -1   -1    0    0    0  501 -0.00000000000E+00 -0.00000000000E+00 -0.32219683822E+03  0.32219683822E+03  0.00000000000E+00 0.  1.
         24    1    1    2    0    0 -0.72231492878E+02  0.64362794212E+02 -0.26672650509E+03  0.29490710794E+03  0.80419002446E+02 0.  1.
        -24    1    1    2    0    0  0.72231492878E+02 -0.64362794212E+02  0.54240809690E+02  0.13700087311E+03  0.80419002446E+02 0. -1.
<mgrwt>
<rscale>  0 0.12580610E+03</rscale>
<asrwt>0</asrwt>
<pdfrwt beam="1">  1        1 0.16878637E-01 0.12580610E+03</pdfrwt>
<pdfrwt beam="2">  1       -1 0.49568744E-01 0.12580610E+03</pdfrwt>
<totfact> 0.13050491E+03</totfact>
</mgrwt>
</event>
<event>
 4    1  0.5015492E-001  0.8174407E+02  0.7546771E-02  0.1324174E+00
          2   -1    0    0  501    0  0.00000000000E+00  0.00000000000E+00  0.86269285208E+03  0.86269285208E+03  0.00000000000E+00 0. -1.
         -2   -1    0    0    0  501 -0.00000000000E+00 -0.00000000000E+00 -0.84547783489E+01  0.84547783489E+01  0.00000000000E+00 0.  1.
         24    1    1    2    0    0  0.12622308285E+02 -0.74535307151E+01  0.55326730458E+03  0.55927346089E+03  0.80419002446E+02 0. -1.
        -24    1    1    2    0    0 -0.12622308285E+02  0.74535307151E+01  0.30097076915E+03  0.31187416954E+03  0.80419002446E+02 0.  0.
<mgrwt>
<rscale>  0 0.81744075E+02</rscale>
<asrwt>0</asrwt>
<pdfrwt beam="1">  1        2 0.13272191E+00 0.81744075E+02</pdfrwt>
<pdfrwt beam="2">  1       -2 0.13007358E-02 0.81744075E+02</pdfrwt>
<totfact> 0.41588456E+04</totfact>
</mgrwt>
</event>
<event>
 4    1  0.5015492E-001  0.9728709E+02  0.7546771E-02  0.1286107E+00
         -1   -1    0    0    0  501 -0.00000000000E+00  0.00000000000E+00  0.28417367507E+02  0.28417367507E+02  0.00000000000E+00 0.  1.
          1   -1    0    0  501    0  0.00000000000E+00 -0.00000000000E+00 -0.39412827898E+03  0.39412827898E+03  0.00000000000E+00 0. -1.
         24    1    1    2    0    0 -0.51488866315E+02 -0.18613289782E+02 -0.26601689293E+03  0.28324858551E+03  0.80419002446E+02 0. -1.
        -24    1    1    2    0    0  0.51488866315E+02  0.18613289782E+02 -0.99694018542E+02  0.13929706098E+03  0.80419002446E+02 0.  1.
<mgrwt>
<rscale>  0 0.97287082E+02</rscale>
<asrwt>0</asrwt>
<pdfrwt beam="1">  1        1 0.60635119E-01 0.97287094E+02</pdfrwt>
<pdfrwt beam="2">  1       -1 0.43719027E-02 0.97287094E+02</pdfrwt>
<totfact> 0.12224607E+04</totfact>
</mgrwt>
</event>
<event>
 4    1  0.5015492E-001  0.8114317E+02  0.7546771E-02  0.1325838E+00
         -2   -1    0    0    0  501 -0.00000000000E+00  0.00000000000E+00  0.52672238918E+02  0.52672238918E+02  0.00000000000E+00 0.  1.
          2   -1    0    0  501    0  0.00000000000E+00 -0.00000000000E+00 -0.17714039863E+03  0.17714039863E+03  0.00000000000E+00 0. -1.
         24    1    1    2    0    0 -0.12591573167E+01  0.10743040765E+02 -0.12457277226E+03  0.14866939815E+03  0.80419002446E+02 0.  0.
        -24    1    1    2    0    0  0.12591573167E+01 -0.10743040765E+02  0.10461255178E+00  0.81143239399E+02  0.80419002446E+02 0.  1.
<mgrwt>
<rscale>  0 0.81143172E+02</rscale>
<asrwt>0</asrwt>
<pdfrwt beam="1">  1        2 0.27252369E-01 0.81143172E+02</pdfrwt>
<pdfrwt beam="2">  1       -2 0.81034214E-02 0.81143172E+02</pdfrwt>
<totfact> 0.16035804E+04</totfact>
</mgrwt>
</event>
<event>
 4    1  0.5015492E-001  0.9688484E+02  0.7546771E-02  0.1286987E+00
         -2   -1    0    0    0  501 -0.00000000000E+00  0.00000000000E+00  0.23643037071E+03  0.23643037071E+03  0.00000000000E+00 0.  1.
          2   -1    0    0  501    0  0.00000000000E+00 -0.00000000000E+00 -0.42257377241E+02  0.42257377241E+02  0.00000000000E+00 0. -1.
         24    1    1    2    0    0  0.49832665432E+02  0.20884479118E+02  0.62817984525E+02  0.11546761947E+03  0.80419002446E+02 0.  0.
        -24    1    1    2    0    0 -0.49832665432E+02 -0.20884479118E+02  0.13135500894E+03  0.16322012848E+03  0.80419002446E+02 0. -1.
<mgrwt>
<rscale>  0 0.96884839E+02</rscale>
<asrwt>0</asrwt>
<pdfrwt beam="1">  1        2 0.65011351E-02 0.96884839E+02</pdfrwt>
<pdfrwt beam="2">  1       -2 0.36373902E-01 0.96884839E+02</pdfrwt>
<totfact> 0.72686778E+03</totfact>
</mgrwt>
</event>
<event>
 4    1  0.5015492E-001  0.9228359E+02  0.7546771E-02  0.1297414E+00
          1   -1    0    0  501    0  0.00000000000E+00  0.00000000000E+00  0.71291256785E+03  0.71291256785E+03  0.00000000000E+00 0. -1.
         -1   -1    0    0    0  501 -0.00000000000E+00 -0.00000000000E+00 -0.42623317014E+02  0.42623317014E+02  0.00000000000E+00 0.  1.
         24    1    1    2    0    0 -0.45110887941E+02 -0.37485868847E+01  0.14656393885E+02  0.93440194513E+02  0.80419002446E+02 0.  1.
        -24    1    1    2    0    0  0.45110887941E+02  0.37485868847E+01  0.65563285695E+03  0.66209569035E+03  0.80419002446E+02 0. -1.
<mgrwt>
<rscale>  0 0.92283585E+02</rscale>
<asrwt>0</asrwt>
<pdfrwt beam="1">  1        1 0.10967885E+00 0.92283585E+02</pdfrwt>
<pdfrwt beam="2">  1       -1 0.65574339E-02 0.92283585E+02</pdfrwt>
<totfact> 0.30871665E+03</totfact>
</mgrwt>
</event>
<event>
 4    1  0.5015492E-001  0.8901508E+02  0.7546771E-02  0.1305255E+00
         -2   -1    0    0    0  501 -0.00000000000E+00  0.00000000000E+00  0.60557862688E+02  0.60557862688E+02  0.00000000000E+00 0.  1.
          2   -1    0    0  501    0  0.00000000000E+00 -0.00000000000E+00 -0.14057247224E+03  0.14057247224E+03  0.00000000000E+00 0. -1.
         24    1    1    2    0    0  0.22970471520E+02 -0.30476641984E+02 -0.66461885065E+02  0.11108945220E+03  0.80419002446E+02 0.  0.
        -24    1    1    2    0    0 -0.22970471520E+02  0.30476641984E+02 -0.13552724492E+02  0.90040882737E+02  0.80419002446E+02 0.  0.
<mgrwt>
<rscale>  0 0.89015079E+02</rscale>
<asrwt>0</asrwt>
<pdfrwt beam="1">  1        2 0.21626534E-01 0.89015079E+02</pdfrwt>
<pdfrwt beam="2">  1       -2 0.93165943E-02 0.89015079E+02</pdfrwt>
<totfact> 0.16823422E+04</totfact>
</mgrwt>
</event>
<event>
 4    1  0.5015492E-001  0.8179269E+02  0.7546771E-02  0.1324040E+00
         -2   -1    0    0    0  501 -0.00000000000E+00  0.00000000000E+00  0.59440430120E+02  0.59440430120E+02  0.00000000000E+00 0.  1.
          2   -1    0    0  501    0  0.00000000000E+00 -0.00000000000E+00 -0.64959430294E+03  0.64959430294E+03  0.00000000000E+00 0. -1.
         24    1    1    2    0    0  0.37915166511E+01 -0.14437866105E+02 -0.61742221282E+03  0.62281637134E+03  0.80419002446E+02 0. -1.
        -24    1    1    2    0    0 -0.37915166511E+01  0.14437866105E+02  0.27268340001E+02  0.86218361716E+02  0.80419002446E+02 0.  1.
<mgrwt>
<rscale>  0 0.81792686E+02</rscale>
<asrwt>0</asrwt>
<pdfrwt beam="1">  1        2 0.99937583E-01 0.81792686E+02</pdfrwt>
<pdfrwt beam="2">  1       -2 0.91446817E-02 0.81792686E+02</pdfrwt>
<totfact> 0.33529637E+03</totfact>
</mgrwt>
</event>
<event>
 4    1  0.5015492E-001  0.8732033E+02  0.7546771E-02  0.1309474E+00
         -1   -1    0    0    0  501 -0.00000000000E+00  0.00000000000E+00  0.11910461964E+02  0.11910461964E+02  0.00000000000E+00 0.  1.
          1   -1    0    0  501    0  0.00000000000E+00 -0.00000000000E+00 -0.96425998344E+03  0.96425998344E+03  0.00000000000E+00 0. -1.
         24    1    1    2    0    0  0.12624130780E+02 -0.31595168339E+02 -0.19321498349E+03  0.21203034957E+03  0.80419002446E+02 0.  1.
        -24    1    1    2    0    0 -0.12624130780E+02  0.31595168339E+02 -0.75913453798E+03  0.76414009583E+03  0.80419002446E+02 0. -1.
<mgrwt>
<rscale>  0 0.87320326E+02</rscale>
<asrwt>0</asrwt>
<pdfrwt beam="1">  1        1 0.14834763E+00 0.87320326E+02</pdfrwt>
<pdfrwt beam="2">  1       -1 0.18323794E-02 0.87320326E+02</pdfrwt>
<totfact> 0.12346906E+04</totfact>
</mgrwt>
</event>
<event>
 4    1  0.5015492E-001  0.8703209E+02  0.7546771E-02  0.1310202E+00
          2   -1    0    0  501    0  0.00000000000E+00  0.00000000000E+00  0.13350885298E+03  0.13350885298E+03  0.00000000000E+00 0. -1.
         -2   -1    0    0    0  501 -0.00000000000E+00 -0.00000000000E+00 -0.57333632548E+02  0.57333632548E+02  0.00000000000E+00 0.  1.
         24    1    1    2    0    0 -0.32328448354E+02  0.78891971559E+01  0.47840456185E+02  0.99314113836E+02  0.80419002446E+02 0. -1.
        -24    1    1    2    0    0  0.32328448354E+02 -0.78891971559E+01  0.28334764244E+02  0.91528371688E+02  0.80419002446E+02 0.  1.
<mgrwt>
<rscale>  0 0.87032086E+02</rscale>
<asrwt>0</asrwt>
<pdfrwt beam="1">  1        2 0.20539823E-01 0.87032086E+02</pdfrwt>
<pdfrwt beam="2">  1       -2 0.88205589E-02 0.87032086E+02</pdfrwt>
<totfact> 0.19332387E+04</totfact>
</mgrwt>
</event>
<event>
 4    1  0.5015492E-001  0.8273004E+02  0.7546771E-02  0.1321478E+00
          1   -1    0    0  501    0  0.00000000000E+00  0.00000000000E+00  0.20594340695E+04  0.20594340695E+04  0.00000000000E+00 0. -1.
         -1   -1    0    0    0  501 -0.00000000000E+00 -0.00000000000E+00 -0.92296268687E+01  0.92296268687E+01  0.00000000000E+00 0.  1.
         24    1    1    2    0    0 -0.55617318940E+01 -0.18604033414E+02  0.19768599042E+03  0.21429887934E+03  0.80419002446E+02 0.  1.
        -24    1    1    2    0    0  0.55617318940E+01  0.18604033414E+02  0.18525184522E+04  0.18543648171E+04  0.80419002446E+02 0. -1.
<mgrwt>
<rscale>  0 0.82730036E+02</rscale>
<asrwt>0</asrwt>
<pdfrwt beam="1">  1        1 0.31683565E+00 0.82730036E+02</pdfrwt>
<pdfrwt beam="2">  1       -1 0.14199442E-02 0.82730036E+02</pdfrwt>
<totfact> 0.34424982E+03</totfact>
</mgrwt>
</event>
<event>
 4    1  0.5015492E-001  0.1541315E+03  0.7546771E-02  0.1195486E+00
          2   -1    0    0  501    0  0.00000000000E+00  0.00000000000E+00  0.92991192187E+03  0.92991192187E+03  0.00000000000E+00 0. -1.
         -2   -1    0    0    0  501 -0.00000000000E+00 -0.00000000000E+00 -0.34273677917E+02  0.34273677917E+02  0.00000000000E+00 0.  1.
         24    1    1    2    0    0  0.62937484791E+02 -0.11544772627E+03  0.69108048869E+03  0.70805985784E+03  0.80419002446E+02 0. -1.
        -24    1    1    2    0    0 -0.62937484791E+02  0.11544772627E+03  0.20455775527E+03  0.25612574195E+03  0.80419002446E+02 0.  1.
<mgrwt>
<rscale>  0 0.15413150E+03</rscale>
<asrwt>0</asrwt>
<pdfrwt beam="1">  1        2 0.14306335E+00 0.15413150E+03</pdfrwt>
<pdfrwt beam="2">  1       -2 0.52728742E-02 0.15413150E+03</pdfrwt>
<totfact> 0.51358654E+03</totfact>
</mgrwt>
</event>
<event>
 4    1  0.5015492E-001  0.9292248E+02  0.7546771E-02  0.1295925E+00
         -2   -1    0    0    0  501 -0.00000000000E+00  0.00000000000E+00  0.27660044655E+03  0.27660044655E+03  0.00000000000E+00 0.  1.
          2   -1    0    0  501    0  0.00000000000E+00 -0.00000000000E+00 -0.38774014411E+02  0.38774014411E+02  0.00000000000E+00 0. -1.
         24    1    1    2    0    0  0.10824302323E+02  0.45279153976E+02  0.18852884650E+03  0.21018494052E+03  0.80419002446E+02 0.  1.
        -24    1    1    2    0    0 -0.10824302323E+02 -0.45279153976E+02  0.49297585636E+02  0.10518952044E+03  0.80419002446E+02 0.  0.
<mgrwt>
<rscale>  0 0.92922470E+02</rscale>
<asrwt>0</asrwt>
<pdfrwt beam="1">  1        2 0.59652332E-02 0.92922482E+02</pdfrwt>
<pdfrwt beam="2">  1       -2 0.42553914E-01 0.92922482E+02</pdfrwt>
<totfact> 0.60205784E+03</totfact>
</mgrwt>
</event>
<event>
 4    1  0.5015492E-001  0.9483724E+02  0.7546771E-02  0.1291543E+00
         -2   -1    0    0    0  501 -0.00000000000E+00  0.00000000000E+00  0.46677534587E+02  0.46677534587E+02  0.00000000000E+00 0.  1.
          2   -1    0    0  501    0  0.00000000000E+00 -0.00000000000E+00 -0.19318234013E+03  0.19318234013E+03  0.00000000000E+00 0. -1.
         24    1    1    2    0    0  0.45818458187E+02  0.20677404745E+02 -0.79332117970E+02  0.12364338670E+03  0.80419002446E+02 0. -1.
        -24    1    1    2    0    0 -0.45818458187E+02 -0.20677404745E+02 -0.67172687573E+02  0.11621648802E+03  0.80419002446E+02 0.  1.
<mgrwt>
<rscale>  0 0.94837240E+02</rscale>
<asrwt>0</asrwt>
<pdfrwt beam="1">  1        2 0.29720360E-01 0.94837240E+02</pdfrwt>
<pdfrwt beam="2">  1       -2 0.71811591E-02 0.94837240E+02</pdfrwt>
<totfact> 0.17852721E+04</totfact>
</mgrwt>
</event>
<event>
 4    1  0.5015492E-001  0.8538082E+02  0.7546771E-02  0.1314440E+00
          2   -1    0    0  501    0  0.00000000000E+00  0.00000000000E+00  0.12400171516E+04  0.12400171516E+04  0.00000000000E+00 0. -1.
         -2   -1    0    0    0  501 -0.00000000000E+00 -0.00000000000E+00 -0.69685082423E+01  0.69685082423E+01  0.00000000000E+00 0.  1.
         24    1    1    2    0    0  0.26986631258E+02  0.97154874182E+01  0.86307436767E+03  0.86728729325E+03  0.80419002446E+02 0.  0.
        -24    1    1    2    0    0 -0.26986631258E+02 -0.97154874182E+01  0.36997427570E+03  0.37969836660E+03  0.80419002446E+02 0.  1.
<mgrwt>
<rscale>  0 0.85380823E+02</rscale>
<asrwt>0</asrwt>
<pdfrwt beam="1">  1        2 0.19077169E+00 0.85380823E+02</pdfrwt>
<pdfrwt beam="2">  1       -2 0.10720792E-02 0.85380823E+02</pdfrwt>
<totfact> 0.33348792E+04</totfact>
</mgrwt>
</event>
<event>
 4    1  0.5015492E-001  0.9104883E+02  0.7546771E-02  0.1300331E+00
          2   -1    0    0  501    0  0.00000000000E+00  0.00000000000E+00  0.84307298160E+02  0.84307298160E+02  0.00000000000E+00 0. -1.
         -2   -1    0    0    0  501 -0.00000000000E+00 -0.00000000000E+00 -0.17327643078E+03  0.17327643078E+03  0.00000000000E+00 0.  1.
         24    1    1    2    0    0 -0.39420799467E+02 -0.16391305093E+02  0.40217841158E+02  0.99535747423E+02  0.80419002446E+02 0. -1.
        -24    1    1    2    0    0  0.39420799467E+02  0.16391305093E+02 -0.12918697378E+03  0.15804798152E+03  0.80419002446E+02 0.  1.
<mgrwt>
<rscale>  0 0.91048835E+02</rscale>
<asrwt>0</asrwt>
<pdfrwt beam="1">  1        2 0.12970354E-01 0.91048835E+02</pdfrwt>
<pdfrwt beam="2">  1       -2 0.26657912E-01 0.91048835E+02</pdfrwt>
<totfact> 0.54268083E+03</totfact>
</mgrwt>
</event>
<event>
 4    1  0.5015492E-001  0.9900875E+02  0.7546771E-02  0.1282394E+00
          1   -1    0    0  501    0  0.00000000000E+00  0.00000000000E+00  0.84112304195E+02  0.84112304195E+02  0.00000000000E+00 0. -1.
         -1   -1    0    0    0  501 -0.00000000000E+00 -0.00000000000E+00 -0.14028635791E+03  0.14028635791E+03  0.00000000000E+00 0.  1.
         24    1    1    2    0    0 -0.36973039794E+02  0.44367900642E+02 -0.74245362562E+02  0.12375421647E+03  0.80419002446E+02 0. -1.
        -24    1    1    2    0    0  0.36973039794E+02 -0.44367900642E+02  0.18071308844E+02  0.10064444563E+03  0.80419002446E+02 0.  0.
<mgrwt>
<rscale>  0 0.99008748E+02</rscale>
<asrwt>0</asrwt>
<pdfrwt beam="1">  1        1 0.12940355E-01 0.99008748E+02</pdfrwt>
<pdfrwt beam="2">  1       -1 0.21582517E-01 0.99008748E+02</pdfrwt>
<totfact> 0.74357643E+03</totfact>
</mgrwt>
</event>
<event>
 4    1  0.5015492E-001  0.8130045E+02  0.7546771E-02  0.1325401E+00
          1   -1    0    0  501    0  0.00000000000E+00  0.00000000000E+00  0.81709955609E+03  0.81709955609E+03  0.00000000000E+00 0. -1.
         -1   -1    0    0    0  501 -0.00000000000E+00 -0.00000000000E+00 -0.10323172034E+02  0.10323172034E+02  0.00000000000E+00 0.  1.
         24    1    1    2    0    0  0.40417789270E+01  0.11234358944E+02  0.21093722601E+03  0.22606254902E+03  0.80419002446E+02 0.  1.
        -24    1    1    2    0    0 -0.40417789270E+01 -0.11234358944E+02  0.59583915805E+03  0.60136017911E+03  0.80419002446E+02 0. -1.
<mgrwt>
<rscale>  0 0.81300447E+02</rscale>
<asrwt>0</asrwt>
<pdfrwt beam="1">  1        1 0.12570757E+00 0.81300447E+02</pdfrwt>
<pdfrwt beam="2">  1       -1 0.15881810E-02 0.81300447E+02</pdfrwt>
<totfact> 0.19439213E+04</totfact>
</mgrwt>
</event>
<event>
 4    1  0.5015492E-001  0.1031694E+03  0.7546771E-02  0.1273769E+00
         -2   -1    0    0    0  501 -0.00000000000E+00  0.00000000000E+00  0.12266004003E+04  0.12266004003E+04  0.00000000000E+00 0.  1.
          2   -1    0    0  501    0  0.00000000000E+00 -0.00000000000E+00 -0.88366363369E+01  0.88366363369E+01  0.00000000000E+00 0. -1.
         24    1    1    2    0    0 -0.43843500934E+02 -0.47481050460E+02  0.52600611931E+03  0.53602831664E+03  0.80419002446E+02 0. -1.
        -24    1    1    2    0    0  0.43843500934E+02  0.47481050460E+02  0.69175764468E+03  0.69940872003E+03  0.80419002446E+02 0.  1.
<mgrwt>
<rscale>  0 0.10316937E+03</rscale>
<asrwt>0</asrwt>
<pdfrwt beam="1">  1        2 0.13594835E-02 0.10316937E+03</pdfrwt>
<pdfrwt beam="2">  1       -2 0.18870762E+00 0.10316937E+03</pdfrwt>
<totfact> 0.15055371E+03</totfact>
</mgrwt>
</event>
<event>
 4    1  0.5015492E-001  0.8043636E+02  0.7546771E-02  0.1327818E+00
          2   -1    0    0  501    0  0.00000000000E+00  0.00000000000E+00  0.18360231929E+03  0.18360231929E+03  0.00000000000E+00 0. -1.
         -2   -1    0    0    0  501 -0.00000000000E+00 -0.00000000000E+00 -0.40573022177E+02  0.40573022177E+02  0.00000000000E+00 0.  1.
         24    1    1    2    0    0 -0.42014400354E+00 -0.16173892709E+01  0.11215489273E+03  0.13801713077E+03  0.80419002446E+02 0. -1.
        -24    1    1    2    0    0  0.42014400354E+00  0.16173892709E+01  0.30874404377E+02  0.86158210689E+02  0.80419002446E+02 0.  0.
<mgrwt>
<rscale>  0 0.80436363E+02</rscale>
<asrwt>0</asrwt>
<pdfrwt beam="1">  1        2 0.28246510E-01 0.80436363E+02</pdfrwt>
<pdfrwt beam="2">  1       -2 0.62420035E-02 0.80436363E+02</pdfrwt>
<totfact> 0.22871386E+04</totfact>
</mgrwt>
</event>
<event>
 4    1  0.5015492E-001  0.9448107E+02  0.7546771E-02  0.1292349E+00
          3   -1    0    0  501    0  0.00000000000E+00  0.00000000000E+00  0.62389834362E+02  0.62389834362E+02  0.00000000000E+00 0. -1.
         -3   -1    0    0    0  501 -0.00000000000E+00 -0.00000000000E+00 -0.22251134145E+03  0.22251134145E+03  0.00000000000E+00 0.  1.
         24    1    1    2    0    0  0.40509673665E+02  0.28608105383E+02 -0.16517199615E+03  0.19028521125E+03  0.80419002446E+02 0.  1.
        -24    1    1    2    0    0 -0.40509673665E+02 -0.28608105383E+02  0.50504890702E+01  0.94615964553E+02  0.80419002446E+02 0. -1.
<mgrwt>
<rscale>  0 0.94481074E+02</rscale>
<asrwt>0</asrwt>
<pdfrwt beam="1">  1        3 0.95984362E-02 0.94481074E+02</pdfrwt>
<pdfrwt beam="2">  1       -3 0.34232514E-01 0.94481074E+02</pdfrwt>
<totfact> 0.14246868E+03</totfact>
</mgrwt>
</event>
<event>
 4    1  0.5015492E-001  0.8061232E+02  0.7546771E-02  0.1327323E+00
         -2   -1    0    0    0  501 -0.00000000000E+00  0.00000000000E+00  0.93334244552E+01  0.93334244552E+01  0.00000000000E+00 0.  1.
          2   -1    0    0  501    0  0.00000000000E+00 -0.00000000000E+00 -0.76481144341E+03  0.76481144341E+03  0.00000000000E+00 0. -1.
         24    1    1    2    0    0  0.36347801380E+01 -0.42330255344E+01 -0.49363601934E+03  0.50017483511E+03  0.80419002446E+02 0. -1.
        -24    1    1    2    0    0 -0.36347801380E+01  0.42330255344E+01 -0.26184199961E+03  0.27397003275E+03  0.80419002446E+02 0.  1.
<mgrwt>
<rscale>  0 0.80612320E+02</rscale>
<asrwt>0</asrwt>
<pdfrwt beam="1">  1        2 0.11766333E+00 0.80612320E+02</pdfrwt>
<pdfrwt beam="2">  1       -2 0.14359111E-02 0.80612320E+02</pdfrwt>
<totfact> 0.41810882E+04</totfact>
</mgrwt>
</event>
<event>
 4    1  0.5015492E-001  0.8449457E+02  0.7546771E-02  0.1316760E+00
         -4   -1    0    0    0  501 -0.00000000000E+00  0.00000000000E+00  0.28752766824E+02  0.28752766824E+02  0.00000000000E+00 0.  1.
          4   -1    0    0  501    0  0.00000000000E+00 -0.00000000000E+00 -0.30654798504E+03  0.30654798504E+03  0.00000000000E+00 0. -1.
         24    1    1    2    0    0 -0.23605738372E+02 -0.10718500083E+02 -0.21197668027E+03  0.22819606933E+03  0.80419002446E+02 0. -1.
        -24    1    1    2    0    0  0.23605738372E+02  0.10718500083E+02 -0.65818537952E+02  0.10710468253E+03  0.80419002446E+02 0.  1.
<mgrwt>
<rscale>  0 0.84494574E+02</rscale>
<asrwt>0</asrwt>
<pdfrwt beam="1">  1        4 0.47161228E-01 0.84494574E+02</pdfrwt>
<pdfrwt beam="2">  1       -4 0.44235026E-02 0.84494574E+02</pdfrwt>
<totfact> 0.18607496E+03</totfact>
</mgrwt>
</event>
<event>
 4    1  0.5015492E-001  0.8823804E+02  0.7546771E-02  0.1307175E+00
          2   -1    0    0  501    0  0.00000000000E+00  0.00000000000E+00  0.80788336421E+03  0.80788336421E+03  0.00000000000E+00 0. -1.
         -2   -1    0    0    0  501 -0.00000000000E+00 -0.00000000000E+00 -0.16385328579E+02  0.16385328579E+02  0.00000000000E+00 0.  1.
         24    1    1    2    0    0 -0.20912438668E+02  0.29688485943E+02  0.66022984570E+03  0.66610014367E+03  0.80419002446E+02 0. -1.
        -24    1    1    2    0    0  0.20912438668E+02 -0.29688485943E+02  0.13126818994E+03  0.15816854913E+03  0.80419002446E+02 0.  1.
<mgrwt>
<rscale>  0 0.88238043E+02</rscale>
<asrwt>0</asrwt>
<pdfrwt beam="1">  1        2 0.12428972E+00 0.88238043E+02</pdfrwt>
<pdfrwt beam="2">  1       -2 0.25208204E-02 0.88238043E+02</pdfrwt>
<totfact> 0.17643453E+04</totfact>
</mgrwt>
</event>
<event>
 4    1  0.5015492E-001  0.1089620E+03  0.7546771E-02  0.1262504E+00
          1   -1    0    0  501    0  0.00000000000E+00  0.00000000000E+00  0.14762203652E+04  0.14762203652E+04  0.00000000000E+00 0. -1.
         -1   -1    0    0    0  501 -0.00000000000E+00 -0.00000000000E+00 -0.16908919273E+02  0.16908919273E+02  0.00000000000E+00 0.  1.
         24    1    1    2    0    0 -0.71008746690E+02  0.19059502743E+02  0.18905083572E+03  0.21820389821E+03  0.80419002446E+02 0.  1.
        -24    1    1    2    0    0  0.71008746690E+02 -0.19059502743E+02  0.12702606102E+04  0.12749253863E+04  0.80419002446E+02 0. -1.
<mgrwt>
<rscale>  0 0.10896202E+03</rscale>
<asrwt>0</asrwt>
<pdfrwt beam="1">  1        1 0.22711072E+00 0.10896202E+03</pdfrwt>
<pdfrwt beam="2">  1       -1 0.26013734E-02 0.10896202E+03</pdfrwt>
<totfact> 0.34031612E+03</totfact>
</mgrwt>
</event>
<event>
 4    1  0.5015492E-001  0.1043023E+03  0.7546771E-02  0.1271500E+00
         -1   -1    0    0    0  501 -0.00000000000E+00  0.00000000000E+00  0.45066627260E+02  0.45066627260E+02  0.00000000000E+00 0.  1.
          1   -1    0    0  501    0  0.00000000000E+00 -0.00000000000E+00 -0.11230071883E+04  0.11230071883E+04  0.00000000000E+00 0. -1.
         24    1    1    2    0    0  0.64807566473E+02 -0.14550876463E+02 -0.21497825243E+02  0.10649469997E+03  0.80419002446E+02 0.  1.
        -24    1    1    2    0    0 -0.64807566473E+02  0.14550876463E+02 -0.10564427358E+04  0.10615791156E+04  0.80419002446E+02 0. -1.
<mgrwt>
<rscale>  0 0.10430228E+03</rscale>
<asrwt>0</asrwt>
<pdfrwt beam="1">  1        1 0.17277030E+00 0.10430228E+03</pdfrwt>
<pdfrwt beam="2">  1       -1 0.69333286E-02 0.10430228E+03</pdfrwt>
<totfact> 0.13911801E+03</totfact>
</mgrwt>
</event>
<event>
 4    1  0.5015492E-001  0.8738807E+02  0.7546771E-02  0.1309303E+00
         -3   -1    0    0    0  501 -0.00000000000E+00  0.00000000000E+00  0.64094887297E+02  0.64094887297E+02  0.00000000000E+00 0.  1.
          3   -1    0    0  501    0  0.00000000000E+00 -0.00000000000E+00 -0.13990483795E+03  0.13990483795E+03  0.00000000000E+00 0. -1.
         24    1    1    2    0    0 -0.28984345078E+02 -0.18148473283E+02  0.13848881933E+01  0.87399045829E+02  0.80419002446E+02 0.  1.
        -24    1    1    2    0    0  0.28984345078E+02  0.18148473283E+02 -0.77194838848E+02  0.11660067942E+03  0.80419002446E+02 0. -1.
<mgrwt>
<rscale>  0 0.87388073E+02</rscale>
<asrwt>0</asrwt>
<pdfrwt beam="1">  1        3 0.21523821E-01 0.87388073E+02</pdfrwt>
<pdfrwt beam="2">  1       -3 0.98607520E-02 0.87388073E+02</pdfrwt>
<totfact> 0.31072987E+03</totfact>
</mgrwt>
</event>
<event>
 4    1  0.5015492E-001  0.8056660E+02  0.7546771E-02  0.1327451E+00
         -2   -1    0    0    0  501 -0.00000000000E+00  0.00000000000E+00  0.78296387013E+01  0.78296387013E+01  0.00000000000E+00 0.  1.
          2   -1    0    0  501    0  0.00000000000E+00 -0.00000000000E+00 -0.83165231750E+03  0.83165231750E+03  0.00000000000E+00 0. -1.
         24    1    1    2    0    0  0.32282917727E+01  0.36522522728E+01 -0.43549740014E+03  0.44288707624E+03  0.80419002446E+02 0.  0.
        -24    1    1    2    0    0 -0.32282917727E+01 -0.36522522728E+01 -0.38832527866E+03  0.39659487996E+03  0.80419002446E+02 0.  0.
<mgrwt>
<rscale>  0 0.80566598E+02</rscale>
<asrwt>0</asrwt>
<pdfrwt beam="1">  1        2 0.12794650E+00 0.80566598E+02</pdfrwt>
<pdfrwt beam="2">  1       -2 0.12045599E-02 0.80566598E+02</pdfrwt>
<totfact> 0.48448771E+04</totfact>
</mgrwt>
</event>
<event>
 4    1  0.5015492E-001  0.8162102E+02  0.7546771E-02  0.1324513E+00
         -2   -1    0    0    0  501 -0.00000000000E+00  0.00000000000E+00  0.79719123810E+01  0.79719123810E+01  0.00000000000E+00 0.  1.
          2   -1    0    0  501    0  0.00000000000E+00 -0.00000000000E+00 -0.88063994276E+03  0.88063994276E+03  0.00000000000E+00 0. -1.
         24    1    1    2    0    0 -0.53418858356E+01  0.12893402008E+02 -0.53672191936E+03  0.54289263233E+03  0.80419002446E+02 0.  0.
        -24    1    1    2    0    0  0.53418858356E+01 -0.12893402008E+02 -0.33594611102E+03  0.34571922281E+03  0.80419002446E+02 0.  0.
<mgrwt>
<rscale>  0 0.81621024E+02</rscale>
<asrwt>0</asrwt>
<pdfrwt beam="1">  1        2 0.13548303E+00 0.81621024E+02</pdfrwt>
<pdfrwt beam="2">  1       -2 0.12264484E-02 0.81621024E+02</pdfrwt>
<totfact> 0.44039303E+04</totfact>
</mgrwt>
</event>
<event>
 4    1  0.5015492E-001  0.1315161E+03  0.7546771E-02  0.1225223E+00
         -2   -1    0    0    0  501 -0.00000000000E+00  0.00000000000E+00  0.11636995526E+03  0.11636995526E+03  0.00000000000E+00 0.  1.
          2   -1    0    0  501    0  0.00000000000E+00 -0.00000000000E+00 -0.10278000808E+04  0.10278000808E+04  0.00000000000E+00 0. -1.
         24    1    1    2    0    0 -0.10119777004E+03  0.24254372046E+02 -0.98482001298E+03  0.99356274947E+03  0.80419002446E+02 0. -1.
        -24    1    1    2    0    0  0.10119777004E+03 -0.24254372046E+02  0.73389887469E+02  0.15060728655E+03  0.80419002446E+02 0.  1.
<mgrwt>
<rscale>  0 0.13151608E+03</rscale>
<asrwt>0</asrwt>
<pdfrwt beam="1">  1        2 0.15812310E+00 0.13151608E+03</pdfrwt>
<pdfrwt beam="2">  1       -2 0.17903069E-01 0.13151608E+03</pdfrwt>
<totfact> 0.65168602E+02</totfact>
</mgrwt>
</event>
<event>
 4    1  0.5015492E-001  0.1130546E+03  0.7546771E-02  0.1255015E+00
          2   -1    0    0  501    0  0.00000000000E+00  0.00000000000E+00  0.28762843500E+04  0.28762843500E+04  0.00000000000E+00 0. -1.
         -2   -1    0    0    0  501 -0.00000000000E+00 -0.00000000000E+00 -0.46173308117E+01  0.46173308117E+01  0.00000000000E+00 0.  1.
         24    1    1    2    0    0  0.10126004464E+02  0.78813704156E+02  0.17151607230E+04  0.17188826771E+04  0.80419002446E+02 0.  1.
        -24    1    1    2    0    0 -0.10126004464E+02 -0.78813704156E+02  0.11565062962E+04  0.11620190037E+04  0.80419002446E+02 0.  0.
<mgrwt>
<rscale>  0 0.11305464E+03</rscale>
<asrwt>0</asrwt>
<pdfrwt beam="1">  1        2 0.44250385E+00 0.11305464E+03</pdfrwt>
<pdfrwt beam="2">  1       -2 0.71036088E-03 0.11305464E+03</pdfrwt>
<totfact> 0.85732570E+03</totfact>
</mgrwt>
</event>
<event>
 4    1  0.5015492E-001  0.1112257E+03  0.7546771E-02  0.1258317E+00
          1   -1    0    0  501    0  0.00000000000E+00  0.00000000000E+00  0.59696778582E+03  0.59696778582E+03  0.00000000000E+00 0. -1.
         -1   -1    0    0    0  501 -0.00000000000E+00 -0.00000000000E+00 -0.19481332501E+03  0.19481332501E+03  0.00000000000E+00 0.  1.
         24    1    1    2    0    0  0.30293301124E+02  0.70613481176E+02 -0.17316492965E+03  0.20580878657E+03  0.80419002446E+02 0.  1.
        -24    1    1    2    0    0 -0.30293301124E+02 -0.70613481176E+02  0.57531939045E+03  0.58597232426E+03  0.80419002446E+02 0. -1.
<mgrwt>
<rscale>  0 0.11122573E+03</rscale>
<asrwt>0</asrwt>
<pdfrwt beam="1">  1        1 0.91841197E-01 0.11122573E+03</pdfrwt>
<pdfrwt beam="2">  1       -1 0.29971281E-01 0.11122573E+03</pdfrwt>
<totfact> 0.37150851E+02</totfact>
</mgrwt>
</event>
<event>
 4    1  0.5015492E-001  0.1109189E+03  0.7546771E-02  0.1258878E+00
          2   -1    0    0  501    0  0.00000000000E+00  0.00000000000E+00  0.60436695956E+03  0.60436695956E+03  0.00000000000E+00 0. -1.
         -2   -1    0    0    0  501 -0.00000000000E+00 -0.00000000000E+00 -0.52435175524E+02  0.52435175524E+02  0.00000000000E+00 0.  1.
         24    1    1    2    0    0 -0.65591142637E+02  0.39161039715E+02  0.53282745197E+03  0.54425002945E+03  0.80419002446E+02 0.  0.
        -24    1    1    2    0    0  0.65591142637E+02 -0.39161039715E+02  0.19104332058E+02  0.11255210563E+03  0.80419002446E+02 0. -1.
<mgrwt>
<rscale>  0 0.11091889E+03</rscale>
<asrwt>0</asrwt>
<pdfrwt beam="1">  1        2 0.92979527E-01 0.11091889E+03</pdfrwt>
<pdfrwt beam="2">  1       -2 0.80669505E-02 0.11091889E+03</pdfrwt>
<totfact> 0.44796274E+03</totfact>
</mgrwt>
</event>
<event>
 4    1  0.5015492E-001  0.8124931E+02  0.7546771E-02  0.1325543E+00
          1   -1    0    0  501    0  0.00000000000E+00  0.00000000000E+00  0.24513403251E+04  0.24513403251E+04  0.00000000000E+00 0. -1.
         -1   -1    0    0    0  501 -0.00000000000E+00 -0.00000000000E+00 -0.48958784049E+01  0.48958784049E+01  0.00000000000E+00 0.  1.
         24    1    1    2    0    0  0.55101236983E+00 -0.11572838499E+02  0.39942474299E+03  0.40760468039E+03  0.80419002446E+02 0.  0.
        -24    1    1    2    0    0 -0.55101236983E+00  0.11572838499E+02  0.20470197037E+04  0.20486315231E+04  0.80419002446E+02 0. -1.
<mgrwt>
<rscale>  0 0.81249309E+02</rscale>
<asrwt>0</asrwt>
<pdfrwt beam="1">  1        1 0.37712830E+00 0.81249309E+02</pdfrwt>
<pdfrwt beam="2">  1       -1 0.75321402E-03 0.81249309E+02</pdfrwt>
<totfact> 0.47513784E+03</totfact>
</mgrwt>
</event>
<event>
 4    1  0.5015492E-001  0.8857436E+02  0.7546771E-02  0.1306341E+00
         -3   -1    0    0    0  501 -0.00000000000E+00  0.00000000000E+00  0.62200821624E+02  0.62200821624E+02  0.00000000000E+00 0.  1.
          3   -1    0    0  501    0  0.00000000000E+00 -0.00000000000E+00 -0.21478112554E+03  0.21478112554E+03  0.00000000000E+00 0. -1.
         24    1    1    2    0    0 -0.26273305710E+02 -0.26228135149E+02  0.12684118582E+02  0.89477955301E+02  0.80419002446E+02 0.  1.
        -24    1    1    2    0    0  0.26273305710E+02  0.26228135149E+02 -0.16526442250E+03  0.18750399186E+03  0.80419002446E+02 0. -1.
<mgrwt>
<rscale>  0 0.88574362E+02</rscale>
<asrwt>0</asrwt>
<pdfrwt beam="1">  1        3 0.33043250E-01 0.88574362E+02</pdfrwt>
<pdfrwt beam="2">  1       -3 0.95693571E-02 0.88574362E+02</pdfrwt>
<totfact> 0.15104304E+03</totfact>
</mgrwt>
</event>
<event>
 4    1  0.5015492E-001  0.8881864E+02  0.7546771E-02  0.1305738E+00
          2   -1    0    0  501    0  0.00000000000E+00  0.00000000000E+00  0.17708325524E+03  0.17708325524E+03  0.00000000000E+00 0. -1.
         -2   -1    0    0    0  501 -0.00000000000E+00 -0.00000000000E+00 -0.85340977643E+02  0.85340977643E+02  0.00000000000E+00 0.  1.
         24    1    1    2    0    0 -0.22435904919E+02  0.30301250593E+02  0.13658766954E+03  0.16292618894E+03  0.80419002446E+02 0.  1.
        -24    1    1    2    0    0  0.22435904919E+02 -0.30301250593E+02 -0.44845391939E+02  0.99498043949E+02  0.80419002446E+02 0.  0.
<mgrwt>
<rscale>  0 0.88818644E+02</rscale>
<asrwt>0</asrwt>
<pdfrwt beam="1">  1        2 0.27243578E-01 0.88818644E+02</pdfrwt>
<pdfrwt beam="2">  1       -2 0.13129381E-01 0.88818644E+02</pdfrwt>
<totfact> 0.76318718E+03</totfact>
</mgrwt>
</event>
<event>
 4    1  0.5015492E-001  0.1470139E+03  0.7546771E-02  0.1204191E+00
         -1   -1    0    0    0  501 -0.00000000000E+00  0.00000000000E+00  0.88760052410E+02  0.88760052410E+02  0.00000000000E+00 0.  1.
          1   -1    0    0  501    0  0.00000000000E+00 -0.00000000000E+00 -0.99910724221E+03  0.99910724221E+03  0.00000000000E+00 0. -1.
         24    1    1    2    0    0  0.91393031162E+02  0.82420804794E+02  0.17855514801E+02  0.14809426245E+03  0.80419002446E+02 0.  1.
        -24    1    1    2    0    0 -0.91393031162E+02 -0.82420804794E+02 -0.92820270460E+03  0.93977303217E+03  0.80419002446E+02 0. -1.
<mgrwt>
<rscale>  0 0.14701391E+03</rscale>
<asrwt>0</asrwt>
<pdfrwt beam="1">  1        1 0.15370881E+00 0.14701391E+03</pdfrwt>
<pdfrwt beam="2">  1       -1 0.13655393E-01 0.14701391E+03</pdfrwt>
<totfact> 0.60693954E+02</totfact>
</mgrwt>
</event>
<event>
 4    1  0.5015492E-001  0.8287819E+02  0.7546771E-02  0.1321076E+00
         -1   -1    0    0    0  501 -0.00000000000E+00  0.00000000000E+00  0.49500145722E+02  0.49500145722E+02  0.00000000000E+00 0.  1.
          1   -1    0    0  501    0  0.00000000000E+00 -0.00000000000E+00 -0.49387720908E+03  0.49387720908E+03  0.00000000000E+00 0. -1.
         24    1    1    2    0    0 -0.53854454541E+01 -0.19302217273E+02  0.81921185577E+01  0.83282083158E+02  0.80419002446E+02 0.  1.
        -24    1    1    2    0    0  0.53854454541E+01  0.19302217273E+02 -0.45256918192E+03  0.46009527165E+03  0.80419002446E+02 0. -1.
<mgrwt>
<rscale>  0 0.82878191E+02</rscale>
<asrwt>0</asrwt>
<pdfrwt beam="1">  1        1 0.75981104E-01 0.82878191E+02</pdfrwt>
<pdfrwt beam="2">  1       -1 0.76154076E-02 0.82878191E+02</pdfrwt>
<totfact> 0.40201776E+03</totfact>
</mgrwt>
</event>
<event>
 4    1  0.5015492E-001  0.1138436E+03  0.7546771E-02  0.1253613E+00
          1   -1    0    0  501    0  0.00000000000E+00  0.00000000000E+00  0.36725035095E+03  0.36725035095E+03  0.00000000000E+00 0. -1.
         -1   -1    0    0    0  501 -0.00000000000E+00 -0.00000000000E+00 -0.42792521014E+02  0.42792521014E+02  0.00000000000E+00 0.  1.
         24    1    1    2    0    0 -0.37414188956E+02 -0.71367632693E+02  0.76384874727E+02  0.13709495094E+03  0.80419002446E+02 0.  1.
        -24    1    1    2    0    0  0.37414188956E+02  0.71367632693E+02  0.24807295521E+03  0.27294792102E+03  0.80419002446E+02 0. -1.
<mgrwt>
<rscale>  0 0.11384365E+03</rscale>
<asrwt>0</asrwt>
<pdfrwt beam="1">  1        1 0.56500052E-01 0.11384365E+03</pdfrwt>
<pdfrwt beam="2">  1       -1 0.65834650E-02 0.11384365E+03</pdfrwt>
<totfact> 0.73934156E+03</totfact>
</mgrwt>
</event>
<event>
 4    1  0.5015492E-001  0.8931031E+02  0.7546771E-02  0.1304531E+00
          1   -1    0    0  501    0  0.00000000000E+00  0.00000000000E+00  0.72950434783E+01  0.72950434783E+01  0.00000000000E+00 0. -1.
         -1   -1    0    0    0  501 -0.00000000000E+00 -0.00000000000E+00 -0.11065153466E+04  0.11065153466E+04  0.00000000000E+00 0.  1.
         24    1    1    2    0    0  0.11091389721E+02  0.37230259965E+02 -0.48895621920E+03  0.49704578404E+03  0.80419002446E+02 0. -1.
        -24    1    1    2    0    0 -0.11091389721E+02 -0.37230259965E+02 -0.61026408394E+03  0.61676460605E+03  0.80419002446E+02 0.  1.
<mgrwt>
<rscale>  0 0.89310297E+02</rscale>
<asrwt>0</asrwt>
<pdfrwt beam="1">  1        1 0.11223151E-02 0.89310308E+02</pdfrwt>
<pdfrwt beam="2">  1       -1 0.17023302E+00 0.89310308E+02</pdfrwt>
<totfact> 0.34324269E+03</totfact>
</mgrwt>
</event>
<event>
 4    1  0.5015492E-001  0.9088199E+02  0.7546771E-02  0.1300730E+00
         -2   -1    0    0    0  501 -0.00000000000E+00  0.00000000000E+00  0.65935526275E+01  0.65935526275E+01  0.00000000000E+00 0.  1.
          2   -1    0    0  501    0  0.00000000000E+00 -0.00000000000E+00 -0.13694113841E+04  0.13694113841E+04  0.00000000000E+00 0. -1.
         24    1    1    2    0    0 -0.16972082484E+02  0.38784893712E+02 -0.88228964857E+03  0.88695803705E+03  0.80419002446E+02 0. -1.
        -24    1    1    2    0    0  0.16972082484E+02 -0.38784893712E+02 -0.48052818293E+03  0.48904689970E+03  0.80419002446E+02 0.  1.
<mgrwt>
<rscale>  0 0.90881987E+02</rscale>
<asrwt>0</asrwt>
<pdfrwt beam="1">  1        2 0.21067884E+00 0.90881987E+02</pdfrwt>
<pdfrwt beam="2">  1       -2 0.10143919E-02 0.90881987E+02</pdfrwt>
<totfact> 0.30992113E+04</totfact>
</mgrwt>
</event>
<event>
 4    1  0.5015492E-001  0.8381596E+02  0.7546771E-02  0.1318558E+00
          2   -1    0    0  501    0  0.00000000000E+00  0.00000000000E+00  0.47536985487E+02  0.47536985487E+02  0.00000000000E+00 0. -1.
         -2   -1    0    0    0  501 -0.00000000000E+00 -0.00000000000E+00 -0.16120061342E+03  0.16120061342E+03  0.00000000000E+00 0.  1.
         24    1    1    2    0    0  0.15946223327E+02  0.17424624027E+02 -0.26719817233E+02  0.87971950917E+02  0.80419002446E+02 0. -1.
        -24    1    1    2    0    0 -0.15946223327E+02 -0.17424624027E+02 -0.86943810701E+02  0.12076564799E+03  0.80419002446E+02 0. -1.
<mgrwt>
<rscale>  0 0.83815962E+02</rscale>
<asrwt>0</asrwt>
<pdfrwt beam="1">  1        2 0.73133825E-02 0.83815962E+02</pdfrwt>
<pdfrwt beam="2">  1       -2 0.24800094E-01 0.83815962E+02</pdfrwt>
<totfact> 0.12230507E+04</totfact>
</mgrwt>
</event>
<event>
 4    1  0.5015492E-001  0.8954162E+02  0.7546771E-02  0.1303966E+00
         -1   -1    0    0    0  501 -0.00000000000E+00  0.00000000000E+00  0.18180946002E+03  0.18180946002E+03  0.00000000000E+00 0.  1.
          1   -1    0    0  501    0  0.00000000000E+00 -0.00000000000E+00 -0.51041886452E+02  0.51041886452E+02  0.00000000000E+00 0. -1.
         24    1    1    2    0    0 -0.38674877950E+02 -0.73985811121E+01  0.10832167455E+03  0.14053926967E+03  0.80419002446E+02 0.  1.
        -24    1    1    2    0    0  0.38674877950E+02  0.73985811121E+01  0.22445899016E+02  0.92312076804E+02  0.80419002446E+02 0. -1.
<mgrwt>
<rscale>  0 0.89541617E+02</rscale>
<asrwt>0</asrwt>
<pdfrwt beam="1">  1        1 0.78525980E-02 0.89541617E+02</pdfrwt>
<pdfrwt beam="2">  1       -1 0.27970686E-01 0.89541617E+02</pdfrwt>
<totfact> 0.93068568E+03</totfact>
</mgrwt>
</event>
<event>
 4    1  0.5015492E-001  0.8736838E+02  0.7546771E-02  0.1309353E+00
          2   -1    0    0  501    0  0.00000000000E+00  0.00000000000E+00  0.53922875856E+03  0.53922875856E+03  0.00000000000E+00 0. -1.
         -2   -1    0    0    0  501 -0.00000000000E+00 -0.00000000000E+00 -0.22090447740E+02  0.22090447740E+02  0.00000000000E+00 0.  1.
         24    1    1    2    0    0  0.34141124696E+02 -0.63341659175E+00  0.42677477588E+03  0.43562592082E+03  0.80419002446E+02 0. -1.
        -24    1    1    2    0    0 -0.34141124696E+02  0.63341659175E+00  0.90363534934E+02  0.12569328547E+03  0.80419002446E+02 0.  1.
<mgrwt>
<rscale>  0 0.87368379E+02</rscale>
<asrwt>0</asrwt>
<pdfrwt beam="1">  1        2 0.82958261E-01 0.87368379E+02</pdfrwt>
<pdfrwt beam="2">  1       -2 0.33985308E-02 0.87368379E+02</pdfrwt>
<totfact> 0.18181902E+04</totfact>
</mgrwt>
</event>
<event>
 4    1  0.5015492E-001  0.1122399E+03  0.7546771E-02  0.1256477E+00
          1   -1    0    0  501    0  0.00000000000E+00  0.00000000000E+00  0.22617771891E+03  0.22617771891E+03  0.00000000000E+00 0. -1.
         -1   -1    0    0    0  501 -0.00000000000E+00 -0.00000000000E+00 -0.15480628843E+03  0.15480628843E+03  0.00000000000E+00 0.  1.
         24    1    1    2    0    0  0.68908477758E+02  0.37178072563E+02 -0.11673216604E+03  0.16193888331E+03  0.80419002446E+02 0.  1.
        -24    1    1    2    0    0 -0.68908477758E+02 -0.37178072563E+02  0.18810359652E+03  0.21904512404E+03  0.80419002446E+02 0. -1.
<mgrwt>
<rscale>  0 0.11223994E+03</rscale>
<asrwt>0</asrwt>
<pdfrwt beam="1">  1        1 0.34796572E-01 0.11223994E+03</pdfrwt>
<pdfrwt beam="2">  1       -1 0.23816352E-01 0.11223994E+03</pdfrwt>
<totfact> 0.18402405E+03</totfact>
</mgrwt>
</event>
<event>
 4    1  0.5015492E-001  0.1000180E+03  0.7546771E-02  0.1280258E+00
         -2   -1    0    0    0  501 -0.00000000000E+00  0.00000000000E+00  0.11900460060E+03  0.11900460060E+03  0.00000000000E+00 0.  1.
          2   -1    0    0  501    0  0.00000000000E+00 -0.00000000000E+00 -0.11618224495E+03  0.11618224495E+03  0.00000000000E+00 0. -1.
         24    1    1    2    0    0 -0.21097213429E+02 -0.55599461007E+02 -0.60420560017E+02  0.11685141208E+03  0.80419002446E+02 0.  1.
        -24    1    1    2    0    0  0.21097213429E+02  0.55599461007E+02  0.63242915667E+02  0.11833543347E+03  0.80419002446E+02 0.  0.
<mgrwt>
<rscale>  0 0.10001804E+03</rscale>
<asrwt>0</asrwt>
<pdfrwt beam="1">  1        2 0.17874192E-01 0.10001804E+03</pdfrwt>
<pdfrwt beam="2">  1       -2 0.18308400E-01 0.10001804E+03</pdfrwt>
<totfact> 0.71539095E+03</totfact>
</mgrwt>
</event>
<event>
 4    1  0.5015492E-001  0.8279935E+02  0.7546771E-02  0.1321290E+00
          3   -1    0    0  501    0  0.00000000000E+00  0.00000000000E+00  0.16044842091E+02  0.16044842091E+02  0.00000000000E+00 0. -1.
         -3   -1    0    0    0  501 -0.00000000000E+00 -0.00000000000E+00 -0.63291206529E+03  0.63291206529E+03  0.00000000000E+00 0.  1.
         24    1    1    2    0    0  0.10561215380E+02  0.16642639771E+02 -0.49338325718E+03  0.50028269124E+03  0.80419002446E+02 0.  1.
        -24    1    1    2    0    0 -0.10561215380E+02 -0.16642639771E+02 -0.12348396602E+03  0.14867421615E+03  0.80419002446E+02 0. -1.
<mgrwt>
<rscale>  0 0.82799352E+02</rscale>
<asrwt>0</asrwt>
<pdfrwt beam="1">  1        3 0.24684371E-02 0.82799352E+02</pdfrwt>
<pdfrwt beam="2">  1       -3 0.97371093E-01 0.82799352E+02</pdfrwt>
<totfact> 0.13933335E+03</totfact>
</mgrwt>
</event>
<event>
 4    1  0.5015492E-001  0.8251789E+02  0.7546771E-02  0.1322054E+00
          2   -1    0    0  501    0  0.00000000000E+00  0.00000000000E+00  0.16508717922E+04  0.16508717922E+04  0.00000000000E+00 0. -1.
         -2   -1    0    0    0  501 -0.00000000000E+00 -0.00000000000E+00 -0.74453966917E+01  0.74453966917E+01  0.00000000000E+00 0.  1.
         24    1    1    2    0    0  0.75208738154E+01  0.16894459034E+02  0.13754637572E+04  0.13779367727E+04  0.80419002446E+02 0.  0.
        -24    1    1    2    0    0 -0.75208738154E+01 -0.16894459034E+02  0.26796263831E+03  0.28038041617E+03  0.80419002446E+02 0.  1.
<mgrwt>
<rscale>  0 0.82517890E+02</rscale>
<asrwt>0</asrwt>
<pdfrwt beam="1">  1        2 0.25397998E+00 0.82517890E+02</pdfrwt>
<pdfrwt beam="2">  1       -2 0.11454470E-02 0.82517890E+02</pdfrwt>
<totfact> 0.18610976E+04</totfact>
</mgrwt>
</event>
<event>
 4    1  0.5015492E-001  0.1033390E+03  0.7546771E-02  0.1273427E+00
          4   -1    0    0  501    0  0.00000000000E+00  0.00000000000E+00  0.17230849990E+02  0.17230849990E+02  0.00000000000E+00 0. -1.
         -4   -1    0    0    0  501 -0.00000000000E+00 -0.00000000000E+00 -0.65174612852E+03  0.65174612852E+03  0.00000000000E+00 0.  1.
         24    1    1    2    0    0 -0.47955121281E+02  0.43726835820E+02 -0.24315377889E+03  0.26420201734E+03  0.80419002446E+02 0. -1.
        -24    1    1    2    0    0  0.47955121281E+02 -0.43726835820E+02 -0.39136149964E+03  0.40477496116E+03  0.80419002446E+02 0.  0.
<mgrwt>
<rscale>  0 0.10333898E+03</rscale>
<asrwt>0</asrwt>
<pdfrwt beam="1">  1        4 0.26509003E-02 0.10333898E+03</pdfrwt>
<pdfrwt beam="2">  1       -4 0.10026862E+00 0.10333898E+03</pdfrwt>
<totfact> 0.86971384E+02</totfact>
</mgrwt>
</event>
<event>
 4    1  0.5015492E-001  0.8576349E+02  0.7546771E-02  0.1313448E+00
          2   -1    0    0  501    0  0.00000000000E+00  0.00000000000E+00  0.37158243079E+02  0.37158243079E+02  0.00000000000E+00 0. -1.
         -2   -1    0    0    0  501 -0.00000000000E+00 -0.00000000000E+00 -0.64829687394E+03  0.64829687394E+03  0.00000000000E+00 0.  1.
         24    1    1    2    0    0  0.49182609600E+01 -0.29393384582E+02 -0.19917551477E+02  0.88045926421E+02  0.80419002446E+02 0. -1.
        -24    1    1    2    0    0 -0.49182609600E+01  0.29393384582E+02 -0.59122107939E+03  0.59740919060E+03  0.80419002446E+02 0.  1.
<mgrwt>
<rscale>  0 0.85763490E+02</rscale>
<asrwt>0</asrwt>
<pdfrwt beam="1">  1        2 0.57166531E-02 0.85763490E+02</pdfrwt>
<pdfrwt beam="2">  1       -2 0.99737976E-01 0.85763490E+02</pdfrwt>
<totfact> 0.10748335E+03</totfact>
</mgrwt>
</event>
<event>
 4    1  0.5015492E-001  0.8580785E+02  0.7546771E-02  0.1313333E+00
         -1   -1    0    0    0  501 -0.00000000000E+00  0.00000000000E+00  0.85216493194E+01  0.85216493194E+01  0.00000000000E+00 0.  1.
          1   -1    0    0  501    0  0.00000000000E+00 -0.00000000000E+00 -0.86961710147E+03  0.86961710147E+03  0.00000000000E+00 0. -1.
         24    1    1    2    0    0 -0.29412286630E+02  0.55397889704E+01 -0.39536427110E+03  0.40456877621E+03  0.80419002446E+02 0. -1.
        -24    1    1    2    0    0  0.29412286630E+02 -0.55397889704E+01 -0.46573118104E+03  0.47356997457E+03  0.80419002446E+02 0.  1.
<mgrwt>
<rscale>  0 0.85807854E+02</rscale>
<asrwt>0</asrwt>
<pdfrwt beam="1">  1        1 0.13378733E+00 0.85807854E+02</pdfrwt>
<pdfrwt beam="2">  1       -1 0.13110222E-02 0.85807854E+02</pdfrwt>
<totfact> 0.23328437E+04</totfact>
</mgrwt>
</event>
<event>
 4    1  0.5015492E-001  0.9553988E+02  0.7546771E-02  0.1289965E+00
          2   -1    0    0  501    0  0.00000000000E+00  0.00000000000E+00  0.40828735095E+03  0.40828735095E+03  0.00000000000E+00 0. -1.
         -2   -1    0    0    0  501 -0.00000000000E+00 -0.00000000000E+00 -0.34735643937E+02  0.34735643937E+02  0.00000000000E+00 0.  1.
         24    1    1    2    0    0 -0.27306981792E+02 -0.43760459893E+02  0.54538429927E+02  0.11001047858E+03  0.80419002446E+02 0.  1.
        -24    1    1    2    0    0  0.27306981792E+02  0.43760459893E+02  0.31901327709E+03  0.33301251631E+03  0.80419002446E+02 0. -1.
<mgrwt>
<rscale>  0 0.95539873E+02</rscale>
<asrwt>0</asrwt>
<pdfrwt beam="1">  1        2 0.62813435E-01 0.95539885E+02</pdfrwt>
<pdfrwt beam="2">  1       -2 0.53439455E-02 0.95539885E+02</pdfrwt>
<totfact> 0.12671215E+04</totfact>
</mgrwt>
</event>
<event>
 4    1  0.5015492E-001  0.8911124E+02  0.7546771E-02  0.1305018E+00
         -2   -1    0    0    0  501 -0.00000000000E+00  0.00000000000E+00  0.76393987513E+02  0.76393987513E+02  0.00000000000E+00 0.  1.
          2   -1    0    0  501    0  0.00000000000E+00 -0.00000000000E+00 -0.22833458581E+03  0.22833458581E+03  0.00000000000E+00 0. -1.
         24    1    1    2    0    0  0.19467426288E+02 -0.33084988482E+02 -0.18842780012E+03  0.20843667854E+03  0.80419002446E+02 0. -1.
        -24    1    1    2    0    0 -0.19467426288E+02  0.33084988482E+02  0.36487201823E+02  0.96291894780E+02  0.80419002446E+02 0.  1.
<mgrwt>
<rscale>  0 0.89111240E+02</rscale>
<asrwt>0</asrwt>
<pdfrwt beam="1">  1        2 0.35128398E-01 0.89111240E+02</pdfrwt>
<pdfrwt beam="2">  1       -2 0.11752921E-01 0.89111240E+02</pdfrwt>
<totfact> 0.69389727E+03</totfact>
</mgrwt>
</event>
<event>
 4    1  0.5015492E-001  0.8387141E+02  0.7546771E-02  0.1318411E+00
         -2   -1    0    0    0  501 -0.00000000000E+00  0.00000000000E+00  0.16954401688E+02  0.16954401688E+02  0.00000000000E+00 0.  1.
          2   -1    0    0  501    0  0.00000000000E+00 -0.00000000000E+00 -0.19110290892E+04  0.19110290892E+04  0.00000000000E+00 0. -1.
         24    1    1    2    0    0  0.20422387410E+02  0.12252477330E+02 -0.17999880388E+04  0.18019409959E+04  0.80419002446E+02 0. -1.
        -24    1    1    2    0    0 -0.20422387410E+02 -0.12252477330E+02 -0.94086648683E+02  0.12604249491E+03  0.80419002446E+02 0.  1.
<mgrwt>
<rscale>  0 0.83871408E+02</rscale>
<asrwt>0</asrwt>
<pdfrwt beam="1">  1        2 0.29400429E+00 0.83871408E+02</pdfrwt>
<pdfrwt beam="2">  1       -2 0.26083712E-02 0.83871408E+02</pdfrwt>
<totfact> 0.42622800E+03</totfact>
</mgrwt>
</event>
<event>
 4    1  0.5015492E-001  0.8241590E+02  0.7546771E-02  0.1322332E+00
         -2   -1    0    0    0  501 -0.00000000000E+00  0.00000000000E+00  0.50827527429E+02  0.50827527429E+02  0.00000000000E+00 0.  1.
          2   -1    0    0  501    0  0.00000000000E+00 -0.00000000000E+00 -0.19673716380E+03  0.19673716380E+03  0.00000000000E+00 0. -1.
         24    1    1    2    0    0 -0.18029900699E+02  0.29511175579E+00 -0.14305750601E+03  0.16509945606E+03  0.80419002446E+02 0. -1.
        -24    1    1    2    0    0  0.18029900699E+02 -0.29511175579E+00 -0.28521303620E+01  0.82465235173E+02  0.80419002446E+02 0.  1.
<mgrwt>
<rscale>  0 0.82415899E+02</rscale>
<asrwt>0</asrwt>
<pdfrwt beam="1">  1        2 0.30267256E-01 0.82415899E+02</pdfrwt>
<pdfrwt beam="2">  1       -2 0.78196196E-02 0.82415899E+02</pdfrwt>
<totfact> 0.15158331E+04</totfact>
</mgrwt>
</event>
<event>
 4    1  0.5015492E-001  0.8786695E+02  0.7546771E-02  0.1308101E+00
          1   -1    0    0  501    0  0.00000000000E+00  0.00000000000E+00  0.88051792991E+03  0.88051792991E+03  0.00000000000E+00 0. -1.
         -1   -1    0    0    0  501 -0.00000000000E+00 -0.00000000000E+00 -0.14011880253E+02  0.14011880253E+02  0.00000000000E+00 0.  1.
         24    1    1    2    0    0  0.30972750497E+02 -0.17148593187E+02  0.15964260181E+03  0.18222612817E+03  0.80419002446E+02 0.  1.
        -24    1    1    2    0    0 -0.30972750497E+02  0.17148593187E+02  0.70686344785E+03  0.71230368199E+03  0.80419002446E+02 0. -1.
<mgrwt>
<rscale>  0 0.87866953E+02</rscale>
<asrwt>0</asrwt>
<pdfrwt beam="1">  1        1 0.13546425E+00 0.87866953E+02</pdfrwt>
<pdfrwt beam="2">  1       -1 0.21556746E-02 0.87866953E+02</pdfrwt>
<totfact> 0.11315512E+04</totfact>
</mgrwt>
</event>
<event>
 4    1  0.5015492E-001  0.9398938E+02  0.7546771E-02  0.1293469E+00
          4   -1    0    0  501    0  0.00000000000E+00  0.00000000000E+00  0.10233730647E+03  0.10233730647E+03  0.00000000000E+00 0. -1.
         -4   -1    0    0    0  501 -0.00000000000E+00 -0.00000000000E+00 -0.27493050917E+03  0.27493050917E+03  0.00000000000E+00 0.  1.
         24    1    1    2    0    0  0.41984247106E+02  0.24578644819E+02  0.69942044025E+02  0.11715755316E+03  0.80419002446E+02 0. -1.
        -24    1    1    2    0    0 -0.41984247106E+02 -0.24578644819E+02 -0.24253524672E+03  0.26011026247E+03  0.80419002446E+02 0.  1.
<mgrwt>
<rscale>  0 0.93989376E+02</rscale>
<asrwt>0</asrwt>
<pdfrwt beam="1">  1        4 0.15744201E-01 0.93989376E+02</pdfrwt>
<pdfrwt beam="2">  1       -4 0.42297002E-01 0.93989376E+02</pdfrwt>
<totfact> 0.29135512E+02</totfact>
</mgrwt>
</event>
<event>
 4    1  0.5015492E-001  0.9098879E+02  0.7546771E-02  0.1300475E+00
         -2   -1    0    0    0  501 -0.00000000000E+00  0.00000000000E+00  0.22692885745E+02  0.22692885745E+02  0.00000000000E+00 0.  1.
          2   -1    0    0  501    0  0.00000000000E+00 -0.00000000000E+00 -0.46288499664E+03  0.46288499664E+03  0.00000000000E+00 0. -1.
         24    1    1    2    0    0  0.79692368821E+01 -0.41811909901E+02 -0.33184296184E+03  0.34409113883E+03  0.80419002446E+02 0. -1.
        -24    1    1    2    0    0 -0.79692368821E+01  0.41811909901E+02 -0.10834914906E+03  0.14148674355E+03  0.80419002446E+02 0.  1.
<mgrwt>
<rscale>  0 0.90988793E+02</rscale>
<asrwt>0</asrwt>
<pdfrwt beam="1">  1        2 0.71213074E-01 0.90988793E+02</pdfrwt>
<pdfrwt beam="2">  1       -2 0.34912133E-02 0.90988793E+02</pdfrwt>
<totfact> 0.20699481E+04</totfact>
</mgrwt>
</event>
<event>
 4    1  0.5015492E-001  0.8532027E+02  0.7546771E-02  0.1314597E+00
          1   -1    0    0  501    0  0.00000000000E+00  0.00000000000E+00  0.47411045335E+02  0.47411045335E+02  0.00000000000E+00 0. -1.
         -1   -1    0    0    0  501 -0.00000000000E+00 -0.00000000000E+00 -0.37534979623E+03  0.37534979623E+03  0.00000000000E+00 0.  1.
         24    1    1    2    0    0  0.24512753959E+02 -0.14541595734E+02 -0.32646282071E+03  0.33742780320E+03  0.80419002446E+02 0.  1.
        -24    1    1    2    0    0 -0.24512753959E+02  0.14541595734E+02 -0.14759301911E+01  0.85333038370E+02  0.80419002446E+02 0.  0.
<mgrwt>
<rscale>  0 0.85320273E+02</rscale>
<asrwt>0</asrwt>
<pdfrwt beam="1">  1        1 0.72940067E-02 0.85320273E+02</pdfrwt>
<pdfrwt beam="2">  1       -1 0.57746124E-01 0.85320273E+02</pdfrwt>
<totfact> 0.28960048E+03</totfact>
</mgrwt>
</event>
<event>
 4    1  0.5015492E-001  0.9210289E+02  0.7546771E-02  0.1297838E+00
         -2   -1    0    0    0  501 -0.00000000000E+00  0.00000000000E+00  0.55933434639E+02  0.55933434639E+02  0.00000000000E+00 0.  1.
          2   -1    0    0  501    0  0.00000000000E+00 -0.00000000000E+00 -0.22358872796E+03  0.22358872796E+03  0.00000000000E+00 0. -1.
         24    1    1    2    0    0 -0.11688554469E+02  0.43348628694E+02 -0.16309754918E+03  0.18730657334E+03  0.80419002446E+02 0. -1.
        -24    1    1    2    0    0  0.11688554469E+02 -0.43348628694E+02 -0.45577441401E+01  0.92215589253E+02  0.80419002446E+02 0.  1.
<mgrwt>
<rscale>  0 0.92102887E+02</rscale>
<asrwt>0</asrwt>
<pdfrwt beam="1">  1        2 0.34398266E-01 0.92102887E+02</pdfrwt>
<pdfrwt beam="2">  1       -2 0.86051437E-02 0.92102887E+02</pdfrwt>
<totfact> 0.11557445E+04</totfact>
</mgrwt>
</event>
<event>
 4    1  0.5015492E-001  0.1362952E+03  0.7546771E-02  0.1218403E+00
         -1   -1    0    0    0  501 -0.00000000000E+00  0.00000000000E+00  0.41448294603E+02  0.41448294603E+02  0.00000000000E+00 0.  1.
          1   -1    0    0  501    0  0.00000000000E+00 -0.00000000000E+00 -0.46095775268E+03  0.46095775268E+03  0.00000000000E+00 0. -1.
         24    1    1    2    0    0  0.64423109135E+02  0.89212307682E+02 -0.16793475394E+03  0.21628331042E+03  0.80419002446E+02 0.  1.
        -24    1    1    2    0    0 -0.64423109135E+02 -0.89212307682E+02 -0.25157470414E+03  0.28612273686E+03  0.80419002446E+02 0. -1.
<mgrwt>
<rscale>  0 0.13629523E+03</rscale>
<asrwt>0</asrwt>
<pdfrwt beam="1">  1        1 0.70916586E-01 0.13629523E+03</pdfrwt>
<pdfrwt beam="2">  1       -1 0.63766599E-02 0.13629523E+03</pdfrwt>
<totfact> 0.58874106E+03</totfact>
</mgrwt>
</event>
<event>
 4    1  0.5015492E-001  0.8605484E+02  0.7546771E-02  0.1312697E+00
          1   -1    0    0  501    0  0.00000000000E+00  0.00000000000E+00  0.11022298177E+04  0.11022298177E+04  0.00000000000E+00 0. -1.
         -1   -1    0    0    0  501 -0.00000000000E+00 -0.00000000000E+00 -0.73337603724E+01  0.73337603724E+01  0.00000000000E+00 0.  1.
         24    1    1    2    0    0 -0.27829808084E+02 -0.12795348382E+02  0.38677056002E+03  0.39622834478E+03  0.80419002446E+02 0.  0.
        -24    1    1    2    0    0  0.27829808084E+02  0.12795348382E+02  0.70812549732E+03  0.71333523330E+03  0.80419002446E+02 0.  0.
<mgrwt>
<rscale>  0 0.86054838E+02</rscale>
<asrwt>0</asrwt>
<pdfrwt beam="1">  1        1 0.16957369E+00 0.86054838E+02</pdfrwt>
<pdfrwt beam="2">  1       -1 0.11282717E-02 0.86054838E+02</pdfrwt>
<totfact> 0.19564541E+04</totfact>
</mgrwt>
</event>
<event>
 4    1  0.5015492E-001  0.8118575E+02  0.7546771E-02  0.1325720E+00
         -1   -1    0    0    0  501 -0.00000000000E+00  0.00000000000E+00  0.44721520793E+02  0.44721520793E+02  0.00000000000E+00 0.  1.
          1   -1    0    0  501    0  0.00000000000E+00 -0.00000000000E+00 -0.14818792246E+03  0.14818792246E+03  0.00000000000E+00 0. -1.
         24    1    1    2    0    0 -0.33718011675E+01  0.10608341467E+02 -0.58848872803E+02  0.10027119096E+03  0.80419002446E+02 0. -1.
        -24    1    1    2    0    0  0.33718011675E+01 -0.10608341467E+02 -0.44617528864E+02  0.92638252294E+02  0.80419002446E+02 0.  1.
<mgrwt>
<rscale>  0 0.81185735E+02</rscale>
<asrwt>0</asrwt>
<pdfrwt beam="1">  1        1 0.22798142E-01 0.81185745E+02</pdfrwt>
<pdfrwt beam="2">  1       -1 0.68802340E-02 0.81185745E+02</pdfrwt>
<totfact> 0.20488134E+04</totfact>
</mgrwt>
</event>
<event>
 4    1  0.5015492E-001  0.8771248E+02  0.7546771E-02  0.1308488E+00
          1   -1    0    0  501    0  0.00000000000E+00  0.00000000000E+00  0.53605188523E+03  0.53605188523E+03  0.00000000000E+00 0. -1.
         -1   -1    0    0    0  501 -0.00000000000E+00 -0.00000000000E+00 -0.61106053152E+02  0.61106053152E+02  0.00000000000E+00 0.  1.
         24    1    1    2    0    0  0.29093468946E+02 -0.19489320382E+02 -0.23698826242E+02  0.90857657156E+02  0.80419002446E+02 0.  1.
        -24    1    1    2    0    0 -0.29093468946E+02  0.19489320382E+02  0.49864465832E+03  0.50630028122E+03  0.80419002446E+02 0. -1.
<mgrwt>
<rscale>  0 0.87712482E+02</rscale>
<asrwt>0</asrwt>
<pdfrwt beam="1">  1        1 0.82469518E-01 0.87712482E+02</pdfrwt>
<pdfrwt beam="2">  1       -1 0.94009316E-02 0.87712482E+02</pdfrwt>
<totfact> 0.26484697E+03</totfact>
</mgrwt>
</event>
<event>
 4    1  0.5015492E-001  0.1318078E+03  0.7546771E-02  0.1224798E+00
         -2   -1    0    0    0  501 -0.00000000000E+00  0.00000000000E+00  0.28093642969E+02  0.28093642969E+02  0.00000000000E+00 0.  1.
          2   -1    0    0  501    0  0.00000000000E+00 -0.00000000000E+00 -0.64865410320E+03  0.64865410320E+03  0.00000000000E+00 0. -1.
         24    1    1    2    0    0  0.10404790718E+03  0.89499541280E+01 -0.38334995274E+03  0.40537694914E+03  0.80419002446E+02 0. -1.
        -24    1    1    2    0    0 -0.10404790718E+03 -0.89499541280E+01 -0.23721050749E+03  0.27137079704E+03  0.80419002446E+02 0.  1.
<mgrwt>
<rscale>  0 0.13180776E+03</rscale>
<asrwt>0</asrwt>
<pdfrwt beam="1">  1        2 0.99792930E-01 0.13180776E+03</pdfrwt>
<pdfrwt beam="2">  1       -2 0.43220993E-02 0.13180776E+03</pdfrwt>
<totfact> 0.10718215E+04</totfact>
</mgrwt>
</event>
<event>
 4    1  0.5015492E-001  0.1189651E+03  0.7546771E-02  0.1244814E+00
          2   -1    0    0  501    0  0.00000000000E+00  0.00000000000E+00  0.81525484194E+03  0.81525484194E+03  0.00000000000E+00 0. -1.
         -2   -1    0    0    0  501 -0.00000000000E+00 -0.00000000000E+00 -0.36593959355E+02  0.36593959355E+02  0.00000000000E+00 0.  1.
         24    1    1    2    0    0  0.70616292822E+02 -0.51950085244E+02  0.69812102586E+03  0.70818476041E+03  0.80419002446E+02 0. -1.
        -24    1    1    2    0    0 -0.70616292822E+02  0.51950085244E+02  0.80539856724E+02  0.14366404089E+03  0.80419002446E+02 0.  1.
<mgrwt>
<rscale>  0 0.11896507E+03</rscale>
<asrwt>0</asrwt>
<pdfrwt beam="1">  1        2 0.12542381E+00 0.11896507E+03</pdfrwt>
<pdfrwt beam="2">  1       -2 0.56298405E-02 0.11896507E+03</pdfrwt>
<totfact> 0.54518705E+03</totfact>
</mgrwt>
</event>
<event>
 4    1  0.5015492E-001  0.8077582E+02  0.7546771E-02  0.1326864E+00
         -1   -1    0    0    0  501 -0.00000000000E+00  0.00000000000E+00  0.17318701141E+02  0.17318701141E+02  0.00000000000E+00 0.  1.
          1   -1    0    0  501    0  0.00000000000E+00 -0.00000000000E+00 -0.38840764014E+03  0.38840764014E+03  0.00000000000E+00 0. -1.
         24    1    1    2    0    0  0.21327028098E+01  0.72779940923E+01 -0.15039180179E+03  0.17071153335E+03  0.80419002446E+02 0.  0.
        -24    1    1    2    0    0 -0.21327028098E+01 -0.72779940923E+01 -0.22069713720E+03  0.23501480792E+03  0.80419002446E+02 0. -1.
<mgrwt>
<rscale>  0 0.80775823E+02</rscale>
<asrwt>0</asrwt>
<pdfrwt beam="1">  1        1 0.59755016E-01 0.80775823E+02</pdfrwt>
<pdfrwt beam="2">  1       -1 0.26644158E-02 0.80775823E+02</pdfrwt>
<totfact> 0.24981120E+04</totfact>
</mgrwt>
</event>
<event>
 4    1  0.5015492E-001  0.1017990E+03  0.7546771E-02  0.1276558E+00
         -2   -1    0    0    0  501 -0.00000000000E+00  0.00000000000E+00  0.12226447788E+02  0.12226447788E+02  0.00000000000E+00 0.  1.
          2   -1    0    0  501    0  0.00000000000E+00 -0.00000000000E+00 -0.36505372281E+04  0.36505372281E+04  0.00000000000E+00 0. -1.
         24    1    1    2    0    0 -0.62349756301E+02 -0.28854808384E+01 -0.34239071149E+04  0.34254201152E+04  0.80419002446E+02 0. -1.
        -24    1    1    2    0    0  0.62349756301E+02  0.28854808384E+01 -0.21440366544E+03  0.23734356072E+03  0.80419002446E+02 0.  1.
<mgrwt>
<rscale>  0 0.10179899E+03</rscale>
<asrwt>0</asrwt>
<pdfrwt beam="1">  1        2 0.56162224E+00 0.10179899E+03</pdfrwt>
<pdfrwt beam="2">  1       -2 0.18809882E-02 0.10179899E+03</pdfrwt>
<totfact> 0.72426730E+02</totfact>
</mgrwt>
</event>
<event>
 4    1  0.5015492E-001  0.8658751E+02  0.7546771E-02  0.1311332E+00
         -2   -1    0    0    0  501 -0.00000000000E+00  0.00000000000E+00  0.71835359293E+01  0.71835359293E+01  0.00000000000E+00 0.  1.
          2   -1    0    0  501    0  0.00000000000E+00 -0.00000000000E+00 -0.14936806668E+04  0.14936806668E+04  0.00000000000E+00 0. -1.
         24    1    1    2    0    0 -0.29000737328E+02  0.13752726244E+02 -0.11551406998E+04  0.11583813848E+04  0.80419002446E+02 0. -1.
        -24    1    1    2    0    0  0.29000737328E+02 -0.13752726244E+02 -0.33135643104E+03  0.34248281795E+03  0.80419002446E+02 0.  1.
<mgrwt>
<rscale>  0 0.86587506E+02</rscale>
<asrwt>0</asrwt>
<pdfrwt beam="1">  1        2 0.22979707E+00 0.86587506E+02</pdfrwt>
<pdfrwt beam="2">  1       -2 0.11051592E-02 0.86587506E+02</pdfrwt>
<totfact> 0.23592174E+04</totfact>
</mgrwt>
</event>
<event>
 4    1  0.5015492E-001  0.8266275E+02  0.7546771E-02  0.1321660E+00
         -2   -1    0    0    0  501 -0.00000000000E+00  0.00000000000E+00  0.30705882463E+02  0.30705882463E+02  0.00000000000E+00 0.  1.
          2   -1    0    0  501    0  0.00000000000E+00 -0.00000000000E+00 -0.27097473768E+03  0.27097473768E+03  0.00000000000E+00 0. -1.
         24    1    1    2    0    0  0.18132844259E+02 -0.60921842693E+01 -0.18390999359E+03  0.20163337136E+03  0.80419002446E+02 0. -1.
        -24    1    1    2    0    0 -0.18132844259E+02  0.60921842693E+01 -0.56358861624E+02  0.10004724878E+03  0.80419002446E+02 0.  1.
<mgrwt>
<rscale>  0 0.82662753E+02</rscale>
<asrwt>0</asrwt>
<pdfrwt beam="1">  1        2 0.41688422E-01 0.82662753E+02</pdfrwt>
<pdfrwt beam="2">  1       -2 0.47239819E-02 0.82662753E+02</pdfrwt>
<totfact> 0.23030080E+04</totfact>
</mgrwt>
</event>
<event>
 4    1  0.5015492E-001  0.8113104E+02  0.7546771E-02  0.1325872E+00
         -1   -1    0    0    0  501 -0.00000000000E+00  0.00000000000E+00  0.66471939409E+02  0.66471939409E+02  0.00000000000E+00 0.  1.
          1   -1    0    0  501    0  0.00000000000E+00 -0.00000000000E+00 -0.33705088799E+03  0.33705088799E+03  0.00000000000E+00 0. -1.
         24    1    1    2    0    0 -0.33800990141E+01 -0.10178672220E+02  0.34263088003E+02  0.88069322646E+02  0.80419002446E+02 0.  1.
        -24    1    1    2    0    0  0.33800990141E+01  0.10178672220E+02 -0.30484203659E+03  0.31545350476E+03  0.80419002446E+02 0. -1.
<mgrwt>
<rscale>  0 0.81131045E+02</rscale>
<asrwt>0</asrwt>
<pdfrwt beam="1">  1        1 0.51853982E-01 0.81131045E+02</pdfrwt>
<pdfrwt beam="2">  1       -1 0.10226452E-01 0.81131045E+02</pdfrwt>
<totfact> 0.41549437E+03</totfact>
</mgrwt>
</event>
<event>
 4    1  0.5015492E-001  0.1051056E+03  0.7546771E-02  0.1269912E+00
         -2   -1    0    0    0  501 -0.00000000000E+00  0.00000000000E+00  0.27061721267E+02  0.27061721267E+02  0.00000000000E+00 0.  1.
          2   -1    0    0  501    0  0.00000000000E+00 -0.00000000000E+00 -0.76667279082E+03  0.76667279082E+03  0.00000000000E+00 0. -1.
         24    1    1    2    0    0  0.67579827613E+02  0.35982364565E+01 -0.64117118408E+03  0.64972893090E+03  0.80419002446E+02 0. -1.
        -24    1    1    2    0    0 -0.67579827613E+02 -0.35982364565E+01 -0.98439885479E+02  0.14400558119E+03  0.80419002446E+02 0.  1.
<mgrwt>
<rscale>  0 0.10510564E+03</rscale>
<asrwt>0</asrwt>
<pdfrwt beam="1">  1        2 0.11794966E+00 0.10510564E+03</pdfrwt>
<pdfrwt beam="2">  1       -2 0.41633417E-02 0.10510564E+03</pdfrwt>
<totfact> 0.91575184E+03</totfact>
</mgrwt>
</event>
<event>
 4    1  0.5015492E-001  0.9483843E+02  0.7546771E-02  0.1291540E+00
          3   -1    0    0  501    0  0.00000000000E+00  0.00000000000E+00  0.68690093742E+02  0.68690093742E+02  0.00000000000E+00 0. -1.
         -3   -1    0    0    0  501 -0.00000000000E+00 -0.00000000000E+00 -0.13337833151E+03  0.13337833151E+03  0.00000000000E+00 0.  1.
         24    1    1    2    0    0  0.50183663838E+02 -0.29516268549E+01 -0.46002866117E+02  0.10540679230E+03  0.80419002446E+02 0. -1.
        -24    1    1    2    0    0 -0.50183663838E+02  0.29516268549E+01 -0.18685371652E+02  0.96661632954E+02  0.80419002446E+02 0.  0.
<mgrwt>
<rscale>  0 0.94838432E+02</rscale>
<asrwt>0</asrwt>
<pdfrwt beam="1">  1        3 0.10567707E-01 0.94838432E+02</pdfrwt>
<pdfrwt beam="2">  1       -3 0.20519743E-01 0.94838432E+02</pdfrwt>
<totfact> 0.30690608E+03</totfact>
</mgrwt>
</event>
<event>
 4    1  0.5015492E-001  0.1256394E+03  0.7546771E-02  0.1234073E+00
         -2   -1    0    0    0  501 -0.00000000000E+00  0.00000000000E+00  0.31387265342E+02  0.31387265342E+02  0.00000000000E+00 0.  1.
          2   -1    0    0  501    0  0.00000000000E+00 -0.00000000000E+00 -0.56799800537E+03  0.56799800537E+03  0.00000000000E+00 0. -1.
         24    1    1    2    0    0 -0.66528393153E+02 -0.69942882892E+02 -0.16686207419E+03  0.20887365013E+03  0.80419002446E+02 0.  1.
        -24    1    1    2    0    0  0.66528393153E+02  0.69942882892E+02 -0.36974866584E+03  0.39051162058E+03  0.80419002446E+02 0. -1.
<mgrwt>
<rscale>  0 0.12563938E+03</rscale>
<asrwt>0</asrwt>
<pdfrwt beam="1">  1        2 0.87384296E-01 0.12563940E+03</pdfrwt>
<pdfrwt beam="2">  1       -2 0.48288108E-02 0.12563940E+03</pdfrwt>
<totfact> 0.10531181E+04</totfact>
</mgrwt>
</event>
<event>
 4    1  0.5015492E-001  0.1149538E+03  0.7546771E-02  0.1251662E+00
         -1   -1    0    0    0  501 -0.00000000000E+00  0.00000000000E+00  0.27457661841E+02  0.27457661841E+02  0.00000000000E+00 0.  1.
          1   -1    0    0  501    0  0.00000000000E+00 -0.00000000000E+00 -0.57982665639E+03  0.57982665639E+03  0.00000000000E+00 0. -1.
         24    1    1    2    0    0 -0.38423786957E+02  0.72600022463E+02 -0.15099422322E+03  0.18977255351E+03  0.80419002446E+02 0.  1.
        -24    1    1    2    0    0  0.38423786957E+02 -0.72600022463E+02 -0.40137477133E+03  0.41751176472E+03  0.80419002446E+02 0.  0.
<mgrwt>
<rscale>  0 0.11495376E+03</rscale>
<asrwt>0</asrwt>
<pdfrwt beam="1">  1        1 0.89204099E-01 0.11495376E+03</pdfrwt>
<pdfrwt beam="2">  1       -1 0.42242558E-02 0.11495376E+03</pdfrwt>
<totfact> 0.79287714E+03</totfact>
</mgrwt>
</event>
<event>
 4    1  0.5015492E-001  0.9331856E+02  0.7546771E-02  0.1295009E+00
          4   -1    0    0  501    0  0.00000000000E+00  0.00000000000E+00  0.16928934703E+03  0.16928934703E+03  0.00000000000E+00 0. -1.
         -4   -1    0    0    0  501 -0.00000000000E+00 -0.00000000000E+00 -0.13568875263E+03  0.13568875263E+03  0.00000000000E+00 0.  1.
         24    1    1    2    0    0 -0.14859938109E+02 -0.44947964045E+02  0.13695667031E+03  0.16572713336E+03  0.80419002446E+02 0. -1.
        -24    1    1    2    0    0  0.14859938109E+02  0.44947964045E+02 -0.10335607592E+03  0.13925096630E+03  0.80419002446E+02 0.  1.
<mgrwt>
<rscale>  0 0.93318558E+02</rscale>
<asrwt>0</asrwt>
<pdfrwt beam="1">  1        4 0.26044515E-01 0.93318558E+02</pdfrwt>
<pdfrwt beam="2">  1       -4 0.20875193E-01 0.93318558E+02</pdfrwt>
<totfact> 0.44455475E+02</totfact>
</mgrwt>
</event>
<event>
 4    1  0.5015492E-001  0.8351884E+02  0.7546771E-02  0.1319352E+00
         -1   -1    0    0    0  501 -0.00000000000E+00  0.00000000000E+00  0.27793830674E+03  0.27793830674E+03  0.00000000000E+00 0.  1.
          1   -1    0    0  501    0  0.00000000000E+00 -0.00000000000E+00 -0.46940823807E+02  0.46940823807E+02  0.00000000000E+00 0. -1.
         24    1    1    2    0    0 -0.16223982901E+02 -0.15651280984E+02  0.22630940790E+03  0.24122882140E+03  0.80419002446E+02 0.  1.
        -24    1    1    2    0    0  0.16223982901E+02  0.15651280984E+02  0.46880750314E+01  0.83650309142E+02  0.80419002446E+02 0. -1.
<mgrwt>
<rscale>  0 0.83518837E+02</rscale>
<asrwt>0</asrwt>
<pdfrwt beam="1">  1        1 0.72216653E-02 0.83518837E+02</pdfrwt>
<pdfrwt beam="2">  1       -1 0.42759739E-01 0.83518837E+02</pdfrwt>
<totfact> 0.50347687E+03</totfact>
</mgrwt>
</event>
<event>
 4    1  0.5015492E-001  0.1136720E+03  0.7546771E-02  0.1253917E+00
         -1   -1    0    0    0  501 -0.00000000000E+00  0.00000000000E+00  0.22909271339E+02  0.22909271339E+02  0.00000000000E+00 0.  1.
          1   -1    0    0  501    0  0.00000000000E+00 -0.00000000000E+00 -0.70391871749E+03  0.70391871749E+03  0.00000000000E+00 0. -1.
         24    1    1    2    0    0 -0.25665526858E+02 -0.76127456417E+02 -0.17849364650E+03  0.21161594147E+03  0.80419002446E+02 0.  1.
        -24    1    1    2    0    0  0.25665526858E+02  0.76127456417E+02 -0.50251579965E+03  0.51521204736E+03  0.80419002446E+02 0. -1.
<mgrwt>
<rscale>  0 0.11367201E+03</rscale>
<asrwt>0</asrwt>
<pdfrwt beam="1">  1        1 0.10829516E+00 0.11367201E+03</pdfrwt>
<pdfrwt beam="2">  1       -1 0.35245041E-02 0.11367201E+03</pdfrwt>
<totfact> 0.78995163E+03</totfact>
</mgrwt>
</event>
<event>
 4    1  0.5015492E-001  0.1395839E+03  0.7546771E-02  0.1213890E+00
          2   -1    0    0  501    0  0.00000000000E+00  0.00000000000E+00  0.15443708558E+03  0.15443708558E+03  0.00000000000E+00 0. -1.
         -2   -1    0    0    0  501 -0.00000000000E+00 -0.00000000000E+00 -0.25414318658E+03  0.25414318658E+03  0.00000000000E+00 0.  1.
         24    1    1    2    0    0 -0.15903191759E+02  0.11297584666E+03  0.95119529141E+02  0.16891238621E+03  0.80419002446E+02 0. -1.
        -24    1    1    2    0    0  0.15903191759E+02 -0.11297584666E+03 -0.19482563014E+03  0.23966788594E+03  0.80419002446E+02 0.  1.
<mgrwt>
<rscale>  0 0.13958392E+03</rscale>
<asrwt>0</asrwt>
<pdfrwt beam="1">  1        2 0.23759552E-01 0.13958392E+03</pdfrwt>
<pdfrwt beam="2">  1       -2 0.39098952E-01 0.13958392E+03</pdfrwt>
<totfact> 0.13897119E+03</totfact>
</mgrwt>
</event>
<event>
 4    1  0.5015492E-001  0.8455684E+02  0.7546771E-02  0.1316596E+00
         -1   -1    0    0    0  501 -0.00000000000E+00  0.00000000000E+00  0.43423992457E+03  0.43423992457E+03  0.00000000000E+00 0.  1.
          1   -1    0    0  501    0  0.00000000000E+00 -0.00000000000E+00 -0.16533673938E+02  0.16533673938E+02  0.00000000000E+00 0. -1.
         24    1    1    2    0    0  0.25976980947E+02  0.28000202469E+01  0.22335472332E+03  0.23882460518E+03  0.80419002446E+02 0. -1.
        -24    1    1    2    0    0 -0.25976980947E+02 -0.28000202469E+01  0.19435152730E+03  0.21194899333E+03  0.80419002446E+02 0.  1.
<mgrwt>
<rscale>  0 0.84556842E+02</rscale>
<asrwt>0</asrwt>
<pdfrwt beam="1">  1        1 0.25436425E-02 0.84556842E+02</pdfrwt>
<pdfrwt beam="2">  1       -1 0.66806134E-01 0.84556842E+02</pdfrwt>
<totfact> 0.91286431E+03</totfact>
</mgrwt>
</event>
<event>
 4    1  0.5015492E-001  0.9212069E+02  0.7546771E-02  0.1297796E+00
          1   -1    0    0  501    0  0.00000000000E+00  0.00000000000E+00  0.73219162906E+03  0.73219162906E+03  0.00000000000E+00 0. -1.
         -1   -1    0    0    0  501 -0.00000000000E+00 -0.00000000000E+00 -0.11830031936E+02  0.11830031936E+02  0.00000000000E+00 0.  1.
         24    1    1    2    0    0  0.36587157895E+02 -0.26084195809E+02  0.30720855483E+03  0.32072311658E+03  0.80419002446E+02 0.  1.
        -24    1    1    2    0    0 -0.36587157895E+02  0.26084195809E+02  0.41315304229E+03  0.42329854442E+03  0.80419002446E+02 0. -1.
<mgrwt>
<rscale>  0 0.92120689E+02</rscale>
<asrwt>0</asrwt>
<pdfrwt beam="1">  1        1 0.11264483E+00 0.92120689E+02</pdfrwt>
<pdfrwt beam="2">  1       -1 0.18200055E-02 0.92120689E+02</pdfrwt>
<totfact> 0.19022701E+04</totfact>
</mgrwt>
</event>
<event>
 4    1  0.5015492E-001  0.9345184E+02  0.7546771E-02  0.1294701E+00
          2   -1    0    0  501    0  0.00000000000E+00  0.00000000000E+00  0.37061548670E+04  0.37061548670E+04  0.00000000000E+00 0. -1.
         -2   -1    0    0    0  501 -0.00000000000E+00 -0.00000000000E+00 -0.10082270103E+02  0.10082270103E+02  0.00000000000E+00 0.  1.
         24    1    1    2    0    0 -0.41552081042E+02  0.23226158465E+02  0.34745865545E+04  0.34758430589E+04  0.80419002446E+02 0. -1.
        -24    1    1    2    0    0  0.41552081042E+02 -0.23226158465E+02  0.22148604247E+03  0.24039407821E+03  0.80419002446E+02 0.  1.
<mgrwt>
<rscale>  0 0.93451837E+02</rscale>
<asrwt>0</asrwt>
<pdfrwt beam="1">  1        2 0.57017659E+00 0.93451837E+02</pdfrwt>
<pdfrwt beam="2">  1       -2 0.15511214E-02 0.93451837E+02</pdfrwt>
<totfact> 0.88069234E+02</totfact>
</mgrwt>
</event>
<event>
 4    1  0.5015492E-001  0.8436249E+02  0.7546771E-02  0.1317108E+00
         -2   -1    0    0    0  501 -0.00000000000E+00  0.00000000000E+00  0.65772010203E+01  0.65772010203E+01  0.00000000000E+00 0.  1.
          2   -1    0    0  501    0  0.00000000000E+00 -0.00000000000E+00 -0.17996134993E+04  0.17996134993E+04  0.00000000000E+00 0. -1.
         24    1    1    2    0    0  0.14644738541E+02 -0.20864926386E+02 -0.14667695670E+04  0.14691936537E+04  0.80419002446E+02 0. -1.
        -24    1    1    2    0    0 -0.14644738541E+02  0.20864926386E+02 -0.32626673136E+03  0.33699704668E+03  0.80419002446E+02 0.  1.
<mgrwt>
<rscale>  0 0.84362489E+02</rscale>
<asrwt>0</asrwt>
<pdfrwt beam="1">  1        2 0.27686370E+00 0.84362489E+02</pdfrwt>
<pdfrwt beam="2">  1       -2 0.10118768E-02 0.84362489E+02</pdfrwt>
<totfact> 0.18712446E+04</totfact>
</mgrwt>
</event>
<event>
 4    1  0.5015492E-001  0.1032525E+03  0.7546771E-02  0.1273601E+00
         -3   -1    0    0    0  501 -0.00000000000E+00  0.00000000000E+00  0.89361160409E+03  0.89361160409E+03  0.00000000000E+00 0.  1.
          3   -1    0    0  501    0  0.00000000000E+00 -0.00000000000E+00 -0.15445065852E+02  0.15445065852E+02  0.00000000000E+00 0. -1.
         24    1    1    2    0    0  0.35995526597E+02 -0.53834787804E+02  0.65590990777E+03  0.66398711236E+03  0.80419002446E+02 0.  1.
        -24    1    1    2    0    0 -0.35995526597E+02  0.53834787804E+02  0.22225663046E+03  0.24506955758E+03  0.80419002446E+02 0. -1.
<mgrwt>
<rscale>  0 0.10325250E+03</rscale>
<asrwt>0</asrwt>
<pdfrwt beam="1">  1        3 0.23761647E-02 0.10325250E+03</pdfrwt>
<pdfrwt beam="2">  1       -3 0.13747867E+00 0.10325250E+03</pdfrwt>
<totfact> 0.69094781E+02</totfact>
</mgrwt>
</event>
<event>
 4    1  0.5015492E-001  0.8190180E+02  0.7546771E-02  0.1323739E+00
         -1   -1    0    0    0  501 -0.00000000000E+00  0.00000000000E+00  0.34023676822E+02  0.34023676822E+02  0.00000000000E+00 0.  1.
          1   -1    0    0  501    0  0.00000000000E+00 -0.00000000000E+00 -0.20875298297E+03  0.20875298297E+03  0.00000000000E+00 0. -1.
         24    1    1    2    0    0  0.89022544667E+01  0.12705740236E+02 -0.11597819881E+03  0.14198184575E+03  0.80419002446E+02 0.  0.
        -24    1    1    2    0    0 -0.89022544667E+01 -0.12705740236E+02 -0.58751107336E+02  0.10079481404E+03  0.80419002446E+02 0.  0.
<mgrwt>
<rscale>  0 0.81901792E+02</rscale>
<asrwt>0</asrwt>
<pdfrwt beam="1">  1        1 0.32115844E-01 0.81901803E+02</pdfrwt>
<pdfrwt beam="2">  1       -1 0.52344118E-02 0.81901803E+02</pdfrwt>
<totfact> 0.20105021E+04</totfact>
</mgrwt>
</event>
<event>
 4    1  0.5015492E-001  0.8394725E+02  0.7546771E-02  0.1318209E+00
         -2   -1    0    0    0  501 -0.00000000000E+00  0.00000000000E+00  0.96173990305E+03  0.96173990305E+03  0.00000000000E+00 0.  1.
          2   -1    0    0  501    0  0.00000000000E+00 -0.00000000000E+00 -0.31560915832E+03  0.31560915832E+03  0.00000000000E+00 0. -1.
         24    1    1    2    0    0  0.22465884346E+02 -0.86722588159E+01 -0.30815157262E+03  0.31938148302E+03  0.80419002446E+02 0. -1.
        -24    1    1    2    0    0 -0.22465884346E+02  0.86722588159E+01  0.95428231734E+03  0.95796757836E+03  0.80419002446E+02 0.  1.
<mgrwt>
<rscale>  0 0.83947245E+02</rscale>
<asrwt>0</asrwt>
<pdfrwt beam="1">  1        2 0.48555256E-01 0.83947245E+02</pdfrwt>
<pdfrwt beam="2">  1       -2 0.14795998E+00 0.83947245E+02</pdfrwt>
<totfact> 0.36174149E+01</totfact>
</mgrwt>
</event>
<event>
 4    1  0.5015492E-001  0.9204938E+02  0.7546771E-02  0.1297963E+00
         -1   -1    0    0    0  501 -0.00000000000E+00  0.00000000000E+00  0.15176772052E+02  0.15176772052E+02  0.00000000000E+00 0.  1.
          1   -1    0    0  501    0  0.00000000000E+00 -0.00000000000E+00 -0.12884135886E+04  0.12884135886E+04  0.00000000000E+00 0. -1.
         24    1    1    2    0    0 -0.39809597939E+02 -0.20519939457E+02 -0.14595830277E+03  0.17255988556E+03  0.80419002446E+02 0.  1.
        -24    1    1    2    0    0  0.39809597939E+02  0.20519939457E+02 -0.11272785138E+04  0.11310304751E+04  0.80419002446E+02 0. -1.
<mgrwt>
<rscale>  0 0.92049378E+02</rscale>
<asrwt>0</asrwt>
<pdfrwt beam="1">  1        1 0.19821752E+00 0.92049378E+02</pdfrwt>
<pdfrwt beam="2">  1       -1 0.23348875E-02 0.92049378E+02</pdfrwt>
<totfact> 0.52380609E+03</totfact>
</mgrwt>
</event>
<event>
 4    1  0.5015492E-001  0.8188928E+02  0.7546771E-02  0.1323774E+00
          2   -1    0    0  501    0  0.00000000000E+00  0.00000000000E+00  0.79923371648E+02  0.79923371648E+02  0.00000000000E+00 0. -1.
         -2   -1    0    0    0  501 -0.00000000000E+00 -0.00000000000E+00 -0.20445425951E+03  0.20445425951E+03  0.00000000000E+00 0.  1.
         24    1    1    2    0    0 -0.94372264991E+01 -0.12230160134E+02  0.46916859880E+02  0.94377146367E+02  0.80419002446E+02 0. -1.
        -24    1    1    2    0    0  0.94372264991E+01  0.12230160134E+02 -0.17144774775E+03  0.19000048479E+03  0.80419002446E+02 0.  1.
<mgrwt>
<rscale>  0 0.81889279E+02</rscale>
<asrwt>0</asrwt>
<pdfrwt beam="1">  1        2 0.12295903E-01 0.81889279E+02</pdfrwt>
<pdfrwt beam="2">  1       -2 0.31454501E-01 0.81889279E+02</pdfrwt>
<totfact> 0.42754766E+03</totfact>
</mgrwt>
</event>
<event>
 4    1  0.5015492E-001  0.8598465E+02  0.7546771E-02  0.1312877E+00
         -2   -1    0    0    0  501 -0.00000000000E+00  0.00000000000E+00  0.67940544787E+01  0.67940544787E+01  0.00000000000E+00 0.  1.
          2   -1    0    0  501    0  0.00000000000E+00 -0.00000000000E+00 -0.13424670009E+04  0.13424670009E+04  0.00000000000E+00 0. -1.
         24    1    1    2    0    0 -0.14205345808E+02 -0.26913795320E+02 -0.96143263163E+03  0.96526994429E+03  0.80419002446E+02 0. -1.
        -24    1    1    2    0    0  0.14205345808E+02  0.26913795320E+02 -0.37424031483E+03  0.38399111112E+03  0.80419002446E+02 0.  1.
<mgrwt>
<rscale>  0 0.85984651E+02</rscale>
<asrwt>0</asrwt>
<pdfrwt beam="1">  1        2 0.20653330E+00 0.85984651E+02</pdfrwt>
<pdfrwt beam="2">  1       -2 0.10452396E-02 0.85984651E+02</pdfrwt>
<totfact> 0.30533929E+04</totfact>
</mgrwt>
</event>
<event>
 4    1  0.5015492E-001  0.1090835E+03  0.7546771E-02  0.1262277E+00
          2   -1    0    0  501    0  0.00000000000E+00  0.00000000000E+00  0.62069583726E+02  0.62069583726E+02  0.00000000000E+00 0. -1.
         -2   -1    0    0    0  501 -0.00000000000E+00 -0.00000000000E+00 -0.39768390975E+03  0.39768390975E+03  0.00000000000E+00 0.  1.
         24    1    1    2    0    0 -0.40534879984E+02  0.61554238249E+02 -0.23694297570E+01  0.10910926126E+03  0.80419002446E+02 0. -1.
        -24    1    1    2    0    0  0.40534879984E+02 -0.61554238249E+02 -0.33324489627E+03  0.35064423222E+03  0.80419002446E+02 0.  1.
<mgrwt>
<rscale>  0 0.10908353E+03</rscale>
<asrwt>0</asrwt>
<pdfrwt beam="1">  1        2 0.95491669E-02 0.10908353E+03</pdfrwt>
<pdfrwt beam="2">  1       -2 0.61182139E-01 0.10908353E+03</pdfrwt>
<totfact> 0.16510846E+03</totfact>
</mgrwt>
</event>
<event>
 4    1  0.5015492E-001  0.9693713E+02  0.7546771E-02  0.1286872E+00
         -2   -1    0    0    0  501 -0.00000000000E+00  0.00000000000E+00  0.92411775055E+01  0.92411775055E+01  0.00000000000E+00 0.  1.
          2   -1    0    0  501    0  0.00000000000E+00 -0.00000000000E+00 -0.12187929072E+04  0.12187929072E+04  0.00000000000E+00 0. -1.
         24    1    1    2    0    0  0.54013885029E+02  0.34773633770E+01 -0.85471800900E+03  0.86019746727E+03  0.80419002446E+02 0. -1.
        -24    1    1    2    0    0 -0.54013885029E+02 -0.34773633770E+01 -0.35483372073E+03  0.36783661747E+03  0.80419002446E+02 0.  1.
<mgrwt>
<rscale>  0 0.96937133E+02</rscale>
<asrwt>0</asrwt>
<pdfrwt beam="1">  1        2 0.18750667E+00 0.96937133E+02</pdfrwt>
<pdfrwt beam="2">  1       -2 0.14217191E-02 0.96937133E+02</pdfrwt>
<totfact> 0.23182581E+04</totfact>
</mgrwt>
</event>
<event>
 4    1  0.5015492E-001  0.8832534E+02  0.7546771E-02  0.1306959E+00
         -2   -1    0    0    0  501 -0.00000000000E+00  0.00000000000E+00  0.15092251488E+02  0.15092251488E+02  0.00000000000E+00 0.  1.
          2   -1    0    0  501    0  0.00000000000E+00 -0.00000000000E+00 -0.58512916847E+03  0.58512916847E+03  0.00000000000E+00 0. -1.
         24    1    1    2    0    0  0.34683535414E+02  0.11454384789E+02 -0.38748977961E+03  0.39742885629E+03  0.80419002446E+02 0. -1.
        -24    1    1    2    0    0 -0.34683535414E+02 -0.11454384789E+02 -0.18254713738E+03  0.20279256367E+03  0.80419002446E+02 0.  1.
<mgrwt>
<rscale>  0 0.88325345E+02</rscale>
<asrwt>0</asrwt>
<pdfrwt beam="1">  1        2 0.90019847E-01 0.88325345E+02</pdfrwt>
<pdfrwt beam="2">  1       -2 0.23218855E-02 0.88325345E+02</pdfrwt>
<totfact> 0.28900125E+04</totfact>
</mgrwt>
</event>
<event>
 4    1  0.5015492E-001  0.8765954E+02  0.7546771E-02  0.1308621E+00
          2   -1    0    0  501    0  0.00000000000E+00  0.00000000000E+00  0.18482306453E+03  0.18482306453E+03  0.00000000000E+00 0. -1.
         -2   -1    0    0    0  501 -0.00000000000E+00 -0.00000000000E+00 -0.95612153419E+02  0.95612153419E+02  0.00000000000E+00 0.  1.
         24    1    1    2    0    0  0.19404348692E+02  0.28990516092E+02  0.15001705816E+03  0.17375071932E+03  0.80419002446E+02 0. -1.
        -24    1    1    2    0    0 -0.19404348692E+02 -0.28990516092E+02 -0.60806147057E+02  0.10668449862E+03  0.80419002446E+02 0.  1.
<mgrwt>
<rscale>  0 0.87659539E+02</rscale>
<asrwt>0</asrwt>
<pdfrwt beam="1">  1        2 0.28434318E-01 0.87659539E+02</pdfrwt>
<pdfrwt beam="2">  1       -2 0.14709562E-01 0.87659539E+02</pdfrwt>
<totfact> 0.60680088E+03</totfact>
</mgrwt>
</event>
<event>
 4    1  0.5015492E-001  0.8060154E+02  0.7546771E-02  0.1327353E+00
          2   -1    0    0  501    0  0.00000000000E+00  0.00000000000E+00  0.16856867902E+03  0.16856867902E+03  0.00000000000E+00 0. -1.
         -2   -1    0    0    0  501 -0.00000000000E+00 -0.00000000000E+00 -0.51343932545E+02  0.51343932545E+02  0.00000000000E+00 0.  1.
         24    1    1    2    0    0 -0.50859303986E+01  0.18776744381E+01  0.11352220846E+03  0.13922607557E+03  0.80419002446E+02 0. -1.
        -24    1    1    2    0    0  0.50859303986E+01 -0.18776744381E+01  0.37025380133E+01  0.80686535998E+02  0.80419002446E+02 0.  0.
<mgrwt>
<rscale>  0 0.80601540E+02</rscale>
<asrwt>0</asrwt>
<pdfrwt beam="1">  1        2 0.25933643E-01 0.80601540E+02</pdfrwt>
<pdfrwt beam="2">  1       -2 0.78990666E-02 0.80601540E+02</pdfrwt>
<totfact> 0.17575286E+04</totfact>
</mgrwt>
</event>
<event>
 4    1  0.5015492E-001  0.1536131E+03  0.7546771E-02  0.1196102E+00
          2   -1    0    0  501    0  0.00000000000E+00  0.00000000000E+00  0.15050930462E+04  0.15050930462E+04  0.00000000000E+00 0. -1.
         -2   -1    0    0    0  501 -0.00000000000E+00 -0.00000000000E+00 -0.21069433735E+02  0.21069433735E+02  0.00000000000E+00 0.  1.
         24    1    1    2    0    0  0.88656875308E+02 -0.96279284987E+02  0.35600625326E+03  0.38773368511E+03  0.80419002446E+02 0.  1.
        -24    1    1    2    0    0 -0.88656875308E+02  0.96279284987E+02  0.11280173592E+04  0.11384287949E+04  0.80419002446E+02 0. -1.
<mgrwt>
<rscale>  0 0.15361303E+03</rscale>
<asrwt>0</asrwt>
<pdfrwt beam="1">  1        2 0.23155269E+00 0.15361305E+03</pdfrwt>
<pdfrwt beam="2">  1       -2 0.32414525E-02 0.15361305E+03</pdfrwt>
<totfact> 0.50582117E+03</totfact>
</mgrwt>
</event>
<event>
 4    1  0.5015492E-001  0.9117143E+02  0.7546771E-02  0.1300039E+00
         -2   -1    0    0    0  501 -0.00000000000E+00  0.00000000000E+00  0.28158805369E+02  0.28158805369E+02  0.00000000000E+00 0.  1.
          2   -1    0    0  501    0  0.00000000000E+00 -0.00000000000E+00 -0.36090066790E+03  0.36090066790E+03  0.00000000000E+00 0. -1.
         24    1    1    2    0    0  0.38672081231E+00 -0.42951871351E+02 -0.24937635257E+03  0.26551985610E+03  0.80419002446E+02 0. -1.
        -24    1    1    2    0    0 -0.38672081231E+00  0.42951871351E+02 -0.83365509956E+02  0.12353961717E+03  0.80419002446E+02 0.  1.
<mgrwt>
<rscale>  0 0.91171425E+02</rscale>
<asrwt>0</asrwt>
<pdfrwt beam="1">  1        2 0.55523176E-01 0.91171425E+02</pdfrwt>
<pdfrwt beam="2">  1       -2 0.43321242E-02 0.91171425E+02</pdfrwt>
<totfact> 0.19612927E+04</totfact>
</mgrwt>
</event>
<event>
 4    1  0.5015492E-001  0.9799699E+02  0.7546771E-02  0.1284565E+00
         -1   -1    0    0    0  501 -0.00000000000E+00  0.00000000000E+00  0.40253880631E+02  0.40253880631E+02  0.00000000000E+00 0.  1.
          1   -1    0    0  501    0  0.00000000000E+00 -0.00000000000E+00 -0.68505287008E+03  0.68505287008E+03  0.00000000000E+00 0. -1.
         24    1    1    2    0    0 -0.49449602048E+02  0.26285580779E+02 -0.29626129012E+02  0.10237733330E+03  0.80419002446E+02 0.  1.
        -24    1    1    2    0    0  0.49449602048E+02 -0.26285580779E+02 -0.61517286043E+03  0.62292941740E+03  0.80419002446E+02 0. -1.
<mgrwt>
<rscale>  0 0.97996994E+02</rscale>
<asrwt>0</asrwt>
<pdfrwt beam="1">  1        1 0.10539275E+00 0.97996994E+02</pdfrwt>
<pdfrwt beam="2">  1       -1 0.61929048E-02 0.97996994E+02</pdfrwt>
<totfact> 0.35628965E+03</totfact>
</mgrwt>
</event>
<event>
 4    1  0.5015492E-001  0.1032046E+03  0.7546771E-02  0.1273698E+00
         -2   -1    0    0    0  501 -0.00000000000E+00  0.00000000000E+00  0.55480754861E+01  0.55480754861E+01  0.00000000000E+00 0.  1.
          2   -1    0    0  501    0  0.00000000000E+00 -0.00000000000E+00 -0.35466598433E+04  0.35466598433E+04  0.00000000000E+00 0. -1.
         24    1    1    2    0    0 -0.16121163380E+02  0.62642464419E+02 -0.29734680086E+04  0.29752585071E+04  0.80419002446E+02 0. -1.
        -24    1    1    2    0    0  0.16121163380E+02 -0.62642464419E+02 -0.56764375926E+03  0.57694941168E+03  0.80419002446E+02 0.  1.
<mgrwt>
<rscale>  0 0.10320458E+03</rscale>
<asrwt>0</asrwt>
<pdfrwt beam="1">  1        2 0.54564111E+00 0.10320458E+03</pdfrwt>
<pdfrwt beam="2">  1       -2 0.85354830E-03 0.10320458E+03</pdfrwt>
<totfact> 0.26154438E+03</totfact>
</mgrwt>
</event>
<event>
 4    1  0.5015492E-001  0.1242297E+03  0.7546771E-02  0.1236278E+00
         -2   -1    0    0    0  501 -0.00000000000E+00  0.00000000000E+00  0.23807561659E+02  0.23807561659E+02  0.00000000000E+00 0.  1.
          2   -1    0    0  501    0  0.00000000000E+00 -0.00000000000E+00 -0.20516333307E+04  0.20516333307E+04  0.00000000000E+00 0. -1.
         24    1    1    2    0    0 -0.94326158454E+02 -0.82686320733E+01 -0.18721755612E+04  0.18762927124E+04  0.80419002446E+02 0. -1.
        -24    1    1    2    0    0  0.94326158454E+02  0.82686320733E+01 -0.15565020776E+03  0.19914817994E+03  0.80419002446E+02 0.  1.
<mgrwt>
<rscale>  0 0.12422967E+03</rscale>
<asrwt>0</asrwt>
<pdfrwt beam="1">  1        2 0.31563611E+00 0.12422967E+03</pdfrwt>
<pdfrwt beam="2">  1       -2 0.36626994E-02 0.12422967E+03</pdfrwt>
<totfact> 0.22097602E+03</totfact>
</mgrwt>
</event>
<event>
 4    1  0.5015492E-001  0.1181865E+03  0.7546771E-02  0.1246119E+00
         -1   -1    0    0    0  501 -0.00000000000E+00  0.00000000000E+00  0.10813744248E+02  0.10813744248E+02  0.00000000000E+00 0.  1.
          1   -1    0    0  501    0  0.00000000000E+00 -0.00000000000E+00 -0.13971202290E+04  0.13971202290E+04  0.00000000000E+00 0. -1.
         24    1    1    2    0    0 -0.86075967470E+02  0.95797754921E+01 -0.49977504090E+03  0.51355929720E+03  0.80419002446E+02 0. -1.
        -24    1    1    2    0    0  0.86075967470E+02 -0.95797754921E+01 -0.88653144388E+03  0.89437467608E+03  0.80419002446E+02 0.  1.
<mgrwt>
<rscale>  0 0.11818655E+03</rscale>
<asrwt>0</asrwt>
<pdfrwt beam="1">  1        1 0.21494161E+00 0.11818655E+03</pdfrwt>
<pdfrwt beam="2">  1       -1 0.16636527E-02 0.11818655E+03</pdfrwt>
<totfact> 0.73014480E+03</totfact>
</mgrwt>
</event>
<event>
 4    1  0.5015492E-001  0.9889385E+02  0.7546771E-02  0.1282639E+00
          1   -1    0    0  501    0  0.00000000000E+00  0.00000000000E+00  0.25047141007E+03  0.25047141007E+03  0.00000000000E+00 0. -1.
         -1   -1    0    0    0  501 -0.00000000000E+00 -0.00000000000E+00 -0.17972496594E+03  0.17972496594E+03  0.00000000000E+00 0.  1.
         24    1    1    2    0    0  0.38100677360E+01 -0.57430490418E+02 -0.15493019815E+03  0.18380250297E+03  0.80419002446E+02 0.  1.
        -24    1    1    2    0    0 -0.38100677360E+01  0.57430490418E+02  0.22567664228E+03  0.24639387304E+03  0.80419002446E+02 0. -1.
<mgrwt>
<rscale>  0 0.98893851E+02</rscale>
<asrwt>0</asrwt>
<pdfrwt beam="1">  1        1 0.38534063E-01 0.98893851E+02</pdfrwt>
<pdfrwt beam="2">  1       -1 0.27649995E-01 0.98893851E+02</pdfrwt>
<totfact> 0.12662811E+03</totfact>
</mgrwt>
</event>
<event>
 4    1  0.5015492E-001  0.8927637E+02  0.7546771E-02  0.1304614E+00
         -2   -1    0    0    0  501 -0.00000000000E+00  0.00000000000E+00  0.16933722323E+02  0.16933722323E+02  0.00000000000E+00 0.  1.
          2   -1    0    0  501    0  0.00000000000E+00 -0.00000000000E+00 -0.51217576047E+03  0.51217576047E+03  0.00000000000E+00 0. -1.
         24    1    1    2    0    0  0.72884432812E+01  0.38077994943E+02 -0.32292826293E+03  0.33504169003E+03  0.80419002446E+02 0. -1.
        -24    1    1    2    0    0 -0.72884432812E+01 -0.38077994943E+02 -0.17231377522E+03  0.19406779277E+03  0.80419002446E+02 0.  1.
<mgrwt>
<rscale>  0 0.89276375E+02</rscale>
<asrwt>0</asrwt>
<pdfrwt beam="1">  1        2 0.78796274E-01 0.89276375E+02</pdfrwt>
<pdfrwt beam="2">  1       -2 0.26051879E-02 0.89276375E+02</pdfrwt>
<totfact> 0.28356399E+04</totfact>
</mgrwt>
</event>
<event>
 4    1  0.5015492E-001  0.8437707E+02  0.7546771E-02  0.1317070E+00
         -1   -1    0    0    0  501 -0.00000000000E+00  0.00000000000E+00  0.41711489496E+03  0.41711489496E+03  0.00000000000E+00 0.  1.
          1   -1    0    0  501    0  0.00000000000E+00 -0.00000000000E+00 -0.48118120539E+02  0.48118120539E+02  0.00000000000E+00 0. -1.
         24    1    1    2    0    0  0.21813628781E+02 -0.13283031638E+02  0.37135779180E+03  0.38082292317E+03  0.80419002446E+02 0.  1.
        -24    1    1    2    0    0 -0.21813628781E+02  0.13283031638E+02 -0.23610173711E+01  0.84410092332E+02  0.80419002446E+02 0. -1.
<mgrwt>
<rscale>  0 0.84377066E+02</rscale>
<asrwt>0</asrwt>
<pdfrwt beam="1">  1        1 0.74027881E-02 0.84377066E+02</pdfrwt>
<pdfrwt beam="2">  1       -1 0.64171520E-01 0.84377066E+02</pdfrwt>
<totfact> 0.23263565E+03</totfact>
</mgrwt>
</event>
<event>
 4    1  0.5015492E-001  0.1057834E+03  0.7546771E-02  0.1268584E+00
          1   -1    0    0  501    0  0.00000000000E+00  0.00000000000E+00  0.57737697442E+03  0.57737697442E+03  0.00000000000E+00 0. -1.
         -1   -1    0    0    0  501 -0.00000000000E+00 -0.00000000000E+00 -0.19880552534E+02  0.19880552534E+02  0.00000000000E+00 0.  1.
         24    1    1    2    0    0 -0.56254806837E+00  0.68721208934E+02  0.23140991302E+03  0.25444190853E+03  0.80419002446E+02 0.  1.
        -24    1    1    2    0    0  0.56254806837E+00 -0.68721208934E+02  0.32608650886E+03  0.34281561842E+03  0.80419002446E+02 0.  0.
<mgrwt>
<rscale>  0 0.10578344E+03</rscale>
<asrwt>0</asrwt>
<pdfrwt beam="1">  1        1 0.88827214E-01 0.10578344E+03</pdfrwt>
<pdfrwt beam="2">  1       -1 0.30585470E-02 0.10578344E+03</pdfrwt>
<totfact> 0.12680093E+04</totfact>
</mgrwt>
</event>
<event>
 4    1  0.5015492E-001  0.9664633E+02  0.7546771E-02  0.1287511E+00
          1   -1    0    0  501    0  0.00000000000E+00  0.00000000000E+00  0.18940416269E+04  0.18940416269E+04  0.00000000000E+00 0. -1.
         -1   -1    0    0    0  501 -0.00000000000E+00 -0.00000000000E+00 -0.79981744618E+01  0.79981744618E+01  0.00000000000E+00 0.  1.
         24    1    1    2    0    0 -0.25061635390E+02  0.47383662331E+02  0.35414246355E+03  0.36709317273E+03  0.80419002446E+02 0.  1.
        -24    1    1    2    0    0  0.25061635390E+02 -0.47383662331E+02  0.15319009889E+04  0.15349466286E+04  0.80419002446E+02 0. -1.
<mgrwt>
<rscale>  0 0.96646329E+02</rscale>
<asrwt>0</asrwt>
<pdfrwt beam="1">  1        1 0.29139066E+00 0.96646329E+02</pdfrwt>
<pdfrwt beam="2">  1       -1 0.12304899E-02 0.96646329E+02</pdfrwt>
<totfact> 0.53745069E+03</totfact>
</mgrwt>
</event>
<event>
 4    1  0.5015492E-001  0.8371265E+02  0.7546771E-02  0.1318834E+00
          1   -1    0    0  501    0  0.00000000000E+00  0.00000000000E+00  0.17798680216E+04  0.17798680216E+04  0.00000000000E+00 0. -1.
         -1   -1    0    0    0  501 -0.00000000000E+00 -0.00000000000E+00 -0.70753732704E+01  0.70753732704E+01  0.00000000000E+00 0.  1.
         24    1    1    2    0    0  0.19875899576E+02 -0.12064035574E+02  0.29136445034E+03  0.30315186163E+03  0.80419002446E+02 0.  1.
        -24    1    1    2    0    0 -0.19875899576E+02  0.12064035574E+02  0.14814281980E+04  0.14837915332E+04  0.80419002446E+02 0. -1.
<mgrwt>
<rscale>  0 0.83712653E+02</rscale>
<asrwt>0</asrwt>
<pdfrwt beam="1">  1        1 0.27382549E+00 0.83712653E+02</pdfrwt>
<pdfrwt beam="2">  1       -1 0.10885204E-02 0.83712653E+02</pdfrwt>
<totfact> 0.74912505E+03</totfact>
</mgrwt>
</event>
<event>
 4    1  0.5015492E-001  0.8166464E+02  0.7546771E-02  0.1324393E+00
         -1   -1    0    0    0  501 -0.00000000000E+00  0.00000000000E+00  0.19899572339E+02  0.19899572339E+02  0.00000000000E+00 0.  1.
          1   -1    0    0  501    0  0.00000000000E+00 -0.00000000000E+00 -0.24169745503E+04  0.24169745503E+04  0.00000000000E+00 0. -1.
         24    1    1    2    0    0 -0.14187179770E+02  0.78852808155E+00 -0.67725721980E+02  0.10609376616E+03  0.80419002446E+02 0.  1.
        -24    1    1    2    0    0  0.14187179770E+02 -0.78852808155E+00 -0.23293492560E+04  0.23307803565E+04  0.80419002446E+02 0. -1.
<mgrwt>
<rscale>  0 0.81664642E+02</rscale>
<asrwt>0</asrwt>
<pdfrwt beam="1">  1        1 0.37184212E+00 0.81664642E+02</pdfrwt>
<pdfrwt beam="2">  1       -1 0.30614737E-02 0.81664642E+02</pdfrwt>
<totfact> 0.68578895E+02</totfact>
</mgrwt>
</event>
<event>
 4    1  0.5015492E-001  0.1374751E+03  0.7546771E-02  0.1216767E+00
         -2   -1    0    0    0  501 -0.00000000000E+00  0.00000000000E+00  0.23743995584E+03  0.23743995584E+03  0.00000000000E+00 0.  1.
          2   -1    0    0  501    0  0.00000000000E+00 -0.00000000000E+00 -0.80560300271E+02  0.80560300271E+02  0.00000000000E+00 0. -1.
         24    1    1    2    0    0  0.14969669023E+01 -0.11148961380E+03  0.61048644817E+02  0.15042050354E+03  0.80419002446E+02 0. -1.
        -24    1    1    2    0    0 -0.14969669023E+01  0.11148961380E+03  0.95831010749E+02  0.16757975257E+03  0.80419002446E+02 0.  1.
<mgrwt>
<rscale>  0 0.13747506E+03</rscale>
<asrwt>0</asrwt>
<pdfrwt beam="1">  1        2 0.12393892E-01 0.13747506E+03</pdfrwt>
<pdfrwt beam="2">  1       -2 0.36529224E-01 0.13747506E+03</pdfrwt>
<totfact> 0.33400984E+03</totfact>
</mgrwt>
</event>
<event>
 4    1  0.5015492E-001  0.9970956E+02  0.7546771E-02  0.1280908E+00
          2   -1    0    0  501    0  0.00000000000E+00  0.00000000000E+00  0.32987110724E+04  0.32987110724E+04  0.00000000000E+00 0. -1.
         -2   -1    0    0    0  501 -0.00000000000E+00 -0.00000000000E+00 -0.30202446351E+01  0.30202446351E+01  0.00000000000E+00 0.  1.
         24    1    1    2    0    0 -0.43376886046E+02 -0.39915179146E+02  0.15721922054E+04  0.15753508570E+04  0.80419002446E+02 0.  0.
        -24    1    1    2    0    0  0.43376886046E+02  0.39915179146E+02  0.17234986224E+04  0.17263804601E+04  0.80419002446E+02 0.  0.
<mgrwt>
<rscale>  0 0.99709549E+02</rscale>
<asrwt>0</asrwt>
<pdfrwt beam="1">  1        2 0.50749113E+00 0.99709562E+02</pdfrwt>
<pdfrwt beam="2">  1       -2 0.46465566E-03 0.99709562E+02</pdfrwt>
<totfact> 0.88269722E+03</totfact>
</mgrwt>
</event>
<event>
 4    1  0.5015492E-001  0.9591135E+02  0.7546771E-02  0.1289137E+00
          1   -1    0    0  501    0  0.00000000000E+00  0.00000000000E+00  0.14087880121E+04  0.14087880121E+04  0.00000000000E+00 0. -1.
         -1   -1    0    0    0  501 -0.00000000000E+00 -0.00000000000E+00 -0.85301093406E+01  0.85301093406E+01  0.00000000000E+00 0.  1.
         24    1    1    2    0    0 -0.49794807240E+02 -0.15882182066E+02  0.10433058038E+04  0.10477051030E+04  0.80419002446E+02 0. -1.
        -24    1    1    2    0    0  0.49794807240E+02  0.15882182066E+02  0.35695209888E+03  0.36961301842E+03  0.80419002446E+02 0.  1.
<mgrwt>
<rscale>  0 0.95911338E+02</rscale>
<asrwt>0</asrwt>
<pdfrwt beam="1">  1        1 0.21673643E+00 0.95911350E+02</pdfrwt>
<pdfrwt beam="2">  1       -1 0.13123256E-02 0.95911350E+02</pdfrwt>
<totfact> 0.99537510E+03</totfact>
</mgrwt>
</event>
<event>
 4    1  0.5015492E-001  0.8163819E+02  0.7546771E-02  0.1324466E+00
         -2   -1    0    0    0  501 -0.00000000000E+00  0.00000000000E+00  0.15468502839E+03  0.15468502839E+03  0.00000000000E+00 0.  1.
          2   -1    0    0  501    0  0.00000000000E+00 -0.00000000000E+00 -0.13234050742E+03  0.13234050742E+03  0.00000000000E+00 0. -1.
         24    1    1    2    0    0 -0.10163026714E+02 -0.97101836336E+01  0.12903016758E+03  0.15268783475E+03  0.80419002446E+02 0.  1.
        -24    1    1    2    0    0  0.10163026714E+02  0.97101836336E+01 -0.10668564662E+03  0.13433770106E+03  0.80419002446E+02 0.  0.
<mgrwt>
<rscale>  0 0.81638180E+02</rscale>
<asrwt>0</asrwt>
<pdfrwt beam="1">  1        2 0.20360078E-01 0.81638190E+02</pdfrwt>
<pdfrwt beam="2">  1       -2 0.23797697E-01 0.81638190E+02</pdfrwt>
<totfact> 0.39106391E+03</totfact>
</mgrwt>
</event>
<event>
 4    1  0.5015492E-001  0.8747448E+02  0.7546771E-02  0.1309085E+00
         -1   -1    0    0    0  501 -0.00000000000E+00  0.00000000000E+00  0.22734319572E+02  0.22734319572E+02  0.00000000000E+00 0.  1.
          1   -1    0    0  501    0  0.00000000000E+00 -0.00000000000E+00 -0.36978240651E+03  0.36978240651E+03  0.00000000000E+00 0. -1.
         24    1    1    2    0    0  0.10818477707E+02 -0.32673065480E+02 -0.11471041271E+03  0.14425762859E+03  0.80419002446E+02 0. -1.
        -24    1    1    2    0    0 -0.10818477707E+02  0.32673065480E+02 -0.23233767423E+03  0.24825909749E+03  0.80419002446E+02 0. -1.
<mgrwt>
<rscale>  0 0.87474480E+02</rscale>
<asrwt>0</asrwt>
<pdfrwt beam="1">  1        1 0.56889600E-01 0.87474480E+02</pdfrwt>
<pdfrwt beam="2">  1       -1 0.34975877E-02 0.87474480E+02</pdfrwt>
<totfact> 0.18105120E+04</totfact>
</mgrwt>
</event>
<event>
 4    1  0.5015492E-001  0.8237938E+02  0.7546771E-02  0.1322432E+00
         -2   -1    0    0    0  501 -0.00000000000E+00  0.00000000000E+00  0.45652486755E+02  0.45652486755E+02  0.00000000000E+00 0.  1.
          2   -1    0    0  501    0  0.00000000000E+00 -0.00000000000E+00 -0.15221449909E+03  0.15221449909E+03  0.00000000000E+00 0. -1.
         24    1    1    2    0    0 -0.17846187417E+02  0.81231673544E+00 -0.68415026515E+02  0.10708397673E+03  0.80419002446E+02 0. -1.
        -24    1    1    2    0    0  0.17846187417E+02 -0.81231673544E+00 -0.38146985823E+02  0.90783009124E+02  0.80419002446E+02 0.  1.
<mgrwt>
<rscale>  0 0.82379380E+02</rscale>
<asrwt>0</asrwt>
<pdfrwt beam="1">  1        2 0.23417615E-01 0.82379380E+02</pdfrwt>
<pdfrwt beam="2">  1       -2 0.70234595E-02 0.82379380E+02</pdfrwt>
<totfact> 0.23524814E+04</totfact>
</mgrwt>
</event>
<event>
 4    1  0.5015492E-001  0.1136241E+03  0.7546771E-02  0.1254002E+00
          2   -1    0    0  501    0  0.00000000000E+00  0.00000000000E+00  0.48899748074E+03  0.48899748074E+03  0.00000000000E+00 0. -1.
         -2   -1    0    0    0  501 -0.00000000000E+00 -0.00000000000E+00 -0.35820802456E+02  0.35820802456E+02  0.00000000000E+00 0.  1.
         24    1    1    2    0    0  0.77969024343E+02  0.19080318887E+02  0.36114721960E+03  0.37859973257E+03  0.80419002446E+02 0. -1.
        -24    1    1    2    0    0 -0.77969024343E+02 -0.19080318887E+02  0.92029458682E+02  0.14621855062E+03  0.80419002446E+02 0.  1.
<mgrwt>
<rscale>  0 0.11362413E+03</rscale>
<asrwt>0</asrwt>
<pdfrwt beam="1">  1        2 0.75230377E-01 0.11362413E+03</pdfrwt>
<pdfrwt beam="2">  1       -2 0.55108930E-02 0.11362413E+03</pdfrwt>
<totfact> 0.10116673E+04</totfact>
</mgrwt>
</event>
<event>
 4    1  0.5015492E-001  0.8169330E+02  0.7546771E-02  0.1324314E+00
          2   -1    0    0  501    0  0.00000000000E+00  0.00000000000E+00  0.66624492132E+02  0.66624492132E+02  0.00000000000E+00 0. -1.
         -2   -1    0    0    0  501 -0.00000000000E+00 -0.00000000000E+00 -0.13179114878E+03  0.13179114878E+03  0.00000000000E+00 0.  1.
         24    1    1    2    0    0 -0.14709398806E+01 -0.14297396732E+02  0.16011445842E+02  0.83247591976E+02  0.80419002446E+02 0. -1.
        -24    1    1    2    0    0  0.14709398806E+01  0.14297396732E+02 -0.81178102489E+02  0.11516804894E+03  0.80419002446E+02 0. -1.
<mgrwt>
<rscale>  0 0.81693299E+02</rscale>
<asrwt>0</asrwt>
<pdfrwt beam="1">  1        2 0.10249922E-01 0.81693299E+02</pdfrwt>
<pdfrwt beam="2">  1       -2 0.20275561E-01 0.81693299E+02</pdfrwt>
<totfact> 0.11353081E+04</totfact>
</mgrwt>
</event>
<event>
 4    1  0.5015492E-001  0.8149029E+02  0.7546771E-02  0.1324875E+00
         -1   -1    0    0    0  501 -0.00000000000E+00  0.00000000000E+00  0.25862088590E+02  0.25862088590E+02  0.00000000000E+00 0.  1.
          1   -1    0    0  501    0  0.00000000000E+00 -0.00000000000E+00 -0.68241588625E+03  0.68241588625E+03  0.00000000000E+00 0. -1.
         24    1    1    2    0    0 -0.96654279265E+01 -0.89460045843E+01 -0.48589928781E+02  0.94877018442E+02  0.80419002446E+02 0.  1.
        -24    1    1    2    0    0  0.96654279265E+01  0.89460045843E+01 -0.60796386888E+03  0.61340095640E+03  0.80419002446E+02 0. -1.
<mgrwt>
<rscale>  0 0.81490291E+02</rscale>
<asrwt>0</asrwt>
<pdfrwt beam="1">  1        1 0.10498706E+00 0.81490291E+02</pdfrwt>
<pdfrwt beam="2">  1       -1 0.39787828E-02 0.81490291E+02</pdfrwt>
<totfact> 0.67701666E+03</totfact>
</mgrwt>
</event>
<event>
 4    1  0.5015492E-001  0.9231798E+02  0.7546771E-02  0.1297334E+00
          2   -1    0    0  501    0  0.00000000000E+00  0.00000000000E+00  0.25124702141E+04  0.25124702141E+04  0.00000000000E+00 0. -1.
         -2   -1    0    0    0  501 -0.00000000000E+00 -0.00000000000E+00 -0.34475799715E+01  0.34475799715E+01  0.00000000000E+00 0.  1.
         24    1    1    2    0    0  0.40001520873E+02 -0.21336979109E+02  0.10949626754E+04  0.10988475166E+04  0.80419002446E+02 0. -1.
        -24    1    1    2    0    0 -0.40001520873E+02  0.21336979109E+02  0.14140599588E+04  0.14170702775E+04  0.80419002446E+02 0. -1.
<mgrwt>
<rscale>  0 0.92317964E+02</rscale>
<asrwt>0</asrwt>
<pdfrwt beam="1">  1        2 0.38653242E+00 0.92317975E+02</pdfrwt>
<pdfrwt beam="2">  1       -2 0.53039893E-03 0.92317975E+02</pdfrwt>
<totfact> 0.20262961E+04</totfact>
</mgrwt>
</event>
<event>
 4    1  0.5015492E-001  0.1372916E+03  0.7546771E-02  0.1217020E+00
          1   -1    0    0  501    0  0.00000000000E+00  0.00000000000E+00  0.18858995065E+04  0.18858995065E+04  0.00000000000E+00 0. -1.
         -1   -1    0    0    0  501 -0.00000000000E+00 -0.00000000000E+00 -0.11804649402E+02  0.11804649402E+02  0.00000000000E+00 0.  1.
         24    1    1    2    0    0  0.10150763312E+03 -0.45584807347E+02  0.56550724240E+03  0.58193421570E+03  0.80419002446E+02 0.  1.
        -24    1    1    2    0    0 -0.10150763312E+03  0.45584807347E+02  0.13085876147E+04  0.13157699402E+04  0.80419002446E+02 0. -1.
<mgrwt>
<rscale>  0 0.13729162E+03</rscale>
<asrwt>0</asrwt>
<pdfrwt beam="1">  1        1 0.29013815E+00 0.13729162E+03</pdfrwt>
<pdfrwt beam="2">  1       -1 0.18161014E-02 0.13729162E+03</pdfrwt>
<totfact> 0.31431854E+03</totfact>
</mgrwt>
</event>
<event>
 4    1  0.5015492E-001  0.8824596E+02  0.7546771E-02  0.1307156E+00
          2   -1    0    0  501    0  0.00000000000E+00  0.00000000000E+00  0.11450959541E+04  0.11450959541E+04  0.00000000000E+00 0. -1.
         -2   -1    0    0    0  501 -0.00000000000E+00 -0.00000000000E+00 -0.10583947608E+02  0.10583947608E+02  0.00000000000E+00 0.  1.
         24    1    1    2    0    0  0.20723589992E+02  0.29844035324E+02  0.91273475675E+03  0.91699077736E+03  0.80419002446E+02 0. -1.
        -24    1    1    2    0    0 -0.20723589992E+02 -0.29844035324E+02  0.22177724979E+03  0.23868912440E+03  0.80419002446E+02 0.  1.
<mgrwt>
<rscale>  0 0.88245961E+02</rscale>
<asrwt>0</asrwt>
<pdfrwt beam="1">  1        2 0.17616851E+00 0.88245961E+02</pdfrwt>
<pdfrwt beam="2">  1       -2 0.16283005E-02 0.88245961E+02</pdfrwt>
<totfact> 0.20795969E+04</totfact>
</mgrwt>
</event>
<event>
 4    1  0.5015492E-001  0.8546809E+02  0.7546771E-02  0.1314213E+00
          3   -1    0    0  501    0  0.00000000000E+00  0.00000000000E+00  0.15049808910E+04  0.15049808910E+04  0.00000000000E+00 0. -1.
         -3   -1    0    0    0  501 -0.00000000000E+00 -0.00000000000E+00 -0.51490435541E+01  0.51490435541E+01  0.00000000000E+00 0.  1.
         24    1    1    2    0    0  0.44932167122E+01  0.28589955896E+02  0.93073870193E+03  0.93465465376E+03  0.80419002446E+02 0. -1.
        -24    1    1    2    0    0 -0.44932167122E+01 -0.28589955896E+02  0.56909314549E+03  0.57547528076E+03  0.80419002446E+02 0.  1.
<mgrwt>
<rscale>  0 0.85468078E+02</rscale>
<asrwt>0</asrwt>
<pdfrwt beam="1">  1        3 0.23153517E+00 0.85468089E+02</pdfrwt>
<pdfrwt beam="2">  1       -3 0.79216175E-03 0.85468089E+02</pdfrwt>
<totfact> 0.88753562E+02</totfact>
</mgrwt>
</event>
<event>
 4    1  0.5015492E-001  0.1028679E+03  0.7546771E-02  0.1274378E+00
         -2   -1    0    0    0  501 -0.00000000000E+00  0.00000000000E+00  0.65451362098E+02  0.65451362098E+02  0.00000000000E+00 0.  1.
          2   -1    0    0  501    0  0.00000000000E+00 -0.00000000000E+00 -0.16402169208E+03  0.16402169208E+03  0.00000000000E+00 0. -1.
         24    1    1    2    0    0  0.62964975933E+02  0.12247004714E+02 -0.35558727573E+02  0.10884032515E+03  0.80419002446E+02 0.  0.
        -24    1    1    2    0    0 -0.62964975933E+02 -0.12247004714E+02 -0.63011602403E+02  0.12063272902E+03  0.80419002446E+02 0.  1.
<mgrwt>
<rscale>  0 0.10286786E+03</rscale>
<asrwt>0</asrwt>
<pdfrwt beam="1">  1        2 0.25234106E-01 0.10286787E+03</pdfrwt>
<pdfrwt beam="2">  1       -2 0.10069440E-01 0.10286787E+03</pdfrwt>
<totfact> 0.12767315E+04</totfact>
</mgrwt>
</event>
<event>
 4    1  0.5015492E-001  0.1277850E+03  0.7546771E-02  0.1230780E+00
          1   -1    0    0  501    0  0.00000000000E+00  0.00000000000E+00  0.11708263379E+04  0.11708263379E+04  0.00000000000E+00 0. -1.
         -1   -1    0    0    0  501 -0.00000000000E+00 -0.00000000000E+00 -0.34195606842E+02  0.34195606842E+02  0.00000000000E+00 0.  1.
         24    1    1    2    0    0  0.26729514762E+01 -0.99270545995E+02  0.10467410761E+03  0.16518374838E+03  0.80419002446E+02 0.  1.
        -24    1    1    2    0    0 -0.26729514762E+01  0.99270545995E+02  0.10319566235E+04  0.10398381964E+04  0.80419002446E+02 0. -1.
<mgrwt>
<rscale>  0 0.12778498E+03</rscale>
<asrwt>0</asrwt>
<pdfrwt beam="1">  1        1 0.18012710E+00 0.12778498E+03</pdfrwt>
<pdfrwt beam="2">  1       -1 0.52608635E-02 0.12778498E+03</pdfrwt>
<totfact> 0.19460581E+03</totfact>
</mgrwt>
</event>
<event>
 4    1  0.5015492E-001  0.8170477E+02  0.7546771E-02  0.1324282E+00
          1   -1    0    0  501    0  0.00000000000E+00  0.00000000000E+00  0.14089307557E+03  0.14089307557E+03  0.00000000000E+00 0. -1.
         -1   -1    0    0    0  501 -0.00000000000E+00 -0.00000000000E+00 -0.47381162159E+02  0.47381162159E+02  0.00000000000E+00 0.  1.
         24    1    1    2    0    0 -0.70642503521E+01  0.12591637406E+02  0.46648239314E+02  0.94083617868E+02  0.80419002446E+02 0.  0.
        -24    1    1    2    0    0  0.70642503521E+01 -0.12591637406E+02  0.46863674095E+02  0.94190619860E+02  0.80419002446E+02 0.  1.
<mgrwt>
<rscale>  0 0.81704767E+02</rscale>
<asrwt>0</asrwt>
<pdfrwt beam="1">  1        1 0.21675858E-01 0.81704767E+02</pdfrwt>
<pdfrwt beam="2">  1       -1 0.72894096E-02 0.81704767E+02</pdfrwt>
<totfact> 0.20042896E+04</totfact>
</mgrwt>
</event>
<event>
 4    1  0.5015492E-001  0.8650873E+02  0.7546771E-02  0.1311534E+00
          3   -1    0    0  501    0  0.00000000000E+00  0.00000000000E+00  0.33187241505E+02  0.33187241505E+02  0.00000000000E+00 0. -1.
         -3   -1    0    0    0  501 -0.00000000000E+00 -0.00000000000E+00 -0.27876703201E+03  0.27876703201E+03  0.00000000000E+00 0.  1.
         24    1    1    2    0    0 -0.84888413227E+01 -0.30732465271E+02 -0.19097112641E+03  0.20965145343E+03  0.80419002446E+02 0.  1.
        -24    1    1    2    0    0  0.84888413227E+01  0.30732465271E+02 -0.54608664095E+02  0.10230282008E+03  0.80419002446E+02 0. -1.
<mgrwt>
<rscale>  0 0.86508733E+02</rscale>
<asrwt>0</asrwt>
<pdfrwt beam="1">  1        3 0.51057296E-02 0.86508733E+02</pdfrwt>
<pdfrwt beam="2">  1       -3 0.42887234E-01 0.86508733E+02</pdfrwt>
<totfact> 0.25031405E+03</totfact>
</mgrwt>
</event>
<event>
 4    1  0.5015492E-001  0.1300396E+03  0.7546771E-02  0.1227397E+00
          1   -1    0    0  501    0  0.00000000000E+00  0.00000000000E+00  0.61288546010E+03  0.61288546010E+03  0.00000000000E+00 0. -1.
         -1   -1    0    0    0  501 -0.00000000000E+00 -0.00000000000E+00 -0.59855120987E+02  0.59855120987E+02  0.00000000000E+00 0.  1.
         24    1    1    2    0    0  0.76222033297E+02  0.68068201040E+02  0.29556083944E+02  0.13335612624E+03  0.80419002446E+02 0.  1.
        -24    1    1    2    0    0 -0.76222033297E+02 -0.68068201040E+02  0.52347425517E+03  0.53938445484E+03  0.80419002446E+02 0. -1.
<mgrwt>
<rscale>  0 0.13003959E+03</rscale>
<asrwt>0</asrwt>
<pdfrwt beam="1">  1        1 0.94290066E-01 0.13003959E+03</pdfrwt>
<pdfrwt beam="2">  1       -1 0.92084806E-02 0.13003959E+03</pdfrwt>
<totfact> 0.23189535E+03</totfact>
</mgrwt>
</event>
<event>
 4    1  0.5015492E-001  0.8824324E+02  0.7546771E-02  0.1307163E+00
          2   -1    0    0  501    0  0.00000000000E+00  0.00000000000E+00  0.47264693636E+03  0.47264693636E+03  0.00000000000E+00 0. -1.
         -2   -1    0    0    0  501 -0.00000000000E+00 -0.00000000000E+00 -0.22966978738E+02  0.22966978738E+02  0.00000000000E+00 0.  1.
         24    1    1    2    0    0 -0.30344573454E+02  0.19971478595E+02  0.35658959039E+03  0.36734589289E+03  0.80419002446E+02 0. -1.
        -24    1    1    2    0    0  0.30344573454E+02 -0.19971478595E+02  0.93090367234E+02  0.12826802221E+03  0.80419002446E+02 0.  1.
<mgrwt>
<rscale>  0 0.88243238E+02</rscale>
<asrwt>0</asrwt>
<pdfrwt beam="1">  1        2 0.72714906E-01 0.88243238E+02</pdfrwt>
<pdfrwt beam="2">  1       -2 0.35333817E-02 0.88243238E+02</pdfrwt>
<totfact> 0.19827883E+04</totfact>
</mgrwt>
</event>
<event>
 4    1  0.5015492E-001  0.1007951E+03  0.7546771E-02  0.1278633E+00
          2   -1    0    0  501    0  0.00000000000E+00  0.00000000000E+00  0.15499867489E+04  0.15499867489E+04  0.00000000000E+00 0. -1.
         -2   -1    0    0    0  501 -0.00000000000E+00 -0.00000000000E+00 -0.79244564070E+01  0.79244564070E+01  0.00000000000E+00 0.  1.
         24    1    1    2    0    0 -0.59481883555E+02  0.12423737499E+02  0.10948883555E+04  0.10995181539E+04  0.80419002446E+02 0. -1.
        -24    1    1    2    0    0  0.59481883555E+02 -0.12423737499E+02  0.44717393692E+03  0.45839305137E+03  0.80419002446E+02 0.  1.
<mgrwt>
<rscale>  0 0.10079514E+03</rscale>
<asrwt>0</asrwt>
<pdfrwt beam="1">  1        2 0.23845926E+00 0.10079514E+03</pdfrwt>
<pdfrwt beam="2">  1       -2 0.12191484E-02 0.10079514E+03</pdfrwt>
<totfact> 0.19419624E+04</totfact>
</mgrwt>
</event>
<event>
 4    1  0.5015492E-001  0.9486721E+02  0.7546771E-02  0.1291475E+00
         -1   -1    0    0    0  501 -0.00000000000E+00  0.00000000000E+00  0.43261024705E+03  0.43261024705E+03  0.00000000000E+00 0.  1.
          1   -1    0    0  501    0  0.00000000000E+00 -0.00000000000E+00 -0.14833864567E+03  0.14833864567E+03  0.00000000000E+00 0. -1.
         24    1    1    2    0    0  0.41242464138E+02  0.28838024164E+02  0.41147266102E+03  0.42226714199E+03  0.80419002446E+02 0.  1.
        -24    1    1    2    0    0 -0.41242464138E+02 -0.28838024164E+02 -0.12720105964E+03  0.15868175073E+03  0.80419002446E+02 0. -1.
<mgrwt>
<rscale>  0 0.94867215E+02</rscale>
<asrwt>0</asrwt>
<pdfrwt beam="1">  1        1 0.22821330E-01 0.94867215E+02</pdfrwt>
<pdfrwt beam="2">  1       -1 0.66555422E-01 0.94867215E+02</pdfrwt>
<totfact> 0.51055691E+02</totfact>
</mgrwt>
</event>
<event>
 4    1  0.5015492E-001  0.8148210E+02  0.7546771E-02  0.1324897E+00
          2   -1    0    0  501    0  0.00000000000E+00  0.00000000000E+00  0.17419464570E+03  0.17419464570E+03  0.00000000000E+00 0. -1.
         -2   -1    0    0    0  501 -0.00000000000E+00 -0.00000000000E+00 -0.29263922879E+03  0.29263922879E+03  0.00000000000E+00 0.  1.
         24    1    1    2    0    0  0.52502727103E+01 -0.12022932464E+02  0.15846402617E+03  0.17818580138E+03  0.80419002446E+02 0. -1.
        -24    1    1    2    0    0 -0.52502727103E+01  0.12022932464E+02 -0.27690860926E+03  0.28864807310E+03  0.80419002446E+02 0.  1.
<mgrwt>
<rscale>  0 0.81482098E+02</rscale>
<asrwt>0</asrwt>
<pdfrwt beam="1">  1        2 0.26799177E-01 0.81482098E+02</pdfrwt>
<pdfrwt beam="2">  1       -2 0.45021419E-01 0.81482098E+02</pdfrwt>
<totfact> 0.91447850E+02</totfact>
</mgrwt>
</event>
<event>
 4    1  0.5015492E-001  0.8951098E+02  0.7546771E-02  0.1304040E+00
         -4   -1    0    0    0  501 -0.00000000000E+00  0.00000000000E+00  0.52377240503E+02  0.52377240503E+02  0.00000000000E+00 0.  1.
          4   -1    0    0  501    0  0.00000000000E+00 -0.00000000000E+00 -0.19931918157E+03  0.19931918157E+03  0.00000000000E+00 0. -1.
         24    1    1    2    0    0 -0.29578226344E+02 -0.25886846684E+02 -0.13415679993E+03  0.16127697674E+03  0.80419002446E+02 0. -1.
        -24    1    1    2    0    0  0.29578226344E+02  0.25886846684E+02 -0.12785141130E+02  0.90419445325E+02  0.80419002446E+02 0.  1.
<mgrwt>
<rscale>  0 0.89510984E+02</rscale>
<asrwt>0</asrwt>
<pdfrwt beam="1">  1        4 0.30664489E-01 0.89510984E+02</pdfrwt>
<pdfrwt beam="2">  1       -4 0.80580371E-02 0.89510984E+02</pdfrwt>
<totfact> 0.16555351E+03</totfact>
</mgrwt>
</event>
<event>
 4    1  0.5015492E-001  0.8662105E+02  0.7546771E-02  0.1311247E+00
          2   -1    0    0  501    0  0.00000000000E+00  0.00000000000E+00  0.46219254086E+03  0.46219254086E+03  0.00000000000E+00 0. -1.
         -2   -1    0    0    0  501 -0.00000000000E+00 -0.00000000000E+00 -0.16292121120E+02  0.16292121120E+02  0.00000000000E+00 0.  1.
         24    1    1    2    0    0 -0.21800187988E+02  0.23679905214E+02  0.20865232287E+03  0.22591811326E+03  0.80419002446E+02 0. -1.
        -24    1    1    2    0    0  0.21800187988E+02 -0.23679905214E+02  0.23724809687E+03  0.25256654872E+03  0.80419002446E+02 0.  0.
<mgrwt>
<rscale>  0 0.86621036E+02</rscale>
<asrwt>0</asrwt>
<pdfrwt beam="1">  1        2 0.71106535E-01 0.86621047E+02</pdfrwt>
<pdfrwt beam="2">  1       -2 0.25064805E-02 0.86621047E+02</pdfrwt>
<totfact> 0.33368632E+04</totfact>
</mgrwt>
</event>
<event>
 4    1  0.5015492E-001  0.9586641E+02  0.7546771E-02  0.1289237E+00
         -2   -1    0    0    0  501 -0.00000000000E+00  0.00000000000E+00  0.11530740687E+03  0.11530740687E+03  0.00000000000E+00 0.  1.
          2   -1    0    0  501    0  0.00000000000E+00 -0.00000000000E+00 -0.14314623316E+03  0.14314623316E+03  0.00000000000E+00 0. -1.
         24    1    1    2    0    0  0.67736426455E+01 -0.51742337816E+02 -0.99950361794E+02  0.13849347470E+03  0.80419002446E+02 0. -1.
        -24    1    1    2    0    0 -0.67736426455E+01  0.51742337816E+02  0.72111535507E+02  0.11996016533E+03  0.80419002446E+02 0.  1.
<mgrwt>
<rscale>  0 0.95866406E+02</rscale>
<asrwt>0</asrwt>
<pdfrwt beam="1">  1        2 0.22022497E-01 0.95866406E+02</pdfrwt>
<pdfrwt beam="2">  1       -2 0.17739601E-01 0.95866406E+02</pdfrwt>
<totfact> 0.59459044E+03</totfact>
</mgrwt>
</event>
<event>
 4    1  0.5015492E-001  0.8746548E+02  0.7546771E-02  0.1309108E+00
         -2   -1    0    0    0  501 -0.00000000000E+00  0.00000000000E+00  0.20993982859E+01  0.20993982859E+01  0.00000000000E+00 0.  1.
          2   -1    0    0  501    0  0.00000000000E+00 -0.00000000000E+00 -0.36663882536E+04  0.36663882536E+04  0.00000000000E+00 0. -1.
         24    1    1    2    0    0  0.51655302100E+01  0.34004587023E+02 -0.19754730652E+04  0.19774084156E+04  0.80419002446E+02 0. -1.
        -24    1    1    2    0    0 -0.51655302100E+01 -0.34004587023E+02 -0.16888157901E+04  0.16910792363E+04  0.80419002446E+02 0.  1.
<mgrwt>
<rscale>  0 0.87465482E+02</rscale>
<asrwt>0</asrwt>
<pdfrwt beam="1">  1        2 0.56405510E+00 0.87465482E+02</pdfrwt>
<pdfrwt beam="2">  1       -2 0.32298701E-03 0.87465482E+02</pdfrwt>
<totfact> 0.85540942E+03</totfact>
</mgrwt>
</event>
<event>
 4    1  0.5015492E-001  0.1002684E+03  0.7546771E-02  0.1279732E+00
          4   -1    0    0  501    0  0.00000000000E+00  0.00000000000E+00  0.16594934472E+03  0.16594934472E+03  0.00000000000E+00 0. -1.
         -4   -1    0    0    0  501 -0.00000000000E+00 -0.00000000000E+00 -0.13505275982E+03  0.13505275982E+03  0.00000000000E+00 0.  1.
         24    1    1    2    0    0 -0.53224216850E+02 -0.27454055874E+02  0.12720585365E+03  0.16197249026E+03  0.80419002446E+02 0. -1.
        -24    1    1    2    0    0  0.53224216850E+02  0.27454055874E+02 -0.96309268762E+02  0.13902961428E+03  0.80419002446E+02 0.  1.
<mgrwt>
<rscale>  0 0.10026843E+03</rscale>
<asrwt>0</asrwt>
<pdfrwt beam="1">  1        4 0.25530668E-01 0.10026843E+03</pdfrwt>
<pdfrwt beam="2">  1       -4 0.20777348E-01 0.10026843E+03</pdfrwt>
<totfact> 0.47247280E+02</totfact>
</mgrwt>
</event>
<event>
 4    1  0.5015492E-001  0.8346473E+02  0.7546771E-02  0.1319497E+00
          2   -1    0    0  501    0  0.00000000000E+00  0.00000000000E+00  0.10061602849E+03  0.10061602849E+03  0.00000000000E+00 0. -1.
         -2   -1    0    0    0  501 -0.00000000000E+00 -0.00000000000E+00 -0.73384832310E+02  0.73384832310E+02  0.00000000000E+00 0.  1.
         24    1    1    2    0    0  0.22286307245E+02 -0.15704183952E+01  0.34299087047E+02  0.90237403726E+02  0.80419002446E+02 0. -1.
        -24    1    1    2    0    0 -0.22286307245E+02  0.15704183952E+01 -0.70678908705E+01  0.83763457070E+02  0.80419002446E+02 0.  1.
<mgrwt>
<rscale>  0 0.83464733E+02</rscale>
<asrwt>0</asrwt>
<pdfrwt beam="1">  1        2 0.15479389E-01 0.83464733E+02</pdfrwt>
<pdfrwt beam="2">  1       -2 0.11289974E-01 0.83464733E+02</pdfrwt>
<totfact> 0.18057024E+04</totfact>
</mgrwt>
</event>
<event>
 4    1  0.5015492E-001  0.9851103E+02  0.7546771E-02  0.1283459E+00
          1   -1    0    0  501    0  0.00000000000E+00  0.00000000000E+00  0.72832261108E+03  0.72832261108E+03  0.00000000000E+00 0. -1.
         -1   -1    0    0    0  501 -0.00000000000E+00 -0.00000000000E+00 -0.24553245948E+02  0.24553245948E+02  0.00000000000E+00 0.  1.
         24    1    1    2    0    0  0.33942513638E+02 -0.45663046511E+02  0.97314529792E+02  0.13847216945E+03  0.80419002446E+02 0.  1.
        -24    1    1    2    0    0 -0.33942513638E+02  0.45663046511E+02  0.60645483534E+03  0.61440368758E+03  0.80419002446E+02 0. -1.
<mgrwt>
<rscale>  0 0.98511035E+02</rscale>
<asrwt>0</asrwt>
<pdfrwt beam="1">  1        1 0.11204962E+00 0.98511035E+02</pdfrwt>
<pdfrwt beam="2">  1       -1 0.37774230E-02 0.98511035E+02</pdfrwt>
<totfact> 0.67425001E+03</totfact>
</mgrwt>
</event>
<event>
 4    1  0.5015492E-001  0.8333113E+02  0.7546771E-02  0.1319855E+00
         -1   -1    0    0    0  501 -0.00000000000E+00  0.00000000000E+00  0.15302339310E+03  0.15302339310E+03  0.00000000000E+00 0.  1.
          1   -1    0    0  501    0  0.00000000000E+00 -0.00000000000E+00 -0.81680852405E+02  0.81680852405E+02  0.00000000000E+00 0. -1.
         24    1    1    2    0    0 -0.14983499793E+02 -0.15885728057E+02  0.11390500778E+03  0.14113266232E+03  0.80419002446E+02 0.  0.
        -24    1    1    2    0    0  0.14983499793E+02  0.15885728057E+02 -0.42562467080E+02  0.93571583188E+02  0.80419002446E+02 0. -1.
<mgrwt>
<rscale>  0 0.83331132E+02</rscale>
<asrwt>0</asrwt>
<pdfrwt beam="1">  1        1 0.12566285E-01 0.83331132E+02</pdfrwt>
<pdfrwt beam="2">  1       -1 0.23542060E-01 0.83331132E+02</pdfrwt>
<totfact> 0.66183357E+03</totfact>
</mgrwt>
</event>
<event>
 4    1  0.5015492E-001  0.8893945E+02  0.7546771E-02  0.1305441E+00
          1   -1    0    0  501    0  0.00000000000E+00  0.00000000000E+00  0.58265169636E+02  0.58265169636E+02  0.00000000000E+00 0. -1.
         -1   -1    0    0    0  501 -0.00000000000E+00 -0.00000000000E+00 -0.15872359816E+03  0.15872359816E+03  0.00000000000E+00 0.  1.
         24    1    1    2    0    0 -0.15715970253E+02  0.34583431292E+02 -0.89640635474E+01  0.89390020867E+02  0.80419002446E+02 0.  0.
        -24    1    1    2    0    0  0.15715970253E+02 -0.34583431292E+02 -0.91494364974E+02  0.12759874693E+03  0.80419002446E+02 0.  1.
<mgrwt>
<rscale>  0 0.88939437E+02</rscale>
<asrwt>0</asrwt>
<pdfrwt beam="1">  1        1 0.89638723E-02 0.88939448E+02</pdfrwt>
<pdfrwt beam="2">  1       -1 0.24419015E-01 0.88939448E+02</pdfrwt>
<totfact> 0.97472194E+03</totfact>
</mgrwt>
</event>
<event>
 4    1  0.5015492E-001  0.9352598E+02  0.7546771E-02  0.1294531E+00
         -2   -1    0    0    0  501 -0.00000000000E+00  0.00000000000E+00  0.28426655625E+02  0.28426655625E+02  0.00000000000E+00 0.  1.
          2   -1    0    0  501    0  0.00000000000E+00 -0.00000000000E+00 -0.76366750823E+03  0.76366750823E+03  0.00000000000E+00 0. -1.
         24    1    1    2    0    0  0.46593547869E+02  0.10437135688E+02 -0.67364606601E+03  0.68010744056E+03  0.80419002446E+02 0. -1.
        -24    1    1    2    0    0 -0.46593547869E+02 -0.10437135688E+02 -0.61594786603E+02  0.11198672330E+03  0.80419002446E+02 0.  1.
<mgrwt>
<rscale>  0 0.93525977E+02</rscale>
<asrwt>0</asrwt>
<pdfrwt beam="1">  1        2 0.11748731E+00 0.93525977E+02</pdfrwt>
<pdfrwt beam="2">  1       -2 0.43733314E-02 0.93525977E+02</pdfrwt>
<totfact> 0.84898047E+03</totfact>
</mgrwt>
</event>
<event>
 4    1  0.5015492E-001  0.1128760E+03  0.7546771E-02  0.1255335E+00
         -1   -1    0    0    0  501 -0.00000000000E+00  0.00000000000E+00  0.81926519380E+03  0.81926519380E+03  0.00000000000E+00 0.  1.
          1   -1    0    0  501    0  0.00000000000E+00 -0.00000000000E+00 -0.24534285266E+02  0.24534285266E+02  0.00000000000E+00 0. -1.
         24    1    1    2    0    0  0.73615305005E+02 -0.29232957402E+02  0.65264874473E+03  0.66233781327E+03  0.80419002446E+02 0.  1.
        -24    1    1    2    0    0 -0.73615305005E+02  0.29232957402E+02  0.14208216380E+03  0.18146166580E+03  0.80419002446E+02 0. -1.
<mgrwt>
<rscale>  0 0.11287602E+03</rscale>
<asrwt>0</asrwt>
<pdfrwt beam="1">  1        1 0.37745061E-02 0.11287602E+03</pdfrwt>
<pdfrwt beam="2">  1       -1 0.12604078E+00 0.11287602E+03</pdfrwt>
<totfact> 0.14037131E+03</totfact>
</mgrwt>
</event>
<event>
 4    1  0.5015492E-001  0.9670647E+02  0.7546771E-02  0.1287378E+00
          2   -1    0    0  501    0  0.00000000000E+00  0.00000000000E+00  0.34251786244E+04  0.34251786244E+04  0.00000000000E+00 0. -1.
         -2   -1    0    0    0  501 -0.00000000000E+00 -0.00000000000E+00 -0.29959909920E+01  0.29959909920E+01  0.00000000000E+00 0.  1.
         24    1    1    2    0    0  0.46858159795E+02  0.26253332075E+02  0.22214335655E+04  0.22235375478E+04  0.80419002446E+02 0.  1.
        -24    1    1    2    0    0 -0.46858159795E+02 -0.26253332075E+02  0.12007490679E+04  0.12046370676E+04  0.80419002446E+02 0.  0.
<mgrwt>
<rscale>  0 0.96706466E+02</rscale>
<asrwt>0</asrwt>
<pdfrwt beam="1">  1        2 0.52694742E+00 0.96706466E+02</pdfrwt>
<pdfrwt beam="2">  1       -2 0.46092443E-03 0.96706466E+02</pdfrwt>
<totfact> 0.74552425E+03</totfact>
</mgrwt>
</event>
<event>
 4    1  0.5015492E-001  0.1002725E+03  0.7546771E-02  0.1279724E+00
         -2   -1    0    0    0  501 -0.00000000000E+00  0.00000000000E+00  0.76808086806E+01  0.76808086806E+01  0.00000000000E+00 0.  1.
          2   -1    0    0  501    0  0.00000000000E+00 -0.00000000000E+00 -0.14133393240E+04  0.14133393240E+04  0.00000000000E+00 0. -1.
         24    1    1    2    0    0 -0.38866982992E+02 -0.45571012925E+02 -0.89583197917E+03  0.90142637549E+03  0.80419002446E+02 0. -1.
        -24    1    1    2    0    0  0.38866982992E+02  0.45571012925E+02 -0.50982653612E+03  0.51959375716E+03  0.80419002446E+02 0.  1.
<mgrwt>
<rscale>  0 0.10027251E+03</rscale>
<asrwt>0</asrwt>
<pdfrwt beam="1">  1        2 0.21743667E+00 0.10027251E+03</pdfrwt>
<pdfrwt beam="2">  1       -2 0.11816637E-02 0.10027251E+03</pdfrwt>
<totfact> 0.23864534E+04</totfact>
</mgrwt>
</event>
<event>
 4    1  0.5015492E-001  0.8240895E+02  0.7546771E-02  0.1322351E+00
          2   -1    0    0  501    0  0.00000000000E+00  0.00000000000E+00  0.25887594519E+03  0.25887594519E+03  0.00000000000E+00 0. -1.
         -2   -1    0    0    0  501 -0.00000000000E+00 -0.00000000000E+00 -0.29371669731E+02  0.29371669731E+02  0.00000000000E+00 0.  1.
         24    1    1    2    0    0 -0.48048191606E+01  0.17347406042E+02  0.16186139394E+03  0.18163244640E+03  0.80419002446E+02 0.  0.
        -24    1    1    2    0    0  0.48048191606E+01 -0.17347406042E+02  0.67642881520E+02  0.10661516852E+03  0.80419002446E+02 0. -1.
<mgrwt>
<rscale>  0 0.82408948E+02</rscale>
<asrwt>0</asrwt>
<pdfrwt beam="1">  1        2 0.39827067E-01 0.82408948E+02</pdfrwt>
<pdfrwt beam="2">  1       -2 0.45187186E-02 0.82408948E+02</pdfrwt>
<totfact> 0.25782157E+04</totfact>
</mgrwt>
</event>
<event>
 4    1  0.5015492E-001  0.1416388E+03  0.7546771E-02  0.1211141E+00
         -2   -1    0    0    0  501 -0.00000000000E+00  0.00000000000E+00  0.27105056703E+02  0.27105056703E+02  0.00000000000E+00 0.  1.
          2   -1    0    0  501    0  0.00000000000E+00 -0.00000000000E+00 -0.84710042836E+03  0.84710042836E+03  0.00000000000E+00 0. -1.
         24    1    1    2    0    0  0.11207231185E+03 -0.32158096342E+02 -0.56531709696E+03  0.58279068482E+03  0.80419002446E+02 0. -1.
        -24    1    1    2    0    0 -0.11207231185E+03  0.32158096342E+02 -0.25467827469E+03  0.29141480024E+03  0.80419002446E+02 0.  0.
<mgrwt>
<rscale>  0 0.14163884E+03</rscale>
<asrwt>0</asrwt>
<pdfrwt beam="1">  1        2 0.13032312E+00 0.14163884E+03</pdfrwt>
<pdfrwt beam="2">  1       -2 0.41700094E-02 0.14163884E+03</pdfrwt>
<totfact> 0.82153874E+03</totfact>
</mgrwt>
</event>
<event>
 4    1  0.5015492E-001  0.9309023E+02  0.7546771E-02  0.1295536E+00
         -2   -1    0    0    0  501 -0.00000000000E+00  0.00000000000E+00  0.29385372085E+02  0.29385372085E+02  0.00000000000E+00 0.  1.
          2   -1    0    0  501    0  0.00000000000E+00 -0.00000000000E+00 -0.37441403075E+03  0.37441403075E+03  0.00000000000E+00 0. -1.
         24    1    1    2    0    0 -0.35252553579E+02 -0.30916529713E+02 -0.26555598033E+03  0.28139966060E+03  0.80419002446E+02 0. -1.
        -24    1    1    2    0    0  0.35252553579E+02  0.30916529713E+02 -0.79472678343E+02  0.12239974224E+03  0.80419002446E+02 0.  1.
<mgrwt>
<rscale>  0 0.93090227E+02</rscale>
<asrwt>0</asrwt>
<pdfrwt beam="1">  1        2 0.57602157E-01 0.93090227E+02</pdfrwt>
<pdfrwt beam="2">  1       -2 0.45208266E-02 0.93090227E+02</pdfrwt>
<totfact> 0.17755019E+04</totfact>
</mgrwt>
</event>
<event>
 4    1  0.5015492E-001  0.1135888E+03  0.7546771E-02  0.1254065E+00
         -2   -1    0    0    0  501 -0.00000000000E+00  0.00000000000E+00  0.13500479102E+02  0.13500479102E+02  0.00000000000E+00 0.  1.
          2   -1    0    0  501    0  0.00000000000E+00 -0.00000000000E+00 -0.26407260075E+04  0.26407260075E+04  0.00000000000E+00 0. -1.
         24    1    1    2    0    0 -0.80120923332E+02 -0.39782786635E+01 -0.23737196202E+04  0.23764358271E+04  0.80419002446E+02 0. -1.
        -24    1    1    2    0    0  0.80120923332E+02  0.39782786635E+01 -0.25350590814E+03  0.27779065944E+03  0.80419002446E+02 0.  1.
<mgrwt>
<rscale>  0 0.11358875E+03</rscale>
<asrwt>0</asrwt>
<pdfrwt beam="1">  1        2 0.40626553E+00 0.11358875E+03</pdfrwt>
<pdfrwt beam="2">  1       -2 0.20769968E-02 0.11358875E+03</pdfrwt>
<totfact> 0.24922855E+03</totfact>
</mgrwt>
</event>
<event>
 4    1  0.5015492E-001  0.8311136E+02  0.7546771E-02  0.1320447E+00
         -2   -1    0    0    0  501 -0.00000000000E+00  0.00000000000E+00  0.40725786176E+01  0.40725786176E+01  0.00000000000E+00 0.  1.
          2   -1    0    0  501    0  0.00000000000E+00 -0.00000000000E+00 -0.17756809859E+04  0.17756809859E+04  0.00000000000E+00 0. -1.
         24    1    1    2    0    0  0.36450030084E+01  0.20663885278E+02 -0.10741924025E+04  0.10774028104E+04  0.80419002446E+02 0. -1.
        -24    1    1    2    0    0 -0.36450030084E+01 -0.20663885278E+02 -0.69741600472E+03  0.70235075410E+03  0.80419002446E+02 0.  1.
<mgrwt>
<rscale>  0 0.83111360E+02</rscale>
<asrwt>0</asrwt>
<pdfrwt beam="1">  1        2 0.27318156E+00 0.83111360E+02</pdfrwt>
<pdfrwt beam="2">  1       -2 0.62655085E-03 0.83111360E+02</pdfrwt>
<totfact> 0.37716542E+04</totfact>
</mgrwt>
</event>
<event>
 4    1  0.5015492E-001  0.1048583E+03  0.7546771E-02  0.1270399E+00
          2   -1    0    0  501    0  0.00000000000E+00  0.00000000000E+00  0.23140880744E+04  0.23140880744E+04  0.00000000000E+00 0. -1.
         -2   -1    0    0    0  501 -0.00000000000E+00 -0.00000000000E+00 -0.11132461117E+02  0.11132461117E+02  0.00000000000E+00 0.  1.
         24    1    1    2    0    0 -0.58189608030E+02 -0.33793752854E+02  0.20316820395E+04  0.20343861909E+04  0.80419002446E+02 0. -1.
        -24    1    1    2    0    0  0.58189608030E+02  0.33793752854E+02  0.27127357387E+03  0.29083434469E+03  0.80419002446E+02 0.  1.
<mgrwt>
<rscale>  0 0.10485831E+03</rscale>
<asrwt>0</asrwt>
<pdfrwt beam="1">  1        2 0.35601317E+00 0.10485831E+03</pdfrwt>
<pdfrwt beam="2">  1       -2 0.17126882E-02 0.10485831E+03</pdfrwt>
<totfact> 0.48961649E+03</totfact>
</mgrwt>
</event>
<event>
 4    1  0.5015492E-001  0.8950060E+02  0.7546771E-02  0.1304066E+00
          2   -1    0    0  501    0  0.00000000000E+00  0.00000000000E+00  0.91843256170E+03  0.91843256170E+03  0.00000000000E+00 0. -1.
         -2   -1    0    0    0  501 -0.00000000000E+00 -0.00000000000E+00 -0.16154829069E+02  0.16154829069E+02  0.00000000000E+00 0.  1.
         24    1    1    2    0    0 -0.39260429349E+02  0.13267966336E+01  0.76811205381E+03  0.77330879011E+03  0.80419002446E+02 0. -1.
        -24    1    1    2    0    0  0.39260429349E+02 -0.13267966336E+01  0.13416567882E+03  0.16127860066E+03  0.80419002446E+02 0.  1.
<mgrwt>
<rscale>  0 0.89500601E+02</rscale>
<asrwt>0</asrwt>
<pdfrwt beam="1">  1        2 0.14129728E+00 0.89500601E+02</pdfrwt>
<pdfrwt beam="2">  1       -2 0.24853590E-02 0.89500601E+02</pdfrwt>
<totfact> 0.15343980E+04</totfact>
</mgrwt>
</event>
<event>
 4    1  0.5015492E-001  0.1369688E+03  0.7546771E-02  0.1217467E+00
         -1   -1    0    0    0  501 -0.00000000000E+00  0.00000000000E+00  0.24241120095E+03  0.24241120095E+03  0.00000000000E+00 0.  1.
          1   -1    0    0  501    0  0.00000000000E+00 -0.00000000000E+00 -0.83574571282E+02  0.83574571282E+02  0.00000000000E+00 0. -1.
         24    1    1    2    0    0 -0.21184415539E+01 -0.11085456441E+03  0.35082746657E+02  0.14139037207E+03  0.80419002446E+02 0. -1.
        -24    1    1    2    0    0  0.21184415539E+01  0.11085456441E+03  0.12375388301E+03  0.18459540016E+03  0.80419002446E+02 0.  1.
<mgrwt>
<rscale>  0 0.13696877E+03</rscale>
<asrwt>0</asrwt>
<pdfrwt beam="1">  1        1 0.12857626E-01 0.13696878E+03</pdfrwt>
<pdfrwt beam="2">  1       -1 0.37294031E-01 0.13696878E+03</pdfrwt>
<totfact> 0.30858117E+03</totfact>
</mgrwt>
</event>
<event>
 4    1  0.5015492E-001  0.1374963E+03  0.7546771E-02  0.1216738E+00
         -1   -1    0    0    0  501 -0.00000000000E+00  0.00000000000E+00  0.72438827584E+02  0.72438827584E+02  0.00000000000E+00 0.  1.
          1   -1    0    0  501    0  0.00000000000E+00 -0.00000000000E+00 -0.35204835329E+03  0.35204835329E+03  0.00000000000E+00 0. -1.
         24    1    1    2    0    0  0.23679464825E+01 -0.11150068768E+03 -0.31857280620E+02  0.14113862975E+03  0.80419002446E+02 0.  1.
        -24    1    1    2    0    0 -0.23679464825E+01  0.11150068768E+03 -0.24775224509E+03  0.28334855113E+03  0.80419002446E+02 0. -1.
<mgrwt>
<rscale>  0 0.13749628E+03</rscale>
<asrwt>0</asrwt>
<pdfrwt beam="1">  1        1 0.54161285E-01 0.13749628E+03</pdfrwt>
<pdfrwt beam="2">  1       -1 0.11144435E-01 0.13749628E+03</pdfrwt>
<totfact> 0.35570381E+03</totfact>
</mgrwt>
</event>
<event>
 4    1  0.5015492E-001  0.8710098E+02  0.7546771E-02  0.1310028E+00
         -2   -1    0    0    0  501 -0.00000000000E+00  0.00000000000E+00  0.38926394102E+03  0.38926394102E+03  0.00000000000E+00 0.  1.
          2   -1    0    0  501    0  0.00000000000E+00 -0.00000000000E+00 -0.81498970383E+02  0.81498970383E+02  0.00000000000E+00 0. -1.
         24    1    1    2    0    0 -0.21707843640E+02 -0.25458471933E+02 -0.51434561361E+02  0.10115381518E+03  0.80419002446E+02 0. -1.
        -24    1    1    2    0    0  0.21707843640E+02  0.25458471933E+02  0.35919953200E+03  0.36960909622E+03  0.80419002446E+02 0.  1.
<mgrwt>
<rscale>  0 0.87100977E+02</rscale>
<asrwt>0</asrwt>
<pdfrwt beam="1">  1        2 0.12538303E-01 0.87100977E+02</pdfrwt>
<pdfrwt beam="2">  1       -2 0.59886759E-01 0.87100977E+02</pdfrwt>
<totfact> 0.12286324E+03</totfact>
</mgrwt>
</event>
<event>
 4    1  0.5015492E-001  0.8670875E+02  0.7546771E-02  0.1311024E+00
         -2   -1    0    0    0  501 -0.00000000000E+00  0.00000000000E+00  0.68224248328E+02  0.68224248328E+02  0.00000000000E+00 0.  1.
          2   -1    0    0  501    0  0.00000000000E+00 -0.00000000000E+00 -0.11828327221E+03  0.11828327221E+03  0.00000000000E+00 0. -1.
         24    1    1    2    0    0  0.13405530575E+02  0.29520882403E+02 -0.49405434540E+02  0.99796310875E+02  0.80419002446E+02 0. -1.
        -24    1    1    2    0    0 -0.13405530575E+02 -0.29520882403E+02 -0.65358934170E+00  0.86711209663E+02  0.80419002446E+02 0.  1.
<mgrwt>
<rscale>  0 0.86708746E+02</rscale>
<asrwt>0</asrwt>
<pdfrwt beam="1">  1        2 0.18197426E-01 0.86708746E+02</pdfrwt>
<pdfrwt beam="2">  1       -2 0.10496038E-01 0.86708746E+02</pdfrwt>
<totfact> 0.16905453E+04</totfact>
</mgrwt>
</event>
<event>
 4    1  0.5015492E-001  0.8396833E+02  0.7546771E-02  0.1318153E+00
          2   -1    0    0  501    0  0.00000000000E+00  0.00000000000E+00  0.78483460245E+02  0.78483460245E+02  0.00000000000E+00 0. -1.
         -2   -1    0    0    0  501 -0.00000000000E+00 -0.00000000000E+00 -0.10057790952E+03  0.10057790952E+03  0.00000000000E+00 0.  1.
         24    1    1    2    0    0  0.19883558816E+02 -0.13715276730E+02  0.18211197765E+02  0.85920477218E+02  0.80419002446E+02 0. -1.
        -24    1    1    2    0    0 -0.19883558816E+02  0.13715276730E+02 -0.40305647042E+02  0.93140892549E+02  0.80419002446E+02 0. -1.
<mgrwt>
<rscale>  0 0.83968331E+02</rscale>
<asrwt>0</asrwt>
<pdfrwt beam="1">  1        2 0.12074378E-01 0.83968331E+02</pdfrwt>
<pdfrwt beam="2">  1       -2 0.15473525E-01 0.83968331E+02</pdfrwt>
<totfact> 0.14610737E+04</totfact>
</mgrwt>
</event>
<event>
 4    1  0.5015492E-001  0.1130259E+03  0.7546771E-02  0.1255067E+00
          2   -1    0    0  501    0  0.00000000000E+00  0.00000000000E+00  0.17109477907E+03  0.17109477907E+03  0.00000000000E+00 0. -1.
         -2   -1    0    0    0  501 -0.00000000000E+00 -0.00000000000E+00 -0.25617351439E+03  0.25617351439E+03  0.00000000000E+00 0.  1.
         24    1    1    2    0    0 -0.25626713120E+02 -0.75172494292E+02  0.13728629220E+03  0.17782680986E+03  0.80419002446E+02 0. -1.
        -24    1    1    2    0    0  0.25626713120E+02  0.75172494292E+02 -0.22236502752E+03  0.24944148360E+03  0.80419002446E+02 0.  1.
<mgrwt>
<rscale>  0 0.11302587E+03</rscale>
<asrwt>0</asrwt>
<pdfrwt beam="1">  1        2 0.26322274E-01 0.11302587E+03</pdfrwt>
<pdfrwt beam="2">  1       -2 0.39411310E-01 0.11302587E+03</pdfrwt>
<totfact> 0.12142115E+03</totfact>
</mgrwt>
</event>
<event>
 4    1  0.5015492E-001  0.8214009E+02  0.7546771E-02  0.1323086E+00
          2   -1    0    0  501    0  0.00000000000E+00  0.00000000000E+00  0.59183867485E+03  0.59183867485E+03  0.00000000000E+00 0. -1.
         -2   -1    0    0    0  501 -0.00000000000E+00 -0.00000000000E+00 -0.17833228450E+02  0.17833228450E+02  0.00000000000E+00 0.  1.
         24    1    1    2    0    0 -0.87161854485E+01 -0.14276107304E+02  0.47009234849E+03  0.47721463849E+03  0.80419002446E+02 0.  0.
        -24    1    1    2    0    0  0.87161854485E+01  0.14276107304E+02  0.10391309791E+03  0.13245726481E+03  0.80419002446E+02 0.  1.
<mgrwt>
<rscale>  0 0.82140094E+02</rscale>
<asrwt>0</asrwt>
<pdfrwt beam="1">  1        2 0.91052089E-01 0.82140094E+02</pdfrwt>
<pdfrwt beam="2">  1       -2 0.27435741E-02 0.82140094E+02</pdfrwt>
<totfact> 0.22256503E+04</totfact>
</mgrwt>
</event>
<event>
 4    1  0.5015492E-001  0.9006664E+02  0.7546771E-02  0.1302690E+00
          2   -1    0    0  501    0  0.00000000000E+00  0.00000000000E+00  0.13726120825E+03  0.13726120825E+03  0.00000000000E+00 0. -1.
         -2   -1    0    0    0  501 -0.00000000000E+00 -0.00000000000E+00 -0.18202800927E+03  0.18202800927E+03  0.00000000000E+00 0.  1.
         24    1    1    2    0    0  0.37630305961E+02  0.15124289154E+02  0.10881010593E+03  0.14125027135E+03  0.80419002446E+02 0. -1.
        -24    1    1    2    0    0 -0.37630305961E+02 -0.15124289154E+02 -0.15357690696E+03  0.17803894617E+03  0.80419002446E+02 0.  1.
<mgrwt>
<rscale>  0 0.90066642E+02</rscale>
<asrwt>0</asrwt>
<pdfrwt beam="1">  1        2 0.21117109E-01 0.90066642E+02</pdfrwt>
<pdfrwt beam="2">  1       -2 0.28004309E-01 0.90066642E+02</pdfrwt>
<totfact> 0.28494555E+03</totfact>
</mgrwt>
</event>
<event>
 4    1  0.5015492E-001  0.8065987E+02  0.7546771E-02  0.1327189E+00
         -3   -1    0    0    0  501 -0.00000000000E+00  0.00000000000E+00  0.17450957471E+03  0.17450957471E+03  0.00000000000E+00 0.  1.
          3   -1    0    0  501    0  0.00000000000E+00 -0.00000000000E+00 -0.42955542359E+02  0.42955542359E+02  0.00000000000E+00 0. -1.
         24    1    1    2    0    0 -0.40818271574E+01 -0.47047735065E+01  0.26259562338E+02  0.84826745636E+02  0.80419002446E+02 0.  0.
        -24    1    1    2    0    0  0.40818271574E+01  0.47047735065E+01  0.10529447001E+03  0.13263837143E+03  0.80419002446E+02 0.  1.
<mgrwt>
<rscale>  0 0.80659865E+02</rscale>
<asrwt>0</asrwt>
<pdfrwt beam="1">  1        3 0.66085451E-02 0.80659875E+02</pdfrwt>
<pdfrwt beam="2">  1       -3 0.26847626E-01 0.80659875E+02</pdfrwt>
<totfact> 0.39234223E+03</totfact>
</mgrwt>
</event>
<event>
 4    1  0.5015492E-001  0.9327315E+02  0.7546771E-02  0.1295113E+00
          1   -1    0    0  501    0  0.00000000000E+00  0.00000000000E+00  0.27987247337E+02  0.27987247337E+02  0.00000000000E+00 0. -1.
         -1   -1    0    0    0  501 -0.00000000000E+00 -0.00000000000E+00 -0.95063124611E+03  0.95063124611E+03  0.00000000000E+00 0.  1.
         24    1    1    2    0    0  0.16283551463E+02 -0.44356623028E+02 -0.86273607545E+03  0.86776345619E+03  0.80419002446E+02 0.  1.
        -24    1    1    2    0    0 -0.16283551463E+02  0.44356623028E+02 -0.59907923320E+02  0.11085503726E+03  0.80419002446E+02 0. -1.
<mgrwt>
<rscale>  0 0.93273147E+02</rscale>
<asrwt>0</asrwt>
<pdfrwt beam="1">  1        1 0.43057305E-02 0.93273147E+02</pdfrwt>
<pdfrwt beam="2">  1       -1 0.14625096E+00 0.93273147E+02</pdfrwt>
<totfact> 0.80774018E+02</totfact>
</mgrwt>
</event>
<event>
 4    1  0.5015492E-001  0.8995397E+02  0.7546771E-02  0.1302963E+00
         -1   -1    0    0    0  501 -0.00000000000E+00  0.00000000000E+00  0.38269805481E+02  0.38269805481E+02  0.00000000000E+00 0.  1.
          1   -1    0    0  501    0  0.00000000000E+00 -0.00000000000E+00 -0.83051799016E+03  0.83051799016E+03  0.00000000000E+00 0. -1.
         24    1    1    2    0    0  0.34017926866E+02 -0.21616688944E+02 -0.21079986702E+02  0.92390921539E+02  0.80419002446E+02 0.  1.
        -24    1    1    2    0    0 -0.34017926866E+02  0.21616688944E+02 -0.77116819798E+03  0.77639687410E+03  0.80419002446E+02 0. -1.
<mgrwt>
<rscale>  0 0.89953969E+02</rscale>
<asrwt>0</asrwt>
<pdfrwt beam="1">  1        1 0.12777200E+00 0.89953969E+02</pdfrwt>
<pdfrwt beam="2">  1       -1 0.58876621E-02 0.89953969E+02</pdfrwt>
<totfact> 0.28933079E+03</totfact>
</mgrwt>
</event>
<event>
 4    1  0.5015492E-001  0.8949693E+02  0.7546771E-02  0.1304075E+00
          2   -1    0    0  501    0  0.00000000000E+00  0.00000000000E+00  0.14421477167E+03  0.14421477167E+03  0.00000000000E+00 0. -1.
         -2   -1    0    0    0  501 -0.00000000000E+00 -0.00000000000E+00 -0.12764270181E+03  0.12764270181E+03  0.00000000000E+00 0.  1.
         24    1    1    2    0    0  0.38358335545E+02  0.84333811554E+01  0.11044790140E+03  0.14215638819E+03  0.80419002446E+02 0. -1.
        -24    1    1    2    0    0 -0.38358335545E+02 -0.84333811554E+01 -0.93875831540E+02  0.12970108529E+03  0.80419002446E+02 0.  1.
<mgrwt>
<rscale>  0 0.89496926E+02</rscale>
<asrwt>0</asrwt>
<pdfrwt beam="1">  1        2 0.22186888E-01 0.89496926E+02</pdfrwt>
<pdfrwt beam="2">  1       -2 0.19637339E-01 0.89496926E+02</pdfrwt>
<totfact> 0.49553774E+03</totfact>
</mgrwt>
</event>
<event>
 4    1  0.5015492E-001  0.9556329E+02  0.7546771E-02  0.1289912E+00
          1   -1    0    0  501    0  0.00000000000E+00  0.00000000000E+00  0.28367316049E+04  0.28367316049E+04  0.00000000000E+00 0. -1.
         -1   -1    0    0    0  501 -0.00000000000E+00 -0.00000000000E+00 -0.47439417412E+02  0.47439417412E+02  0.00000000000E+00 0.  1.
         24    1    1    2    0    0  0.47462469639E+02 -0.20308619436E+02  0.23513110185E+01  0.95592210276E+02  0.80419002446E+02 0.  1.
        -24    1    1    2    0    0 -0.47462469639E+02  0.20308619436E+02  0.27869408764E+04  0.27885788120E+04  0.80419002446E+02 0. -1.
<mgrwt>
<rscale>  0 0.95563288E+02</rscale>
<asrwt>0</asrwt>
<pdfrwt beam="1">  1        1 0.43642011E+00 0.95563288E+02</pdfrwt>
<pdfrwt beam="2">  1       -1 0.72983742E-02 0.95563288E+02</pdfrwt>
<totfact> 0.10186048E+02</totfact>
</mgrwt>
</event>
<event>
 4    1  0.5015492E-001  0.9241188E+02  0.7546771E-02  0.1297114E+00
          1   -1    0    0  501    0  0.00000000000E+00  0.00000000000E+00  0.29554722933E+02  0.29554722933E+02  0.00000000000E+00 0. -1.
         -1   -1    0    0    0  501 -0.00000000000E+00 -0.00000000000E+00 -0.31540003818E+03  0.31540003818E+03  0.00000000000E+00 0.  1.
         24    1    1    2    0    0  0.14820454922E+01 -0.45503219362E+02 -0.19286645894E+03  0.21386310194E+03  0.80419002446E+02 0.  1.
        -24    1    1    2    0    0 -0.14820454922E+01  0.45503219362E+02 -0.92978856305E+02  0.13109165918E+03  0.80419002446E+02 0. -1.
<mgrwt>
<rscale>  0 0.92411879E+02</rscale>
<asrwt>0</asrwt>
<pdfrwt beam="1">  1        1 0.45468807E-02 0.92411879E+02</pdfrwt>
<pdfrwt beam="2">  1       -1 0.48523080E-01 0.92411879E+02</pdfrwt>
<totfact> 0.75532270E+03</totfact>
</mgrwt>
</event>
<event>
 4    1  0.5015492E-001  0.1509527E+03  0.7546771E-02  0.1199307E+00
          2   -1    0    0  501    0  0.00000000000E+00  0.00000000000E+00  0.57116539462E+03  0.57116539462E+03  0.00000000000E+00 0. -1.
         -2   -1    0    0    0  501 -0.00000000000E+00 -0.00000000000E+00 -0.45955742244E+02  0.45955742244E+02  0.00000000000E+00 0.  1.
         24    1    1    2    0    0 -0.24966355863E+02  0.12528446566E+03  0.37465895683E+03  0.40392581763E+03  0.80419002446E+02 0. -1.
        -24    1    1    2    0    0  0.24966355863E+02 -0.12528446566E+03  0.15055069554E+03  0.21319531923E+03  0.80419002446E+02 0.  0.
<mgrwt>
<rscale>  0 0.15095275E+03</rscale>
<asrwt>0</asrwt>
<pdfrwt beam="1">  1        2 0.87871594E-01 0.15095275E+03</pdfrwt>
<pdfrwt beam="2">  1       -2 0.70701146E-02 0.15095275E+03</pdfrwt>
<totfact> 0.59395103E+03</totfact>
</mgrwt>
</event>
<event>
 4    1  0.5015492E-001  0.9191035E+02  0.7546771E-02  0.1298290E+00
          4   -1    0    0  501    0  0.00000000000E+00  0.00000000000E+00  0.46423395503E+01  0.46423395503E+01  0.00000000000E+00 0. -1.
         -4   -1    0    0    0  501 -0.00000000000E+00 -0.00000000000E+00 -0.18196672705E+04  0.18196672705E+04  0.00000000000E+00 0.  1.
         24    1    1    2    0    0  0.42317819874E+02  0.13765881902E+02 -0.90750513606E+03  0.91214751292E+03  0.80419002446E+02 0. -1.
        -24    1    1    2    0    0 -0.42317819874E+02 -0.13765881902E+02 -0.90751979491E+03  0.91216209716E+03  0.80419002446E+02 0.  1.
<mgrwt>
<rscale>  0 0.91910355E+02</rscale>
<asrwt>0</asrwt>
<pdfrwt beam="1">  1        4 0.71420465E-03 0.91910355E+02</pdfrwt>
<pdfrwt beam="2">  1       -4 0.27994937E+00 0.91910355E+02</pdfrwt>
<totfact> 0.37686946E+02</totfact>
</mgrwt>
</event>
<event>
 4    1  0.5015492E-001  0.1134121E+03  0.7546771E-02  0.1254378E+00
          2   -1    0    0  501    0  0.00000000000E+00  0.00000000000E+00  0.29846536449E+03  0.29846536449E+03  0.00000000000E+00 0. -1.
         -2   -1    0    0    0  501 -0.00000000000E+00 -0.00000000000E+00 -0.23323250632E+03  0.23323250632E+03  0.00000000000E+00 0.  1.
         24    1    1    2    0    0 -0.69345468375E+02  0.39828452787E+02  0.27265137365E+03  0.29529830196E+03  0.80419002446E+02 0. -1.
        -24    1    1    2    0    0  0.69345468375E+02 -0.39828452787E+02 -0.20741851547E+03  0.23639956885E+03  0.80419002446E+02 0.  1.
<mgrwt>
<rscale>  0 0.11341215E+03</rscale>
<asrwt>0</asrwt>
<pdfrwt beam="1">  1        2 0.45917749E-01 0.11341215E+03</pdfrwt>
<pdfrwt beam="2">  1       -2 0.35881924E-01 0.11341215E+03</pdfrwt>
<totfact> 0.79866937E+02</totfact>
</mgrwt>
</event>
<event>
 4    1  0.5015492E-001  0.9088065E+02  0.7546771E-02  0.1300733E+00
         -1   -1    0    0    0  501 -0.00000000000E+00  0.00000000000E+00  0.67621135666E+01  0.67621135666E+01  0.00000000000E+00 0.  1.
          1   -1    0    0  501    0  0.00000000000E+00 -0.00000000000E+00 -0.12298538340E+04  0.12298538340E+04  0.00000000000E+00 0. -1.
         24    1    1    2    0    0  0.38025468650E+02  0.18604751904E+02 -0.66278946128E+03  0.66899115017E+03  0.80419002446E+02 0.  0.
        -24    1    1    2    0    0 -0.38025468650E+02 -0.18604751904E+02 -0.56030225914E+03  0.56762479739E+03  0.80419002446E+02 0. -1.
<mgrwt>
<rscale>  0 0.90880642E+02</rscale>
<asrwt>0</asrwt>
<pdfrwt beam="1">  1        1 0.18920842E+00 0.90880653E+02</pdfrwt>
<pdfrwt beam="2">  1       -1 0.10403244E-02 0.90880653E+02</pdfrwt>
<totfact> 0.18052847E+04</totfact>
</mgrwt>
</event>
<event>
 4    1  0.5015492E-001  0.1194564E+03  0.7546771E-02  0.1243997E+00
          1   -1    0    0  501    0  0.00000000000E+00  0.00000000000E+00  0.18981155322E+03  0.18981155322E+03  0.00000000000E+00 0. -1.
         -1   -1    0    0    0  501 -0.00000000000E+00 -0.00000000000E+00 -0.88549505766E+02  0.88549505766E+02  0.00000000000E+00 0.  1.
         24    1    1    2    0    0 -0.24590096426E+02  0.84840638799E+02 -0.34520094152E+01  0.11950623062E+03  0.80419002446E+02 0.  1.
        -24    1    1    2    0    0  0.24590096426E+02 -0.84840638799E+02  0.10471405687E+03  0.15885482836E+03  0.80419002446E+02 0. -1.
<mgrwt>
<rscale>  0 0.11945636E+03</rscale>
<asrwt>0</asrwt>
<pdfrwt beam="1">  1        1 0.29201777E-01 0.11945636E+03</pdfrwt>
<pdfrwt beam="2">  1       -1 0.13623001E-01 0.11945636E+03</pdfrwt>
<totfact> 0.55578924E+03</totfact>
</mgrwt>
</event>
<event>
 4    1  0.5015492E-001  0.8110206E+02  0.7546771E-02  0.1325953E+00
         -2   -1    0    0    0  501 -0.00000000000E+00  0.00000000000E+00  0.68125742829E+02  0.68125742829E+02  0.00000000000E+00 0.  1.
          2   -1    0    0  501    0  0.00000000000E+00 -0.00000000000E+00 -0.96771095554E+02  0.96771095554E+02  0.00000000000E+00 0. -1.
         24    1    1    2    0    0 -0.46665957219E+01 -0.94101761999E+01 -0.18263088103E+02  0.83132934949E+02  0.80419002446E+02 0. -1.
        -24    1    1    2    0    0  0.46665957219E+01  0.94101761999E+01 -0.10382264622E+02  0.81763903434E+02  0.80419002446E+02 0.  1.
<mgrwt>
<rscale>  0 0.81102062E+02</rscale>
<asrwt>0</asrwt>
<pdfrwt beam="1">  1        2 0.14887861E-01 0.81102062E+02</pdfrwt>
<pdfrwt beam="2">  1       -2 0.10480884E-01 0.81102062E+02</pdfrwt>
<totfact> 0.21141527E+04</totfact>
</mgrwt>
</event>
<event>
 4    1  0.5015492E-001  0.1098899E+03  0.7546771E-02  0.1260774E+00
          2   -1    0    0  501    0  0.00000000000E+00  0.00000000000E+00  0.11251600481E+03  0.11251600481E+03  0.00000000000E+00 0. -1.
         -2   -1    0    0    0  501 -0.00000000000E+00 -0.00000000000E+00 -0.11543450405E+03  0.11543450405E+03  0.00000000000E+00 0.  1.
         24    1    1    2    0    0  0.55094766377E+02  0.50726098829E+02  0.28749895815E+02  0.11358848026E+03  0.80419002446E+02 0.  1.
        -24    1    1    2    0    0 -0.55094766377E+02 -0.50726098829E+02 -0.31668395054E+02  0.11436202859E+03  0.80419002446E+02 0. -1.
<mgrwt>
<rscale>  0 0.10988988E+03</rscale>
<asrwt>0</asrwt>
<pdfrwt beam="1">  1        2 0.17310155E-01 0.10988988E+03</pdfrwt>
<pdfrwt beam="2">  1       -2 0.17759154E-01 0.10988988E+03</pdfrwt>
<totfact> 0.78658728E+03</totfact>
</mgrwt>
</event>
<event>
 4    1  0.5015492E-001  0.1030197E+03  0.7546771E-02  0.1274071E+00
         -2   -1    0    0    0  501 -0.00000000000E+00  0.00000000000E+00  0.82686787764E+01  0.82686787764E+01  0.00000000000E+00 0.  1.
          2   -1    0    0  501    0  0.00000000000E+00 -0.00000000000E+00 -0.12844446639E+04  0.12844446639E+04  0.00000000000E+00 0. -1.
         24    1    1    2    0    0  0.47567194934E+02  0.43395934595E+02 -0.62079856835E+03  0.62928842640E+03  0.80419002446E+02 0.  0.
        -24    1    1    2    0    0 -0.47567194934E+02 -0.43395934595E+02 -0.65537741677E+03  0.66342491628E+03  0.80419002446E+02 0.  0.
<mgrwt>
<rscale>  0 0.10301973E+03</rscale>
<asrwt>0</asrwt>
<pdfrwt beam="1">  1        2 0.19760670E+00 0.10301974E+03</pdfrwt>
<pdfrwt beam="2">  1       -2 0.12721055E-02 0.10301974E+03</pdfrwt>
<totfact> 0.25170230E+04</totfact>
</mgrwt>
</event>
<event>
 4    1  0.5015492E-001  0.8826162E+02  0.7546771E-02  0.1307117E+00
          1   -1    0    0  501    0  0.00000000000E+00  0.00000000000E+00  0.27365215101E+04  0.27365215101E+04  0.00000000000E+00 0. -1.
         -1   -1    0    0    0  501 -0.00000000000E+00 -0.00000000000E+00 -0.30360401935E+01  0.30360401935E+01  0.00000000000E+00 0.  1.
         24    1    1    2    0    0  0.35657935490E+02  0.71699804956E+01  0.10246891649E+04  0.10284833482E+04  0.80419002446E+02 0.  1.
        -24    1    1    2    0    0 -0.35657935490E+02 -0.71699804956E+01  0.17087963050E+04  0.17110742020E+04  0.80419002446E+02 0. -1.
<mgrwt>
<rscale>  0 0.88261616E+02</rscale>
<asrwt>0</asrwt>
<pdfrwt beam="1">  1        1 0.42100134E+00 0.88261616E+02</pdfrwt>
<pdfrwt beam="2">  1       -1 0.46708529E-03 0.88261616E+02</pdfrwt>
<totfact> 0.60721507E+03</totfact>
</mgrwt>
</event>
<event>
 4    1  0.5015492E-001  0.8206828E+02  0.7546771E-02  0.1323282E+00
          2   -1    0    0  501    0  0.00000000000E+00  0.00000000000E+00  0.24684750000E+04  0.24684750000E+04  0.00000000000E+00 0. -1.
         -2   -1    0    0    0  501 -0.00000000000E+00 -0.00000000000E+00 -0.70972605853E+01  0.70972605853E+01  0.00000000000E+00 0.  1.
         24    1    1    2    0    0  0.76135429880E+01  0.14492069686E+02  0.22018247555E+04  0.22033536838E+04  0.80419002446E+02 0.  1.
        -24    1    1    2    0    0 -0.76135429880E+01 -0.14492069686E+02  0.25955298385E+03  0.27221857670E+03  0.80419002446E+02 0.  1.
<mgrwt>
<rscale>  0 0.82068277E+02</rscale>
<asrwt>0</asrwt>
<pdfrwt beam="1">  1        2 0.37976470E+00 0.82068277E+02</pdfrwt>
<pdfrwt beam="2">  1       -2 0.10918882E-02 0.82068277E+02</pdfrwt>
<totfact> 0.76981940E+03</totfact>
</mgrwt>
</event>
<event>
 4    1  0.5015492E-001  0.8659885E+02  0.7546771E-02  0.1311304E+00
          2   -1    0    0  501    0  0.00000000000E+00  0.00000000000E+00  0.36772983661E+03  0.36772983661E+03  0.00000000000E+00 0. -1.
         -2   -1    0    0    0  501 -0.00000000000E+00 -0.00000000000E+00 -0.24963091407E+02  0.24963091407E+02  0.00000000000E+00 0.  1.
         24    1    1    2    0    0 -0.31693247165E+02  0.52614908075E+01  0.25538824543E+03  0.26967112760E+03  0.80419002446E+02 0.  0.
        -24    1    1    2    0    0  0.31693247165E+02 -0.52614908075E+01  0.87378499772E+02  0.12302180042E+03  0.80419002446E+02 0.  0.
<mgrwt>
<rscale>  0 0.86598852E+02</rscale>
<asrwt>0</asrwt>
<pdfrwt beam="1">  1        2 0.56573817E-01 0.86598852E+02</pdfrwt>
<pdfrwt beam="2">  1       -2 0.38404759E-02 0.86598852E+02</pdfrwt>
<totfact> 0.22832455E+04</totfact>
</mgrwt>
</event>
<event>
 4    1  0.5015492E-001  0.1072906E+03  0.7546771E-02  0.1265671E+00
          2   -1    0    0  501    0  0.00000000000E+00  0.00000000000E+00  0.22269747299E+04  0.22269747299E+04  0.00000000000E+00 0. -1.
         -2   -1    0    0    0  501 -0.00000000000E+00 -0.00000000000E+00 -0.53417848791E+01  0.53417848791E+01  0.00000000000E+00 0.  1.
         24    1    1    2    0    0 -0.13557419241E+02 -0.69715439482E+02  0.91008351281E+03  0.91638597892E+03  0.80419002446E+02 0.  1.
        -24    1    1    2    0    0  0.13557419241E+02  0.69715439482E+02  0.13115494322E+04  0.13159305359E+04  0.80419002446E+02 0. -1.
<mgrwt>
<rscale>  0 0.10729056E+03</rscale>
<asrwt>0</asrwt>
<pdfrwt beam="1">  1        2 0.34261076E+00 0.10729058E+03</pdfrwt>
<pdfrwt beam="2">  1       -2 0.82181483E-03 0.10729058E+03</pdfrwt>
<totfact> 0.15481880E+04</totfact>
</mgrwt>
</event>
<event>
 4    1  0.5015492E-001  0.8535833E+02  0.7546771E-02  0.1314498E+00
          1   -1    0    0  501    0  0.00000000000E+00  0.00000000000E+00  0.20290632064E+03  0.20290632064E+03  0.00000000000E+00 0. -1.
         -1   -1    0    0    0  501 -0.00000000000E+00 -0.00000000000E+00 -0.15193720377E+03  0.15193720377E+03  0.00000000000E+00 0.  1.
         24    1    1    2    0    0  0.12184310569E+01 -0.28589223377E+02 -0.12956041980E+03  0.15515136674E+03  0.80419002446E+02 0.  1.
        -24    1    1    2    0    0 -0.12184310569E+01  0.28589223377E+02  0.18052953668E+03  0.19969215767E+03  0.80419002446E+02 0. -1.
<mgrwt>
<rscale>  0 0.85358328E+02</rscale>
<asrwt>0</asrwt>
<pdfrwt beam="1">  1        1 0.31216357E-01 0.85358328E+02</pdfrwt>
<pdfrwt beam="2">  1       -1 0.23374954E-01 0.85358328E+02</pdfrwt>
<totfact> 0.21417983E+03</totfact>
</mgrwt>
</event>
<event>
 4    1  0.5015492E-001  0.1256711E+03  0.7546771E-02  0.1234024E+00
          2   -1    0    0  501    0  0.00000000000E+00  0.00000000000E+00  0.24087411496E+03  0.24087411496E+03  0.00000000000E+00 0. -1.
         -2   -1    0    0    0  501 -0.00000000000E+00 -0.00000000000E+00 -0.65679545326E+02  0.65679545326E+02  0.00000000000E+00 0.  1.
         24    1    1    2    0    0  0.88759511564E+02  0.38049335017E+02  0.93962561439E+02  0.15691456814E+03  0.80419002446E+02 0.  0.
        -24    1    1    2    0    0 -0.88759511564E+02 -0.38049335017E+02  0.81232008194E+02  0.14963909215E+03  0.80419002446E+02 0.  1.
<mgrwt>
<rscale>  0 0.12567107E+03</rscale>
<asrwt>0</asrwt>
<pdfrwt beam="1">  1        2 0.37057556E-01 0.12567107E+03</pdfrwt>
<pdfrwt beam="2">  1       -2 0.10104546E-01 0.12567107E+03</pdfrwt>
<totfact> 0.85380188E+03</totfact>
</mgrwt>
</event>
<event>
 4    1  0.5015492E-001  0.8433706E+02  0.7546771E-02  0.1317175E+00
         -2   -1    0    0    0  501 -0.00000000000E+00  0.00000000000E+00  0.14301182590E+03  0.14301182590E+03  0.00000000000E+00 0.  1.
          2   -1    0    0  501    0  0.00000000000E+00 -0.00000000000E+00 -0.16320693662E+03  0.16320693662E+03  0.00000000000E+00 0. -1.
         24    1    1    2    0    0  0.25218838456E+02  0.30878220107E+01 -0.13776380367E+03  0.16152896339E+03  0.80419002446E+02 0. -1.
        -24    1    1    2    0    0 -0.25218838456E+02 -0.30878220107E+01  0.11756869294E+03  0.14468979913E+03  0.80419002446E+02 0.  1.
<mgrwt>
<rscale>  0 0.84337064E+02</rscale>
<asrwt>0</asrwt>
<pdfrwt beam="1">  1        2 0.25108759E-01 0.84337064E+02</pdfrwt>
<pdfrwt beam="2">  1       -2 0.22001819E-01 0.84337064E+02</pdfrwt>
<totfact> 0.35589528E+03</totfact>
</mgrwt>
</event>
<event>
 4    1  0.5015492E-001  0.8083790E+02  0.7546771E-02  0.1326690E+00
          2   -1    0    0  501    0  0.00000000000E+00  0.00000000000E+00  0.42782232173E+03  0.42782232173E+03  0.00000000000E+00 0. -1.
         -2   -1    0    0    0  501 -0.00000000000E+00 -0.00000000000E+00 -0.30678693862E+02  0.30678693862E+02  0.00000000000E+00 0.  1.
         24    1    1    2    0    0 -0.17582244741E+01 -0.80286609460E+01  0.36101875488E+03  0.36995852211E+03  0.80419002446E+02 0. -1.
        -24    1    1    2    0    0  0.17582244741E+01  0.80286609460E+01  0.36124872988E+02  0.88542493486E+02  0.80419002446E+02 0.  0.
<mgrwt>
<rscale>  0 0.80837904E+02</rscale>
<asrwt>0</asrwt>
<pdfrwt beam="1">  1        2 0.65818815E-01 0.80837904E+02</pdfrwt>
<pdfrwt beam="2">  1       -2 0.47197993E-02 0.80837904E+02</pdfrwt>
<totfact> 0.14282651E+04</totfact>
</mgrwt>
</event>
<event>
 4    1  0.5015492E-001  0.8483282E+02  0.7546771E-02  0.1315870E+00
          2   -1    0    0  501    0  0.00000000000E+00  0.00000000000E+00  0.16064005240E+04  0.16064005240E+04  0.00000000000E+00 0. -1.
         -2   -1    0    0    0  501 -0.00000000000E+00 -0.00000000000E+00 -0.63991973233E+01  0.63991973233E+01  0.00000000000E+00 0.  1.
         24    1    1    2    0    0  0.20452849252E+02 -0.17637247836E+02  0.12416242040E+04  0.12445188916E+04  0.80419002446E+02 0. -1.
        -24    1    1    2    0    0 -0.20452849252E+02  0.17637247836E+02  0.35837712268E+03  0.36828082976E+03  0.80419002446E+02 0.  1.
<mgrwt>
<rscale>  0 0.84832821E+02</rscale>
<asrwt>0</asrwt>
<pdfrwt beam="1">  1        2 0.24713822E+00 0.84832821E+02</pdfrwt>
<pdfrwt beam="2">  1       -2 0.98449318E-03 0.84832821E+02</pdfrwt>
<totfact> 0.24320218E+04</totfact>
</mgrwt>
</event>
<event>
 4    1  0.5015492E-001  0.8802249E+02  0.7546771E-02  0.1307712E+00
          2   -1    0    0  501    0  0.00000000000E+00  0.00000000000E+00  0.39592824239E+03  0.39592824239E+03  0.00000000000E+00 0. -1.
         -2   -1    0    0    0  501 -0.00000000000E+00 -0.00000000000E+00 -0.47439218133E+02  0.47439218133E+02  0.00000000000E+00 0.  1.
         24    1    1    2    0    0 -0.34903845837E+02  0.79034627527E+01  0.34416058765E+03  0.35523860886E+03  0.80419002446E+02 0. -1.
        -24    1    1    2    0    0  0.34903845837E+02 -0.79034627527E+01  0.43284366058E+01  0.88128851663E+02  0.80419002446E+02 0. -1.
<mgrwt>
<rscale>  0 0.88022492E+02</rscale>
<asrwt>0</asrwt>
<pdfrwt beam="1">  1        2 0.60912035E-01 0.88022492E+02</pdfrwt>
<pdfrwt beam="2">  1       -2 0.72983415E-02 0.88022492E+02</pdfrwt>
<totfact> 0.81335763E+03</totfact>
</mgrwt>
</event>
<event>
 4    1  0.5015492E-001  0.9323092E+02  0.7546771E-02  0.1295211E+00
         -1   -1    0    0    0  501 -0.00000000000E+00  0.00000000000E+00  0.28957853710E+02  0.28957853710E+02  0.00000000000E+00 0.  1.
          1   -1    0    0  501    0  0.00000000000E+00 -0.00000000000E+00 -0.91135508958E+03  0.91135508958E+03  0.00000000000E+00 0. -1.
         24    1    1    2    0    0  0.37412939078E+02  0.28723850278E+02 -0.56174121795E+02  0.10884638487E+03  0.80419002446E+02 0.  1.
        -24    1    1    2    0    0 -0.37412939078E+02 -0.28723850278E+02 -0.82622311407E+03  0.83146655842E+03  0.80419002446E+02 0. -1.
<mgrwt>
<rscale>  0 0.93230915E+02</rscale>
<asrwt>0</asrwt>
<pdfrwt beam="1">  1        1 0.14020847E+00 0.93230915E+02</pdfrwt>
<pdfrwt beam="2">  1       -1 0.44550547E-02 0.93230915E+02</pdfrwt>
<totfact> 0.37777294E+03</totfact>
</mgrwt>
</event>
<event>
 4    1  0.5015492E-001  0.9106347E+02  0.7546771E-02  0.1300297E+00
         -1   -1    0    0    0  501 -0.00000000000E+00  0.00000000000E+00  0.49622711714E+02  0.49622711714E+02  0.00000000000E+00 0.  1.
          1   -1    0    0  501    0  0.00000000000E+00 -0.00000000000E+00 -0.38977756365E+03  0.38977756365E+03  0.00000000000E+00 0. -1.
         24    1    1    2    0    0 -0.38284301345E+02  0.18964488674E+02 -0.40238080216E+01  0.91152326056E+02  0.80419002446E+02 0.  1.
        -24    1    1    2    0    0  0.38284301345E+02 -0.18964488674E+02 -0.33613104392E+03  0.34824794931E+03  0.80419002446E+02 0. -1.
<mgrwt>
<rscale>  0 0.91063470E+02</rscale>
<asrwt>0</asrwt>
<pdfrwt beam="1">  1        1 0.59965776E-01 0.91063470E+02</pdfrwt>
<pdfrwt beam="2">  1       -1 0.76342638E-02 0.91063470E+02</pdfrwt>
<totfact> 0.54245275E+03</totfact>
</mgrwt>
</event>
<event>
 4    1  0.5015492E-001  0.8937884E+02  0.7546771E-02  0.1304363E+00
          2   -1    0    0  501    0  0.00000000000E+00  0.00000000000E+00  0.42629256989E+03  0.42629256989E+03  0.00000000000E+00 0. -1.
         -2   -1    0    0    0  501 -0.00000000000E+00 -0.00000000000E+00 -0.28160416593E+02  0.28160416593E+02  0.00000000000E+00 0.  1.
         24    1    1    2    0    0 -0.37487915210E+02  0.10771136948E+02  0.33049239953E+03  0.34236501468E+03  0.80419002446E+02 0. -1.
        -24    1    1    2    0    0  0.37487915210E+02 -0.10771136948E+02  0.67639753767E+02  0.11208797180E+03  0.80419002446E+02 0.  1.
<mgrwt>
<rscale>  0 0.89378841E+02</rscale>
<asrwt>0</asrwt>
<pdfrwt beam="1">  1        2 0.65583468E-01 0.89378841E+02</pdfrwt>
<pdfrwt beam="2">  1       -2 0.43323721E-02 0.89378841E+02</pdfrwt>
<totfact> 0.16427169E+04</totfact>
</mgrwt>
</event>
<event>
 4    1  0.5015492E-001  0.8053148E+02  0.7546771E-02  0.1327550E+00
         -2   -1    0    0    0  501 -0.00000000000E+00  0.00000000000E+00  0.44103843312E+02  0.44103843312E+02  0.00000000000E+00 0.  1.
          2   -1    0    0  501    0  0.00000000000E+00 -0.00000000000E+00 -0.16112398378E+03  0.16112398378E+03  0.00000000000E+00 0. -1.
         24    1    1    2    0    0  0.42339093819E+01  0.42111595429E+00 -0.88841120872E+02  0.11990856533E+03  0.80419002446E+02 0. -1.
        -24    1    1    2    0    0 -0.42339093819E+01 -0.42111595429E+00 -0.28179019591E+02  0.85319261757E+02  0.80419002446E+02 0.  0.
<mgrwt>
<rscale>  0 0.80531480E+02</rscale>
<asrwt>0</asrwt>
<pdfrwt beam="1">  1        2 0.24788305E-01 0.80531480E+02</pdfrwt>
<pdfrwt beam="2">  1       -2 0.67852066E-02 0.80531480E+02</pdfrwt>
<totfact> 0.23230557E+04</totfact>
</mgrwt>
</event>
<event>
 4    1  0.5015492E-001  0.1196963E+03  0.7546771E-02  0.1243599E+00
         -2   -1    0    0    0  501 -0.00000000000E+00  0.00000000000E+00  0.19638121384E+03  0.19638121384E+03  0.00000000000E+00 0.  1.
          2   -1    0    0  501    0  0.00000000000E+00 -0.00000000000E+00 -0.17080206763E+04  0.17080206763E+04  0.00000000000E+00 0. -1.
         24    1    1    2    0    0  0.80995099182E+02  0.36052630710E+02 -0.16874626698E+04  0.16917025378E+04  0.80419002446E+02 0. -1.
        -24    1    1    2    0    0 -0.80995099182E+02 -0.36052630710E+02  0.17582320740E+03  0.21269935235E+03  0.80419002446E+02 0.  1.
<mgrwt>
<rscale>  0 0.11969634E+03</rscale>
<asrwt>0</asrwt>
<pdfrwt beam="1">  1        2 0.26277241E+00 0.11969634E+03</pdfrwt>
<pdfrwt beam="2">  1       -2 0.30212494E-01 0.11969634E+03</pdfrwt>
<totfact> 0.11449424E+02</totfact>
</mgrwt>
</event>
<event>
 4    1  0.5015492E-001  0.8545629E+02  0.7546771E-02  0.1314244E+00
         -2   -1    0    0    0  501 -0.00000000000E+00  0.00000000000E+00  0.52558539430E+01  0.52558539430E+01  0.00000000000E+00 0.  1.
          2   -1    0    0  501    0  0.00000000000E+00 -0.00000000000E+00 -0.14003525159E+04  0.14003525159E+04  0.00000000000E+00 0. -1.
         24    1    1    2    0    0 -0.24882374613E+02  0.14711540804E+02 -0.75954364768E+03  0.76433587557E+03  0.80419002446E+02 0. -1.
        -24    1    1    2    0    0  0.24882374613E+02 -0.14711540804E+02 -0.63555301429E+03  0.64127249429E+03  0.80419002446E+02 0.  1.
<mgrwt>
<rscale>  0 0.85456293E+02</rscale>
<asrwt>0</asrwt>
<pdfrwt beam="1">  1        2 0.21543901E+00 0.85456293E+02</pdfrwt>
<pdfrwt beam="2">  1       -2 0.80859231E-03 0.85456293E+02</pdfrwt>
<totfact> 0.40905566E+04</totfact>
</mgrwt>
</event>
<event>
 4    1  0.5015492E-001  0.1034572E+03  0.7546771E-02  0.1273189E+00
          1   -1    0    0  501    0  0.00000000000E+00  0.00000000000E+00  0.14249543393E+04  0.14249543393E+04  0.00000000000E+00 0. -1.
         -1   -1    0    0    0  501 -0.00000000000E+00 -0.00000000000E+00 -0.22037339703E+02  0.22037339703E+02  0.00000000000E+00 0.  1.
         24    1    1    2    0    0 -0.62697313821E+02 -0.17470882037E+02  0.11406574434E+03  0.15399478844E+03  0.80419002446E+02 0.  1.
        -24    1    1    2    0    0  0.62697313821E+02  0.17470882037E+02  0.12888512553E+04  0.12929968906E+04  0.80419002446E+02 0. -1.
<mgrwt>
<rscale>  0 0.10345724E+03</rscale>
<asrwt>0</asrwt>
<pdfrwt beam="1">  1        1 0.21922367E+00 0.10345724E+03</pdfrwt>
<pdfrwt beam="2">  1       -1 0.33903611E-02 0.10345724E+03</pdfrwt>
<totfact> 0.25011657E+03</totfact>
</mgrwt>
</event>
<event>
 4    1  0.5015492E-001  0.8222202E+02  0.7546771E-02  0.1322861E+00
          1   -1    0    0  501    0  0.00000000000E+00  0.00000000000E+00  0.85513403418E+03  0.85513403418E+03  0.00000000000E+00 0. -1.
         -1   -1    0    0    0  501 -0.00000000000E+00 -0.00000000000E+00 -0.79196515398E+01  0.79196515398E+01  0.00000000000E+00 0.  1.
         24    1    1    2    0    0 -0.16994554924E+02 -0.21038344522E+01  0.44170106528E+03  0.44928864669E+03  0.80419002446E+02 0.  1.
        -24    1    1    2    0    0  0.16994554924E+02  0.21038344522E+01  0.40551331736E+03  0.41376503904E+03  0.80419002446E+02 0. -1.
<mgrwt>
<rscale>  0 0.82222008E+02</rscale>
<asrwt>0</asrwt>
<pdfrwt beam="1">  1        1 0.13155901E+00 0.82222019E+02</pdfrwt>
<pdfrwt beam="2">  1       -1 0.12184086E-02 0.82222019E+02</pdfrwt>
<totfact> 0.26430206E+04</totfact>
</mgrwt>
</event>
<event>
 4    1  0.5015492E-001  0.8391757E+02  0.7546771E-02  0.1318288E+00
          4   -1    0    0  501    0  0.00000000000E+00  0.00000000000E+00  0.18024795342E+02  0.18024795342E+02  0.00000000000E+00 0. -1.
         -4   -1    0    0    0  501 -0.00000000000E+00 -0.00000000000E+00 -0.78512840042E+03  0.78512840042E+03  0.00000000000E+00 0.  1.
         24    1    1    2    0    0  0.83104583780E+01  0.22491762329E+02 -0.98918267762E+02  0.12971886040E+03  0.80419002446E+02 0.  1.
        -24    1    1    2    0    0 -0.83104583780E+01 -0.22491762329E+02 -0.66818533731E+03  0.67343433536E+03  0.80419002446E+02 0.  1.
<mgrwt>
<rscale>  0 0.83917573E+02</rscale>
<asrwt>0</asrwt>
<pdfrwt beam="1">  1        4 0.27730463E-02 0.83917573E+02</pdfrwt>
<pdfrwt beam="2">  1       -4 0.12078895E+00 0.83917573E+02</pdfrwt>
<totfact> 0.50037874E+02</totfact>
</mgrwt>
</event>
<event>
 4    1  0.5015492E-001  0.8293328E+02  0.7546771E-02  0.1320927E+00
         -4   -1    0    0    0  501 -0.00000000000E+00  0.00000000000E+00  0.75971401948E+02  0.75971401948E+02  0.00000000000E+00 0.  1.
          4   -1    0    0  501    0  0.00000000000E+00 -0.00000000000E+00 -0.96709518809E+02  0.96709518809E+02  0.00000000000E+00 0. -1.
         24    1    1    2    0    0 -0.45441780829E+01  0.19750033253E+02 -0.32188660445E+02  0.88960885695E+02  0.80419002446E+02 0. -1.
        -24    1    1    2    0    0  0.45441780829E+01 -0.19750033253E+02  0.11450543584E+02  0.83720035061E+02  0.80419002446E+02 0.  1.
<mgrwt>
<rscale>  0 0.82933282E+02</rscale>
<asrwt>0</asrwt>
<pdfrwt beam="1">  1        4 0.14878387E-01 0.82933282E+02</pdfrwt>
<pdfrwt beam="2">  1       -4 0.11687908E-01 0.82933282E+02</pdfrwt>
<totfact> 0.32011441E+03</totfact>
</mgrwt>
</event>
<event>
 4    1  0.5015492E-001  0.1012157E+03  0.7546771E-02  0.1277760E+00
         -1   -1    0    0    0  501 -0.00000000000E+00  0.00000000000E+00  0.42606057151E+03  0.42606057151E+03  0.00000000000E+00 0.  1.
          1   -1    0    0  501    0  0.00000000000E+00 -0.00000000000E+00 -0.24358587324E+02  0.24358587324E+02  0.00000000000E+00 0. -1.
         24    1    1    2    0    0 -0.52329444088E+02 -0.32234123330E+02  0.22640398571E+03  0.24799877041E+03  0.80419002446E+02 0.  1.
        -24    1    1    2    0    0  0.52329444088E+02  0.32234123330E+02  0.17529799847E+03  0.20242038842E+03  0.80419002446E+02 0. -1.
<mgrwt>
<rscale>  0 0.10121574E+03</rscale>
<asrwt>0</asrwt>
<pdfrwt beam="1">  1        1 0.37474753E-02 0.10121574E+03</pdfrwt>
<pdfrwt beam="2">  1       -1 0.65547775E-01 0.10121574E+03</pdfrwt>
<totfact> 0.56649920E+03</totfact>
</mgrwt>
</event>
<event>
 4    1  0.5015492E-001  0.9543076E+02  0.7546771E-02  0.1290209E+00
          1   -1    0    0  501    0  0.00000000000E+00  0.00000000000E+00  0.11430652677E+04  0.11430652677E+04  0.00000000000E+00 0. -1.
         -1   -1    0    0    0  501 -0.00000000000E+00 -0.00000000000E+00 -0.80360681196E+01  0.80360681196E+01  0.00000000000E+00 0.  1.
         24    1    1    2    0    0 -0.50907568998E+02  0.69450628353E+01  0.51423406523E+03  0.52301405744E+03  0.80419002446E+02 0.  1.
        -24    1    1    2    0    0  0.50907568998E+02 -0.69450628353E+01  0.62079513437E+03  0.62808727840E+03  0.80419002446E+02 0. -1.
<mgrwt>
<rscale>  0 0.95430763E+02</rscale>
<asrwt>0</asrwt>
<pdfrwt beam="1">  1        1 0.17585607E+00 0.95430763E+02</pdfrwt>
<pdfrwt beam="2">  1       -1 0.12363191E-02 0.95430763E+02</pdfrwt>
<totfact> 0.16252243E+04</totfact>
</mgrwt>
</event>
<event>
 4    1  0.5015492E-001  0.8068630E+02  0.7546771E-02  0.1327115E+00
          1   -1    0    0  501    0  0.00000000000E+00  0.00000000000E+00  0.78096142764E+02  0.78096142764E+02  0.00000000000E+00 0. -1.
         -1   -1    0    0    0  501 -0.00000000000E+00 -0.00000000000E+00 -0.34227879767E+03  0.34227879767E+03  0.00000000000E+00 0.  1.
         24    1    1    2    0    0  0.27774541817E+01  0.59455008156E+01 -0.31489993107E+03  0.32507267768E+03  0.80419002446E+02 0.  1.
        -24    1    1    2    0    0 -0.27774541817E+01 -0.59455008156E+01  0.50717276159E+02  0.95302262759E+02  0.80419002446E+02 0. -1.
<mgrwt>
<rscale>  0 0.80686301E+02</rscale>
<asrwt>0</asrwt>
<pdfrwt beam="1">  1        1 0.12014791E-01 0.80686301E+02</pdfrwt>
<pdfrwt beam="2">  1       -1 0.52658278E-01 0.80686301E+02</pdfrwt>
<totfact> 0.17785221E+03</totfact>
</mgrwt>
</event>
<event>
 4    1  0.5015492E-001  0.9213975E+02  0.7546771E-02  0.1297751E+00
          1   -1    0    0  501    0  0.00000000000E+00  0.00000000000E+00  0.32835505723E+03  0.32835505723E+03  0.00000000000E+00 0. -1.
         -1   -1    0    0    0  501 -0.00000000000E+00 -0.00000000000E+00 -0.41700334525E+02  0.41700334525E+02  0.00000000000E+00 0.  1.
         24    1    1    2    0    0 -0.14903289073E+02  0.42431237367E+02  0.29272730171E+02  0.96677953101E+02  0.80419002446E+02 0.  1.
        -24    1    1    2    0    0  0.14903289073E+02 -0.42431237367E+02  0.25738199253E+03  0.27337743865E+03  0.80419002446E+02 0. -1.
<mgrwt>
<rscale>  0 0.92139752E+02</rscale>
<asrwt>0</asrwt>
<pdfrwt beam="1">  1        1 0.50516161E-01 0.92139752E+02</pdfrwt>
<pdfrwt beam="2">  1       -1 0.64154363E-02 0.92139752E+02</pdfrwt>
<totfact> 0.86811463E+03</totfact>
</mgrwt>
</event>
<event>
 4    1  0.5015492E-001  0.9545014E+02  0.7546771E-02  0.1290165E+00
          4   -1    0    0  501    0  0.00000000000E+00  0.00000000000E+00  0.40216288160E+02  0.40216288160E+02  0.00000000000E+00 0. -1.
         -4   -1    0    0    0  501 -0.00000000000E+00 -0.00000000000E+00 -0.22792518103E+03  0.22792518103E+03  0.00000000000E+00 0.  1.
         24    1    1    2    0    0 -0.26656979984E+02  0.43964979023E+02 -0.83415036235E+02  0.12676276341E+03  0.80419002446E+02 0. -1.
        -24    1    1    2    0    0  0.26656979984E+02 -0.43964979023E+02 -0.10429385663E+03  0.14137870578E+03  0.80419002446E+02 0.  1.
<mgrwt>
<rscale>  0 0.95450144E+02</rscale>
<asrwt>0</asrwt>
<pdfrwt beam="1">  1        4 0.61871214E-02 0.95450144E+02</pdfrwt>
<pdfrwt beam="2">  1       -4 0.35065412E-01 0.95450144E+02</pdfrwt>
<totfact> 0.20069194E+03</totfact>
</mgrwt>
</event>
<event>
 4    1  0.5015492E-001  0.8073054E+02  0.7546771E-02  0.1326991E+00
         -2   -1    0    0    0  501 -0.00000000000E+00  0.00000000000E+00  0.12673193647E+03  0.12673193647E+03  0.00000000000E+00 0.  1.
          2   -1    0    0  501    0  0.00000000000E+00 -0.00000000000E+00 -0.10505343374E+04  0.10505343374E+04  0.00000000000E+00 0. -1.
         24    1    1    2    0    0  0.42354854263E+01 -0.56802759927E+01 -0.10359458767E+04  0.10390867530E+04  0.80419002446E+02 0. -1.
        -24    1    1    2    0    0 -0.42354854263E+01  0.56802759927E+01  0.11214347578E+03  0.13817952086E+03  0.80419002446E+02 0.  0.
<mgrwt>
<rscale>  0 0.80730545E+02</rscale>
<asrwt>0</asrwt>
<pdfrwt beam="1">  1        2 0.16162067E+00 0.80730545E+02</pdfrwt>
<pdfrwt beam="2">  1       -2 0.19497221E-01 0.80730545E+02</pdfrwt>
<totfact> 0.55187413E+02</totfact>
</mgrwt>
</event>
<event>
 4    1  0.5015492E-001  0.9850573E+02  0.7546771E-02  0.1283470E+00
          1   -1    0    0  501    0  0.00000000000E+00  0.00000000000E+00  0.62131703554E+03  0.62131703554E+03  0.00000000000E+00 0. -1.
         -1   -1    0    0    0  501 -0.00000000000E+00 -0.00000000000E+00 -0.17266011345E+02  0.17266011345E+02  0.00000000000E+00 0.  1.
         24    1    1    2    0    0 -0.46263531088E+02  0.33103589360E+02  0.20336439660E+03  0.22596560733E+03  0.80419002446E+02 0.  1.
        -24    1    1    2    0    0  0.46263531088E+02 -0.33103589360E+02  0.40068662759E+03  0.41261743955E+03  0.80419002446E+02 0.  0.
<mgrwt>
<rscale>  0 0.98505725E+02</rscale>
<asrwt>0</asrwt>
<pdfrwt beam="1">  1        1 0.95587219E-01 0.98505725E+02</pdfrwt>
<pdfrwt beam="2">  1       -1 0.26563099E-02 0.98505725E+02</pdfrwt>
<totfact> 0.13997214E+04</totfact>
</mgrwt>
</event>
<event>
 4    1  0.5015492E-001  0.8426646E+02  0.7546771E-02  0.1317362E+00
         -1   -1    0    0    0  501 -0.00000000000E+00  0.00000000000E+00  0.14005386020E+02  0.14005386020E+02  0.00000000000E+00 0.  1.
          1   -1    0    0  501    0  0.00000000000E+00 -0.00000000000E+00 -0.55113326884E+03  0.55113326884E+03  0.00000000000E+00 0. -1.
         24    1    1    2    0    0  0.16653247904E+02  0.18875655267E+02 -0.18860953290E+03  0.20657781315E+03  0.80419002446E+02 0.  1.
        -24    1    1    2    0    0 -0.16653247904E+02 -0.18875655267E+02 -0.34851834991E+03  0.35856084171E+03  0.80419002446E+02 0. -1.
<mgrwt>
<rscale>  0 0.84266464E+02</rscale>
<asrwt>0</asrwt>
<pdfrwt beam="1">  1        1 0.84789735E-01 0.84266464E+02</pdfrwt>
<pdfrwt beam="2">  1       -1 0.21546747E-02 0.84266464E+02</pdfrwt>
<totfact> 0.21833871E+04</totfact>
</mgrwt>
</event>
<event>
 4    1  0.5015492E-001  0.1009620E+03  0.7546771E-02  0.1278286E+00
          2   -1    0    0  501    0  0.00000000000E+00  0.00000000000E+00  0.29089302517E+04  0.29089302517E+04  0.00000000000E+00 0. -1.
         -2   -1    0    0    0  501 -0.00000000000E+00 -0.00000000000E+00 -0.36425081400E+01  0.36425081400E+01  0.00000000000E+00 0.  1.
         24    1    1    2    0    0  0.53933124937E+01  0.60803159328E+02  0.17364677112E+04  0.17394003104E+04  0.80419002446E+02 0. -1.
        -24    1    1    2    0    0 -0.53933124937E+01 -0.60803159328E+02  0.11688200324E+04  0.11731724494E+04  0.80419002446E+02 0.  1.
<mgrwt>
<rscale>  0 0.10096201E+03</rscale>
<asrwt>0</asrwt>
<pdfrwt beam="1">  1        2 0.44752587E+00 0.10096201E+03</pdfrwt>
<pdfrwt beam="2">  1       -2 0.56038819E-03 0.10096201E+03</pdfrwt>
<totfact> 0.11463402E+04</totfact>
</mgrwt>
</event>
<event>
 4    1  0.5015492E-001  0.1005868E+03  0.7546771E-02  0.1279067E+00
          2   -1    0    0  501    0  0.00000000000E+00  0.00000000000E+00  0.35267609044E+03  0.35267609044E+03  0.00000000000E+00 0. -1.
         -2   -1    0    0    0  501 -0.00000000000E+00 -0.00000000000E+00 -0.88403418798E+02  0.88403418798E+02  0.00000000000E+00 0.  1.
         24    1    1    2    0    0  0.43950362753E+02  0.41458944341E+02  0.31339314587E+03  0.32913972456E+03  0.80419002446E+02 0. -1.
        -24    1    1    2    0    0 -0.43950362753E+02 -0.41458944341E+02 -0.49120474224E+02  0.11193978468E+03  0.80419002446E+02 0.  1.
<mgrwt>
<rscale>  0 0.10058675E+03</rscale>
<asrwt>0</asrwt>
<pdfrwt beam="1">  1        2 0.54257859E-01 0.10058675E+03</pdfrwt>
<pdfrwt beam="2">  1       -2 0.13600526E-01 0.10058675E+03</pdfrwt>
<totfact> 0.35139093E+03</totfact>
</mgrwt>
</event>
<event>
 4    1  0.5015492E-001  0.1293463E+03  0.7546771E-02  0.1228429E+00
         -1   -1    0    0    0  501 -0.00000000000E+00  0.00000000000E+00  0.78513277814E+03  0.78513277814E+03  0.00000000000E+00 0.  1.
          1   -1    0    0  501    0  0.00000000000E+00 -0.00000000000E+00 -0.21450404159E+02  0.21450404159E+02  0.00000000000E+00 0. -1.
         24    1    1    2    0    0  0.10130756689E+03  0.15753464532E+00  0.41457499412E+03  0.43428434191E+03  0.80419002446E+02 0.  1.
        -24    1    1    2    0    0 -0.10130756689E+03 -0.15753464532E+00  0.34910737986E+03  0.37229884038E+03  0.80419002446E+02 0.  0.
<mgrwt>
<rscale>  0 0.12934629E+03</rscale>
<asrwt>0</asrwt>
<pdfrwt beam="1">  1        1 0.33000628E-02 0.12934629E+03</pdfrwt>
<pdfrwt beam="2">  1       -1 0.12078964E+00 0.12934629E+03</pdfrwt>
<totfact> 0.18798816E+03</totfact>
</mgrwt>
</event>
<event>
 4    1  0.5015492E-001  0.9762473E+02  0.7546771E-02  0.1285372E+00
          2   -1    0    0  501    0  0.00000000000E+00  0.00000000000E+00  0.91017506086E+03  0.91017506086E+03  0.00000000000E+00 0. -1.
         -2   -1    0    0    0  501 -0.00000000000E+00 -0.00000000000E+00 -0.21873934831E+02  0.21873934831E+02  0.00000000000E+00 0.  1.
         24    1    1    2    0    0 -0.52397977109E+02  0.17827604991E+02  0.78062384956E+03  0.78670463451E+03  0.80419002446E+02 0. -1.
        -24    1    1    2    0    0  0.52397977109E+02 -0.17827604991E+02  0.10767727648E+03  0.14534436119E+03  0.80419002446E+02 0.  1.
<mgrwt>
<rscale>  0 0.97624728E+02</rscale>
<asrwt>0</asrwt>
<pdfrwt beam="1">  1        2 0.14002690E+00 0.97624728E+02</pdfrwt>
<pdfrwt beam="2">  1       -2 0.33652214E-02 0.97624728E+02</pdfrwt>
<totfact> 0.10056504E+04</totfact>
</mgrwt>
</event>
<event>
 4    1  0.5015492E-001  0.1396068E+03  0.7546771E-02  0.1213859E+00
          2   -1    0    0  501    0  0.00000000000E+00  0.00000000000E+00  0.14928074795E+04  0.14928074795E+04  0.00000000000E+00 0. -1.
         -2   -1    0    0    0  501 -0.00000000000E+00 -0.00000000000E+00 -0.47021023854E+02  0.47021023854E+02  0.00000000000E+00 0.  1.
         24    1    1    2    0    0 -0.85595926898E+02 -0.75472986722E+02  0.13772467868E+04  0.13843044326E+04  0.80419002446E+02 0. -1.
        -24    1    1    2    0    0  0.85595926898E+02  0.75472986722E+02  0.68539668870E+02  0.15552407077E+03  0.80419002446E+02 0.  1.
<mgrwt>
<rscale>  0 0.13960677E+03</rscale>
<asrwt>0</asrwt>
<pdfrwt beam="1">  1        2 0.22966265E+00 0.13960677E+03</pdfrwt>
<pdfrwt beam="2">  1       -2 0.72340048E-02 0.13960677E+03</pdfrwt>
<totfact> 0.15341565E+03</totfact>
</mgrwt>
</event>
<event>
 4    1  0.5015492E-001  0.1034777E+03  0.7546771E-02  0.1273148E+00
          2   -1    0    0  501    0  0.00000000000E+00  0.00000000000E+00  0.23984175744E+04  0.23984175744E+04  0.00000000000E+00 0. -1.
         -2   -1    0    0    0  501 -0.00000000000E+00 -0.00000000000E+00 -0.74008130135E+01  0.74008130135E+01  0.00000000000E+00 0.  1.
         24    1    1    2    0    0 -0.43331100459E+02  0.48609094257E+02  0.19532080697E+04  0.19559471894E+04  0.80419002446E+02 0. -1.
        -24    1    1    2    0    0  0.43331100459E+02 -0.48609094257E+02  0.43780869167E+03  0.44987119797E+03  0.80419002446E+02 0.  1.
<mgrwt>
<rscale>  0 0.10347775E+03</rscale>
<asrwt>0</asrwt>
<pdfrwt beam="1">  1        2 0.36898670E+00 0.10347775E+03</pdfrwt>
<pdfrwt beam="2">  1       -2 0.11385885E-02 0.10347775E+03</pdfrwt>
<totfact> 0.79341292E+03</totfact>
</mgrwt>
</event>
<event>
 4    1  0.5015492E-001  0.8059106E+02  0.7546771E-02  0.1327382E+00
          2   -1    0    0  501    0  0.00000000000E+00  0.00000000000E+00  0.72516677248E+03  0.72516677248E+03  0.00000000000E+00 0. -1.
         -2   -1    0    0    0  501 -0.00000000000E+00 -0.00000000000E+00 -0.97616426658E+01  0.97616426658E+01  0.00000000000E+00 0.  1.
         24    1    1    2    0    0  0.51480428674E+01  0.10960794835E+01  0.46323928395E+03  0.47019735631E+03  0.80419002446E+02 0. -1.
        -24    1    1    2    0    0 -0.51480428674E+01 -0.10960794835E+01  0.25216584587E+03  0.26473105884E+03  0.80419002446E+02 0.  0.
<mgrwt>
<rscale>  0 0.80591065E+02</rscale>
<asrwt>0</asrwt>
<pdfrwt beam="1">  1        2 0.11156408E+00 0.80591065E+02</pdfrwt>
<pdfrwt beam="2">  1       -2 0.15017917E-02 0.80591065E+02</pdfrwt>
<totfact> 0.41778659E+04</totfact>
</mgrwt>
</event>
<event>
 4    1  0.5015492E-001  0.1642653E+03  0.7546771E-02  0.1183964E+00
          2   -1    0    0  501    0  0.00000000000E+00  0.00000000000E+00  0.58976022000E+03  0.58976022000E+03  0.00000000000E+00 0. -1.
         -2   -1    0    0    0  501 -0.00000000000E+00 -0.00000000000E+00 -0.50400575540E+02  0.50400575540E+02  0.00000000000E+00 0.  1.
         24    1    1    2    0    0  0.73877249334E+02  0.12271112241E+03  0.36688102953E+03  0.40197608551E+03  0.80419002446E+02 0. -1.
        -24    1    1    2    0    0 -0.73877249334E+02 -0.12271112241E+03  0.17247861493E+03  0.23818471003E+03  0.80419002446E+02 0.  1.
<mgrwt>
<rscale>  0 0.16426528E+03</rscale>
<asrwt>0</asrwt>
<pdfrwt beam="1">  1        2 0.90732337E-01 0.16426528E+03</pdfrwt>
<pdfrwt beam="2">  1       -2 0.77539351E-02 0.16426528E+03</pdfrwt>
<totfact> 0.49877579E+03</totfact>
</mgrwt>
</event>
<event>
 4    1  0.5015492E-001  0.8211329E+02  0.7546771E-02  0.1323159E+00
         -2   -1    0    0    0  501 -0.00000000000E+00  0.00000000000E+00  0.34929547850E+02  0.34929547850E+02  0.00000000000E+00 0.  1.
          2   -1    0    0  501    0  0.00000000000E+00 -0.00000000000E+00 -0.60620042113E+03  0.60620042113E+03  0.00000000000E+00 0. -1.
         24    1    1    2    0    0 -0.13762042200E+02  0.92726560549E+01 -0.55028455467E+03  0.55637728478E+03  0.80419002446E+02 0. -1.
        -24    1    1    2    0    0  0.13762042200E+02 -0.92726560549E+01 -0.20986318610E+02  0.84752684199E+02  0.80419002446E+02 0.  1.
<mgrwt>
<rscale>  0 0.82113287E+02</rscale>
<asrwt>0</asrwt>
<pdfrwt beam="1">  1        2 0.93261601E-01 0.82113287E+02</pdfrwt>
<pdfrwt beam="2">  1       -2 0.53737767E-02 0.82113287E+02</pdfrwt>
<totfact> 0.80962518E+03</totfact>
</mgrwt>
</event>
<event>
 4    1  0.5015492E-001  0.1004738E+03  0.7546771E-02  0.1279303E+00
         -2   -1    0    0    0  501 -0.00000000000E+00  0.00000000000E+00  0.59507573246E+02  0.59507573246E+02  0.00000000000E+00 0.  1.
          2   -1    0    0  501    0  0.00000000000E+00 -0.00000000000E+00 -0.40043115501E+04  0.40043115501E+04  0.00000000000E+00 0. -1.
         24    1    1    2    0    0 -0.59840139170E+02 -0.68499357380E+01 -0.39608050368E+04  0.39620791915E+04  0.80419002446E+02 0. -1.
        -24    1    1    2    0    0  0.59840139170E+02  0.68499357380E+01  0.16001059910E+02  0.10173993193E+03  0.80419002446E+02 0.  1.
<mgrwt>
<rscale>  0 0.10047378E+03</rscale>
<asrwt>0</asrwt>
<pdfrwt beam="1">  1        2 0.61604825E+00 0.10047378E+03</pdfrwt>
<pdfrwt beam="2">  1       -2 0.91550065E-02 0.10047378E+03</pdfrwt>
<totfact> 0.39168183E+01</totfact>
</mgrwt>
</event>
<event>
 4    1  0.5015492E-001  0.8361330E+02  0.7546771E-02  0.1319099E+00
         -4   -1    0    0    0  501 -0.00000000000E+00  0.00000000000E+00  0.62963300021E+02  0.62963300021E+02  0.00000000000E+00 0.  1.
          4   -1    0    0  501    0  0.00000000000E+00 -0.00000000000E+00 -0.13294341486E+03  0.13294341486E+03  0.00000000000E+00 0. -1.
         24    1    1    2    0    0  0.24743318945E+01 -0.22756237021E+02 -0.74753392021E+02  0.11215727446E+03  0.80419002446E+02 0.  1.
        -24    1    1    2    0    0 -0.24743318945E+01  0.22756237021E+02  0.47732771786E+01  0.83749440422E+02  0.80419002446E+02 0.  1.
<mgrwt>
<rscale>  0 0.83613304E+02</rscale>
<asrwt>0</asrwt>
<pdfrwt beam="1">  1        4 0.20452833E-01 0.83613304E+02</pdfrwt>
<pdfrwt beam="2">  1       -4 0.96866616E-02 0.83613304E+02</pdfrwt>
<totfact> 0.25150541E+03</totfact>
</mgrwt>
</event>
<event>
 4    1  0.5015492E-001  0.8698588E+02  0.7546771E-02  0.1310319E+00
          4   -1    0    0  501    0  0.00000000000E+00  0.00000000000E+00  0.62664130052E+03  0.62664130052E+03  0.00000000000E+00 0. -1.
         -4   -1    0    0    0  501 -0.00000000000E+00 -0.00000000000E+00 -0.12531223004E+02  0.12531223004E+02  0.00000000000E+00 0.  1.
         24    1    1    2    0    0  0.20835391497E+02  0.25791671274E+02  0.24605967454E+03  0.26098257266E+03  0.80419002446E+02 0.  1.
        -24    1    1    2    0    0 -0.20835391497E+02 -0.25791671274E+02  0.36805040298E+03  0.37818995086E+03  0.80419002446E+02 0. -1.
<mgrwt>
<rscale>  0 0.86985871E+02</rscale>
<asrwt>0</asrwt>
<pdfrwt beam="1">  1        4 0.96406329E-01 0.86985882E+02</pdfrwt>
<pdfrwt beam="2">  1       -4 0.19278810E-02 0.86985882E+02</pdfrwt>
<totfact> 0.14876914E+03</totfact>
</mgrwt>
</event>
<event>
 4    1  0.5015492E-001  0.8572983E+02  0.7546771E-02  0.1313535E+00
          1   -1    0    0  501    0  0.00000000000E+00  0.00000000000E+00  0.48569334920E+03  0.48569334920E+03  0.00000000000E+00 0. -1.
         -1   -1    0    0    0  501 -0.00000000000E+00 -0.00000000000E+00 -0.12608508615E+03  0.12608508615E+03  0.00000000000E+00 0.  1.
         24    1    1    2    0    0 -0.26705254319E+02  0.13008377129E+02 -0.10714282899E+03  0.13721949658E+03  0.80419002446E+02 0.  1.
        -24    1    1    2    0    0  0.26705254319E+02 -0.13008377129E+02  0.46675109204E+03  0.47455893876E+03  0.80419002446E+02 0. -1.
<mgrwt>
<rscale>  0 0.85729834E+02</rscale>
<asrwt>0</asrwt>
<pdfrwt beam="1">  1        1 0.74722053E-01 0.85729834E+02</pdfrwt>
<pdfrwt beam="2">  1       -1 0.19397706E-01 0.85729834E+02</pdfrwt>
<totfact> 0.98607704E+02</totfact>
</mgrwt>
</event>
<event>
 4    1  0.5015492E-001  0.8455782E+02  0.7546771E-02  0.1316593E+00
         -2   -1    0    0    0  501 -0.00000000000E+00  0.00000000000E+00  0.69327641293E+03  0.69327641293E+03  0.00000000000E+00 0.  1.
          2   -1    0    0  501    0  0.00000000000E+00 -0.00000000000E+00 -0.34539480928E+02  0.34539480928E+02  0.00000000000E+00 0. -1.
         24    1    1    2    0    0 -0.29183011477E+01 -0.25967156845E+02  0.24596256056E+02  0.88062486239E+02  0.80419002446E+02 0. -1.
        -24    1    1    2    0    0  0.29183011477E+01  0.25967156845E+02  0.63414067595E+03  0.63975340762E+03  0.80419002446E+02 0.  1.
<mgrwt>
<rscale>  0 0.84557824E+02</rscale>
<asrwt>0</asrwt>
<pdfrwt beam="1">  1        2 0.53137668E-02 0.84557824E+02</pdfrwt>
<pdfrwt beam="2">  1       -2 0.10665790E+00 0.84557824E+02</pdfrwt>
<totfact> 0.10102852E+03</totfact>
</mgrwt>
</event>
<event>
 4    1  0.5015492E-001  0.9192996E+02  0.7546771E-02  0.1298244E+00
         -4   -1    0    0    0  501 -0.00000000000E+00  0.00000000000E+00  0.16803103223E+03  0.16803103223E+03  0.00000000000E+00 0.  1.
          4   -1    0    0  501    0  0.00000000000E+00 -0.00000000000E+00 -0.50794316349E+02  0.50794316349E+02  0.00000000000E+00 0. -1.
         24    1    1    2    0    0  0.32465131152E+02 -0.30494527468E+02  0.47770150754E+02  0.10360069596E+03  0.80419002446E+02 0.  0.
        -24    1    1    2    0    0 -0.32465131152E+02  0.30494527468E+02  0.69466565132E+02  0.11522465262E+03  0.80419002446E+02 0.  1.
<mgrwt>
<rscale>  0 0.91929956E+02</rscale>
<asrwt>0</asrwt>
<pdfrwt beam="1">  1        4 0.78145103E-02 0.91929956E+02</pdfrwt>
<pdfrwt beam="2">  1       -4 0.25850928E-01 0.91929956E+02</pdfrwt>
<totfact> 0.24079278E+03</totfact>
</mgrwt>
</event>
<event>
 4    1  0.5015492E-001  0.8441748E+02  0.7546771E-02  0.1316963E+00
          2   -1    0    0  501    0  0.00000000000E+00  0.00000000000E+00  0.42740497395E+03  0.42740497395E+03  0.00000000000E+00 0. -1.
         -2   -1    0    0    0  501 -0.00000000000E+00 -0.00000000000E+00 -0.16681219531E+02  0.16681219531E+02  0.00000000000E+00 0.  1.
         24    1    1    2    0    0 -0.25642015127E+02  0.12562896317E+01  0.20056384484E+03  0.21760552157E+03  0.80419002446E+02 0.  0.
        -24    1    1    2    0    0  0.25642015127E+02 -0.12562896317E+01  0.21015990957E+03  0.22648067191E+03  0.80419002446E+02 0.  1.
<mgrwt>
<rscale>  0 0.84417468E+02</rscale>
<asrwt>0</asrwt>
<pdfrwt beam="1">  1        2 0.65754603E-01 0.84417479E+02</pdfrwt>
<pdfrwt beam="2">  1       -2 0.25663418E-02 0.84417479E+02</pdfrwt>
<totfact> 0.34935900E+04</totfact>
</mgrwt>
</event>
<event>
 4    1  0.5015492E-001  0.8671114E+02  0.7546771E-02  0.1311017E+00
          2   -1    0    0  501    0  0.00000000000E+00  0.00000000000E+00  0.55445633693E+03  0.55445633693E+03  0.00000000000E+00 0. -1.
         -2   -1    0    0    0  501 -0.00000000000E+00 -0.00000000000E+00 -0.13803994682E+02  0.13803994682E+02  0.00000000000E+00 0.  1.
         24    1    1    2    0    0  0.19059242164E+02 -0.26236438191E+02  0.30804626091E+03  0.32001768735E+03  0.80419002446E+02 0.  0.
        -24    1    1    2    0    0 -0.19059242164E+02  0.26236438191E+02  0.23260608133E+03  0.24824264426E+03  0.80419002446E+02 0. -1.
<mgrwt>
<rscale>  0 0.86711137E+02</rscale>
<asrwt>0</asrwt>
<pdfrwt beam="1">  1        2 0.85300958E-01 0.86711137E+02</pdfrwt>
<pdfrwt beam="2">  1       -2 0.21236919E-02 0.86711137E+02</pdfrwt>
<totfact> 0.34799817E+04</totfact>
</mgrwt>
</event>
<event>
 4    1  0.5015492E-001  0.9736461E+02  0.7546771E-02  0.1285937E+00
          2   -1    0    0  501    0  0.00000000000E+00  0.00000000000E+00  0.57866741439E+03  0.57866741439E+03  0.00000000000E+00 0. -1.
         -2   -1    0    0    0  501 -0.00000000000E+00 -0.00000000000E+00 -0.17183004520E+02  0.17183004520E+02  0.00000000000E+00 0.  1.
         24    1    1    2    0    0  0.49372771783E+02 -0.23978752694E+02  0.34505697741E+03  0.35853059115E+03  0.80419002446E+02 0.  1.
        -24    1    1    2    0    0 -0.49372771783E+02  0.23978752694E+02  0.21642743246E+03  0.23731982776E+03  0.80419002446E+02 0. -1.
<mgrwt>
<rscale>  0 0.97364609E+02</rscale>
<asrwt>0</asrwt>
<pdfrwt beam="1">  1        2 0.89025741E-01 0.97364609E+02</pdfrwt>
<pdfrwt beam="2">  1       -2 0.26435396E-02 0.97364609E+02</pdfrwt>
<totfact> 0.24501352E+04</totfact>
</mgrwt>
</event>
<event>
 4    1  0.5015492E-001  0.8065843E+02  0.7546771E-02  0.1327193E+00
         -1   -1    0    0    0  501 -0.00000000000E+00  0.00000000000E+00  0.77890613501E+03  0.77890613501E+03  0.00000000000E+00 0.  1.
          1   -1    0    0  501    0  0.00000000000E+00 -0.00000000000E+00 -0.58783919710E+02  0.58783919710E+02  0.00000000000E+00 0. -1.
         24    1    1    2    0    0 -0.20645283191E+01  0.58569780212E+01  0.74801030880E+03  0.75234646573E+03  0.80419002446E+02 0.  1.
        -24    1    1    2    0    0  0.20645283191E+01 -0.58569780212E+01 -0.27888093500E+02  0.85343588993E+02  0.80419002446E+02 0. -1.
<mgrwt>
<rscale>  0 0.80658431E+02</rscale>
<asrwt>0</asrwt>
<pdfrwt beam="1">  1        1 0.90436805E-02 0.80658431E+02</pdfrwt>
<pdfrwt beam="2">  1       -1 0.11983171E+00 0.80658431E+02</pdfrwt>
<totfact> 0.48359590E+02</totfact>
</mgrwt>
</event>
<event>
 4    1  0.5015492E-001  0.1439592E+03  0.7546771E-02  0.1208099E+00
          2   -1    0    0  501    0  0.00000000000E+00  0.00000000000E+00  0.53974999241E+03  0.53974999241E+03  0.00000000000E+00 0. -1.
         -2   -1    0    0    0  501 -0.00000000000E+00 -0.00000000000E+00 -0.62234490452E+02  0.62234490452E+02  0.00000000000E+00 0.  1.
         24    1    1    2    0    0  0.52379980455E+02  0.10730044599E+03  0.42504310608E+03  0.44876041051E+03  0.80419002446E+02 0.  1.
        -24    1    1    2    0    0 -0.52379980455E+02 -0.10730044599E+03  0.52472395875E+02  0.15322407235E+03  0.80419002446E+02 0.  0.
<mgrwt>
<rscale>  0 0.14395924E+03</rscale>
<asrwt>0</asrwt>
<pdfrwt beam="1">  1        2 0.83038457E-01 0.14395924E+03</pdfrwt>
<pdfrwt beam="2">  1       -2 0.95745374E-02 0.14395924E+03</pdfrwt>
<totfact> 0.39454341E+03</totfact>
</mgrwt>
</event>
<event>
 4    1  0.5015492E-001  0.8412629E+02  0.7546771E-02  0.1317733E+00
         -1   -1    0    0    0  501 -0.00000000000E+00  0.00000000000E+00  0.20056583629E+03  0.20056583629E+03  0.00000000000E+00 0.  1.
          1   -1    0    0  501    0  0.00000000000E+00 -0.00000000000E+00 -0.37457612303E+02  0.37457612303E+02  0.00000000000E+00 0. -1.
         24    1    1    2    0    0  0.21941031066E+02  0.11340504897E+02  0.11020763759E+03  0.13864687243E+03  0.80419002446E+02 0.  1.
        -24    1    1    2    0    0 -0.21941031066E+02 -0.11340504897E+02  0.52900586395E+02  0.99376576168E+02  0.80419002446E+02 0. -1.
<mgrwt>
<rscale>  0 0.84126285E+02</rscale>
<asrwt>0</asrwt>
<pdfrwt beam="1">  1        1 0.57627097E-02 0.84126285E+02</pdfrwt>
<pdfrwt beam="2">  1       -1 0.30856282E-01 0.84126285E+02</pdfrwt>
<totfact> 0.11874207E+04</totfact>
</mgrwt>
</event>
<event>
 4    1  0.5015492E-001  0.1036600E+03  0.7546771E-02  0.1272782E+00
          2   -1    0    0  501    0  0.00000000000E+00  0.00000000000E+00  0.28215300475E+03  0.28215300475E+03  0.00000000000E+00 0. -1.
         -2   -1    0    0    0  501 -0.00000000000E+00 -0.00000000000E+00 -0.38360190186E+02  0.38360190186E+02  0.00000000000E+00 0.  1.
         24    1    1    2    0    0  0.44340355735E+02 -0.48084415001E+02  0.13550510213E+03  0.17060781568E+03  0.80419002446E+02 0.  0.
        -24    1    1    2    0    0 -0.44340355735E+02  0.48084415001E+02  0.10828771244E+03  0.14990537926E+03  0.80419002446E+02 0.  1.
<mgrwt>
<rscale>  0 0.10365999E+03</rscale>
<asrwt>0</asrwt>
<pdfrwt beam="1">  1        2 0.43408153E-01 0.10365999E+03</pdfrwt>
<pdfrwt beam="2">  1       -2 0.59015679E-02 0.10365999E+03</pdfrwt>
<totfact> 0.16221898E+04</totfact>
</mgrwt>
</event>
<event>
 4    1  0.5015492E-001  0.1445807E+03  0.7546771E-02  0.1207295E+00
         -2   -1    0    0    0  501 -0.00000000000E+00  0.00000000000E+00  0.94198923960E+01  0.94198923960E+01  0.00000000000E+00 0.  1.
          2   -1    0    0  501    0  0.00000000000E+00 -0.00000000000E+00 -0.22191433157E+04  0.22191433157E+04  0.00000000000E+00 0. -1.
         24    1    1    2    0    0  0.56348117242E+02  0.10611904713E+03 -0.10993427517E+04  0.11088093002E+04  0.80419002446E+02 0.  1.
        -24    1    1    2    0    0 -0.56348117242E+02 -0.10611904713E+03 -0.11103806715E+04  0.11197539079E+04  0.80419002446E+02 0. -1.
<mgrwt>
<rscale>  0 0.14458072E+03</rscale>
<asrwt>0</asrwt>
<pdfrwt beam="1">  1        2 0.34140666E+00 0.14458073E+03</pdfrwt>
<pdfrwt beam="2">  1       -2 0.14492142E-02 0.14458073E+03</pdfrwt>
<totfact> 0.70061247E+03</totfact>
</mgrwt>
</event>
<event>
 4    1  0.5015492E-001  0.9258945E+02  0.7546771E-02  0.1296699E+00
          2   -1    0    0  501    0  0.00000000000E+00  0.00000000000E+00  0.34856236401E+03  0.34856236401E+03  0.00000000000E+00 0. -1.
         -2   -1    0    0    0  501 -0.00000000000E+00 -0.00000000000E+00 -0.50098496014E+02  0.50098496014E+02  0.00000000000E+00 0.  1.
         24    1    1    2    0    0 -0.99353267696E+00 -0.45875955199E+02  0.29145275945E+03  0.30580633956E+03  0.80419002446E+02 0. -1.
        -24    1    1    2    0    0  0.99353267696E+00  0.45875955199E+02  0.70111085478E+01  0.92854520461E+02  0.80419002446E+02 0.  1.
<mgrwt>
<rscale>  0 0.92589450E+02</rscale>
<asrwt>0</asrwt>
<pdfrwt beam="1">  1        2 0.53624978E-01 0.92589450E+02</pdfrwt>
<pdfrwt beam="2">  1       -2 0.77074611E-02 0.92589450E+02</pdfrwt>
<totfact> 0.85909057E+03</totfact>
</mgrwt>
</event>
<event>
 4    1  0.5015492E-001  0.8403101E+02  0.7546771E-02  0.1317986E+00
         -2   -1    0    0    0  501 -0.00000000000E+00  0.00000000000E+00  0.11880244122E+03  0.11880244122E+03  0.00000000000E+00 0.  1.
          2   -1    0    0  501    0  0.00000000000E+00 -0.00000000000E+00 -0.66289865602E+02  0.66289865602E+02  0.00000000000E+00 0. -1.
         24    1    1    2    0    0 -0.10188752143E+02 -0.22140006671E+02  0.56013028513E+02  0.10098844431E+03  0.80419002446E+02 0.  0.
        -24    1    1    2    0    0  0.10188752143E+02  0.22140006671E+02 -0.35004528938E+01  0.84103862518E+02  0.80419002446E+02 0.  0.
<mgrwt>
<rscale>  0 0.84030996E+02</rscale>
<asrwt>0</asrwt>
<pdfrwt beam="1">  1        2 0.10198441E-01 0.84031006E+02</pdfrwt>
<pdfrwt beam="2">  1       -2 0.18277299E-01 0.84031006E+02</pdfrwt>
<totfact> 0.13615198E+04</totfact>
</mgrwt>
</event>
<event>
 4    1  0.5015492E-001  0.8851033E+02  0.7546771E-02  0.1306500E+00
         -2   -1    0    0    0  501 -0.00000000000E+00  0.00000000000E+00  0.55862794076E+02  0.55862794076E+02  0.00000000000E+00 0.  1.
          2   -1    0    0  501    0  0.00000000000E+00 -0.00000000000E+00 -0.15942090198E+04  0.15942090198E+04  0.00000000000E+00 0. -1.
         24    1    1    2    0    0 -0.35377707270E+02  0.10736850363E+02 -0.15570858423E+04  0.15595994352E+04  0.80419002446E+02 0. -1.
        -24    1    1    2    0    0  0.35377707270E+02 -0.10736850363E+02  0.18739616515E+02  0.90472378707E+02  0.80419002446E+02 0.  1.
<mgrwt>
<rscale>  0 0.88510328E+02</rscale>
<asrwt>0</asrwt>
<pdfrwt beam="1">  1        2 0.24526289E+00 0.88510328E+02</pdfrwt>
<pdfrwt beam="2">  1       -2 0.85942773E-02 0.88510328E+02</pdfrwt>
<totfact> 0.10487151E+03</totfact>
</mgrwt>
</event>
<event>
 4    1  0.5015492E-001  0.1353515E+03  0.7546771E-02  0.1219724E+00
          1   -1    0    0  501    0  0.00000000000E+00  0.00000000000E+00  0.11020138503E+04  0.11020138503E+04  0.00000000000E+00 0. -1.
         -1   -1    0    0    0  501 -0.00000000000E+00 -0.00000000000E+00 -0.17446394416E+02  0.17446394416E+02  0.00000000000E+00 0.  1.
         24    1    1    2    0    0  0.10296195057E+03  0.35378834589E+02  0.42076957155E+03  0.44200347680E+03  0.80419002446E+02 0.  1.
        -24    1    1    2    0    0 -0.10296195057E+03 -0.35378834589E+02  0.66379788431E+03  0.67745676790E+03  0.80419002446E+02 0. -1.
<mgrwt>
<rscale>  0 0.13535155E+03</rscale>
<asrwt>0</asrwt>
<pdfrwt beam="1">  1        1 0.16954054E+00 0.13535155E+03</pdfrwt>
<pdfrwt beam="2">  1       -1 0.26840615E-02 0.13535155E+03</pdfrwt>
<totfact> 0.58317397E+03</totfact>
</mgrwt>
</event>
<event>
 4    1  0.5015492E-001  0.1048041E+03  0.7546771E-02  0.1270506E+00
          2   -1    0    0  501    0  0.00000000000E+00  0.00000000000E+00  0.25341808200E+04  0.25341808200E+04  0.00000000000E+00 0. -1.
         -2   -1    0    0    0  501 -0.00000000000E+00 -0.00000000000E+00 -0.67596211342E+01  0.67596211342E+01  0.00000000000E+00 0.  1.
         24    1    1    2    0    0 -0.30074993474E+02  0.60101360244E+02  0.20247166730E+04  0.20274273108E+04  0.80419002446E+02 0. -1.
        -24    1    1    2    0    0  0.30074993474E+02 -0.60101360244E+02  0.50270452585E+03  0.51351313031E+03  0.80419002446E+02 0.  1.
<mgrwt>
<rscale>  0 0.10480408E+03</rscale>
<asrwt>0</asrwt>
<pdfrwt beam="1">  1        2 0.38987321E+00 0.10480408E+03</pdfrwt>
<pdfrwt beam="2">  1       -2 0.10399437E-02 0.10480408E+03</pdfrwt>
<totfact> 0.76597177E+03</totfact>
</mgrwt>
</event>
<event>
 4    1  0.5015492E-001  0.8757711E+02  0.7546771E-02  0.1308827E+00
          1   -1    0    0  501    0  0.00000000000E+00  0.00000000000E+00  0.11239889838E+03  0.11239889838E+03  0.00000000000E+00 0. -1.
         -1   -1    0    0    0  501 -0.00000000000E+00 -0.00000000000E+00 -0.85098302979E+02  0.85098302979E+02  0.00000000000E+00 0.  1.
         24    1    1    2    0    0 -0.12406392997E+02  0.32382333728E+02 -0.30305647065E+02  0.92672446408E+02  0.80419002446E+02 0.  1.
        -24    1    1    2    0    0  0.12406392997E+02 -0.32382333728E+02  0.57606242461E+02  0.10482475495E+03  0.80419002446E+02 0.  1.
<mgrwt>
<rscale>  0 0.87577109E+02</rscale>
<asrwt>0</asrwt>
<pdfrwt beam="1">  1        1 0.17292138E-01 0.87577109E+02</pdfrwt>
<pdfrwt beam="2">  1       -1 0.13092047E-01 0.87577109E+02</pdfrwt>
<totfact> 0.11103376E+04</totfact>
</mgrwt>
</event>
<event>
 4    1  0.5015492E-001  0.8057227E+02  0.7546771E-02  0.1327435E+00
          2   -1    0    0  501    0  0.00000000000E+00  0.00000000000E+00  0.17128036046E+03  0.17128036046E+03  0.00000000000E+00 0. -1.
         -2   -1    0    0    0  501 -0.00000000000E+00 -0.00000000000E+00 -0.10379340991E+03  0.10379340991E+03  0.00000000000E+00 0.  1.
         24    1    1    2    0    0 -0.44016984909E+01  0.23021367907E+01  0.14332775605E+03  0.16442243276E+03  0.80419002446E+02 0. -1.
        -24    1    1    2    0    0  0.44016984909E+01 -0.23021367907E+01 -0.75840805504E+02  0.11065133762E+03  0.80419002446E+02 0.  0.
<mgrwt>
<rscale>  0 0.80572270E+02</rscale>
<asrwt>0</asrwt>
<pdfrwt beam="1">  1        2 0.26350825E-01 0.80572270E+02</pdfrwt>
<pdfrwt beam="2">  1       -2 0.15968217E-01 0.80572270E+02</pdfrwt>
<totfact> 0.57279139E+03</totfact>
</mgrwt>
</event>
<event>
 4    1  0.5015492E-001  0.8685680E+02  0.7546771E-02  0.1310647E+00
         -2   -1    0    0    0  501 -0.00000000000E+00  0.00000000000E+00  0.89210628076E+01  0.89210628076E+01  0.00000000000E+00 0.  1.
          2   -1    0    0  501    0  0.00000000000E+00 -0.00000000000E+00 -0.11687604163E+04  0.11687604163E+04  0.00000000000E+00 0. -1.
         24    1    1    2    0    0  0.28916514935E+02  0.15515244269E+02 -0.88952617469E+03  0.89375663301E+03  0.80419002446E+02 0. -1.
        -24    1    1    2    0    0 -0.28916514935E+02 -0.15515244269E+02 -0.27031317877E+03  0.28392484607E+03  0.80419002446E+02 0.  1.
<mgrwt>
<rscale>  0 0.86856799E+02</rscale>
<asrwt>0</asrwt>
<pdfrwt beam="1">  1        2 0.17980904E+00 0.86856799E+02</pdfrwt>
<pdfrwt beam="2">  1       -2 0.13724731E-02 0.86856799E+02</pdfrwt>
<totfact> 0.25713591E+04</totfact>
</mgrwt>
</event>
<event>
 4    1  0.5015492E-001  0.1162816E+03  0.7546771E-02  0.1249360E+00
          2   -1    0    0  501    0  0.00000000000E+00  0.00000000000E+00  0.23344856730E+03  0.23344856730E+03  0.00000000000E+00 0. -1.
         -2   -1    0    0    0  501 -0.00000000000E+00 -0.00000000000E+00 -0.61313965828E+02  0.61313965828E+02  0.00000000000E+00 0.  1.
         24    1    1    2    0    0 -0.35418478337E+01  0.83914515400E+02  0.12074085457E+03  0.16762983176E+03  0.80419002446E+02 0. -1.
        -24    1    1    2    0    0  0.35418478337E+01 -0.83914515400E+02  0.51393746904E+02  0.12713270136E+03  0.80419002446E+02 0.  1.
<mgrwt>
<rscale>  0 0.11628158E+03</rscale>
<asrwt>0</asrwt>
<pdfrwt beam="1">  1        2 0.35915164E-01 0.11628158E+03</pdfrwt>
<pdfrwt beam="2">  1       -2 0.94329179E-02 0.11628158E+03</pdfrwt>
<totfact> 0.97708702E+03</totfact>
</mgrwt>
</event>
<event>
 4    1  0.5015492E-001  0.8136746E+02  0.7546771E-02  0.1325215E+00
         -1   -1    0    0    0  501 -0.00000000000E+00  0.00000000000E+00  0.10997108493E+02  0.10997108493E+02  0.00000000000E+00 0.  1.
          1   -1    0    0  501    0  0.00000000000E+00 -0.00000000000E+00 -0.60395329459E+03  0.60395329459E+03  0.00000000000E+00 0. -1.
         24    1    1    2    0    0 -0.15780073837E+01 -0.12286450925E+02 -0.27915708269E+03  0.29077369165E+03  0.80419002446E+02 0.  0.
        -24    1    1    2    0    0  0.15780073837E+01  0.12286450925E+02 -0.31379910341E+03  0.32417671144E+03  0.80419002446E+02 0. -1.
<mgrwt>
<rscale>  0 0.81367456E+02</rscale>
<asrwt>0</asrwt>
<pdfrwt beam="1">  1        1 0.92915894E-01 0.81367456E+02</pdfrwt>
<pdfrwt beam="2">  1       -1 0.16918628E-02 0.81367456E+02</pdfrwt>
<totfact> 0.27181595E+04</totfact>
</mgrwt>
</event>
<event>
 4    1  0.5015492E-001  0.8927635E+02  0.7546771E-02  0.1304614E+00
          2   -1    0    0  501    0  0.00000000000E+00  0.00000000000E+00  0.38766613961E+03  0.38766613961E+03  0.00000000000E+00 0. -1.
         -2   -1    0    0    0  501 -0.00000000000E+00 -0.00000000000E+00 -0.91971542455E+02  0.91971542455E+02  0.00000000000E+00 0.  1.
         24    1    1    2    0    0  0.16599239960E+02 -0.35035929367E+02  0.35916794890E+03  0.37009712588E+03  0.80419002446E+02 0. -1.
        -24    1    1    2    0    0 -0.16599239960E+02  0.35035929367E+02 -0.63473351742E+02  0.10954055619E+03  0.80419002446E+02 0.  1.
<mgrwt>
<rscale>  0 0.89276352E+02</rscale>
<asrwt>0</asrwt>
<pdfrwt beam="1">  1        2 0.59640944E-01 0.89276352E+02</pdfrwt>
<pdfrwt beam="2">  1       -2 0.14149468E-01 0.89276352E+02</pdfrwt>
<totfact> 0.29670688E+03</totfact>
</mgrwt>
</event>
<event>
 4    1  0.5015492E-001  0.1076561E+03  0.7546771E-02  0.1264973E+00
          1   -1    0    0  501    0  0.00000000000E+00  0.00000000000E+00  0.28267365027E+03  0.28267365027E+03  0.00000000000E+00 0. -1.
         -1   -1    0    0    0  501 -0.00000000000E+00 -0.00000000000E+00 -0.21851866399E+03  0.21851866399E+03  0.00000000000E+00 0.  1.
         24    1    1    2    0    0 -0.57662161614E+02 -0.42399155900E+02 -0.19378870509E+03  0.22168421567E+03  0.80419002446E+02 0.  1.
        -24    1    1    2    0    0  0.57662161614E+02  0.42399155900E+02  0.25794369137E+03  0.27950809859E+03  0.80419002446E+02 0. -1.
<mgrwt>
<rscale>  0 0.10765607E+03</rscale>
<asrwt>0</asrwt>
<pdfrwt beam="1">  1        1 0.43488254E-01 0.10765607E+03</pdfrwt>
<pdfrwt beam="2">  1       -1 0.33618256E-01 0.10765607E+03</pdfrwt>
<totfact> 0.78909552E+02</totfact>
</mgrwt>
</event>
<event>
 4    1  0.5015492E-001  0.1102246E+03  0.7546771E-02  0.1260155E+00
         -2   -1    0    0    0  501 -0.00000000000E+00  0.00000000000E+00  0.90696380738E+01  0.90696380738E+01  0.00000000000E+00 0.  1.
          2   -1    0    0  501    0  0.00000000000E+00 -0.00000000000E+00 -0.13431353168E+04  0.13431353168E+04  0.00000000000E+00 0. -1.
         24    1    1    2    0    0 -0.30908083307E+02  0.68752708840E+02 -0.70184220972E+03  0.71044489433E+03  0.80419002446E+02 0. -1.
        -24    1    1    2    0    0  0.30908083307E+02 -0.68752708840E+02 -0.63222346899E+03  0.64176006052E+03  0.80419002446E+02 0.  1.
<mgrwt>
<rscale>  0 0.11022459E+03</rscale>
<asrwt>0</asrwt>
<pdfrwt beam="1">  1        2 0.20663609E+00 0.11022459E+03</pdfrwt>
<pdfrwt beam="2">  1       -2 0.13953297E-02 0.11022459E+03</pdfrwt>
<totfact> 0.20630871E+04</totfact>
</mgrwt>
</event>
<event>
 4    1  0.5015492E-001  0.8081198E+02  0.7546771E-02  0.1326763E+00
         -2   -1    0    0    0  501 -0.00000000000E+00  0.00000000000E+00  0.29333412703E+02  0.29333412703E+02  0.00000000000E+00 0.  1.
          2   -1    0    0  501    0  0.00000000000E+00 -0.00000000000E+00 -0.24380750092E+03  0.24380750092E+03  0.00000000000E+00 0. -1.
         24    1    1    2    0    0 -0.79591624387E+01 -0.10953680664E+00 -0.14748493491E+03  0.16817366692E+03  0.80419002446E+02 0.  0.
        -24    1    1    2    0    0  0.79591624387E+01  0.10953680664E+00 -0.66989153300E+02  0.10496724670E+03  0.80419002446E+02 0.  1.
<mgrwt>
<rscale>  0 0.80811981E+02</rscale>
<asrwt>0</asrwt>
<pdfrwt beam="1">  1        2 0.37508845E-01 0.80811981E+02</pdfrwt>
<pdfrwt beam="2">  1       -2 0.45128329E-02 0.80811981E+02</pdfrwt>
<totfact> 0.27442399E+04</totfact>
</mgrwt>
</event>
<event>
 4    1  0.5015492E-001  0.8529747E+02  0.7546771E-02  0.1314656E+00
          1   -1    0    0  501    0  0.00000000000E+00  0.00000000000E+00  0.54357254280E+02  0.54357254280E+02  0.00000000000E+00 0. -1.
         -1   -1    0    0    0  501 -0.00000000000E+00 -0.00000000000E+00 -0.14438370315E+03  0.14438370315E+03  0.00000000000E+00 0.  1.
         24    1    1    2    0    0 -0.26924534065E+02  0.91385024987E+01 -0.71855015839E+02  0.11152937738E+03  0.80419002446E+02 0.  0.
        -24    1    1    2    0    0  0.26924534065E+02 -0.91385024987E+01 -0.18171433031E+02  0.87211580053E+02  0.80419002446E+02 0.  1.
<mgrwt>
<rscale>  0 0.85297472E+02</rscale>
<asrwt>0</asrwt>
<pdfrwt beam="1">  1        1 0.83626545E-02 0.85297472E+02</pdfrwt>
<pdfrwt beam="2">  1       -1 0.22212877E-01 0.85297472E+02</pdfrwt>
<totfact> 0.12388121E+04</totfact>
</mgrwt>
</event>
<event>
 4    1  0.5015492E-001  0.9513790E+02  0.7546771E-02  0.1290866E+00
          2   -1    0    0  501    0  0.00000000000E+00  0.00000000000E+00  0.12371956773E+04  0.12371956773E+04  0.00000000000E+00 0. -1.
         -2   -1    0    0    0  501 -0.00000000000E+00 -0.00000000000E+00 -0.89952820111E+01  0.89952820111E+01  0.00000000000E+00 0.  1.
         24    1    1    2    0    0  0.31558715122E+02  0.39850362062E+02  0.88332797866E+03  0.88843656931E+03  0.80419002446E+02 0. -1.
        -24    1    1    2    0    0 -0.31558715122E+02 -0.39850362062E+02  0.34487241664E+03  0.35775439001E+03  0.80419002446E+02 0.  1.
<mgrwt>
<rscale>  0 0.95137899E+02</rscale>
<asrwt>0</asrwt>
<pdfrwt beam="1">  1        2 0.19033766E+00 0.95137899E+02</pdfrwt>
<pdfrwt beam="2">  1       -2 0.13838905E-02 0.95137899E+02</pdfrwt>
<totfact> 0.23511118E+04</totfact>
</mgrwt>
</event>
<event>
 4    1  0.5015492E-001  0.8325415E+02  0.7546771E-02  0.1320062E+00
         -2   -1    0    0    0  501 -0.00000000000E+00  0.00000000000E+00  0.24963725636E+03  0.24963725636E+03  0.00000000000E+00 0.  1.
          2   -1    0    0  501    0  0.00000000000E+00 -0.00000000000E+00 -0.33527332627E+02  0.33527332627E+02  0.00000000000E+00 0. -1.
         24    1    1    2    0    0 -0.10712404687E+02  0.18689083293E+02  0.49360478022E+02  0.96786931935E+02  0.80419002446E+02 0. -1.
        -24    1    1    2    0    0  0.10712404687E+02 -0.18689083293E+02  0.16674944571E+03  0.18637765705E+03  0.80419002446E+02 0.  1.
<mgrwt>
<rscale>  0 0.83254149E+02</rscale>
<asrwt>0</asrwt>
<pdfrwt beam="1">  1        2 0.51580513E-02 0.83254149E+02</pdfrwt>
<pdfrwt beam="2">  1       -2 0.38405731E-01 0.83254149E+02</pdfrwt>
<totfact> 0.86964259E+03</totfact>
</mgrwt>
</event>
<event>
 4    1  0.5015492E-001  0.8978340E+02  0.7546771E-02  0.1303377E+00
          2   -1    0    0  501    0  0.00000000000E+00  0.00000000000E+00  0.17679872811E+03  0.17679872811E+03  0.00000000000E+00 0. -1.
         -2   -1    0    0    0  501 -0.00000000000E+00 -0.00000000000E+00 -0.68070192626E+02  0.68070192626E+02  0.00000000000E+00 0.  1.
         24    1    1    2    0    0  0.81302380986E+01 -0.39086336523E+02  0.12471704424E+03  0.15367302806E+03  0.80419002446E+02 0. -1.
        -24    1    1    2    0    0 -0.81302380986E+01  0.39086336523E+02 -0.15988508758E+02  0.91195892676E+02  0.80419002446E+02 0.  1.
<mgrwt>
<rscale>  0 0.89783397E+02</rscale>
<asrwt>0</asrwt>
<pdfrwt beam="1">  1        2 0.27199804E-01 0.89783397E+02</pdfrwt>
<pdfrwt beam="2">  1       -2 0.10472337E-01 0.89783397E+02</pdfrwt>
<totfact> 0.10930537E+04</totfact>
</mgrwt>
</event>
<event>
 4    1  0.5015492E-001  0.8763690E+02  0.7546771E-02  0.1308677E+00
         -2   -1    0    0    0  501 -0.00000000000E+00  0.00000000000E+00  0.74001706979E+03  0.74001706979E+03  0.00000000000E+00 0.  1.
          2   -1    0    0  501    0  0.00000000000E+00 -0.00000000000E+00 -0.35290280391E+02  0.35290280391E+02  0.00000000000E+00 0. -1.
         24    1    1    2    0    0 -0.17424045226E+02 -0.30156466857E+02  0.26662297463E+02  0.91602968870E+02  0.80419002446E+02 0. -1.
        -24    1    1    2    0    0  0.17424045226E+02  0.30156466857E+02  0.67806449194E+03  0.68370438131E+03  0.80419002446E+02 0.  0.
<mgrwt>
<rscale>  0 0.87636897E+02</rscale>
<asrwt>0</asrwt>
<pdfrwt beam="1">  1        2 0.54292745E-02 0.87636897E+02</pdfrwt>
<pdfrwt beam="2">  1       -2 0.11384877E+00 0.87636897E+02</pdfrwt>
<totfact> 0.84589537E+02</totfact>
</mgrwt>
</event>
<event>
 4    1  0.5015492E-001  0.8154378E+02  0.7546771E-02  0.1324727E+00
         -1   -1    0    0    0  501 -0.00000000000E+00  0.00000000000E+00  0.24601916445E+02  0.24601916445E+02  0.00000000000E+00 0.  1.
          1   -1    0    0  501    0  0.00000000000E+00 -0.00000000000E+00 -0.67097465867E+03  0.67097465867E+03  0.00000000000E+00 0. -1.
         24    1    1    2    0    0  0.10084961370E+02  0.89702657757E+01 -0.54423628472E+02  0.98037336788E+02  0.80419002446E+02 0.  1.
        -24    1    1    2    0    0 -0.10084961370E+02 -0.89702657757E+01 -0.59194911375E+03  0.59753923833E+03  0.80419002446E+02 0.  0.
<mgrwt>
<rscale>  0 0.81543780E+02</rscale>
<asrwt>0</asrwt>
<pdfrwt beam="1">  1        1 0.10322687E+00 0.81543780E+02</pdfrwt>
<pdfrwt beam="2">  1       -1 0.37849103E-02 0.81543780E+02</pdfrwt>
<totfact> 0.74500661E+03</totfact>
</mgrwt>
</event>
<event>
 4    1  0.5015492E-001  0.8958606E+02  0.7546771E-02  0.1303857E+00
         -2   -1    0    0    0  501 -0.00000000000E+00  0.00000000000E+00  0.33918693010E+02  0.33918693010E+02  0.00000000000E+00 0.  1.
          2   -1    0    0  501    0  0.00000000000E+00 -0.00000000000E+00 -0.31336765520E+03  0.31336765520E+03  0.00000000000E+00 0. -1.
         24    1    1    2    0    0  0.33650702757E+02  0.20641597060E+02 -0.22566108610E+03  0.24279330110E+03  0.80419002446E+02 0. -1.
        -24    1    1    2    0    0 -0.33650702757E+02 -0.20641597060E+02 -0.53787876087E+02  0.10449304711E+03  0.80419002446E+02 0.  1.
<mgrwt>
<rscale>  0 0.89586055E+02</rscale>
<asrwt>0</asrwt>
<pdfrwt beam="1">  1        2 0.48210406E-01 0.89586055E+02</pdfrwt>
<pdfrwt beam="2">  1       -2 0.52182607E-02 0.89586055E+02</pdfrwt>
<totfact> 0.17224317E+04</totfact>
</mgrwt>
</event>
<event>
 4    1  0.5015492E-001  0.1222617E+03  0.7546771E-02  0.1239412E+00
         -2   -1    0    0    0  501 -0.00000000000E+00  0.00000000000E+00  0.19133030470E+02  0.19133030470E+02  0.00000000000E+00 0.  1.
          2   -1    0    0  501    0  0.00000000000E+00 -0.00000000000E+00 -0.85757253602E+03  0.85757253602E+03  0.00000000000E+00 0. -1.
         24    1    1    2    0    0  0.91365269165E+02 -0.11536848440E+02 -0.54998067442E+03  0.56340630940E+03  0.80419002446E+02 0.  1.
        -24    1    1    2    0    0 -0.91365269165E+02  0.11536848440E+02 -0.28845883113E+03  0.31329925709E+03  0.80419002446E+02 0. -1.
<mgrwt>
<rscale>  0 0.12226172E+03</rscale>
<asrwt>0</asrwt>
<pdfrwt beam="1">  1        2 0.13193429E+00 0.12226172E+03</pdfrwt>
<pdfrwt beam="2">  1       -2 0.29435420E-02 0.12226172E+03</pdfrwt>
<totfact> 0.13407877E+04</totfact>
</mgrwt>
</event>
<event>
 4    1  0.5015492E-001  0.8689231E+02  0.7546771E-02  0.1310557E+00
          2   -1    0    0  501    0  0.00000000000E+00  0.00000000000E+00  0.78865162606E+02  0.78865162606E+02  0.00000000000E+00 0. -1.
         -2   -1    0    0    0  501 -0.00000000000E+00 -0.00000000000E+00 -0.15736920951E+03  0.15736920951E+03  0.00000000000E+00 0.  1.
         24    1    1    2    0    0 -0.22598262473E+02 -0.23924366253E+02  0.34667460527E+02  0.93552688583E+02  0.80419002446E+02 0. -1.
        -24    1    1    2    0    0  0.22598262473E+02  0.23924366253E+02 -0.11317150743E+03  0.14268168354E+03  0.80419002446E+02 0.  0.
<mgrwt>
<rscale>  0 0.86892305E+02</rscale>
<asrwt>0</asrwt>
<pdfrwt beam="1">  1        2 0.12133102E-01 0.86892305E+02</pdfrwt>
<pdfrwt beam="2">  1       -2 0.24210648E-01 0.86892305E+02</pdfrwt>
<totfact> 0.69103331E+03</totfact>
</mgrwt>
</event>
<event>
 4    1  0.5015492E-001  0.1076839E+03  0.7546771E-02  0.1264920E+00
         -2   -1    0    0    0  501 -0.00000000000E+00  0.00000000000E+00  0.18173455594E+02  0.18173455594E+02  0.00000000000E+00 0.  1.
          2   -1    0    0  501    0  0.00000000000E+00 -0.00000000000E+00 -0.83646569186E+03  0.83646569186E+03  0.00000000000E+00 0. -1.
         24    1    1    2    0    0  0.65434271533E+02 -0.29102435169E+02 -0.61726063774E+03  0.62658319997E+03  0.80419002446E+02 0.  1.
        -24    1    1    2    0    0 -0.65434271533E+02  0.29102435169E+02 -0.20103159853E+03  0.22805594749E+03  0.80419002446E+02 0.  0.
<mgrwt>
<rscale>  0 0.10768385E+03</rscale>
<asrwt>0</asrwt>
<pdfrwt beam="1">  1        2 0.12868700E+00 0.10768385E+03</pdfrwt>
<pdfrwt beam="2">  1       -2 0.27959169E-02 0.10768385E+03</pdfrwt>
<totfact> 0.14780611E+04</totfact>
</mgrwt>
</event>
<event>
 4    1  0.5015492E-001  0.8522636E+02  0.7546771E-02  0.1314842E+00
          1   -1    0    0  501    0  0.00000000000E+00  0.00000000000E+00  0.63727547210E+03  0.63727547210E+03  0.00000000000E+00 0. -1.
         -1   -1    0    0    0  501 -0.00000000000E+00 -0.00000000000E+00 -0.11401347526E+02  0.11401347526E+02  0.00000000000E+00 0.  1.
         24    1    1    2    0    0 -0.17821075652E+02  0.21879718044E+02  0.31867037202E+03  0.32987017864E+03  0.80419002446E+02 0.  1.
        -24    1    1    2    0    0  0.17821075652E+02 -0.21879718044E+02  0.30720375256E+03  0.31880664099E+03  0.80419002446E+02 0. -1.
<mgrwt>
<rscale>  0 0.85226349E+02</rscale>
<asrwt>0</asrwt>
<pdfrwt beam="1">  1        1 0.98042353E-01 0.85226360E+02</pdfrwt>
<pdfrwt beam="2">  1       -1 0.17540540E-02 0.85226360E+02</pdfrwt>
<totfact> 0.24141585E+04</totfact>
</mgrwt>
</event>
<event>
 4    1  0.5015492E-001  0.1109408E+03  0.7546771E-02  0.1258838E+00
          3   -1    0    0  501    0  0.00000000000E+00  0.00000000000E+00  0.56442148441E+03  0.56442148441E+03  0.00000000000E+00 0. -1.
         -3   -1    0    0    0  501 -0.00000000000E+00 -0.00000000000E+00 -0.22333145903E+02  0.22333145903E+02  0.00000000000E+00 0.  1.
         24    1    1    2    0    0  0.61294199906E+02  0.45647190953E+02  0.22597763240E+03  0.25174143736E+03  0.80419002446E+02 0.  1.
        -24    1    1    2    0    0 -0.61294199906E+02 -0.45647190953E+02  0.31611070611E+03  0.33501319296E+03  0.80419002446E+02 0. -1.
<mgrwt>
<rscale>  0 0.11094080E+03</rscale>
<asrwt>0</asrwt>
<pdfrwt beam="1">  1        3 0.86834064E-01 0.11094080E+03</pdfrwt>
<pdfrwt beam="2">  1       -3 0.34358690E-02 0.11094080E+03</pdfrwt>
<totfact> 0.11447863E+03</totfact>
</mgrwt>
</event>
<event>
 4    1  0.5015492E-001  0.8278574E+02  0.7546771E-02  0.1321327E+00
         -2   -1    0    0    0  501 -0.00000000000E+00  0.00000000000E+00  0.15390481974E+03  0.15390481974E+03  0.00000000000E+00 0.  1.
          2   -1    0    0  501    0  0.00000000000E+00 -0.00000000000E+00 -0.93233590989E+02  0.93233590989E+02  0.00000000000E+00 0. -1.
         24    1    1    2    0    0  0.18646996747E+02  0.62090831739E+01 -0.58974719770E+02  0.10164397045E+03  0.80419002446E+02 0. -1.
        -24    1    1    2    0    0 -0.18646996747E+02 -0.62090831739E+01  0.11964594852E+03  0.14549444028E+03  0.80419002446E+02 0.  1.
<mgrwt>
<rscale>  0 0.82785742E+02</rscale>
<asrwt>0</asrwt>
<pdfrwt beam="1">  1        2 0.14343629E-01 0.82785742E+02</pdfrwt>
<pdfrwt beam="2">  1       -2 0.23677665E-01 0.82785742E+02</pdfrwt>
<totfact> 0.58761053E+03</totfact>
</mgrwt>
</event>
<event>
 4    1  0.5015492E-001  0.8147885E+02  0.7546771E-02  0.1324906E+00
         -2   -1    0    0    0  501 -0.00000000000E+00  0.00000000000E+00  0.13385832467E+02  0.13385832467E+02  0.00000000000E+00 0.  1.
          2   -1    0    0  501    0  0.00000000000E+00 -0.00000000000E+00 -0.84652843291E+03  0.84652843291E+03  0.00000000000E+00 0. -1.
         24    1    1    2    0    0 -0.92330117609E+01 -0.92918943038E+01 -0.69326058880E+03  0.69803226841E+03  0.80419002446E+02 0.  1.
        -24    1    1    2    0    0  0.92330117609E+01  0.92918943038E+01 -0.13988201164E+03  0.16188199697E+03  0.80419002446E+02 0.  1.
<mgrwt>
<rscale>  0 0.81478855E+02</rscale>
<asrwt>0</asrwt>
<pdfrwt beam="1">  1        2 0.13023517E+00 0.81478855E+02</pdfrwt>
<pdfrwt beam="2">  1       -2 0.20593584E-02 0.81478855E+02</pdfrwt>
<totfact> 0.22115653E+04</totfact>
</mgrwt>
</event>
<event>
 4    1  0.5015492E-001  0.8419896E+02  0.7546771E-02  0.1317541E+00
         -2   -1    0    0    0  501 -0.00000000000E+00  0.00000000000E+00  0.82119868445E+02  0.82119868445E+02  0.00000000000E+00 0.  1.
          2   -1    0    0  501    0  0.00000000000E+00 -0.00000000000E+00 -0.93445818114E+02  0.93445818114E+02  0.00000000000E+00 0. -1.
         24    1    1    2    0    0  0.20234300693E+02  0.14588399555E+02 -0.29885605242E+02  0.89345473759E+02  0.80419002446E+02 0. -1.
        -24    1    1    2    0    0 -0.20234300693E+02 -0.14588399555E+02  0.18559655573E+02  0.86220212801E+02  0.80419002446E+02 0.  1.
<mgrwt>
<rscale>  0 0.84198957E+02</rscale>
<asrwt>0</asrwt>
<pdfrwt beam="1">  1        2 0.14376280E-01 0.84198957E+02</pdfrwt>
<pdfrwt beam="2">  1       -2 0.12633826E-01 0.84198957E+02</pdfrwt>
<totfact> 0.16486465E+04</totfact>
</mgrwt>
</event>
<event>
 4    1  0.5015492E-001  0.8193437E+02  0.7546771E-02  0.1323650E+00
          2   -1    0    0  501    0  0.00000000000E+00  0.00000000000E+00  0.15105477675E+03  0.15105477675E+03  0.00000000000E+00 0. -1.
         -2   -1    0    0    0  501 -0.00000000000E+00 -0.00000000000E+00 -0.44466542965E+02  0.44466542965E+02  0.00000000000E+00 0.  1.
         24    1    1    2    0    0  0.51684158067E+01 -0.14809206728E+02  0.55570725418E+02  0.99001750508E+02  0.80419002446E+02 0.  0.
        -24    1    1    2    0    0 -0.51684158067E+01  0.14809206728E+02  0.51017508370E+02  0.96519569210E+02  0.80419002446E+02 0.  1.
<mgrwt>
<rscale>  0 0.81934371E+02</rscale>
<asrwt>0</asrwt>
<pdfrwt beam="1">  1        2 0.23239196E-01 0.81934371E+02</pdfrwt>
<pdfrwt beam="2">  1       -2 0.68410067E-02 0.81934371E+02</pdfrwt>
<totfact> 0.24668025E+04</totfact>
</mgrwt>
</event>
<event>
 4    1  0.5015492E-001  0.8264088E+02  0.7546771E-02  0.1321720E+00
          1   -1    0    0  501    0  0.00000000000E+00  0.00000000000E+00  0.16859621698E+04  0.16859621698E+04  0.00000000000E+00 0. -1.
         -1   -1    0    0    0  501 -0.00000000000E+00 -0.00000000000E+00 -0.38557816321E+03  0.38557816321E+03  0.00000000000E+00 0.  1.
         24    1    1    2    0    0  0.18263049750E+02  0.53627876068E+01 -0.38012299498E+03  0.38900257807E+03  0.80419002446E+02 0.  1.
        -24    1    1    2    0    0 -0.18263049750E+02 -0.53627876068E+01  0.16805070016E+04  0.16825377549E+04  0.80419002446E+02 0. -1.
<mgrwt>
<rscale>  0 0.82640876E+02</rscale>
<asrwt>0</asrwt>
<pdfrwt beam="1">  1        1 0.25937879E+00 0.82640876E+02</pdfrwt>
<pdfrwt beam="2">  1       -1 0.59319718E-01 0.82640876E+02</pdfrwt>
<totfact> 0.18757741E+01</totfact>
</mgrwt>
</event>
<event>
 4    1  0.5015492E-001  0.8417709E+02  0.7546771E-02  0.1317599E+00
          2   -1    0    0  501    0  0.00000000000E+00  0.00000000000E+00  0.14824264172E+04  0.14824264172E+04  0.00000000000E+00 0. -1.
         -2   -1    0    0    0  501 -0.00000000000E+00 -0.00000000000E+00 -0.23361419512E+02  0.23361419512E+02  0.00000000000E+00 0.  1.
         24    1    1    2    0    0  0.84270965863E+00  0.24856729304E+02  0.14010004910E+04  0.14035270424E+04  0.80419002446E+02 0. -1.
        -24    1    1    2    0    0 -0.84270965863E+00 -0.24856729304E+02  0.58064506680E+02  0.10226079425E+03  0.80419002446E+02 0.  1.
<mgrwt>
<rscale>  0 0.84177094E+02</rscale>
<asrwt>0</asrwt>
<pdfrwt beam="1">  1        2 0.22806553E+00 0.84177094E+02</pdfrwt>
<pdfrwt beam="2">  1       -2 0.35940657E-02 0.84177094E+02</pdfrwt>
<totfact> 0.43931635E+03</totfact>
</mgrwt>
</event>
<event>
 4    1  0.5015492E-001  0.1049316E+03  0.7546771E-02  0.1270254E+00
         -2   -1    0    0    0  501 -0.00000000000E+00  0.00000000000E+00  0.91600474484E+02  0.91600474484E+02  0.00000000000E+00 0.  1.
          2   -1    0    0  501    0  0.00000000000E+00 -0.00000000000E+00 -0.12969265738E+03  0.12969265738E+03  0.00000000000E+00 0. -1.
         24    1    1    2    0    0 -0.55035108337E+01 -0.67179950133E+02 -0.48976035034E+02  0.11579854184E+03  0.80419002446E+02 0. -1.
        -24    1    1    2    0    0  0.55035108337E+01  0.67179950133E+02  0.10883852139E+02  0.10549459002E+03  0.80419002446E+02 0.  1.
<mgrwt>
<rscale>  0 0.10493165E+03</rscale>
<asrwt>0</asrwt>
<pdfrwt beam="1">  1        2 0.19952717E-01 0.10493165E+03</pdfrwt>
<pdfrwt beam="2">  1       -2 0.14092381E-01 0.10493165E+03</pdfrwt>
<totfact> 0.97343100E+03</totfact>
</mgrwt>
</event>
<event>
 4    1  0.5015492E-001  0.8826936E+02  0.7546771E-02  0.1307098E+00
          2   -1    0    0  501    0  0.00000000000E+00  0.00000000000E+00  0.85245378072E+03  0.85245378072E+03  0.00000000000E+00 0. -1.
         -2   -1    0    0    0  501 -0.00000000000E+00 -0.00000000000E+00 -0.92509918157E+01  0.92509918157E+01  0.00000000000E+00 0.  1.
         24    1    1    2    0    0 -0.92325122124E+01  0.35199789142E+02  0.46878145967E+03  0.47701943076E+03  0.80419002446E+02 0. -1.
        -24    1    1    2    0    0  0.92325122124E+01 -0.35199789142E+02  0.37442132923E+03  0.38468534177E+03  0.80419002446E+02 0.  1.
<mgrwt>
<rscale>  0 0.88269363E+02</rscale>
<asrwt>0</asrwt>
<pdfrwt beam="1">  1        2 0.13114667E+00 0.88269363E+02</pdfrwt>
<pdfrwt beam="2">  1       -2 0.14232302E-02 0.88269363E+02</pdfrwt>
<totfact> 0.37464748E+04</totfact>
</mgrwt>
</event>
<event>
 4    1  0.5015492E-001  0.1074065E+03  0.7546771E-02  0.1265449E+00
          3   -1    0    0  501    0  0.00000000000E+00  0.00000000000E+00  0.44861171820E+03  0.44861171820E+03  0.00000000000E+00 0. -1.
         -3   -1    0    0    0  501 -0.00000000000E+00 -0.00000000000E+00 -0.40261978888E+02  0.40261978888E+02  0.00000000000E+00 0.  1.
         24    1    1    2    0    0  0.71105710809E+02  0.35949714293E+01  0.57247802401E+02  0.12171061073E+03  0.80419002446E+02 0.  1.
        -24    1    1    2    0    0 -0.71105710809E+02 -0.35949714293E+01  0.35110193692E+03  0.36716308637E+03  0.80419002446E+02 0. -1.
<mgrwt>
<rscale>  0 0.10740653E+03</rscale>
<asrwt>0</asrwt>
<pdfrwt beam="1">  1        3 0.69017184E-01 0.10740653E+03</pdfrwt>
<pdfrwt beam="2">  1       -3 0.61941509E-02 0.10740653E+03</pdfrwt>
<totfact> 0.73924469E+02</totfact>
</mgrwt>
</event>
<event>
 4    1  0.5015492E-001  0.8181484E+02  0.7546771E-02  0.1323979E+00
          2   -1    0    0  501    0  0.00000000000E+00  0.00000000000E+00  0.23554829794E+02  0.23554829794E+02  0.00000000000E+00 0. -1.
         -2   -1    0    0    0  501 -0.00000000000E+00 -0.00000000000E+00 -0.38574619887E+03  0.38574619887E+03  0.00000000000E+00 0.  1.
         24    1    1    2    0    0  0.13252889077E+02  0.71282691394E+01 -0.76081078259E+02  0.11172286119E+03  0.80419002446E+02 0. -1.
        -24    1    1    2    0    0 -0.13252889077E+02 -0.71282691394E+01 -0.28611029082E+03  0.29757816747E+03  0.80419002446E+02 0.  1.
<mgrwt>
<rscale>  0 0.81814835E+02</rscale>
<asrwt>0</asrwt>
<pdfrwt beam="1">  1        2 0.36238202E-02 0.81814835E+02</pdfrwt>
<pdfrwt beam="2">  1       -2 0.59345565E-01 0.81814835E+02</pdfrwt>
<totfact> 0.58979139E+03</totfact>
</mgrwt>
</event>
<event>
 4    1  0.5015492E-001  0.8377520E+02  0.7546771E-02  0.1318667E+00
         -1   -1    0    0    0  501 -0.00000000000E+00  0.00000000000E+00  0.39596867375E+01  0.39596867375E+01  0.00000000000E+00 0.  1.
          1   -1    0    0  501    0  0.00000000000E+00 -0.00000000000E+00 -0.17835903523E+04  0.17835903523E+04  0.00000000000E+00 0. -1.
         24    1    1    2    0    0  0.63959467452E+01  0.22586738742E+02 -0.81912913517E+03  0.82340198260E+03  0.80419002446E+02 0. -1.
        -24    1    1    2    0    0 -0.63959467452E+01 -0.22586738742E+02 -0.96050153034E+03  0.96414805639E+03  0.80419002446E+02 0.  1.
<mgrwt>
<rscale>  0 0.83775204E+02</rscale>
<asrwt>0</asrwt>
<pdfrwt beam="1">  1        1 0.27439848E+00 0.83775204E+02</pdfrwt>
<pdfrwt beam="2">  1       -1 0.60918266E-03 0.83775204E+02</pdfrwt>
<totfact> 0.16830023E+04</totfact>
</mgrwt>
</event>
<event>
 4    1  0.5015492E-001  0.9297066E+02  0.7546771E-02  0.1295813E+00
          2   -1    0    0  501    0  0.00000000000E+00  0.00000000000E+00  0.72094595069E+02  0.72094595069E+02  0.00000000000E+00 0. -1.
         -2   -1    0    0    0  501 -0.00000000000E+00 -0.00000000000E+00 -0.12745107367E+03  0.12745107367E+03  0.00000000000E+00 0.  1.
         24    1    1    2    0    0  0.40646155052E+02 -0.22895706341E+02 -0.51977059586E+02  0.10651363277E+03  0.80419002446E+02 0.  0.
        -24    1    1    2    0    0 -0.40646155052E+02  0.22895706341E+02 -0.33794190197E+01  0.93032035969E+02  0.80419002446E+02 0.  0.
<mgrwt>
<rscale>  0 0.92970648E+02</rscale>
<asrwt>0</asrwt>
<pdfrwt beam="1">  1        2 0.11091476E-01 0.92970660E+02</pdfrwt>
<pdfrwt beam="2">  1       -2 0.19607858E-01 0.92970660E+02</pdfrwt>
<totfact> 0.11066606E+04</totfact>
</mgrwt>
</event>
<event>
 4    1  0.5015492E-001  0.8058412E+02  0.7546771E-02  0.1327402E+00
         -2   -1    0    0    0  501 -0.00000000000E+00  0.00000000000E+00  0.43121038587E+01  0.43121038587E+01  0.00000000000E+00 0.  1.
          2   -1    0    0  501    0  0.00000000000E+00 -0.00000000000E+00 -0.16586136833E+04  0.16586136833E+04  0.00000000000E+00 0. -1.
         24    1    1    2    0    0 -0.17207745029E+01  0.48603228657E+01 -0.10794073228E+04  0.10824111826E+04  0.80419002446E+02 0. -1.
        -24    1    1    2    0    0  0.17207745029E+01 -0.48603228657E+01 -0.57489425665E+03  0.58051460454E+03  0.80419002446E+02 0.  0.
<mgrwt>
<rscale>  0 0.80584116E+02</rscale>
<asrwt>0</asrwt>
<pdfrwt beam="1">  1        2 0.25517141E+00 0.80584116E+02</pdfrwt>
<pdfrwt beam="2">  1       -2 0.66340041E-03 0.80584116E+02</pdfrwt>
<totfact> 0.39726030E+04</totfact>
</mgrwt>
</event>
<event>
 4    1  0.5015492E-001  0.9508750E+02  0.7546771E-02  0.1290979E+00
         -2   -1    0    0    0  501 -0.00000000000E+00  0.00000000000E+00  0.15954113041E+03  0.15954113041E+03  0.00000000000E+00 0.  1.
          2   -1    0    0  501    0  0.00000000000E+00 -0.00000000000E+00 -0.10507746823E+03  0.10507746823E+03  0.00000000000E+00 0. -1.
         24    1    1    2    0    0 -0.48847506272E+02  0.13723594271E+02 -0.62568821867E+02  0.11382657569E+03  0.80419002446E+02 0. -1.
        -24    1    1    2    0    0  0.48847506272E+02 -0.13723594271E+02  0.11703248405E+03  0.15079202295E+03  0.80419002446E+02 0.  1.
<mgrwt>
<rscale>  0 0.95087496E+02</rscale>
<asrwt>0</asrwt>
<pdfrwt beam="1">  1        2 0.16165764E-01 0.95087496E+02</pdfrwt>
<pdfrwt beam="2">  1       -2 0.24544789E-01 0.95087496E+02</pdfrwt>
<totfact> 0.48655898E+03</totfact>
</mgrwt>
</event>
<event>
 4    1  0.5015492E-001  0.1011608E+03  0.7546771E-02  0.1277874E+00
          2   -1    0    0  501    0  0.00000000000E+00  0.00000000000E+00  0.36750151986E+03  0.36750151986E+03  0.00000000000E+00 0. -1.
         -2   -1    0    0    0  501 -0.00000000000E+00 -0.00000000000E+00 -0.62841161140E+02  0.62841161140E+02  0.00000000000E+00 0.  1.
         24    1    1    2    0    0 -0.31664237564E+02  0.52570527827E+02  0.31290055724E+03  0.32884686255E+03  0.80419002446E+02 0. -1.
        -24    1    1    2    0    0  0.31664237564E+02 -0.52570527827E+02 -0.82401985179E+01  0.10149581845E+03  0.80419002446E+02 0.  1.
<mgrwt>
<rscale>  0 0.10116076E+03</rscale>
<asrwt>0</asrwt>
<pdfrwt beam="1">  1        2 0.56538694E-01 0.10116076E+03</pdfrwt>
<pdfrwt beam="2">  1       -2 0.96678712E-02 0.10116076E+03</pdfrwt>
<totfact> 0.57695165E+03</totfact>
</mgrwt>
</event>
<event>
 4    1  0.5015492E-001  0.8624190E+02  0.7546771E-02  0.1312216E+00
         -2   -1    0    0    0  501 -0.00000000000E+00  0.00000000000E+00  0.14344795796E+02  0.14344795796E+02  0.00000000000E+00 0.  1.
          2   -1    0    0  501    0  0.00000000000E+00 -0.00000000000E+00 -0.52628625289E+03  0.52628625289E+03  0.00000000000E+00 0. -1.
         24    1    1    2    0    0  0.17392449403E+02  0.25844773593E+02 -0.28886649534E+03  0.30146561612E+03  0.80419002446E+02 0. -1.
        -24    1    1    2    0    0 -0.17392449403E+02 -0.25844773593E+02 -0.22307496175E+03  0.23916543256E+03  0.80419002446E+02 0.  1.
<mgrwt>
<rscale>  0 0.86241901E+02</rscale>
<asrwt>0</asrwt>
<pdfrwt beam="1">  1        2 0.80967119E-01 0.86241901E+02</pdfrwt>
<pdfrwt beam="2">  1       -2 0.22068916E-02 0.86241901E+02</pdfrwt>
<totfact> 0.34837802E+04</totfact>
</mgrwt>
</event>
<event>
 4    1  0.5015492E-001  0.8890501E+02  0.7546771E-02  0.1305525E+00
          2   -1    0    0  501    0  0.00000000000E+00  0.00000000000E+00  0.46479297287E+03  0.46479297287E+03  0.00000000000E+00 0. -1.
         -2   -1    0    0    0  501 -0.00000000000E+00 -0.00000000000E+00 -0.31979223060E+02  0.31979223060E+02  0.00000000000E+00 0.  1.
         24    1    1    2    0    0  0.37845811105E+02  0.21398565883E+01  0.38637060320E+03  0.39646732952E+03  0.80419002446E+02 0. -1.
        -24    1    1    2    0    0 -0.37845811105E+02 -0.21398565883E+01  0.46443146609E+02  0.10030486641E+03  0.80419002446E+02 0.  1.
<mgrwt>
<rscale>  0 0.88905008E+02</rscale>
<asrwt>0</asrwt>
<pdfrwt beam="1">  1        2 0.71506606E-01 0.88905008E+02</pdfrwt>
<pdfrwt beam="2">  1       -2 0.49198808E-02 0.88905008E+02</pdfrwt>
<totfact> 0.12408966E+04</totfact>
</mgrwt>
</event>
<event>
 4    1  0.5015492E-001  0.8920680E+02  0.7546771E-02  0.1304784E+00
         -1   -1    0    0    0  501 -0.00000000000E+00  0.00000000000E+00  0.15646082410E+02  0.15646082410E+02  0.00000000000E+00 0.  1.
          1   -1    0    0  501    0  0.00000000000E+00 -0.00000000000E+00 -0.75755892443E+03  0.75755892443E+03  0.00000000000E+00 0. -1.
         24    1    1    2    0    0  0.61931440018E+01 -0.38108811605E+02 -0.14933788256E+03  0.17395302722E+03  0.80419002446E+02 0.  1.
        -24    1    1    2    0    0 -0.61931440018E+01  0.38108811605E+02 -0.59257495946E+03  0.59925197963E+03  0.80419002446E+02 0. -1.
<mgrwt>
<rscale>  0 0.89206796E+02</rscale>
<asrwt>0</asrwt>
<pdfrwt beam="1">  1        1 0.11654756E+00 0.89206796E+02</pdfrwt>
<pdfrwt beam="2">  1       -1 0.24070889E-02 0.89206796E+02</pdfrwt>
<totfact> 0.12116384E+04</totfact>
</mgrwt>
</event>
<event>
 4    1  0.5015492E-001  0.8872262E+02  0.7546771E-02  0.1305975E+00
          1   -1    0    0  501    0  0.00000000000E+00  0.00000000000E+00  0.21840274192E+03  0.21840274192E+03  0.00000000000E+00 0. -1.
         -1   -1    0    0    0  501 -0.00000000000E+00 -0.00000000000E+00 -0.36096012743E+02  0.36096012743E+02  0.00000000000E+00 0.  1.
         24    1    1    2    0    0 -0.29618650006E+02 -0.22961268650E+02  0.96069759571E+02  0.13077117016E+03  0.80419002446E+02 0. -1.
        -24    1    1    2    0    0  0.29618650006E+02  0.22961268650E+02  0.86236969608E+02  0.12372758451E+03  0.80419002446E+02 0.  1.
<mgrwt>
<rscale>  0 0.88722614E+02</rscale>
<asrwt>0</asrwt>
<pdfrwt beam="1">  1        1 0.33600421E-01 0.88722625E+02</pdfrwt>
<pdfrwt beam="2">  1       -1 0.55532328E-02 0.88722625E+02</pdfrwt>
<totfact> 0.17601949E+04</totfact>
</mgrwt>
</event>
<event>
 4    1  0.5015492E-001  0.8125164E+02  0.7546771E-02  0.1325537E+00
         -3   -1    0    0    0  501 -0.00000000000E+00  0.00000000000E+00  0.11844939283E+03  0.11844939283E+03  0.00000000000E+00 0.  1.
          3   -1    0    0  501    0  0.00000000000E+00 -0.00000000000E+00 -0.58628152813E+02  0.58628152813E+02  0.00000000000E+00 0. -1.
         24    1    1    2    0    0 -0.11442133194E+02 -0.19203006472E+01  0.10243760259E+02  0.81894813909E+02  0.80419002446E+02 0. -1.
        -24    1    1    2    0    0  0.11442133194E+02  0.19203006472E+01  0.49577479757E+02  0.95182731733E+02  0.80419002446E+02 0.  1.
<mgrwt>
<rscale>  0 0.81251631E+02</rscale>
<asrwt>0</asrwt>
<pdfrwt beam="1">  1        3 0.90197158E-02 0.81251641E+02</pdfrwt>
<pdfrwt beam="2">  1       -3 0.18222984E-01 0.81251641E+02</pdfrwt>
<totfact> 0.47205923E+03</totfact>
</mgrwt>
</event>
<event>
 4    1  0.5015492E-001  0.8444517E+02  0.7546771E-02  0.1316890E+00
         -2   -1    0    0    0  501 -0.00000000000E+00  0.00000000000E+00  0.13718925711E+03  0.13718925711E+03  0.00000000000E+00 0.  1.
          2   -1    0    0  501    0  0.00000000000E+00 -0.00000000000E+00 -0.82417918810E+02  0.82417918810E+02  0.00000000000E+00 0. -1.
         24    1    1    2    0    0  0.14679598578E+02 -0.21172636903E+02 -0.39343993746E+02  0.93160812395E+02  0.80419002446E+02 0. -1.
        -24    1    1    2    0    0 -0.14679598578E+02  0.21172636903E+02  0.94115332043E+02  0.12644636352E+03  0.80419002446E+02 0.  1.
<mgrwt>
<rscale>  0 0.84445172E+02</rscale>
<asrwt>0</asrwt>
<pdfrwt beam="1">  1        2 0.12679680E-01 0.84445172E+02</pdfrwt>
<pdfrwt beam="2">  1       -2 0.21106040E-01 0.84445172E+02</pdfrwt>
<totfact> 0.82646028E+03</totfact>
</mgrwt>
</event>
<event>
 4    1  0.5015492E-001  0.8690552E+02  0.7546771E-02  0.1310523E+00
          2   -1    0    0  501    0  0.00000000000E+00  0.00000000000E+00  0.87133609827E+02  0.87133609827E+02  0.00000000000E+00 0. -1.
         -2   -1    0    0    0  501 -0.00000000000E+00 -0.00000000000E+00 -0.40331773204E+03  0.40331773204E+03  0.00000000000E+00 0.  1.
         24    1    1    2    0    0  0.32486793919E+02  0.54737080287E+01  0.59190544575E+02  0.10514794235E+03  0.80419002446E+02 0. -1.
        -24    1    1    2    0    0 -0.32486793919E+02 -0.54737080287E+01 -0.37537466679E+03  0.38530339952E+03  0.80419002446E+02 0.  1.
<mgrwt>
<rscale>  0 0.86905519E+02</rscale>
<asrwt>0</asrwt>
<pdfrwt beam="1">  1        2 0.13405171E-01 0.86905519E+02</pdfrwt>
<pdfrwt beam="2">  1       -2 0.62048881E-01 0.86905519E+02</pdfrwt>
<totfact> 0.10562980E+03</totfact>
</mgrwt>
</event>
<event>
 4    1  0.5015492E-001  0.8846746E+02  0.7546771E-02  0.1306606E+00
         -1   -1    0    0    0  501 -0.00000000000E+00  0.00000000000E+00  0.31469856930E+02  0.31469856930E+02  0.00000000000E+00 0.  1.
          1   -1    0    0  501    0  0.00000000000E+00 -0.00000000000E+00 -0.30379987426E+03  0.30379987426E+03  0.00000000000E+00 0. -1.
         24    1    1    2    0    0  0.21090144321E+02  0.30240382486E+02 -0.64772327579E+02  0.10964463186E+03  0.80419002446E+02 0. -1.
        -24    1    1    2    0    0 -0.21090144321E+02 -0.30240382486E+02 -0.20755768975E+03  0.22562509933E+03  0.80419002446E+02 0.  0.
<mgrwt>
<rscale>  0 0.88467457E+02</rscale>
<asrwt>0</asrwt>
<pdfrwt beam="1">  1        1 0.46738441E-01 0.88467457E+02</pdfrwt>
<pdfrwt beam="2">  1       -1 0.48415166E-02 0.88467457E+02</pdfrwt>
<totfact> 0.14382927E+04</totfact>
</mgrwt>
</event>
<event>
 4    1  0.5015492E-001  0.8368647E+02  0.7546771E-02  0.1318904E+00
         -1   -1    0    0    0  501 -0.00000000000E+00  0.00000000000E+00  0.33508150752E+01  0.33508150752E+01  0.00000000000E+00 0.  1.
          1   -1    0    0  501    0  0.00000000000E+00 -0.00000000000E+00 -0.20901218540E+04  0.20901218540E+04  0.00000000000E+00 0. -1.
         24    1    1    2    0    0  0.10714603325E+02  0.20528094985E+02 -0.10488440067E+04  0.10521773481E+04  0.80419002446E+02 0. -1.
        -24    1    1    2    0    0 -0.10714603325E+02 -0.20528094985E+02 -0.10379270322E+04  0.10412953210E+04  0.80419002446E+02 0.  1.
<mgrwt>
<rscale>  0 0.83686457E+02</rscale>
<asrwt>0</asrwt>
<pdfrwt beam="1">  1        1 0.32155642E+00 0.83686468E+02</pdfrwt>
<pdfrwt beam="2">  1       -1 0.51551128E-03 0.83686468E+02</pdfrwt>
<totfact> 0.13673586E+04</totfact>
</mgrwt>
</event>
<event>
 4    1  0.5015492E-001  0.1338437E+03  0.7546771E-02  0.1221861E+00
         -2   -1    0    0    0  501 -0.00000000000E+00  0.00000000000E+00  0.22320636296E+02  0.22320636296E+02  0.00000000000E+00 0.  1.
          2   -1    0    0  501    0  0.00000000000E+00 -0.00000000000E+00 -0.84496712655E+03  0.84496712655E+03  0.00000000000E+00 0. -1.
         24    1    1    2    0    0  0.44066700125E+02  0.97493877670E+02 -0.50844552022E+03  0.52576705225E+03  0.80419002446E+02 0. -1.
        -24    1    1    2    0    0 -0.44066700125E+02 -0.97493877670E+02 -0.31420097004E+03  0.34152071060E+03  0.80419002446E+02 0.  1.
<mgrwt>
<rscale>  0 0.13384374E+03</rscale>
<asrwt>0</asrwt>
<pdfrwt beam="1">  1        2 0.12999494E+00 0.13384374E+03</pdfrwt>
<pdfrwt beam="2">  1       -2 0.34339442E-02 0.13384374E+03</pdfrwt>
<totfact> 0.10957653E+04</totfact>
</mgrwt>
</event>
<event>
 4    1  0.5015492E-001  0.9234257E+02  0.7546771E-02  0.1297276E+00
          2   -1    0    0  501    0  0.00000000000E+00  0.00000000000E+00  0.10715158562E+04  0.10715158562E+04  0.00000000000E+00 0. -1.
         -2   -1    0    0    0  501 -0.00000000000E+00 -0.00000000000E+00 -0.86350719771E+01  0.86350719771E+01  0.00000000000E+00 0.  1.
         24    1    1    2    0    0  0.18600929524E+01 -0.45348364343E+02  0.68266791728E+03  0.68888506685E+03  0.80419002446E+02 0. -1.
        -24    1    1    2    0    0 -0.18600929524E+01  0.45348364343E+02  0.38021286692E+03  0.39126586130E+03  0.80419002446E+02 0.  1.
<mgrwt>
<rscale>  0 0.92342569E+02</rscale>
<asrwt>0</asrwt>
<pdfrwt beam="1">  1        2 0.16484849E+00 0.92342569E+02</pdfrwt>
<pdfrwt beam="2">  1       -2 0.13284735E-02 0.92342569E+02</pdfrwt>
<totfact> 0.30685127E+04</totfact>
</mgrwt>
</event>
<event>
 4    1  0.5015492E-001  0.8528732E+02  0.7546771E-02  0.1314683E+00
          2   -1    0    0  501    0  0.00000000000E+00  0.00000000000E+00  0.12289742173E+04  0.12289742173E+04  0.00000000000E+00 0. -1.
         -2   -1    0    0    0  501 -0.00000000000E+00 -0.00000000000E+00 -0.32082122167E+02  0.32082122167E+02  0.00000000000E+00 0.  1.
         24    1    1    2    0    0  0.59925090776E+01  0.27763307256E+02  0.11678496891E+04  0.11709597874E+04  0.80419002446E+02 0. -1.
        -24    1    1    2    0    0 -0.59925090776E+01 -0.27763307256E+02  0.29042406039E+02  0.90096552086E+02  0.80419002446E+02 0.  1.
<mgrwt>
<rscale>  0 0.85287322E+02</rscale>
<asrwt>0</asrwt>
<pdfrwt beam="1">  1        2 0.18907292E+00 0.85287322E+02</pdfrwt>
<pdfrwt beam="2">  1       -2 0.49357121E-02 0.85287322E+02</pdfrwt>
<totfact> 0.37373284E+03</totfact>
</mgrwt>
</event>
<event>
 4    1  0.5015492E-001  0.9012480E+02  0.7546771E-02  0.1302550E+00
         -2   -1    0    0    0  501 -0.00000000000E+00  0.00000000000E+00  0.36897651411E+02  0.36897651411E+02  0.00000000000E+00 0.  1.
          2   -1    0    0  501    0  0.00000000000E+00 -0.00000000000E+00 -0.32666239616E+03  0.32666239616E+03  0.00000000000E+00 0. -1.
         24    1    1    2    0    0 -0.27876163637E+02 -0.29634149625E+02 -0.24868932053E+03  0.26451627062E+03  0.80419002446E+02 0.  0.
        -24    1    1    2    0    0  0.27876163637E+02  0.29634149625E+02 -0.41075424215E+02  0.99043776947E+02  0.80419002446E+02 0.  0.
<mgrwt>
<rscale>  0 0.90124798E+02</rscale>
<asrwt>0</asrwt>
<pdfrwt beam="1">  1        2 0.50255754E-01 0.90124798E+02</pdfrwt>
<pdfrwt beam="2">  1       -2 0.56765616E-02 0.90124798E+02</pdfrwt>
<totfact> 0.14555235E+04</totfact>
</mgrwt>
</event>
<event>
 4    1  0.5015492E-001  0.9120631E+02  0.7546771E-02  0.1299956E+00
         -2   -1    0    0    0  501 -0.00000000000E+00  0.00000000000E+00  0.16058663559E+02  0.16058663559E+02  0.00000000000E+00 0.  1.
          2   -1    0    0  501    0  0.00000000000E+00 -0.00000000000E+00 -0.67886588613E+03  0.67886588613E+03  0.00000000000E+00 0. -1.
         24    1    1    2    0    0 -0.26707087661E+02  0.33735827175E+02 -0.50053748522E+03  0.50877928872E+03  0.80419002446E+02 0. -1.
        -24    1    1    2    0    0  0.26707087661E+02 -0.33735827175E+02 -0.16226973736E+03  0.18614526097E+03  0.80419002446E+02 0.  1.
<mgrwt>
<rscale>  0 0.91206307E+02</rscale>
<asrwt>0</asrwt>
<pdfrwt beam="1">  1        2 0.10444089E+00 0.91206307E+02</pdfrwt>
<pdfrwt beam="2">  1       -2 0.24705640E-02 0.91206307E+02</pdfrwt>
<totfact> 0.22405800E+04</totfact>
</mgrwt>
</event>
<event>
 4    1  0.5015492E-001  0.9714568E+02  0.7546771E-02  0.1286415E+00
         -2   -1    0    0    0  501 -0.00000000000E+00  0.00000000000E+00  0.37374063004E+02  0.37374063004E+02  0.00000000000E+00 0.  1.
          2   -1    0    0  501    0  0.00000000000E+00 -0.00000000000E+00 -0.58576129000E+03  0.58576129000E+03  0.00000000000E+00 0. -1.
         24    1    1    2    0    0  0.51517987672E+02  0.17775397139E+02 -0.50919947483E+03  0.51838343813E+03  0.80419002446E+02 0. -1.
        -24    1    1    2    0    0 -0.51517987672E+02 -0.17775397139E+02 -0.39187752165E+02  0.10475191488E+03  0.80419002446E+02 0.  1.
<mgrwt>
<rscale>  0 0.97145683E+02</rscale>
<asrwt>0</asrwt>
<pdfrwt beam="1">  1        2 0.90117121E-01 0.97145683E+02</pdfrwt>
<pdfrwt beam="2">  1       -2 0.57498559E-02 0.97145683E+02</pdfrwt>
<totfact> 0.76956080E+03</totfact>
</mgrwt>
</event>
<event>
 4    1  0.5015492E-001  0.8065395E+02  0.7546771E-02  0.1327206E+00
          2   -1    0    0  501    0  0.00000000000E+00  0.00000000000E+00  0.14887245093E+04  0.14887245093E+04  0.00000000000E+00 0. -1.
         -2   -1    0    0    0  501 -0.00000000000E+00 -0.00000000000E+00 -0.31112353677E+02  0.31112353677E+02  0.00000000000E+00 0.  1.
         24    1    1    2    0    0  0.13262594118E+01 -0.60070166347E+01  0.14333433871E+04  0.14356107845E+04  0.80419002446E+02 0.  0.
        -24    1    1    2    0    0 -0.13262594118E+01  0.60070166347E+01  0.24268768469E+02  0.84226078445E+02  0.80419002446E+02 0.  1.
<mgrwt>
<rscale>  0 0.80653947E+02</rscale>
<asrwt>0</asrwt>
<pdfrwt beam="1">  1        2 0.22903448E+00 0.80653947E+02</pdfrwt>
<pdfrwt beam="2">  1       -2 0.47865171E-02 0.80653947E+02</pdfrwt>
<totfact> 0.28598153E+03</totfact>
</mgrwt>
</event>
<event>
 4    1  0.5015492E-001  0.8898033E+02  0.7546771E-02  0.1305340E+00
         -1   -1    0    0    0  501 -0.00000000000E+00  0.00000000000E+00  0.39076113462E+01  0.39076113462E+01  0.00000000000E+00 0.  1.
          1   -1    0    0  501    0  0.00000000000E+00 -0.00000000000E+00 -0.21567340417E+04  0.21567340417E+04  0.00000000000E+00 0. -1.
         24    1    1    2    0    0 -0.14412127764E+02  0.35250147681E+02 -0.81060981235E+03  0.81547885697E+03  0.80419002446E+02 0.  1.
        -24    1    1    2    0    0  0.14412127764E+02 -0.35250147681E+02 -0.13422166180E+04  0.13451627961E+04  0.80419002446E+02 0. -1.
<mgrwt>
<rscale>  0 0.88980325E+02</rscale>
<asrwt>0</asrwt>
<pdfrwt beam="1">  1        1 0.33180576E+00 0.88980325E+02</pdfrwt>
<pdfrwt beam="2">  1       -1 0.60117003E-03 0.88980325E+02</pdfrwt>
<totfact> 0.10049138E+04</totfact>
</mgrwt>
</event>
<event>
 4    1  0.5015492E-001  0.9194865E+02  0.7546771E-02  0.1298200E+00
         -2   -1    0    0    0  501 -0.00000000000E+00  0.00000000000E+00  0.77280394871E+01  0.77280394871E+01  0.00000000000E+00 0.  1.
          2   -1    0    0  501    0  0.00000000000E+00 -0.00000000000E+00 -0.11111838202E+04  0.11111838202E+04  0.00000000000E+00 0. -1.
         24    1    1    2    0    0 -0.43907680087E+02  0.77106285168E+01 -0.62127894222E+03  0.62804623888E+03  0.80419002446E+02 0.  0.
        -24    1    1    2    0    0  0.43907680087E+02 -0.77106285168E+01 -0.48217683846E+03  0.49086562078E+03  0.80419002446E+02 0.  1.
<mgrwt>
<rscale>  0 0.91948649E+02</rscale>
<asrwt>0</asrwt>
<pdfrwt beam="1">  1        2 0.17095133E+00 0.91948649E+02</pdfrwt>
<pdfrwt beam="2">  1       -2 0.11889293E-02 0.91948649E+02</pdfrwt>
<totfact> 0.34112235E+04</totfact>
</mgrwt>
</event>
<event>
 4    1  0.5015492E-001  0.8517120E+02  0.7546771E-02  0.1314985E+00
         -2   -1    0    0    0  501 -0.00000000000E+00  0.00000000000E+00  0.73021616149E+01  0.73021616149E+01  0.00000000000E+00 0.  1.
          2   -1    0    0  501    0  0.00000000000E+00 -0.00000000000E+00 -0.14535127372E+04  0.14535127372E+04  0.00000000000E+00 0. -1.
         24    1    1    2    0    0 -0.15661517975E+02  0.23273024263E+02 -0.11340441462E+04  0.11372379954E+04  0.80419002446E+02 0. -1.
        -24    1    1    2    0    0  0.15661517975E+02 -0.23273024263E+02 -0.31216642938E+03  0.32357690337E+03  0.80419002446E+02 0.  1.
<mgrwt>
<rscale>  0 0.85171197E+02</rscale>
<asrwt>0</asrwt>
<pdfrwt beam="1">  1        2 0.22361704E+00 0.85171197E+02</pdfrwt>
<pdfrwt beam="2">  1       -2 0.11234110E-02 0.85171197E+02</pdfrwt>
<totfact> 0.24136186E+04</totfact>
</mgrwt>
</event>
<event>
 4    1  0.5015492E-001  0.8317694E+02  0.7546771E-02  0.1320270E+00
          1   -1    0    0  501    0  0.00000000000E+00  0.00000000000E+00  0.43752301915E+03  0.43752301915E+03  0.00000000000E+00 0. -1.
         -1   -1    0    0    0  501 -0.00000000000E+00 -0.00000000000E+00 -0.36464474740E+02  0.36464474740E+02  0.00000000000E+00 0.  1.
         24    1    1    2    0    0 -0.45584249282E+01  0.20746289973E+02  0.22176036555E+02  0.86082404341E+02  0.80419002446E+02 0.  1.
        -24    1    1    2    0    0  0.45584249282E+01 -0.20746289973E+02  0.37888250785E+03  0.38790508955E+03  0.80419002446E+02 0. -1.
<mgrwt>
<rscale>  0 0.83176942E+02</rscale>
<asrwt>0</asrwt>
<pdfrwt beam="1">  1        1 0.67311230E-01 0.83176942E+02</pdfrwt>
<pdfrwt beam="2">  1       -1 0.56099195E-02 0.83176942E+02</pdfrwt>
<totfact> 0.73561512E+03</totfact>
</mgrwt>
</event>
<event>
 4    1  0.5015492E-001  0.8341252E+02  0.7546771E-02  0.1319637E+00
          1   -1    0    0  501    0  0.00000000000E+00  0.00000000000E+00  0.14283510434E+04  0.14283510434E+04  0.00000000000E+00 0. -1.
         -1   -1    0    0    0  501 -0.00000000000E+00 -0.00000000000E+00 -0.54852639797E+01  0.54852639797E+01  0.00000000000E+00 0.  1.
         24    1    1    2    0    0 -0.27569201879E+01 -0.21973420375E+02  0.47154338396E+03  0.47886408376E+03  0.80419002446E+02 0.  1.
        -24    1    1    2    0    0  0.27569201879E+01  0.21973420375E+02  0.95132239550E+03  0.95497222365E+03  0.80419002446E+02 0.  1.
<mgrwt>
<rscale>  0 0.83412516E+02</rscale>
<asrwt>0</asrwt>
<pdfrwt beam="1">  1        1 0.21974602E+00 0.83412516E+02</pdfrwt>
<pdfrwt beam="2">  1       -1 0.84388790E-03 0.83412516E+02</pdfrwt>
<totfact> 0.17856924E+04</totfact>
</mgrwt>
</event>
<event>
 4    1  0.5015492E-001  0.1100992E+03  0.7546771E-02  0.1260386E+00
         -2   -1    0    0    0  501 -0.00000000000E+00  0.00000000000E+00  0.17155683329E+03  0.17155683329E+03  0.00000000000E+00 0.  1.
          2   -1    0    0  501    0  0.00000000000E+00 -0.00000000000E+00 -0.70909314719E+02  0.70909314719E+02  0.00000000000E+00 0. -1.
         24    1    1    2    0    0  0.75036671644E+02 -0.49098178348E+01  0.43103187389E+02  0.11823581995E+03  0.80419002446E+02 0. -1.
        -24    1    1    2    0    0 -0.75036671644E+02  0.49098178348E+01  0.57544331180E+02  0.12423032805E+03  0.80419002446E+02 0.  1.
<mgrwt>
<rscale>  0 0.11009916E+03</rscale>
<asrwt>0</asrwt>
<pdfrwt beam="1">  1        2 0.10909125E-01 0.11009916E+03</pdfrwt>
<pdfrwt beam="2">  1       -2 0.26393359E-01 0.11009916E+03</pdfrwt>
<totfact> 0.68939216E+03</totfact>
</mgrwt>
</event>
<event>
 4    1  0.5015492E-001  0.8113321E+02  0.7546771E-02  0.1325866E+00
          4   -1    0    0  501    0  0.00000000000E+00  0.00000000000E+00  0.83294865524E+02  0.83294865524E+02  0.00000000000E+00 0. -1.
         -4   -1    0    0    0  501 -0.00000000000E+00 -0.00000000000E+00 -0.85958279159E+02  0.85958279159E+02  0.00000000000E+00 0.  1.
         24    1    1    2    0    0 -0.99013091827E+01  0.41648239215E+01  0.22698038415E+02  0.84248433719E+02  0.80419002446E+02 0.  0.
        -24    1    1    2    0    0  0.99013091827E+01 -0.41648239215E+01 -0.25361452050E+02  0.85004710965E+02  0.80419002446E+02 0.  1.
<mgrwt>
<rscale>  0 0.81133209E+02</rscale>
<asrwt>0</asrwt>
<pdfrwt beam="1">  1        4 0.12814595E-01 0.81133209E+02</pdfrwt>
<pdfrwt beam="2">  1       -4 0.13224351E-01 0.81133209E+02</pdfrwt>
<totfact> 0.33318528E+03</totfact>
</mgrwt>
</event>
<event>
 4    1  0.5015492E-001  0.8516810E+02  0.7546771E-02  0.1314994E+00
         -2   -1    0    0    0  501 -0.00000000000E+00  0.00000000000E+00  0.93232939584E+02  0.93232939584E+02  0.00000000000E+00 0.  1.
          2   -1    0    0  501    0  0.00000000000E+00 -0.00000000000E+00 -0.12383322082E+04  0.12383322082E+04  0.00000000000E+00 0. -1.
         24    1    1    2    0    0  0.27252660207E+02  0.66091649530E+01 -0.12170783544E+04  0.12200546403E+04  0.80419002446E+02 0. -1.
        -24    1    1    2    0    0 -0.27252660207E+02 -0.66091649530E+01  0.71979085759E+02  0.11151050754E+03  0.80419002446E+02 0.  1.
<mgrwt>
<rscale>  0 0.85168096E+02</rscale>
<asrwt>0</asrwt>
<pdfrwt beam="1">  1        2 0.19051265E+00 0.85168096E+02</pdfrwt>
<pdfrwt beam="2">  1       -2 0.14343529E-01 0.85168096E+02</pdfrwt>
<totfact> 0.71786045E+02</totfact>
</mgrwt>
</event>
<event>
 4    1  0.5015492E-001  0.1516907E+03  0.7546771E-02  0.1198411E+00
          1   -1    0    0  501    0  0.00000000000E+00  0.00000000000E+00  0.20605851707E+04  0.20605851707E+04  0.00000000000E+00 0. -1.
         -1   -1    0    0    0  501 -0.00000000000E+00 -0.00000000000E+00 -0.19111110767E+02  0.19111110767E+02  0.00000000000E+00 0.  1.
         24    1    1    2    0    0 -0.84204302647E+02 -0.97223834718E+02  0.35030271739E+03  0.38173557391E+03  0.80419002446E+02 0.  1.
        -24    1    1    2    0    0  0.84204302647E+02  0.97223834718E+02  0.16911713426E+04  0.16979607076E+04  0.80419002446E+02 0. -1.
<mgrwt>
<rscale>  0 0.15169065E+03</rscale>
<asrwt>0</asrwt>
<pdfrwt beam="1">  1        1 0.31701293E+00 0.15169065E+03</pdfrwt>
<pdfrwt beam="2">  1       -1 0.29401725E-02 0.15169065E+03</pdfrwt>
<totfact> 0.12099488E+03</totfact>
</mgrwt>
</event>
<event>
 4    1  0.5015492E-001  0.8704547E+02  0.7546771E-02  0.1310168E+00
         -2   -1    0    0    0  501 -0.00000000000E+00  0.00000000000E+00  0.13096677917E+04  0.13096677917E+04  0.00000000000E+00 0.  1.
          2   -1    0    0  501    0  0.00000000000E+00 -0.00000000000E+00 -0.11517890451E+02  0.11517890451E+02  0.00000000000E+00 0. -1.
         24    1    1    2    0    0  0.32643195454E+02  0.66423205258E+01  0.18303822262E+03  0.20268178390E+03  0.80419002446E+02 0. -1.
        -24    1    1    2    0    0 -0.32643195454E+02 -0.66423205258E+01  0.11151116786E+04  0.11185038982E+04  0.80419002446E+02 0.  1.
<mgrwt>
<rscale>  0 0.87045474E+02</rscale>
<asrwt>0</asrwt>
<pdfrwt beam="1">  1        2 0.17719842E-02 0.87045474E+02</pdfrwt>
<pdfrwt beam="2">  1       -2 0.20148723E+00 0.87045474E+02</pdfrwt>
<totfact> 0.86329625E+02</totfact>
</mgrwt>
</event>
<event>
 4    1  0.5015492E-001  0.8071716E+02  0.7546771E-02  0.1327028E+00
         -2   -1    0    0    0  501 -0.00000000000E+00  0.00000000000E+00  0.73653237786E+01  0.73653237786E+01  0.00000000000E+00 0.  1.
          2   -1    0    0  501    0  0.00000000000E+00 -0.00000000000E+00 -0.16170965021E+04  0.16170965021E+04  0.00000000000E+00 0. -1.
         24    1    1    2    0    0  0.66807860231E+00 -0.68991526820E+01 -0.13515271565E+04  0.13539353438E+04  0.80419002446E+02 0. -1.
        -24    1    1    2    0    0 -0.66807860231E+00  0.68991526820E+01 -0.25820402188E+03  0.27052648208E+03  0.80419002446E+02 0.  0.
<mgrwt>
<rscale>  0 0.80717164E+02</rscale>
<asrwt>0</asrwt>
<pdfrwt beam="1">  1        2 0.24878407E+00 0.80717164E+02</pdfrwt>
<pdfrwt beam="2">  1       -2 0.11331268E-02 0.80717164E+02</pdfrwt>
<totfact> 0.19619552E+04</totfact>
</mgrwt>
</event>
<event>
 4    1  0.5015492E-001  0.8423325E+02  0.7546771E-02  0.1317450E+00
          1   -1    0    0  501    0  0.00000000000E+00  0.00000000000E+00  0.38707078539E+01  0.38707078539E+01  0.00000000000E+00 0. -1.
         -1   -1    0    0    0  501 -0.00000000000E+00 -0.00000000000E+00 -0.19007474284E+04  0.19007474284E+04  0.00000000000E+00 0.  1.
         24    1    1    2    0    0 -0.16415232988E+02  0.18935793213E+02 -0.11281471949E+04  0.11312874672E+04  0.80419002446E+02 0.  1.
        -24    1    1    2    0    0  0.16415232988E+02 -0.18935793213E+02 -0.76872952570E+03  0.77333066910E+03  0.80419002446E+02 0. -1.
<mgrwt>
<rscale>  0 0.84233248E+02</rscale>
<asrwt>0</asrwt>
<pdfrwt beam="1">  1        1 0.59549114E-03 0.84233248E+02</pdfrwt>
<pdfrwt beam="2">  1       -1 0.29242385E+00 0.84233248E+02</pdfrwt>
<totfact> 0.13918474E+03</totfact>
</mgrwt>
</event>
<event>
 4    1  0.5015492E-001  0.8646393E+02  0.7546771E-02  0.1311648E+00
          2   -1    0    0  501    0  0.00000000000E+00  0.00000000000E+00  0.16948256115E+04  0.16948256115E+04  0.00000000000E+00 0. -1.
         -2   -1    0    0    0  501 -0.00000000000E+00 -0.00000000000E+00 -0.10309143665E+02  0.10309143665E+02  0.00000000000E+00 0.  1.
         24    1    1    2    0    0  0.30150023086E+02 -0.99885765878E+01  0.14871281837E+04  0.14896396364E+04  0.80419002446E+02 0. -1.
        -24    1    1    2    0    0 -0.30150023086E+02  0.99885765878E+01  0.19738828416E+03  0.21549511881E+03  0.80419002446E+02 0.  1.
<mgrwt>
<rscale>  0 0.86463932E+02</rscale>
<asrwt>0</asrwt>
<pdfrwt beam="1">  1        2 0.26074218E+00 0.86463932E+02</pdfrwt>
<pdfrwt beam="2">  1       -2 0.15860234E-02 0.86463932E+02</pdfrwt>
<totfact> 0.11173238E+04</totfact>
</mgrwt>
</event>
<event>
 4    1  0.5015492E-001  0.8113016E+02  0.7546771E-02  0.1325874E+00
         -1   -1    0    0    0  501 -0.00000000000E+00  0.00000000000E+00  0.51936656149E+01  0.51936656149E+01  0.00000000000E+00 0.  1.
          1   -1    0    0  501    0  0.00000000000E+00 -0.00000000000E+00 -0.15238503957E+04  0.15238503957E+04  0.00000000000E+00 0. -1.
         24    1    1    2    0    0  0.93202648289E+01  0.52932763453E+01 -0.44565507701E+03  0.45297963501E+03  0.80419002446E+02 0.  0.
        -24    1    1    2    0    0 -0.93202648289E+01 -0.52932763453E+01 -0.10730016530E+04  0.10760644263E+04  0.80419002446E+02 0.  0.
<mgrwt>
<rscale>  0 0.81130155E+02</rscale>
<asrwt>0</asrwt>
<pdfrwt beam="1">  1        1 0.23443850E+00 0.81130155E+02</pdfrwt>
<pdfrwt beam="2">  1       -1 0.79902554E-03 0.81130155E+02</pdfrwt>
<totfact> 0.16721952E+04</totfact>
</mgrwt>
</event>
<event>
 4    1  0.5015492E-001  0.8610961E+02  0.7546771E-02  0.1312556E+00
          1   -1    0    0  501    0  0.00000000000E+00  0.00000000000E+00  0.12337306789E+04  0.12337306789E+04  0.00000000000E+00 0. -1.
         -1   -1    0    0    0  501 -0.00000000000E+00 -0.00000000000E+00 -0.67958087640E+01  0.67958087640E+01  0.00000000000E+00 0.  1.
         24    1    1    2    0    0  0.23889589812E+02 -0.19414737411E+02  0.82437042959E+03  0.82885551556E+03  0.80419002446E+02 0. -1.
        -24    1    1    2    0    0 -0.23889589812E+02  0.19414737411E+02  0.40256444054E+03  0.41167097210E+03  0.80419002446E+02 0.  1.
<mgrwt>
<rscale>  0 0.86109595E+02</rscale>
<asrwt>0</asrwt>
<pdfrwt beam="1">  1        1 0.18980454E+00 0.86109606E+02</pdfrwt>
<pdfrwt beam="2">  1       -1 0.10455100E-02 0.86109606E+02</pdfrwt>
<totfact> 0.17743139E+04</totfact>
</mgrwt>
</event>
<event>
 4    1  0.5015492E-001  0.1007556E+03  0.7546771E-02  0.1278715E+00
         -2   -1    0    0    0  501 -0.00000000000E+00  0.00000000000E+00  0.30788508997E+03  0.30788508997E+03  0.00000000000E+00 0.  1.
          2   -1    0    0  501    0  0.00000000000E+00 -0.00000000000E+00 -0.45260841292E+02  0.45260841292E+02  0.00000000000E+00 0. -1.
         24    1    1    2    0    0  0.43540521523E+02  0.42292961638E+02  0.39306875052E+02  0.10815136615E+03  0.80419002446E+02 0. -1.
        -24    1    1    2    0    0 -0.43540521523E+02 -0.42292961638E+02  0.22331737362E+03  0.24499456511E+03  0.80419002446E+02 0.  0.
<mgrwt>
<rscale>  0 0.10075558E+03</rscale>
<asrwt>0</asrwt>
<pdfrwt beam="1">  1        2 0.69632065E-02 0.10075558E+03</pdfrwt>
<pdfrwt beam="2">  1       -2 0.47366936E-01 0.10075558E+03</pdfrwt>
<totfact> 0.40554481E+03</totfact>
</mgrwt>
</event>
<event>
 4    1  0.5015492E-001  0.8390809E+02  0.7546771E-02  0.1318313E+00
         -1   -1    0    0    0  501 -0.00000000000E+00  0.00000000000E+00  0.10612908523E+02  0.10612908523E+02  0.00000000000E+00 0.  1.
          1   -1    0    0  501    0  0.00000000000E+00 -0.00000000000E+00 -0.79546747990E+03  0.79546747990E+03  0.00000000000E+00 0. -1.
         24    1    1    2    0    0  0.18127212625E+02  0.15644672027E+02 -0.22820175991E+03  0.24313907703E+03  0.80419002446E+02 0.  1.
        -24    1    1    2    0    0 -0.18127212625E+02 -0.15644672027E+02 -0.55665281146E+03  0.56294131138E+03  0.80419002446E+02 0. -1.
<mgrwt>
<rscale>  0 0.83908090E+02</rscale>
<asrwt>0</asrwt>
<pdfrwt beam="1">  1        1 0.12237967E+00 0.83908090E+02</pdfrwt>
<pdfrwt beam="2">  1       -1 0.16327544E-02 0.83908090E+02</pdfrwt>
<totfact> 0.19508097E+04</totfact>
</mgrwt>
</event>
<event>
 4    1  0.5015492E-001  0.1079005E+03  0.7546771E-02  0.1264508E+00
         -2   -1    0    0    0  501 -0.00000000000E+00  0.00000000000E+00  0.14050489874E+02  0.14050489874E+02  0.00000000000E+00 0.  1.
          2   -1    0    0  501    0  0.00000000000E+00 -0.00000000000E+00 -0.10393923430E+04  0.10393923430E+04  0.00000000000E+00 0. -1.
         24    1    1    2    0    0 -0.36402936500E+02 -0.62049317461E+02 -0.74986220727E+03  0.75758553142E+03  0.80419002446E+02 0. -1.
        -24    1    1    2    0    0  0.36402936500E+02  0.62049317461E+02 -0.27547964585E+03  0.29585730144E+03  0.80419002446E+02 0.  1.
<mgrwt>
<rscale>  0 0.10790045E+03</rscale>
<asrwt>0</asrwt>
<pdfrwt beam="1">  1        2 0.15990652E+00 0.10790045E+03</pdfrwt>
<pdfrwt beam="2">  1       -2 0.21616138E-02 0.10790045E+03</pdfrwt>
<totfact> 0.16134407E+04</totfact>
</mgrwt>
</event>
<event>
 4    1  0.5015492E-001  0.8065950E+02  0.7546771E-02  0.1327190E+00
          2   -1    0    0  501    0  0.00000000000E+00  0.00000000000E+00  0.25429687519E+02  0.25429687519E+02  0.00000000000E+00 0. -1.
         -2   -1    0    0    0  501 -0.00000000000E+00 -0.00000000000E+00 -0.38378590685E+03  0.38378590685E+03  0.00000000000E+00 0.  1.
         24    1    1    2    0    0  0.53774367344E+01 -0.31340238781E+01 -0.61040197969E+02  0.10115266014E+03  0.80419002446E+02 0. -1.
        -24    1    1    2    0    0 -0.53774367344E+01  0.31340238781E+01 -0.29731602137E+03  0.30806293423E+03  0.80419002446E+02 0.  1.
<mgrwt>
<rscale>  0 0.80659500E+02</rscale>
<asrwt>0</asrwt>
<pdfrwt beam="1">  1        2 0.39122600E-02 0.80659500E+02</pdfrwt>
<pdfrwt beam="2">  1       -2 0.59043980E-01 0.80659500E+02</pdfrwt>
<totfact> 0.53834029E+03</totfact>
</mgrwt>
</event>
<event>
 4    1  0.5015492E-001  0.4955344E+03  0.7546771E-02  0.1014951E+00
          1   -1    0    0  501    0  0.00000000000E+00  0.00000000000E+00  0.54718397728E+03  0.54718397728E+03  0.00000000000E+00 0. -1.
         -1   -1    0    0    0  501 -0.00000000000E+00 -0.00000000000E+00 -0.62587572894E+03  0.62587572894E+03  0.00000000000E+00 0.  1.
         24    1    1    2    0    0  0.43016552403E+03  0.23247531397E+03 -0.35136013639E+03  0.60746054281E+03  0.80419002446E+02 0.  1.
        -24    1    1    2    0    0 -0.43016552403E+03 -0.23247531397E+03  0.27266838473E+03  0.56559916342E+03  0.80419002446E+02 0. -1.
<mgrwt>
<rscale>  0 0.49553442E+03</rscale>
<asrwt>0</asrwt>
<pdfrwt beam="1">  1        1 0.84182150E-01 0.49553442E+03</pdfrwt>
<pdfrwt beam="2">  1       -1 0.96288574E-01 0.49553442E+03</pdfrwt>
<totfact> 0.42678487E+01</totfact>
</mgrwt>
</event>
<event>
 4    1  0.5015492E-001  0.9245542E+02  0.7546771E-02  0.1297012E+00
          1   -1    0    0  501    0  0.00000000000E+00  0.00000000000E+00  0.21901376040E+02  0.21901376040E+02  0.00000000000E+00 0. -1.
         -1   -1    0    0    0  501 -0.00000000000E+00 -0.00000000000E+00 -0.40602325183E+03  0.40602325183E+03  0.00000000000E+00 0.  1.
         24    1    1    2    0    0  0.27345932565E+02  0.36510114624E+02 -0.23417214755E+03  0.25176298207E+03  0.80419002446E+02 0.  1.
        -24    1    1    2    0    0 -0.27345932565E+02 -0.36510114624E+02 -0.14994972824E+03  0.17616164580E+03  0.80419002446E+02 0. -1.
<mgrwt>
<rscale>  0 0.92455419E+02</rscale>
<asrwt>0</asrwt>
<pdfrwt beam="1">  1        1 0.33694428E-02 0.92455419E+02</pdfrwt>
<pdfrwt beam="2">  1       -1 0.62465110E-01 0.92455419E+02</pdfrwt>
<totfact> 0.71271080E+03</totfact>
</mgrwt>
</event>
<event>
 4    1  0.5015492E-001  0.9447694E+02  0.7546771E-02  0.1292359E+00
         -1   -1    0    0    0  501 -0.00000000000E+00  0.00000000000E+00  0.55738319616E+02  0.55738319616E+02  0.00000000000E+00 0.  1.
          1   -1    0    0  501    0  0.00000000000E+00 -0.00000000000E+00 -0.12273839200E+04  0.12273839200E+04  0.00000000000E+00 0. -1.
         24    1    1    2    0    0 -0.49523741307E+02  0.24648612900E+01  0.12423222938E+02  0.95290235160E+02  0.80419002446E+02 0.  1.
        -24    1    1    2    0    0  0.49523741307E+02 -0.24648612900E+01 -0.11840688233E+04  0.11878320044E+04  0.80419002446E+02 0. -1.
<mgrwt>
<rscale>  0 0.94476941E+02</rscale>
<asrwt>0</asrwt>
<pdfrwt beam="1">  1        1 0.18882828E+00 0.94476941E+02</pdfrwt>
<pdfrwt beam="2">  1       -1 0.85751268E-02 0.94476941E+02</pdfrwt>
<totfact> 0.86005219E+02</totfact>
</mgrwt>
</event>
<event>
 4    1  0.5015492E-001  0.8595834E+02  0.7546771E-02  0.1312945E+00
         -2   -1    0    0    0  501 -0.00000000000E+00  0.00000000000E+00  0.32230972707E+01  0.32230972707E+01  0.00000000000E+00 0.  1.
          2   -1    0    0  501    0  0.00000000000E+00 -0.00000000000E+00 -0.27640386300E+04  0.27640386300E+04  0.00000000000E+00 0. -1.
         24    1    1    2    0    0  0.18614549220E+02  0.23981619922E+02 -0.19519170059E+04  0.19538088017E+04  0.80419002446E+02 0. -1.
        -24    1    1    2    0    0 -0.18614549220E+02 -0.23981619922E+02 -0.80889852683E+03  0.81345292562E+03  0.80419002446E+02 0.  1.
<mgrwt>
<rscale>  0 0.85958336E+02</rscale>
<asrwt>0</asrwt>
<pdfrwt beam="1">  1        2 0.42523901E+00 0.85958336E+02</pdfrwt>
<pdfrwt beam="2">  1       -2 0.49585844E-03 0.85958336E+02</pdfrwt>
<totfact> 0.16284601E+04</totfact>
</mgrwt>
</event>
<event>
 4    1  0.5015492E-001  0.8163013E+02  0.7546771E-02  0.1324488E+00
          1   -1    0    0  501    0  0.00000000000E+00  0.00000000000E+00  0.97554955213E+03  0.97554955213E+03  0.00000000000E+00 0. -1.
         -1   -1    0    0    0  501 -0.00000000000E+00 -0.00000000000E+00 -0.68922315294E+01  0.68922315294E+01  0.00000000000E+00 0.  1.
         24    1    1    2    0    0  0.10756624724E+02  0.89753409074E+01  0.43783441090E+03  0.44537899484E+03  0.80419002446E+02 0. -1.
        -24    1    1    2    0    0 -0.10756624724E+02 -0.89753409074E+01  0.53082290970E+03  0.53706278882E+03  0.80419002446E+02 0. -1.
<mgrwt>
<rscale>  0 0.81630127E+02</rscale>
<asrwt>0</asrwt>
<pdfrwt beam="1">  1        1 0.15008444E+00 0.81630127E+02</pdfrwt>
<pdfrwt beam="2">  1       -1 0.10603441E-02 0.81630127E+02</pdfrwt>
<totfact> 0.26112548E+04</totfact>
</mgrwt>
</event>
<event>
 4    1  0.5015492E-001  0.8515383E+02  0.7546771E-02  0.1315031E+00
          1   -1    0    0  501    0  0.00000000000E+00  0.00000000000E+00  0.18158919521E+03  0.18158919521E+03  0.00000000000E+00 0. -1.
         -1   -1    0    0    0  501 -0.00000000000E+00 -0.00000000000E+00 -0.67870275347E+02  0.67870275347E+02  0.00000000000E+00 0.  1.
         24    1    1    2    0    0 -0.27049123790E+02  0.72321398796E+01 -0.23166687723E+02  0.88248911152E+02  0.80419002446E+02 0.  1.
        -24    1    1    2    0    0  0.27049123790E+02 -0.72321398796E+01  0.13688560759E+03  0.16121055940E+03  0.80419002446E+02 0. -1.
<mgrwt>
<rscale>  0 0.85153831E+02</rscale>
<asrwt>0</asrwt>
<pdfrwt beam="1">  1        1 0.27936799E-01 0.85153831E+02</pdfrwt>
<pdfrwt beam="2">  1       -1 0.10441581E-01 0.85153831E+02</pdfrwt>
<totfact> 0.85914874E+03</totfact>
</mgrwt>
</event>
<event>
 4    1  0.5015492E-001  0.8059628E+02  0.7546771E-02  0.1327368E+00
         -2   -1    0    0    0  501 -0.00000000000E+00  0.00000000000E+00  0.56109921214E+02  0.56109921214E+02  0.00000000000E+00 0.  1.
          2   -1    0    0  501    0  0.00000000000E+00 -0.00000000000E+00 -0.19087907432E+03  0.19087907432E+03  0.00000000000E+00 0. -1.
         24    1    1    2    0    0 -0.52665979815E+01  0.89856102168E+00 -0.14485198735E+03  0.16576446742E+03  0.80419002446E+02 0. -1.
        -24    1    1    2    0    0  0.52665979815E+01 -0.89856102168E+00  0.10082834244E+02  0.81224528112E+02  0.80419002446E+02 0.  0.
<mgrwt>
<rscale>  0 0.80596280E+02</rscale>
<asrwt>0</asrwt>
<pdfrwt beam="1">  1        2 0.29366011E-01 0.80596280E+02</pdfrwt>
<pdfrwt beam="2">  1       -2 0.86322956E-02 0.80596280E+02</pdfrwt>
<totfact> 0.13430524E+04</totfact>
</mgrwt>
</event>
<event>
 4    1  0.5015492E-001  0.8732901E+02  0.7546771E-02  0.1309452E+00
          2   -1    0    0  501    0  0.00000000000E+00  0.00000000000E+00  0.67143093116E+03  0.67143093116E+03  0.00000000000E+00 0. -1.
         -2   -1    0    0    0  501 -0.00000000000E+00 -0.00000000000E+00 -0.11365159426E+02  0.11365159426E+02  0.00000000000E+00 0.  1.
         24    1    1    2    0    0  0.49270472188E+01 -0.33687739833E+02  0.33838210803E+03  0.34946932139E+03  0.80419002446E+02 0.  0.
        -24    1    1    2    0    0 -0.49270472188E+01  0.33687739833E+02  0.32168366371E+03  0.33332676919E+03  0.80419002446E+02 0. -1.
<mgrwt>
<rscale>  0 0.87329008E+02</rscale>
<asrwt>0</asrwt>
<pdfrwt beam="1">  1        2 0.10329704E+00 0.87329008E+02</pdfrwt>
<pdfrwt beam="2">  1       -2 0.17484866E-02 0.87329008E+02</pdfrwt>
<totfact> 0.37123327E+04</totfact>
</mgrwt>
</event>
<event>
 4    1  0.5015492E-001  0.9338562E+02  0.7546771E-02  0.1294854E+00
          2   -1    0    0  501    0  0.00000000000E+00  0.00000000000E+00  0.79262640342E+03  0.79262640342E+03  0.00000000000E+00 0. -1.
         -2   -1    0    0    0  501 -0.00000000000E+00 -0.00000000000E+00 -0.11503668917E+02  0.11503668917E+02  0.00000000000E+00 0.  1.
         24    1    1    2    0    0  0.11774381047E+02  0.45989321912E+02  0.30664021731E+03  0.32054499311E+03  0.80419002446E+02 0.  0.
        -24    1    1    2    0    0 -0.11774381047E+02 -0.45989321912E+02  0.47448251719E+03  0.48358507923E+03  0.80419002446E+02 0.  0.
<mgrwt>
<rscale>  0 0.93385609E+02</rscale>
<asrwt>0</asrwt>
<pdfrwt beam="1">  1        2 0.12194248E+00 0.93385620E+02</pdfrwt>
<pdfrwt beam="2">  1       -2 0.17697958E-02 0.93385620E+02</pdfrwt>
<totfact> 0.30200355E+04</totfact>
</mgrwt>
</event>
<event>
 4    1  0.5015492E-001  0.8521440E+02  0.7546771E-02  0.1314873E+00
          4   -1    0    0  501    0  0.00000000000E+00  0.00000000000E+00  0.16783228555E+02  0.16783228555E+02  0.00000000000E+00 0. -1.
         -4   -1    0    0    0  501 -0.00000000000E+00 -0.00000000000E+00 -0.43346670606E+03  0.43346670606E+03  0.00000000000E+00 0.  1.
         24    1    1    2    0    0 -0.26435092824E+02 -0.97705942422E+01 -0.19865245306E+03  0.21615802485E+03  0.80419002446E+02 0. -1.
        -24    1    1    2    0    0  0.26435092824E+02  0.97705942422E+01 -0.21803102444E+03  0.23409190976E+03  0.80419002446E+02 0.  1.
<mgrwt>
<rscale>  0 0.85214404E+02</rscale>
<asrwt>0</asrwt>
<pdfrwt beam="1">  1        4 0.25820353E-02 0.85214404E+02</pdfrwt>
<pdfrwt beam="2">  1       -4 0.66687183E-01 0.85214404E+02</pdfrwt>
<totfact> 0.21188165E+03</totfact>
</mgrwt>
</event>
<event>
 4    1  0.5015492E-001  0.8785096E+02  0.7546771E-02  0.1308141E+00
         -2   -1    0    0    0  501 -0.00000000000E+00  0.00000000000E+00  0.28122636402E+01  0.28122636402E+01  0.00000000000E+00 0.  1.
          2   -1    0    0  501    0  0.00000000000E+00 -0.00000000000E+00 -0.34554714330E+04  0.34554714330E+04  0.00000000000E+00 0. -1.
         24    1    1    2    0    0 -0.34962495193E+02 -0.53102620121E+01 -0.25107587242E+04  0.25122951981E+04  0.80419002446E+02 0.  1.
        -24    1    1    2    0    0  0.34962495193E+02  0.53102620121E+01 -0.94190044515E+03  0.94598849860E+03  0.80419002446E+02 0.  1.
<mgrwt>
<rscale>  0 0.87850958E+02</rscale>
<asrwt>0</asrwt>
<pdfrwt beam="1">  1        2 0.53160815E+00 0.87850958E+02</pdfrwt>
<pdfrwt beam="2">  1       -2 0.43265826E-03 0.87850958E+02</pdfrwt>
<totfact> 0.77919682E+03</totfact>
</mgrwt>
</event>
<event>
 4    1  0.5015492E-001  0.8751998E+02  0.7546771E-02  0.1308971E+00
         -2   -1    0    0    0  501 -0.00000000000E+00  0.00000000000E+00  0.84097805798E+02  0.84097805798E+02  0.00000000000E+00 0.  1.
          2   -1    0    0  501    0  0.00000000000E+00 -0.00000000000E+00 -0.95339496442E+02  0.95339496442E+02  0.00000000000E+00 0. -1.
         24    1    1    2    0    0 -0.67825462399E+01 -0.33860367452E+02  0.13339907727E+02  0.88530765895E+02  0.80419002446E+02 0.  1.
        -24    1    1    2    0    0  0.67825462399E+01  0.33860367452E+02 -0.24581598371E+02  0.90906536345E+02  0.80419002446E+02 0.  1.
<mgrwt>
<rscale>  0 0.87519971E+02</rscale>
<asrwt>0</asrwt>
<pdfrwt beam="1">  1        2 0.14667615E-01 0.87519982E+02</pdfrwt>
<pdfrwt beam="2">  1       -2 0.12938124E-01 0.87519982E+02</pdfrwt>
<totfact> 0.15576419E+04</totfact>
</mgrwt>
</event>
<event>
 4    1  0.5015492E-001  0.1128090E+03  0.7546771E-02  0.1255455E+00
         -2   -1    0    0    0  501 -0.00000000000E+00  0.00000000000E+00  0.35803103043E+02  0.35803103043E+02  0.00000000000E+00 0.  1.
          2   -1    0    0  501    0  0.00000000000E+00 -0.00000000000E+00 -0.80876019330E+03  0.80876019330E+03  0.00000000000E+00 0. -1.
         24    1    1    2    0    0  0.12356888368E+02  0.78140651342E+02 -0.70262961439E+03  0.71162788384E+03  0.80419002446E+02 0. -1.
        -24    1    1    2    0    0 -0.12356888368E+02 -0.78140651342E+02 -0.70327475869E+02  0.13293541251E+03  0.80419002446E+02 0.  1.
<mgrwt>
<rscale>  0 0.11280900E+03</rscale>
<asrwt>0</asrwt>
<pdfrwt beam="1">  1        2 0.12442464E+00 0.11280900E+03</pdfrwt>
<pdfrwt beam="2">  1       -2 0.55081700E-02 0.11280900E+03</pdfrwt>
<totfact> 0.56756535E+03</totfact>
</mgrwt>
</event>
<event>
 4    1  0.5015492E-001  0.8501407E+02  0.7546771E-02  0.1315396E+00
          2   -1    0    0  501    0  0.00000000000E+00  0.00000000000E+00  0.30896813620E+03  0.30896813620E+03  0.00000000000E+00 0. -1.
         -2   -1    0    0    0  501 -0.00000000000E+00 -0.00000000000E+00 -0.23513683931E+02  0.23513683931E+02  0.00000000000E+00 0.  1.
         24    1    1    2    0    0 -0.24131565105E+02  0.13335655501E+02  0.13076911238E+03  0.15597419289E+03  0.80419002446E+02 0.  0.
        -24    1    1    2    0    0  0.24131565105E+02 -0.13335655501E+02  0.15468533989E+03  0.17650762724E+03  0.80419002446E+02 0.  0.
<mgrwt>
<rscale>  0 0.85014057E+02</rscale>
<asrwt>0</asrwt>
<pdfrwt beam="1">  1        2 0.47533557E-01 0.85014068E+02</pdfrwt>
<pdfrwt beam="2">  1       -2 0.36174900E-02 0.85014068E+02</pdfrwt>
<totfact> 0.29826813E+04</totfact>
</mgrwt>
</event>
<event>
 4    1  0.5015492E-001  0.8609759E+02  0.7546771E-02  0.1312587E+00
          2   -1    0    0  501    0  0.00000000000E+00  0.00000000000E+00  0.24663813224E+03  0.24663813224E+03  0.00000000000E+00 0. -1.
         -2   -1    0    0    0  501 -0.00000000000E+00 -0.00000000000E+00 -0.50242248921E+02  0.50242248921E+02  0.00000000000E+00 0.  1.
         24    1    1    2    0    0 -0.18809307270E+02 -0.24326700456E+02  0.19228975045E+03  0.21068493652E+03  0.80419002446E+02 0.  0.
        -24    1    1    2    0    0  0.18809307270E+02  0.24326700456E+02  0.41061328710E+01  0.86195444639E+02  0.80419002446E+02 0. -1.
<mgrwt>
<rscale>  0 0.86097586E+02</rscale>
<asrwt>0</asrwt>
<pdfrwt beam="1">  1        2 0.37944327E-01 0.86097586E+02</pdfrwt>
<pdfrwt beam="2">  1       -2 0.77295769E-02 0.86097586E+02</pdfrwt>
<totfact> 0.12202398E+04</totfact>
</mgrwt>
</event>
<event>
 4    1  0.5015492E-001  0.8080841E+02  0.7546771E-02  0.1326773E+00
          1   -1    0    0  501    0  0.00000000000E+00  0.00000000000E+00  0.89289625352E+03  0.89289625352E+03  0.00000000000E+00 0. -1.
         -1   -1    0    0    0  501 -0.00000000000E+00 -0.00000000000E+00 -0.80455542058E+01  0.80455542058E+01  0.00000000000E+00 0.  1.
         24    1    1    2    0    0  0.30032532250E+01 -0.73323875163E+01  0.30652332191E+03  0.31699612973E+03  0.80419002446E+02 0.  0.
        -24    1    1    2    0    0 -0.30032532250E+01  0.73323875163E+01  0.57832737741E+03  0.58394567800E+03  0.80419002446E+02 0. -1.
<mgrwt>
<rscale>  0 0.80808412E+02</rscale>
<asrwt>0</asrwt>
<pdfrwt beam="1">  1        1 0.13736858E+00 0.80808412E+02</pdfrwt>
<pdfrwt beam="2">  1       -1 0.12377783E-02 0.80808412E+02</pdfrwt>
<totfact> 0.24145791E+04</totfact>
</mgrwt>
</event>
<event>
 4    1  0.5015492E-001  0.8389019E+02  0.7546771E-02  0.1318361E+00
          1   -1    0    0  501    0  0.00000000000E+00  0.00000000000E+00  0.20025366673E+03  0.20025366673E+03  0.00000000000E+00 0. -1.
         -1   -1    0    0    0  501 -0.00000000000E+00 -0.00000000000E+00 -0.44860731374E+02  0.44860731374E+02  0.00000000000E+00 0.  1.
         24    1    1    2    0    0 -0.22900467760E+02  0.67762000734E+01  0.20656068510E+02  0.86395818370E+02  0.80419002446E+02 0. -1.
        -24    1    1    2    0    0  0.22900467760E+02 -0.67762000734E+01  0.13473686684E+03  0.15871857973E+03  0.80419002446E+02 0. -1.
<mgrwt>
<rscale>  0 0.83890192E+02</rscale>
<asrwt>0</asrwt>
<pdfrwt beam="1">  1        1 0.30808256E-01 0.83890192E+02</pdfrwt>
<pdfrwt beam="2">  1       -1 0.69016511E-02 0.83890192E+02</pdfrwt>
<totfact> 0.14124917E+04</totfact>
</mgrwt>
</event>
<event>
 4    1  0.5015492E-001  0.8805147E+02  0.7546771E-02  0.1307640E+00
         -2   -1    0    0    0  501 -0.00000000000E+00  0.00000000000E+00  0.14445143968E+02  0.14445143968E+02  0.00000000000E+00 0.  1.
          2   -1    0    0  501    0  0.00000000000E+00 -0.00000000000E+00 -0.62871128380E+03  0.62871128380E+03  0.00000000000E+00 0. -1.
         24    1    1    2    0    0 -0.34543013029E+02  0.96242542066E+01 -0.43013836950E+03  0.43905817256E+03  0.80419002446E+02 0.  0.
        -24    1    1    2    0    0  0.34543013029E+02 -0.96242542066E+01 -0.18412777033E+03  0.20409825521E+03  0.80419002446E+02 0.  0.
<mgrwt>
<rscale>  0 0.88051473E+02</rscale>
<asrwt>0</asrwt>
<pdfrwt beam="1">  1        2 0.96724818E-01 0.88051473E+02</pdfrwt>
<pdfrwt beam="2">  1       -2 0.22223297E-02 0.88051473E+02</pdfrwt>
<totfact> 0.28392583E+04</totfact>
</mgrwt>
</event>
<event>
 4    1  0.5015492E-001  0.8257368E+02  0.7546771E-02  0.1321902E+00
          2   -1    0    0  501    0  0.00000000000E+00  0.00000000000E+00  0.14889792739E+03  0.14889792739E+03  0.00000000000E+00 0. -1.
         -2   -1    0    0    0  501 -0.00000000000E+00 -0.00000000000E+00 -0.45879874377E+02  0.45879874377E+02  0.00000000000E+00 0.  1.
         24    1    1    2    0    0  0.63027024645E+01  0.17648591828E+02  0.55758311319E+02  0.99636349227E+02  0.80419002446E+02 0. -1.
        -24    1    1    2    0    0 -0.63027024645E+01 -0.17648591828E+02  0.47259741692E+02  0.95141452538E+02  0.80419002446E+02 0.  1.
<mgrwt>
<rscale>  0 0.82573681E+02</rscale>
<asrwt>0</asrwt>
<pdfrwt beam="1">  1        2 0.22907373E-01 0.82573681E+02</pdfrwt>
<pdfrwt beam="2">  1       -2 0.70584423E-02 0.82573681E+02</pdfrwt>
<totfact> 0.23925455E+04</totfact>
</mgrwt>
</event>
<event>
 4    1  0.5015492E-001  0.8322170E+02  0.7546771E-02  0.1320150E+00
         -1   -1    0    0    0  501 -0.00000000000E+00  0.00000000000E+00  0.21035340574E+03  0.21035340574E+03  0.00000000000E+00 0.  1.
          1   -1    0    0  501    0  0.00000000000E+00 -0.00000000000E+00 -0.41504298961E+02  0.41504298961E+02  0.00000000000E+00 0. -1.
         24    1    1    2    0    0 -0.21145672415E+02  0.33905094540E+01  0.14167894522E+03  0.16431303810E+03  0.80419002446E+02 0.  1.
        -24    1    1    2    0    0  0.21145672415E+02 -0.33905094540E+01  0.27170161551E+02  0.87544666595E+02  0.80419002446E+02 0. -1.
<mgrwt>
<rscale>  0 0.83221698E+02</rscale>
<asrwt>0</asrwt>
<pdfrwt beam="1">  1        1 0.63852769E-02 0.83221698E+02</pdfrwt>
<pdfrwt beam="2">  1       -1 0.32362062E-01 0.83221698E+02</pdfrwt>
<totfact> 0.95495065E+03</totfact>
</mgrwt>
</event>
<event>
 4    1  0.5015492E-001  0.9625382E+02  0.7546771E-02  0.1288377E+00
         -1   -1    0    0    0  501 -0.00000000000E+00  0.00000000000E+00  0.53527958788E+01  0.53527958788E+01  0.00000000000E+00 0.  1.
          1   -1    0    0  501    0  0.00000000000E+00 -0.00000000000E+00 -0.19735935139E+04  0.19735935139E+04  0.00000000000E+00 0. -1.
         24    1    1    2    0    0 -0.52133775369E+02 -0.89247802727E+01 -0.63709295030E+03  0.64432307542E+03  0.80419002446E+02 0. -1.
        -24    1    1    2    0    0  0.52133775369E+02  0.89247802727E+01 -0.13311477677E+04  0.13346232343E+04  0.80419002446E+02 0.  1.
<mgrwt>
<rscale>  0 0.96253822E+02</rscale>
<asrwt>0</asrwt>
<pdfrwt beam="1">  1        1 0.30363000E+00 0.96253822E+02</pdfrwt>
<pdfrwt beam="2">  1       -1 0.82350644E-03 0.96253822E+02</pdfrwt>
<totfact> 0.84487025E+03</totfact>
</mgrwt>
</event>
<event>
 4    1  0.5015492E-001  0.8096096E+02  0.7546771E-02  0.1326346E+00
         -2   -1    0    0    0  501 -0.00000000000E+00  0.00000000000E+00  0.11490581528E+03  0.11490581528E+03  0.00000000000E+00 0.  1.
          2   -1    0    0  501    0  0.00000000000E+00 -0.00000000000E+00 -0.78568777074E+02  0.78568777074E+02  0.00000000000E+00 0. -1.
         24    1    1    2    0    0  0.26078173748E+01  0.89811064098E+01 -0.32465125754E+02  0.87227640851E+02  0.80419002446E+02 0. -1.
        -24    1    1    2    0    0 -0.26078173748E+01 -0.89811064098E+01  0.68802163962E+02  0.10624695150E+03  0.80419002446E+02 0.  0.
<mgrwt>
<rscale>  0 0.80960959E+02</rscale>
<asrwt>0</asrwt>
<pdfrwt beam="1">  1        2 0.12087504E-01 0.80960959E+02</pdfrwt>
<pdfrwt beam="2">  1       -2 0.17677818E-01 0.80960959E+02</pdfrwt>
<totfact> 0.11696105E+04</totfact>
</mgrwt>
</event>
<event>
 4    1  0.5015492E-001  0.9330733E+02  0.7546771E-02  0.1295035E+00
         -2   -1    0    0    0  501 -0.00000000000E+00  0.00000000000E+00  0.13994879975E+03  0.13994879975E+03  0.00000000000E+00 0.  1.
          2   -1    0    0  501    0  0.00000000000E+00 -0.00000000000E+00 -0.89953551035E+02  0.89953551035E+02  0.00000000000E+00 0. -1.
         24    1    1    2    0    0 -0.10355441989E+02 -0.46171484395E+02 -0.38840911799E+02  0.10106865752E+03  0.80419002446E+02 0. -1.
        -24    1    1    2    0    0  0.10355441989E+02  0.46171484395E+02  0.88836160515E+02  0.12883369326E+03  0.80419002446E+02 0.  1.
<mgrwt>
<rscale>  0 0.93307326E+02</rscale>
<asrwt>0</asrwt>
<pdfrwt beam="1">  1        2 0.13839008E-01 0.93307326E+02</pdfrwt>
<pdfrwt beam="2">  1       -2 0.21530584E-01 0.93307326E+02</pdfrwt>
<totfact> 0.72774003E+03</totfact>
</mgrwt>
</event>
<event>
 4    1  0.5015492E-001  0.1041095E+03  0.7546771E-02  0.1271884E+00
          2   -1    0    0  501    0  0.00000000000E+00  0.00000000000E+00  0.20655858170E+03  0.20655858170E+03  0.00000000000E+00 0. -1.
         -2   -1    0    0    0  501 -0.00000000000E+00 -0.00000000000E+00 -0.55338804948E+02  0.55338804948E+02  0.00000000000E+00 0.  1.
         24    1    1    2    0    0  0.65887256535E+02 -0.55171372392E+01  0.10540850263E+03  0.14815443887E+03  0.80419002446E+02 0.  0.
        -24    1    1    2    0    0 -0.65887256535E+02  0.55171372392E+01  0.45811274124E+02  0.11374294777E+03  0.80419002446E+02 0.  1.
<mgrwt>
<rscale>  0 0.10410949E+03</rscale>
<asrwt>0</asrwt>
<pdfrwt beam="1">  1        2 0.31778243E-01 0.10410949E+03</pdfrwt>
<pdfrwt beam="2">  1       -2 0.85136624E-02 0.10410949E+03</pdfrwt>
<totfact> 0.12926174E+04</totfact>
</mgrwt>
</event>
<event>
 4    1  0.5015492E-001  0.8370214E+02  0.7546771E-02  0.1318862E+00
          2   -1    0    0  501    0  0.00000000000E+00  0.00000000000E+00  0.12152338706E+04  0.12152338706E+04  0.00000000000E+00 0. -1.
         -2   -1    0    0    0  501 -0.00000000000E+00 -0.00000000000E+00 -0.13039439678E+02  0.13039439678E+02  0.00000000000E+00 0.  1.
         24    1    1    2    0    0  0.15995315950E+02 -0.16822078049E+02  0.10597983326E+04  0.10630985627E+04  0.80419002446E+02 0. -1.
        -24    1    1    2    0    0 -0.15995315950E+02  0.16822078049E+02  0.14239609836E+03  0.16517474754E+03  0.80419002446E+02 0.  0.
<mgrwt>
<rscale>  0 0.83702141E+02</rscale>
<asrwt>0</asrwt>
<pdfrwt beam="1">  1        2 0.18695897E+00 0.83702141E+02</pdfrwt>
<pdfrwt beam="2">  1       -2 0.20060686E-02 0.83702141E+02</pdfrwt>
<totfact> 0.14072557E+04</totfact>
</mgrwt>
</event>
<event>
 4    1  0.5015492E-001  0.1687841E+03  0.7546771E-02  0.1179122E+00
         -1   -1    0    0    0  501 -0.00000000000E+00  0.00000000000E+00  0.18067209691E+02  0.18067209691E+02  0.00000000000E+00 0.  1.
          1   -1    0    0  501    0  0.00000000000E+00 -0.00000000000E+00 -0.17825750913E+04  0.17825750913E+04  0.00000000000E+00 0. -1.
         24    1    1    2    0    0 -0.12556119638E+03  0.79090067111E+02 -0.57634800860E+03  0.60055399068E+03  0.80419002446E+02 0.  1.
        -24    1    1    2    0    0  0.12556119638E+03 -0.79090067111E+02 -0.11881598730E+04  0.12000883103E+04  0.80419002446E+02 0. -1.
<mgrwt>
<rscale>  0 0.16878409E+03</rscale>
<asrwt>0</asrwt>
<pdfrwt beam="1">  1        1 0.27424248E+00 0.16878409E+03</pdfrwt>
<pdfrwt beam="2">  1       -1 0.27795691E-02 0.16878409E+03</pdfrwt>
<totfact> 0.19755724E+03</totfact>
</mgrwt>
</event>
<event>
 4    1  0.5015492E-001  0.8078088E+02  0.7546771E-02  0.1326850E+00
         -2   -1    0    0    0  501 -0.00000000000E+00  0.00000000000E+00  0.48899503327E+02  0.48899503327E+02  0.00000000000E+00 0.  1.
          2   -1    0    0  501    0  0.00000000000E+00 -0.00000000000E+00 -0.13814763236E+03  0.13814763236E+03  0.00000000000E+00 0. -1.
         24    1    1    2    0    0  0.65164871083E+01  0.39836299022E+01 -0.61873418432E+02  0.10175396687E+03  0.80419002446E+02 0.  0.
        -24    1    1    2    0    0 -0.65164871083E+01 -0.39836299022E+01 -0.27374710601E+02  0.85293168814E+02  0.80419002446E+02 0.  0.
<mgrwt>
<rscale>  0 0.80780876E+02</rscale>
<asrwt>0</asrwt>
<pdfrwt beam="1">  1        2 0.21253482E-01 0.80780876E+02</pdfrwt>
<pdfrwt beam="2">  1       -2 0.75230005E-02 0.80780876E+02</pdfrwt>
<totfact> 0.23530100E+04</totfact>
</mgrwt>
</event>
<event>
 4    1  0.5015492E-001  0.8562335E+02  0.7546771E-02  0.1313810E+00
          2   -1    0    0  501    0  0.00000000000E+00  0.00000000000E+00  0.53243015395E+02  0.53243015395E+02  0.00000000000E+00 0. -1.
         -2   -1    0    0    0  501 -0.00000000000E+00 -0.00000000000E+00 -0.17921867391E+03  0.17921867391E+03  0.00000000000E+00 0.  1.
         24    1    1    2    0    0  0.46452226549E+01  0.29026946276E+02 -0.70414876760E+01  0.85912398446E+02  0.80419002446E+02 0. -1.
        -24    1    1    2    0    0 -0.46452226549E+01 -0.29026946276E+02 -0.11893417083E+03  0.14654929085E+03  0.80419002446E+02 0.  1.
<mgrwt>
<rscale>  0 0.85623348E+02</rscale>
<asrwt>0</asrwt>
<pdfrwt beam="1">  1        2 0.81912332E-02 0.85623348E+02</pdfrwt>
<pdfrwt beam="2">  1       -2 0.27572103E-01 0.85623348E+02</pdfrwt>
<totfact> 0.88567650E+03</totfact>
</mgrwt>
</event>
<event>
 4    1  0.5015492E-001  0.9832460E+02  0.7546771E-02  0.1283859E+00
          1   -1    0    0  501    0  0.00000000000E+00  0.00000000000E+00  0.64167654516E+03  0.64167654516E+03  0.00000000000E+00 0. -1.
         -1   -1    0    0    0  501 -0.00000000000E+00 -0.00000000000E+00 -0.24424974441E+02  0.24424974441E+02  0.00000000000E+00 0.  1.
         24    1    1    2    0    0 -0.28463736911E+02 -0.48890964054E+02  0.10246822652E+03  0.14201219696E+03  0.80419002446E+02 0.  1.
        -24    1    1    2    0    0  0.28463736911E+02  0.48890964054E+02  0.51478334420E+03  0.52408932264E+03  0.80419002446E+02 0. -1.
<mgrwt>
<rscale>  0 0.98324598E+02</rscale>
<asrwt>0</asrwt>
<pdfrwt beam="1">  1        1 0.98719456E-01 0.98324598E+02</pdfrwt>
<pdfrwt beam="2">  1       -1 0.37576889E-02 0.98324598E+02</pdfrwt>
<totfact> 0.81113803E+03</totfact>
</mgrwt>
</event>
<event>
 4    1  0.5015492E-001  0.1559404E+03  0.7546771E-02  0.1193358E+00
          2   -1    0    0  501    0  0.00000000000E+00  0.00000000000E+00  0.12852873922E+04  0.12852873922E+04  0.00000000000E+00 0. -1.
         -2   -1    0    0    0  501 -0.00000000000E+00 -0.00000000000E+00 -0.24100751649E+02  0.24100751649E+02  0.00000000000E+00 0.  1.
         24    1    1    2    0    0  0.12864822135E+03  0.36052916087E+02  0.32704526486E+03  0.36232029868E+03  0.80419002446E+02 0.  0.
        -24    1    1    2    0    0 -0.12864822135E+03 -0.36052916087E+02  0.93414137569E+03  0.94706784516E+03  0.80419002446E+02 0.  1.
<mgrwt>
<rscale>  0 0.15594037E+03</rscale>
<asrwt>0</asrwt>
<pdfrwt beam="1">  1        2 0.19773647E+00 0.15594039E+03</pdfrwt>
<pdfrwt beam="2">  1       -2 0.37078090E-02 0.15594039E+03</pdfrwt>
<totfact> 0.54289048E+03</totfact>
</mgrwt>
</event>
<event>
 4    1  0.5015492E-001  0.8086272E+02  0.7546771E-02  0.1326621E+00
         -3   -1    0    0    0  501 -0.00000000000E+00  0.00000000000E+00  0.13774550019E+04  0.13774550019E+04  0.00000000000E+00 0.  1.
          3   -1    0    0  501    0  0.00000000000E+00 -0.00000000000E+00 -0.47729555440E+01  0.47729555440E+01  0.00000000000E+00 0. -1.
         24    1    1    2    0    0  0.69437107920E+01 -0.48317529576E+01  0.63537472428E+03  0.64049966211E+03  0.80419002446E+02 0.  1.
        -24    1    1    2    0    0 -0.69437107920E+01  0.48317529576E+01  0.73730732207E+03  0.74172829533E+03  0.80419002446E+02 0.  0.
<mgrwt>
<rscale>  0 0.80862714E+02</rscale>
<asrwt>0</asrwt>
<pdfrwt beam="1">  1        3 0.73430195E-03 0.80862724E+02</pdfrwt>
<pdfrwt beam="2">  1       -3 0.21191584E+00 0.80862724E+02</pdfrwt>
<totfact> 0.12535303E+03</totfact>
</mgrwt>
</event>
<event>
 4    1  0.5015492E-001  0.8387901E+02  0.7546771E-02  0.1318390E+00
         -2   -1    0    0    0  501 -0.00000000000E+00  0.00000000000E+00  0.46564078333E+01  0.46564078333E+01  0.00000000000E+00 0.  1.
          2   -1    0    0  501    0  0.00000000000E+00 -0.00000000000E+00 -0.15231669569E+04  0.15231669569E+04  0.00000000000E+00 0. -1.
         24    1    1    2    0    0 -0.73765287367E+01 -0.22672886774E+02 -0.82761636429E+03  0.83185607852E+03  0.80419002446E+02 0. -1.
        -24    1    1    2    0    0  0.73765287367E+01  0.22672886774E+02 -0.69089418481E+03  0.69596728625E+03  0.80419002446E+02 0.  1.
<mgrwt>
<rscale>  0 0.83879014E+02</rscale>
<asrwt>0</asrwt>
<pdfrwt beam="1">  1        2 0.23433343E+00 0.83879014E+02</pdfrwt>
<pdfrwt beam="2">  1       -2 0.71637026E-03 0.83879014E+02</pdfrwt>
<totfact> 0.41890802E+04</totfact>
</mgrwt>
</event>
<event>
 4    1  0.5015492E-001  0.8077781E+02  0.7546771E-02  0.1326859E+00
         -2   -1    0    0    0  501 -0.00000000000E+00  0.00000000000E+00  0.13134470462E+04  0.13134470462E+04  0.00000000000E+00 0.  1.
          2   -1    0    0  501    0  0.00000000000E+00 -0.00000000000E+00 -0.52756151568E+01  0.52756151568E+01  0.00000000000E+00 0. -1.
         24    1    1    2    0    0  0.45889475845E+01  0.60646277159E+01  0.49483850693E+03  0.50138827474E+03  0.80419002446E+02 0. -1.
        -24    1    1    2    0    0 -0.45889475845E+01 -0.60646277159E+01  0.81333292412E+03  0.81733438663E+03  0.80419002446E+02 0.  0.
<mgrwt>
<rscale>  0 0.80777807E+02</rscale>
<asrwt>0</asrwt>
<pdfrwt beam="1">  1        2 0.81163415E-03 0.80777807E+02</pdfrwt>
<pdfrwt beam="2">  1       -2 0.20206852E+00 0.80777807E+02</pdfrwt>
<totfact> 0.24623501E+03</totfact>
</mgrwt>
</event>
<event>
 4    1  0.5015492E-001  0.8390524E+02  0.7546771E-02  0.1318321E+00
         -2   -1    0    0    0  501 -0.00000000000E+00  0.00000000000E+00  0.20947359443E+02  0.20947359443E+02  0.00000000000E+00 0.  1.
          2   -1    0    0  501    0  0.00000000000E+00 -0.00000000000E+00 -0.40528796587E+03  0.40528796587E+03  0.00000000000E+00 0. -1.
         24    1    1    2    0    0 -0.29926256977E+01 -0.23746962087E+02 -0.28023471577E+03  0.29252621403E+03  0.80419002446E+02 0. -1.
        -24    1    1    2    0    0  0.29926256977E+01  0.23746962087E+02 -0.10410589066E+03  0.13370911129E+03  0.80419002446E+02 0. -1.
<mgrwt>
<rscale>  0 0.83905244E+02</rscale>
<asrwt>0</asrwt>
<pdfrwt beam="1">  1        2 0.62351994E-01 0.83905244E+02</pdfrwt>
<pdfrwt beam="2">  1       -2 0.32226707E-02 0.83905244E+02</pdfrwt>
<totfact> 0.26544386E+04</totfact>
</mgrwt>
</event>
<event>
 4    1  0.5015492E-001  0.1099620E+03  0.7546771E-02  0.1260640E+00
          2   -1    0    0  501    0  0.00000000000E+00  0.00000000000E+00  0.70677336196E+02  0.70677336196E+02  0.00000000000E+00 0. -1.
         -2   -1    0    0    0  501 -0.00000000000E+00 -0.00000000000E+00 -0.17109525426E+03  0.17109525426E+03  0.00000000000E+00 0.  1.
         24    1    1    2    0    0  0.64860110387E+02  0.37650990600E+02 -0.49160381860E+02  0.12045077879E+03  0.80419002446E+02 0.  1.
        -24    1    1    2    0    0 -0.64860110387E+02 -0.37650990600E+02 -0.51257536199E+02  0.12132181166E+03  0.80419002446E+02 0. -1.
<mgrwt>
<rscale>  0 0.10996203E+03</rscale>
<asrwt>0</asrwt>
<pdfrwt beam="1">  1        2 0.10873436E-01 0.10996203E+03</pdfrwt>
<pdfrwt beam="2">  1       -2 0.26322346E-01 0.10996203E+03</pdfrwt>
<totfact> 0.69533126E+03</totfact>
</mgrwt>
</event>
<event>
 4    1  0.5015492E-001  0.8651474E+02  0.7546771E-02  0.1311518E+00
          2   -1    0    0  501    0  0.00000000000E+00  0.00000000000E+00  0.15165169749E+04  0.15165169749E+04  0.00000000000E+00 0. -1.
         -2   -1    0    0    0  501 -0.00000000000E+00 -0.00000000000E+00 -0.65695307868E+01  0.65695307868E+01  0.00000000000E+00 0.  1.
         24    1    1    2    0    0 -0.31870571614E+02 -0.13602398875E+01  0.11347736570E+04  0.11380668048E+04  0.80419002446E+02 0. -1.
        -24    1    1    2    0    0  0.31870571614E+02  0.13602398875E+01  0.37517378709E+03  0.38501970087E+03  0.80419002446E+02 0.  1.
<mgrwt>
<rscale>  0 0.86514736E+02</rscale>
<asrwt>0</asrwt>
<pdfrwt beam="1">  1        2 0.23331003E+00 0.86514736E+02</pdfrwt>
<pdfrwt beam="2">  1       -2 0.10106982E-02 0.86514736E+02</pdfrwt>
<totfact> 0.26062163E+04</totfact>
</mgrwt>
</event>
<event>
 4    1  0.5015492E-001  0.8060093E+02  0.7546771E-02  0.1327355E+00
         -1   -1    0    0    0  501 -0.00000000000E+00  0.00000000000E+00  0.34929165098E+03  0.34929165098E+03  0.00000000000E+00 0.  1.
          1   -1    0    0  501    0  0.00000000000E+00 -0.00000000000E+00 -0.20084115048E+02  0.20084115048E+02  0.00000000000E+00 0. -1.
         24    1    1    2    0    0 -0.54066180276E+01  0.25093595977E+00  0.21482385257E+03  0.22944672165E+03  0.80419002446E+02 0.  1.
        -24    1    1    2    0    0  0.54066180276E+01 -0.25093595977E+00  0.11438368336E+03  0.13992904438E+03  0.80419002446E+02 0.  0.
<mgrwt>
<rscale>  0 0.80600933E+02</rscale>
<asrwt>0</asrwt>
<pdfrwt beam="1">  1        1 0.30898641E-02 0.80600933E+02</pdfrwt>
<pdfrwt beam="2">  1       -1 0.53737173E-01 0.80600933E+02</pdfrwt>
<totfact> 0.10471293E+04</totfact>
</mgrwt>
</event>
<event>
 4    1  0.5015492E-001  0.8528370E+02  0.7546771E-02  0.1314692E+00
          2   -1    0    0  501    0  0.00000000000E+00  0.00000000000E+00  0.12736340580E+04  0.12736340580E+04  0.00000000000E+00 0. -1.
         -2   -1    0    0    0  501 -0.00000000000E+00 -0.00000000000E+00 -0.63090745579E+01  0.63090745579E+01  0.00000000000E+00 0.  1.
         24    1    1    2    0    0  0.21430783265E+02  0.18622959068E+02  0.83075667485E+03  0.83512272262E+03  0.80419002446E+02 0. -1.
        -24    1    1    2    0    0 -0.21430783265E+02 -0.18622959068E+02  0.43656830864E+03  0.44482040998E+03  0.80419002446E+02 0.  1.
<mgrwt>
<rscale>  0 0.85283697E+02</rscale>
<asrwt>0</asrwt>
<pdfrwt beam="1">  1        2 0.19594350E+00 0.85283697E+02</pdfrwt>
<pdfrwt beam="2">  1       -2 0.97062787E-03 0.85283697E+02</pdfrwt>
<totfact> 0.36825409E+04</totfact>
</mgrwt>
</event>
<event>
 4    1  0.5015492E-001  0.8593309E+02  0.7546771E-02  0.1313010E+00
         -1   -1    0    0    0  501 -0.00000000000E+00  0.00000000000E+00  0.15297567015E+02  0.15297567015E+02  0.00000000000E+00 0.  1.
          1   -1    0    0  501    0  0.00000000000E+00 -0.00000000000E+00 -0.10311646525E+04  0.10311646525E+04  0.00000000000E+00 0. -1.
         24    1    1    2    0    0 -0.13800439089E+02 -0.26959732445E+02 -0.12634567113E+03  0.15279961996E+03  0.80419002446E+02 0.  1.
        -24    1    1    2    0    0  0.13800439089E+02  0.26959732445E+02 -0.88952141437E+03  0.89366259957E+03  0.80419002446E+02 0. -1.
<mgrwt>
<rscale>  0 0.85933086E+02</rscale>
<asrwt>0</asrwt>
<pdfrwt beam="1">  1        1 0.15864073E+00 0.85933086E+02</pdfrwt>
<pdfrwt beam="2">  1       -1 0.23534717E-02 0.85933086E+02</pdfrwt>
<totfact> 0.77258000E+03</totfact>
</mgrwt>
</event>
<event>
 4    1  0.5015492E-001  0.8675871E+02  0.7546771E-02  0.1310896E+00
          3   -1    0    0  501    0  0.00000000000E+00  0.00000000000E+00  0.12682209043E+03  0.12682209043E+03  0.00000000000E+00 0. -1.
         -3   -1    0    0    0  501 -0.00000000000E+00 -0.00000000000E+00 -0.60423018841E+02  0.60423018841E+02  0.00000000000E+00 0.  1.
         24    1    1    2    0    0 -0.26382194145E+02 -0.19074533952E+02  0.20731704985E+02  0.89201331601E+02  0.80419002446E+02 0. -1.
        -24    1    1    2    0    0  0.26382194145E+02  0.19074533952E+02  0.45667366607E+02  0.98043777674E+02  0.80419002446E+02 0.  0.
<mgrwt>
<rscale>  0 0.86758711E+02</rscale>
<asrwt>0</asrwt>
<pdfrwt beam="1">  1        3 0.19511091E-01 0.86758711E+02</pdfrwt>
<pdfrwt beam="2">  1       -3 0.92958491E-02 0.86758711E+02</pdfrwt>
<totfact> 0.40546009E+03</totfact>
</mgrwt>
</event>
<event>
 4    1  0.5015492E-001  0.8277116E+02  0.7546771E-02  0.1321366E+00
          1   -1    0    0  501    0  0.00000000000E+00  0.00000000000E+00  0.83347589743E+02  0.83347589743E+02  0.00000000000E+00 0. -1.
         -1   -1    0    0    0  501 -0.00000000000E+00 -0.00000000000E+00 -0.19013036177E+03  0.19013036177E+03  0.00000000000E+00 0.  1.
         24    1    1    2    0    0 -0.21219348445E+01 -0.19476811787E+02 -0.15641599793E+03  0.17696618086E+03  0.80419002446E+02 0.  1.
        -24    1    1    2    0    0  0.21219348445E+01  0.19476811787E+02  0.49633225911E+02  0.96511770648E+02  0.80419002446E+02 0. -1.
<mgrwt>
<rscale>  0 0.82771159E+02</rscale>
<asrwt>0</asrwt>
<pdfrwt beam="1">  1        1 0.12822706E-01 0.82771159E+02</pdfrwt>
<pdfrwt beam="2">  1       -1 0.29250825E-01 0.82771159E+02</pdfrwt>
<totfact> 0.45232382E+03</totfact>
</mgrwt>
</event>
<event>
 4    1  0.5015492E-001  0.9384092E+02  0.7546771E-02  0.1293808E+00
          1   -1    0    0  501    0  0.00000000000E+00  0.00000000000E+00  0.47075111183E+02  0.47075111183E+02  0.00000000000E+00 0. -1.
         -1   -1    0    0    0  501 -0.00000000000E+00 -0.00000000000E+00 -0.27509651179E+03  0.27509651179E+03  0.00000000000E+00 0.  1.
         24    1    1    2    0    0  0.86369769926E+01 -0.47584715427E+02 -0.20513478039E+03  0.22558013342E+03  0.80419002446E+02 0.  1.
        -24    1    1    2    0    0 -0.86369769926E+01  0.47584715427E+02 -0.22886620211E+02  0.96591489547E+02  0.80419002446E+02 0. -1.
<mgrwt>
<rscale>  0 0.93840921E+02</rscale>
<asrwt>0</asrwt>
<pdfrwt beam="1">  1        1 0.72423249E-02 0.93840921E+02</pdfrwt>
<pdfrwt beam="2">  1       -1 0.42322540E-01 0.93840921E+02</pdfrwt>
<totfact> 0.51548632E+03</totfact>
</mgrwt>
</event>
<event>
 4    1  0.5015492E-001  0.8262299E+02  0.7546771E-02  0.1321768E+00
         -1   -1    0    0    0  501 -0.00000000000E+00  0.00000000000E+00  0.17214614953E+03  0.17214614953E+03  0.00000000000E+00 0.  1.
          1   -1    0    0  501    0  0.00000000000E+00 -0.00000000000E+00 -0.34901160331E+03  0.34901160331E+03  0.00000000000E+00 0. -1.
         24    1    1    2    0    0  0.18410385057E+02 -0.45167333920E+01  0.15689608030E+03  0.17732156983E+03  0.80419002446E+02 0.  1.
        -24    1    1    2    0    0 -0.18410385057E+02  0.45167333920E+01 -0.33376153409E+03  0.34383618301E+03  0.80419002446E+02 0. -1.
<mgrwt>
<rscale>  0 0.82622994E+02</rscale>
<asrwt>0</asrwt>
<pdfrwt beam="1">  1        1 0.53694093E-01 0.82622994E+02</pdfrwt>
<pdfrwt beam="2">  1       -1 0.26484023E-01 0.82622994E+02</pdfrwt>
<totfact> 0.90211011E+02</totfact>
</mgrwt>
</event>
<event>
 4    1  0.5015492E-001  0.8095925E+02  0.7546771E-02  0.1326351E+00
         -2   -1    0    0    0  501 -0.00000000000E+00  0.00000000000E+00  0.95261758961E+01  0.95261758961E+01  0.00000000000E+00 0.  1.
          2   -1    0    0  501    0  0.00000000000E+00 -0.00000000000E+00 -0.71303951942E+03  0.71303951942E+03  0.00000000000E+00 0. -1.
         24    1    1    2    0    0 -0.85731655259E+01 -0.36988079389E+01 -0.28410933786E+03  0.29541921428E+03  0.80419002446E+02 0.  0.
        -24    1    1    2    0    0  0.85731655259E+01  0.36988079389E+01 -0.41940400566E+03  0.42714648104E+03  0.80419002446E+02 0.  0.
<mgrwt>
<rscale>  0 0.80959236E+02</rscale>
<asrwt>0</asrwt>
<pdfrwt beam="1">  1        2 0.10969841E+00 0.80959246E+02</pdfrwt>
<pdfrwt beam="2">  1       -2 0.14655652E-02 0.80959246E+02</pdfrwt>
<totfact> 0.44140145E+04</totfact>
</mgrwt>
</event>
<event>
 4    1  0.5015492E-001  0.1031256E+03  0.7546771E-02  0.1273857E+00
         -1   -1    0    0    0  501 -0.00000000000E+00  0.00000000000E+00  0.85901351119E+03  0.85901351119E+03  0.00000000000E+00 0.  1.
          1   -1    0    0  501    0  0.00000000000E+00 -0.00000000000E+00 -0.57306057128E+02  0.57306057128E+02  0.00000000000E+00 0. -1.
         24    1    1    2    0    0 -0.19799309318E+02 -0.61446413718E+02  0.80651555974E+03  0.81308193835E+03  0.80419002446E+02 0.  1.
        -24    1    1    2    0    0  0.19799309318E+02  0.61446413718E+02 -0.48081056751E+01  0.10323762997E+03  0.80419002446E+02 0. -1.
<mgrwt>
<rscale>  0 0.10312560E+03</rscale>
<asrwt>0</asrwt>
<pdfrwt beam="1">  1        1 0.88163171E-02 0.10312560E+03</pdfrwt>
<pdfrwt beam="2">  1       -1 0.13215592E+00 0.10312560E+03</pdfrwt>
<totfact> 0.39765244E+02</totfact>
</mgrwt>
</event>
<event>
 4    1  0.5015492E-001  0.8051665E+02  0.7546771E-02  0.1327592E+00
          2   -1    0    0  501    0  0.00000000000E+00  0.00000000000E+00  0.19022606358E+02  0.19022606358E+02  0.00000000000E+00 0. -1.
         -2   -1    0    0    0  501 -0.00000000000E+00 -0.00000000000E+00 -0.39243653470E+03  0.39243653470E+03  0.00000000000E+00 0.  1.
         24    1    1    2    0    0 -0.92060152244E+00  0.38558052562E+01 -0.11208190286E+03  0.13800465080E+03  0.80419002446E+02 0.  0.
        -24    1    1    2    0    0  0.92060152244E+00 -0.38558052562E+01 -0.26133202548E+03  0.27345449025E+03  0.80419002446E+02 0.  1.
<mgrwt>
<rscale>  0 0.80516649E+02</rscale>
<asrwt>0</asrwt>
<pdfrwt beam="1">  1        2 0.29265548E-02 0.80516649E+02</pdfrwt>
<pdfrwt beam="2">  1       -2 0.60374852E-01 0.80516649E+02</pdfrwt>
<totfact> 0.75350995E+03</totfact>
</mgrwt>
</event>
<event>
 4    1  0.5015492E-001  0.8540132E+02  0.7546771E-02  0.1314386E+00
         -1   -1    0    0    0  501 -0.00000000000E+00  0.00000000000E+00  0.27871389269E+02  0.27871389269E+02  0.00000000000E+00 0.  1.
          1   -1    0    0  501    0  0.00000000000E+00 -0.00000000000E+00 -0.28132569540E+03  0.28132569540E+03  0.00000000000E+00 0. -1.
         24    1    1    2    0    0  0.19368103447E+02  0.21237862187E+02 -0.85873209169E+02  0.12110984365E+03  0.80419002446E+02 0.  1.
        -24    1    1    2    0    0 -0.19368103447E+02 -0.21237862187E+02 -0.16758109696E+03  0.18808724102E+03  0.80419002446E+02 0. -1.
<mgrwt>
<rscale>  0 0.85401324E+02</rscale>
<asrwt>0</asrwt>
<pdfrwt beam="1">  1        1 0.43280877E-01 0.85401324E+02</pdfrwt>
<pdfrwt beam="2">  1       -1 0.42879060E-02 0.85401324E+02</pdfrwt>
<totfact> 0.18782238E+04</totfact>
</mgrwt>
</event>
<event>
 4    1  0.5015492E-001  0.8453962E+02  0.7546771E-02  0.1316641E+00
          1   -1    0    0  501    0  0.00000000000E+00  0.00000000000E+00  0.64423375863E+01  0.64423375863E+01  0.00000000000E+00 0. -1.
         -1   -1    0    0    0  501 -0.00000000000E+00 -0.00000000000E+00 -0.11184423550E+04  0.11184423550E+04  0.00000000000E+00 0.  1.
         24    1    1    2    0    0  0.51876042550E+01 -0.25550334328E+02 -0.60665139830E+03  0.61251356380E+03  0.80419002446E+02 0.  1.
        -24    1    1    2    0    0 -0.51876042550E+01  0.25550334328E+02 -0.50534861914E+03  0.51237112881E+03  0.80419002446E+02 0. -1.
<mgrwt>
<rscale>  0 0.84539617E+02</rscale>
<asrwt>0</asrwt>
<pdfrwt beam="1">  1        1 0.99112882E-03 0.84539617E+02</pdfrwt>
<pdfrwt beam="2">  1       -1 0.17206806E+00 0.84539617E+02</pdfrwt>
<totfact> 0.39405012E+03</totfact>
</mgrwt>
</event>
<event>
 4    1  0.5015492E-001  0.1041464E+03  0.7546771E-02  0.1271811E+00
          1   -1    0    0  501    0  0.00000000000E+00  0.00000000000E+00  0.14392592997E+04  0.14392592997E+04  0.00000000000E+00 0. -1.
         -1   -1    0    0    0  501 -0.00000000000E+00 -0.00000000000E+00 -0.34305239690E+02  0.34305239690E+02  0.00000000000E+00 0.  1.
         24    1    1    2    0    0 -0.54618196030E+02 -0.37364483609E+02  0.51634727742E+02  0.11624376558E+03  0.80419002446E+02 0.  1.
        -24    1    1    2    0    0  0.54618196030E+02  0.37364483609E+02  0.13533193323E+04  0.13573207738E+04  0.80419002446E+02 0. -1.
<mgrwt>
<rscale>  0 0.10414638E+03</rscale>
<asrwt>0</asrwt>
<pdfrwt beam="1">  1        1 0.22142446E+00 0.10414638E+03</pdfrwt>
<pdfrwt beam="2">  1       -1 0.52777303E-02 0.10414638E+03</pdfrwt>
<totfact> 0.12828718E+03</totfact>
</mgrwt>
</event>
<event>
 4    1  0.5015492E-001  0.8171874E+02  0.7546771E-02  0.1324243E+00
          2   -1    0    0  501    0  0.00000000000E+00  0.00000000000E+00  0.14178705531E+02  0.14178705531E+02  0.00000000000E+00 0. -1.
         -2   -1    0    0    0  501 -0.00000000000E+00 -0.00000000000E+00 -0.47184951923E+03  0.47184951923E+03  0.00000000000E+00 0.  1.
         24    1    1    2    0    0 -0.11037646285E+02  0.94290328145E+01 -0.21843112147E+03  0.23321686705E+03  0.80419002446E+02 0.  1.
        -24    1    1    2    0    0  0.11037646285E+02 -0.94290328145E+01 -0.23923969223E+03  0.25281135771E+03  0.80419002446E+02 0.  0.
<mgrwt>
<rscale>  0 0.81718739E+02</rscale>
<asrwt>0</asrwt>
<pdfrwt beam="1">  1        2 0.21813393E-02 0.81718739E+02</pdfrwt>
<pdfrwt beam="2">  1       -2 0.72592235E-01 0.81718739E+02</pdfrwt>
<totfact> 0.76134990E+03</totfact>
</mgrwt>
</event>
<event>
 4    1  0.5015492E-001  0.8177180E+02  0.7546771E-02  0.1324097E+00
          2   -1    0    0  501    0  0.00000000000E+00  0.00000000000E+00  0.32543323747E+03  0.32543323747E+03  0.00000000000E+00 0. -1.
         -2   -1    0    0    0  501 -0.00000000000E+00 -0.00000000000E+00 -0.21908779873E+02  0.21908779873E+02  0.00000000000E+00 0.  1.
         24    1    1    2    0    0  0.14525308464E+02 -0.29028203831E+01  0.19506304652E+03  0.21150938283E+03  0.80419002446E+02 0. -1.
        -24    1    1    2    0    0 -0.14525308464E+02  0.29028203831E+01  0.10846141108E+03  0.13583263452E+03  0.80419002446E+02 0.  1.
<mgrwt>
<rscale>  0 0.81771798E+02</rscale>
<asrwt>0</asrwt>
<pdfrwt beam="1">  1        2 0.50066649E-01 0.81771798E+02</pdfrwt>
<pdfrwt beam="2">  1       -2 0.33705817E-02 0.81771798E+02</pdfrwt>
<totfact> 0.31180466E+04</totfact>
</mgrwt>
</event>
<event>
 4    1  0.5015492E-001  0.9588691E+02  0.7546771E-02  0.1289191E+00
         -1   -1    0    0    0  501 -0.00000000000E+00  0.00000000000E+00  0.12152148773E+03  0.12152148773E+03  0.00000000000E+00 0.  1.
          1   -1    0    0  501    0  0.00000000000E+00 -0.00000000000E+00 -0.87620642448E+02  0.87620642448E+02  0.00000000000E+00 0. -1.
         24    1    1    2    0    0 -0.51908712265E+02 -0.57070179883E+01  0.55586040432E+02  0.11083369663E+03  0.80419002446E+02 0.  1.
        -24    1    1    2    0    0  0.51908712265E+02  0.57070179883E+01 -0.21685195151E+02  0.98308433547E+02  0.80419002446E+02 0. -1.
<mgrwt>
<rscale>  0 0.95886915E+02</rscale>
<asrwt>0</asrwt>
<pdfrwt beam="1">  1        1 0.13480099E-01 0.95886915E+02</pdfrwt>
<pdfrwt beam="2">  1       -1 0.18695614E-01 0.95886915E+02</pdfrwt>
<totfact> 0.88412046E+03</totfact>
</mgrwt>
</event>
<event>
 4    1  0.5015492E-001  0.1205313E+03  0.7546771E-02  0.1242223E+00
          1   -1    0    0  501    0  0.00000000000E+00  0.00000000000E+00  0.32306242193E+03  0.32306242193E+03  0.00000000000E+00 0. -1.
         -1   -1    0    0    0  501 -0.00000000000E+00 -0.00000000000E+00 -0.45058374719E+02  0.45058374719E+02  0.00000000000E+00 0.  1.
         24    1    1    2    0    0  0.89536260155E+02 -0.66210883136E+01  0.13080492008E+03  0.17786996307E+03  0.80419002446E+02 0.  0.
        -24    1    1    2    0    0 -0.89536260155E+02  0.66210883136E+01  0.14719912714E+03  0.19025083358E+03  0.80419002446E+02 0.  0.
<mgrwt>
<rscale>  0 0.12053131E+03</rscale>
<asrwt>0</asrwt>
<pdfrwt beam="1">  1        1 0.49701910E-01 0.12053131E+03</pdfrwt>
<pdfrwt beam="2">  1       -1 0.69320579E-02 0.12053131E+03</pdfrwt>
<totfact> 0.80579872E+03</totfact>
</mgrwt>
</event>
<event>
 4    1  0.5015492E-001  0.8642512E+02  0.7546771E-02  0.1311747E+00
          2   -1    0    0  501    0  0.00000000000E+00  0.00000000000E+00  0.54990553770E+02  0.54990553770E+02  0.00000000000E+00 0. -1.
         -2   -1    0    0    0  501 -0.00000000000E+00 -0.00000000000E+00 -0.13789400646E+03  0.13789400646E+03  0.00000000000E+00 0.  1.
         24    1    1    2    0    0  0.26200602650E+02 -0.17765513327E+02 -0.29649161825E+02  0.91369435777E+02  0.80419002446E+02 0. -1.
        -24    1    1    2    0    0 -0.26200602650E+02  0.17765513327E+02 -0.53254290866E+02  0.10151512445E+03  0.80419002446E+02 0.  1.
<mgrwt>
<rscale>  0 0.86425118E+02</rscale>
<asrwt>0</asrwt>
<pdfrwt beam="1">  1        2 0.84600853E-02 0.86425118E+02</pdfrwt>
<pdfrwt beam="2">  1       -2 0.21214462E-01 0.86425118E+02</pdfrwt>
<totfact> 0.13371800E+04</totfact>
</mgrwt>
</event>
<event>
 4    1  0.5015492E-001  0.8470035E+02  0.7546771E-02  0.1316218E+00
         -3   -1    0    0    0  501 -0.00000000000E+00  0.00000000000E+00  0.10675109964E+03  0.10675109964E+03  0.00000000000E+00 0.  1.
          3   -1    0    0  501    0  0.00000000000E+00 -0.00000000000E+00 -0.67558875385E+02  0.67558875385E+02  0.00000000000E+00 0. -1.
         24    1    1    2    0    0  0.23426770488E+02  0.12574573006E+02  0.25908747510E+02  0.88574333831E+02  0.80419002446E+02 0.  0.
        -24    1    1    2    0    0 -0.23426770488E+02 -0.12574573006E+02  0.13283476744E+02  0.85735641192E+02  0.80419002446E+02 0.  1.
<mgrwt>
<rscale>  0 0.84700351E+02</rscale>
<asrwt>0</asrwt>
<pdfrwt beam="1">  1        3 0.10393673E-01 0.84700351E+02</pdfrwt>
<pdfrwt beam="2">  1       -3 0.16423246E-01 0.84700351E+02</pdfrwt>
<totfact> 0.45207652E+03</totfact>
</mgrwt>
</event>
<event>
 4    1  0.5015492E-001  0.1061636E+03  0.7546771E-02  0.1267844E+00
          1   -1    0    0  501    0  0.00000000000E+00  0.00000000000E+00  0.14475216149E+04  0.14475216149E+04  0.00000000000E+00 0. -1.
         -1   -1    0    0    0  501 -0.00000000000E+00 -0.00000000000E+00 -0.94991544124E+01  0.94991544124E+01  0.00000000000E+00 0.  1.
         24    1    1    2    0    0 -0.50134222508E+02 -0.47854500409E+02  0.40965083130E+03  0.42318378160E+03  0.80419002446E+02 0.  1.
        -24    1    1    2    0    0  0.50134222508E+02  0.47854500409E+02  0.10283716292E+04  0.10338369877E+04  0.80419002446E+02 0. -1.
<mgrwt>
<rscale>  0 0.10616360E+03</rscale>
<asrwt>0</asrwt>
<pdfrwt beam="1">  1        1 0.22269546E+00 0.10616360E+03</pdfrwt>
<pdfrwt beam="2">  1       -1 0.14614095E-02 0.10616360E+03</pdfrwt>
<totfact> 0.81073891E+03</totfact>
</mgrwt>
</event>
<event>
 4    1  0.5015492E-001  0.8308924E+02  0.7546771E-02  0.1320506E+00
          4   -1    0    0  501    0  0.00000000000E+00  0.00000000000E+00  0.93229232666E+02  0.93229232666E+02  0.00000000000E+00 0. -1.
         -4   -1    0    0    0  501 -0.00000000000E+00 -0.00000000000E+00 -0.47187313805E+03  0.47187313805E+03  0.00000000000E+00 0.  1.
         24    1    1    2    0    0 -0.12411027566E+02 -0.16809869945E+02  0.70112932907E+02  0.10871818913E+03  0.80419002446E+02 0. -1.
        -24    1    1    2    0    0  0.12411027566E+02  0.16809869945E+02 -0.44875683829E+03  0.45638418158E+03  0.80419002446E+02 0.  1.
<mgrwt>
<rscale>  0 0.83089237E+02</rscale>
<asrwt>0</asrwt>
<pdfrwt beam="1">  1        4 0.14342959E-01 0.83089237E+02</pdfrwt>
<pdfrwt beam="2">  1       -4 0.72595867E-01 0.83089237E+02</pdfrwt>
<totfact> 0.10997361E+02</totfact>
</mgrwt>
</event>
<event>
 4    1  0.5015492E-001  0.9714708E+02  0.7546771E-02  0.1286412E+00
         -1   -1    0    0    0  501 -0.00000000000E+00  0.00000000000E+00  0.18924164428E+03  0.18924164428E+03  0.00000000000E+00 0.  1.
          1   -1    0    0  501    0  0.00000000000E+00 -0.00000000000E+00 -0.15736675534E+03  0.15736675534E+03  0.00000000000E+00 0. -1.
         24    1    1    2    0    0  0.49740929162E+02 -0.22275083211E+02  0.15917255075E+03  0.18647642272E+03  0.80419002446E+02 0.  1.
        -24    1    1    2    0    0 -0.49740929162E+02  0.22275083211E+02 -0.12729766181E+03  0.16013197689E+03  0.80419002446E+02 0. -1.
<mgrwt>
<rscale>  0 0.97147081E+02</rscale>
<asrwt>0</asrwt>
<pdfrwt beam="1">  1        1 0.24210270E-01 0.97147081E+02</pdfrwt>
<pdfrwt beam="2">  1       -1 0.29114099E-01 0.97147081E+02</pdfrwt>
<totfact> 0.20596772E+03</totfact>
</mgrwt>
</event>
<event>
 4    1  0.5015492E-001  0.8483021E+02  0.7546771E-02  0.1315877E+00
         -2   -1    0    0    0  501 -0.00000000000E+00  0.00000000000E+00  0.30564326903E+03  0.30564326903E+03  0.00000000000E+00 0.  1.
          2   -1    0    0  501    0  0.00000000000E+00 -0.00000000000E+00 -0.13731110851E+03  0.13731110851E+03  0.00000000000E+00 0. -1.
         24    1    1    2    0    0  0.22977707100E+02  0.14176533091E+02 -0.11743084394E+03  0.14486603528E+03  0.80419002446E+02 0. -1.
        -24    1    1    2    0    0 -0.22977707100E+02 -0.14176533091E+02  0.28576300447E+03  0.29808834226E+03  0.80419002446E+02 0.  1.
<mgrwt>
<rscale>  0 0.84830213E+02</rscale>
<asrwt>0</asrwt>
<pdfrwt beam="1">  1        2 0.21124786E-01 0.84830213E+02</pdfrwt>
<pdfrwt beam="2">  1       -2 0.47022041E-01 0.84830213E+02</pdfrwt>
<totfact> 0.10922647E+03</totfact>
</mgrwt>
</event>
<event>
 4    1  0.5015492E-001  0.9800299E+02  0.7546771E-02  0.1284552E+00
         -2   -1    0    0    0  501 -0.00000000000E+00  0.00000000000E+00  0.96955153551E+01  0.96955153551E+01  0.00000000000E+00 0.  1.
          2   -1    0    0  501    0  0.00000000000E+00 -0.00000000000E+00 -0.32341297842E+04  0.32341297842E+04  0.00000000000E+00 0. -1.
         24    1    1    2    0    0  0.49849570477E+02 -0.25541922526E+02 -0.29630841049E+04  0.29647043694E+04  0.80419002446E+02 0. -1.
        -24    1    1    2    0    0 -0.49849570477E+02  0.25541922526E+02 -0.26135016396E+03  0.27912093013E+03  0.80419002446E+02 0.  1.
<mgrwt>
<rscale>  0 0.98002987E+02</rscale>
<asrwt>0</asrwt>
<pdfrwt beam="1">  1        2 0.49755901E+00 0.98002987E+02</pdfrwt>
<pdfrwt beam="2">  1       -2 0.14916160E-02 0.98002987E+02</pdfrwt>
<totfact> 0.18539634E+03</totfact>
</mgrwt>
</event>
<event>
 4    1  0.5015492E-001  0.1007483E+03  0.7546771E-02  0.1278730E+00
         -3   -1    0    0    0  501 -0.00000000000E+00  0.00000000000E+00  0.81603598195E+02  0.81603598195E+02  0.00000000000E+00 0.  1.
          3   -1    0    0  501    0  0.00000000000E+00 -0.00000000000E+00 -0.20532020416E+03  0.20532020416E+03  0.00000000000E+00 0. -1.
         24    1    1    2    0    0 -0.51308892812E+02 -0.32409778973E+02  0.28213977768E+02  0.10462428375E+03  0.80419002446E+02 0.  0.
        -24    1    1    2    0    0  0.51308892812E+02  0.32409778973E+02 -0.15193058373E+03  0.18229951860E+03  0.80419002446E+02 0.  0.
<mgrwt>
<rscale>  0 0.10074826E+03</rscale>
<asrwt>0</asrwt>
<pdfrwt beam="1">  1        3 0.31587723E-01 0.10074826E+03</pdfrwt>
<pdfrwt beam="2">  1       -3 0.12554400E-01 0.10074826E+03</pdfrwt>
<totfact> 0.10744914E+03</totfact>
</mgrwt>
</event>
<event>
 4    1  0.5015492E-001  0.8961423E+02  0.7546771E-02  0.1303789E+00
         -2   -1    0    0    0  501 -0.00000000000E+00  0.00000000000E+00  0.15994018215E+02  0.15994018215E+02  0.00000000000E+00 0.  1.
          2   -1    0    0  501    0  0.00000000000E+00 -0.00000000000E+00 -0.11055250801E+04  0.11055250801E+04  0.00000000000E+00 0. -1.
         24    1    1    2    0    0 -0.25105422451E+02 -0.30548519243E+02 -0.95905271523E+03  0.96323040900E+03  0.80419002446E+02 0.  0.
        -24    1    1    2    0    0  0.25105422451E+02  0.30548519243E+02 -0.13047834660E+03  0.15828868927E+03  0.80419002446E+02 0.  0.
<mgrwt>
<rscale>  0 0.89614230E+02</rscale>
<asrwt>0</asrwt>
<pdfrwt beam="1">  1        2 0.17008083E+00 0.89614230E+02</pdfrwt>
<pdfrwt beam="2">  1       -2 0.24606175E-02 0.89614230E+02</pdfrwt>
<totfact> 0.12107503E+04</totfact>
</mgrwt>
</event>
<event>
 4    1  0.5015492E-001  0.1309837E+03  0.7546771E-02  0.1226003E+00
         -2   -1    0    0    0  501 -0.00000000000E+00  0.00000000000E+00  0.19057843921E+02  0.19057843921E+02  0.00000000000E+00 0.  1.
          2   -1    0    0  501    0  0.00000000000E+00 -0.00000000000E+00 -0.11610598323E+04  0.11610598323E+04  0.00000000000E+00 0. -1.
         24    1    1    2    0    0 -0.87368928369E+02  0.55282880835E+02 -0.85066305847E+03  0.86068831848E+03  0.80419002446E+02 0. -1.
        -24    1    1    2    0    0  0.87368928369E+02 -0.55282880835E+02 -0.29133892995E+03  0.31942935779E+03  0.80419002446E+02 0.  1.
<mgrwt>
<rscale>  0 0.13098375E+03</rscale>
<asrwt>0</asrwt>
<pdfrwt beam="1">  1        2 0.17862459E+00 0.13098375E+03</pdfrwt>
<pdfrwt beam="2">  1       -2 0.29319760E-02 0.13098375E+03</pdfrwt>
<totfact> 0.89290020E+03</totfact>
</mgrwt>
</event>
<event>
 4    1  0.5015492E-001  0.8095367E+02  0.7546771E-02  0.1326367E+00
         -2   -1    0    0    0  501 -0.00000000000E+00  0.00000000000E+00  0.25194495699E+02  0.25194495699E+02  0.00000000000E+00 0.  1.
          2   -1    0    0  501    0  0.00000000000E+00 -0.00000000000E+00 -0.26057038882E+03  0.26057038882E+03  0.00000000000E+00 0. -1.
         24    1    1    2    0    0  0.92848409977E+01  0.26191631925E+00 -0.11172166282E+03  0.13796819478E+03  0.80419002446E+02 0.  1.
        -24    1    1    2    0    0 -0.92848409977E+01 -0.26191631925E+00 -0.12365423030E+03  0.14779668974E+03  0.80419002446E+02 0. -1.
<mgrwt>
<rscale>  0 0.80953656E+02</rscale>
<asrwt>0</asrwt>
<pdfrwt beam="1">  1        2 0.40087750E-01 0.80953666E+02</pdfrwt>
<pdfrwt beam="2">  1       -2 0.38760765E-02 0.80953666E+02</pdfrwt>
<totfact> 0.32010067E+04</totfact>
</mgrwt>
</event>
<event>
 4    1  0.5015492E-001  0.8829833E+02  0.7546771E-02  0.1307026E+00
          2   -1    0    0  501    0  0.00000000000E+00  0.00000000000E+00  0.89407513465E+03  0.89407513465E+03  0.00000000000E+00 0. -1.
         -2   -1    0    0    0  501 -0.00000000000E+00 -0.00000000000E+00 -0.90426700074E+01  0.90426700074E+01  0.00000000000E+00 0.  1.
         24    1    1    2    0    0 -0.34735267665E+02 -0.11083127815E+02  0.35725470638E+03  0.36800477677E+03  0.80419002446E+02 0.  1.
        -24    1    1    2    0    0  0.34735267665E+02  0.11083127815E+02  0.52777775826E+03  0.53511302789E+03  0.80419002446E+02 0. -1.
<mgrwt>
<rscale>  0 0.88298315E+02</rscale>
<asrwt>0</asrwt>
<pdfrwt beam="1">  1        2 0.13754995E+00 0.88298326E+02</pdfrwt>
<pdfrwt beam="2">  1       -2 0.13911807E-02 0.88298326E+02</pdfrwt>
<totfact> 0.36437541E+04</totfact>
</mgrwt>
</event>
<event>
 4    1  0.5015492E-001  0.8052630E+02  0.7546771E-02  0.1327564E+00
          1   -1    0    0  501    0  0.00000000000E+00  0.00000000000E+00  0.32291025615E+03  0.32291025615E+03  0.00000000000E+00 0. -1.
         -1   -1    0    0    0  501 -0.00000000000E+00 -0.00000000000E+00 -0.20541096908E+02  0.20541096908E+02  0.00000000000E+00 0.  1.
         24    1    1    2    0    0 -0.41425303063E+01 -0.32990594946E+00  0.12549446510E+03  0.14910850452E+03  0.80419002446E+02 0.  0.
        -24    1    1    2    0    0  0.41425303063E+01  0.32990594946E+00  0.17687469415E+03  0.19434284854E+03  0.80419002446E+02 0. -1.
<mgrwt>
<rscale>  0 0.80526302E+02</rscale>
<asrwt>0</asrwt>
<pdfrwt beam="1">  1        1 0.49678497E-01 0.80526302E+02</pdfrwt>
<pdfrwt beam="2">  1       -1 0.31601690E-02 0.80526302E+02</pdfrwt>
<totfact> 0.24518279E+04</totfact>
</mgrwt>
</event>
<event>
 4    1  0.5015492E-001  0.9431628E+02  0.7546771E-02  0.1292723E+00
          2   -1    0    0  501    0  0.00000000000E+00  0.00000000000E+00  0.11303547261E+04  0.11303547261E+04  0.00000000000E+00 0. -1.
         -2   -1    0    0    0  501 -0.00000000000E+00 -0.00000000000E+00 -0.38478196627E+02  0.38478196627E+02  0.00000000000E+00 0.  1.
         24    1    1    2    0    0 -0.31306729594E+02 -0.38055657005E+02  0.10671762251E+04  0.10713359210E+04  0.80419002446E+02 0. -1.
        -24    1    1    2    0    0  0.31306729594E+02  0.38055657005E+02  0.24700304384E+02  0.97497001692E+02  0.80419002446E+02 0.  1.
<mgrwt>
<rscale>  0 0.94316278E+02</rscale>
<asrwt>0</asrwt>
<pdfrwt beam="1">  1        2 0.17390070E+00 0.94316278E+02</pdfrwt>
<pdfrwt beam="2">  1       -2 0.59197234E-02 0.94316278E+02</pdfrwt>
<totfact> 0.32365460E+03</totfact>
</mgrwt>
</event>
<event>
 4    1  0.5015492E-001  0.1114957E+03  0.7546771E-02  0.1257825E+00
          2   -1    0    0  501    0  0.00000000000E+00  0.00000000000E+00  0.53584535950E+02  0.53584535950E+02  0.00000000000E+00 0. -1.
         -2   -1    0    0    0  501 -0.00000000000E+00 -0.00000000000E+00 -0.41184118903E+03  0.41184118903E+03  0.00000000000E+00 0.  1.
         24    1    1    2    0    0  0.20024973617E+02 -0.74585955316E+02 -0.25345597294E+02  0.11434019221E+03  0.80419002446E+02 0. -1.
        -24    1    1    2    0    0 -0.20024973617E+02  0.74585955316E+02 -0.33291105579E+03  0.35108553277E+03  0.80419002446E+02 0.  1.
<mgrwt>
<rscale>  0 0.11149565E+03</rscale>
<asrwt>0</asrwt>
<pdfrwt beam="1">  1        2 0.82437748E-02 0.11149565E+03</pdfrwt>
<pdfrwt beam="2">  1       -2 0.63360183E-01 0.11149565E+03</pdfrwt>
<totfact> 0.18441134E+03</totfact>
</mgrwt>
</event>
<event>
 4    1  0.5015492E-001  0.9414726E+02  0.7546771E-02  0.1293108E+00
          2   -1    0    0  501    0  0.00000000000E+00  0.00000000000E+00  0.42073045889E+04  0.42073045889E+04  0.00000000000E+00 0. -1.
         -2   -1    0    0    0  501 -0.00000000000E+00 -0.00000000000E+00 -0.54364610528E+01  0.54364610528E+01  0.00000000000E+00 0.  1.
         24    1    1    2    0    0 -0.22312484860E+02  0.43573420107E+02  0.37494016607E+04  0.37505834905E+04  0.80419002446E+02 0. -1.
        -24    1    1    2    0    0  0.22312484860E+02 -0.43573420107E+02  0.45246646708E+03  0.46215755939E+03  0.80419002446E+02 0.  1.
<mgrwt>
<rscale>  0 0.94147256E+02</rscale>
<asrwt>0</asrwt>
<pdfrwt beam="1">  1        2 0.64727503E+00 0.94147256E+02</pdfrwt>
<pdfrwt beam="2">  1       -2 0.83638198E-03 0.94147256E+02</pdfrwt>
<totfact> 0.90933294E+02</totfact>
</mgrwt>
</event>
<event>
 4    1  0.5015492E-001  0.8079234E+02  0.7546771E-02  0.1326818E+00
          2   -1    0    0  501    0  0.00000000000E+00  0.00000000000E+00  0.15768045473E+04  0.15768045473E+04  0.00000000000E+00 0. -1.
         -2   -1    0    0    0  501 -0.00000000000E+00 -0.00000000000E+00 -0.47092782205E+01  0.47092782205E+01  0.00000000000E+00 0.  1.
         24    1    1    2    0    0 -0.42323719386E+01  0.65015485437E+01  0.51102630431E+03  0.51737344613E+03  0.80419002446E+02 0.  0.
        -24    1    1    2    0    0  0.42323719386E+01 -0.65015485437E+01  0.10610689648E+04  0.10641403794E+04  0.80419002446E+02 0. -1.
<mgrwt>
<rscale>  0 0.80792331E+02</rscale>
<asrwt>0</asrwt>
<pdfrwt beam="1">  1        2 0.24258489E+00 0.80792341E+02</pdfrwt>
<pdfrwt beam="2">  1       -2 0.72450560E-03 0.80792341E+02</pdfrwt>
<totfact> 0.38600209E+04</totfact>
</mgrwt>
</event>
<event>
 4    1  0.5015492E-001  0.8359970E+02  0.7546771E-02  0.1319136E+00
         -2   -1    0    0    0  501 -0.00000000000E+00  0.00000000000E+00  0.79086650977E+01  0.79086650977E+01  0.00000000000E+00 0.  1.
          2   -1    0    0  501    0  0.00000000000E+00 -0.00000000000E+00 -0.19849931832E+04  0.19849931832E+04  0.00000000000E+00 0. -1.
         24    1    1    2    0    0 -0.11664365648E+02 -0.19637621582E+02 -0.17307531558E+04  0.17327710166E+04  0.80419002446E+02 0. -1.
        -24    1    1    2    0    0  0.11664365648E+02  0.19637621582E+02 -0.24633136235E+03  0.26013083178E+03  0.80419002446E+02 0.  1.
<mgrwt>
<rscale>  0 0.83599698E+02</rscale>
<asrwt>0</asrwt>
<pdfrwt beam="1">  1        2 0.30538413E+00 0.83599698E+02</pdfrwt>
<pdfrwt beam="2">  1       -2 0.12167154E-02 0.83599698E+02</pdfrwt>
<totfact> 0.11641647E+04</totfact>
</mgrwt>
</event>
<event>
 4    1  0.5015492E-001  0.8325279E+02  0.7546771E-02  0.1320066E+00
         -4   -1    0    0    0  501 -0.00000000000E+00  0.00000000000E+00  0.47762172235E+03  0.47762172235E+03  0.00000000000E+00 0.  1.
          4   -1    0    0  501    0  0.00000000000E+00 -0.00000000000E+00 -0.20628572271E+02  0.20628572271E+02  0.00000000000E+00 0. -1.
         24    1    1    2    0    0  0.18946726665E+02 -0.10238757201E+02  0.92836084913E+02  0.12469789580E+03  0.80419002446E+02 0. -1.
        -24    1    1    2    0    0 -0.18946726665E+02  0.10238757201E+02  0.36415706516E+03  0.37355239882E+03  0.80419002446E+02 0.  1.
<mgrwt>
<rscale>  0 0.83252787E+02</rscale>
<asrwt>0</asrwt>
<pdfrwt beam="1">  1        4 0.31736269E-02 0.83252787E+02</pdfrwt>
<pdfrwt beam="2">  1       -4 0.73480257E-01 0.83252787E+02</pdfrwt>
<totfact> 0.12441874E+03</totfact>
</mgrwt>
</event>
<event>
 4    1  0.5015492E-001  0.9962036E+02  0.7546771E-02  0.1281096E+00
         -1   -1    0    0    0  501 -0.00000000000E+00  0.00000000000E+00  0.43062278522E+03  0.43062278522E+03  0.00000000000E+00 0.  1.
          1   -1    0    0  501    0  0.00000000000E+00 -0.00000000000E+00 -0.32857075076E+02  0.32857075076E+02  0.00000000000E+00 0. -1.
         24    1    1    2    0    0 -0.92198929171E+01 -0.58068819829E+02  0.72251650688E+02  0.12306303768E+03  0.80419002446E+02 0.  0.
        -24    1    1    2    0    0  0.92198929171E+01  0.58068819829E+02  0.32551405946E+03  0.34041682262E+03  0.80419002446E+02 0.  1.
<mgrwt>
<rscale>  0 0.99620343E+02</rscale>
<asrwt>0</asrwt>
<pdfrwt beam="1">  1        1 0.50549349E-02 0.99620355E+02</pdfrwt>
<pdfrwt beam="2">  1       -1 0.66249655E-01 0.99620355E+02</pdfrwt>
<totfact> 0.36891163E+03</totfact>
</mgrwt>
</event>
<event>
 4    1  0.5015492E-001  0.8581288E+02  0.7546771E-02  0.1313320E+00
         -1   -1    0    0    0  501 -0.00000000000E+00  0.00000000000E+00  0.12275299987E+02  0.12275299987E+02  0.00000000000E+00 0.  1.
          1   -1    0    0  501    0  0.00000000000E+00 -0.00000000000E+00 -0.64784871294E+03  0.64784871294E+03  0.00000000000E+00 0. -1.
         24    1    1    2    0    0  0.10425924952E+02 -0.28070165668E+02 -0.22798491797E+03  0.24360002645E+03  0.80419002446E+02 0. -1.
        -24    1    1    2    0    0 -0.10425924952E+02  0.28070165668E+02 -0.40758849499E+03  0.41652398648E+03  0.80419002446E+02 0.  1.
<mgrwt>
<rscale>  0 0.85812878E+02</rscale>
<asrwt>0</asrwt>
<pdfrwt beam="1">  1        1 0.99669046E-01 0.85812878E+02</pdfrwt>
<pdfrwt beam="2">  1       -1 0.18885074E-02 0.85812878E+02</pdfrwt>
<totfact> 0.21268066E+04</totfact>
</mgrwt>
</event>
<event>
 4    1  0.5015492E-001  0.1303536E+03  0.7546771E-02  0.1226932E+00
         -1   -1    0    0    0  501 -0.00000000000E+00  0.00000000000E+00  0.98682061240E+02  0.98682061240E+02  0.00000000000E+00 0.  1.
          1   -1    0    0  501    0  0.00000000000E+00 -0.00000000000E+00 -0.21057555667E+03  0.21057555667E+03  0.00000000000E+00 0. -1.
         24    1    1    2    0    0 -0.96315175779E+02  0.35330469018E+02  0.10072406287E+02  0.13074220607E+03  0.80419002446E+02 0. -1.
        -24    1    1    2    0    0  0.96315175779E+02 -0.35330469018E+02 -0.12196590171E+03  0.17851541183E+03  0.80419002446E+02 0.  1.
<mgrwt>
<rscale>  0 0.13035364E+03</rscale>
<asrwt>0</asrwt>
<pdfrwt beam="1">  1        1 0.32396239E-01 0.13035364E+03</pdfrwt>
<pdfrwt beam="2">  1       -1 0.15181856E-01 0.13035364E+03</pdfrwt>
<totfact> 0.41498079E+03</totfact>
</mgrwt>
</event>
<event>
 4    1  0.5015492E-001  0.8428993E+02  0.7546771E-02  0.1317300E+00
          2   -1    0    0  501    0  0.00000000000E+00  0.00000000000E+00  0.49537243554E+02  0.49537243554E+02  0.00000000000E+00 0. -1.
         -2   -1    0    0    0  501 -0.00000000000E+00 -0.00000000000E+00 -0.17250501995E+03  0.17250501995E+03  0.00000000000E+00 0.  1.
         24    1    1    2    0    0  0.90096481222E+01  0.23588177233E+02 -0.15899587542E+02  0.85776387793E+02  0.80419002446E+02 0.  1.
        -24    1    1    2    0    0 -0.90096481222E+01 -0.23588177233E+02 -0.10706818886E+03  0.13626587571E+03  0.80419002446E+02 0.  0.
<mgrwt>
<rscale>  0 0.84289927E+02</rscale>
<asrwt>0</asrwt>
<pdfrwt beam="1">  1        2 0.76211145E-02 0.84289927E+02</pdfrwt>
<pdfrwt beam="2">  1       -2 0.26539233E-01 0.84289927E+02</pdfrwt>
<totfact> 0.10336866E+04</totfact>
</mgrwt>
</event>
<event>
 4    1  0.5015492E-001  0.8915169E+02  0.7546771E-02  0.1304919E+00
         -1   -1    0    0    0  501 -0.00000000000E+00  0.00000000000E+00  0.33386510016E+03  0.33386510016E+03  0.00000000000E+00 0.  1.
          1   -1    0    0  501    0  0.00000000000E+00 -0.00000000000E+00 -0.24889207152E+02  0.24889207152E+02  0.00000000000E+00 0. -1.
         24    1    1    2    0    0 -0.19021724361E+01  0.38434220316E+02  0.19190751571E+03  0.21160462682E+03  0.80419002446E+02 0.  1.
        -24    1    1    2    0    0  0.19021724361E+01 -0.38434220316E+02  0.11706837730E+03  0.14714968049E+03  0.80419002446E+02 0. -1.
<mgrwt>
<rscale>  0 0.89151688E+02</rscale>
<asrwt>0</asrwt>
<pdfrwt beam="1">  1        1 0.38291090E-02 0.89151688E+02</pdfrwt>
<pdfrwt beam="2">  1       -1 0.51363858E-01 0.89151688E+02</pdfrwt>
<totfact> 0.85775316E+03</totfact>
</mgrwt>
</event>
<event>
 4    1  0.5015492E-001  0.8528300E+02  0.7546771E-02  0.1314694E+00
         -2   -1    0    0    0  501 -0.00000000000E+00  0.00000000000E+00  0.18863318712E+03  0.18863318712E+03  0.00000000000E+00 0.  1.
          2   -1    0    0  501    0  0.00000000000E+00 -0.00000000000E+00 -0.25537211120E+03  0.25537211120E+03  0.00000000000E+00 0. -1.
         24    1    1    2    0    0  0.20631367757E+02  0.19501807385E+02 -0.23792718412E+03  0.25274994505E+03  0.80419002446E+02 0. -1.
        -24    1    1    2    0    0 -0.20631367757E+02 -0.19501807385E+02  0.17118826003E+03  0.19125535327E+03  0.80419002446E+02 0.  1.
<mgrwt>
<rscale>  0 0.85282998E+02</rscale>
<asrwt>0</asrwt>
<pdfrwt beam="1">  1        2 0.39288017E-01 0.85282998E+02</pdfrwt>
<pdfrwt beam="2">  1       -2 0.29020490E-01 0.85282998E+02</pdfrwt>
<totfact> 0.13693715E+03</totfact>
</mgrwt>
</event>
<event>
 4    1  0.5015492E-001  0.8352571E+02  0.7546771E-02  0.1319334E+00
         -2   -1    0    0    0  501 -0.00000000000E+00  0.00000000000E+00  0.16304801547E+04  0.16304801547E+04  0.00000000000E+00 0.  1.
          2   -1    0    0  501    0  0.00000000000E+00 -0.00000000000E+00 -0.52215922833E+01  0.52215922833E+01  0.00000000000E+00 0. -1.
         24    1    1    2    0    0 -0.12073686443E+02  0.19067090824E+02  0.46511372534E+03  0.47255404062E+03  0.80419002446E+02 0. -1.
        -24    1    1    2    0    0  0.12073686443E+02 -0.19067090824E+02  0.11601448370E+04  0.11631477063E+04  0.80419002446E+02 0.  1.
<mgrwt>
<rscale>  0 0.83525707E+02</rscale>
<asrwt>0</asrwt>
<pdfrwt beam="1">  1        2 0.80332319E-03 0.83525707E+02</pdfrwt>
<pdfrwt beam="2">  1       -2 0.25084269E+00 0.83525707E+02</pdfrwt>
<totfact> 0.13006516E+03</totfact>
</mgrwt>
</event>
<event>
 4    1  0.5015492E-001  0.8286968E+02  0.7546771E-02  0.1321099E+00
          2   -1    0    0  501    0  0.00000000000E+00  0.00000000000E+00  0.20067689356E+04  0.20067689356E+04  0.00000000000E+00 0. -1.
         -2   -1    0    0    0  501 -0.00000000000E+00 -0.00000000000E+00 -0.52778825505E+01  0.52778825505E+01  0.00000000000E+00 0.  1.
         24    1    1    2    0    0  0.18034398904E+02  0.86561304441E+01  0.15972869360E+04  0.15994351940E+04  0.80419002446E+02 0.  0.
        -24    1    1    2    0    0 -0.18034398904E+02 -0.86561304441E+01  0.40420411708E+03  0.41261162412E+03  0.80419002446E+02 0.  1.
<mgrwt>
<rscale>  0 0.82869681E+02</rscale>
<asrwt>0</asrwt>
<pdfrwt beam="1">  1        2 0.30873307E+00 0.82869681E+02</pdfrwt>
<pdfrwt beam="2">  1       -2 0.81198353E-03 0.82869681E+02</pdfrwt>
<totfact> 0.20086552E+04</totfact>
</mgrwt>
</event>
<event>
 4    1  0.5015492E-001  0.1242640E+03  0.7546771E-02  0.1236224E+00
          2   -1    0    0  501    0  0.00000000000E+00  0.00000000000E+00  0.17205844622E+04  0.17205844622E+04  0.00000000000E+00 0.  1.
         -2   -1    0    0    0  501 -0.00000000000E+00 -0.00000000000E+00 -0.10477132527E+02  0.10477132527E+02  0.00000000000E+00 0. -1.
         24    1    1    2    0    0  0.83285170334E+02 -0.45143213771E+02  0.52727984896E+03  0.54172463892E+03  0.80419002446E+02 0.  0.
        -24    1    1    2    0    0 -0.83285170334E+02  0.45143213771E+02  0.11828274807E+04  0.11893369558E+04  0.80419002446E+02 0.  1.
<mgrwt>
<rscale>  0 0.12426403E+03</rscale>
<asrwt>0</asrwt>
<pdfrwt beam="1">  1        2 0.26470508E+00 0.12426405E+03</pdfrwt>
<pdfrwt beam="2">  1       -2 0.16118679E-02 0.12426405E+03</pdfrwt>
<totfact> 0.10774661E+04</totfact>
</mgrwt>
</event>
<event>
 4    1  0.5015492E-001  0.1071082E+03  0.7546771E-02  0.1266021E+00
          2   -1    0    0  501    0  0.00000000000E+00  0.00000000000E+00  0.32755772912E+04  0.32755772912E+04  0.00000000000E+00 0. -1.
         -2   -1    0    0    0  501 -0.00000000000E+00 -0.00000000000E+00 -0.36805903859E+01  0.36805903859E+01  0.00000000000E+00 0.  1.
         24    1    1    2    0    0 -0.13263858333E+02 -0.69491048023E+02  0.12751084018E+04  0.12795989950E+04  0.80419002446E+02 0.  0.
        -24    1    1    2    0    0  0.13263858333E+02  0.69491048023E+02  0.19967882990E+04  0.19996588866E+04  0.80419002446E+02 0.  1.
<mgrwt>
<rscale>  0 0.10710814E+03</rscale>
<asrwt>0</asrwt>
<pdfrwt beam="1">  1        2 0.50393264E+00 0.10710816E+03</pdfrwt>
<pdfrwt beam="2">  1       -2 0.56624729E-03 0.10710816E+03</pdfrwt>
<totfact> 0.69062777E+03</totfact>
</mgrwt>
</event>
<event>
 4    1  0.5015492E-001  0.8766126E+02  0.7546771E-02  0.1308616E+00
         -2   -1    0    0    0  501 -0.00000000000E+00  0.00000000000E+00  0.30078197083E+01  0.30078197083E+01  0.00000000000E+00 0.  1.
          2   -1    0    0  501    0  0.00000000000E+00 -0.00000000000E+00 -0.27594165287E+04  0.27594165287E+04  0.00000000000E+00 0. -1.
         24    1    1    2    0    0  0.27436881926E+02  0.21552229969E+02 -0.17542841807E+04  0.17564730239E+04  0.80419002446E+02 0. -1.
        -24    1    1    2    0    0 -0.27436881926E+02 -0.21552229969E+02 -0.10021245283E+04  0.10059513245E+04  0.80419002446E+02 0.  1.
<mgrwt>
<rscale>  0 0.87661263E+02</rscale>
<asrwt>0</asrwt>
<pdfrwt beam="1">  1        2 0.42452553E+00 0.87661263E+02</pdfrwt>
<pdfrwt beam="2">  1       -2 0.46274159E-03 0.87661263E+02</pdfrwt>
<totfact> 0.18056185E+04</totfact>
</mgrwt>
</event>
<event>
 4    1  0.5015492E-001  0.8951653E+02  0.7546771E-02  0.1304027E+00
          3   -1    0    0  501    0  0.00000000000E+00  0.00000000000E+00  0.19004906474E+03  0.19004906474E+03  0.00000000000E+00 0. -1.
         -3   -1    0    0    0  501 -0.00000000000E+00 -0.00000000000E+00 -0.83759094842E+02  0.83759094842E+02  0.00000000000E+00 0.  1.
         24    1    1    2    0    0 -0.38810120193E+02  0.63061908327E+01 -0.43331615858E+02  0.99452694079E+02  0.80419002446E+02 0.  1.
        -24    1    1    2    0    0  0.38810120193E+02 -0.63061908327E+01  0.14962158576E+03  0.17435546550E+03  0.80419002446E+02 0. -1.
<mgrwt>
<rscale>  0 0.89516532E+02</rscale>
<asrwt>0</asrwt>
<pdfrwt beam="1">  1        3 0.29238317E-01 0.89516532E+02</pdfrwt>
<pdfrwt beam="2">  1       -3 0.12886015E-01 0.89516532E+02</pdfrwt>
<totfact> 0.11602043E+03</totfact>
</mgrwt>
</event>
<event>
 4    1  0.5015492E-001  0.8848397E+02  0.7546771E-02  0.1306565E+00
         -2   -1    0    0    0  501 -0.00000000000E+00  0.00000000000E+00  0.18019446513E+02  0.18019446513E+02  0.00000000000E+00 0.  1.
          2   -1    0    0  501    0  0.00000000000E+00 -0.00000000000E+00 -0.19400341758E+04  0.19400341758E+04  0.00000000000E+00 0. -1.
         24    1    1    2    0    0  0.23346267642E+02 -0.28585812212E+02 -0.18234604852E+04  0.18256060785E+04  0.80419002446E+02 0. -1.
        -24    1    1    2    0    0 -0.23346267642E+02  0.28585812212E+02 -0.98554244038E+02  0.13244754375E+03  0.80419002446E+02 0.  1.
<mgrwt>
<rscale>  0 0.88483969E+02</rscale>
<asrwt>0</asrwt>
<pdfrwt beam="1">  1        2 0.29846662E+00 0.88483969E+02</pdfrwt>
<pdfrwt beam="2">  1       -2 0.27722242E-02 0.88483969E+02</pdfrwt>
<totfact> 0.37779721E+03</totfact>
</mgrwt>
</event>
<event>
 4    1  0.5015492E-001  0.8364869E+02  0.7546771E-02  0.1319005E+00
         -1   -1    0    0    0  501 -0.00000000000E+00  0.00000000000E+00  0.31877209702E+03  0.31877209702E+03  0.00000000000E+00 0.  1.
          1   -1    0    0  501    0  0.00000000000E+00 -0.00000000000E+00 -0.22781945745E+02  0.22781945745E+02  0.00000000000E+00 0. -1.
         24    1    1    2    0    0  0.16083853405E+02  0.16467973378E+02  0.11536348821E+03  0.14249854334E+03  0.80419002446E+02 0.  0.
        -24    1    1    2    0    0 -0.16083853405E+02 -0.16467973378E+02  0.18062666306E+03  0.19905549943E+03  0.80419002446E+02 0.  0.
<mgrwt>
<rscale>  0 0.83648683E+02</rscale>
<asrwt>0</asrwt>
<pdfrwt beam="1">  1        1 0.35049150E-02 0.83648694E+02</pdfrwt>
<pdfrwt beam="2">  1       -1 0.49041858E-01 0.83648694E+02</pdfrwt>
<totfact> 0.10448865E+04</totfact>
</mgrwt>
</event>
<event>
 4    1  0.5015492E-001  0.8199106E+02  0.7546771E-02  0.1323494E+00
          1   -1    0    0  501    0  0.00000000000E+00  0.00000000000E+00  0.10618646131E+02  0.10618646131E+02  0.00000000000E+00 0. -1.
         -1   -1    0    0    0  501 -0.00000000000E+00 -0.00000000000E+00 -0.65818113293E+03  0.65818113293E+03  0.00000000000E+00 0.  1.
         24    1    1    2    0    0  0.15678958935E+02 -0.30802529441E+01 -0.38907534211E+03  0.39762061756E+03  0.80419002446E+02 0.  1.
        -24    1    1    2    0    0 -0.15678958935E+02  0.30802529441E+01 -0.25848714469E+03  0.27117916150E+03  0.80419002446E+02 0. -1.
<mgrwt>
<rscale>  0 0.81991058E+02</rscale>
<asrwt>0</asrwt>
<pdfrwt beam="1">  1        1 0.16336372E-02 0.81991058E+02</pdfrwt>
<pdfrwt beam="2">  1       -1 0.10125868E+00 0.81991058E+02</pdfrwt>
<totfact> 0.71499038E+03</totfact>
</mgrwt>
</event>
<event>
 4    1  0.5015492E-001  0.2182918E+03  0.7546771E-02  0.1135163E+00
          1   -1    0    0  501    0  0.00000000000E+00  0.00000000000E+00  0.10613639481E+04  0.10613639481E+04  0.00000000000E+00 0. -1.
         -1   -1    0    0    0  501 -0.00000000000E+00 -0.00000000000E+00 -0.76071851541E+02  0.76071851541E+02  0.00000000000E+00 0.  1.
         24    1    1    2    0    0 -0.40151999756E+02 -0.19892688344E+03  0.12857005426E+03  0.25334080375E+03  0.80419002446E+02 0.  1.
        -24    1    1    2    0    0  0.40151999756E+02  0.19892688344E+03  0.85672204230E+03  0.88409499589E+03  0.80419002446E+02 0. -1.
<mgrwt>
<rscale>  0 0.21829179E+03</rscale>
<asrwt>0</asrwt>
<pdfrwt beam="1">  1        1 0.16328675E+00 0.21829179E+03</pdfrwt>
<pdfrwt beam="2">  1       -1 0.11703363E-01 0.21829179E+03</pdfrwt>
<totfact> 0.69071200E+02</totfact>
</mgrwt>
</event>
<event>
 4    1  0.5015492E-001  0.8102081E+02  0.7546771E-02  0.1326179E+00
          2   -1    0    0  501    0  0.00000000000E+00  0.00000000000E+00  0.11035851558E+04  0.11035851558E+04  0.00000000000E+00 0. -1.
         -2   -1    0    0    0  501 -0.00000000000E+00 -0.00000000000E+00 -0.10257048076E+02  0.10257048076E+02  0.00000000000E+00 0.  1.
         24    1    1    2    0    0 -0.44935696139E+00  0.98465363574E+01  0.90762634893E+03  0.91123540396E+03  0.80419002446E+02 0. -1.
        -24    1    1    2    0    0  0.44935696139E+00 -0.98465363574E+01  0.18570175881E+03  0.20260679993E+03  0.80419002446E+02 0.  0.
<mgrwt>
<rscale>  0 0.81020813E+02</rscale>
<asrwt>0</asrwt>
<pdfrwt beam="1">  1        2 0.16978224E+00 0.81020813E+02</pdfrwt>
<pdfrwt beam="2">  1       -2 0.15780083E-02 0.81020813E+02</pdfrwt>
<totfact> 0.22762740E+04</totfact>
</mgrwt>
</event>
<event>
 4    1  0.5015492E-001  0.9236469E+02  0.7546771E-02  0.1297224E+00
          2   -1    0    0  501    0  0.00000000000E+00  0.00000000000E+00  0.77498261485E+02  0.77498261485E+02  0.00000000000E+00 0. -1.
         -2   -1    0    0    0  501 -0.00000000000E+00 -0.00000000000E+00 -0.11017728921E+03  0.11017728921E+03  0.00000000000E+00 0.  1.
         24    1    1    2    0    0  0.21949833745E+02 -0.39777191347E+02 -0.13593444272E+02  0.93359615651E+02  0.80419002446E+02 0.  0.
        -24    1    1    2    0    0 -0.21949833745E+02  0.39777191347E+02 -0.19085583449E+02  0.94315935042E+02  0.80419002446E+02 0.  1.
<mgrwt>
<rscale>  0 0.92364691E+02</rscale>
<asrwt>0</asrwt>
<pdfrwt beam="1">  1        2 0.11922809E-01 0.92364691E+02</pdfrwt>
<pdfrwt beam="2">  1       -2 0.16950352E-01 0.92364691E+02</pdfrwt>
<totfact> 0.12913178E+04</totfact>
</mgrwt>
</event>
<event>
 4    1  0.5015492E-001  0.8338282E+02  0.7546771E-02  0.1319717E+00
          2   -1    0    0  501    0  0.00000000000E+00  0.00000000000E+00  0.56981590828E+03  0.56981590828E+03  0.00000000000E+00 0. -1.
         -2   -1    0    0    0  501 -0.00000000000E+00 -0.00000000000E+00 -0.27821819227E+02  0.27821819227E+02  0.00000000000E+00 0.  1.
         24    1    1    2    0    0  0.21938477273E+02 -0.20451764791E+01  0.49489910264E+03  0.50187430426E+03  0.80419002446E+02 0. -1.
        -24    1    1    2    0    0 -0.21938477273E+02  0.20451764791E+01  0.47094986417E+02  0.95763423247E+02  0.80419002446E+02 0.  1.
<mgrwt>
<rscale>  0 0.83382825E+02</rscale>
<asrwt>0</asrwt>
<pdfrwt beam="1">  1        2 0.87663977E-01 0.83382825E+02</pdfrwt>
<pdfrwt beam="2">  1       -2 0.42802803E-02 0.83382825E+02</pdfrwt>
<totfact> 0.12154809E+04</totfact>
</mgrwt>
</event>
<event>
 4    1  0.5015492E-001  0.9085483E+02  0.7546771E-02  0.1300795E+00
         -2   -1    0    0    0  501 -0.00000000000E+00  0.00000000000E+00  0.46917097392E+01  0.46917097392E+01  0.00000000000E+00 0.  1.
          2   -1    0    0  501    0  0.00000000000E+00 -0.00000000000E+00 -0.17595525409E+04  0.17595525409E+04  0.00000000000E+00 0. -1.
         24    1    1    2    0    0  0.20448845270E+02 -0.37003093333E+02 -0.88560910937E+03  0.89025731940E+03  0.80419002446E+02 0. -1.
        -24    1    1    2    0    0 -0.20448845270E+02  0.37003093333E+02 -0.86925172181E+03  0.87398693126E+03  0.80419002446E+02 0.  0.
<mgrwt>
<rscale>  0 0.90854830E+02</rscale>
<asrwt>0</asrwt>
<pdfrwt beam="1">  1        2 0.27070075E+00 0.90854830E+02</pdfrwt>
<pdfrwt beam="2">  1       -2 0.72180055E-03 0.90854830E+02</pdfrwt>
<totfact> 0.31724019E+04</totfact>
</mgrwt>
</event>
<event>
 4    1  0.5015492E-001  0.8706318E+02  0.7546771E-02  0.1310124E+00
          1   -1    0    0  501    0  0.00000000000E+00  0.00000000000E+00  0.72365825371E+02  0.72365825371E+02  0.00000000000E+00 0. -1.
         -1   -1    0    0    0  501 -0.00000000000E+00 -0.00000000000E+00 -0.13673628434E+03  0.13673628434E+03  0.00000000000E+00 0.  1.
         24    1    1    2    0    0 -0.11755687039E+02  0.31218348270E+02 -0.82755899712E+02  0.12011884256E+03  0.80419002446E+02 0.  1.
        -24    1    1    2    0    0  0.11755687039E+02 -0.31218348270E+02  0.18385440747E+02  0.88983267148E+02  0.80419002446E+02 0. -1.
<mgrwt>
<rscale>  0 0.87063181E+02</rscale>
<asrwt>0</asrwt>
<pdfrwt beam="1">  1        1 0.11133204E-01 0.87063181E+02</pdfrwt>
<pdfrwt beam="2">  1       -1 0.21036351E-01 0.87063181E+02</pdfrwt>
<totfact> 0.93085523E+03</totfact>
</mgrwt>
</event>
<event>
 4    1  0.5015492E-001  0.8275149E+02  0.7546771E-02  0.1321420E+00
          2   -1    0    0  501    0  0.00000000000E+00  0.00000000000E+00  0.67405442499E+03  0.67405442499E+03  0.00000000000E+00 0. -1.
         -2   -1    0    0    0  501 -0.00000000000E+00 -0.00000000000E+00 -0.27761931442E+02  0.27761931442E+02  0.00000000000E+00 0.  1.
         24    1    1    2    0    0 -0.14550872657E+02  0.12994797094E+02  0.60256754651E+03  0.60822319646E+03  0.80419002446E+02 0. -1.
        -24    1    1    2    0    0  0.14550872657E+02 -0.12994797094E+02  0.43724947040E+02  0.93593159978E+02  0.80419002446E+02 0.  1.
<mgrwt>
<rscale>  0 0.82751487E+02</rscale>
<asrwt>0</asrwt>
<pdfrwt beam="1">  1        2 0.10370067E+00 0.82751487E+02</pdfrwt>
<pdfrwt beam="2">  1       -2 0.42710669E-02 0.82751487E+02</pdfrwt>
<totfact> 0.10089052E+04</totfact>
</mgrwt>
</event>
<event>
 4    1  0.5015492E-001  0.8317028E+02  0.7546771E-02  0.1320288E+00
         -1   -1    0    0    0  501 -0.00000000000E+00  0.00000000000E+00  0.43895185836E+02  0.43895185836E+02  0.00000000000E+00 0.  1.
          1   -1    0    0  501    0  0.00000000000E+00 -0.00000000000E+00 -0.16284782717E+03  0.16284782717E+03  0.00000000000E+00 0. -1.
         24    1    1    2    0    0 -0.20657005804E+02 -0.48340409691E+01 -0.40896100876E+02  0.92681103048E+02  0.80419002446E+02 0.  1.
        -24    1    1    2    0    0  0.20657005804E+02  0.48340409691E+01 -0.78056540460E+02  0.11406190996E+03  0.80419002446E+02 0. -1.
<mgrwt>
<rscale>  0 0.83170282E+02</rscale>
<asrwt>0</asrwt>
<pdfrwt beam="1">  1        1 0.25053511E-01 0.83170282E+02</pdfrwt>
<pdfrwt beam="2">  1       -1 0.67531056E-02 0.83170282E+02</pdfrwt>
<totfact> 0.18789981E+04</totfact>
</mgrwt>
</event>
<event>
 4    1  0.5015492E-001  0.8484558E+02  0.7546771E-02  0.1315837E+00
         -2   -1    0    0    0  501 -0.00000000000E+00  0.00000000000E+00  0.35714524119E+01  0.35714524119E+01  0.00000000000E+00 0.  1.
          2   -1    0    0  501    0  0.00000000000E+00 -0.00000000000E+00 -0.20207544461E+04  0.20207544461E+04  0.00000000000E+00 0. -1.
         24    1    1    2    0    0 -0.14837739703E+02 -0.22614048618E+02 -0.95768117760E+03  0.96143226886E+03  0.80419002446E+02 0.  0.
        -24    1    1    2    0    0  0.14837739703E+02  0.22614048618E+02 -0.10595018161E+04  0.10628936297E+04  0.80419002446E+02 0. -1.
<mgrwt>
<rscale>  0 0.84845574E+02</rscale>
<asrwt>0</asrwt>
<pdfrwt beam="1">  1        2 0.31088597E+00 0.84845585E+02</pdfrwt>
<pdfrwt beam="2">  1       -2 0.54945303E-03 0.84845585E+02</pdfrwt>
<totfact> 0.34251184E+04</totfact>
</mgrwt>
</event>
<event>
 4    1  0.5015492E-001  0.1092107E+03  0.7546771E-02  0.1262039E+00
          1   -1    0    0  501    0  0.00000000000E+00  0.00000000000E+00  0.24255074146E+04  0.24255074146E+04  0.00000000000E+00 0. -1.
         -1   -1    0    0    0  501 -0.00000000000E+00 -0.00000000000E+00 -0.10361765615E+02  0.10361765615E+02  0.00000000000E+00 0.  1.
         24    1    1    2    0    0  0.72826748094E+02 -0.12490745761E+02  0.32472806070E+03  0.34260076376E+03  0.80419002446E+02 0.  1.
        -24    1    1    2    0    0 -0.72826748094E+02  0.12490745761E+02  0.20904175883E+04  0.20932684165E+04  0.80419002446E+02 0. -1.
<mgrwt>
<rscale>  0 0.10921067E+03</rscale>
<asrwt>0</asrwt>
<pdfrwt beam="1">  1        1 0.37315453E+00 0.10921067E+03</pdfrwt>
<pdfrwt beam="2">  1       -1 0.15941197E-02 0.10921067E+03</pdfrwt>
<totfact> 0.17150588E+03</totfact>
</mgrwt>
</event>
<event>
 4    1  0.5015492E-001  0.1028054E+03  0.7546771E-02  0.1274505E+00
          2   -1    0    0  501    0  0.00000000000E+00  0.00000000000E+00  0.36601318516E+03  0.36601318516E+03  0.00000000000E+00 0. -1.
         -2   -1    0    0    0  501 -0.00000000000E+00 -0.00000000000E+00 -0.73709986239E+02  0.73709986239E+02  0.00000000000E+00 0.  1.
         24    1    1    2    0    0  0.63676824342E+02  0.68552736041E+01  0.31762252961E+03  0.33384580273E+03  0.80419002446E+02 0. -1.
        -24    1    1    2    0    0 -0.63676824342E+02 -0.68552736041E+01 -0.25319330688E+02  0.10587736866E+03  0.80419002446E+02 0.  1.
<mgrwt>
<rscale>  0 0.10280539E+03</rscale>
<asrwt>0</asrwt>
<pdfrwt beam="1">  1        2 0.56309720E-01 0.10280539E+03</pdfrwt>
<pdfrwt beam="2">  1       -2 0.11339998E-01 0.10280539E+03</pdfrwt>
<totfact> 0.45179086E+03</totfact>
</mgrwt>
</event>
<event>
 4    1  0.5015492E-001  0.9873886E+02  0.7546771E-02  0.1282971E+00
          2   -1    0    0  501    0  0.00000000000E+00  0.00000000000E+00  0.84239394752E+01  0.84239394752E+01  0.00000000000E+00 0. -1.
         -2   -1    0    0    0  501 -0.00000000000E+00 -0.00000000000E+00 -0.13406014814E+04  0.13406014814E+04  0.00000000000E+00 0.  1.
         24    1    1    2    0    0 -0.57228713482E+02 -0.26497737069E+01 -0.41670064267E+03  0.42823917208E+03  0.80419002446E+02 0. -1.
        -24    1    1    2    0    0  0.57228713482E+02  0.26497737069E+01 -0.91547689929E+03  0.92078624883E+03  0.80419002446E+02 0.  1.
<mgrwt>
<rscale>  0 0.98738862E+02</rscale>
<asrwt>0</asrwt>
<pdfrwt beam="1">  1        2 0.12959917E-02 0.98738862E+02</pdfrwt>
<pdfrwt beam="2">  1       -2 0.20624622E+00 0.98738862E+02</pdfrwt>
<totfact> 0.12464526E+03</totfact>
</mgrwt>
</event>
<event>
 4    1  0.5015492E-001  0.8570508E+02  0.7546771E-02  0.1313599E+00
         -2   -1    0    0    0  501 -0.00000000000E+00  0.00000000000E+00  0.21689100661E+02  0.21689100661E+02  0.00000000000E+00 0.  1.
          2   -1    0    0  501    0  0.00000000000E+00 -0.00000000000E+00 -0.48936433106E+03  0.48936433106E+03  0.00000000000E+00 0. -1.
         24    1    1    2    0    0 -0.29216394348E+02 -0.49544227933E+01 -0.37563703239E+03  0.38529020240E+03  0.80419002446E+02 0. -1.
        -24    1    1    2    0    0  0.29216394348E+02  0.49544227933E+01 -0.92038198010E+02  0.12576322933E+03  0.80419002446E+02 0.  1.
<mgrwt>
<rscale>  0 0.85705075E+02</rscale>
<asrwt>0</asrwt>
<pdfrwt beam="1">  1        2 0.75286811E-01 0.85705075E+02</pdfrwt>
<pdfrwt beam="2">  1       -2 0.33367851E-02 0.85705075E+02</pdfrwt>
<totfact> 0.20704729E+04</totfact>
</mgrwt>
</event>
<event>
 4    1  0.5015492E-001  0.9085348E+02  0.7546771E-02  0.1300798E+00
          1   -1    0    0  501    0  0.00000000000E+00  0.00000000000E+00  0.58943177871E+03  0.58943177871E+03  0.00000000000E+00 0. -1.
         -1   -1    0    0    0  501 -0.00000000000E+00 -0.00000000000E+00 -0.65974390418E+02  0.65974390418E+02  0.00000000000E+00 0.  1.
         24    1    1    2    0    0 -0.42273772873E+02  0.25940913749E+00 -0.29122708575E+02  0.95406956115E+02  0.80419002446E+02 0.  1.
        -24    1    1    2    0    0  0.42273772873E+02 -0.25940913749E+00  0.55258009687E+03  0.55999921302E+03  0.80419002446E+02 0. -1.
<mgrwt>
<rscale>  0 0.90853482E+02</rscale>
<asrwt>0</asrwt>
<pdfrwt beam="1">  1        1 0.90681808E-01 0.90853482E+02</pdfrwt>
<pdfrwt beam="2">  1       -1 0.10149907E-01 0.90853482E+02</pdfrwt>
<totfact> 0.20851859E+03</totfact>
</mgrwt>
</event>
<event>
 4    1  0.5015492E-001  0.1296406E+03  0.7546771E-02  0.1227990E+00
         -1   -1    0    0    0  501 -0.00000000000E+00  0.00000000000E+00  0.70472230331E+02  0.70472230331E+02  0.00000000000E+00 0.  1.
          1   -1    0    0  501    0  0.00000000000E+00 -0.00000000000E+00 -0.24030921243E+03  0.24030921243E+03  0.00000000000E+00 0. -1.
         24    1    1    2    0    0 -0.10167623572E+03  0.11881544654E+01 -0.71385814390E+02  0.14799533463E+03  0.80419002446E+02 0.  1.
        -24    1    1    2    0    0  0.10167623572E+03 -0.11881544654E+01 -0.98451167707E+02  0.16278610813E+03  0.80419002446E+02 0. -1.
<mgrwt>
<rscale>  0 0.12964060E+03</rscale>
<asrwt>0</asrwt>
<pdfrwt beam="1">  1        1 0.36970648E-01 0.12964060E+03</pdfrwt>
<pdfrwt beam="2">  1       -1 0.10841882E-01 0.12964060E+03</pdfrwt>
<totfact> 0.59336057E+03</totfact>
</mgrwt>
</event>
<event>
 4    1  0.5015492E-001  0.9482653E+02  0.7546771E-02  0.1291567E+00
          2   -1    0    0  501    0  0.00000000000E+00  0.00000000000E+00  0.55746399200E+03  0.55746399200E+03  0.00000000000E+00 0. -1.
         -2   -1    0    0    0  501 -0.00000000000E+00 -0.00000000000E+00 -0.18883073938E+02  0.18883073938E+02  0.00000000000E+00 0.  1.
         24    1    1    2    0    0  0.40486506939E+02  0.29760686994E+02  0.37931804042E+03  0.39099136496E+03  0.80419002446E+02 0. -1.
        -24    1    1    2    0    0 -0.40486506939E+02 -0.29760686994E+02  0.15926287765E+03  0.18535570098E+03  0.80419002446E+02 0.  1.
<mgrwt>
<rscale>  0 0.94826535E+02</rscale>
<asrwt>0</asrwt>
<pdfrwt beam="1">  1        2 0.85763678E-01 0.94826535E+02</pdfrwt>
<pdfrwt beam="2">  1       -2 0.29050887E-02 0.94826535E+02</pdfrwt>
<totfact> 0.22208045E+04</totfact>
</mgrwt>
</event>
<event>
 4    1  0.5015492E-001  0.1068708E+03  0.7546771E-02  0.1266477E+00
         -2   -1    0    0    0  501 -0.00000000000E+00  0.00000000000E+00  0.15519138167E+02  0.15519138167E+02  0.00000000000E+00 0.  1.
          2   -1    0    0  501    0  0.00000000000E+00 -0.00000000000E+00 -0.16763668190E+04  0.16763668190E+04  0.00000000000E+00 0. -1.
         24    1    1    2    0    0 -0.65635357350E+02 -0.25419521123E+02 -0.14640248883E+04  0.14679203799E+04  0.80419002446E+02 0. -1.
        -24    1    1    2    0    0  0.65635357350E+02  0.25419521123E+02 -0.19682279253E+03  0.22396557727E+03  0.80419002446E+02 0.  1.
<mgrwt>
<rscale>  0 0.10687080E+03</rscale>
<asrwt>0</asrwt>
<pdfrwt beam="1">  1        2 0.25790243E+00 0.10687080E+03</pdfrwt>
<pdfrwt beam="2">  1       -2 0.23875612E-02 0.10687080E+03</pdfrwt>
<totfact> 0.63962181E+03</totfact>
</mgrwt>
</event>
<event>
 4    1  0.5015492E-001  0.8380554E+02  0.7546771E-02  0.1318586E+00
          2   -1    0    0  501    0  0.00000000000E+00  0.00000000000E+00  0.16131536888E+04  0.16131536888E+04  0.00000000000E+00 0. -1.
         -2   -1    0    0    0  501 -0.00000000000E+00 -0.00000000000E+00 -0.11544467509E+02  0.11544467509E+02  0.00000000000E+00 0.  1.
         24    1    1    2    0    0 -0.23178054978E+02 -0.43509844255E+01  0.14419255406E+04  0.14443589007E+04  0.80419002446E+02 0.  0.
        -24    1    1    2    0    0  0.23178054978E+02  0.43509844255E+01  0.15968368069E+03  0.18033925566E+03  0.80419002446E+02 0.  1.
<mgrwt>
<rscale>  0 0.83805544E+02</rscale>
<asrwt>0</asrwt>
<pdfrwt beam="1">  1        2 0.24817731E+00 0.83805544E+02</pdfrwt>
<pdfrwt beam="2">  1       -2 0.17760732E-02 0.83805544E+02</pdfrwt>
<totfact> 0.10431294E+04</totfact>
</mgrwt>
</event>
<event>
 4    1  0.5015492E-001  0.9637313E+02  0.7546771E-02  0.1288113E+00
         -1   -1    0    0    0  501 -0.00000000000E+00  0.00000000000E+00  0.82961317031E+01  0.82961317031E+01  0.00000000000E+00 0.  1.
          1   -1    0    0  501    0  0.00000000000E+00 -0.00000000000E+00 -0.18430793336E+04  0.18430793336E+04  0.00000000000E+00 0. -1.
         24    1    1    2    0    0 -0.44004940865E+02 -0.29734317688E+02 -0.33739408970E+03  0.35088823318E+03  0.80419002446E+02 0. -1.
        -24    1    1    2    0    0  0.44004940865E+02  0.29734317688E+02 -0.14973891122E+04  0.15004872321E+04  0.80419002446E+02 0. -1.
<mgrwt>
<rscale>  0 0.96373131E+02</rscale>
<asrwt>0</asrwt>
<pdfrwt beam="1">  1        1 0.28355064E+00 0.96373131E+02</pdfrwt>
<pdfrwt beam="2">  1       -1 0.12763281E-02 0.96373131E+02</pdfrwt>
<totfact> 0.54924005E+03</totfact>
</mgrwt>
</event>
<event>
 4    1  0.5015492E-001  0.8262940E+02  0.7546771E-02  0.1321751E+00
          3   -1    0    0  501    0  0.00000000000E+00  0.00000000000E+00  0.20427117188E+03  0.20427117188E+03  0.00000000000E+00 0. -1.
         -3   -1    0    0    0  501 -0.00000000000E+00 -0.00000000000E+00 -0.43829860855E+02  0.43829860855E+02  0.00000000000E+00 0.  1.
         24    1    1    2    0    0 -0.53151243979E+01  0.18225013207E+02  0.19777571343E+02  0.84963344663E+02  0.80419002446E+02 0.  1.
        -24    1    1    2    0    0  0.53151243979E+01 -0.18225013207E+02  0.14066373968E+03  0.16313768807E+03  0.80419002446E+02 0. -1.
<mgrwt>
<rscale>  0 0.82629399E+02</rscale>
<asrwt>0</asrwt>
<pdfrwt beam="1">  1        3 0.31426334E-01 0.82629399E+02</pdfrwt>
<pdfrwt beam="2">  1       -3 0.67430556E-02 0.82629399E+02</pdfrwt>
<totfact> 0.28688543E+03</totfact>
</mgrwt>
</event>
<event>
 4    1  0.5015492E-001  0.1022665E+03  0.7546771E-02  0.1275601E+00
         -2   -1    0    0    0  501 -0.00000000000E+00  0.00000000000E+00  0.39173461222E+01  0.39173461222E+01  0.00000000000E+00 0.  1.
          2   -1    0    0  501    0  0.00000000000E+00 -0.00000000000E+00 -0.26699392129E+04  0.26699392129E+04  0.00000000000E+00 0. -1.
         24    1    1    2    0    0  0.80991926071E+01  0.62654870492E+02 -0.13433898619E+04  0.13472767966E+04  0.80419002446E+02 0.  0.
        -24    1    1    2    0    0 -0.80991926071E+01 -0.62654870492E+02 -0.13226320048E+04  0.13265797624E+04  0.80419002446E+02 0. -1.
<mgrwt>
<rscale>  0 0.10226654E+03</rscale>
<asrwt>0</asrwt>
<pdfrwt beam="1">  1        2 0.41076017E+00 0.10226654E+03</pdfrwt>
<pdfrwt beam="2">  1       -2 0.60266821E-03 0.10226654E+03</pdfrwt>
<totfact> 0.14015294E+04</totfact>
</mgrwt>
</event>
<event>
 4    1  0.5015492E-001  0.9035575E+02  0.7546771E-02  0.1301992E+00
          1   -1    0    0  501    0  0.00000000000E+00  0.00000000000E+00  0.46859022986E+02  0.46859022986E+02  0.00000000000E+00 0. -1.
         -1   -1    0    0    0  501 -0.00000000000E+00 -0.00000000000E+00 -0.22996802145E+03  0.22996802145E+03  0.00000000000E+00 0.  1.
         24    1    1    2    0    0 -0.26831436507E+02 -0.31257320196E+02 -0.15969850888E+03  0.18348780816E+03  0.80419002446E+02 0.  1.
        -24    1    1    2    0    0  0.26831436507E+02  0.31257320196E+02 -0.23410489579E+02  0.93339236270E+02  0.80419002446E+02 0. -1.
<mgrwt>
<rscale>  0 0.90355752E+02</rscale>
<asrwt>0</asrwt>
<pdfrwt beam="1">  1        1 0.72090807E-02 0.90355752E+02</pdfrwt>
<pdfrwt beam="2">  1       -1 0.35379695E-01 0.90355752E+02</pdfrwt>
<totfact> 0.70439329E+03</totfact>
</mgrwt>
</event>
<event>
 4    1  0.5015492E-001  0.1408214E+03  0.7546771E-02  0.1212228E+00
         -2   -1    0    0    0  501 -0.00000000000E+00  0.00000000000E+00  0.11573174716E+02  0.11573174716E+02  0.00000000000E+00 0.  1.
          2   -1    0    0  501    0  0.00000000000E+00 -0.00000000000E+00 -0.34903458432E+04  0.34903458432E+04  0.00000000000E+00 0. -1.
         24    1    1    2    0    0 -0.47630496448E+02 -0.10533177975E+03 -0.29886854727E+04  0.29920012565E+04  0.80419002446E+02 0. -1.
        -24    1    1    2    0    0  0.47630496448E+02  0.10533177975E+03 -0.49008719581E+03  0.50991776147E+03  0.80419002446E+02 0.  1.
<mgrwt>
<rscale>  0 0.14082139E+03</rscale>
<asrwt>0</asrwt>
<pdfrwt beam="1">  1        2 0.53697539E+00 0.14082139E+03</pdfrwt>
<pdfrwt beam="2">  1       -2 0.17804914E-02 0.14082139E+03</pdfrwt>
<totfact> 0.98000095E+02</totfact>
</mgrwt>
</event>
<event>
 4    1  0.5015492E-001  0.8672784E+02  0.7546771E-02  0.1310975E+00
         -3   -1    0    0    0  501 -0.00000000000E+00  0.00000000000E+00  0.18912642520E+02  0.18912642520E+02  0.00000000000E+00 0.  1.
          3   -1    0    0  501    0  0.00000000000E+00 -0.00000000000E+00 -0.40139974652E+03  0.40139974652E+03  0.00000000000E+00 0. -1.
         24    1    1    2    0    0 -0.32386583779E+02 -0.23686813580E+01 -0.17109034649E+03  0.19181664181E+03  0.80419002446E+02 0.  0.
        -24    1    1    2    0    0  0.32386583779E+02  0.23686813580E+01 -0.21139675751E+03  0.22849574723E+03  0.80419002446E+02 0. -1.
<mgrwt>
<rscale>  0 0.86727835E+02</rscale>
<asrwt>0</asrwt>
<pdfrwt beam="1">  1        3 0.61753803E-01 0.86727835E+02</pdfrwt>
<pdfrwt beam="2">  1       -3 0.29096375E-02 0.86727835E+02</pdfrwt>
<totfact> 0.28994004E+03</totfact>
</mgrwt>
</event>
<event>
 4    1  0.5015492E-001  0.9306016E+02  0.7546771E-02  0.1295606E+00
          2   -1    0    0  501    0  0.00000000000E+00  0.00000000000E+00  0.61956456256E+03  0.61956456256E+03  0.00000000000E+00 0. -1.
         -2   -1    0    0    0  501 -0.00000000000E+00 -0.00000000000E+00 -0.14855209156E+02  0.14855209156E+02  0.00000000000E+00 0.  1.
         24    1    1    2    0    0 -0.26891640175E+02  0.38338184153E+02  0.37944346108E+03  0.39068853680E+03  0.80419002446E+02 0. -1.
        -24    1    1    2    0    0  0.26891640175E+02 -0.38338184153E+02  0.22526589232E+03  0.24373123491E+03  0.80419002446E+02 0.  0.
<mgrwt>
<rscale>  0 0.93060156E+02</rscale>
<asrwt>0</asrwt>
<pdfrwt beam="1">  1        2 0.95317605E-01 0.93060156E+02</pdfrwt>
<pdfrwt beam="2">  1       -2 0.22854173E-02 0.93060156E+02</pdfrwt>
<totfact> 0.27887713E+04</totfact>
</mgrwt>
</event>
<event>
 4    1  0.5015492E-001  0.1079995E+03  0.7546771E-02  0.1264320E+00
          2   -1    0    0  501    0  0.00000000000E+00  0.00000000000E+00  0.29111161643E+03  0.29111161643E+03  0.00000000000E+00 0. -1.
         -2   -1    0    0    0  501 -0.00000000000E+00 -0.00000000000E+00 -0.17191891769E+03  0.17191891769E+03  0.00000000000E+00 0.  1.
         24    1    1    2    0    0  0.68325219151E+02  0.22985523141E+02  0.26234664589E+03  0.28370697631E+03  0.80419002446E+02 0. -1.
        -24    1    1    2    0    0 -0.68325219151E+02 -0.22985523141E+02 -0.14315394715E+03  0.17932355781E+03  0.80419002446E+02 0.  1.
<mgrwt>
<rscale>  0 0.10799947E+03</rscale>
<asrwt>0</asrwt>
<pdfrwt beam="1">  1        2 0.44786402E-01 0.10799947E+03</pdfrwt>
<pdfrwt beam="2">  1       -2 0.26449064E-01 0.10799947E+03</pdfrwt>
<totfact> 0.14174361E+03</totfact>
</mgrwt>
</event>
<event>
 4    1  0.5015492E-001  0.8452005E+02  0.7546771E-02  0.1316692E+00
         -3   -1    0    0    0  501 -0.00000000000E+00  0.00000000000E+00  0.14135732684E+03  0.14135732684E+03  0.00000000000E+00 0.  1.
          3   -1    0    0  501    0  0.00000000000E+00 -0.00000000000E+00 -0.69361303235E+02  0.69361303235E+02  0.00000000000E+00 0. -1.
         24    1    1    2    0    0 -0.21662760391E+02 -0.14392601712E+02  0.90886966362E+02  0.12411316925E+03  0.80419002446E+02 0.  1.
        -24    1    1    2    0    0  0.21662760391E+02  0.14392601712E+02 -0.18890942761E+02  0.86605460824E+02  0.80419002446E+02 0. -1.
<mgrwt>
<rscale>  0 0.84520046E+02</rscale>
<asrwt>0</asrwt>
<pdfrwt beam="1">  1        3 0.10670970E-01 0.84520046E+02</pdfrwt>
<pdfrwt beam="2">  1       -3 0.21747281E-01 0.84520046E+02</pdfrwt>
<totfact> 0.26616648E+03</totfact>
</mgrwt>
</event>
<event>
 4    1  0.5015492E-001  0.9401847E+02  0.7546771E-02  0.1293402E+00
          2   -1    0    0  501    0  0.00000000000E+00  0.00000000000E+00  0.17411124057E+04  0.17411124057E+04  0.00000000000E+00 0. -1.
         -2   -1    0    0    0  501 -0.00000000000E+00 -0.00000000000E+00 -0.53245633990E+01  0.53245633990E+01  0.00000000000E+00 0.  1.
         24    1    1    2    0    0 -0.36337253168E+02 -0.32432331802E+02  0.67957041382E+03  0.68604330432E+03  0.80419002446E+02 0. -1.
        -24    1    1    2    0    0  0.36337253168E+02  0.32432331802E+02  0.10562174285E+04  0.10603936648E+04  0.80419002446E+02 0.  1.
<mgrwt>
<rscale>  0 0.94018457E+02</rscale>
<asrwt>0</asrwt>
<pdfrwt beam="1">  1        2 0.26786299E+00 0.94018469E+02</pdfrwt>
<pdfrwt beam="2">  1       -2 0.81916499E-03 0.94018469E+02</pdfrwt>
<totfact> 0.27182298E+04</totfact>
</mgrwt>
</event>
<event>
 4    1  0.5015492E-001  0.1013843E+03  0.7546771E-02  0.1277412E+00
          1   -1    0    0  501    0  0.00000000000E+00  0.00000000000E+00  0.36377988136E+03  0.36377988136E+03  0.00000000000E+00 0. -1.
         -1   -1    0    0    0  501 -0.00000000000E+00 -0.00000000000E+00 -0.18878291125E+03  0.18878291125E+03  0.00000000000E+00 0.  1.
         24    1    1    2    0    0 -0.52673246153E+02  0.32203953848E+02 -0.16726953230E+03  0.19559621135E+03  0.80419002446E+02 0.  1.
        -24    1    1    2    0    0  0.52673246153E+02 -0.32203953848E+02  0.34226650242E+03  0.35696658126E+03  0.80419002446E+02 0. -1.
<mgrwt>
<rscale>  0 0.10138433E+03</rscale>
<asrwt>0</asrwt>
<pdfrwt beam="1">  1        1 0.55966136E-01 0.10138433E+03</pdfrwt>
<pdfrwt beam="2">  1       -1 0.29043525E-01 0.10138433E+03</pdfrwt>
<totfact> 0.73875703E+02</totfact>
</mgrwt>
</event>
<event>
 4    1  0.5015492E-001  0.8113019E+02  0.7546771E-02  0.1325874E+00
         -2   -1    0    0    0  501 -0.00000000000E+00  0.00000000000E+00  0.35838215294E+03  0.35838215294E+03  0.00000000000E+00 0.  1.
          2   -1    0    0  501    0  0.00000000000E+00 -0.00000000000E+00 -0.23290368467E+03  0.23290368467E+03  0.00000000000E+00 0. -1.
         24    1    1    2    0    0  0.41523786975E+01  0.98817935437E+01 -0.22100753345E+03  0.23542820113E+03  0.80419002446E+02 0. -1.
        -24    1    1    2    0    0 -0.41523786975E+01 -0.98817935437E+01  0.34648600172E+03  0.35585763647E+03  0.80419002446E+02 0.  1.
<mgrwt>
<rscale>  0 0.81130192E+02</rscale>
<asrwt>0</asrwt>
<pdfrwt beam="1">  1        2 0.35831336E-01 0.81130192E+02</pdfrwt>
<pdfrwt beam="2">  1       -2 0.55135716E-01 0.81130192E+02</pdfrwt>
<totfact> 0.45173159E+02</totfact>
</mgrwt>
</event>
<event>
 4    1  0.5015492E-001  0.8150346E+02  0.7546771E-02  0.1324838E+00
         -1   -1    0    0    0  501 -0.00000000000E+00  0.00000000000E+00  0.86456916003E+03  0.86456916003E+03  0.00000000000E+00 0.  1.
          1   -1    0    0  501    0  0.00000000000E+00 -0.00000000000E+00 -0.40505290258E+02  0.40505290258E+02  0.00000000000E+00 0. -1.
         24    1    1    2    0    0  0.13645803240E+01  0.13180887938E+02  0.81939378896E+03  0.82343730497E+03  0.80419002446E+02 0.  1.
        -24    1    1    2    0    0 -0.13645803240E+01 -0.13180887938E+02  0.46700808177E+01  0.81637145317E+02  0.80419002446E+02 0. -1.
<mgrwt>
<rscale>  0 0.81503459E+02</rscale>
<asrwt>0</asrwt>
<pdfrwt beam="1">  1        1 0.62315837E-02 0.81503459E+02</pdfrwt>
<pdfrwt beam="2">  1       -1 0.13301063E+00 0.81503459E+02</pdfrwt>
<totfact> 0.61847295E+02</totfact>
</mgrwt>
</event>
<event>
 4    1  0.5015492E-001  0.1241561E+03  0.7546771E-02  0.1236394E+00
         -2   -1    0    0    0  501 -0.00000000000E+00  0.00000000000E+00  0.76954946572E+02  0.76954946572E+02  0.00000000000E+00 0.  1.
          2   -1    0    0  501    0  0.00000000000E+00 -0.00000000000E+00 -0.20975643224E+03  0.20975643224E+03  0.00000000000E+00 0. -1.
         24    1    1    2    0    0 -0.19219200492E+00 -0.94591188372E+02 -0.96825066156E+02  0.15744789375E+03  0.80419002446E+02 0. -1.
        -24    1    1    2    0    0  0.19219200492E+00  0.94591188372E+02 -0.35976419512E+02  0.12926348506E+03  0.80419002446E+02 0.  1.
<mgrwt>
<rscale>  0 0.12415613E+03</rscale>
<asrwt>0</asrwt>
<pdfrwt beam="1">  1        2 0.32270220E-01 0.12415613E+03</pdfrwt>
<pdfrwt beam="2">  1       -2 0.11839223E-01 0.12415613E+03</pdfrwt>
<totfact> 0.76996954E+03</totfact>
</mgrwt>
</event>
<event>
 4    1  0.5015492E-001  0.9007346E+02  0.7546771E-02  0.1302674E+00
         -3   -1    0    0    0  501 -0.00000000000E+00  0.00000000000E+00  0.39060021459E+03  0.39060021459E+03  0.00000000000E+00 0.  1.
          3   -1    0    0  501    0  0.00000000000E+00 -0.00000000000E+00 -0.33016994591E+02  0.33016994591E+02  0.00000000000E+00 0. -1.
         24    1    1    2    0    0  0.40265050734E+02  0.49737944144E+01  0.30778533973E+03  0.32069462772E+03  0.80419002446E+02 0.  1.
        -24    1    1    2    0    0 -0.40265050734E+02 -0.49737944144E+01  0.49797880276E+02  0.10292258147E+03  0.80419002446E+02 0. -1.
<mgrwt>
<rscale>  0 0.90073464E+02</rscale>
<asrwt>0</asrwt>
<pdfrwt beam="1">  1        3 0.50795379E-02 0.90073464E+02</pdfrwt>
<pdfrwt beam="2">  1       -3 0.60092337E-01 0.90073464E+02</pdfrwt>
<totfact> 0.13038492E+03</totfact>
</mgrwt>
</event>
<event>
 4    1  0.5015492E-001  0.2242852E+03  0.7546771E-02  0.1130728E+00
         -1   -1    0    0    0  501 -0.00000000000E+00  0.00000000000E+00  0.39811959970E+02  0.39811959970E+02  0.00000000000E+00 0.  1.
          1   -1    0    0  501    0  0.00000000000E+00 -0.00000000000E+00 -0.12671937240E+04  0.12671937240E+04  0.00000000000E+00 0. -1.
         24    1    1    2    0    0 -0.16496819265E+02 -0.20872100636E+03 -0.64880396384E+03  0.68647680441E+03  0.80419002446E+02 0. -1.
        -24    1    1    2    0    0  0.16496819265E+02  0.20872100636E+03 -0.57857780015E+03  0.62052887952E+03  0.80419002446E+02 0.  1.
<mgrwt>
<rscale>  0 0.22428516E+03</rscale>
<asrwt>0</asrwt>
<pdfrwt beam="1">  1        1 0.19495289E+00 0.22428519E+03</pdfrwt>
<pdfrwt beam="2">  1       -1 0.61249167E-02 0.22428519E+03</pdfrwt>
<totfact> 0.13335807E+03</totfact>
</mgrwt>
</event>
<event>
 4    1  0.5015492E-001  0.1083320E+03  0.7546771E-02  0.1263690E+00
          2   -1    0    0  501    0  0.00000000000E+00  0.00000000000E+00  0.25378264148E+03  0.25378264148E+03  0.00000000000E+00 0. -1.
         -2   -1    0    0    0  501 -0.00000000000E+00 -0.00000000000E+00 -0.56827359006E+02  0.56827359006E+02  0.00000000000E+00 0.  1.
         24    1    1    2    0    0  0.17051238981E+01 -0.72565207176E+02  0.16550095343E+03  0.19780393899E+03  0.80419002446E+02 0. -1.
        -24    1    1    2    0    0 -0.17051238981E+01  0.72565207176E+02  0.31454329045E+02  0.11280606150E+03  0.80419002446E+02 0.  1.
<mgrwt>
<rscale>  0 0.10833205E+03</rscale>
<asrwt>0</asrwt>
<pdfrwt beam="1">  1        2 0.39043483E-01 0.10833205E+03</pdfrwt>
<pdfrwt beam="2">  1       -2 0.87426707E-02 0.10833205E+03</pdfrwt>
<totfact> 0.10004459E+04</totfact>
</mgrwt>
</event>
<event>
 4    1  0.5015492E-001  0.8997260E+02  0.7546771E-02  0.1302918E+00
         -1   -1    0    0    0  501 -0.00000000000E+00  0.00000000000E+00  0.14722437413E+03  0.14722437413E+03  0.00000000000E+00 0.  1.
          1   -1    0    0  501    0  0.00000000000E+00 -0.00000000000E+00 -0.55219116420E+02  0.55219116420E+02  0.00000000000E+00 0. -1.
         24    1    1    2    0    0  0.33248825396E+02  0.22855288375E+02  0.39405258317E+02  0.98223413371E+02  0.80419002446E+02 0.  0.
        -24    1    1    2    0    0 -0.33248825396E+02 -0.22855288375E+02  0.52599999395E+02  0.10422007718E+03  0.80419002446E+02 0.  0.
<mgrwt>
<rscale>  0 0.89972588E+02</rscale>
<asrwt>0</asrwt>
<pdfrwt beam="1">  1        1 0.84952488E-02 0.89972599E+02</pdfrwt>
<pdfrwt beam="2">  1       -1 0.22649904E-01 0.89972599E+02</pdfrwt>
<totfact> 0.11826191E+04</totfact>
</mgrwt>
</event>
<event>
 4    1  0.5015492E-001  0.8247948E+02  0.7546771E-02  0.1322159E+00
         -2   -1    0    0    0  501 -0.00000000000E+00  0.00000000000E+00  0.28031182494E+01  0.28031182494E+01  0.00000000000E+00 0.  1.
          2   -1    0    0  501    0  0.00000000000E+00 -0.00000000000E+00 -0.36542644488E+04  0.36542644488E+04  0.00000000000E+00 0. -1.
         24    1    1    2    0    0 -0.16412257341E+02 -0.81416083353E+01 -0.28854510072E+04  0.28866295880E+04  0.80419002446E+02 0.  0.
        -24    1    1    2    0    0  0.16412257341E+02  0.81416083353E+01 -0.76601032344E+03  0.77043797904E+03  0.80419002446E+02 0.  0.
<mgrwt>
<rscale>  0 0.82479476E+02</rscale>
<asrwt>0</asrwt>
<pdfrwt beam="1">  1        2 0.56219269E+00 0.82479476E+02</pdfrwt>
<pdfrwt beam="2">  1       -2 0.43125037E-03 0.82479476E+02</pdfrwt>
<totfact> 0.58245147E+03</totfact>
</mgrwt>
</event>
<event>
 4    1  0.5015492E-001  0.9250427E+02  0.7546771E-02  0.1296898E+00
         -1   -1    0    0    0  501 -0.00000000000E+00  0.00000000000E+00  0.69845545683E+01  0.69845545683E+01  0.00000000000E+00 0.  1.
          1   -1    0    0  501    0  0.00000000000E+00 -0.00000000000E+00 -0.14324470634E+04  0.14324470634E+04  0.00000000000E+00 0. -1.
         24    1    1    2    0    0  0.22620139817E+02  0.39725969978E+02 -0.43893249697E+03  0.44857415916E+03  0.80419002446E+02 0.  1.
        -24    1    1    2    0    0 -0.22620139817E+02 -0.39725969978E+02 -0.98653001183E+03  0.99085745877E+03  0.80419002446E+02 0. -1.
<mgrwt>
<rscale>  0 0.92504267E+02</rscale>
<asrwt>0</asrwt>
<pdfrwt beam="1">  1        1 0.22037659E+00 0.92504267E+02</pdfrwt>
<pdfrwt beam="2">  1       -1 0.10745463E-02 0.92504267E+02</pdfrwt>
<totfact> 0.12723806E+04</totfact>
</mgrwt>
</event>
<event>
 4    1  0.5015492E-001  0.8151923E+02  0.7546771E-02  0.1324795E+00
         -2   -1    0    0    0  501 -0.00000000000E+00  0.00000000000E+00  0.10464515525E+02  0.10464515525E+02  0.00000000000E+00 0.  1.
          2   -1    0    0  501    0  0.00000000000E+00 -0.00000000000E+00 -0.12776160440E+04  0.12776160440E+04  0.00000000000E+00 0. -1.
         24    1    1    2    0    0 -0.10930749552E+02  0.76607624022E+01 -0.10903221953E+04  0.10933653891E+04  0.80419002446E+02 0. -1.
        -24    1    1    2    0    0  0.10930749552E+02 -0.76607624022E+01 -0.17682933314E+03  0.19471517039E+03  0.80419002446E+02 0.  0.
<mgrwt>
<rscale>  0 0.81519228E+02</rscale>
<asrwt>0</asrwt>
<pdfrwt beam="1">  1        2 0.19655648E+00 0.81519228E+02</pdfrwt>
<pdfrwt beam="2">  1       -2 0.16099241E-02 0.81519228E+02</pdfrwt>
<totfact> 0.17812580E+04</totfact>
</mgrwt>
</event>
<event>
 4    1  0.5015492E-001  0.1102274E+03  0.7546771E-02  0.1260149E+00
         -2   -1    0    0    0  501 -0.00000000000E+00  0.00000000000E+00  0.10629433253E+03  0.10629433253E+03  0.00000000000E+00 0.  1.
          2   -1    0    0  501    0  0.00000000000E+00 -0.00000000000E+00 -0.10765386317E+04  0.10765386317E+04  0.00000000000E+00 0. -1.
         24    1    1    2    0    0  0.90714188128E+01 -0.74837018971E+02 -0.10442596771E+04  0.10500611217E+04  0.80419002446E+02 0. -1.
        -24    1    1    2    0    0 -0.90714188128E+01  0.74837018971E+02  0.74015377945E+02  0.13277184255E+03  0.80419002446E+02 0.  1.
<mgrwt>
<rscale>  0 0.11022743E+03</rscale>
<asrwt>0</asrwt>
<pdfrwt beam="1">  1        2 0.16562132E+00 0.11022743E+03</pdfrwt>
<pdfrwt beam="2">  1       -2 0.16352975E-01 0.11022743E+03</pdfrwt>
<totfact> 0.71072876E+02</totfact>
</mgrwt>
</event>
<event>
 4    1  0.5015492E-001  0.9522418E+02  0.7546771E-02  0.1290672E+00
         -1   -1    0    0    0  501 -0.00000000000E+00  0.00000000000E+00  0.61321709538E+02  0.61321709538E+02  0.00000000000E+00 0.  1.
          1   -1    0    0  501    0  0.00000000000E+00 -0.00000000000E+00 -0.18805631076E+03  0.18805631076E+03  0.00000000000E+00 0. -1.
         24    1    1    2    0    0 -0.49912765598E+02  0.10447237277E+02 -0.57274343723E+01  0.95396270342E+02  0.80419002446E+02 0.  1.
        -24    1    1    2    0    0  0.49912765598E+02 -0.10447237277E+02 -0.12100716685E+03  0.15398174996E+03  0.80419002446E+02 0. -1.
<mgrwt>
<rscale>  0 0.95224182E+02</rscale>
<asrwt>0</asrwt>
<pdfrwt beam="1">  1        1 0.28931740E-01 0.95224182E+02</pdfrwt>
<pdfrwt beam="2">  1       -1 0.94341092E-02 0.95224182E+02</pdfrwt>
<totfact> 0.96861716E+03</totfact>
</mgrwt>
</event>
<event>
 4    1  0.5015492E-001  0.8238931E+02  0.7546771E-02  0.1322404E+00
          1   -1    0    0  501    0  0.00000000000E+00  0.00000000000E+00  0.84010151353E+02  0.84010151353E+02  0.00000000000E+00 0. -1.
         -1   -1    0    0    0  501 -0.00000000000E+00 -0.00000000000E+00 -0.80800405671E+02  0.80800405671E+02  0.00000000000E+00 0.  1.
         24    1    1    2    0    0 -0.16600036407E+02  0.67244669047E+01  0.18471822594E+01  0.82409997576E+02  0.80419002446E+02 0.  1.
        -24    1    1    2    0    0  0.16600036407E+02 -0.67244669047E+01  0.13625634217E+01  0.82400559448E+02  0.80419002446E+02 0. -1.
<mgrwt>
<rscale>  0 0.82389303E+02</rscale>
<asrwt>0</asrwt>
<pdfrwt beam="1">  1        1 0.12924639E-01 0.82389314E+02</pdfrwt>
<pdfrwt beam="2">  1       -1 0.12430832E-01 0.82389314E+02</pdfrwt>
<totfact> 0.17313861E+04</totfact>
</mgrwt>
</event>
<event>
 4    1  0.5015492E-001  0.1015179E+03  0.7546771E-02  0.1277136E+00
          2   -1    0    0  501    0  0.00000000000E+00  0.00000000000E+00  0.28211664250E+04  0.28211664250E+04  0.00000000000E+00 0. -1.
         -2   -1    0    0    0  501 -0.00000000000E+00 -0.00000000000E+00 -0.13151704287E+02  0.13151704287E+02  0.00000000000E+00 0.  1.
         24    1    1    2    0    0 -0.17540370583E+02  0.59422267041E+02  0.26083731884E+04  0.26103479799E+04  0.80419002446E+02 0. -1.
        -24    1    1    2    0    0  0.17540370583E+02 -0.59422267041E+02  0.19964153226E+03  0.22397014930E+03  0.80419002446E+02 0.  1.
<mgrwt>
<rscale>  0 0.10151791E+03</rscale>
<asrwt>0</asrwt>
<pdfrwt beam="1">  1        2 0.43402512E+00 0.10151791E+03</pdfrwt>
<pdfrwt beam="2">  1       -2 0.20233414E-02 0.10151791E+03</pdfrwt>
<totfact> 0.20666311E+03</totfact>
</mgrwt>
</event>
<event>
 4    1  0.5015492E-001  0.9051779E+02  0.7546771E-02  0.1301603E+00
          1   -1    0    0  501    0  0.00000000000E+00  0.00000000000E+00  0.28136350265E+02  0.28136350265E+02  0.00000000000E+00 0. -1.
         -1   -1    0    0    0  501 -0.00000000000E+00 -0.00000000000E+00 -0.30654206104E+03  0.30654206104E+03  0.00000000000E+00 0.  1.
         24    1    1    2    0    0 -0.36106484470E+02 -0.20556673456E+02 -0.17663210314E+03  0.19847511395E+03  0.80419002446E+02 0.  0.
        -24    1    1    2    0    0  0.36106484470E+02  0.20556673456E+02 -0.10177360763E+03  0.13620329735E+03  0.80419002446E+02 0. -1.
<mgrwt>
<rscale>  0 0.90517794E+02</rscale>
<asrwt>0</asrwt>
<pdfrwt beam="1">  1        1 0.43286693E-02 0.90517794E+02</pdfrwt>
<pdfrwt beam="2">  1       -1 0.47160316E-01 0.90517794E+02</pdfrwt>
<totfact> 0.84804175E+03</totfact>
</mgrwt>
</event>
<event>
 4    1  0.5015492E-001  0.9261674E+02  0.7546771E-02  0.1296636E+00
          1   -1    0    0  501    0  0.00000000000E+00  0.00000000000E+00  0.15697369642E+03  0.15697369642E+03  0.00000000000E+00 0. -1.
         -1   -1    0    0    0  501 -0.00000000000E+00 -0.00000000000E+00 -0.11715380740E+03  0.11715380740E+03  0.00000000000E+00 0.  1.
         24    1    1    2    0    0 -0.38936566260E+02  0.24384167863E+02 -0.80208549246E+02  0.12252049282E+03  0.80419002446E+02 0.  1.
        -24    1    1    2    0    0  0.38936566260E+02 -0.24384167863E+02  0.12002843827E+03  0.15160701099E+03  0.80419002446E+02 0. -1.
<mgrwt>
<rscale>  0 0.92616736E+02</rscale>
<asrwt>0</asrwt>
<pdfrwt beam="1">  1        1 0.24149799E-01 0.92616736E+02</pdfrwt>
<pdfrwt beam="2">  1       -1 0.18023663E-01 0.92616736E+02</pdfrwt>
<totfact> 0.44667515E+03</totfact>
</mgrwt>
</event>
<event>
 4    1  0.5015492E-001  0.1033510E+03  0.7546771E-02  0.1273403E+00
          2   -1    0    0  501    0  0.00000000000E+00  0.00000000000E+00  0.96135540710E+03  0.96135540710E+03  0.00000000000E+00 0. -1.
         -2   -1    0    0    0  501 -0.00000000000E+00 -0.00000000000E+00 -0.11339343154E+02  0.11339343154E+02  0.00000000000E+00 0.  1.
         24    1    1    2    0    0  0.64444442348E+02  0.78184630631E+01  0.40596275807E+03  0.41891191366E+03  0.80419002446E+02 0.  1.
        -24    1    1    2    0    0 -0.64444442348E+02 -0.78184630631E+01  0.54405330587E+03  0.55378283659E+03  0.80419002446E+02 0. -1.
<mgrwt>
<rscale>  0 0.10335102E+03</rscale>
<asrwt>0</asrwt>
<pdfrwt beam="1">  1        2 0.14790077E+00 0.10335103E+03</pdfrwt>
<pdfrwt beam="2">  1       -2 0.17445151E-02 0.10335103E+03</pdfrwt>
<totfact> 0.24351043E+04</totfact>
</mgrwt>
</event>
<event>
 4    1  0.5015492E-001  0.8062884E+02  0.7546771E-02  0.1327276E+00
          1   -1    0    0  501    0  0.00000000000E+00  0.00000000000E+00  0.10333551315E+04  0.10333551315E+04  0.00000000000E+00 0. -1.
         -1   -1    0    0    0  501 -0.00000000000E+00 -0.00000000000E+00 -0.78556244821E+01  0.78556244821E+01  0.00000000000E+00 0.  1.
         24    1    1    2    0    0 -0.23601289712E+01 -0.53125356425E+01  0.28042245485E+03  0.29178375962E+03  0.80419002446E+02 0.  1.
        -24    1    1    2    0    0  0.23601289712E+01  0.53125356425E+01  0.74507705216E+03  0.74942699635E+03  0.80419002446E+02 0.  0.
<mgrwt>
<rscale>  0 0.80628836E+02</rscale>
<asrwt>0</asrwt>
<pdfrwt beam="1">  1        1 0.15897760E+00 0.80628836E+02</pdfrwt>
<pdfrwt beam="2">  1       -1 0.12085584E-02 0.80628836E+02</pdfrwt>
<totfact> 0.19722664E+04</totfact>
</mgrwt>
</event>
<event>
 4    1  0.5015492E-001  0.8499226E+02  0.7546771E-02  0.1315453E+00
          2   -1    0    0  501    0  0.00000000000E+00  0.00000000000E+00  0.89903873610E+03  0.89903873610E+03  0.00000000000E+00 0. -1.
         -2   -1    0    0    0  501 -0.00000000000E+00 -0.00000000000E+00 -0.11873418110E+02  0.11873418110E+02  0.00000000000E+00 0.  1.
         24    1    1    2    0    0  0.90622106624E+01  0.25968160023E+02  0.70254732107E+03  0.70766971342E+03  0.80419002446E+02 0. -1.
        -24    1    1    2    0    0 -0.90622106624E+01 -0.25968160023E+02  0.18461799693E+03  0.20324244079E+03  0.80419002446E+02 0.  1.
<mgrwt>
<rscale>  0 0.84992264E+02</rscale>
<asrwt>0</asrwt>
<pdfrwt beam="1">  1        2 0.13831360E+00 0.84992264E+02</pdfrwt>
<pdfrwt beam="2">  1       -2 0.18266804E-02 0.84992264E+02</pdfrwt>
<totfact> 0.24437883E+04</totfact>
</mgrwt>
</event>
<event>
 4    1  0.5015492E-001  0.8322117E+02  0.7546771E-02  0.1320151E+00
         -2   -1    0    0    0  501 -0.00000000000E+00  0.00000000000E+00  0.82710006144E+02  0.82710006144E+02  0.00000000000E+00 0.  1.
          2   -1    0    0  501    0  0.00000000000E+00 -0.00000000000E+00 -0.21045163110E+03  0.21045163110E+03  0.00000000000E+00 0. -1.
         24    1    1    2    0    0 -0.40067368580E+01  0.21035514121E+02 -0.17761179282E+03  0.19614207019E+03  0.80419002446E+02 0.  0.
        -24    1    1    2    0    0  0.40067368580E+01 -0.21035514121E+02  0.49870167864E+02  0.97019567056E+02  0.80419002446E+02 0.  1.
<mgrwt>
<rscale>  0 0.83221168E+02</rscale>
<asrwt>0</asrwt>
<pdfrwt beam="1">  1        2 0.32377173E-01 0.83221168E+02</pdfrwt>
<pdfrwt beam="2">  1       -2 0.12724617E-01 0.83221168E+02</pdfrwt>
<totfact> 0.66344554E+03</totfact>
</mgrwt>
</event>
<event>
 4    1  0.5015492E-001  0.8455493E+02  0.7546771E-02  0.1316601E+00
         -2   -1    0    0    0  501 -0.00000000000E+00  0.00000000000E+00  0.15265582823E+03  0.15265582823E+03  0.00000000000E+00 0.  1.
          2   -1    0    0  501    0  0.00000000000E+00 -0.00000000000E+00 -0.46909805173E+02  0.46909805173E+02  0.00000000000E+00 0. -1.
         24    1    1    2    0    0  0.47822295004E+01  0.25679693861E+02  0.56875650925E+02  0.10190373898E+03  0.80419002446E+02 0. -1.
        -24    1    1    2    0    0 -0.47822295004E+01 -0.25679693861E+02  0.48870372134E+02  0.97661894425E+02  0.80419002446E+02 0.  1.
<mgrwt>
<rscale>  0 0.84554918E+02</rscale>
<asrwt>0</asrwt>
<pdfrwt beam="1">  1        2 0.72168932E-02 0.84554928E+02</pdfrwt>
<pdfrwt beam="2">  1       -2 0.23485512E-01 0.84554928E+02</pdfrwt>
<totfact> 0.13667765E+04</totfact>
</mgrwt>
</event>
<event>
 4    1  0.5015492E-001  0.1089723E+03  0.7546771E-02  0.1262485E+00
          2   -1    0    0  501    0  0.00000000000E+00  0.00000000000E+00  0.11145339277E+04  0.11145339277E+04  0.00000000000E+00 0. -1.
         -2   -1    0    0    0  501 -0.00000000000E+00 -0.00000000000E+00 -0.14952280639E+02  0.14952280639E+02  0.00000000000E+00 0.  1.
         24    1    1    2    0    0 -0.67021437059E+02 -0.30263370105E+02  0.85256033458E+03  0.85949641340E+03  0.80419002446E+02 0. -1.
        -24    1    1    2    0    0  0.67021437059E+02  0.30263370105E+02  0.24702131247E+03  0.26998979493E+03  0.80419002446E+02 0.  1.
<mgrwt>
<rscale>  0 0.10897229E+03</rscale>
<asrwt>0</asrwt>
<pdfrwt beam="1">  1        2 0.17146669E+00 0.10897229E+03</pdfrwt>
<pdfrwt beam="2">  1       -2 0.23003518E-02 0.10897229E+03</pdfrwt>
<totfact> 0.13365444E+04</totfact>
</mgrwt>
</event>
<event>
 4    1  0.5015492E-001  0.8371745E+02  0.7546771E-02  0.1318821E+00
          3   -1    0    0  501    0  0.00000000000E+00  0.00000000000E+00  0.71413252917E+01  0.71413252917E+01  0.00000000000E+00 0. -1.
         -3   -1    0    0    0  501 -0.00000000000E+00 -0.00000000000E+00 -0.14390883503E+04  0.14390883503E+04  0.00000000000E+00 0.  1.
         24    1    1    2    0    0 -0.12681564484E+02  0.19508293375E+02 -0.11237675201E+04  0.11268815602E+04  0.80419002446E+02 0.  1.
        -24    1    1    2    0    0  0.12681564484E+02 -0.19508293375E+02 -0.30817950489E+03  0.31934811535E+03  0.80419002446E+02 0. -1.
<mgrwt>
<rscale>  0 0.83717451E+02</rscale>
<asrwt>0</asrwt>
<pdfrwt beam="1">  1        3 0.10986668E-02 0.83717451E+02</pdfrwt>
<pdfrwt beam="2">  1       -3 0.22139792E+00 0.83717451E+02</pdfrwt>
<totfact> 0.61589391E+02</totfact>
</mgrwt>
</event>
<event>
 4    1  0.5015492E-001  0.9865945E+02  0.7546771E-02  0.1283140E+00
         -1   -1    0    0    0  501 -0.00000000000E+00  0.00000000000E+00  0.73995456801E+02  0.73995456801E+02  0.00000000000E+00 0.  1.
          1   -1    0    0  501    0  0.00000000000E+00 -0.00000000000E+00 -0.37165214117E+03  0.37165214117E+03  0.00000000000E+00 0. -1.
         24    1    1    2    0    0 -0.36353406061E+02 -0.44101039030E+02  0.30271968293E+02  0.10319922381E+03  0.80419002446E+02 0.  1.
        -24    1    1    2    0    0  0.36353406061E+02  0.44101039030E+02 -0.32792865266E+03  0.34244837416E+03  0.80419002446E+02 0. -1.
<mgrwt>
<rscale>  0 0.98659453E+02</rscale>
<asrwt>0</asrwt>
<pdfrwt beam="1">  1        1 0.57177251E-01 0.98659453E+02</pdfrwt>
<pdfrwt beam="2">  1       -1 0.11383917E-01 0.98659453E+02</pdfrwt>
<totfact> 0.31669075E+03</totfact>
</mgrwt>
</event>
<event>
 4    1  0.5015492E-001  0.1201647E+03  0.7546771E-02  0.1242826E+00
          1   -1    0    0  501    0  0.00000000000E+00  0.00000000000E+00  0.10769766519E+03  0.10769766519E+03  0.00000000000E+00 0. -1.
         -1   -1    0    0    0  501 -0.00000000000E+00 -0.00000000000E+00 -0.26567902620E+03  0.26567902620E+03  0.00000000000E+00 0.  1.
         24    1    1    2    0    0  0.89124719482E+02  0.53955838510E+01 -0.21038405754E+03  0.24228288336E+03  0.80419002446E+02 0.  1.
        -24    1    1    2    0    0 -0.89124719482E+02 -0.53955838510E+01  0.52402696523E+02  0.13109380803E+03  0.80419002446E+02 0. -1.
<mgrwt>
<rscale>  0 0.12016465E+03</rscale>
<asrwt>0</asrwt>
<pdfrwt beam="1">  1        1 0.16568872E-01 0.12016465E+03</pdfrwt>
<pdfrwt beam="2">  1       -1 0.40873696E-01 0.12016465E+03</pdfrwt>
<totfact> 0.18826476E+03</totfact>
</mgrwt>
</event>
<event>
 4    1  0.5015492E-001  0.1240507E+03  0.7546771E-02  0.1236560E+00
         -2   -1    0    0    0  501 -0.00000000000E+00  0.00000000000E+00  0.13438052916E+03  0.13438052916E+03  0.00000000000E+00 0.  1.
          2   -1    0    0  501    0  0.00000000000E+00 -0.00000000000E+00 -0.55112694319E+03  0.55112694319E+03  0.00000000000E+00 0. -1.
         24    1    1    2    0    0 -0.82144633847E+02 -0.46622208023E+02 -0.51344649209E+03  0.52821954465E+03  0.80419002446E+02 0. -1.
        -24    1    1    2    0    0  0.82144633847E+02  0.46622208023E+02  0.96700078058E+02  0.15728792770E+03  0.80419002446E+02 0.  1.
<mgrwt>
<rscale>  0 0.12405074E+03</rscale>
<asrwt>0</asrwt>
<pdfrwt beam="1">  1        2 0.84788759E-01 0.12405074E+03</pdfrwt>
<pdfrwt beam="2">  1       -2 0.20673928E-01 0.12405074E+03</pdfrwt>
<totfact> 0.10984776E+03</totfact>
</mgrwt>
</event>
<event>
 4    1  0.5015492E-001  0.9635639E+02  0.7546771E-02  0.1288150E+00
         -3   -1    0    0    0  501 -0.00000000000E+00  0.00000000000E+00  0.22678530993E+02  0.22678530993E+02  0.00000000000E+00 0.  1.
          3   -1    0    0  501    0  0.00000000000E+00 -0.00000000000E+00 -0.83516869401E+03  0.83516869401E+03  0.00000000000E+00 0. -1.
         24    1    1    2    0    0 -0.49942445554E+02  0.17974695224E+02 -0.99991942524E+02  0.13886303345E+03  0.80419002446E+02 0.  1.
        -24    1    1    2    0    0  0.49942445554E+02 -0.17974695224E+02 -0.71249822049E+03  0.71898419155E+03  0.80419002446E+02 0. -1.
<mgrwt>
<rscale>  0 0.96356388E+02</rscale>
<asrwt>0</asrwt>
<pdfrwt beam="1">  1        3 0.12848750E+00 0.96356388E+02</pdfrwt>
<pdfrwt beam="2">  1       -3 0.34890044E-02 0.96356388E+02</pdfrwt>
<totfact> 0.44713367E+02</totfact>
</mgrwt>
</event>
<event>
 4    1  0.5015492E-001  0.8655805E+02  0.7546771E-02  0.1311408E+00
          1   -1    0    0  501    0  0.00000000000E+00  0.00000000000E+00  0.91413904106E+01  0.91413904106E+01  0.00000000000E+00 0. -1.
         -1   -1    0    0    0  501 -0.00000000000E+00 -0.00000000000E+00 -0.81960342656E+03  0.81960342656E+03  0.00000000000E+00 0.  1.
         24    1    1    2    0    0  0.31859090199E+02 -0.31740758286E+01 -0.40451191558E+03  0.41366916997E+03  0.80419002446E+02 0. -1.
        -24    1    1    2    0    0 -0.31859090199E+02  0.31740758286E+01 -0.40595012057E+03  0.41507564699E+03  0.80419002446E+02 0.  1.
<mgrwt>
<rscale>  0 0.86558040E+02</rscale>
<asrwt>0</asrwt>
<pdfrwt beam="1">  1        1 0.14063673E-02 0.86558050E+02</pdfrwt>
<pdfrwt beam="2">  1       -1 0.12609287E+00 0.86558050E+02</pdfrwt>
<totfact> 0.53686178E+03</totfact>
</mgrwt>
</event>
<event>
 4    1  0.5015492E-001  0.8194088E+02  0.7546771E-02  0.1323632E+00
          1   -1    0    0  501    0  0.00000000000E+00  0.00000000000E+00  0.12729462059E+03  0.12729462059E+03  0.00000000000E+00 0. -1.
         -1   -1    0    0    0  501 -0.00000000000E+00 -0.00000000000E+00 -0.29048837719E+03  0.29048837719E+03  0.00000000000E+00 0.  1.
         24    1    1    2    0    0  0.15343301093E+02  0.34169275227E+01 -0.27057411687E+03  0.28270949924E+03  0.80419002446E+02 0.  1.
        -24    1    1    2    0    0 -0.15343301093E+02 -0.34169275227E+01  0.10738036028E+03  0.13507349855E+03  0.80419002446E+02 0. -1.
<mgrwt>
<rscale>  0 0.81940883E+02</rscale>
<asrwt>0</asrwt>
<pdfrwt beam="1">  1        1 0.19583788E-01 0.81940883E+02</pdfrwt>
<pdfrwt beam="2">  1       -1 0.44690520E-01 0.81940883E+02</pdfrwt>
<totfact> 0.12823194E+03</totfact>
</mgrwt>
</event>
<event>
 4    1  0.5015492E-001  0.8950235E+02  0.7546771E-02  0.1304061E+00
         -1   -1    0    0    0  501 -0.00000000000E+00  0.00000000000E+00  0.67040344872E+01  0.67040344872E+01  0.00000000000E+00 0.  1.
          1   -1    0    0  501    0  0.00000000000E+00 -0.00000000000E+00 -0.15049554149E+04  0.15049554149E+04  0.00000000000E+00 0. -1.
         24    1    1    2    0    0 -0.32334152095E+02 -0.22314962864E+02 -0.40605808539E+03  0.41580505002E+03  0.80419002446E+02 0.  1.
        -24    1    1    2    0    0  0.32334152095E+02  0.22314962864E+02 -0.10921932950E+04  0.10958543993E+04  0.80419002446E+02 0. -1.
<mgrwt>
<rscale>  0 0.89502351E+02</rscale>
<asrwt>0</asrwt>
<pdfrwt beam="1">  1        1 0.23153138E+00 0.89502351E+02</pdfrwt>
<pdfrwt beam="2">  1       -1 0.10313909E-02 0.89502351E+02</pdfrwt>
<totfact> 0.12088490E+04</totfact>
</mgrwt>
</event>
<event>
 4    1  0.5015492E-001  0.9141902E+02  0.7546771E-02  0.1299451E+00
         -2   -1    0    0    0  501 -0.00000000000E+00  0.00000000000E+00  0.10043589694E+02  0.10043589694E+02  0.00000000000E+00 0.  1.
          2   -1    0    0  501    0  0.00000000000E+00 -0.00000000000E+00 -0.15067818184E+04  0.15067818184E+04  0.00000000000E+00 0. -1.
         24    1    1    2    0    0 -0.31681761344E+02  0.29773948601E+02 -0.12558556985E+04  0.12591786900E+04  0.80419002446E+02 0. -1.
        -24    1    1    2    0    0  0.31681761344E+02 -0.29773948601E+02 -0.24088253024E+03  0.25764671809E+03  0.80419002446E+02 0.  1.
<mgrwt>
<rscale>  0 0.91419024E+02</rscale>
<asrwt>0</asrwt>
<pdfrwt beam="1">  1        2 0.23181250E+00 0.91419024E+02</pdfrwt>
<pdfrwt beam="2">  1       -2 0.15451682E-02 0.91419024E+02</pdfrwt>
<totfact> 0.14481234E+04</totfact>
</mgrwt>
</event>
<event>
 4    1  0.5015492E-001  0.8787800E+02  0.7546771E-02  0.1308073E+00
          1   -1    0    0  501    0  0.00000000000E+00  0.00000000000E+00  0.11623464010E+03  0.11623464010E+03  0.00000000000E+00 0. -1.
         -1   -1    0    0    0  501 -0.00000000000E+00 -0.00000000000E+00 -0.71141553168E+02  0.71141553168E+02  0.00000000000E+00 0.  1.
         24    1    1    2    0    0 -0.19062445861E+01 -0.35379283354E+02 -0.15401740840E+01  0.87891498734E+02  0.80419002446E+02 0.  1.
        -24    1    1    2    0    0  0.19062445861E+01  0.35379283354E+02  0.46633261014E+02  0.99484694533E+02  0.80419002446E+02 0. -1.
<mgrwt>
<rscale>  0 0.87878003E+02</rscale>
<asrwt>0</asrwt>
<pdfrwt beam="1">  1        1 0.17882252E-01 0.87878003E+02</pdfrwt>
<pdfrwt beam="2">  1       -1 0.10944854E-01 0.87878003E+02</pdfrwt>
<totfact> 0.13989262E+04</totfact>
</mgrwt>
</event>
<event>
 4    1  0.5015492E-001  0.8388066E+02  0.7546771E-02  0.1318386E+00
         -2   -1    0    0    0  501 -0.00000000000E+00  0.00000000000E+00  0.46256113749E+02  0.46256113749E+02  0.00000000000E+00 0.  1.
          2   -1    0    0  501    0  0.00000000000E+00 -0.00000000000E+00 -0.89216532214E+03  0.89216532214E+03  0.00000000000E+00 0. -1.
         24    1    1    2    0    0  0.14006099412E+02  0.19302303131E+02 -0.85029866865E+03  0.85442600123E+03  0.80419002446E+02 0. -1.
        -24    1    1    2    0    0 -0.14006099412E+02 -0.19302303131E+02  0.43894602579E+01  0.83995434653E+02  0.80419002446E+02 0.  1.
<mgrwt>
<rscale>  0 0.83880663E+02</rscale>
<asrwt>0</asrwt>
<pdfrwt beam="1">  1        2 0.13725619E+00 0.83880663E+02</pdfrwt>
<pdfrwt beam="2">  1       -2 0.71163258E-02 0.83880663E+02</pdfrwt>
<totfact> 0.33652857E+03</totfact>
</mgrwt>
</event>
<event>
 4    1  0.5015492E-001  0.8160253E+02  0.7546771E-02  0.1324564E+00
         -4   -1    0    0    0  501 -0.00000000000E+00  0.00000000000E+00  0.74210880757E+02  0.74210880757E+02  0.00000000000E+00 0.  1.
          4   -1    0    0  501    0  0.00000000000E+00 -0.00000000000E+00 -0.91518648946E+02  0.91518648946E+02  0.00000000000E+00 0. -1.
         24    1    1    2    0    0  0.13446117854E+02 -0.33104914740E+01 -0.20237038214E+02  0.84074437906E+02  0.80419002446E+02 0. -1.
        -24    1    1    2    0    0 -0.13446117854E+02  0.33104914740E+01  0.29292700252E+01  0.81655091797E+02  0.80419002446E+02 0.  1.
<mgrwt>
<rscale>  0 0.81602533E+02</rscale>
<asrwt>0</asrwt>
<pdfrwt beam="1">  1        4 0.14079792E-01 0.81602533E+02</pdfrwt>
<pdfrwt beam="2">  1       -4 0.11417059E-01 0.81602533E+02</pdfrwt>
<totfact> 0.36449554E+03</totfact>
</mgrwt>
</event>
<event>
 4    1  0.5015492E-001  0.8567638E+02  0.7546771E-02  0.1313673E+00
         -2   -1    0    0    0  501 -0.00000000000E+00  0.00000000000E+00  0.12207794705E+02  0.12207794705E+02  0.00000000000E+00 0.  1.
          2   -1    0    0  501    0  0.00000000000E+00 -0.00000000000E+00 -0.60692580365E+03  0.60692580365E+03  0.00000000000E+00 0. -1.
         24    1    1    2    0    0 -0.10184237229E+02 -0.27740006804E+02 -0.32718593073E+03  0.33821749790E+03  0.80419002446E+02 0. -1.
        -24    1    1    2    0    0  0.10184237229E+02  0.27740006804E+02 -0.26753207821E+03  0.28091610045E+03  0.80419002446E+02 0.  0.
<mgrwt>
<rscale>  0 0.85676383E+02</rscale>
<asrwt>0</asrwt>
<pdfrwt beam="1">  1        2 0.93373179E-01 0.85676383E+02</pdfrwt>
<pdfrwt beam="2">  1       -2 0.18781227E-02 0.85676383E+02</pdfrwt>
<totfact> 0.37497445E+04</totfact>
</mgrwt>
</event>
<event>
 4    1  0.5015492E-001  0.1143460E+03  0.7546771E-02  0.1252727E+00
         -2   -1    0    0    0  501 -0.00000000000E+00  0.00000000000E+00  0.45080056032E+03  0.45080056032E+03  0.00000000000E+00 0.  1.
          2   -1    0    0  501    0  0.00000000000E+00 -0.00000000000E+00 -0.63713745255E+02  0.63713745255E+02  0.00000000000E+00 0. -1.
         24    1    1    2    0    0  0.57094765742E+02 -0.57861639275E+02  0.36644193828E+01  0.11440465680E+03  0.80419002446E+02 0. -1.
        -24    1    1    2    0    0 -0.57094765742E+02  0.57861639275E+02  0.38342239568E+03  0.40010964877E+03  0.80419002446E+02 0.  1.
<mgrwt>
<rscale>  0 0.11434596E+03</rscale>
<asrwt>0</asrwt>
<pdfrwt beam="1">  1        2 0.98021149E-02 0.11434596E+03</pdfrwt>
<pdfrwt beam="2">  1       -2 0.69353931E-01 0.11434596E+03</pdfrwt>
<totfact> 0.12344432E+03</totfact>
</mgrwt>
</event>
<event>
 4    1  0.5015492E-001  0.9294527E+02  0.7546771E-02  0.1295872E+00
          1   -1    0    0  501    0  0.00000000000E+00  0.00000000000E+00  0.17838326326E+04  0.17838326326E+04  0.00000000000E+00 0. -1.
         -1   -1    0    0    0  501 -0.00000000000E+00 -0.00000000000E+00 -0.90694616484E+01  0.90694616484E+01  0.00000000000E+00 0.  1.
         24    1    1    2    0    0  0.25101879215E+02 -0.39261972831E+02  0.27540850914E+03  0.29066934773E+03  0.80419002446E+02 0.  1.
        -24    1    1    2    0    0 -0.25101879215E+02  0.39261972831E+02  0.14993546618E+04  0.15022327465E+04  0.80419002446E+02 0. -1.
<mgrwt>
<rscale>  0 0.92945268E+02</rscale>
<asrwt>0</asrwt>
<pdfrwt beam="1">  1        1 0.27443551E+00 0.92945268E+02</pdfrwt>
<pdfrwt beam="2">  1       -1 0.13953032E-02 0.92945268E+02</pdfrwt>
<totfact> 0.52662295E+03</totfact>
</mgrwt>
</event>
<event>
 4    1  0.5015492E-001  0.8511928E+02  0.7546771E-02  0.1315121E+00
         -2   -1    0    0    0  501 -0.00000000000E+00  0.00000000000E+00  0.67258892387E+02  0.67258892387E+02  0.00000000000E+00 0.  1.
          2   -1    0    0  501    0  0.00000000000E+00 -0.00000000000E+00 -0.11181990894E+03  0.11181990894E+03  0.00000000000E+00 0. -1.
         24    1    1    2    0    0  0.12252384294E+02 -0.25059016089E+02 -0.39420598779E+02  0.93804449632E+02  0.80419002446E+02 0. -1.
        -24    1    1    2    0    0 -0.12252384294E+02  0.25059016089E+02 -0.51404177772E+01  0.85274351698E+02  0.80419002446E+02 0.  1.
<mgrwt>
<rscale>  0 0.85119276E+02</rscale>
<asrwt>0</asrwt>
<pdfrwt beam="1">  1        2 0.17203063E-01 0.85119276E+02</pdfrwt>
<pdfrwt beam="2">  1       -2 0.10347522E-01 0.85119276E+02</pdfrwt>
<totfact> 0.18382077E+04</totfact>
</mgrwt>
</event>
<event>
 4    1  0.5015492E-001  0.9070942E+02  0.7546771E-02  0.1301143E+00
          2   -1    0    0  501    0  0.00000000000E+00  0.00000000000E+00  0.17301237649E+04  0.17301237649E+04  0.00000000000E+00 0. -1.
         -2   -1    0    0    0  501 -0.00000000000E+00 -0.00000000000E+00 -0.57095199878E+01  0.57095199878E+01  0.00000000000E+00 0.  1.
         24    1    1    2    0    0 -0.21480407443E+02  0.36049611350E+02  0.12169214187E+04  0.12202974792E+04  0.80419002446E+02 0. -1.
        -24    1    1    2    0    0  0.21480407443E+02 -0.36049611350E+02  0.50749282616E+03  0.51553580568E+03  0.80419002446E+02 0. -1.
<mgrwt>
<rscale>  0 0.90709417E+02</rscale>
<asrwt>0</asrwt>
<pdfrwt beam="1">  1        2 0.26617247E+00 0.90709417E+02</pdfrwt>
<pdfrwt beam="2">  1       -2 0.87838906E-03 0.90709417E+02</pdfrwt>
<totfact> 0.24880439E+04</totfact>
</mgrwt>
</event>
<event>
 4    1  0.5015492E-001  0.8813800E+02  0.7546771E-02  0.1307424E+00
         -2   -1    0    0    0  501 -0.00000000000E+00  0.00000000000E+00  0.27261831681E+02  0.27261831681E+02  0.00000000000E+00 0.  1.
          2   -1    0    0  501    0  0.00000000000E+00 -0.00000000000E+00 -0.28559906929E+03  0.28559906929E+03  0.00000000000E+00 0. -1.
         24    1    1    2    0    0 -0.98626834568E+01 -0.34696037044E+02 -0.12172059079E+03  0.15028042350E+03  0.80419002446E+02 0. -1.
        -24    1    1    2    0    0  0.98626834568E+01  0.34696037044E+02 -0.13661664682E+03  0.16258047747E+03  0.80419002446E+02 0. -1.
<mgrwt>
<rscale>  0 0.88137991E+02</rscale>
<asrwt>0</asrwt>
<pdfrwt beam="1">  1        2 0.43938318E-01 0.88138002E+02</pdfrwt>
<pdfrwt beam="2">  1       -2 0.41941280E-02 0.88138002E+02</pdfrwt>
<totfact> 0.26173589E+04</totfact>
</mgrwt>
</event>
<event>
 4    1  0.5015492E-001  0.8500696E+02  0.7546771E-02  0.1315414E+00
          1   -1    0    0  501    0  0.00000000000E+00  0.00000000000E+00  0.64075833380E+02  0.64075833380E+02  0.00000000000E+00 0. -1.
         -1   -1    0    0    0  501 -0.00000000000E+00 -0.00000000000E+00 -0.12572216493E+03  0.12572216493E+03  0.00000000000E+00 0.  1.
         24    1    1    2    0    0  0.43820237797E+01 -0.27198627995E+02 -0.61276499586E+02  0.10479023262E+03  0.80419002446E+02 0.  1.
        -24    1    1    2    0    0 -0.43820237797E+01  0.27198627995E+02 -0.36983196449E+00  0.85007765688E+02  0.80419002446E+02 0. -1.
<mgrwt>
<rscale>  0 0.85006961E+02</rscale>
<asrwt>0</asrwt>
<pdfrwt beam="1">  1        1 0.98578206E-02 0.85006961E+02</pdfrwt>
<pdfrwt beam="2">  1       -1 0.19341871E-01 0.85006961E+02</pdfrwt>
<totfact> 0.12434748E+04</totfact>
</mgrwt>
</event>
<event>
 4    1  0.5015492E-001  0.1314144E+03  0.7546771E-02  0.1225372E+00
         -2   -1    0    0    0  501 -0.00000000000E+00  0.00000000000E+00  0.85920277275E+02  0.85920277275E+02  0.00000000000E+00 0.  1.
          2   -1    0    0  501    0  0.00000000000E+00 -0.00000000000E+00 -0.27452588743E+03  0.27452588743E+03  0.00000000000E+00 0. -1.
         24    1    1    2    0    0  0.62708939353E+02  0.82886168599E+02 -0.18757385482E+03  0.22902771664E+03  0.80419002446E+02 0. -1.
        -24    1    1    2    0    0 -0.62708939353E+02 -0.82886168599E+02 -0.10317553332E+01  0.13141844807E+03  0.80419002446E+02 0.  1.
<mgrwt>
<rscale>  0 0.13141440E+03</rscale>
<asrwt>0</asrwt>
<pdfrwt beam="1">  1        2 0.42234753E-01 0.13141440E+03</pdfrwt>
<pdfrwt beam="2">  1       -2 0.13218504E-01 0.13141440E+03</pdfrwt>
<totfact> 0.48633854E+03</totfact>
</mgrwt>
</event>
<event>
 4    1  0.5015492E-001  0.8483285E+02  0.7546771E-02  0.1315870E+00
          1   -1    0    0  501    0  0.00000000000E+00  0.00000000000E+00  0.69274634962E+02  0.69274634962E+02  0.00000000000E+00 0. -1.
         -1   -1    0    0    0  501 -0.00000000000E+00 -0.00000000000E+00 -0.32751546018E+03  0.32751546018E+03  0.00000000000E+00 0.  1.
         24    1    1    2    0    0 -0.67874182147E+01  0.26140534675E+02 -0.29305861295E+03  0.30509009026E+03  0.80419002446E+02 0.  1.
        -24    1    1    2    0    0  0.67874182147E+01 -0.26140534675E+02  0.34817787726E+02  0.91700004883E+02  0.80419002446E+02 0. -1.
<mgrwt>
<rscale>  0 0.84832851E+02</rscale>
<asrwt>0</asrwt>
<pdfrwt beam="1">  1        1 0.10657636E-01 0.84832851E+02</pdfrwt>
<pdfrwt beam="2">  1       -1 0.50386993E-01 0.84832851E+02</pdfrwt>
<totfact> 0.22564771E+03</totfact>
</mgrwt>
</event>
<event>
 4    1  0.5015492E-001  0.8194952E+02  0.7546771E-02  0.1323608E+00
          1   -1    0    0  501    0  0.00000000000E+00  0.00000000000E+00  0.17690067742E+04  0.17690067742E+04  0.00000000000E+00 0. -1.
         -1   -1    0    0    0  501 -0.00000000000E+00 -0.00000000000E+00 -0.50341676476E+01  0.50341676476E+01  0.00000000000E+00 0.  1.
         24    1    1    2    0    0  0.13078615347E+02  0.88009866270E+01  0.44213828500E+03  0.44966875204E+03  0.80419002446E+02 0.  1.
        -24    1    1    2    0    0 -0.13078615347E+02 -0.88009866270E+01  0.13218343216E+04  0.13243721898E+04  0.80419002446E+02 0.  0.
<mgrwt>
<rscale>  0 0.81949518E+02</rscale>
<asrwt>0</asrwt>
<pdfrwt beam="1">  1        1 0.27215439E+00 0.81949518E+02</pdfrwt>
<pdfrwt beam="2">  1       -1 0.77448874E-03 0.81949518E+02</pdfrwt>
<totfact> 0.12261981E+04</totfact>
</mgrwt>
</event>
<event>
 4    1  0.5015492E-001  0.9360082E+02  0.7546771E-02  0.1294359E+00
          2   -1    0    0  501    0  0.00000000000E+00  0.00000000000E+00  0.17161058894E+04  0.17161058894E+04  0.00000000000E+00 0. -1.
         -2   -1    0    0    0  501 -0.00000000000E+00 -0.00000000000E+00 -0.78207940810E+01  0.78207940810E+01  0.00000000000E+00 0.  1.
         24    1    1    2    0    0 -0.19500470473E+02 -0.43745047409E+02  0.13620604049E+04  0.13652727421E+04  0.80419002446E+02 0. -1.
        -24    1    1    2    0    0  0.19500470473E+02  0.43745047409E+02  0.34622469034E+03  0.35865394139E+03  0.80419002446E+02 0.  1.
<mgrwt>
<rscale>  0 0.93600820E+02</rscale>
<asrwt>0</asrwt>
<pdfrwt beam="1">  1        2 0.26401599E+00 0.93600820E+02</pdfrwt>
<pdfrwt beam="2">  1       -2 0.12032005E-02 0.93600820E+02</pdfrwt>
<totfact> 0.16225855E+04</totfact>
</mgrwt>
</event>
<event>
 4    1  0.5015492E-001  0.8078452E+02  0.7546771E-02  0.1326840E+00
         -1   -1    0    0    0  501 -0.00000000000E+00  0.00000000000E+00  0.35314268994E+02  0.35314268994E+02  0.00000000000E+00 0.  1.
          1   -1    0    0  501    0  0.00000000000E+00 -0.00000000000E+00 -0.18838327072E+03  0.18838327072E+03  0.00000000000E+00 0. -1.
         24    1    1    2    0    0  0.27498575372E+01 -0.71663891011E+01 -0.91956848438E+02  0.12240178421E+03  0.80419002446E+02 0. -1.
        -24    1    1    2    0    0 -0.27498575372E+01  0.71663891011E+01 -0.61112153291E+02  0.10129575551E+03  0.80419002446E+02 0.  0.
<mgrwt>
<rscale>  0 0.80784506E+02</rscale>
<asrwt>0</asrwt>
<pdfrwt beam="1">  1        1 0.28982041E-01 0.80784516E+02</pdfrwt>
<pdfrwt beam="2">  1       -1 0.54329645E-02 0.80784516E+02</pdfrwt>
<totfact> 0.21552703E+04</totfact>
</mgrwt>
</event>
<event>
 4    1  0.5015492E-001  0.9506680E+02  0.7546771E-02  0.1291026E+00
          1   -1    0    0  501    0  0.00000000000E+00  0.00000000000E+00  0.24138934350E+03  0.24138934350E+03  0.00000000000E+00 0. -1.
         -1   -1    0    0    0  501 -0.00000000000E+00 -0.00000000000E+00 -0.16972118446E+03  0.16972118446E+03  0.00000000000E+00 0.  1.
         24    1    1    2    0    0  0.49970664691E+02  0.85680955196E+01 -0.14563769225E+03  0.17391961634E+03  0.80419002446E+02 0.  1.
        -24    1    1    2    0    0 -0.49970664691E+02 -0.85680955196E+01  0.21730585129E+03  0.23719091161E+03  0.80419002446E+02 0. -1.
<mgrwt>
<rscale>  0 0.95066795E+02</rscale>
<asrwt>0</asrwt>
<pdfrwt beam="1">  1        1 0.37136822E-01 0.95066795E+02</pdfrwt>
<pdfrwt beam="2">  1       -1 0.26110952E-01 0.95066795E+02</pdfrwt>
<totfact> 0.14536621E+03</totfact>
</mgrwt>
</event>
<event>
 4    1  0.5015492E-001  0.8872713E+02  0.7546771E-02  0.1305964E+00
         -1   -1    0    0    0  501 -0.00000000000E+00  0.00000000000E+00  0.38323486441E+03  0.38323486441E+03  0.00000000000E+00 0.  1.
          1   -1    0    0  501    0  0.00000000000E+00 -0.00000000000E+00 -0.71447138277E+02  0.71447138277E+02  0.00000000000E+00 0. -1.
         24    1    1    2    0    0  0.37265241491E+02  0.40731112213E+01  0.34778950676E+03  0.35892902561E+03  0.80419002446E+02 0.  1.
        -24    1    1    2    0    0 -0.37265241491E+02 -0.40731112213E+01 -0.36001780620E+02  0.95752977085E+02  0.80419002446E+02 0. -1.
<mgrwt>
<rscale>  0 0.88727135E+02</rscale>
<asrwt>0</asrwt>
<pdfrwt beam="1">  1        1 0.10991868E-01 0.88727135E+02</pdfrwt>
<pdfrwt beam="2">  1       -1 0.58959209E-01 0.88727135E+02</pdfrwt>
<totfact> 0.16279553E+03</totfact>
</mgrwt>
</event>
<event>
 4    1  0.5015492E-001  0.9024481E+02  0.7546771E-02  0.1302260E+00
         -2   -1    0    0    0  501 -0.00000000000E+00  0.00000000000E+00  0.66593386657E+01  0.66593386657E+01  0.00000000000E+00 0.  1.
          2   -1    0    0  501    0  0.00000000000E+00 -0.00000000000E+00 -0.14881101678E+04  0.14881101678E+04  0.00000000000E+00 0. -1.
         24    1    1    2    0    0 -0.25846071236E+01  0.40868436562E+02 -0.10562041789E+04  0.10600525425E+04  0.80419002446E+02 0.  1.
        -24    1    1    2    0    0  0.25846071236E+01 -0.40868436562E+02 -0.42524665016E+03  0.43471696393E+03  0.80419002446E+02 0.  0.
<mgrwt>
<rscale>  0 0.90244807E+02</rscale>
<asrwt>0</asrwt>
<pdfrwt beam="1">  1        2 0.22894020E+00 0.90244807E+02</pdfrwt>
<pdfrwt beam="2">  1       -2 0.10245129E-02 0.90244807E+02</pdfrwt>
<totfact> 0.26523085E+04</totfact>
</mgrwt>
</event>
<event>
 4    1  0.5015492E-001  0.9000653E+02  0.7546771E-02  0.1302836E+00
         -1   -1    0    0    0  501 -0.00000000000E+00  0.00000000000E+00  0.10581098112E+02  0.10581098112E+02  0.00000000000E+00 0.  1.
          1   -1    0    0  501    0  0.00000000000E+00 -0.00000000000E+00 -0.34625092409E+04  0.34625092409E+04  0.00000000000E+00 0. -1.
         24    1    1    2    0    0  0.40422113254E+02 -0.10917754348E+00 -0.19338955433E+03  0.21330891880E+03  0.80419002446E+02 0.  1.
        -24    1    1    2    0    0 -0.40422113254E+02  0.10917754348E+00 -0.32585385884E+04  0.32597814202E+04  0.80419002446E+02 0. -1.
<mgrwt>
<rscale>  0 0.90006528E+02</rscale>
<asrwt>0</asrwt>
<pdfrwt beam="1">  1        1 0.53269373E+00 0.90006528E+02</pdfrwt>
<pdfrwt beam="2">  1       -1 0.16278612E-02 0.90006528E+02</pdfrwt>
<totfact> 0.33040720E+02</totfact>
</mgrwt>
</event>
<event>
 4    1  0.5015492E-001  0.8895818E+02  0.7546771E-02  0.1305394E+00
         -1   -1    0    0    0  501 -0.00000000000E+00  0.00000000000E+00  0.22599411406E+02  0.22599411406E+02  0.00000000000E+00 0.  1.
          1   -1    0    0  501    0  0.00000000000E+00 -0.00000000000E+00 -0.11581870914E+04  0.11581870914E+04  0.00000000000E+00 0. -1.
         24    1    1    2    0    0 -0.11778548407E+02 -0.36160849216E+02 -0.74661784645E+02  0.11613758763E+03  0.80419002446E+02 0.  1.
        -24    1    1    2    0    0  0.11778548407E+02  0.36160849216E+02 -0.10609258954E+04  0.10646489152E+04  0.80419002446E+02 0. -1.
<mgrwt>
<rscale>  0 0.88958177E+02</rscale>
<asrwt>0</asrwt>
<pdfrwt beam="1">  1        1 0.17818267E+00 0.88958177E+02</pdfrwt>
<pdfrwt beam="2">  1       -1 0.34768318E-02 0.88958177E+02</pdfrwt>
<totfact> 0.36058816E+03</totfact>
</mgrwt>
</event>
<event>
 4    1  0.5015492E-001  0.8461759E+02  0.7546771E-02  0.1316436E+00
         -1   -1    0    0    0  501 -0.00000000000E+00  0.00000000000E+00  0.77878640537E+02  0.77878640537E+02  0.00000000000E+00 0.  1.
          1   -1    0    0  501    0  0.00000000000E+00 -0.00000000000E+00 -0.11658286352E+03  0.11658286352E+03  0.00000000000E+00 0. -1.
         24    1    1    2    0    0  0.24143773707E+02 -0.10488057023E+02  0.25350687065E+02  0.88333427636E+02  0.80419002446E+02 0.  1.
        -24    1    1    2    0    0 -0.24143773707E+02  0.10488057023E+02 -0.64054910048E+02  0.10612807642E+03  0.80419002446E+02 0. -1.
<mgrwt>
<rscale>  0 0.84617593E+02</rscale>
<asrwt>0</asrwt>
<pdfrwt beam="1">  1        1 0.17935825E-01 0.84617593E+02</pdfrwt>
<pdfrwt beam="2">  1       -1 0.11981329E-01 0.84617593E+02</pdfrwt>
<totfact> 0.12098802E+04</totfact>
</mgrwt>
</event>
<event>
 4    1  0.5015492E-001  0.9420295E+02  0.7546771E-02  0.1292981E+00
          1   -1    0    0  501    0  0.00000000000E+00  0.00000000000E+00  0.49910341863E+03  0.49910341863E+03  0.00000000000E+00 0. -1.
         -1   -1    0    0    0  501 -0.00000000000E+00 -0.00000000000E+00 -0.17981605888E+02  0.17981605888E+02  0.00000000000E+00 0.  1.
         24    1    1    2    0    0 -0.18328363368E+02  0.45508761404E+02  0.26791870658E+03  0.28399758020E+03  0.80419002446E+02 0. -1.
        -24    1    1    2    0    0  0.18328363368E+02 -0.45508761404E+02  0.21320310617E+03  0.23308744432E+03  0.80419002446E+02 0.  1.
<mgrwt>
<rscale>  0 0.94202943E+02</rscale>
<asrwt>0</asrwt>
<pdfrwt beam="1">  1        1 0.76785131E-01 0.94202955E+02</pdfrwt>
<pdfrwt beam="2">  1       -1 0.27664013E-02 0.94202955E+02</pdfrwt>
<totfact> 0.17554503E+04</totfact>
</mgrwt>
</event>
<event>
 4    1  0.5015492E-001  0.1061008E+03  0.7546771E-02  0.1267966E+00
         -1   -1    0    0    0  501 -0.00000000000E+00  0.00000000000E+00  0.81792138907E+02  0.81792138907E+02  0.00000000000E+00 0.  1.
          1   -1    0    0  501    0  0.00000000000E+00 -0.00000000000E+00 -0.32483507155E+03  0.32483507155E+03  0.00000000000E+00 0. -1.
         24    1    1    2    0    0  0.38205230572E+02  0.57710694254E+02  0.32822317162E+02  0.11106162403E+03  0.80419002446E+02 0.  1.
        -24    1    1    2    0    0 -0.38205230572E+02 -0.57710694254E+02 -0.27586524980E+03  0.29556558642E+03  0.80419002446E+02 0. -1.
<mgrwt>
<rscale>  0 0.10610080E+03</rscale>
<asrwt>0</asrwt>
<pdfrwt beam="1">  1        1 0.49974625E-01 0.10610080E+03</pdfrwt>
<pdfrwt beam="2">  1       -1 0.12583406E-01 0.10610080E+03</pdfrwt>
<totfact> 0.32199899E+03</totfact>
</mgrwt>
</event>
<event>
 4    1  0.5015492E-001  0.8365767E+02  0.7546771E-02  0.1318981E+00
         -2   -1    0    0    0  501 -0.00000000000E+00  0.00000000000E+00  0.63480116576E+02  0.63480116576E+02  0.00000000000E+00 0.  1.
          2   -1    0    0  501    0  0.00000000000E+00 -0.00000000000E+00 -0.13449186826E+03  0.13449186826E+03  0.00000000000E+00 0. -1.
         24    1    1    2    0    0  0.11791927672E+02  0.19807600065E+02 -0.77532019504E+02  0.11406060048E+03  0.80419002446E+02 0. -1.
        -24    1    1    2    0    0 -0.11791927672E+02 -0.19807600065E+02  0.65202678179E+01  0.83911384361E+02  0.80419002446E+02 0.  1.
<mgrwt>
<rscale>  0 0.83657675E+02</rscale>
<asrwt>0</asrwt>
<pdfrwt beam="1">  1        2 0.20691057E-01 0.83657675E+02</pdfrwt>
<pdfrwt beam="2">  1       -2 0.97661718E-02 0.83657675E+02</pdfrwt>
<totfact> 0.16315355E+04</totfact>
</mgrwt>
</event>
<event>
 4    1  0.5015492E-001  0.1180078E+03  0.7546771E-02  0.1246420E+00
         -2   -1    0    0    0  501 -0.00000000000E+00  0.00000000000E+00  0.86169207098E+02  0.86169207098E+02  0.00000000000E+00 0.  1.
          2   -1    0    0  501    0  0.00000000000E+00 -0.00000000000E+00 -0.13135771315E+04  0.13135771315E+04  0.00000000000E+00 0. -1.
         24    1    1    2    0    0 -0.51867597538E+02 -0.69053405018E+02 -0.12691116503E+04  0.12745862926E+04  0.80419002446E+02 0. -1.
        -24    1    1    2    0    0  0.51867597538E+02  0.69053405018E+02  0.41703725854E+02  0.12516004604E+03  0.80419002446E+02 0.  1.
<mgrwt>
<rscale>  0 0.11800778E+03</rscale>
<asrwt>0</asrwt>
<pdfrwt beam="1">  1        2 0.20208879E+00 0.11800778E+03</pdfrwt>
<pdfrwt beam="2">  1       -2 0.13256801E-01 0.11800778E+03</pdfrwt>
<totfact> 0.73918120E+02</totfact>
</mgrwt>
</event>
<event>
 4    1  0.5015492E-001  0.8961463E+02  0.7546771E-02  0.1303788E+00
         -2   -1    0    0    0  501 -0.00000000000E+00  0.00000000000E+00  0.73322618560E+01  0.73322618560E+01  0.00000000000E+00 0.  1.
          2   -1    0    0  501    0  0.00000000000E+00 -0.00000000000E+00 -0.12407737793E+04  0.12407737793E+04  0.00000000000E+00 0. -1.
         24    1    1    2    0    0 -0.40289935060E+01  0.39336097753E+02 -0.40301400439E+03  0.41285719694E+03  0.80419002446E+02 0.  0.
        -24    1    1    2    0    0  0.40289935060E+01 -0.39336097753E+02 -0.83042751302E+03  0.83524884418E+03  0.80419002446E+02 0.  1.
<mgrwt>
<rscale>  0 0.89614616E+02</rscale>
<asrwt>0</asrwt>
<pdfrwt beam="1">  1        2 0.19088811E+00 0.89614627E+02</pdfrwt>
<pdfrwt beam="2">  1       -2 0.11280412E-02 0.89614627E+02</pdfrwt>
<totfact> 0.31141168E+04</totfact>
</mgrwt>
</event>
<event>
 4    1  0.5015492E-001  0.1390136E+03  0.7546771E-02  0.1214662E+00
          2   -1    0    0  501    0  0.00000000000E+00  0.00000000000E+00  0.20768960321E+03  0.20768960321E+03  0.00000000000E+00 0. -1.
         -2   -1    0    0    0  501 -0.00000000000E+00 -0.00000000000E+00 -0.16965750940E+03  0.16965750940E+03  0.00000000000E+00 0.  1.
         24    1    1    2    0    0  0.65779990105E+01  0.11320018615E+03  0.14580178147E+03  0.20145204801E+03  0.80419002446E+02 0.  1.
        -24    1    1    2    0    0 -0.65779990105E+01 -0.11320018615E+03 -0.10776968766E+03  0.17589506460E+03  0.80419002446E+02 0. -1.
<mgrwt>
<rscale>  0 0.13901355E+03</rscale>
<asrwt>0</asrwt>
<pdfrwt beam="1">  1        2 0.31952247E-01 0.13901355E+03</pdfrwt>
<pdfrwt beam="2">  1       -2 0.26101155E-01 0.13901355E+03</pdfrwt>
<totfact> 0.20967005E+03</totfact>
</mgrwt>
</event>
<event>
 4    1  0.5015492E-001  0.8402281E+02  0.7546771E-02  0.1318008E+00
          2   -1    0    0  501    0  0.00000000000E+00  0.00000000000E+00  0.13127036282E+04  0.13127036282E+04  0.00000000000E+00 0. -1.
         -2   -1    0    0    0  501 -0.00000000000E+00 -0.00000000000E+00 -0.91689529239E+02  0.91689529239E+02  0.00000000000E+00 0.  1.
         24    1    1    2    0    0 -0.25499344022E+01 -0.24209786032E+02  0.12917986415E+04  0.12945283164E+04  0.80419002446E+02 0. -1.
        -24    1    1    2    0    0  0.25499344022E+01  0.24209786032E+02 -0.70784542450E+02  0.10986484110E+03  0.80419002446E+02 0.  1.
<mgrwt>
<rscale>  0 0.84022806E+02</rscale>
<asrwt>0</asrwt>
<pdfrwt beam="1">  1        2 0.20195439E+00 0.84022806E+02</pdfrwt>
<pdfrwt beam="2">  1       -2 0.14106082E-01 0.84022806E+02</pdfrwt>
<totfact> 0.67348956E+02</totfact>
</mgrwt>
</event>
<event>
 4    1  0.5015492E-001  0.8127407E+02  0.7546771E-02  0.1325474E+00
          1   -1    0    0  501    0  0.00000000000E+00  0.00000000000E+00  0.31105342377E+03  0.31105342377E+03  0.00000000000E+00 0. -1.
         -1   -1    0    0    0  501 -0.00000000000E+00 -0.00000000000E+00 -0.17464695331E+03  0.17464695331E+03  0.00000000000E+00 0.  1.
         24    1    1    2    0    0  0.10956750244E+02 -0.42670033592E+01 -0.15940416653E+03  0.17892781213E+03  0.80419002446E+02 0.  1.
        -24    1    1    2    0    0 -0.10956750244E+02  0.42670033592E+01  0.29581063699E+03  0.30677256494E+03  0.80419002446E+02 0. -1.
<mgrwt>
<rscale>  0 0.81274065E+02</rscale>
<asrwt>0</asrwt>
<pdfrwt beam="1">  1        1 0.47854373E-01 0.81274065E+02</pdfrwt>
<pdfrwt beam="2">  1       -1 0.26868762E-01 0.81274065E+02</pdfrwt>
<totfact> 0.10137850E+03</totfact>
</mgrwt>
</event>
<event>
 4    1  0.5015492E-001  0.8271655E+02  0.7546771E-02  0.1321514E+00
         -2   -1    0    0    0  501 -0.00000000000E+00  0.00000000000E+00  0.50069676466E+02  0.50069676466E+02  0.00000000000E+00 0.  1.
          2   -1    0    0  501    0  0.00000000000E+00 -0.00000000000E+00 -0.31229686225E+03  0.31229686225E+03  0.00000000000E+00 0. -1.
         24    1    1    2    0    0 -0.47232825060E+01  0.18775033069E+02 -0.26699321588E+03  0.27951279854E+03  0.80419002446E+02 0.  0.
        -24    1    1    2    0    0  0.47232825060E+01 -0.18775033069E+02  0.47660300979E+01  0.82853740179E+02  0.80419002446E+02 0.  1.
<mgrwt>
<rscale>  0 0.82716547E+02</rscale>
<asrwt>0</asrwt>
<pdfrwt beam="1">  1        2 0.48045672E-01 0.82716547E+02</pdfrwt>
<pdfrwt beam="2">  1       -2 0.77030271E-02 0.82716547E+02</pdfrwt>
<totfact> 0.95524949E+03</totfact>
</mgrwt>
</event>
<event>
 4    1  0.5015492E-001  0.1785273E+03  0.7546771E-02  0.1169236E+00
          1   -1    0    0  501    0  0.00000000000E+00  0.00000000000E+00  0.44958968326E+02  0.44958968326E+02  0.00000000000E+00 0. -1.
         -1   -1    0    0    0  501 -0.00000000000E+00 -0.00000000000E+00 -0.74625062408E+03  0.74625062408E+03  0.00000000000E+00 0.  1.
         24    1    1    2    0    0 -0.14429758001E+03  0.67697659923E+02 -0.43913592175E+03  0.47403833018E+03  0.80419002446E+02 0.  1.
        -24    1    1    2    0    0  0.14429758001E+03 -0.67697659923E+02 -0.26215573400E+03  0.31717126222E+03  0.80419002446E+02 0. -1.
<mgrwt>
<rscale>  0 0.17852725E+03</rscale>
<asrwt>0</asrwt>
<pdfrwt beam="1">  1        1 0.69167651E-02 0.17852725E+03</pdfrwt>
<pdfrwt beam="2">  1       -1 0.11480778E+00 0.17852725E+03</pdfrwt>
<totfact> 0.77486392E+02</totfact>
</mgrwt>
</event>
<event>
 4    1  0.5015492E-001  0.1419821E+03  0.7546771E-02  0.1210687E+00
          2   -1    0    0  501    0  0.00000000000E+00  0.00000000000E+00  0.32736632294E+03  0.32736632294E+03  0.00000000000E+00 0. -1.
         -2   -1    0    0    0  501 -0.00000000000E+00 -0.00000000000E+00 -0.62112887658E+02  0.62112887658E+02  0.00000000000E+00 0.  1.
         24    1    1    2    0    0 -0.81474406542E+02 -0.83985848292E+02  0.15067995450E+03  0.20703469824E+03  0.80419002446E+02 0. -1.
        -24    1    1    2    0    0  0.81474406542E+02  0.83985848292E+02  0.11457348078E+03  0.18244451235E+03  0.80419002446E+02 0.  0.
<mgrwt>
<rscale>  0 0.14198210E+03</rscale>
<asrwt>0</asrwt>
<pdfrwt beam="1">  1        2 0.50364049E-01 0.14198210E+03</pdfrwt>
<pdfrwt beam="2">  1       -2 0.95558290E-02 0.14198210E+03</pdfrwt>
<totfact> 0.67869578E+03</totfact>
</mgrwt>
</event>
<event>
 4    1  0.5015492E-001  0.1562851E+03  0.7546771E-02  0.1192956E+00
         -3   -1    0    0    0  501 -0.00000000000E+00  0.00000000000E+00  0.23145433909E+03  0.23145433909E+03  0.00000000000E+00 0.  1.
          3   -1    0    0  501    0  0.00000000000E+00 -0.00000000000E+00 -0.14454595862E+03  0.14454595862E+03  0.00000000000E+00 0. -1.
         24    1    1    2    0    0 -0.12676285526E+03 -0.43462425328E+02  0.14112953009E+03  0.21057674161E+03  0.80419002446E+02 0.  1.
        -24    1    1    2    0    0  0.12676285526E+03  0.43462425328E+02 -0.54221149634E+02  0.16542355610E+03  0.80419002446E+02 0. -1.
<mgrwt>
<rscale>  0 0.15628506E+03</rscale>
<asrwt>0</asrwt>
<pdfrwt beam="1">  1        3 0.22237840E-01 0.15628506E+03</pdfrwt>
<pdfrwt beam="2">  1       -3 0.35608360E-01 0.15628506E+03</pdfrwt>
<totfact> 0.34196396E+02</totfact>
</mgrwt>
</event>
<event>
 4    1  0.5015492E-001  0.9268301E+02  0.7546771E-02  0.1296481E+00
         -3   -1    0    0    0  501 -0.00000000000E+00  0.00000000000E+00  0.69729909130E+03  0.69729909130E+03  0.00000000000E+00 0.  1.
          3   -1    0    0  501    0  0.00000000000E+00 -0.00000000000E+00 -0.16780217021E+02  0.16780217021E+02  0.00000000000E+00 0. -1.
         24    1    1    2    0    0  0.46067575981E+02  0.83885922471E+00  0.52435206855E+03  0.53248026535E+03  0.80419002446E+02 0.  1.
        -24    1    1    2    0    0 -0.46067575981E+02 -0.83885922471E+00  0.15616680573E+03  0.18159904297E+03  0.80419002446E+02 0. -1.
<mgrwt>
<rscale>  0 0.92683015E+02</rscale>
<asrwt>0</asrwt>
<pdfrwt beam="1">  1        3 0.25815724E-02 0.92683015E+02</pdfrwt>
<pdfrwt beam="2">  1       -3 0.10727676E+00 0.92683015E+02</pdfrwt>
<totfact> 0.10690002E+03</totfact>
</mgrwt>
</event>
<event>
 4    1  0.5015492E-001  0.8061595E+02  0.7546771E-02  0.1327313E+00
          1   -1    0    0  501    0  0.00000000000E+00  0.00000000000E+00  0.56122512562E+02  0.56122512562E+02  0.00000000000E+00 0. -1.
         -1   -1    0    0    0  501 -0.00000000000E+00 -0.00000000000E+00 -0.11579904615E+03  0.11579904615E+03  0.00000000000E+00 0.  1.
         24    1    1    2    0    0 -0.56277346132E+01 -0.20820545159E+00 -0.29893891063E+02  0.85980087367E+02  0.80419002446E+02 0.  0.
        -24    1    1    2    0    0  0.56277346132E+01  0.20820545159E+00 -0.29782642522E+02  0.85941471341E+02  0.80419002446E+02 0. -1.
<mgrwt>
<rscale>  0 0.80615946E+02</rscale>
<asrwt>0</asrwt>
<pdfrwt beam="1">  1        1 0.86342328E-02 0.80615946E+02</pdfrwt>
<pdfrwt beam="2">  1       -1 0.17815238E-01 0.80615946E+02</pdfrwt>
<totfact> 0.16740314E+04</totfact>
</mgrwt>
</event>
<event>
 4    1  0.5015492E-001  0.9119783E+02  0.7546771E-02  0.1299977E+00
         -2   -1    0    0    0  501 -0.00000000000E+00  0.00000000000E+00  0.39921482505E+02  0.39921482505E+02  0.00000000000E+00 0.  1.
          2   -1    0    0  501    0  0.00000000000E+00 -0.00000000000E+00 -0.65602614269E+03  0.65602614269E+03  0.00000000000E+00 0. -1.
         24    1    1    2    0    0  0.30053782272E+02  0.30766849277E+02 -0.59551086394E+03  0.60245351179E+03  0.80419002446E+02 0. -1.
        -24    1    1    2    0    0 -0.30053782272E+02 -0.30766849277E+02 -0.20593796246E+02  0.93494113405E+02  0.80419002446E+02 0.  1.
<mgrwt>
<rscale>  0 0.91197833E+02</rscale>
<asrwt>0</asrwt>
<pdfrwt beam="1">  1        2 0.10092710E+00 0.91197833E+02</pdfrwt>
<pdfrwt beam="2">  1       -2 0.61417666E-02 0.91197833E+02</pdfrwt>
<totfact> 0.61082612E+03</totfact>
</mgrwt>
</event>
<event>
 4    1  0.5015492E-001  0.1008685E+03  0.7546771E-02  0.1278480E+00
          1   -1    0    0  501    0  0.00000000000E+00  0.00000000000E+00  0.33566072553E+03  0.33566072553E+03  0.00000000000E+00 0. -1.
         -1   -1    0    0    0  501 -0.00000000000E+00 -0.00000000000E+00 -0.32498421823E+02  0.32498421823E+02  0.00000000000E+00 0.  1.
         24    1    1    2    0    0  0.14834780264E+02  0.59052238196E+02  0.19933071199E+03  0.22339916347E+03  0.80419002446E+02 0.  1.
        -24    1    1    2    0    0 -0.14834780264E+02 -0.59052238196E+02  0.10383159172E+03  0.14475998388E+03  0.80419002446E+02 0. -1.
<mgrwt>
<rscale>  0 0.10086851E+03</rscale>
<asrwt>0</asrwt>
<pdfrwt beam="1">  1        1 0.51640109E-01 0.10086852E+03</pdfrwt>
<pdfrwt beam="2">  1       -1 0.49997574E-02 0.10086852E+03</pdfrwt>
<totfact> 0.12291528E+04</totfact>
</mgrwt>
</event>
<event>
 4    1  0.5015492E-001  0.8477123E+02  0.7546771E-02  0.1316032E+00
         -1   -1    0    0    0  501 -0.00000000000E+00  0.00000000000E+00  0.10225376648E+02  0.10225376648E+02  0.00000000000E+00 0.  1.
          1   -1    0    0  501    0  0.00000000000E+00 -0.00000000000E+00 -0.70292268997E+03  0.70292268997E+03  0.00000000000E+00 0. -1.
         24    1    1    2    0    0 -0.82176987698E+01  0.25522832520E+02 -0.34121860762E+03  0.35159109729E+03  0.80419002446E+02 0.  1.
        -24    1    1    2    0    0  0.82176987698E+01 -0.25522832520E+02 -0.35147870570E+03  0.36155696933E+03  0.80419002446E+02 0. -1.
<mgrwt>
<rscale>  0 0.84771230E+02</rscale>
<asrwt>0</asrwt>
<pdfrwt beam="1">  1        1 0.10814196E+00 0.84771230E+02</pdfrwt>
<pdfrwt beam="2">  1       -1 0.15731348E-02 0.84771230E+02</pdfrwt>
<totfact> 0.24591119E+04</totfact>
</mgrwt>
</event>
<event>
 4    1  0.5015492E-001  0.9677341E+02  0.7546771E-02  0.1287231E+00
         -4   -1    0    0    0  501 -0.00000000000E+00  0.00000000000E+00  0.48232878120E+02  0.48232878120E+02  0.00000000000E+00 0.  1.
          4   -1    0    0  501    0  0.00000000000E+00 -0.00000000000E+00 -0.21050369351E+03  0.21050369351E+03  0.00000000000E+00 0. -1.
         24    1    1    2    0    0 -0.45513269066E+02 -0.28747492256E+02 -0.11717824615E+03  0.15197313347E+03  0.80419002446E+02 0. -1.
        -24    1    1    2    0    0  0.45513269066E+02  0.28747492256E+02 -0.45092569238E+02  0.10676343816E+03  0.80419002446E+02 0.  1.
<mgrwt>
<rscale>  0 0.96773405E+02</rscale>
<asrwt>0</asrwt>
<pdfrwt beam="1">  1        4 0.32385184E-01 0.96773405E+02</pdfrwt>
<pdfrwt beam="2">  1       -4 0.74204428E-02 0.96773405E+02</pdfrwt>
<totfact> 0.17438199E+03</totfact>
</mgrwt>
</event>
<event>
 4    1  0.5015492E-001  0.9428627E+02  0.7546771E-02  0.1292792E+00
          4   -1    0    0  501    0  0.00000000000E+00  0.00000000000E+00  0.10099264565E+04  0.10099264565E+04  0.00000000000E+00 0. -1.
         -4   -1    0    0    0  501 -0.00000000000E+00 -0.00000000000E+00 -0.18047532038E+02  0.18047532038E+02  0.00000000000E+00 0.  1.
         24    1    1    2    0    0  0.40850306601E+02  0.27457903202E+02  0.86381161211E+03  0.86894211612E+03  0.80419002446E+02 0. -1.
        -24    1    1    2    0    0 -0.40850306601E+02 -0.27457903202E+02  0.12806731236E+03  0.15903187242E+03  0.80419002446E+02 0.  1.
<mgrwt>
<rscale>  0 0.94286266E+02</rscale>
<asrwt>0</asrwt>
<pdfrwt beam="1">  1        4 0.15537326E+00 0.94286266E+02</pdfrwt>
<pdfrwt beam="2">  1       -4 0.27765442E-02 0.94286266E+02</pdfrwt>
<totfact> 0.27627196E+02</totfact>
</mgrwt>
</event>
<event>
 4    1  0.5015492E-001  0.8191299E+02  0.7546771E-02  0.1323709E+00
         -2   -1    0    0    0  501 -0.00000000000E+00  0.00000000000E+00  0.47800224072E+01  0.47800224072E+01  0.00000000000E+00 0.  1.
          2   -1    0    0  501    0  0.00000000000E+00 -0.00000000000E+00 -0.15568054899E+04  0.15568054899E+04  0.00000000000E+00 0. -1.
         24    1    1    2    0    0 -0.12794888181E+02 -0.88776196588E+01 -0.10208672429E+04  0.10241482631E+04  0.80419002446E+02 0.  0.
        -24    1    1    2    0    0  0.12794888181E+02  0.88776196588E+01 -0.53115822457E+03  0.53743724915E+03  0.80419002446E+02 0.  1.
<mgrwt>
<rscale>  0 0.81912986E+02</rscale>
<asrwt>0</asrwt>
<pdfrwt beam="1">  1        2 0.23950865E+00 0.81912986E+02</pdfrwt>
<pdfrwt beam="2">  1       -2 0.73538771E-03 0.81912986E+02</pdfrwt>
<totfact> 0.38738179E+04</totfact>
</mgrwt>
</event>
<event>
 4    1  0.5015492E-001  0.8413479E+02  0.7546771E-02  0.1317711E+00
         -2   -1    0    0    0  501 -0.00000000000E+00  0.00000000000E+00  0.36692661479E+02  0.36692661479E+02  0.00000000000E+00 0.  1.
          2   -1    0    0  501    0  0.00000000000E+00 -0.00000000000E+00 -0.16130752882E+04  0.16130752882E+04  0.00000000000E+00 0. -1.
         24    1    1    2    0    0  0.21896813850E+02  0.11488135401E+02 -0.15621785833E+04  0.15644425812E+04  0.80419002446E+02 0. -1.
        -24    1    1    2    0    0 -0.21896813850E+02 -0.11488135401E+02 -0.14204043456E+02  0.85325368541E+02  0.80419002446E+02 0.  1.
<mgrwt>
<rscale>  0 0.84134795E+02</rscale>
<asrwt>0</asrwt>
<pdfrwt beam="1">  1        2 0.24816538E+00 0.84134795E+02</pdfrwt>
<pdfrwt beam="2">  1       -2 0.56450259E-02 0.84134795E+02</pdfrwt>
<totfact> 0.19378084E+03</totfact>
</mgrwt>
</event>
<event>
 4    1  0.5015492E-001  0.1557535E+03  0.7546771E-02  0.1193576E+00
         -1   -1    0    0    0  501 -0.00000000000E+00  0.00000000000E+00  0.47391386434E+02  0.47391386434E+02  0.00000000000E+00 0.  1.
          1   -1    0    0  501    0  0.00000000000E+00 -0.00000000000E+00 -0.52937856880E+03  0.52937856880E+03  0.00000000000E+00 0. -1.
         24    1    1    2    0    0 -0.11917623750E+03  0.59907961003E+02 -0.18857658457E+03  0.24458185456E+03  0.80419002446E+02 0. -1.
        -24    1    1    2    0    0  0.11917623750E+03 -0.59907961003E+02 -0.29341059780E+03  0.33218810068E+03  0.80419002446E+02 0.  1.
<mgrwt>
<rscale>  0 0.15575351E+03</rscale>
<asrwt>0</asrwt>
<pdfrwt beam="1">  1        1 0.81442856E-01 0.15575351E+03</pdfrwt>
<pdfrwt beam="2">  1       -1 0.72909826E-02 0.15575351E+03</pdfrwt>
<totfact> 0.40465985E+03</totfact>
</mgrwt>
</event>
<event>
 4    1  0.5015492E-001  0.8251518E+02  0.7546771E-02  0.1322062E+00
          1   -1    0    0  501    0  0.00000000000E+00  0.00000000000E+00  0.41200175320E+02  0.41200175320E+02  0.00000000000E+00 0. -1.
         -1   -1    0    0    0  501 -0.00000000000E+00 -0.00000000000E+00 -0.17098252127E+03  0.17098252127E+03  0.00000000000E+00 0.  1.
         24    1    1    2    0    0  0.77088542117E+01  0.16796202155E+02 -0.84299365344E+02  0.11796244229E+03  0.80419002446E+02 0.  0.
        -24    1    1    2    0    0 -0.77088542117E+01 -0.16796202155E+02 -0.45482980603E+02  0.94220254293E+02  0.80419002446E+02 0.  1.
<mgrwt>
<rscale>  0 0.82515179E+02</rscale>
<asrwt>0</asrwt>
<pdfrwt beam="1">  1        1 0.63384886E-02 0.82515179E+02</pdfrwt>
<pdfrwt beam="2">  1       -1 0.26305003E-01 0.82515179E+02</pdfrwt>
<totfact> 0.13568560E+04</totfact>
</mgrwt>
</event>
<event>
 4    1  0.5015492E-001  0.9199288E+02  0.7546771E-02  0.1298096E+00
          1   -1    0    0  501    0  0.00000000000E+00  0.00000000000E+00  0.60964342599E+03  0.60964342599E+03  0.00000000000E+00 0. -1.
         -1   -1    0    0    0  501 -0.00000000000E+00 -0.00000000000E+00 -0.27816100507E+02  0.27816100507E+02  0.00000000000E+00 0.  1.
         24    1    1    2    0    0 -0.33187791873E+02 -0.29900574701E+02  0.65321668026E+02  0.11282557407E+03  0.80419002446E+02 0.  1.
        -24    1    1    2    0    0  0.33187791873E+02  0.29900574701E+02  0.51650565745E+03  0.52463395242E+03  0.80419002446E+02 0. -1.
<mgrwt>
<rscale>  0 0.91992879E+02</rscale>
<asrwt>0</asrwt>
<pdfrwt beam="1">  1        1 0.93791287E-01 0.91992879E+02</pdfrwt>
<pdfrwt beam="2">  1       -1 0.42794005E-02 0.91992879E+02</pdfrwt>
<totfact> 0.71651693E+03</totfact>
</mgrwt>
</event>
<event>
 4    1  0.5015492E-001  0.1213259E+03  0.7546771E-02  0.1240926E+00
          1   -1    0    0  501    0  0.00000000000E+00  0.00000000000E+00  0.16920937357E+03  0.16920937357E+03  0.00000000000E+00 0. -1.
         -1   -1    0    0    0  501 -0.00000000000E+00 -0.00000000000E+00 -0.12198215145E+03  0.12198215145E+03  0.00000000000E+00 0.  1.
         24    1    1    2    0    0  0.28577927869E+01  0.90799745500E+02 -0.54363885490E+02  0.13294889530E+03  0.80419002446E+02 0.  1.
        -24    1    1    2    0    0 -0.28577927869E+01 -0.90799745500E+02  0.10159110761E+03  0.15824262972E+03  0.80419002446E+02 0. -1.
<mgrwt>
<rscale>  0 0.12132591E+03</rscale>
<asrwt>0</asrwt>
<pdfrwt beam="1">  1        1 0.26032211E-01 0.12132591E+03</pdfrwt>
<pdfrwt beam="2">  1       -1 0.18766485E-01 0.12132591E+03</pdfrwt>
<totfact> 0.38811799E+03</totfact>
</mgrwt>
</event>
<event>
 4    1  0.5015492E-001  0.8633227E+02  0.7546771E-02  0.1311985E+00
         -1   -1    0    0    0  501 -0.00000000000E+00  0.00000000000E+00  0.13662832986E+03  0.13662832986E+03  0.00000000000E+00 0.  1.
          1   -1    0    0  501    0  0.00000000000E+00 -0.00000000000E+00 -0.86057412278E+02  0.86057412278E+02  0.00000000000E+00 0. -1.
         24    1    1    2    0    0 -0.25397258237E+02  0.18466845053E+02  0.92655261749E+02  0.12664224641E+03  0.80419002446E+02 0.  1.
        -24    1    1    2    0    0  0.25397258237E+02 -0.18466845053E+02 -0.42084344170E+02  0.96043495723E+02  0.80419002446E+02 0. -1.
<mgrwt>
<rscale>  0 0.86332271E+02</rscale>
<asrwt>0</asrwt>
<pdfrwt beam="1">  1        1 0.13239602E-01 0.86332271E+02</pdfrwt>
<pdfrwt beam="2">  1       -1 0.21019743E-01 0.86332271E+02</pdfrwt>
<totfact> 0.74431508E+03</totfact>
</mgrwt>
</event>
<event>
 4    1  0.5015492E-001  0.8550408E+02  0.7546771E-02  0.1314120E+00
          1   -1    0    0  501    0  0.00000000000E+00  0.00000000000E+00  0.10752242655E+04  0.10752242655E+04  0.00000000000E+00 0. -1.
         -1   -1    0    0    0  501 -0.00000000000E+00 -0.00000000000E+00 -0.12021182531E+02  0.12021182531E+02  0.00000000000E+00 0.  1.
         24    1    1    2    0    0  0.28169426036E+02  0.70863168956E+01  0.17331479234E+03  0.19325880484E+03  0.80419002446E+02 0.  1.
        -24    1    1    2    0    0 -0.28169426036E+02 -0.70863168956E+01  0.88988829068E+03  0.89398664324E+03  0.80419002446E+02 0. -1.
<mgrwt>
<rscale>  0 0.85504084E+02</rscale>
<asrwt>0</asrwt>
<pdfrwt beam="1">  1        1 0.16541904E+00 0.85504084E+02</pdfrwt>
<pdfrwt beam="2">  1       -1 0.18494136E-02 0.85504084E+02</pdfrwt>
<totfact> 0.10140608E+04</totfact>
</mgrwt>
</event>
<event>
 4    1  0.5015492E-001  0.8366960E+02  0.7546771E-02  0.1318949E+00
          2   -1    0    0  501    0  0.00000000000E+00  0.00000000000E+00  0.68603563249E+03  0.68603563249E+03  0.00000000000E+00 0. -1.
         -2   -1    0    0    0  501 -0.00000000000E+00 -0.00000000000E+00 -0.21319157014E+02  0.21319157014E+02  0.00000000000E+00 0.  1.
         24    1    1    2    0    0  0.20636699692E+02 -0.10368790628E+02  0.58772932768E+03  0.59365508821E+03  0.80419002446E+02 0. -1.
        -24    1    1    2    0    0 -0.20636699692E+02  0.10368790628E+02  0.76987147796E+02  0.11369970129E+03  0.80419002446E+02 0.  1.
<mgrwt>
<rscale>  0 0.83669595E+02</rscale>
<asrwt>0</asrwt>
<pdfrwt beam="1">  1        2 0.10554393E+00 0.83669595E+02</pdfrwt>
<pdfrwt beam="2">  1       -2 0.32798708E-02 0.83669595E+02</pdfrwt>
<totfact> 0.14560301E+04</totfact>
</mgrwt>
</event>
<event>
 4    1  0.5015492E-001  0.2541204E+03  0.7546771E-02  0.1110728E+00
          2   -1    0    0  501    0  0.00000000000E+00  0.00000000000E+00  0.12827795279E+04  0.12827795279E+04  0.00000000000E+00 0. -1.
         -2   -1    0    0    0  501 -0.00000000000E+00 -0.00000000000E+00 -0.27719112726E+03  0.27719112726E+03  0.00000000000E+00 0.  1.
         24    1    1    2    0    0 -0.23100707382E+03  0.68889139147E+02  0.12084057689E+04  0.12348367098E+04  0.80419002446E+02 0. -1.
        -24    1    1    2    0    0  0.23100707382E+03 -0.68889139147E+02 -0.20281736820E+03  0.32513394539E+03  0.80419002446E+02 0.  1.
<mgrwt>
<rscale>  0 0.25412044E+03</rscale>
<asrwt>0</asrwt>
<pdfrwt beam="1">  1        2 0.19735069E+00 0.25412044E+03</pdfrwt>
<pdfrwt beam="2">  1       -2 0.42644790E-01 0.25412044E+03</pdfrwt>
<totfact> 0.96050229E+01</totfact>
</mgrwt>
</event>
<event>
 4    1  0.5015492E-001  0.8677905E+02  0.7546771E-02  0.1310845E+00
         -2   -1    0    0    0  501 -0.00000000000E+00  0.00000000000E+00  0.72372238172E+02  0.72372238172E+02  0.00000000000E+00 0.  1.
          2   -1    0    0  501    0  0.00000000000E+00 -0.00000000000E+00 -0.38777838247E+03  0.38777838247E+03  0.00000000000E+00 0. -1.
         24    1    1    2    0    0 -0.25708387783E+02  0.20061580356E+02 -0.35450381142E+03  0.36497062412E+03  0.80419002446E+02 0. -1.
        -24    1    1    2    0    0  0.25708387783E+02 -0.20061580356E+02  0.39097667120E+02  0.95179996519E+02  0.80419002446E+02 0.  1.
<mgrwt>
<rscale>  0 0.86779054E+02</rscale>
<asrwt>0</asrwt>
<pdfrwt beam="1">  1        2 0.59658214E-01 0.86779054E+02</pdfrwt>
<pdfrwt beam="2">  1       -2 0.11134190E-01 0.86779054E+02</pdfrwt>
<totfact> 0.43313229E+03</totfact>
</mgrwt>
</event>
<event>
 4    1  0.5015492E-001  0.8102394E+02  0.7546771E-02  0.1326171E+00
         -1   -1    0    0    0  501 -0.00000000000E+00  0.00000000000E+00  0.71497853338E+01  0.71497853338E+01  0.00000000000E+00 0.  1.
          1   -1    0    0  501    0  0.00000000000E+00 -0.00000000000E+00 -0.94975763601E+03  0.94975763601E+03  0.00000000000E+00 0. -1.
         24    1    1    2    0    0 -0.97752525875E+01 -0.14514877497E+01 -0.38407947062E+03  0.39253269683E+03  0.80419002446E+02 0.  0.
        -24    1    1    2    0    0  0.97752525875E+01  0.14514877497E+01 -0.55852838006E+03  0.56437472451E+03  0.80419002446E+02 0.  1.
<mgrwt>
<rscale>  0 0.81023937E+02</rscale>
<asrwt>0</asrwt>
<pdfrwt beam="1">  1        1 0.14611657E+00 0.81023937E+02</pdfrwt>
<pdfrwt beam="2">  1       -1 0.10999669E-02 0.81023937E+02</pdfrwt>
<totfact> 0.25875626E+04</totfact>
</mgrwt>
</event>
<event>
 4    1  0.5015492E-001  0.8759915E+02  0.7546771E-02  0.1308772E+00
          2   -1    0    0  501    0  0.00000000000E+00  0.00000000000E+00  0.17334522861E+04  0.17334522861E+04  0.00000000000E+00 0. -1.
         -2   -1    0    0    0  501 -0.00000000000E+00 -0.00000000000E+00 -0.51837129090E+01  0.51837129090E+01  0.00000000000E+00 0.  1.
         24    1    1    2    0    0 -0.99176377523E+01 -0.33287100356E+02  0.53194334661E+03  0.53910790251E+03  0.80419002446E+02 0.  0.
        -24    1    1    2    0    0  0.99176377523E+01  0.33287100356E+02  0.11963252266E+04  0.11995280965E+04  0.80419002446E+02 0.  0.
<mgrwt>
<rscale>  0 0.87599135E+02</rscale>
<asrwt>0</asrwt>
<pdfrwt beam="1">  1        2 0.26668450E+00 0.87599146E+02</pdfrwt>
<pdfrwt beam="2">  1       -2 0.79749568E-03 0.87599146E+02</pdfrwt>
<totfact> 0.28330685E+04</totfact>
</mgrwt>
</event>
<event>
 4    1  0.5015492E-001  0.9203201E+02  0.7546771E-02  0.1298004E+00
          3   -1    0    0  501    0  0.00000000000E+00  0.00000000000E+00  0.34835232463E+02  0.34835232463E+02  0.00000000000E+00 0. -1.
         -3   -1    0    0    0  501 -0.00000000000E+00 -0.00000000000E+00 -0.26426037035E+03  0.26426037035E+03  0.00000000000E+00 0.  1.
         24    1    1    2    0    0  0.17427259234E+02  0.41218453411E+02 -0.72435908918E+02  0.11711894433E+03  0.80419002446E+02 0.  0.
        -24    1    1    2    0    0 -0.17427259234E+02 -0.41218453411E+02 -0.15698922897E+03  0.18197665848E+03  0.80419002446E+02 0.  0.
<mgrwt>
<rscale>  0 0.92031996E+02</rscale>
<asrwt>0</asrwt>
<pdfrwt beam="1">  1        3 0.53592664E-02 0.92032008E+02</pdfrwt>
<pdfrwt beam="2">  1       -3 0.40655443E-01 0.92032008E+02</pdfrwt>
<totfact> 0.26044521E+03</totfact>
</mgrwt>
</event>
<event>
 4    1  0.5015492E-001  0.1161949E+03  0.7546771E-02  0.1249510E+00
          2   -1    0    0  501    0  0.00000000000E+00  0.00000000000E+00  0.92585852368E+03  0.92585852368E+03  0.00000000000E+00 0. -1.
         -2   -1    0    0    0  501 -0.00000000000E+00 -0.00000000000E+00 -0.19498405220E+02  0.19498405220E+02  0.00000000000E+00 0.  1.
         24    1    1    2    0    0  0.71619374678E+02  0.43642934683E+02  0.69052043051E+03  0.70022833525E+03  0.80419002446E+02 0. -1.
        -24    1    1    2    0    0 -0.71619374678E+02 -0.43642934683E+02  0.21583968795E+03  0.24512859365E+03  0.80419002446E+02 0.  1.
<mgrwt>
<rscale>  0 0.11619491E+03</rscale>
<asrwt>0</asrwt>
<pdfrwt beam="1">  1        2 0.14243974E+00 0.11619491E+03</pdfrwt>
<pdfrwt beam="2">  1       -2 0.29997554E-02 0.11619491E+03</pdfrwt>
<totfact> 0.11770851E+04</totfact>
</mgrwt>
</event>
<event>
 4    1  0.5015492E-001  0.8105959E+02  0.7546771E-02  0.1326071E+00
         -2   -1    0    0    0  501 -0.00000000000E+00  0.00000000000E+00  0.30476530499E+03  0.30476530499E+03  0.00000000000E+00 0.  1.
          2   -1    0    0  501    0  0.00000000000E+00 -0.00000000000E+00 -0.22067348463E+02  0.22067348463E+02  0.00000000000E+00 0. -1.
         24    1    1    2    0    0  0.10136860193E+02  0.82759034623E+00  0.11656389810E+03  0.14197816429E+03  0.80419002446E+02 0. -1.
        -24    1    1    2    0    0 -0.10136860193E+02 -0.82759034623E+00  0.16613405843E+03  0.18485448917E+03  0.80419002446E+02 0.  1.
<mgrwt>
<rscale>  0 0.81059588E+02</rscale>
<asrwt>0</asrwt>
<pdfrwt beam="1">  1        2 0.33949769E-02 0.81059588E+02</pdfrwt>
<pdfrwt beam="2">  1       -2 0.46886967E-01 0.81059588E+02</pdfrwt>
<totfact> 0.10234066E+04</totfact>
</mgrwt>
</event>
<event>
 4    1  0.5015492E-001  0.8043064E+02  0.7546771E-02  0.1327834E+00
          2   -1    0    0  501    0  0.00000000000E+00  0.00000000000E+00  0.11736297302E+04  0.11736297302E+04  0.00000000000E+00 0. -1.
         -2   -1    0    0    0  501 -0.00000000000E+00 -0.00000000000E+00 -0.57400876316E+01  0.57400876316E+01  0.00000000000E+00 0.  1.
         24    1    1    2    0    0  0.79025935796E+00  0.11165400368E+01  0.70148304596E+03  0.70607899763E+03  0.80419002446E+02 0.  0.
        -24    1    1    2    0    0 -0.79025935796E+00 -0.11165400368E+01  0.46640659656E+03  0.47329082016E+03  0.80419002446E+02 0.  1.
<mgrwt>
<rscale>  0 0.80430635E+02</rscale>
<asrwt>0</asrwt>
<pdfrwt beam="1">  1        2 0.18055823E+00 0.80430635E+02</pdfrwt>
<pdfrwt beam="2">  1       -2 0.88309134E-03 0.80430635E+02</pdfrwt>
<totfact> 0.47326589E+04</totfact>
</mgrwt>
</event>
<event>
 4    1  0.5015492E-001  0.1351705E+03  0.7546771E-02  0.1219979E+00
         -2   -1    0    0    0  501 -0.00000000000E+00  0.00000000000E+00  0.10183260792E+03  0.10183260792E+03  0.00000000000E+00 0.  1.
          2   -1    0    0  501    0  0.00000000000E+00 -0.00000000000E+00 -0.22603865435E+03  0.22603865435E+03  0.00000000000E+00 0. -1.
         24    1    1    2    0    0 -0.10863695511E+03 -0.13686935443E+01 -0.13655041394E+03  0.19213821286E+03  0.80419002446E+02 0. -1.
        -24    1    1    2    0    0  0.10863695511E+03  0.13686935443E+01  0.12344367505E+02  0.13573304941E+03  0.80419002446E+02 0.  1.
<mgrwt>
<rscale>  0 0.13517055E+03</rscale>
<asrwt>0</asrwt>
<pdfrwt beam="1">  1        2 0.34775177E-01 0.13517055E+03</pdfrwt>
<pdfrwt beam="2">  1       -2 0.15666555E-01 0.13517055E+03</pdfrwt>
<totfact> 0.45451220E+03</totfact>
</mgrwt>
</event>
<event>
 4    1  0.5015492E-001  0.9317519E+02  0.7546771E-02  0.1295340E+00
          2   -1    0    0  501    0  0.00000000000E+00  0.00000000000E+00  0.47165845008E+02  0.47165845008E+02  0.00000000000E+00 0. -1.
         -2   -1    0    0    0  501 -0.00000000000E+00 -0.00000000000E+00 -0.26783990836E+03  0.26783990836E+03  0.00000000000E+00 0.  1.
         24    1    1    2    0    0 -0.17777154343E+02 -0.43570330656E+02 -0.22251238475E+02  0.95795273882E+02  0.80419002446E+02 0.  0.
        -24    1    1    2    0    0  0.17777154343E+02  0.43570330656E+02 -0.19842282487E+03  0.21921047948E+03  0.80419002446E+02 0.  0.
<mgrwt>
<rscale>  0 0.93175195E+02</rscale>
<asrwt>0</asrwt>
<pdfrwt beam="1">  1        2 0.72562840E-02 0.93175195E+02</pdfrwt>
<pdfrwt beam="2">  1       -2 0.41206139E-01 0.93175195E+02</pdfrwt>
<totfact> 0.49973905E+03</totfact>
</mgrwt>
</event>
<event>
 4    1  0.5015492E-001  0.8993197E+02  0.7546771E-02  0.1303017E+00
          2   -1    0    0  501    0  0.00000000000E+00  0.00000000000E+00  0.49798156847E+03  0.49798156847E+03  0.00000000000E+00 0. -1.
         -2   -1    0    0    0  501 -0.00000000000E+00 -0.00000000000E+00 -0.40023961942E+02  0.40023961942E+02  0.00000000000E+00 0.  1.
         24    1    1    2    0    0  0.24422604691E+02 -0.32001248535E+02  0.43634068618E+03  0.44551201319E+03  0.80419002446E+02 0. -1.
        -24    1    1    2    0    0 -0.24422604691E+02  0.32001248535E+02  0.21616920346E+02  0.92493517218E+02  0.80419002446E+02 0.  1.
<mgrwt>
<rscale>  0 0.89931971E+02</rscale>
<asrwt>0</asrwt>
<pdfrwt beam="1">  1        2 0.76612545E-01 0.89931971E+02</pdfrwt>
<pdfrwt beam="2">  1       -2 0.61575330E-02 0.89931971E+02</pdfrwt>
<totfact> 0.82515419E+03</totfact>
</mgrwt>
</event>
<event>
 4    1  0.5015492E-001  0.1495664E+03  0.7546771E-02  0.1201007E+00
         -2   -1    0    0    0  501 -0.00000000000E+00  0.00000000000E+00  0.83947679658E+02  0.83947679658E+02  0.00000000000E+00 0.  1.
          2   -1    0    0  501    0  0.00000000000E+00 -0.00000000000E+00 -0.36324167194E+03  0.36324167194E+03  0.00000000000E+00 0. -1.
         24    1    1    2    0    0  0.10086052426E+03 -0.75697074586E+02 -0.25505143270E+03  0.29567100253E+03  0.80419002446E+02 0. -1.
        -24    1    1    2    0    0 -0.10086052426E+03  0.75697074586E+02 -0.24242559576E+02  0.15151834907E+03  0.80419002446E+02 0.  1.
<mgrwt>
<rscale>  0 0.14956640E+03</rscale>
<asrwt>0</asrwt>
<pdfrwt beam="1">  1        2 0.55883334E-01 0.14956640E+03</pdfrwt>
<pdfrwt beam="2">  1       -2 0.12915028E-01 0.14956640E+03</pdfrwt>
<totfact> 0.37757936E+03</totfact>
</mgrwt>
</event>
<event>
 4    1  0.5015492E-001  0.1041753E+03  0.7546771E-02  0.1271753E+00
         -1   -1    0    0    0  501 -0.00000000000E+00  0.00000000000E+00  0.97598923332E+01  0.97598923332E+01  0.00000000000E+00 0.  1.
          1   -1    0    0  501    0  0.00000000000E+00 -0.00000000000E+00 -0.20950426735E+04  0.20950426735E+04  0.00000000000E+00 0. -1.
         24    1    1    2    0    0  0.62435113261E+02  0.22070976966E+02 -0.32172860793E+03  0.33817419255E+03  0.80419002446E+02 0.  1.
        -24    1    1    2    0    0 -0.62435113261E+02 -0.22070976966E+02 -0.17635541732E+04  0.17666283733E+04  0.80419002446E+02 0. -1.
<mgrwt>
<rscale>  0 0.10417527E+03</rscale>
<asrwt>0</asrwt>
<pdfrwt beam="1">  1        1 0.32231448E+00 0.10417527E+03</pdfrwt>
<pdfrwt beam="2">  1       -1 0.15015208E-02 0.10417527E+03</pdfrwt>
<totfact> 0.30324664E+03</totfact>
</mgrwt>
</event>
<event>
 4    1  0.5015492E-001  0.9024766E+02  0.7546771E-02  0.1302253E+00
          1   -1    0    0  501    0  0.00000000000E+00  0.00000000000E+00  0.22527618723E+04  0.22527618723E+04  0.00000000000E+00 0. -1.
         -1   -1    0    0    0  501 -0.00000000000E+00 -0.00000000000E+00 -0.54663010266E+01  0.54663010266E+01  0.00000000000E+00 0.  1.
         24    1    1    2    0    0  0.23761668529E+02 -0.33358771048E+02  0.46662204889E+03  0.47526916265E+03  0.80419002446E+02 0.  1.
        -24    1    1    2    0    0 -0.23761668529E+02  0.33358771048E+02  0.17806735223E+04  0.17829590106E+04  0.80419002446E+02 0. -1.
<mgrwt>
<rscale>  0 0.90247662E+02</rscale>
<asrwt>0</asrwt>
<pdfrwt beam="1">  1        1 0.34657801E+00 0.90247662E+02</pdfrwt>
<pdfrwt beam="2">  1       -1 0.84097119E-03 0.90247662E+02</pdfrwt>
<totfact> 0.54589701E+03</totfact>
</mgrwt>
</event>
<event>
 4    1  0.5015492E-001  0.1763960E+03  0.7546771E-02  0.1171337E+00
          1   -1    0    0  501    0  0.00000000000E+00  0.00000000000E+00  0.14438827102E+04  0.14438827102E+04  0.00000000000E+00 0. -1.
         -1   -1    0    0    0  501 -0.00000000000E+00 -0.00000000000E+00 -0.23486315704E+02  0.23486315704E+02  0.00000000000E+00 0.  1.
         24    1    1    2    0    0 -0.64825211324E+02 -0.14298958260E+03  0.49952955018E+03  0.52975967779E+03  0.80419002446E+02 0. -1.
        -24    1    1    2    0    0  0.64825211324E+02  0.14298958260E+03  0.92086684428E+03  0.93760934808E+03  0.80419002446E+02 0.  1.
<mgrwt>
<rscale>  0 0.17639599E+03</rscale>
<asrwt>0</asrwt>
<pdfrwt beam="1">  1        1 0.22213573E+00 0.17639599E+03</pdfrwt>
<pdfrwt beam="2">  1       -1 0.36132805E-02 0.17639599E+03</pdfrwt>
<totfact> 0.22288003E+03</totfact>
</mgrwt>
</event>
<event>
 4    1  0.5015492E-001  0.8612753E+02  0.7546771E-02  0.1312510E+00
          1   -1    0    0  501    0  0.00000000000E+00  0.00000000000E+00  0.68404938188E+03  0.68404938188E+03  0.00000000000E+00 0. -1.
         -1   -1    0    0    0  501 -0.00000000000E+00 -0.00000000000E+00 -0.42918889922E+02  0.42918889922E+02  0.00000000000E+00 0.  1.
         24    1    1    2    0    0  0.26719752369E+02 -0.15387982337E+02  0.63388790880E+01  0.86360480021E+02  0.80419002446E+02 0.  1.
        -24    1    1    2    0    0 -0.26719752369E+02  0.15387982337E+02  0.63479161287E+03  0.64060779178E+03  0.80419002446E+02 0. -1.
<mgrwt>
<rscale>  0 0.86127528E+02</rscale>
<asrwt>0</asrwt>
<pdfrwt beam="1">  1        1 0.10523836E+00 0.86127528E+02</pdfrwt>
<pdfrwt beam="2">  1       -1 0.66029066E-02 0.86127528E+02</pdfrwt>
<totfact> 0.32285216E+03</totfact>
</mgrwt>
</event>
<event>
 4    1  0.5015492E-001  0.8756624E+02  0.7546771E-02  0.1308855E+00
          2   -1    0    0  501    0  0.00000000000E+00  0.00000000000E+00  0.71886423703E+03  0.71886423703E+03  0.00000000000E+00 0. -1.
         -2   -1    0    0    0  501 -0.00000000000E+00 -0.00000000000E+00 -0.56794919343E+02  0.56794919343E+02  0.00000000000E+00 0.  1.
         24    1    1    2    0    0  0.31807976137E+02 -0.13743451945E+02  0.68055297905E+03  0.68616339385E+03  0.80419002446E+02 0. -1.
        -24    1    1    2    0    0 -0.31807976137E+02  0.13743451945E+02 -0.18483661362E+02  0.89495762520E+02  0.80419002446E+02 0.  1.
<mgrwt>
<rscale>  0 0.87566236E+02</rscale>
<asrwt>0</asrwt>
<pdfrwt beam="1">  1        2 0.11059449E+00 0.87566236E+02</pdfrwt>
<pdfrwt beam="2">  1       -2 0.87376804E-02 0.87566236E+02</pdfrwt>
<totfact> 0.32091340E+03</totfact>
</mgrwt>
</event>
<event>
 4    1  0.5015492E-001  0.9220910E+02  0.7546771E-02  0.1297589E+00
         -1   -1    0    0    0  501 -0.00000000000E+00  0.00000000000E+00  0.32701269402E+02  0.32701269402E+02  0.00000000000E+00 0.  1.
          1   -1    0    0  501    0  0.00000000000E+00 -0.00000000000E+00 -0.46053742508E+03  0.46053742508E+03  0.00000000000E+00 0. -1.
         24    1    1    2    0    0 -0.52423303484E+01  0.44808705388E+02 -0.51181128290E+02  0.10546101627E+03  0.80419002446E+02 0.  1.
        -24    1    1    2    0    0  0.52423303484E+01 -0.44808705388E+02 -0.37665502739E+03  0.38777767821E+03  0.80419002446E+02 0. -1.
<mgrwt>
<rscale>  0 0.92209100E+02</rscale>
<asrwt>0</asrwt>
<pdfrwt beam="1">  1        1 0.70851909E-01 0.92209100E+02</pdfrwt>
<pdfrwt beam="2">  1       -1 0.50309647E-02 0.92209100E+02</pdfrwt>
<totfact> 0.81540689E+03</totfact>
</mgrwt>
</event>
<event>
 4    1  0.5015492E-001  0.8804047E+02  0.7546771E-02  0.1307668E+00
          2   -1    0    0  501    0  0.00000000000E+00  0.00000000000E+00  0.11625043424E+04  0.11625043424E+04  0.00000000000E+00 0. -1.
         -2   -1    0    0    0  501 -0.00000000000E+00 -0.00000000000E+00 -0.17827031622E+02  0.17827031622E+02  0.00000000000E+00 0.  1.
         24    1    1    2    0    0  0.33471460037E+02  0.12789430248E+02  0.10392724481E+04  0.10429948924E+04  0.80419002446E+02 0. -1.
        -24    1    1    2    0    0 -0.33471460037E+02 -0.12789430248E+02  0.10540486266E+03  0.13733648165E+03  0.80419002446E+02 0.  1.
<mgrwt>
<rscale>  0 0.88040469E+02</rscale>
<asrwt>0</asrwt>
<pdfrwt beam="1">  1        2 0.17884676E+00 0.88040469E+02</pdfrwt>
<pdfrwt beam="2">  1       -2 0.27426212E-02 0.88040469E+02</pdfrwt>
<totfact> 0.96124221E+03</totfact>
</mgrwt>
</event>
<event>
 4    1  0.5015492E-001  0.1036912E+03  0.7546771E-02  0.1272720E+00
          2   -1    0    0  501    0  0.00000000000E+00  0.00000000000E+00  0.35293579748E+03  0.35293579748E+03  0.00000000000E+00 0. -1.
         -2   -1    0    0    0  501 -0.00000000000E+00 -0.00000000000E+00 -0.14178240689E+03  0.14178240689E+03  0.00000000000E+00 0.  1.
         24    1    1    2    0    0  0.33094546771E+02  0.56474842495E+02  0.32475623577E+03  0.34090832417E+03  0.80419002446E+02 0. -1.
        -24    1    1    2    0    0 -0.33094546771E+02 -0.56474842495E+02 -0.11360284518E+03  0.15380988020E+03  0.80419002446E+02 0.  1.
<mgrwt>
<rscale>  0 0.10369124E+03</rscale>
<asrwt>0</asrwt>
<pdfrwt beam="1">  1        2 0.54297815E-01 0.10369124E+03</pdfrwt>
<pdfrwt beam="2">  1       -2 0.21812678E-01 0.10369124E+03</pdfrwt>
<totfact> 0.16124001E+03</totfact>
</mgrwt>
</event>
<event>
 4    1  0.5015492E-001  0.1083915E+03  0.7546771E-02  0.1263578E+00
         -1   -1    0    0    0  501 -0.00000000000E+00  0.00000000000E+00  0.22668062247E+03  0.22668062247E+03  0.00000000000E+00 0.  1.
          1   -1    0    0  501    0  0.00000000000E+00 -0.00000000000E+00 -0.52163149018E+02  0.52163149018E+02  0.00000000000E+00 0. -1.
         24    1    1    2    0    0  0.72635214106E+02 -0.23714919017E+01  0.76106103702E+02  0.13244188641E+03  0.80419002446E+02 0. -1.
        -24    1    1    2    0    0 -0.72635214106E+02  0.23714919017E+01  0.98411369747E+02  0.14640188507E+03  0.80419002446E+02 0.  1.
<mgrwt>
<rscale>  0 0.10839150E+03</rscale>
<asrwt>0</asrwt>
<pdfrwt beam="1">  1        1 0.80251000E-02 0.10839151E+03</pdfrwt>
<pdfrwt beam="2">  1       -1 0.34873941E-01 0.10839151E+03</pdfrwt>
<totfact> 0.63542113E+03</totfact>
</mgrwt>
</event>
<event>
 4    1  0.5015492E-001  0.1081677E+03  0.7546771E-02  0.1264001E+00
         -2   -1    0    0    0  501 -0.00000000000E+00  0.00000000000E+00  0.71726247025E+02  0.71726247025E+02  0.00000000000E+00 0.  1.
          2   -1    0    0  501    0  0.00000000000E+00 -0.00000000000E+00 -0.16444722821E+03  0.16444722821E+03  0.00000000000E+00 0. -1.
         24    1    1    2    0    0  0.71378345714E+02 -0.11754411892E+02 -0.35766602329E+02  0.11392760961E+03  0.80419002446E+02 0.  1.
        -24    1    1    2    0    0 -0.71378345714E+02  0.11754411892E+02 -0.56954378851E+02  0.12224586562E+03  0.80419002446E+02 0. -1.
<mgrwt>
<rscale>  0 0.10816771E+03</rscale>
<asrwt>0</asrwt>
<pdfrwt beam="1">  1        2 0.25299573E-01 0.10816772E+03</pdfrwt>
<pdfrwt beam="2">  1       -2 0.11034807E-01 0.10816772E+03</pdfrwt>
<totfact> 0.11079533E+04</totfact>
</mgrwt>
</event>
<event>
 4    1  0.5015492E-001  0.8896575E+02  0.7546771E-02  0.1305376E+00
          1   -1    0    0  501    0  0.00000000000E+00  0.00000000000E+00  0.77381686684E+03  0.77381686684E+03  0.00000000000E+00 0. -1.
         -1   -1    0    0    0  501 -0.00000000000E+00 -0.00000000000E+00 -0.14035656540E+03  0.14035656540E+03  0.00000000000E+00 0.  1.
         24    1    1    2    0    0  0.35687475752E+02 -0.13194391992E+02 -0.12338659920E+03  0.15211560316E+03  0.80419002446E+02 0.  1.
        -24    1    1    2    0    0 -0.35687475752E+02  0.13194391992E+02  0.75684690064E+03  0.76205782908E+03  0.80419002446E+02 0. -1.
<mgrwt>
<rscale>  0 0.88965745E+02</rscale>
<asrwt>0</asrwt>
<pdfrwt beam="1">  1        1 0.11904875E+00 0.88965745E+02</pdfrwt>
<pdfrwt beam="2">  1       -1 0.21593318E-01 0.88965745E+02</pdfrwt>
<totfact> 0.44280832E+02</totfact>
</mgrwt>
</event>
<event>
 4    1  0.5015492E-001  0.9026459E+02  0.7546771E-02  0.1302212E+00
         -1   -1    0    0    0  501 -0.00000000000E+00  0.00000000000E+00  0.16801252778E+02  0.16801252778E+02  0.00000000000E+00 0.  1.
          1   -1    0    0  501    0  0.00000000000E+00 -0.00000000000E+00 -0.87254721763E+03  0.87254721763E+03  0.00000000000E+00 0. -1.
         24    1    1    2    0    0 -0.22222656764E+01  0.40933381129E+02 -0.13149891197E+03  0.15949815033E+03  0.80419002446E+02 0.  1.
        -24    1    1    2    0    0  0.22222656764E+01 -0.40933381129E+02 -0.72424705288E+03  0.72985032008E+03  0.80419002446E+02 0. -1.
<mgrwt>
<rscale>  0 0.90264589E+02</rscale>
<asrwt>0</asrwt>
<pdfrwt beam="1">  1        1 0.13423800E+00 0.90264589E+02</pdfrwt>
<pdfrwt beam="2">  1       -1 0.25848087E-02 0.90264589E+02</pdfrwt>
<totfact> 0.88671863E+03</totfact>
</mgrwt>
</event>
<event>
 4    1  0.5015492E-001  0.9100495E+02  0.7546771E-02  0.1300436E+00
         -2   -1    0    0    0  501 -0.00000000000E+00  0.00000000000E+00  0.67989935374E+02  0.67989935374E+02  0.00000000000E+00 0.  1.
          2   -1    0    0  501    0  0.00000000000E+00 -0.00000000000E+00 -0.12512541137E+03  0.12512541137E+03  0.00000000000E+00 0. -1.
         24    1    1    2    0    0  0.11875070565E+02  0.40910482141E+02 -0.44283580921E+02  0.10120739273E+03  0.80419002446E+02 0. -1.
        -24    1    1    2    0    0 -0.11875070565E+02 -0.40910482141E+02 -0.12851895078E+02  0.91907954016E+02  0.80419002446E+02 0.  1.
<mgrwt>
<rscale>  0 0.91004949E+02</rscale>
<asrwt>0</asrwt>
<pdfrwt beam="1">  1        2 0.19250063E-01 0.91004949E+02</pdfrwt>
<pdfrwt beam="2">  1       -2 0.10459990E-01 0.91004949E+02</pdfrwt>
<totfact> 0.16038709E+04</totfact>
</mgrwt>
</event>
<event>
 4    1  0.5015492E-001  0.8310622E+02  0.7546771E-02  0.1320461E+00
         -2   -1    0    0    0  501 -0.00000000000E+00  0.00000000000E+00  0.41380982386E+02  0.41380982386E+02  0.00000000000E+00 0.  1.
          2   -1    0    0  501    0  0.00000000000E+00 -0.00000000000E+00 -0.16798747517E+03  0.16798747517E+03  0.00000000000E+00 0. -1.
         24    1    1    2    0    0  0.20912693292E+02  0.14437242693E+01 -0.54895049166E+02  0.99599736233E+02  0.80419002446E+02 0.  0.
        -24    1    1    2    0    0 -0.20912693292E+02 -0.14437242693E+01 -0.71711443619E+02  0.10976872132E+03  0.80419002446E+02 0.  1.
<mgrwt>
<rscale>  0 0.83106214E+02</rscale>
<asrwt>0</asrwt>
<pdfrwt beam="1">  1        2 0.25844226E-01 0.83106224E+02</pdfrwt>
<pdfrwt beam="2">  1       -2 0.63663051E-02 0.83106224E+02</pdfrwt>
<totfact> 0.24527944E+04</totfact>
</mgrwt>
</event>
<event>
 4    1  0.5015492E-001  0.8392887E+02  0.7546771E-02  0.1318258E+00
          1   -1    0    0  501    0  0.00000000000E+00  0.00000000000E+00  0.16816896096E+04  0.16816896096E+04  0.00000000000E+00 0. -1.
         -1   -1    0    0    0  501 -0.00000000000E+00 -0.00000000000E+00 -0.78455845851E+01  0.78455845851E+01  0.00000000000E+00 0.  1.
         24    1    1    2    0    0  0.17997536851E+02  0.15903706019E+02  0.26018003067E+03  0.27338197364E+03  0.80419002446E+02 0.  1.
        -24    1    1    2    0    0 -0.17997536851E+02 -0.15903706019E+02  0.14136639944E+04  0.14161532206E+04  0.80419002446E+02 0. -1.
<mgrwt>
<rscale>  0 0.83928870E+02</rscale>
<asrwt>0</asrwt>
<pdfrwt beam="1">  1        1 0.25872119E+00 0.83928870E+02</pdfrwt>
<pdfrwt beam="2">  1       -1 0.12070144E-02 0.83928870E+02</pdfrwt>
<totfact> 0.74609884E+03</totfact>
</mgrwt>
</event>
<event>
 4    1  0.5015492E-001  0.8182374E+02  0.7546771E-02  0.1323954E+00
         -2   -1    0    0    0  501 -0.00000000000E+00  0.00000000000E+00  0.93090268977E+01  0.93090268977E+01  0.00000000000E+00 0.  1.
          2   -1    0    0  501    0  0.00000000000E+00 -0.00000000000E+00 -0.80934139774E+03  0.80934139774E+03  0.00000000000E+00 0. -1.
         24    1    1    2    0    0  0.15092533610E+02  0.35162883230E+00 -0.53661474617E+03  0.54281719756E+03  0.80419002446E+02 0.  0.
        -24    1    1    2    0    0 -0.15092533610E+02 -0.35162883230E+00 -0.26341762467E+03  0.27583322707E+03  0.80419002446E+02 0.  0.
<mgrwt>
<rscale>  0 0.81823738E+02</rscale>
<asrwt>0</asrwt>
<pdfrwt beam="1">  1        2 0.12451408E+00 0.81823738E+02</pdfrwt>
<pdfrwt beam="2">  1       -2 0.14321577E-02 0.81823738E+02</pdfrwt>
<totfact> 0.39261624E+04</totfact>
</mgrwt>
</event>
<event>
 4    1  0.5015492E-001  0.1376543E+03  0.7546771E-02  0.1216521E+00
         -4   -1    0    0    0  501 -0.00000000000E+00  0.00000000000E+00  0.11844701537E+03  0.11844701537E+03  0.00000000000E+00 0.  1.
          4   -1    0    0  501    0  0.00000000000E+00 -0.00000000000E+00 -0.16271185976E+03  0.16271185976E+03  0.00000000000E+00 0. -1.
         24    1    1    2    0    0  0.11043182064E+03  0.16920315556E+02 -0.40360694195E+02  0.14344924426E+03  0.80419002446E+02 0. -1.
        -24    1    1    2    0    0 -0.11043182064E+03 -0.16920315556E+02 -0.39041502004E+01  0.13770963086E+03  0.80419002446E+02 0.  0.
<mgrwt>
<rscale>  0 0.13765428E+03</rscale>
<asrwt>0</asrwt>
<pdfrwt beam="1">  1        4 0.25032594E-01 0.13765428E+03</pdfrwt>
<pdfrwt beam="2">  1       -4 0.18222618E-01 0.13765428E+03</pdfrwt>
<totfact> 0.66203851E+02</totfact>
</mgrwt>
</event>
<event>
 4    1  0.5015492E-001  0.1150613E+03  0.7546771E-02  0.1251474E+00
          2   -1    0    0  501    0  0.00000000000E+00  0.00000000000E+00  0.41490602967E+03  0.41490602967E+03  0.00000000000E+00 0. -1.
         -2   -1    0    0    0  501 -0.00000000000E+00 -0.00000000000E+00 -0.31924755800E+02  0.31924755800E+02  0.00000000000E+00 0.  1.
         24    1    1    2    0    0  0.17376486596E+02 -0.80435919698E+02  0.18647407643E+03  0.21911566945E+03  0.80419002446E+02 0.  0.
        -24    1    1    2    0    0 -0.17376486596E+02  0.80435919698E+02  0.19650719744E+03  0.22771511602E+03  0.80419002446E+02 0.  1.
<mgrwt>
<rscale>  0 0.11506128E+03</rscale>
<asrwt>0</asrwt>
<pdfrwt beam="1">  1        2 0.63831693E-01 0.11506130E+03</pdfrwt>
<pdfrwt beam="2">  1       -2 0.49115012E-02 0.11506130E+03</pdfrwt>
<totfact> 0.14358393E+04</totfact>
</mgrwt>
</event>
<event>
 4    1  0.5015492E-001  0.8622718E+02  0.7546771E-02  0.1312254E+00
          2   -1    0    0  501    0  0.00000000000E+00  0.00000000000E+00  0.82892240113E+03  0.82892240113E+03  0.00000000000E+00 0. -1.
         -2   -1    0    0    0  501 -0.00000000000E+00 -0.00000000000E+00 -0.69829587665E+02  0.69829587665E+02  0.00000000000E+00 0.  1.
         24    1    1    2    0    0 -0.29818232614E+02  0.88760621449E+01  0.79906957717E+03  0.80370847736E+03  0.80419002446E+02 0. -1.
        -24    1    1    2    0    0  0.29818232614E+02 -0.88760621449E+01 -0.39976763700E+02  0.95043511434E+02  0.80419002446E+02 0.  1.
<mgrwt>
<rscale>  0 0.86227185E+02</rscale>
<asrwt>0</asrwt>
<pdfrwt beam="1">  1        2 0.12752652E+00 0.86227185E+02</pdfrwt>
<pdfrwt beam="2">  1       -2 0.10743014E-01 0.86227185E+02</pdfrwt>
<totfact> 0.19618097E+03</totfact>
</mgrwt>
</event>
<event>
 4    1  0.5015492E-001  0.8499340E+02  0.7546771E-02  0.1315450E+00
         -1   -1    0    0    0  501 -0.00000000000E+00  0.00000000000E+00  0.14670026123E+03  0.14670026123E+03  0.00000000000E+00 0.  1.
          1   -1    0    0  501    0  0.00000000000E+00 -0.00000000000E+00 -0.75493190250E+03  0.75493190250E+03  0.00000000000E+00 0. -1.
         24    1    1    2    0    0  0.12305167400E+02 -0.24601723285E+02  0.13174951311E+03  0.15678587976E+03  0.80419002446E+02 0.  1.
        -24    1    1    2    0    0 -0.12305167400E+02  0.24601723285E+02 -0.73998115438E+03  0.74484628396E+03  0.80419002446E+02 0. -1.
<mgrwt>
<rscale>  0 0.84993399E+02</rscale>
<asrwt>0</asrwt>
<pdfrwt beam="1">  1        1 0.11614337E+00 0.84993399E+02</pdfrwt>
<pdfrwt beam="2">  1       -1 0.22569271E-01 0.84993399E+02</pdfrwt>
<totfact> 0.42785352E+02</totfact>
</mgrwt>
</event>
<event>
 4    1  0.5015492E-001  0.8240577E+02  0.7546771E-02  0.1322360E+00
         -2   -1    0    0    0  501 -0.00000000000E+00  0.00000000000E+00  0.14914038444E+03  0.14914038444E+03  0.00000000000E+00 0.  1.
          2   -1    0    0  501    0  0.00000000000E+00 -0.00000000000E+00 -0.23874013528E+03  0.23874013528E+03  0.00000000000E+00 0. -1.
         24    1    1    2    0    0  0.11882904930E+02 -0.13501562272E+02 -0.21926859393E+03  0.23424224182E+03  0.80419002446E+02 0. -1.
        -24    1    1    2    0    0 -0.11882904930E+02  0.13501562272E+02  0.12966884309E+03  0.15363827790E+03  0.80419002446E+02 0.  1.
<mgrwt>
<rscale>  0 0.82405774E+02</rscale>
<asrwt>0</asrwt>
<pdfrwt beam="1">  1        2 0.36729251E-01 0.82405774E+02</pdfrwt>
<pdfrwt beam="2">  1       -2 0.22944675E-01 0.82405774E+02</pdfrwt>
<totfact> 0.22061645E+03</totfact>
</mgrwt>
</event>
<event>
 4    1  0.5015492E-001  0.1044065E+03  0.7546771E-02  0.1271293E+00
          2   -1    0    0  501    0  0.00000000000E+00  0.00000000000E+00  0.23627362382E+02  0.23627362382E+02  0.00000000000E+00 0. -1.
         -2   -1    0    0    0  501 -0.00000000000E+00 -0.00000000000E+00 -0.81270200203E+03  0.81270200203E+03  0.00000000000E+00 0.  1.
         24    1    1    2    0    0  0.42418939426E+02 -0.51323773274E+02 -0.11959162374E+03  0.15875411349E+03  0.80419002446E+02 0. -1.
        -24    1    1    2    0    0 -0.42418939426E+02  0.51323773274E+02 -0.66948301591E+03  0.67757525093E+03  0.80419002446E+02 0.  1.
<mgrwt>
<rscale>  0 0.10440648E+03</rscale>
<asrwt>0</asrwt>
<pdfrwt beam="1">  1        2 0.36349790E-02 0.10440648E+03</pdfrwt>
<pdfrwt beam="2">  1       -2 0.12503107E+00 0.10440648E+03</pdfrwt>
<totfact> 0.11525820E+03</totfact>
</mgrwt>
</event>
<event>
 4    1  0.5015492E-001  0.8434540E+02  0.7546771E-02  0.1317153E+00
          2   -1    0    0  501    0  0.00000000000E+00  0.00000000000E+00  0.29309550920E+02  0.29309550920E+02  0.00000000000E+00 0. -1.
         -2   -1    0    0    0  501 -0.00000000000E+00 -0.00000000000E+00 -0.25990124941E+03  0.25990124941E+03  0.00000000000E+00 0.  1.
         24    1    1    2    0    0  0.21488026113E+02  0.13608648595E+02 -0.78120879302E+02  0.11496529181E+03  0.80419002446E+02 0.  0.
        -24    1    1    2    0    0 -0.21488026113E+02 -0.13608648595E+02 -0.15247081919E+03  0.17424550853E+03  0.80419002446E+02 0. -1.
<mgrwt>
<rscale>  0 0.84345400E+02</rscale>
<asrwt>0</asrwt>
<pdfrwt beam="1">  1        2 0.45091617E-02 0.84345400E+02</pdfrwt>
<pdfrwt beam="2">  1       -2 0.39984807E-01 0.84345400E+02</pdfrwt>
<totfact> 0.96069404E+03</totfact>
</mgrwt>
</event>
<event>
 4    1  0.5015492E-001  0.9974487E+02  0.7546771E-02  0.1280833E+00
          2   -1    0    0  501    0  0.00000000000E+00  0.00000000000E+00  0.60361936354E+03  0.60361936354E+03  0.00000000000E+00 0. -1.
         -2   -1    0    0    0  501 -0.00000000000E+00 -0.00000000000E+00 -0.21049852937E+02  0.21049852937E+02  0.00000000000E+00 0.  1.
         24    1    1    2    0    0  0.46939442671E+02  0.35756275618E+02  0.43677609099E+03  0.44802052647E+03  0.80419002446E+02 0. -1.
        -24    1    1    2    0    0 -0.46939442671E+02 -0.35756275618E+02  0.14579341961E+03  0.17664869001E+03  0.80419002446E+02 0.  1.
<mgrwt>
<rscale>  0 0.99744867E+02</rscale>
<asrwt>0</asrwt>
<pdfrwt beam="1">  1        2 0.92864504E-01 0.99744867E+02</pdfrwt>
<pdfrwt beam="2">  1       -2 0.32384394E-02 0.99744867E+02</pdfrwt>
<totfact> 0.17430554E+04</totfact>
</mgrwt>
</event>
<event>
 4    1  0.5015492E-001  0.9080552E+02  0.7546771E-02  0.1300913E+00
         -2   -1    0    0    0  501 -0.00000000000E+00  0.00000000000E+00  0.10431396147E+02  0.10431396147E+02  0.00000000000E+00 0.  1.
          2   -1    0    0  501    0  0.00000000000E+00 -0.00000000000E+00 -0.19492816821E+04  0.19492816821E+04  0.00000000000E+00 0. -1.
         24    1    1    2    0    0 -0.25566044169E+02  0.33538101691E+02 -0.17249221642E+04  0.17273106598E+04  0.80419002446E+02 0. -1.
        -24    1    1    2    0    0  0.25566044169E+02 -0.33538101691E+02 -0.21392812176E+03  0.23240241848E+03  0.80419002446E+02 0.  1.
<mgrwt>
<rscale>  0 0.90805522E+02</rscale>
<asrwt>0</asrwt>
<pdfrwt beam="1">  1        2 0.29988943E+00 0.90805522E+02</pdfrwt>
<pdfrwt beam="2">  1       -2 0.16048305E-02 0.90805522E+02</pdfrwt>
<totfact> 0.82094255E+03</totfact>
</mgrwt>
</event>
<event>
 4    1  0.5015492E-001  0.8524239E+02  0.7546771E-02  0.1314800E+00
          1   -1    0    0  501    0  0.00000000000E+00  0.00000000000E+00  0.88597629712E+03  0.88597629712E+03  0.00000000000E+00 0. -1.
         -1   -1    0    0    0  501 -0.00000000000E+00 -0.00000000000E+00 -0.10100749865E+02  0.10100749865E+02  0.00000000000E+00 0.  1.
         24    1    1    2    0    0 -0.25057449999E+02  0.13083345613E+02  0.24365312144E+03  0.25813389796E+03  0.80419002446E+02 0.  0.
        -24    1    1    2    0    0  0.25057449999E+02 -0.13083345613E+02  0.63222242581E+03  0.63794314903E+03  0.80419002446E+02 0.  0.
<mgrwt>
<rscale>  0 0.85242394E+02</rscale>
<asrwt>0</asrwt>
<pdfrwt beam="1">  1        1 0.13630398E+00 0.85242394E+02</pdfrwt>
<pdfrwt beam="2">  1       -1 0.15539622E-02 0.85242394E+02</pdfrwt>
<totfact> 0.17807861E+04</totfact>
</mgrwt>
</event>
<event>
 4    1  0.5015492E-001  0.8125325E+02  0.7546771E-02  0.1325532E+00
          1   -1    0    0  501    0  0.00000000000E+00  0.00000000000E+00  0.98962162751E+01  0.98962162751E+01  0.00000000000E+00 0. -1.
         -1   -1    0    0    0  501 -0.00000000000E+00 -0.00000000000E+00 -0.21274829447E+04  0.21274829447E+04  0.00000000000E+00 0.  1.
         24    1    1    2    0    0 -0.11123598930E+02 -0.33376288684E+01 -0.19442086902E+04  0.19459058356E+04  0.80419002446E+02 0.  1.
        -24    1    1    2    0    0  0.11123598930E+02  0.33376288684E+01 -0.17337803829E+03  0.19147332539E+03  0.80419002446E+02 0. -1.
<mgrwt>
<rscale>  0 0.81253247E+02</rscale>
<asrwt>0</asrwt>
<pdfrwt beam="1">  1        1 0.15224959E-02 0.81253247E+02</pdfrwt>
<pdfrwt beam="2">  1       -1 0.32730484E+00 0.81253247E+02</pdfrwt>
<totfact> 0.23328014E+02</totfact>
</mgrwt>
</event>
<event>
 4    1  0.5015492E-001  0.8230522E+02  0.7546771E-02  0.1322634E+00
          2   -1    0    0  501    0  0.00000000000E+00  0.00000000000E+00  0.10528358902E+04  0.10528358902E+04  0.00000000000E+00 0. -1.
         -2   -1    0    0    0  501 -0.00000000000E+00 -0.00000000000E+00 -0.14922720381E+02  0.14922720381E+02  0.00000000000E+00 0.  1.
         24    1    1    2    0    0  0.17480727039E+02  0.11653150741E+01  0.92161358431E+03  0.92528144287E+03  0.80419002446E+02 0. -1.
        -24    1    1    2    0    0 -0.17480727039E+02 -0.11653150741E+01  0.11629958554E+03  0.14247716775E+03  0.80419002446E+02 0.  0.
<mgrwt>
<rscale>  0 0.82305223E+02</rscale>
<asrwt>0</asrwt>
<pdfrwt beam="1">  1        2 0.16197469E+00 0.82305223E+02</pdfrwt>
<pdfrwt beam="2">  1       -2 0.22958040E-02 0.82305223E+02</pdfrwt>
<totfact> 0.14239647E+04</totfact>
</mgrwt>
</event>
<event>
 4    1  0.5015492E-001  0.8285716E+02  0.7546771E-02  0.1321133E+00
         -1   -1    0    0    0  501 -0.00000000000E+00  0.00000000000E+00  0.25621819296E+03  0.25621819296E+03  0.00000000000E+00 0.  1.
          1   -1    0    0  501    0  0.00000000000E+00 -0.00000000000E+00 -0.35147166976E+03  0.35147166976E+03  0.00000000000E+00 0. -1.
         24    1    1    2    0    0  0.19834281671E+02 -0.21664621420E+01  0.24440666315E+03  0.25806961315E+03  0.80419002446E+02 0.  1.
        -24    1    1    2    0    0 -0.19834281671E+02  0.21664621420E+01 -0.33966013995E+03  0.34962024957E+03  0.80419002446E+02 0. -1.
<mgrwt>
<rscale>  0 0.82857156E+02</rscale>
<asrwt>0</asrwt>
<pdfrwt beam="1">  1        1 0.54072564E-01 0.82857156E+02</pdfrwt>
<pdfrwt beam="2">  1       -1 0.39418184E-01 0.82857156E+02</pdfrwt>
<totfact> 0.45933941E+02</totfact>
</mgrwt>
</event>
<event>
 4    1  0.5015492E-001  0.8453847E+02  0.7546771E-02  0.1316644E+00
         -2   -1    0    0    0  501 -0.00000000000E+00  0.00000000000E+00  0.17905622672E+02  0.17905622672E+02  0.00000000000E+00 0.  1.
          2   -1    0    0  501    0  0.00000000000E+00 -0.00000000000E+00 -0.41665071327E+03  0.41665071327E+03  0.00000000000E+00 0. -1.
         24    1    1    2    0    0 -0.77874148974E+01  0.24877554412E+02 -0.24392274153E+03  0.25815703813E+03  0.80419002446E+02 0. -1.
        -24    1    1    2    0    0  0.77874148974E+01 -0.24877554412E+02 -0.15482234906E+03  0.17639929781E+03  0.80419002446E+02 0.  1.
<mgrwt>
<rscale>  0 0.84538468E+02</rscale>
<asrwt>0</asrwt>
<pdfrwt beam="1">  1        2 0.64100105E-01 0.84538468E+02</pdfrwt>
<pdfrwt beam="2">  1       -2 0.27547114E-02 0.84538468E+02</pdfrwt>
<totfact> 0.32401344E+04</totfact>
</mgrwt>
</event>
<event>
 4    1  0.5015492E-001  0.8412233E+02  0.7546771E-02  0.1317744E+00
          1   -1    0    0  501    0  0.00000000000E+00  0.00000000000E+00  0.62358026617E+02  0.62358026617E+02  0.00000000000E+00 0. -1.
         -1   -1    0    0    0  501 -0.00000000000E+00 -0.00000000000E+00 -0.16360832046E+03  0.16360832046E+03  0.00000000000E+00 0.  1.
         24    1    1    2    0    0 -0.13477513850E+02  0.20681091210E+02 -0.11316261398E+03  0.14100476612E+03  0.80419002446E+02 0.  1.
        -24    1    1    2    0    0  0.13477513850E+02 -0.20681091210E+02  0.11912320131E+02  0.84961580956E+02  0.80419002446E+02 0. -1.
<mgrwt>
<rscale>  0 0.84122333E+02</rscale>
<asrwt>0</asrwt>
<pdfrwt beam="1">  1        1 0.95935428E-02 0.84122333E+02</pdfrwt>
<pdfrwt beam="2">  1       -1 0.25170510E-01 0.84122333E+02</pdfrwt>
<totfact> 0.84428517E+03</totfact>
</mgrwt>
</event>
<event>
 4    1  0.5015492E-001  0.9344591E+02  0.7546771E-02  0.1294715E+00
         -2   -1    0    0    0  501 -0.00000000000E+00  0.00000000000E+00  0.22533086905E+02  0.22533086905E+02  0.00000000000E+00 0.  1.
          2   -1    0    0  501    0  0.00000000000E+00 -0.00000000000E+00 -0.10556373261E+04  0.10556373261E+04  0.00000000000E+00 0. -1.
         24    1    1    2    0    0 -0.15353479131E+02  0.45046560880E+02 -0.94542120131E+03  0.95002809738E+03  0.80419002446E+02 0. -1.
        -24    1    1    2    0    0  0.15353479131E+02 -0.45046560880E+02 -0.87683037904E+02  0.12814231565E+03  0.80419002446E+02 0.  1.
<mgrwt>
<rscale>  0 0.93445909E+02</rscale>
<asrwt>0</asrwt>
<pdfrwt beam="1">  1        2 0.16240571E+00 0.93445909E+02</pdfrwt>
<pdfrwt beam="2">  1       -2 0.34666295E-02 0.93445909E+02</pdfrwt>
<totfact> 0.78724832E+03</totfact>
</mgrwt>
</event>
<event>
 4    1  0.5015492E-001  0.1113946E+03  0.7546771E-02  0.1258009E+00
         -2   -1    0    0    0  501 -0.00000000000E+00  0.00000000000E+00  0.17863979264E+02  0.17863979264E+02  0.00000000000E+00 0.  1.
          2   -1    0    0  501    0  0.00000000000E+00 -0.00000000000E+00 -0.84050677850E+03  0.84050677850E+03  0.00000000000E+00 0. -1.
         24    1    1    2    0    0  0.71161238737E+02 -0.29624529437E+02 -0.23251783771E+03  0.25782415607E+03  0.80419002446E+02 0.  1.
        -24    1    1    2    0    0 -0.71161238737E+02  0.29624529437E+02 -0.59012496153E+03  0.60054660170E+03  0.80419002446E+02 0. -1.
<mgrwt>
<rscale>  0 0.11139459E+03</rscale>
<asrwt>0</asrwt>
<pdfrwt beam="1">  1        2 0.12930874E+00 0.11139460E+03</pdfrwt>
<pdfrwt beam="2">  1       -2 0.27483044E-02 0.11139460E+03</pdfrwt>
<totfact> 0.15102629E+04</totfact>
</mgrwt>
</event>
<event>
 4    1  0.5015492E-001  0.1118461E+03  0.7546771E-02  0.1257189E+00
         -1   -1    0    0    0  501 -0.00000000000E+00  0.00000000000E+00  0.25182644202E+02  0.25182644202E+02  0.00000000000E+00 0.  1.
          1   -1    0    0  501    0  0.00000000000E+00 -0.00000000000E+00 -0.75214128398E+03  0.75214128398E+03  0.00000000000E+00 0. -1.
         24    1    1    2    0    0 -0.24599500345E+01  0.77693488910E+02 -0.13700284303E+03  0.17685961813E+03  0.80419002446E+02 0.  1.
        -24    1    1    2    0    0  0.24599500345E+01 -0.77693488910E+02 -0.58995579675E+03  0.60046431005E+03  0.80419002446E+02 0. -1.
<mgrwt>
<rscale>  0 0.11184608E+03</rscale>
<asrwt>0</asrwt>
<pdfrwt beam="1">  1        1 0.11571404E+00 0.11184608E+03</pdfrwt>
<pdfrwt beam="2">  1       -1 0.38742531E-02 0.11184608E+03</pdfrwt>
<totfact> 0.62501426E+03</totfact>
</mgrwt>
</event>
<event>
 4    1  0.5015492E-001  0.9745228E+02  0.7546771E-02  0.1285747E+00
          1   -1    0    0  501    0  0.00000000000E+00  0.00000000000E+00  0.24197205358E+03  0.24197205358E+03  0.00000000000E+00 0. -1.
         -1   -1    0    0    0  501 -0.00000000000E+00 -0.00000000000E+00 -0.12380439000E+03  0.12380439000E+03  0.00000000000E+00 0.  1.
         24    1    1    2    0    0  0.43581385423E+02  0.33621331428E+02 -0.92060072207E+02  0.13405970286E+03  0.80419002446E+02 0.  1.
        -24    1    1    2    0    0 -0.43581385423E+02 -0.33621331428E+02  0.21022773579E+03  0.23171674072E+03  0.80419002446E+02 0. -1.
<mgrwt>
<rscale>  0 0.97452281E+02</rscale>
<asrwt>0</asrwt>
<pdfrwt beam="1">  1        1 0.37226470E-01 0.97452281E+02</pdfrwt>
<pdfrwt beam="2">  1       -1 0.19046829E-01 0.97452281E+02</pdfrwt>
<totfact> 0.24099017E+03</totfact>
</mgrwt>
</event>
<event>
 4    1  0.5015492E-001  0.8941200E+02  0.7546771E-02  0.1304282E+00
         -2   -1    0    0    0  501 -0.00000000000E+00  0.00000000000E+00  0.12925369204E+02  0.12925369204E+02  0.00000000000E+00 0.  1.
          2   -1    0    0  501    0  0.00000000000E+00 -0.00000000000E+00 -0.21726600786E+04  0.21726600786E+04  0.00000000000E+00 0. -1.
         24    1    1    2    0    0 -0.32774544209E+02  0.21286611196E+02 -0.20041142199E+04  0.20061077520E+04  0.80419002446E+02 0. -1.
        -24    1    1    2    0    0  0.32774544209E+02 -0.21286611196E+02 -0.15562048958E+03  0.17947769582E+03  0.80419002446E+02 0.  1.
<mgrwt>
<rscale>  0 0.89412004E+02</rscale>
<asrwt>0</asrwt>
<pdfrwt beam="1">  1        2 0.33425553E+00 0.89412004E+02</pdfrwt>
<pdfrwt beam="2">  1       -2 0.19885175E-02 0.89412004E+02</pdfrwt>
<totfact> 0.46583120E+03</totfact>
</mgrwt>
</event>
<event>
 4    1  0.5015492E-001  0.9061766E+02  0.7546771E-02  0.1301363E+00
         -2   -1    0    0    0  501 -0.00000000000E+00  0.00000000000E+00  0.40821433065E+02  0.40821433065E+02  0.00000000000E+00 0.  1.
          2   -1    0    0  501    0  0.00000000000E+00 -0.00000000000E+00 -0.61371844608E+03  0.61371844608E+03  0.00000000000E+00 0. -1.
         24    1    1    2    0    0 -0.12488577651E+02  0.39854488047E+02 -0.55477606830E+03  0.56212814082E+03  0.80419002446E+02 0. -1.
        -24    1    1    2    0    0  0.12488577651E+02 -0.39854488047E+02 -0.18120944720E+02  0.92411738330E+02  0.80419002446E+02 0.  1.
<mgrwt>
<rscale>  0 0.90617662E+02</rscale>
<asrwt>0</asrwt>
<pdfrwt beam="1">  1        2 0.94418220E-01 0.90617662E+02</pdfrwt>
<pdfrwt beam="2">  1       -2 0.62802206E-02 0.90617662E+02</pdfrwt>
<totfact> 0.63685267E+03</totfact>
</mgrwt>
</event>
<event>
 4    1  0.5015492E-001  0.8611182E+02  0.7546771E-02  0.1312550E+00
         -2   -1    0    0    0  501 -0.00000000000E+00  0.00000000000E+00  0.39290342242E+02  0.39290342242E+02  0.00000000000E+00 0.  1.
          2   -1    0    0  501    0  0.00000000000E+00 -0.00000000000E+00 -0.22280759062E+03  0.22280759062E+03  0.00000000000E+00 0. -1.
         24    1    1    2    0    0 -0.30783357452E+02  0.64314690350E+00 -0.14301012095E+03  0.16693453622E+03  0.80419002446E+02 0.  1.
        -24    1    1    2    0    0  0.30783357452E+02 -0.64314690350E+00 -0.40507127429E+02  0.95163396644E+02  0.80419002446E+02 0.  0.
<mgrwt>
<rscale>  0 0.86111815E+02</rscale>
<asrwt>0</asrwt>
<pdfrwt beam="1">  1        2 0.34278091E-01 0.86111815E+02</pdfrwt>
<pdfrwt beam="2">  1       -2 0.60446680E-02 0.86111815E+02</pdfrwt>
<totfact> 0.19688069E+04</totfact>
</mgrwt>
</event>
<event>
 4    1  0.5015492E-001  0.8757652E+02  0.7546771E-02  0.1308829E+00
         -2   -1    0    0    0  501 -0.00000000000E+00  0.00000000000E+00  0.55948676976E+01  0.55948676976E+01  0.00000000000E+00 0.  1.
          2   -1    0    0  501    0  0.00000000000E+00 -0.00000000000E+00 -0.15537669624E+04  0.15537669624E+04  0.00000000000E+00 0. -1.
         24    1    1    2    0    0  0.33187249921E+02  0.10051723941E+02 -0.10416129382E+04  0.10452880750E+04  0.80419002446E+02 0. -1.
        -24    1    1    2    0    0 -0.33187249921E+02 -0.10051723941E+02 -0.50655915649E+03  0.51407375510E+03  0.80419002446E+02 0.  1.
<mgrwt>
<rscale>  0 0.87576519E+02</rscale>
<asrwt>0</asrwt>
<pdfrwt beam="1">  1        2 0.23904123E+00 0.87576519E+02</pdfrwt>
<pdfrwt beam="2">  1       -2 0.86074831E-03 0.87576519E+02</pdfrwt>
<totfact> 0.31333849E+04</totfact>
</mgrwt>
</event>
<event>
 4    1  0.5015492E-001  0.9679503E+02  0.7546771E-02  0.1287184E+00
         -2   -1    0    0    0  501 -0.00000000000E+00  0.00000000000E+00  0.61758613521E+02  0.61758613521E+02  0.00000000000E+00 0.  1.
          2   -1    0    0  501    0  0.00000000000E+00 -0.00000000000E+00 -0.97774083702E+03  0.97774083702E+03  0.00000000000E+00 0. -1.
         24    1    1    2    0    0 -0.46178114510E+02  0.27742447938E+02 -0.93571948877E+03  0.94071262311E+03  0.80419002446E+02 0. -1.
        -24    1    1    2    0    0  0.46178114510E+02 -0.27742447938E+02  0.19737265271E+02  0.98786827422E+02  0.80419002446E+02 0.  1.
<mgrwt>
<rscale>  0 0.96795029E+02</rscale>
<asrwt>0</asrwt>
<pdfrwt beam="1">  1        2 0.15042166E+00 0.96795029E+02</pdfrwt>
<pdfrwt beam="2">  1       -2 0.95013259E-02 0.96795029E+02</pdfrwt>
<totfact> 0.19264417E+03</totfact>
</mgrwt>
</event>
<event>
 4    1  0.5015492E-001  0.8341461E+02  0.7546771E-02  0.1319631E+00
         -1   -1    0    0    0  501 -0.00000000000E+00  0.00000000000E+00  0.34870873775E+01  0.34870873775E+01  0.00000000000E+00 0.  1.
          1   -1    0    0  501    0  0.00000000000E+00 -0.00000000000E+00 -0.26346040420E+04  0.26346040420E+04  0.00000000000E+00 0. -1.
         24    1    1    2    0    0  0.20422361110E+02 -0.85853753373E+01 -0.66582507525E+03  0.67102982667E+03  0.80419002446E+02 0.  0.
        -24    1    1    2    0    0 -0.20422361110E+02  0.85853753373E+01 -0.19652918794E+04  0.19670613027E+04  0.80419002446E+02 0. -1.
<mgrwt>
<rscale>  0 0.83414612E+02</rscale>
<asrwt>0</asrwt>
<pdfrwt beam="1">  1        1 0.40532450E+00 0.83414612E+02</pdfrwt>
<pdfrwt beam="2">  1       -1 0.53647392E-03 0.83414612E+02</pdfrwt>
<totfact> 0.58241223E+03</totfact>
</mgrwt>
</event>
<event>
 4    1  0.5015492E-001  0.8892409E+02  0.7546771E-02  0.1305478E+00
         -1   -1    0    0    0  501 -0.00000000000E+00  0.00000000000E+00  0.16107386458E+02  0.16107386458E+02  0.00000000000E+00 0.  1.
          1   -1    0    0  501    0  0.00000000000E+00 -0.00000000000E+00 -0.54030803287E+03  0.54030803287E+03  0.00000000000E+00 0. -1.
         24    1    1    2    0    0  0.27991885593E+02  0.25626774600E+02 -0.17799097039E+03  0.19896803445E+03  0.80419002446E+02 0.  1.
        -24    1    1    2    0    0 -0.27991885593E+02 -0.25626774600E+02 -0.34620967602E+03  0.35744738488E+03  0.80419002446E+02 0. -1.
<mgrwt>
<rscale>  0 0.88924087E+02</rscale>
<asrwt>0</asrwt>
<pdfrwt beam="1">  1        1 0.83124304E-01 0.88924087E+02</pdfrwt>
<pdfrwt beam="2">  1       -1 0.24780597E-02 0.88924087E+02</pdfrwt>
<totfact> 0.18449033E+04</totfact>
</mgrwt>
</event>
<event>
 4    1  0.5015492E-001  0.9346616E+02  0.7546771E-02  0.1294669E+00
         -2   -1    0    0    0  501 -0.00000000000E+00  0.00000000000E+00  0.16121169878E+04  0.16121169878E+04  0.00000000000E+00 0.  1.
          2   -1    0    0  501    0  0.00000000000E+00 -0.00000000000E+00 -0.11305027777E+02  0.11305027777E+02  0.00000000000E+00 0. -1.
         24    1    1    2    0    0 -0.34773524738E+00 -0.47629669555E+02  0.21469958172E+03  0.23416197960E+03  0.80419002446E+02 0. -1.
        -24    1    1    2    0    0  0.34773524738E+00  0.47629669555E+02  0.13861123783E+04  0.13892600359E+04  0.80419002446E+02 0.  1.
<mgrwt>
<rscale>  0 0.93466156E+02</rscale>
<asrwt>0</asrwt>
<pdfrwt beam="1">  1        2 0.17392363E-02 0.93466156E+02</pdfrwt>
<pdfrwt beam="2">  1       -2 0.24801782E+00 0.93466156E+02</pdfrwt>
<totfact> 0.47403579E+02</totfact>
</mgrwt>
</event>
<event>
 4    1  0.5015492E-001  0.8847814E+02  0.7546771E-02  0.1306580E+00
         -2   -1    0    0    0  501 -0.00000000000E+00  0.00000000000E+00  0.91494772814E+02  0.91494772814E+02  0.00000000000E+00 0.  1.
          2   -1    0    0  501    0  0.00000000000E+00 -0.00000000000E+00 -0.11658199666E+03  0.11658199666E+03  0.00000000000E+00 0. -1.
         24    1    1    2    0    0 -0.18690792684E+02  0.31809103981E+02 -0.66210448423E+02  0.11050884246E+03  0.80419002446E+02 0. -1.
        -24    1    1    2    0    0  0.18690792684E+02 -0.31809103981E+02  0.41123224579E+02  0.97567927012E+02  0.80419002446E+02 0. -1.
<mgrwt>
<rscale>  0 0.88478137E+02</rscale>
<asrwt>0</asrwt>
<pdfrwt beam="1">  1        2 0.17935692E-01 0.88478137E+02</pdfrwt>
<pdfrwt beam="2">  1       -2 0.14076119E-01 0.88478137E+02</pdfrwt>
<totfact> 0.10825849E+04</totfact>
</mgrwt>
</event>
<event>
 4    1  0.5015492E-001  0.9098985E+02  0.7546771E-02  0.1300472E+00
          2   -1    0    0  501    0  0.00000000000E+00  0.00000000000E+00  0.72708633978E+03  0.72708633978E+03  0.00000000000E+00 0. -1.
         -2   -1    0    0    0  501 -0.00000000000E+00 -0.00000000000E+00 -0.12256576950E+02  0.12256576950E+02  0.00000000000E+00 0.  1.
         24    1    1    2    0    0 -0.42283354051E+02  0.49042126099E+01  0.25893486143E+03  0.27445657534E+03  0.80419002446E+02 0.  1.
        -24    1    1    2    0    0  0.42283354051E+02 -0.49042126099E+01  0.45589490140E+03  0.46488634138E+03  0.80419002446E+02 0. -1.
<mgrwt>
<rscale>  0 0.90989842E+02</rscale>
<asrwt>0</asrwt>
<pdfrwt beam="1">  1        2 0.11185940E+00 0.90989853E+02</pdfrwt>
<pdfrwt beam="2">  1       -2 0.18856278E-02 0.90989853E+02</pdfrwt>
<totfact> 0.30503311E+04</totfact>
</mgrwt>
</event>
<event>
 4    1  0.5015492E-001  0.1226258E+03  0.7546771E-02  0.1238827E+00
         -2   -1    0    0    0  501 -0.00000000000E+00  0.00000000000E+00  0.17910916981E+03  0.17910916981E+03  0.00000000000E+00 0.  1.
          2   -1    0    0  501    0  0.00000000000E+00 -0.00000000000E+00 -0.13286482413E+04  0.13286482413E+04  0.00000000000E+00 0. -1.
         24    1    1    2    0    0 -0.30364770602E+02  0.87451943713E+02 -0.13044415087E+04  0.13101926299E+04  0.80419002446E+02 0. -1.
        -24    1    1    2    0    0  0.30364770602E+02 -0.87451943713E+02  0.15490243725E+03  0.19756478121E+03  0.80419002446E+02 0.  1.
<mgrwt>
<rscale>  0 0.12262576E+03</rscale>
<asrwt>0</asrwt>
<pdfrwt beam="1">  1        2 0.20440742E+00 0.12262576E+03</pdfrwt>
<pdfrwt beam="2">  1       -2 0.27555257E-01 0.12262576E+03</pdfrwt>
<totfact> 0.21187147E+02</totfact>
</mgrwt>
</event>
<event>
 4    1  0.5015492E-001  0.1215757E+03  0.7546771E-02  0.1240520E+00
          1   -1    0    0  501    0  0.00000000000E+00  0.00000000000E+00  0.23122301318E+03  0.23122301318E+03  0.00000000000E+00 0. -1.
         -1   -1    0    0    0  501 -0.00000000000E+00 -0.00000000000E+00 -0.87455248425E+02  0.87455248425E+02  0.00000000000E+00 0.  1.
         24    1    1    2    0    0  0.12403593079E+02  0.90330407063E+02 -0.10768253250E+02  0.12205163987E+03  0.80419002446E+02 0.  1.
        -24    1    1    2    0    0 -0.12403593079E+02 -0.90330407063E+02  0.15453601801E+03  0.19662662174E+03  0.80419002446E+02 0. -1.
<mgrwt>
<rscale>  0 0.12157569E+03</rscale>
<asrwt>0</asrwt>
<pdfrwt beam="1">  1        1 0.35572771E-01 0.12157569E+03</pdfrwt>
<pdfrwt beam="2">  1       -1 0.13454654E-01 0.12157569E+03</pdfrwt>
<totfact> 0.44441366E+03</totfact>
</mgrwt>
</event>
<event>
 4    1  0.5015492E-001  0.1185267E+03  0.7546771E-02  0.1245548E+00
          1   -1    0    0  501    0  0.00000000000E+00  0.00000000000E+00  0.22261568212E+03  0.22261568212E+03  0.00000000000E+00 0. -1.
         -1   -1    0    0    0  501 -0.00000000000E+00 -0.00000000000E+00 -0.63954770186E+02  0.63954770186E+02  0.00000000000E+00 0.  1.
         24    1    1    2    0    0 -0.69648943654E+02 -0.52253015004E+02  0.62831789487E+02  0.13415067146E+03  0.80419002446E+02 0.  0.
        -24    1    1    2    0    0  0.69648943654E+02  0.52253015004E+02  0.95829122443E+02  0.15241978084E+03  0.80419002446E+02 0. -1.
<mgrwt>
<rscale>  0 0.11852666E+03</rscale>
<asrwt>0</asrwt>
<pdfrwt beam="1">  1        1 0.34248566E-01 0.11852666E+03</pdfrwt>
<pdfrwt beam="2">  1       -1 0.98391956E-02 0.11852666E+03</pdfrwt>
<totfact> 0.75144912E+03</totfact>
</mgrwt>
</event>
<event>
 4    1  0.5015492E-001  0.1193525E+03  0.7546771E-02  0.1244169E+00
         -2   -1    0    0    0  501 -0.00000000000E+00  0.00000000000E+00  0.17553836264E+02  0.17553836264E+02  0.00000000000E+00 0.  1.
          2   -1    0    0  501    0  0.00000000000E+00 -0.00000000000E+00 -0.81612833719E+03  0.81612833719E+03  0.00000000000E+00 0. -1.
         24    1    1    2    0    0  0.23116390411E+02  0.85108316384E+02 -0.36791003927E+03  0.38678521944E+03  0.80419002446E+02 0.  0.
        -24    1    1    2    0    0 -0.23116390411E+02 -0.85108316384E+02 -0.43066446165E+03  0.44689695401E+03  0.80419002446E+02 0.  0.
<mgrwt>
<rscale>  0 0.11935247E+03</rscale>
<asrwt>0</asrwt>
<pdfrwt beam="1">  1        2 0.12555816E+00 0.11935249E+03</pdfrwt>
<pdfrwt beam="2">  1       -2 0.27005911E-02 0.11935249E+03</pdfrwt>
<totfact> 0.16158450E+04</totfact>
</mgrwt>
</event>
<event>
 4    1  0.5015492E-001  0.8063268E+02  0.7546771E-02  0.1327266E+00
         -1   -1    0    0    0  501 -0.00000000000E+00  0.00000000000E+00  0.17314078910E+02  0.17314078910E+02  0.00000000000E+00 0.  1.
          1   -1    0    0  501    0  0.00000000000E+00 -0.00000000000E+00 -0.37927555083E+03  0.37927555083E+03  0.00000000000E+00 0. -1.
         24    1    1    2    0    0 -0.23700173916E+01  0.53661715451E+01 -0.16122537246E+03  0.18026438766E+03  0.80419002446E+02 0.  0.
        -24    1    1    2    0    0  0.23700173916E+01 -0.53661715451E+01 -0.20073609946E+03  0.21632524208E+03  0.80419002446E+02 0.  0.
<mgrwt>
<rscale>  0 0.80632678E+02</rscale>
<asrwt>0</asrwt>
<pdfrwt beam="1">  1        1 0.58350076E-01 0.80632678E+02</pdfrwt>
<pdfrwt beam="2">  1       -1 0.26637049E-02 0.80632678E+02</pdfrwt>
<totfact> 0.25728737E+04</totfact>
</mgrwt>
</event>
<event>
 4    1  0.5015492E-001  0.8233748E+02  0.7546771E-02  0.1322546E+00
          2   -1    0    0  501    0  0.00000000000E+00  0.00000000000E+00  0.24103905743E+03  0.24103905743E+03  0.00000000000E+00 0. -1.
         -2   -1    0    0    0  501 -0.00000000000E+00 -0.00000000000E+00 -0.28139687068E+02  0.28139687068E+02  0.00000000000E+00 0.  1.
         24    1    1    2    0    0 -0.17449680206E+02  0.27845198814E+01  0.10941963235E+03  0.13693836857E+03  0.80419002446E+02 0. -1.
        -24    1    1    2    0    0  0.17449680206E+02 -0.27845198814E+01  0.10347973801E+03  0.13224037592E+03  0.80419002446E+02 0.  1.
<mgrwt>
<rscale>  0 0.82337481E+02</rscale>
<asrwt>0</asrwt>
<pdfrwt beam="1">  1        2 0.37082931E-01 0.82337481E+02</pdfrwt>
<pdfrwt beam="2">  1       -2 0.43291828E-02 0.82337481E+02</pdfrwt>
<totfact> 0.29591835E+04</totfact>
</mgrwt>
</event>
<event>
 4    1  0.5015492E-001  0.1122725E+03  0.7546771E-02  0.1256419E+00
          1   -1    0    0  501    0  0.00000000000E+00  0.00000000000E+00  0.13059890455E+04  0.13059890455E+04  0.00000000000E+00 0. -1.
         -1   -1    0    0    0  501 -0.00000000000E+00 -0.00000000000E+00 -0.19467130717E+02  0.19467130717E+02  0.00000000000E+00 0.  1.
         24    1    1    2    0    0 -0.76360901857E+02  0.17518877772E+02  0.17267670083E+03  0.20596688417E+03  0.80419002446E+02 0. -1.
        -24    1    1    2    0    0  0.76360901857E+02 -0.17518877772E+02  0.11138452139E+04  0.11194892920E+04  0.80419002446E+02 0.  0.
<mgrwt>
<rscale>  0 0.11227250E+03</rscale>
<asrwt>0</asrwt>
<pdfrwt beam="1">  1        1 0.20092132E+00 0.11227250E+03</pdfrwt>
<pdfrwt beam="2">  1       -1 0.29949442E-02 0.11227250E+03</pdfrwt>
<totfact> 0.35885082E+03</totfact>
</mgrwt>
</event>
<event>
 4    1  0.5015492E-001  0.8198600E+02  0.7546771E-02  0.1323508E+00
          2   -1    0    0  501    0  0.00000000000E+00  0.00000000000E+00  0.11202883549E+04  0.11202883549E+04  0.00000000000E+00 0. -1.
         -2   -1    0    0    0  501 -0.00000000000E+00 -0.00000000000E+00 -0.88118424486E+01  0.88118424486E+01  0.00000000000E+00 0.  1.
         24    1    1    2    0    0  0.10713276636E+02  0.11820063998E+02  0.87464698567E+03  0.87848110606E+03  0.80419002446E+02 0. -1.
        -24    1    1    2    0    0 -0.10713276636E+02 -0.11820063998E+02  0.23682952682E+03  0.25061909132E+03  0.80419002446E+02 0.  0.
<mgrwt>
<rscale>  0 0.81986000E+02</rscale>
<asrwt>0</asrwt>
<pdfrwt beam="1">  1        2 0.17235194E+00 0.81986000E+02</pdfrwt>
<pdfrwt beam="2">  1       -2 0.13556690E-02 0.81986000E+02</pdfrwt>
<totfact> 0.27679500E+04</totfact>
</mgrwt>
</event>
<event>
 4    1  0.5015492E-001  0.8841501E+02  0.7546771E-02  0.1306736E+00
         -2   -1    0    0    0  501 -0.00000000000E+00  0.00000000000E+00  0.55707874489E+02  0.55707874489E+02  0.00000000000E+00 0.  1.
          2   -1    0    0  501    0  0.00000000000E+00 -0.00000000000E+00 -0.14177189822E+03  0.14177189822E+03  0.00000000000E+00 0. -1.
         24    1    1    2    0    0 -0.29362054944E+02 -0.22087709691E+02 -0.53006745298E+02  0.10308699332E+03  0.80419002446E+02 0.  0.
        -24    1    1    2    0    0  0.29362054944E+02  0.22087709691E+02 -0.33057278438E+02  0.94392779396E+02  0.80419002446E+02 0. -1.
<mgrwt>
<rscale>  0 0.88415005E+02</rscale>
<asrwt>0</asrwt>
<pdfrwt beam="1">  1        2 0.21811061E-01 0.88415005E+02</pdfrwt>
<pdfrwt beam="2">  1       -2 0.85704422E-02 0.88415005E+02</pdfrwt>
<totfact> 0.18938518E+04</totfact>
</mgrwt>
</event>
<event>
 4    1  0.5015492E-001  0.1066408E+03  0.7546771E-02  0.1266920E+00
          1   -1    0    0  501    0  0.00000000000E+00  0.00000000000E+00  0.42962989618E+03  0.42962989618E+03  0.00000000000E+00 0. -1.
         -1   -1    0    0    0  501 -0.00000000000E+00 -0.00000000000E+00 -0.34996251554E+02  0.34996251554E+02  0.00000000000E+00 0.  1.
         24    1    1    2    0    0  0.51770398559E+02 -0.47168511952E+02  0.82648196570E+02  0.13491843105E+03  0.80419002446E+02 0.  1.
        -24    1    1    2    0    0 -0.51770398559E+02  0.47168511952E+02  0.31198544806E+03  0.32970771669E+03  0.80419002446E+02 0. -1.
<mgrwt>
<rscale>  0 0.10664079E+03</rscale>
<asrwt>0</asrwt>
<pdfrwt beam="1">  1        1 0.66096903E-01 0.10664079E+03</pdfrwt>
<pdfrwt beam="2">  1       -1 0.53840390E-02 0.10664079E+03</pdfrwt>
<totfact> 0.81457187E+03</totfact>
</mgrwt>
</event>
<event>
 4    1  0.5015492E-001  0.8207689E+02  0.7546771E-02  0.1323259E+00
          2   -1    0    0  501    0  0.00000000000E+00  0.00000000000E+00  0.10609735228E+04  0.10609735228E+04  0.00000000000E+00 0. -1.
         -2   -1    0    0    0  501 -0.00000000000E+00 -0.00000000000E+00 -0.19762171583E+02  0.19762171583E+02  0.00000000000E+00 0.  1.
         24    1    1    2    0    0  0.20148091754E+01  0.16289294231E+02  0.96578024210E+03  0.96926162235E+03  0.80419002446E+02 0.  0.
        -24    1    1    2    0    0 -0.20148091754E+01 -0.16289294231E+02  0.75431109149E+02  0.11147407207E+03  0.80419002446E+02 0.  1.
<mgrwt>
<rscale>  0 0.82076894E+02</rscale>
<asrwt>0</asrwt>
<pdfrwt beam="1">  1        2 0.16322665E+00 0.82076894E+02</pdfrwt>
<pdfrwt beam="2">  1       -2 0.30403349E-02 0.82076894E+02</pdfrwt>
<totfact> 0.93897068E+03</totfact>
</mgrwt>
</event>
<event>
 4    1  0.5015492E-001  0.8153313E+02  0.7546771E-02  0.1324756E+00
          2   -1    0    0  501    0  0.00000000000E+00  0.00000000000E+00  0.87713335261E+02  0.87713335261E+02  0.00000000000E+00 0. -1.
         -2   -1    0    0    0  501 -0.00000000000E+00 -0.00000000000E+00 -0.77539190576E+02  0.77539190576E+02  0.00000000000E+00 0.  1.
         24    1    1    2    0    0 -0.13365414521E+02  0.13420652356E+01  0.17502947049E+02  0.83390674264E+02  0.80419002446E+02 0.  0.
        -24    1    1    2    0    0  0.13365414521E+02 -0.13420652356E+01 -0.73288023638E+01  0.81861851573E+02  0.80419002446E+02 0. -1.
<mgrwt>
<rscale>  0 0.81533131E+02</rscale>
<asrwt>0</asrwt>
<pdfrwt beam="1">  1        2 0.13494359E-01 0.81533131E+02</pdfrwt>
<pdfrwt beam="2">  1       -2 0.11929106E-01 0.81533131E+02</pdfrwt>
<totfact> 0.19360074E+04</totfact>
</mgrwt>
</event>
<event>
 4    1  0.5015492E-001  0.8326324E+02  0.7546771E-02  0.1320038E+00
         -1   -1    0    0    0  501 -0.00000000000E+00  0.00000000000E+00  0.12293979692E+02  0.12293979692E+02  0.00000000000E+00 0.  1.
          1   -1    0    0  501    0  0.00000000000E+00 -0.00000000000E+00 -0.56414338241E+03  0.56414338241E+03  0.00000000000E+00 0. -1.
         24    1    1    2    0    0  0.20271482039E+02  0.73902128202E+01 -0.28171899682E+03  0.29376582060E+03  0.80419002446E+02 0. -1.
        -24    1    1    2    0    0 -0.20271482039E+02 -0.73902128202E+01 -0.27013040589E+03  0.28267154150E+03  0.80419002446E+02 0.  0.
<mgrwt>
<rscale>  0 0.83263233E+02</rscale>
<asrwt>0</asrwt>
<pdfrwt beam="1">  1        1 0.86791307E-01 0.83263243E+02</pdfrwt>
<pdfrwt beam="2">  1       -1 0.18913811E-02 0.83263243E+02</pdfrwt>
<totfact> 0.25461362E+04</totfact>
</mgrwt>
</event>
<event>
 4    1  0.5015492E-001  0.1388068E+03  0.7546771E-02  0.1214944E+00
         -4   -1    0    0    0  501 -0.00000000000E+00  0.00000000000E+00  0.12661728847E+02  0.12661728847E+02  0.00000000000E+00 0.  1.
          4   -1    0    0  501    0  0.00000000000E+00 -0.00000000000E+00 -0.15218281353E+04  0.15218281353E+04  0.00000000000E+00 0. -1.
         24    1    1    2    0    0 -0.24581658598E+01 -0.11311091915E+03 -0.76165420203E+03  0.77419923924E+03  0.80419002446E+02 0.  1.
        -24    1    1    2    0    0  0.24581658598E+01  0.11311091915E+03 -0.74751220439E+03  0.76029062487E+03  0.80419002446E+02 0. -1.
<mgrwt>
<rscale>  0 0.13880684E+03</rscale>
<asrwt>0</asrwt>
<pdfrwt beam="1">  1        4 0.23412722E+00 0.13880684E+03</pdfrwt>
<pdfrwt beam="2">  1       -4 0.19479598E-02 0.13880684E+03</pdfrwt>
<totfact> 0.16199309E+02</totfact>
</mgrwt>
</event>
<event>
 4    1  0.5015492E-001  0.1153140E+03  0.7546771E-02  0.1251034E+00
          1   -1    0    0  501    0  0.00000000000E+00  0.00000000000E+00  0.24337911200E+03  0.24337911200E+03  0.00000000000E+00 0. -1.
         -1   -1    0    0    0  501 -0.00000000000E+00 -0.00000000000E+00 -0.55858332703E+02  0.55858332703E+02  0.00000000000E+00 0.  1.
         24    1    1    2    0    0 -0.35072955210E+02 -0.74833089237E+02  0.11589103967E+03  0.16348716299E+03  0.80419002446E+02 0.  0.
        -24    1    1    2    0    0  0.35072955210E+02  0.74833089237E+02  0.71629739624E+02  0.13575028171E+03  0.80419002446E+02 0.  0.
<mgrwt>
<rscale>  0 0.11531402E+03</rscale>
<asrwt>0</asrwt>
<pdfrwt beam="1">  1        1 0.37442940E-01 0.11531403E+03</pdfrwt>
<pdfrwt beam="2">  1       -1 0.85935898E-02 0.11531403E+03</pdfrwt>
<totfact> 0.82462988E+03</totfact>
</mgrwt>
</event>
<event>
 4    1  0.5015492E-001  0.8516112E+02  0.7546771E-02  0.1315012E+00
          2   -1    0    0  501    0  0.00000000000E+00  0.00000000000E+00  0.75855442415E+03  0.75855442415E+03  0.00000000000E+00 0. -1.
         -2   -1    0    0    0  501 -0.00000000000E+00 -0.00000000000E+00 -0.99848356203E+01  0.99848356203E+01  0.00000000000E+00 0.  1.
         24    1    1    2    0    0 -0.15190395253E+02 -0.23546803737E+02  0.45347058683E+03  0.46139786427E+03  0.80419002446E+02 0.  0.
        -24    1    1    2    0    0  0.15190395253E+02  0.23546803737E+02  0.29509900169E+03  0.30714139550E+03  0.80419002446E+02 0.  0.
<mgrwt>
<rscale>  0 0.85161118E+02</rscale>
<asrwt>0</asrwt>
<pdfrwt beam="1">  1        2 0.11670063E+00 0.85161118E+02</pdfrwt>
<pdfrwt beam="2">  1       -2 0.15361292E-02 0.85161118E+02</pdfrwt>
<totfact> 0.38601601E+04</totfact>
</mgrwt>
</event>
<event>
 4    1  0.5015492E-001  0.8372266E+02  0.7546771E-02  0.1318807E+00
          2   -1    0    0  501    0  0.00000000000E+00  0.00000000000E+00  0.19797496207E+04  0.19797496207E+04  0.00000000000E+00 0. -1.
         -2   -1    0    0    0  501 -0.00000000000E+00 -0.00000000000E+00 -0.74693072269E+01  0.74693072269E+01  0.00000000000E+00 0.  1.
         24    1    1    2    0    0 -0.20902693695E+02  0.10263809352E+02  0.17067511281E+04  0.17088033525E+04  0.80419002446E+02 0. -1.
        -24    1    1    2    0    0  0.20902693695E+02 -0.10263809352E+02  0.26552918540E+03  0.27841557543E+03  0.80419002446E+02 0.  1.
<mgrwt>
<rscale>  0 0.83722663E+02</rscale>
<asrwt>0</asrwt>
<pdfrwt beam="1">  1        2 0.30457645E+00 0.83722663E+02</pdfrwt>
<pdfrwt beam="2">  1       -2 0.11491258E-02 0.83722663E+02</pdfrwt>
<totfact> 0.12700743E+04</totfact>
</mgrwt>
</event>
<event>
 4    1  0.5015492E-001  0.8054039E+02  0.7546771E-02  0.1327525E+00
         -1   -1    0    0    0  501 -0.00000000000E+00  0.00000000000E+00  0.52737018337E+02  0.52737018337E+02  0.00000000000E+00 0.  1.
          1   -1    0    0  501    0  0.00000000000E+00 -0.00000000000E+00 -0.18602805159E+03  0.18602805159E+03  0.00000000000E+00 0. -1.
         24    1    1    2    0    0  0.40863986346E+01 -0.16852645782E+01  0.28428158025E+01  0.80590547377E+02  0.80419002446E+02 0.  0.
        -24    1    1    2    0    0 -0.40863986346E+01  0.16852645782E+01 -0.13613384905E+03  0.15817452255E+03  0.80419002446E+02 0. -1.
<mgrwt>
<rscale>  0 0.80540392E+02</rscale>
<asrwt>0</asrwt>
<pdfrwt beam="1">  1        1 0.28619700E-01 0.80540392E+02</pdfrwt>
<pdfrwt beam="2">  1       -1 0.81133875E-02 0.80540392E+02</pdfrwt>
<totfact> 0.12110734E+04</totfact>
</mgrwt>
</event>
<event>
 4    1  0.5015492E-001  0.8298236E+02  0.7546771E-02  0.1320795E+00
         -1   -1    0    0    0  501 -0.00000000000E+00  0.00000000000E+00  0.57859985037E+01  0.57859985037E+01  0.00000000000E+00 0.  1.
          1   -1    0    0  501    0  0.00000000000E+00 -0.00000000000E+00 -0.16343692306E+04  0.16343692306E+04  0.00000000000E+00 0. -1.
         24    1    1    2    0    0 -0.75973687776E+01 -0.19003598145E+02 -0.38673875483E+03  0.39554132173E+03  0.80419002446E+02 0.  0.
        -24    1    1    2    0    0  0.75973687776E+01  0.19003598145E+02 -0.12418444773E+04  0.12446139074E+04  0.80419002446E+02 0.  0.
<mgrwt>
<rscale>  0 0.82982364E+02</rscale>
<asrwt>0</asrwt>
<pdfrwt beam="1">  1        1 0.25144158E+00 0.82982364E+02</pdfrwt>
<pdfrwt beam="2">  1       -1 0.89015306E-03 0.82982364E+02</pdfrwt>
<totfact> 0.12257954E+04</totfact>
</mgrwt>
</event>
<event>
 4    1  0.5015492E-001  0.8839949E+02  0.7546771E-02  0.1306774E+00
         -2   -1    0    0    0  501 -0.00000000000E+00  0.00000000000E+00  0.13751424921E+03  0.13751424921E+03  0.00000000000E+00 0.  1.
          2   -1    0    0  501    0  0.00000000000E+00 -0.00000000000E+00 -0.61416966937E+02  0.61416966937E+02  0.00000000000E+00 0. -1.
         24    1    1    2    0    0  0.34382313416E+02 -0.12849533515E+02  0.10855991349E+02  0.89063586779E+02  0.80419002446E+02 0.  1.
        -24    1    1    2    0    0 -0.34382313416E+02  0.12849533515E+02  0.65241290929E+02  0.10986762937E+03  0.80419002446E+02 0.  1.
<mgrwt>
<rscale>  0 0.88399491E+02</rscale>
<asrwt>0</asrwt>
<pdfrwt beam="1">  1        2 0.94487642E-02 0.88399491E+02</pdfrwt>
<pdfrwt beam="2">  1       -2 0.21156038E-01 0.88399491E+02</pdfrwt>
<totfact> 0.11761950E+04</totfact>
</mgrwt>
</event>
<event>
 4    1  0.5015492E-001  0.1057802E+03  0.7546771E-02  0.1268590E+00
         -2   -1    0    0    0  501 -0.00000000000E+00  0.00000000000E+00  0.23261953378E+02  0.23261953378E+02  0.00000000000E+00 0.  1.
          2   -1    0    0  501    0  0.00000000000E+00 -0.00000000000E+00 -0.81758808221E+03  0.81758808221E+03  0.00000000000E+00 0. -1.
         24    1    1    2    0    0  0.64300823054E+02 -0.24241267622E+02 -0.66691099792E+03  0.67524790263E+03  0.80419002446E+02 0. -1.
        -24    1    1    2    0    0 -0.64300823054E+02  0.24241267622E+02 -0.12741513091E+03  0.16560213296E+03  0.80419002446E+02 0.  1.
<mgrwt>
<rscale>  0 0.10578020E+03</rscale>
<asrwt>0</asrwt>
<pdfrwt beam="1">  1        2 0.12578278E+00 0.10578020E+03</pdfrwt>
<pdfrwt beam="2">  1       -2 0.35787622E-02 0.10578020E+03</pdfrwt>
<totfact> 0.10582978E+04</totfact>
</mgrwt>
</event>
<event>
 4    1  0.5015492E-001  0.1134171E+03  0.7546771E-02  0.1254370E+00
          1   -1    0    0  501    0  0.00000000000E+00  0.00000000000E+00  0.12236644299E+04  0.12236644299E+04  0.00000000000E+00 0. -1.
         -1   -1    0    0    0  501 -0.00000000000E+00 -0.00000000000E+00 -0.10789407083E+02  0.10789407083E+02  0.00000000000E+00 0.  1.
         24    1    1    2    0    0 -0.17648934233E+01  0.79956848488E+02  0.50750628886E+03  0.52002505868E+03  0.80419002446E+02 0.  1.
        -24    1    1    2    0    0  0.17648934233E+01 -0.79956848488E+02  0.70536873393E+03  0.71442877828E+03  0.80419002446E+02 0. -1.
<mgrwt>
<rscale>  0 0.11341706E+03</rscale>
<asrwt>0</asrwt>
<pdfrwt beam="1">  1        1 0.18825596E+00 0.11341706E+03</pdfrwt>
<pdfrwt beam="2">  1       -1 0.16599098E-02 0.11341706E+03</pdfrwt>
<totfact> 0.95272540E+03</totfact>
</mgrwt>
</event>
<event>
 4    1  0.5015492E-001  0.8732263E+02  0.7546771E-02  0.1309468E+00
         -2   -1    0    0    0  501 -0.00000000000E+00  0.00000000000E+00  0.75046263058E+01  0.75046263058E+01  0.00000000000E+00 0.  1.
          2   -1    0    0  501    0  0.00000000000E+00 -0.00000000000E+00 -0.24165617788E+04  0.24165617788E+04  0.00000000000E+00 0. -1.
         24    1    1    2    0    0 -0.32005543071E+02 -0.11561602022E+02 -0.21272179580E+04  0.21290095073E+04  0.80419002446E+02 0. -1.
        -24    1    1    2    0    0  0.32005543071E+02  0.11561602022E+02 -0.28183919449E+03  0.29505689779E+03  0.80419002446E+02 0.  1.
<mgrwt>
<rscale>  0 0.87322628E+02</rscale>
<asrwt>0</asrwt>
<pdfrwt beam="1">  1        2 0.37177844E+00 0.87322628E+02</pdfrwt>
<pdfrwt beam="2">  1       -2 0.11545588E-02 0.87322628E+02</pdfrwt>
<totfact> 0.75807920E+03</totfact>
</mgrwt>
</event>
<event>
 4    1  0.5015492E-001  0.8794639E+02  0.7546771E-02  0.1307902E+00
          2   -1    0    0  501    0  0.00000000000E+00  0.00000000000E+00  0.13512815404E+03  0.13512815404E+03  0.00000000000E+00 0. -1.
         -2   -1    0    0    0  501 -0.00000000000E+00 -0.00000000000E+00 -0.12757439068E+03  0.12757439068E+03  0.00000000000E+00 0.  1.
         24    1    1    2    0    0 -0.32231457081E+02 -0.15115688965E+02  0.10130733702E+03  0.13415566841E+03  0.80419002446E+02 0. -1.
        -24    1    1    2    0    0  0.32231457081E+02  0.15115688965E+02 -0.93753573661E+02  0.12854687630E+03  0.80419002446E+02 0.  1.
<mgrwt>
<rscale>  0 0.87946386E+02</rscale>
<asrwt>0</asrwt>
<pdfrwt beam="1">  1        2 0.20788947E-01 0.87946386E+02</pdfrwt>
<pdfrwt beam="2">  1       -2 0.19626829E-01 0.87946386E+02</pdfrwt>
<totfact> 0.53229884E+03</totfact>
</mgrwt>
</event>
<event>
 4    1  0.5015492E-001  0.9017745E+02  0.7546771E-02  0.1302423E+00
          2   -1    0    0  501    0  0.00000000000E+00  0.00000000000E+00  0.31480670864E+04  0.31480670864E+04  0.00000000000E+00 0. -1.
         -2   -1    0    0    0  501 -0.00000000000E+00 -0.00000000000E+00 -0.34943851471E+01  0.34943851471E+01  0.00000000000E+00 0.  1.
         24    1    1    2    0    0 -0.38468898584E+02  0.13597834040E+02  0.23769647142E+04  0.23786746784E+04  0.80419002446E+02 0.  0.
        -24    1    1    2    0    0  0.38468898584E+02 -0.13597834040E+02  0.76760798704E+03  0.77288679312E+03  0.80419002446E+02 0.  0.
<mgrwt>
<rscale>  0 0.90177454E+02</rscale>
<asrwt>0</asrwt>
<pdfrwt beam="1">  1        2 0.48431575E+00 0.90177454E+02</pdfrwt>
<pdfrwt beam="2">  1       -2 0.53760023E-03 0.90177454E+02</pdfrwt>
<totfact> 0.88388374E+03</totfact>
</mgrwt>
</event>
<event>
 4    1  0.5015492E-001  0.8056669E+02  0.7546771E-02  0.1327451E+00
          2   -1    0    0  501    0  0.00000000000E+00  0.00000000000E+00  0.10394315768E+03  0.10394315768E+03  0.00000000000E+00 0. -1.
         -2   -1    0    0    0  501 -0.00000000000E+00 -0.00000000000E+00 -0.95796353953E+02  0.95796353953E+02  0.00000000000E+00 0.  1.
         24    1    1    2    0    0  0.29009589540E+01 -0.39192331388E+01  0.62998437905E+02  0.10227313960E+03  0.80419002446E+02 0. -1.
        -24    1    1    2    0    0 -0.29009589540E+01  0.39192331388E+01 -0.54851634175E+02  0.97466372033E+02  0.80419002446E+02 0.  1.
<mgrwt>
<rscale>  0 0.80566692E+02</rscale>
<asrwt>0</asrwt>
<pdfrwt beam="1">  1        2 0.15991255E-01 0.80566692E+02</pdfrwt>
<pdfrwt beam="2">  1       -2 0.14737901E-01 0.80566692E+02</pdfrwt>
<totfact> 0.11350259E+04</totfact>
</mgrwt>
</event>
<event>
 4    1  0.5015492E-001  0.9400303E+02  0.7546771E-02  0.1293437E+00
         -1   -1    0    0    0  501 -0.00000000000E+00  0.00000000000E+00  0.27386215304E+02  0.27386215304E+02  0.00000000000E+00 0.  1.
          1   -1    0    0  501    0  0.00000000000E+00 -0.00000000000E+00 -0.36951158988E+03  0.36951158988E+03  0.00000000000E+00 0. -1.
         24    1    1    2    0    0  0.48662484193E+02 -0.11475949771E+01 -0.10040260394E+03  0.13754000572E+03  0.80419002446E+02 0.  1.
        -24    1    1    2    0    0 -0.48662484193E+02  0.11475949771E+01 -0.24172277064E+03  0.25935779947E+03  0.80419002446E+02 0. -1.
<mgrwt>
<rscale>  0 0.94003033E+02</rscale>
<asrwt>0</asrwt>
<pdfrwt beam="1">  1        1 0.56847934E-01 0.94003033E+02</pdfrwt>
<pdfrwt beam="2">  1       -1 0.42132641E-02 0.94003033E+02</pdfrwt>
<totfact> 0.13931939E+04</totfact>
</mgrwt>
</event>
<event>
 4    1  0.5015492E-001  0.8163860E+02  0.7546771E-02  0.1324465E+00
          2   -1    0    0  501    0  0.00000000000E+00  0.00000000000E+00  0.71987985391E+03  0.71987985391E+03  0.00000000000E+00 0. -1.
         -2   -1    0    0    0  501 -0.00000000000E+00 -0.00000000000E+00 -0.97140544920E+01  0.97140544920E+01  0.00000000000E+00 0.  1.
         24    1    1    2    0    0  0.42339032355E+01  0.13405911585E+02  0.43409954650E+03  0.44170949348E+03  0.80419002446E+02 0.  0.
        -24    1    1    2    0    0 -0.42339032355E+01 -0.13405911585E+02  0.27606625292E+03  0.28788441493E+03  0.80419002446E+02 0.  1.
<mgrwt>
<rscale>  0 0.81638596E+02</rscale>
<asrwt>0</asrwt>
<pdfrwt beam="1">  1        2 0.11075071E+00 0.81638596E+02</pdfrwt>
<pdfrwt beam="2">  1       -2 0.14944705E-02 0.81638596E+02</pdfrwt>
<totfact> 0.42496988E+04</totfact>
</mgrwt>
</event>
<event>
 4    1  0.5015492E-001  0.8238135E+02  0.7546771E-02  0.1322426E+00
          2   -1    0    0  501    0  0.00000000000E+00  0.00000000000E+00  0.34832186632E+04  0.34832186632E+04  0.00000000000E+00 0. -1.
         -2   -1    0    0    0  501 -0.00000000000E+00 -0.00000000000E+00 -0.20717111951E+01  0.20717111951E+01  0.00000000000E+00 0.  1.
         24    1    1    2    0    0 -0.54975468113E+01  0.17007207285E+02  0.13154106269E+04  0.13179877850E+04  0.80419002446E+02 0.  1.
        -24    1    1    2    0    0  0.54975468113E+01 -0.17007207285E+02  0.21657363251E+04  0.21673025893E+04  0.80419002446E+02 0. -1.
<mgrwt>
<rscale>  0 0.82381344E+02</rscale>
<asrwt>0</asrwt>
<pdfrwt beam="1">  1        2 0.53587511E+00 0.82381354E+02</pdfrwt>
<pdfrwt beam="2">  1       -2 0.31872759E-03 0.82381354E+02</pdfrwt>
<totfact> 0.11449752E+04</totfact>
</mgrwt>
</event>
<event>
 4    1  0.5015492E-001  0.1160095E+03  0.7546771E-02  0.1249829E+00
          1   -1    0    0  501    0  0.00000000000E+00  0.00000000000E+00  0.12276097029E+03  0.12276097029E+03  0.00000000000E+00 0. -1.
         -1   -1    0    0    0  501 -0.00000000000E+00 -0.00000000000E+00 -0.12679506893E+03  0.12679506893E+03  0.00000000000E+00 0.  1.
         24    1    1    2    0    0  0.74124068043E+02 -0.38686055405E+02 -0.47928182906E+02  0.12552017773E+03  0.80419002446E+02 0.  0.
        -24    1    1    2    0    0 -0.74124068043E+02  0.38686055405E+02  0.43894084264E+02  0.12403586148E+03  0.80419002446E+02 0. -1.
<mgrwt>
<rscale>  0 0.11600950E+03</rscale>
<asrwt>0</asrwt>
<pdfrwt beam="1">  1        1 0.18886303E-01 0.11600950E+03</pdfrwt>
<pdfrwt beam="2">  1       -1 0.19506934E-01 0.11600950E+03</pdfrwt>
<totfact> 0.54493568E+03</totfact>
</mgrwt>
</event>
<event>
 4    1  0.5015492E-001  0.9016020E+02  0.7546771E-02  0.1302464E+00
          2   -1    0    0  501    0  0.00000000000E+00  0.00000000000E+00  0.92049483235E+03  0.92049483235E+03  0.00000000000E+00 0. -1.
         -2   -1    0    0    0  501 -0.00000000000E+00 -0.00000000000E+00 -0.19617162937E+03  0.19617162937E+03  0.00000000000E+00 0.  1.
         24    1    1    2    0    0 -0.11187976995E+02  0.39197901866E+02  0.90778300637E+03  0.91224933486E+03  0.80419002446E+02 0. -1.
        -24    1    1    2    0    0  0.11187976995E+02 -0.39197901866E+02 -0.18345980339E+03  0.20441712686E+03  0.80419002446E+02 0.  1.
<mgrwt>
<rscale>  0 0.90160203E+02</rscale>
<asrwt>0</asrwt>
<pdfrwt beam="1">  1        2 0.14161459E+00 0.90160203E+02</pdfrwt>
<pdfrwt beam="2">  1       -2 0.30180251E-01 0.90160203E+02</pdfrwt>
<totfact> 0.30972473E+02</totfact>
</mgrwt>
</event>
<event>
 4    1  0.5015492E-001  0.8614188E+02  0.7546771E-02  0.1312473E+00
         -4   -1    0    0    0  501 -0.00000000000E+00  0.00000000000E+00  0.43515976177E+01  0.43515976177E+01  0.00000000000E+00 0.  1.
          4   -1    0    0  501    0  0.00000000000E+00 -0.00000000000E+00 -0.20853485222E+04  0.20853485222E+04  0.00000000000E+00 0. -1.
         24    1    1    2    0    0  0.64031688161E+01 -0.30202772429E+02 -0.14865970361E+04  0.14890907198E+04  0.80419002446E+02 0. -1.
        -24    1    1    2    0    0 -0.64031688161E+01  0.30202772429E+02 -0.59439988842E+03  0.60060939998E+03  0.80419002446E+02 0.  1.
<mgrwt>
<rscale>  0 0.86141883E+02</rscale>
<asrwt>0</asrwt>
<pdfrwt beam="1">  1        4 0.32082305E+00 0.86141883E+02</pdfrwt>
<pdfrwt beam="2">  1       -4 0.66947614E-03 0.86141883E+02</pdfrwt>
<totfact> 0.24012181E+02</totfact>
</mgrwt>
</event>
<event>
 4    1  0.5015492E-001  0.8550757E+02  0.7546771E-02  0.1314111E+00
         -1   -1    0    0    0  501 -0.00000000000E+00  0.00000000000E+00  0.60472677070E+02  0.60472677070E+02  0.00000000000E+00 0.  1.
          1   -1    0    0  501    0  0.00000000000E+00 -0.00000000000E+00 -0.12359091835E+03  0.12359091835E+03  0.00000000000E+00 0. -1.
         24    1    1    2    0    0 -0.26922546040E+02 -0.10931687188E+02 -0.45122494294E+02  0.96682887399E+02  0.80419002446E+02 0.  0.
        -24    1    1    2    0    0  0.26922546040E+02  0.10931687188E+02 -0.17995746985E+02  0.87380708020E+02  0.80419002446E+02 0.  0.
<mgrwt>
<rscale>  0 0.85507561E+02</rscale>
<asrwt>0</asrwt>
<pdfrwt beam="1">  1        1 0.19013987E-01 0.85507572E+02</pdfrwt>
<pdfrwt beam="2">  1       -1 0.93034888E-02 0.85507572E+02</pdfrwt>
<totfact> 0.16496332E+04</totfact>
</mgrwt>
</event>
<event>
 4    1  0.5015492E-001  0.8407060E+02  0.7546771E-02  0.1317881E+00
         -2   -1    0    0    0  501 -0.00000000000E+00  0.00000000000E+00  0.55875690033E+02  0.55875690033E+02  0.00000000000E+00 0.  1.
          2   -1    0    0  501    0  0.00000000000E+00 -0.00000000000E+00 -0.28564622044E+04  0.28564622044E+04  0.00000000000E+00 0. -1.
         24    1    1    2    0    0  0.23671697562E+02 -0.63483383172E+01 -0.28238553756E+04  0.28251065553E+04  0.80419002446E+02 0. -1.
        -24    1    1    2    0    0 -0.23671697562E+02  0.63483383172E+01  0.23268861236E+02  0.87231339107E+02  0.80419002446E+02 0.  1.
<mgrwt>
<rscale>  0 0.84070605E+02</rscale>
<asrwt>0</asrwt>
<pdfrwt beam="1">  1        2 0.43945582E+00 0.84070605E+02</pdfrwt>
<pdfrwt beam="2">  1       -2 0.85962581E-02 0.84070605E+02</pdfrwt>
<totfact> 0.23512959E+02</totfact>
</mgrwt>
</event>
<event>
 4    1  0.5015492E-001  0.1038661E+03  0.7546771E-02  0.1272370E+00
          1   -1    0    0  501    0  0.00000000000E+00  0.00000000000E+00  0.11998072646E+03  0.11998072646E+03  0.00000000000E+00 0. -1.
         -1   -1    0    0    0  501 -0.00000000000E+00 -0.00000000000E+00 -0.11977855754E+03  0.11977855754E+03  0.00000000000E+00 0.  1.
         24    1    1    2    0    0  0.13494670599E+02 -0.64333847104E+02 -0.59756704709E+02  0.11982916894E+03  0.80419002446E+02 0.  1.
        -24    1    1    2    0    0 -0.13494670599E+02  0.64333847104E+02  0.59958873630E+02  0.11993011506E+03  0.80419002446E+02 0. -1.
<mgrwt>
<rscale>  0 0.10386610E+03</rscale>
<asrwt>0</asrwt>
<pdfrwt beam="1">  1        1 0.18458573E-01 0.10386610E+03</pdfrwt>
<pdfrwt beam="2">  1       -1 0.18427470E-01 0.10386610E+03</pdfrwt>
<totfact> 0.60923218E+03</totfact>
</mgrwt>
</event>
<event>
 4    1  0.5015492E-001  0.1072350E+03  0.7546771E-02  0.1265778E+00
         -3   -1    0    0    0  501 -0.00000000000E+00  0.00000000000E+00  0.19945084506E+03  0.19945084506E+03  0.00000000000E+00 0.  1.
          3   -1    0    0  501    0  0.00000000000E+00 -0.00000000000E+00 -0.26879719400E+03  0.26879719400E+03  0.00000000000E+00 0. -1.
         24    1    1    2    0    0  0.70378496017E+02  0.88885625947E+01  0.17282822734E+03  0.20339358733E+03  0.80419002446E+02 0.  1.
        -24    1    1    2    0    0 -0.70378496017E+02 -0.88885625947E+01 -0.24217457629E+03  0.26485445173E+03  0.80419002446E+02 0. -1.
<mgrwt>
<rscale>  0 0.10723505E+03</rscale>
<asrwt>0</asrwt>
<pdfrwt beam="1">  1        3 0.41353414E-01 0.10723505E+03</pdfrwt>
<pdfrwt beam="2">  1       -3 0.30684745E-01 0.10723505E+03</pdfrwt>
<totfact> 0.13658376E+02</totfact>
</mgrwt>
</event>
<event>
 4    1  0.5015492E-001  0.8405215E+02  0.7546771E-02  0.1317930E+00
         -1   -1    0    0    0  501 -0.00000000000E+00  0.00000000000E+00  0.31251705084E+03  0.31251705084E+03  0.00000000000E+00 0.  1.
          1   -1    0    0  501    0  0.00000000000E+00 -0.00000000000E+00 -0.23689931162E+02  0.23689931162E+02  0.00000000000E+00 0. -1.
         24    1    1    2    0    0  0.23684954414E+02 -0.60470940339E+01  0.10845554240E+03  0.13721284577E+03  0.80419002446E+02 0.  0.
        -24    1    1    2    0    0 -0.23684954414E+02  0.60470940339E+01  0.18037157727E+03  0.19899413623E+03  0.80419002446E+02 0.  0.
<mgrwt>
<rscale>  0 0.84052139E+02</rscale>
<asrwt>0</asrwt>
<pdfrwt beam="1">  1        1 0.36446050E-02 0.84052150E+02</pdfrwt>
<pdfrwt beam="2">  1       -1 0.48079543E-01 0.84052150E+02</pdfrwt>
<totfact> 0.10271279E+04</totfact>
</mgrwt>
</event>
<event>
 4    1  0.5015492E-001  0.1362622E+03  0.7546771E-02  0.1218449E+00
         -2   -1    0    0    0  501 -0.00000000000E+00  0.00000000000E+00  0.13422516847E+02  0.13422516847E+02  0.00000000000E+00 0.  1.
          2   -1    0    0  501    0  0.00000000000E+00 -0.00000000000E+00 -0.17183776823E+04  0.17183776823E+04  0.00000000000E+00 0. -1.
         24    1    1    2    0    0  0.72270547514E+02 -0.82928585208E+02 -0.12348440054E+04  0.12423393723E+04  0.80419002446E+02 0.  1.
        -24    1    1    2    0    0 -0.72270547514E+02  0.82928585208E+02 -0.47011116011E+03  0.48946082693E+03  0.80419002446E+02 0. -1.
<mgrwt>
<rscale>  0 0.13626224E+03</rscale>
<asrwt>0</asrwt>
<pdfrwt beam="1">  1        2 0.26436587E+00 0.13626224E+03</pdfrwt>
<pdfrwt beam="2">  1       -2 0.20650020E-02 0.13626224E+03</pdfrwt>
<totfact> 0.75733025E+03</totfact>
</mgrwt>
</event>
<event>
 4    1  0.5015492E-001  0.8357565E+02  0.7546771E-02  0.1319200E+00
          2   -1    0    0  501    0  0.00000000000E+00  0.00000000000E+00  0.21793890415E+04  0.21793890415E+04  0.00000000000E+00 0. -1.
         -2   -1    0    0    0  501 -0.00000000000E+00 -0.00000000000E+00 -0.11508461262E+02  0.11508461262E+02  0.00000000000E+00 0.  1.
         24    1    1    2    0    0  0.22714082461E+02  0.13202628692E+01  0.20144344592E+04  0.20161674233E+04  0.80419002446E+02 0. -1.
        -24    1    1    2    0    0 -0.22714082461E+02 -0.13202628692E+01  0.15344612110E+03  0.17473007947E+03  0.80419002446E+02 0.  1.
<mgrwt>
<rscale>  0 0.83575646E+02</rscale>
<asrwt>0</asrwt>
<pdfrwt beam="1">  1        2 0.33529029E+00 0.83575646E+02</pdfrwt>
<pdfrwt beam="2">  1       -2 0.17705342E-02 0.83575646E+02</pdfrwt>
<totfact> 0.54513459E+03</totfact>
</mgrwt>
</event>
<event>
 4    1  0.5015492E-001  0.1051461E+03  0.7546771E-02  0.1269832E+00
         -2   -1    0    0    0  501 -0.00000000000E+00  0.00000000000E+00  0.27151659979E+02  0.27151659979E+02  0.00000000000E+00 0.  1.
          2   -1    0    0  501    0  0.00000000000E+00 -0.00000000000E+00 -0.41039727768E+03  0.41039727768E+03  0.00000000000E+00 0. -1.
         24    1    1    2    0    0 -0.66154752195E+02  0.14560953699E+02 -0.17226079485E+03  0.20181543550E+03  0.80419002446E+02 0.  0.
        -24    1    1    2    0    0  0.66154752195E+02 -0.14560953699E+02 -0.21098482286E+03  0.23573350216E+03  0.80419002446E+02 0.  1.
<mgrwt>
<rscale>  0 0.10514605E+03</rscale>
<asrwt>0</asrwt>
<pdfrwt beam="1">  1        2 0.63138038E-01 0.10514606E+03</pdfrwt>
<pdfrwt beam="2">  1       -2 0.41771788E-02 0.10514606E+03</pdfrwt>
<totfact> 0.18330315E+04</totfact>
</mgrwt>
</event>
<event>
 4    1  0.5015492E-001  0.1043097E+03  0.7546771E-02  0.1271486E+00
          1   -1    0    0  501    0  0.00000000000E+00  0.00000000000E+00  0.25495492967E+03  0.25495492967E+03  0.00000000000E+00 0. -1.
         -1   -1    0    0    0  501 -0.00000000000E+00 -0.00000000000E+00 -0.45964439216E+02  0.45964439216E+02  0.00000000000E+00 0.  1.
         24    1    1    2    0    0  0.89709354368E+01  0.65824102048E+02  0.64252160764E+02  0.12251059632E+03  0.80419002446E+02 0.  1.
        -24    1    1    2    0    0 -0.89709354368E+01 -0.65824102048E+02  0.14473832969E+03  0.17840877257E+03  0.80419002446E+02 0. -1.
<mgrwt>
<rscale>  0 0.10430966E+03</rscale>
<asrwt>0</asrwt>
<pdfrwt beam="1">  1        1 0.39223834E-01 0.10430966E+03</pdfrwt>
<pdfrwt beam="2">  1       -1 0.70714524E-02 0.10430966E+03</pdfrwt>
<totfact> 0.10346769E+04</totfact>
</mgrwt>
</event>
<event>
 4    1  0.5015492E-001  0.8494193E+02  0.7546771E-02  0.1315584E+00
          2   -1    0    0  501    0  0.00000000000E+00  0.00000000000E+00  0.12693591206E+04  0.12693591206E+04  0.00000000000E+00 0. -1.
         -2   -1    0    0    0  501 -0.00000000000E+00 -0.00000000000E+00 -0.58176150935E+01  0.58176150935E+01  0.00000000000E+00 0.  1.
         24    1    1    2    0    0  0.97777559407E+01 -0.25540369168E+02  0.72837043083E+03  0.73330663125E+03  0.80419002446E+02 0.  1.
        -24    1    1    2    0    0 -0.97777559407E+01  0.25540369168E+02  0.53517107469E+03  0.54187010446E+03  0.80419002446E+02 0.  0.
<mgrwt>
<rscale>  0 0.84941927E+02</rscale>
<asrwt>0</asrwt>
<pdfrwt beam="1">  1        2 0.19528580E+00 0.84941927E+02</pdfrwt>
<pdfrwt beam="2">  1       -2 0.89501872E-03 0.84941927E+02</pdfrwt>
<totfact> 0.41490409E+04</totfact>
</mgrwt>
</event>
<event>
 4    1  0.5015492E-001  0.9387122E+02  0.7546771E-02  0.1293739E+00
         -2   -1    0    0    0  501 -0.00000000000E+00  0.00000000000E+00  0.35928912980E+02  0.35928912980E+02  0.00000000000E+00 0.  1.
          2   -1    0    0  501    0  0.00000000000E+00 -0.00000000000E+00 -0.25195680806E+03  0.25195680806E+03  0.00000000000E+00 0. -1.
         24    1    1    2    0    0  0.36994695907E+01  0.48279436408E+02 -0.13148694466E+03  0.16155687118E+03  0.80419002446E+02 0. -1.
        -24    1    1    2    0    0 -0.36994695907E+01 -0.48279436408E+02 -0.84540950422E+02  0.12632884986E+03  0.80419002446E+02 0.  1.
<mgrwt>
<rscale>  0 0.93871220E+02</rscale>
<asrwt>0</asrwt>
<pdfrwt beam="1">  1        2 0.38762588E-01 0.93871220E+02</pdfrwt>
<pdfrwt beam="2">  1       -2 0.55275248E-02 0.93871220E+02</pdfrwt>
<totfact> 0.19955654E+04</totfact>
</mgrwt>
</event>
<event>
 4    1  0.5015492E-001  0.8126607E+02  0.7546771E-02  0.1325496E+00
          3   -1    0    0  501    0  0.00000000000E+00  0.00000000000E+00  0.14988467869E+03  0.14988467869E+03  0.00000000000E+00 0. -1.
         -3   -1    0    0    0  501 -0.00000000000E+00 -0.00000000000E+00 -0.45029597408E+02  0.45029597408E+02  0.00000000000E+00 0.  1.
         24    1    1    2    0    0  0.10862480230E+02  0.43545333748E+01  0.66715914665E+02  0.10514363824E+03  0.80419002446E+02 0. -1.
        -24    1    1    2    0    0 -0.10862480230E+02 -0.43545333748E+01  0.38139166619E+02  0.89770637864E+02  0.80419002446E+02 0.  1.
<mgrwt>
<rscale>  0 0.81266063E+02</rscale>
<asrwt>0</asrwt>
<pdfrwt beam="1">  1        3 0.23059181E-01 0.81266073E+02</pdfrwt>
<pdfrwt beam="2">  1       -3 0.69276304E-02 0.81266073E+02</pdfrwt>
<totfact> 0.47831472E+03</totfact>
</mgrwt>
</event>
<event>
 4    1  0.5015492E-001  0.1170368E+03  0.7546771E-02  0.1248067E+00
         -1   -1    0    0    0  501 -0.00000000000E+00  0.00000000000E+00  0.18753183671E+02  0.18753183671E+02  0.00000000000E+00 0.  1.
          1   -1    0    0  501    0  0.00000000000E+00 -0.00000000000E+00 -0.73043791489E+03  0.73043791489E+03  0.00000000000E+00 0. -1.
         24    1    1    2    0    0  0.38017679857E+02  0.76059520482E+02 -0.35793083935E+03  0.37657946884E+03  0.80419002446E+02 0. -1.
        -24    1    1    2    0    0 -0.38017679857E+02 -0.76059520482E+02 -0.35375389187E+03  0.37261162972E+03  0.80419002446E+02 0.  1.
<mgrwt>
<rscale>  0 0.11703681E+03</rscale>
<asrwt>0</asrwt>
<pdfrwt beam="1">  1        1 0.11237505E+00 0.11703682E+03</pdfrwt>
<pdfrwt beam="2">  1       -1 0.28851056E-02 0.11703682E+03</pdfrwt>
<totfact> 0.10038748E+04</totfact>
</mgrwt>
</event>
<event>
 4    1  0.5015492E-001  0.8991510E+02  0.7546771E-02  0.1303057E+00
          2   -1    0    0  501    0  0.00000000000E+00  0.00000000000E+00  0.35811226521E+02  0.35811226521E+02  0.00000000000E+00 0. -1.
         -2   -1    0    0    0  501 -0.00000000000E+00 -0.00000000000E+00 -0.57885237051E+03  0.57885237051E+03  0.00000000000E+00 0.  1.
         24    1    1    2    0    0 -0.36966604389E+02  0.15842349764E+02 -0.31489180792E+02  0.95269587736E+02  0.80419002446E+02 0. -1.
        -24    1    1    2    0    0  0.36966604389E+02 -0.15842349764E+02 -0.51155196320E+03  0.51939400930E+03  0.80419002446E+02 0.  1.
<mgrwt>
<rscale>  0 0.89915104E+02</rscale>
<asrwt>0</asrwt>
<pdfrwt beam="1">  1        2 0.55094193E-02 0.89915104E+02</pdfrwt>
<pdfrwt beam="2">  1       -2 0.89054214E-01 0.89915104E+02</pdfrwt>
<totfact> 0.14584140E+03</totfact>
</mgrwt>
</event>
<event>
 4    1  0.5015492E-001  0.8347503E+02  0.7546771E-02  0.1319469E+00
          2   -1    0    0  501    0  0.00000000000E+00  0.00000000000E+00  0.39180634770E+03  0.39180634770E+03  0.00000000000E+00 0. -1.
         -2   -1    0    0    0  501 -0.00000000000E+00 -0.00000000000E+00 -0.19168483391E+02  0.19168483391E+02  0.00000000000E+00 0.  1.
         24    1    1    2    0    0 -0.13866134354E+02 -0.17566767488E+02  0.13110381375E+03  0.15542292925E+03  0.80419002446E+02 0.  0.
        -24    1    1    2    0    0  0.13866134354E+02  0.17566767488E+02  0.24153405056E+03  0.25555190184E+03  0.80419002446E+02 0.  0.
<mgrwt>
<rscale>  0 0.83475018E+02</rscale>
<asrwt>0</asrwt>
<pdfrwt beam="1">  1        2 0.60277894E-01 0.83475029E+02</pdfrwt>
<pdfrwt beam="2">  1       -2 0.29489977E-02 0.83475029E+02</pdfrwt>
<totfact> 0.31267674E+04</totfact>
</mgrwt>
</event>
<event>
 4    1  0.5015492E-001  0.9284085E+02  0.7546771E-02  0.1296114E+00
         -2   -1    0    0    0  501 -0.00000000000E+00  0.00000000000E+00  0.29771118236E+02  0.29771118236E+02  0.00000000000E+00 0.  1.
          2   -1    0    0  501    0  0.00000000000E+00 -0.00000000000E+00 -0.94106964080E+03  0.94106964080E+03  0.00000000000E+00 0. -1.
         24    1    1    2    0    0 -0.44598333950E+02 -0.12774814104E+02 -0.85955486787E+03  0.86455421698E+03  0.80419002446E+02 0. -1.
        -24    1    1    2    0    0  0.44598333950E+02  0.12774814104E+02 -0.51743654693E+02  0.10628654205E+03  0.80419002446E+02 0.  1.
<mgrwt>
<rscale>  0 0.92840849E+02</rscale>
<asrwt>0</asrwt>
<pdfrwt beam="1">  1        2 0.14477995E+00 0.92840849E+02</pdfrwt>
<pdfrwt beam="2">  1       -2 0.45801720E-02 0.92840849E+02</pdfrwt>
<totfact> 0.61001132E+03</totfact>
</mgrwt>
</event>
<event>
 4    1  0.5015492E-001  0.8502062E+02  0.7546771E-02  0.1315379E+00
         -2   -1    0    0    0  501 -0.00000000000E+00  0.00000000000E+00  0.86722259669E+03  0.86722259669E+03  0.00000000000E+00 0.  1.
          2   -1    0    0  501    0  0.00000000000E+00 -0.00000000000E+00 -0.11677492466E+02  0.11677492466E+02  0.00000000000E+00 0. -1.
         24    1    1    2    0    0  0.25373909480E+02  0.10837668284E+02  0.19267153665E+03  0.21059636114E+03  0.80419002446E+02 0.  1.
        -24    1    1    2    0    0 -0.25373909480E+02 -0.10837668284E+02  0.66287356757E+03  0.66830372801E+03  0.80419002446E+02 0.  1.
<mgrwt>
<rscale>  0 0.85020623E+02</rscale>
<asrwt>0</asrwt>
<pdfrwt beam="1">  1        2 0.17965380E-02 0.85020623E+02</pdfrwt>
<pdfrwt beam="2">  1       -2 0.13341881E+00 0.85020623E+02</pdfrwt>
<totfact> 0.24856861E+03</totfact>
</mgrwt>
</event>
<event>
 4    1  0.5015492E-001  0.1091053E+03  0.7546771E-02  0.1262236E+00
          2   -1    0    0  501    0  0.00000000000E+00  0.00000000000E+00  0.30438034090E+04  0.30438034090E+04  0.00000000000E+00 0. -1.
         -2   -1    0    0    0  501 -0.00000000000E+00 -0.00000000000E+00 -0.47524802994E+01  0.47524802994E+01  0.00000000000E+00 0.  1.
         24    1    1    2    0    0  0.13678676166E+02 -0.72454390829E+02  0.21609654222E+04  0.21637179846E+04  0.80419002446E+02 0. -1.
        -24    1    1    2    0    0 -0.13678676166E+02  0.72454390829E+02  0.87808550644E+03  0.88483790465E+03  0.80419002446E+02 0.  1.
<mgrwt>
<rscale>  0 0.10910527E+03</rscale>
<asrwt>0</asrwt>
<pdfrwt beam="1">  1        2 0.46827589E+00 0.10910527E+03</pdfrwt>
<pdfrwt beam="2">  1       -2 0.73115325E-03 0.10910527E+03</pdfrwt>
<totfact> 0.66038540E+03</totfact>
</mgrwt>
</event>
<event>
 4    1  0.5015492E-001  0.1927739E+03  0.7546771E-02  0.1155983E+00
         -2   -1    0    0    0  501 -0.00000000000E+00  0.00000000000E+00  0.62818512189E+02  0.62818512189E+02  0.00000000000E+00 0.  1.
          2   -1    0    0  501    0  0.00000000000E+00 -0.00000000000E+00 -0.61886742772E+03  0.61886742772E+03  0.00000000000E+00 0. -1.
         24    1    1    2    0    0  0.15341894459E+03  0.84599989945E+02 -0.20644455261E+03  0.28245548342E+03  0.80419002446E+02 0. -1.
        -24    1    1    2    0    0 -0.15341894459E+03 -0.84599989945E+02 -0.34960436292E+03  0.39923045648E+03  0.80419002446E+02 0.  0.
<mgrwt>
<rscale>  0 0.19277385E+03</rscale>
<asrwt>0</asrwt>
<pdfrwt beam="1">  1        2 0.95210369E-01 0.19277387E+03</pdfrwt>
<pdfrwt beam="2">  1       -2 0.96643869E-02 0.19277387E+03</pdfrwt>
<totfact> 0.33644551E+03</totfact>
</mgrwt>
</event>
<event>
 4    1  0.5015492E-001  0.9481142E+02  0.7546771E-02  0.1291601E+00
          2   -1    0    0  501    0  0.00000000000E+00  0.00000000000E+00  0.30995956728E+03  0.30995956728E+03  0.00000000000E+00 0. -1.
         -2   -1    0    0    0  501 -0.00000000000E+00 -0.00000000000E+00 -0.34869356914E+02  0.34869356914E+02  0.00000000000E+00 0.  1.
         24    1    1    2    0    0  0.41090956143E+02  0.28870784332E+02  0.20827482458E+03  0.22883969798E+03  0.80419002446E+02 0. -1.
        -24    1    1    2    0    0 -0.41090956143E+02 -0.28870784332E+02  0.66815385784E+02  0.11598922621E+03  0.80419002446E+02 0.  1.
<mgrwt>
<rscale>  0 0.94811417E+02</rscale>
<asrwt>0</asrwt>
<pdfrwt beam="1">  1        2 0.47686086E-01 0.94811417E+02</pdfrwt>
<pdfrwt beam="2">  1       -2 0.53645166E-02 0.94811417E+02</pdfrwt>
<totfact> 0.16813355E+04</totfact>
</mgrwt>
</event>
<event>
 4    1  0.5015492E-001  0.1048933E+03  0.7546771E-02  0.1270330E+00
          2   -1    0    0  501    0  0.00000000000E+00  0.00000000000E+00  0.19015254064E+04  0.19015254064E+04  0.00000000000E+00 0. -1.
         -2   -1    0    0    0  501 -0.00000000000E+00 -0.00000000000E+00 -0.10500654038E+02  0.10500654038E+02  0.00000000000E+00 0.  1.
         24    1    1    2    0    0  0.55366007702E+02  0.38340590385E+02  0.15860891835E+04  0.15895538713E+04  0.80419002446E+02 0. -1.
        -24    1    1    2    0    0 -0.55366007702E+02 -0.38340590385E+02  0.30493556887E+03  0.32247218918E+03  0.80419002446E+02 0.  1.
<mgrwt>
<rscale>  0 0.10489333E+03</rscale>
<asrwt>0</asrwt>
<pdfrwt beam="1">  1        2 0.29254210E+00 0.10489333E+03</pdfrwt>
<pdfrwt beam="2">  1       -2 0.16154868E-02 0.10489333E+03</pdfrwt>
<totfact> 0.86392275E+03</totfact>
</mgrwt>
</event>
<event>
 4    1  0.5015492E-001  0.8508737E+02  0.7546771E-02  0.1315204E+00
          2   -1    0    0  501    0  0.00000000000E+00  0.00000000000E+00  0.43943538966E+02  0.43943538966E+02  0.00000000000E+00 0. -1.
         -2   -1    0    0    0  501 -0.00000000000E+00 -0.00000000000E+00 -0.64371758095E+03  0.64371758095E+03  0.00000000000E+00 0.  1.
         24    1    1    2    0    0 -0.26250336944E+01 -0.27672259126E+02 -0.33027118459E+01  0.85151445008E+02  0.80419002446E+02 0. -1.
        -24    1    1    2    0    0  0.26250336944E+01  0.27672259126E+02 -0.59647133013E+03  0.60250967491E+03  0.80419002446E+02 0.  1.
<mgrwt>
<rscale>  0 0.85087371E+02</rscale>
<asrwt>0</asrwt>
<pdfrwt beam="1">  1        2 0.67605450E-02 0.85087371E+02</pdfrwt>
<pdfrwt beam="2">  1       -2 0.99033466E-01 0.85087371E+02</pdfrwt>
<totfact> 0.88300082E+02</totfact>
</mgrwt>
</event>
<event>
 4    1  0.5015492E-001  0.9402499E+02  0.7546771E-02  0.1293387E+00
          2   -1    0    0  501    0  0.00000000000E+00  0.00000000000E+00  0.13459289554E+04  0.13459289554E+04  0.00000000000E+00 0. -1.
         -2   -1    0    0    0  501 -0.00000000000E+00 -0.00000000000E+00 -0.12137332354E+02  0.12137332354E+02  0.00000000000E+00 0.  1.
         24    1    1    2    0    0 -0.14914417990E+01 -0.48695574249E+02  0.11268477334E+04  0.11307636860E+04  0.80419002446E+02 0. -1.
        -24    1    1    2    0    0  0.14914417990E+01  0.48695574249E+02  0.20694388968E+03  0.22730260179E+03  0.80419002446E+02 0.  1.
<mgrwt>
<rscale>  0 0.94024993E+02</rscale>
<asrwt>0</asrwt>
<pdfrwt beam="1">  1        2 0.20706587E+00 0.94024993E+02</pdfrwt>
<pdfrwt beam="2">  1       -2 0.18672830E-02 0.94024993E+02</pdfrwt>
<totfact> 0.13398020E+04</totfact>
</mgrwt>
</event>
<event>
 4    1  0.5015492E-001  0.1048330E+03  0.7546771E-02  0.1270449E+00
         -2   -1    0    0    0  501 -0.00000000000E+00  0.00000000000E+00  0.59247451255E+02  0.59247451255E+02  0.00000000000E+00 0.  1.
          2   -1    0    0  501    0  0.00000000000E+00 -0.00000000000E+00 -0.40020976519E+03  0.40020976519E+03  0.00000000000E+00 0. -1.
         24    1    1    2    0    0 -0.34710660556E+02  0.57601258668E+02 -0.33875043944E+03  0.35460091812E+03  0.80419002446E+02 0. -1.
        -24    1    1    2    0    0  0.34710660556E+02 -0.57601258668E+02 -0.22118745016E+01  0.10485629833E+03  0.80419002446E+02 0.  1.
<mgrwt>
<rscale>  0 0.10483297E+03</rscale>
<asrwt>0</asrwt>
<pdfrwt beam="1">  1        2 0.61570732E-01 0.10483297E+03</pdfrwt>
<pdfrwt beam="2">  1       -2 0.91149926E-02 0.10483297E+03</pdfrwt>
<totfact> 0.57914695E+03</totfact>
</mgrwt>
</event>
<event>
 4    1  0.5015492E-001  0.1099545E+03  0.7546771E-02  0.1260654E+00
          2   -1    0    0  501    0  0.00000000000E+00  0.00000000000E+00  0.47728404301E+03  0.47728404301E+03  0.00000000000E+00 0. -1.
         -2   -1    0    0    0  501 -0.00000000000E+00 -0.00000000000E+00 -0.28217777193E+02  0.28217777193E+02  0.00000000000E+00 0.  1.
         24    1    1    2    0    0  0.66105515125E+02  0.35395296276E+02  0.30537823657E+03  0.32457025349E+03  0.80419002446E+02 0. -1.
        -24    1    1    2    0    0 -0.66105515125E+02 -0.35395296276E+02  0.14368802925E+03  0.18093156671E+03  0.80419002446E+02 0.  1.
<mgrwt>
<rscale>  0 0.10995445E+03</rscale>
<asrwt>0</asrwt>
<pdfrwt beam="1">  1        2 0.73428309E-01 0.10995445E+03</pdfrwt>
<pdfrwt beam="2">  1       -2 0.43411968E-02 0.10995445E+03</pdfrwt>
<totfact> 0.14790174E+04</totfact>
</mgrwt>
</event>
<event>
 4    1  0.5015492E-001  0.8567197E+02  0.7546771E-02  0.1313685E+00
          2   -1    0    0  501    0  0.00000000000E+00  0.00000000000E+00  0.47118705070E+03  0.47118705070E+03  0.00000000000E+00 0. -1.
         -2   -1    0    0    0  501 -0.00000000000E+00 -0.00000000000E+00 -0.25392171068E+02  0.25392171068E+02  0.00000000000E+00 0.  1.
         24    1    1    2    0    0 -0.48081107894E+01  0.29143654754E+02  0.37726544577E+03  0.38687065418E+03  0.80419002446E+02 0.  0.
        -24    1    1    2    0    0  0.48081107894E+01 -0.29143654754E+02  0.68529433864E+02  0.10970856759E+03  0.80419002446E+02 0.  1.
<mgrwt>
<rscale>  0 0.85671970E+02</rscale>
<asrwt>0</asrwt>
<pdfrwt beam="1">  1        2 0.72490309E-01 0.85671970E+02</pdfrwt>
<pdfrwt beam="2">  1       -2 0.39064882E-02 0.85671970E+02</pdfrwt>
<totfact> 0.17124013E+04</totfact>
</mgrwt>
</event>
<event>
 4    1  0.5015492E-001  0.8211849E+02  0.7546771E-02  0.1323145E+00
          1   -1    0    0  501    0  0.00000000000E+00  0.00000000000E+00  0.34331306259E+03  0.34331306259E+03  0.00000000000E+00 0. -1.
         -1   -1    0    0    0  501 -0.00000000000E+00 -0.00000000000E+00 -0.22329162754E+02  0.22329162754E+02  0.00000000000E+00 0.  1.
         24    1    1    2    0    0  0.16302692777E+02 -0.32329661996E+01  0.97073477392E+02  0.12714836149E+03  0.80419002446E+02 0.  1.
        -24    1    1    2    0    0 -0.16302692777E+02  0.32329661996E+01  0.22391042244E+03  0.23849386385E+03  0.80419002446E+02 0. -1.
<mgrwt>
<rscale>  0 0.82118486E+02</rscale>
<asrwt>0</asrwt>
<pdfrwt beam="1">  1        1 0.52817391E-01 0.82118486E+02</pdfrwt>
<pdfrwt beam="2">  1       -1 0.34352560E-02 0.82118486E+02</pdfrwt>
<totfact> 0.20219386E+04</totfact>
</mgrwt>
</event>
<event>
 4    1  0.5015492E-001  0.8753011E+02  0.7546771E-02  0.1308946E+00
          2   -1    0    0  501    0  0.00000000000E+00  0.00000000000E+00  0.14415231453E+04  0.14415231453E+04  0.00000000000E+00 0. -1.
         -2   -1    0    0    0  501 -0.00000000000E+00 -0.00000000000E+00 -0.61632682428E+01  0.61632682428E+01  0.00000000000E+00 0.  1.
         24    1    1    2    0    0  0.34308572461E+02  0.41503411593E+01  0.98623716296E+03  0.99011376166E+03  0.80419002446E+02 0. -1.
        -24    1    1    2    0    0 -0.34308572461E+02 -0.41503411593E+01  0.44912271408E+03  0.45757265187E+03  0.80419002446E+02 0.  1.
<mgrwt>
<rscale>  0 0.87530106E+02</rscale>
<asrwt>0</asrwt>
<pdfrwt beam="1">  1        2 0.22177252E+00 0.87530106E+02</pdfrwt>
<pdfrwt beam="2">  1       -2 0.94819626E-03 0.87530106E+02</pdfrwt>
<totfact> 0.31185939E+04</totfact>
</mgrwt>
</event>
<event>
 4    1  0.5015492E-001  0.8517051E+02  0.7546771E-02  0.1314987E+00
         -1   -1    0    0    0  501 -0.00000000000E+00  0.00000000000E+00  0.53807913357E+03  0.53807913357E+03  0.00000000000E+00 0.  1.
          1   -1    0    0  501    0  0.00000000000E+00 -0.00000000000E+00 -0.61659678962E+02  0.61659678962E+02  0.00000000000E+00 0. -1.
         24    1    1    2    0    0 -0.17905967946E+01 -0.27992726474E+02  0.50327787849E+03  0.51043377426E+03  0.80419002446E+02 0.  1.
        -24    1    1    2    0    0  0.17905967946E+01  0.27992726474E+02 -0.26858423886E+02  0.89305038269E+02  0.80419002446E+02 0. -1.
<mgrwt>
<rscale>  0 0.85170505E+02</rscale>
<asrwt>0</asrwt>
<pdfrwt beam="1">  1        1 0.94861048E-02 0.85170505E+02</pdfrwt>
<pdfrwt beam="2">  1       -1 0.82781402E-01 0.85170505E+02</pdfrwt>
<totfact> 0.10158019E+03</totfact>
</mgrwt>
</event>
<event>
 4    1  0.5015492E-001  0.1920603E+03  0.7546771E-02  0.1156616E+00
          2   -1    0    0  501    0  0.00000000000E+00  0.00000000000E+00  0.36777841533E+04  0.36777841533E+04  0.00000000000E+00 0. -1.
         -2   -1    0    0    0  501 -0.00000000000E+00 -0.00000000000E+00 -0.10891513501E+02  0.10891513501E+02  0.00000000000E+00 0.  1.
         24    1    1    2    0    0 -0.16308395660E+03 -0.61834979473E+02  0.23522429246E+04  0.23600707476E+04  0.80419002446E+02 0. -1.
        -24    1    1    2    0    0  0.16308395660E+03  0.61834979473E+02  0.13146497152E+04  0.13286049192E+04  0.80419002446E+02 0.  1.
<mgrwt>
<rscale>  0 0.19206030E+03</rscale>
<asrwt>0</asrwt>
<pdfrwt beam="1">  1        2 0.56581196E+00 0.19206030E+03</pdfrwt>
<pdfrwt beam="2">  1       -2 0.16756204E-02 0.19206030E+03</pdfrwt>
<totfact> 0.78820446E+02</totfact>
</mgrwt>
</event>
<event>
 4    1  0.5015492E-001  0.8758294E+02  0.7546771E-02  0.1308813E+00
         -1   -1    0    0    0  501 -0.00000000000E+00  0.00000000000E+00  0.10890059156E+03  0.10890059156E+03  0.00000000000E+00 0.  1.
          1   -1    0    0  501    0  0.00000000000E+00 -0.00000000000E+00 -0.66674558950E+03  0.66674558950E+03  0.00000000000E+00 0. -1.
         24    1    1    2    0    0 -0.31168330256E+02 -0.15234544227E+02  0.87843145438E+02  0.12404511399E+03  0.80419002446E+02 0.  1.
        -24    1    1    2    0    0  0.31168330256E+02  0.15234544227E+02 -0.64568814338E+03  0.65160106707E+03  0.80419002446E+02 0. -1.
<mgrwt>
<rscale>  0 0.87582944E+02</rscale>
<asrwt>0</asrwt>
<pdfrwt beam="1">  1        1 0.10257624E+00 0.87582944E+02</pdfrwt>
<pdfrwt beam="2">  1       -1 0.16753937E-01 0.87582944E+02</pdfrwt>
<totfact> 0.81681454E+02</totfact>
</mgrwt>
</event>
<event>
 4    1  0.5015492E-001  0.9289833E+02  0.7546771E-02  0.1295981E+00
          2   -1    0    0  501    0  0.00000000000E+00  0.00000000000E+00  0.23618359860E+03  0.23618359860E+03  0.00000000000E+00 0. -1.
         -2   -1    0    0    0  501 -0.00000000000E+00 -0.00000000000E+00 -0.11324049105E+03  0.11324049105E+03  0.00000000000E+00 0.  1.
         24    1    1    2    0    0 -0.34565505773E+02  0.31114460306E+02  0.20525921945E+03  0.22530301141E+03  0.80419002446E+02 0. -1.
        -24    1    1    2    0    0  0.34565505773E+02 -0.31114460306E+02 -0.82316111898E+02  0.12412107823E+03  0.80419002446E+02 0.  1.
<mgrwt>
<rscale>  0 0.92898330E+02</rscale>
<asrwt>0</asrwt>
<pdfrwt beam="1">  1        2 0.36335938E-01 0.92898330E+02</pdfrwt>
<pdfrwt beam="2">  1       -2 0.17421614E-01 0.92898330E+02</pdfrwt>
<totfact> 0.35628789E+03</totfact>
</mgrwt>
</event>
<event>
 4    1  0.5015492E-001  0.1078678E+03  0.7546771E-02  0.1264570E+00
         -2   -1    0    0    0  501 -0.00000000000E+00  0.00000000000E+00  0.14074277056E+02  0.14074277056E+02  0.00000000000E+00 0.  1.
          2   -1    0    0  501    0  0.00000000000E+00 -0.00000000000E+00 -0.12005287230E+04  0.12005287230E+04  0.00000000000E+00 0. -1.
         24    1    1    2    0    0 -0.41722707322E+02 -0.58544544892E+02 -0.93210548699E+03  0.93832622412E+03  0.80419002446E+02 0.  1.
        -24    1    1    2    0    0  0.41722707322E+02  0.58544544892E+02 -0.25434895891E+03  0.27627677589E+03  0.80419002446E+02 0.  0.
<mgrwt>
<rscale>  0 0.10786781E+03</rscale>
<asrwt>0</asrwt>
<pdfrwt beam="1">  1        2 0.18469672E+00 0.10786781E+03</pdfrwt>
<pdfrwt beam="2">  1       -2 0.21652735E-02 0.10786781E+03</pdfrwt>
<totfact> 0.13061820E+04</totfact>
</mgrwt>
</event>
<event>
 4    1  0.5015492E-001  0.8068391E+02  0.7546771E-02  0.1327122E+00
         -2   -1    0    0    0  501 -0.00000000000E+00  0.00000000000E+00  0.61828961295E+02  0.61828961295E+02  0.00000000000E+00 0.  1.
          2   -1    0    0  501    0  0.00000000000E+00 -0.00000000000E+00 -0.13185441356E+03  0.13185441356E+03  0.00000000000E+00 0. -1.
         24    1    1    2    0    0 -0.40983446448E+01 -0.50873107263E+01 -0.78481307832E+02  0.11255757990E+03  0.80419002446E+02 0.  0.
        -24    1    1    2    0    0  0.40983446448E+01  0.50873107263E+01  0.84558555690E+01  0.81125794955E+02  0.80419002446E+02 0.  1.
<mgrwt>
<rscale>  0 0.80683909E+02</rscale>
<asrwt>0</asrwt>
<pdfrwt beam="1">  1        2 0.20285294E-01 0.80683909E+02</pdfrwt>
<pdfrwt beam="2">  1       -2 0.95121479E-02 0.80683909E+02</pdfrwt>
<totfact> 0.17302906E+04</totfact>
</mgrwt>
</event>
<event>
 4    1  0.5015492E-001  0.1525002E+03  0.7546771E-02  0.1197434E+00
          2   -1    0    0  501    0  0.00000000000E+00  0.00000000000E+00  0.51940178092E+03  0.51940178092E+03  0.00000000000E+00 0. -1.
         -2   -1    0    0    0  501 -0.00000000000E+00 -0.00000000000E+00 -0.55491495768E+02  0.55491495768E+02  0.00000000000E+00 0.  1.
         24    1    1    2    0    0 -0.58400439531E+02  0.11566533069E+03  0.35827372579E+03  0.38937945324E+03  0.80419002446E+02 0. -1.
        -24    1    1    2    0    0  0.58400439531E+02 -0.11566533069E+03  0.10563655937E+03  0.18551382345E+03  0.80419002446E+02 0.  1.
<mgrwt>
<rscale>  0 0.15250015E+03</rscale>
<asrwt>0</asrwt>
<pdfrwt beam="1">  1        2 0.79907963E-01 0.15250015E+03</pdfrwt>
<pdfrwt beam="2">  1       -2 0.85371535E-02 0.15250015E+03</pdfrwt>
<totfact> 0.49386127E+03</totfact>
</mgrwt>
</event>
<event>
 4    1  0.5015492E-001  0.8667614E+02  0.7546771E-02  0.1311107E+00
          2   -1    0    0  501    0  0.00000000000E+00  0.00000000000E+00  0.54442545890E+03  0.54442545890E+03  0.00000000000E+00 0. -1.
         -2   -1    0    0    0  501 -0.00000000000E+00 -0.00000000000E+00 -0.17543028314E+02  0.17543028314E+02  0.00000000000E+00 0.  1.
         24    1    1    2    0    0  0.24140763243E+02 -0.21511881677E+02  0.39324134046E+03  0.40268040094E+03  0.80419002446E+02 0.  0.
        -24    1    1    2    0    0 -0.24140763243E+02  0.21511881677E+02  0.13364109012E+03  0.15928808627E+03  0.80419002446E+02 0.  0.
<mgrwt>
<rscale>  0 0.86676141E+02</rscale>
<asrwt>0</asrwt>
<pdfrwt beam="1">  1        2 0.83757750E-01 0.86676141E+02</pdfrwt>
<pdfrwt beam="2">  1       -2 0.26989279E-02 0.86676141E+02</pdfrwt>
<totfact> 0.25128286E+04</totfact>
</mgrwt>
</event>
<event>
 4    1  0.5015492E-001  0.1273864E+03  0.7546771E-02  0.1231386E+00
         -2   -1    0    0    0  501 -0.00000000000E+00  0.00000000000E+00  0.80101751044E+02  0.80101751044E+02  0.00000000000E+00 0.  1.
          2   -1    0    0  501    0  0.00000000000E+00 -0.00000000000E+00 -0.20702098211E+03  0.20702098211E+03  0.00000000000E+00 0. -1.
         24    1    1    2    0    0  0.58992003887E+02 -0.79246603794E+02 -0.84477863201E+02  0.15285223603E+03  0.80419002446E+02 0. -1.
        -24    1    1    2    0    0 -0.58992003887E+02  0.79246603794E+02 -0.42441367864E+02  0.13427049712E+03  0.80419002446E+02 0.  1.
<mgrwt>
<rscale>  0 0.12738641E+03</rscale>
<asrwt>0</asrwt>
<pdfrwt beam="1">  1        2 0.31849381E-01 0.12738641E+03</pdfrwt>
<pdfrwt beam="2">  1       -2 0.12323347E-01 0.12738641E+03</pdfrwt>
<totfact> 0.73394435E+03</totfact>
</mgrwt>
</event>
<event>
 4    1  0.5015492E-001  0.8960990E+02  0.7546771E-02  0.1303799E+00
          1   -1    0    0  501    0  0.00000000000E+00  0.00000000000E+00  0.11178657343E+04  0.11178657343E+04  0.00000000000E+00 0. -1.
         -1   -1    0    0    0  501 -0.00000000000E+00 -0.00000000000E+00 -0.16277621355E+02  0.16277621355E+02  0.00000000000E+00 0.  1.
         24    1    1    2    0    0  0.32330790457E+02 -0.22747265166E+02  0.12692833684E+03  0.15537289574E+03  0.80419002446E+02 0. -1.
        -24    1    1    2    0    0 -0.32330790457E+02  0.22747265166E+02  0.97465977612E+03  0.97877045993E+03  0.80419002446E+02 0. -1.
<mgrwt>
<rscale>  0 0.89609899E+02</rscale>
<asrwt>0</asrwt>
<pdfrwt beam="1">  1        1 0.17197928E+00 0.89609899E+02</pdfrwt>
<pdfrwt beam="2">  1       -1 0.25042503E-02 0.89609899E+02</pdfrwt>
<totfact> 0.61634574E+03</totfact>
</mgrwt>
</event>
<event>
 4    1  0.5015492E-001  0.1344820E+03  0.7546771E-02  0.1220953E+00
         -2   -1    0    0    0  501 -0.00000000000E+00  0.00000000000E+00  0.51731777198E+02  0.51731777198E+02  0.00000000000E+00 0.  1.
          2   -1    0    0  501    0  0.00000000000E+00 -0.00000000000E+00 -0.54656026646E+03  0.54656026646E+03  0.00000000000E+00 0. -1.
         24    1    1    2    0    0  0.15166101576E+02  0.10671537768E+03 -0.42699267586E+03  0.44766968142E+03  0.80419002446E+02 0. -1.
        -24    1    1    2    0    0 -0.15166101576E+02 -0.10671537768E+03 -0.67835813398E+02  0.15062236223E+03  0.80419002446E+02 0.  1.
<mgrwt>
<rscale>  0 0.13448196E+03</rscale>
<asrwt>0</asrwt>
<pdfrwt beam="1">  1        2 0.84086197E-01 0.13448196E+03</pdfrwt>
<pdfrwt beam="2">  1       -2 0.79587347E-02 0.13448196E+03</pdfrwt>
<totfact> 0.51701345E+03</totfact>
</mgrwt>
</event>
<event>
 4    1  0.5015492E-001  0.8393535E+02  0.7546771E-02  0.1318240E+00
         -2   -1    0    0    0  501 -0.00000000000E+00  0.00000000000E+00  0.54902358655E+01  0.54902358655E+01  0.00000000000E+00 0.  1.
          2   -1    0    0  501    0  0.00000000000E+00 -0.00000000000E+00 -0.13143593724E+04  0.13143593724E+04  0.00000000000E+00 0. -1.
         24    1    1    2    0    0  0.22975273760E+02 -0.70755278465E+01 -0.75602220317E+03  0.76066728202E+03  0.80419002446E+02 0. -1.
        -24    1    1    2    0    0 -0.22975273760E+02  0.70755278465E+01 -0.55284693341E+03  0.55918232629E+03  0.80419002446E+02 0.  1.
<mgrwt>
<rscale>  0 0.83935346E+02</rscale>
<asrwt>0</asrwt>
<pdfrwt beam="1">  1        2 0.20220906E+00 0.83935346E+02</pdfrwt>
<pdfrwt beam="2">  1       -2 0.84465199E-03 0.83935346E+02</pdfrwt>
<totfact> 0.42571337E+04</totfact>
</mgrwt>
</event>
<event>
 4    1  0.5015492E-001  0.8737672E+02  0.7546771E-02  0.1309332E+00
         -1   -1    0    0    0  501 -0.00000000000E+00  0.00000000000E+00  0.36676439517E+03  0.36676439517E+03  0.00000000000E+00 0.  1.
          1   -1    0    0  501    0  0.00000000000E+00 -0.00000000000E+00 -0.34800784440E+02  0.34800784440E+02  0.00000000000E+00 0. -1.
         24    1    1    2    0    0 -0.12410453511E+02 -0.31834826642E+02  0.29326005085E+03  0.30600024334E+03  0.80419002446E+02 0.  1.
        -24    1    1    2    0    0  0.12410453511E+02  0.31834826642E+02  0.38703559885E+02  0.95564936278E+02  0.80419002446E+02 0. -1.
<mgrwt>
<rscale>  0 0.87376722E+02</rscale>
<asrwt>0</asrwt>
<pdfrwt beam="1">  1        1 0.53539671E-02 0.87376722E+02</pdfrwt>
<pdfrwt beam="2">  1       -1 0.56425289E-01 0.87376722E+02</pdfrwt>
<totfact> 0.45788539E+03</totfact>
</mgrwt>
</event>
<event>
 4    1  0.5015492E-001  0.8424744E+02  0.7546771E-02  0.1317412E+00
          1   -1    0    0  501    0  0.00000000000E+00  0.00000000000E+00  0.80613794149E+01  0.80613794149E+01  0.00000000000E+00 0. -1.
         -1   -1    0    0    0  501 -0.00000000000E+00 -0.00000000000E+00 -0.99685007080E+03  0.99685007080E+03  0.00000000000E+00 0.  1.
         24    1    1    2    0    0  0.11654390113E+02  0.22239399948E+02 -0.66609097710E+03  0.67139766268E+03  0.80419002446E+02 0.  1.
        -24    1    1    2    0    0 -0.11654390113E+02 -0.22239399948E+02 -0.32269771428E+03  0.33351378753E+03  0.80419002446E+02 0. -1.
<mgrwt>
<rscale>  0 0.84247443E+02</rscale>
<asrwt>0</asrwt>
<pdfrwt beam="1">  1        1 0.12402125E-02 0.84247443E+02</pdfrwt>
<pdfrwt beam="2">  1       -1 0.15336151E+00 0.84247443E+02</pdfrwt>
<totfact> 0.39258172E+03</totfact>
</mgrwt>
</event>
<event>
 4    1  0.5015492E-001  0.1064603E+03  0.7546771E-02  0.1267269E+00
          2   -1    0    0  501    0  0.00000000000E+00  0.00000000000E+00  0.11127197823E+04  0.11127197823E+04  0.00000000000E+00 0. -1.
         -2   -1    0    0    0  501 -0.00000000000E+00 -0.00000000000E+00 -0.61712218999E+02  0.61712218999E+02  0.00000000000E+00 0.  1.
         24    1    1    2    0    0  0.47229502367E+02 -0.51341566942E+02  0.10620755527E+04  0.10673979005E+04  0.80419002446E+02 0. -1.
        -24    1    1    2    0    0 -0.47229502367E+02  0.51341566942E+02 -0.11067989402E+02  0.10703410080E+03  0.80419002446E+02 0.  1.
<mgrwt>
<rscale>  0 0.10646031E+03</rscale>
<asrwt>0</asrwt>
<pdfrwt beam="1">  1        2 0.17118764E+00 0.10646031E+03</pdfrwt>
<pdfrwt beam="2">  1       -2 0.94941884E-02 0.10646031E+03</pdfrwt>
<totfact> 0.16138884E+03</totfact>
</mgrwt>
</event>
<event>
 4    1  0.5015492E-001  0.9113427E+02  0.7546771E-02  0.1300128E+00
          2   -1    0    0  501    0  0.00000000000E+00  0.00000000000E+00  0.35277575433E+03  0.35277575433E+03  0.00000000000E+00 0. -1.
         -2   -1    0    0    0  501 -0.00000000000E+00 -0.00000000000E+00 -0.25588407068E+02  0.25588407068E+02  0.00000000000E+00 0.  1.
         24    1    1    2    0    0  0.16167561705E+02  0.39709552457E+02  0.21707863703E+03  0.23543277006E+03  0.80419002446E+02 0. -1.
        -24    1    1    2    0    0 -0.16167561705E+02 -0.39709552457E+02  0.11010871024E+03  0.14293139135E+03  0.80419002446E+02 0.  1.
<mgrwt>
<rscale>  0 0.91134267E+02</rscale>
<asrwt>0</asrwt>
<pdfrwt beam="1">  1        2 0.54273189E-01 0.91134267E+02</pdfrwt>
<pdfrwt beam="2">  1       -2 0.39366783E-02 0.91134267E+02</pdfrwt>
<totfact> 0.23125883E+04</totfact>
</mgrwt>
</event>
<event>
 4    1  0.5015492E-001  0.8428947E+02  0.7546771E-02  0.1317301E+00
         -1   -1    0    0    0  501 -0.00000000000E+00  0.00000000000E+00  0.26006475557E+02  0.26006475557E+02  0.00000000000E+00 0.  1.
          1   -1    0    0  501    0  0.00000000000E+00 -0.00000000000E+00 -0.28533539597E+03  0.28533539597E+03  0.00000000000E+00 0. -1.
         24    1    1    2    0    0 -0.25241154067E+02  0.61845376677E+00 -0.97547683837E+02  0.12891960642E+03  0.80419002446E+02 0.  1.
        -24    1    1    2    0    0  0.25241154067E+02 -0.61845376677E+00 -0.16178123658E+03  0.18242226511E+03  0.80419002446E+02 0. -1.
<mgrwt>
<rscale>  0 0.84289467E+02</rscale>
<asrwt>0</asrwt>
<pdfrwt beam="1">  1        1 0.43897753E-01 0.84289467E+02</pdfrwt>
<pdfrwt beam="2">  1       -1 0.40009963E-02 0.84289467E+02</pdfrwt>
<totfact> 0.20383949E+04</totfact>
</mgrwt>
</event>
<event>
 4    1  0.5015492E-001  0.8846703E+02  0.7546771E-02  0.1306607E+00
         -2   -1    0    0    0  501 -0.00000000000E+00  0.00000000000E+00  0.74513774222E+03  0.74513774222E+03  0.00000000000E+00 0.  1.
          2   -1    0    0  501    0  0.00000000000E+00 -0.00000000000E+00 -0.17873402280E+02  0.17873402280E+02  0.00000000000E+00 0. -1.
         24    1    1    2    0    0  0.35914252745E+02 -0.83286459204E+01  0.11865048980E+03  0.14800119789E+03  0.80419002446E+02 0. -1.
        -24    1    1    2    0    0 -0.35914252745E+02  0.83286459204E+01  0.60861385014E+03  0.61500994661E+03  0.80419002446E+02 0.  1.
<mgrwt>
<rscale>  0 0.88467033E+02</rscale>
<asrwt>0</asrwt>
<pdfrwt beam="1">  1        2 0.27497548E-02 0.88467033E+02</pdfrwt>
<pdfrwt beam="2">  1       -2 0.11463655E+00 0.88467033E+02</pdfrwt>
<totfact> 0.20282675E+03</totfact>
</mgrwt>
</event>
<event>
 4    1  0.5015492E-001  0.9072331E+02  0.7546771E-02  0.1301109E+00
          1   -1    0    0  501    0  0.00000000000E+00  0.00000000000E+00  0.26399179240E+04  0.26399179240E+04  0.00000000000E+00 0. -1.
         -1   -1    0    0    0  501 -0.00000000000E+00 -0.00000000000E+00 -0.46637466365E+01  0.46637466365E+01  0.00000000000E+00 0.  1.
         24    1    1    2    0    0 -0.38319671767E+02  0.17178662921E+02  0.55632391927E+03  0.56367279765E+03  0.80419002446E+02 0.  1.
        -24    1    1    2    0    0  0.38319671767E+02 -0.17178662921E+02  0.20789302581E+04  0.20809088730E+04  0.80419002446E+02 0. -1.
<mgrwt>
<rscale>  0 0.90723314E+02</rscale>
<asrwt>0</asrwt>
<pdfrwt beam="1">  1        1 0.40614003E+00 0.90723314E+02</pdfrwt>
<pdfrwt beam="2">  1       -1 0.71750159E-03 0.90723314E+02</pdfrwt>
<totfact> 0.38526068E+03</totfact>
</mgrwt>
</event>
<event>
 4    1  0.5015492E-001  0.8059924E+02  0.7546771E-02  0.1327359E+00
         -2   -1    0    0    0  501 -0.00000000000E+00  0.00000000000E+00  0.16167548784E+03  0.16167548784E+03  0.00000000000E+00 0.  1.
          2   -1    0    0  501    0  0.00000000000E+00 -0.00000000000E+00 -0.10083462270E+04  0.10083462270E+04  0.00000000000E+00 0. -1.
         24    1    1    2    0    0  0.65679476107E+00 -0.53470286334E+01 -0.99657194103E+03  0.99982592070E+03  0.80419002446E+02 0. -1.
        -24    1    1    2    0    0 -0.65679476107E+00  0.53470286334E+01  0.14990120183E+03  0.17019579419E+03  0.80419002446E+02 0.  1.
<mgrwt>
<rscale>  0 0.80599243E+02</rscale>
<asrwt>0</asrwt>
<pdfrwt beam="1">  1        2 0.15513019E+00 0.80599243E+02</pdfrwt>
<pdfrwt beam="2">  1       -2 0.24873152E-01 0.80599243E+02</pdfrwt>
<totfact> 0.38634208E+02</totfact>
</mgrwt>
</event>
<event>
 4    1  0.5015492E-001  0.1024586E+03  0.7546771E-02  0.1275209E+00
          4   -1    0    0  501    0  0.00000000000E+00  0.00000000000E+00  0.87634594374E+01  0.87634594374E+01  0.00000000000E+00 0. -1.
         -4   -1    0    0    0  501 -0.00000000000E+00 -0.00000000000E+00 -0.14196241357E+04  0.14196241357E+04  0.00000000000E+00 0.  1.
         24    1    1    2    0    0  0.42463126832E+02  0.47195650437E+02 -0.42318013902E+03  0.43540692757E+03  0.80419002446E+02 0. -1.
        -24    1    1    2    0    0 -0.42463126832E+02 -0.47195650437E+02 -0.98768053725E+03  0.99298066757E+03  0.80419002446E+02 0.  1.
<mgrwt>
<rscale>  0 0.10245859E+03</rscale>
<asrwt>0</asrwt>
<pdfrwt beam="1">  1        4 0.13482255E-02 0.10245859E+03</pdfrwt>
<pdfrwt beam="2">  1       -4 0.21840355E+00 0.10245859E+03</pdfrwt>
<totfact> 0.33430956E+02</totfact>
</mgrwt>
</event>
<event>
 4    1  0.5015492E-001  0.9135645E+02  0.7546771E-02  0.1299600E+00
          2   -1    0    0  501    0  0.00000000000E+00  0.00000000000E+00  0.14582234333E+04  0.14582234333E+04  0.00000000000E+00 0. -1.
         -2   -1    0    0    0  501 -0.00000000000E+00 -0.00000000000E+00 -0.69958905754E+01  0.69958905754E+01  0.00000000000E+00 0.  1.
         24    1    1    2    0    0  0.11141654307E+02 -0.41888534122E+02  0.10380617772E+04  0.10420740161E+04  0.80419002446E+02 0. -1.
        -24    1    1    2    0    0 -0.11141654307E+02  0.41888534122E+02  0.41316576544E+03  0.42314530771E+03  0.80419002446E+02 0.  1.
<mgrwt>
<rscale>  0 0.91356454E+02</rscale>
<asrwt>0</asrwt>
<pdfrwt beam="1">  1        2 0.22434182E+00 0.91356454E+02</pdfrwt>
<pdfrwt beam="2">  1       -2 0.10762920E-02 0.91356454E+02</pdfrwt>
<totfact> 0.25647190E+04</totfact>
</mgrwt>
</event>
<event>
 4    1  0.5015492E-001  0.9748254E+02  0.7546771E-02  0.1285681E+00
          1   -1    0    0  501    0  0.00000000000E+00  0.00000000000E+00  0.62606002917E+03  0.62606002917E+03  0.00000000000E+00 0. -1.
         -1   -1    0    0    0  501 -0.00000000000E+00 -0.00000000000E+00 -0.25192370379E+02  0.25192370379E+02  0.00000000000E+00 0.  1.
         24    1    1    2    0    0 -0.45766475344E+02 -0.30676683007E+02  0.95138473965E+02  0.13621370830E+03  0.80419002446E+02 0.  1.
        -24    1    1    2    0    0  0.45766475344E+02  0.30676683007E+02  0.50572918483E+03  0.51503869125E+03  0.80419002446E+02 0. -1.
<mgrwt>
<rscale>  0 0.97482537E+02</rscale>
<asrwt>0</asrwt>
<pdfrwt beam="1">  1        1 0.96316916E-01 0.97482537E+02</pdfrwt>
<pdfrwt beam="2">  1       -1 0.38757498E-02 0.97482537E+02</pdfrwt>
<totfact> 0.80153636E+03</totfact>
</mgrwt>
</event>
<event>
 4    1  0.5015492E-001  0.9198377E+02  0.7546771E-02  0.1298118E+00
          2   -1    0    0  501    0  0.00000000000E+00  0.00000000000E+00  0.11867116250E+02  0.11867116250E+02  0.00000000000E+00 0. -1.
         -2   -1    0    0    0  501 -0.00000000000E+00 -0.00000000000E+00 -0.11148536645E+04  0.11148536645E+04  0.00000000000E+00 0.  1.
         24    1    1    2    0    0  0.41909766710E+02  0.15406779107E+02 -0.21325535399E+03  0.23224740978E+03  0.80419002446E+02 0. -1.
        -24    1    1    2    0    0 -0.41909766710E+02 -0.15406779107E+02 -0.88973119423E+03  0.89447337095E+03  0.80419002446E+02 0.  1.
<mgrwt>
<rscale>  0 0.91983767E+02</rscale>
<asrwt>0</asrwt>
<pdfrwt beam="1">  1        2 0.18257097E-02 0.91983767E+02</pdfrwt>
<pdfrwt beam="2">  1       -2 0.17151599E+00 0.91983767E+02</pdfrwt>
<totfact> 0.12939861E+03</totfact>
</mgrwt>
</event>
<event>
 4    1  0.5015492E-001  0.8243292E+02  0.7546771E-02  0.1322286E+00
         -2   -1    0    0    0  501 -0.00000000000E+00  0.00000000000E+00  0.20667804437E+03  0.20667804437E+03  0.00000000000E+00 0.  1.
          2   -1    0    0  501    0  0.00000000000E+00 -0.00000000000E+00 -0.31232148824E+03  0.31232148824E+03  0.00000000000E+00 0. -1.
         24    1    1    2    0    0  0.11969059294E+02  0.13590871547E+02 -0.29828297100E+03  0.30946391860E+03  0.80419002446E+02 0. -1.
        -24    1    1    2    0    0 -0.11969059294E+02 -0.13590871547E+02  0.19263952713E+03  0.20953561401E+03  0.80419002446E+02 0.  1.
<mgrwt>
<rscale>  0 0.82432919E+02</rscale>
<asrwt>0</asrwt>
<pdfrwt beam="1">  1        2 0.48049460E-01 0.82432919E+02</pdfrwt>
<pdfrwt beam="2">  1       -2 0.31796622E-01 0.82432919E+02</pdfrwt>
<totfact> 0.94217588E+02</totfact>
</mgrwt>
</event>
<event>
 4    1  0.5015492E-001  0.8598810E+02  0.7546771E-02  0.1312869E+00
         -1   -1    0    0    0  501 -0.00000000000E+00  0.00000000000E+00  0.16168777330E+03  0.16168777330E+03  0.00000000000E+00 0.  1.
          1   -1    0    0  501    0  0.00000000000E+00 -0.00000000000E+00 -0.25605348309E+03  0.25605348309E+03  0.00000000000E+00 0. -1.
         24    1    1    2    0    0 -0.16109505425E+02  0.25830619190E+02  0.14211953461E+03  0.16610814286E+03  0.80419002446E+02 0.  1.
        -24    1    1    2    0    0  0.16109505425E+02 -0.25830619190E+02 -0.23648524439E+03  0.25163311353E+03  0.80419002446E+02 0. -1.
<mgrwt>
<rscale>  0 0.85988098E+02</rscale>
<asrwt>0</asrwt>
<pdfrwt beam="1">  1        1 0.39392843E-01 0.85988098E+02</pdfrwt>
<pdfrwt beam="2">  1       -1 0.24875042E-01 0.85988098E+02</pdfrwt>
<totfact> 0.14587159E+03</totfact>
</mgrwt>
</event>
<event>
 4    1  0.5015492E-001  0.9945482E+02  0.7546771E-02  0.1281447E+00
         -1   -1    0    0    0  501 -0.00000000000E+00  0.00000000000E+00  0.44479388320E+02  0.44479388320E+02  0.00000000000E+00 0.  1.
          1   -1    0    0  501    0  0.00000000000E+00 -0.00000000000E+00 -0.23465142361E+03  0.23465142361E+03  0.00000000000E+00 0. -1.
         24    1    1    2    0    0  0.51603957279E+02  0.27587639386E+02 -0.63167759223E+02  0.11781947213E+03  0.80419002446E+02 0.  1.
        -24    1    1    2    0    0 -0.51603957279E+02 -0.27587639386E+02 -0.12700427607E+03  0.16131133980E+03  0.80419002446E+02 0.  0.
<mgrwt>
<rscale>  0 0.99454825E+02</rscale>
<asrwt>0</asrwt>
<pdfrwt beam="1">  1        1 0.36100219E-01 0.99454825E+02</pdfrwt>
<pdfrwt beam="2">  1       -1 0.68429828E-02 0.99454825E+02</pdfrwt>
<totfact> 0.11977471E+04</totfact>
</mgrwt>
</event>
<event>
 4    1  0.5015492E-001  0.8761684E+02  0.7546771E-02  0.1308728E+00
         -1   -1    0    0    0  501 -0.00000000000E+00  0.00000000000E+00  0.58877344436E+03  0.58877344436E+03  0.00000000000E+00 0.  1.
          1   -1    0    0  501    0  0.00000000000E+00 -0.00000000000E+00 -0.30779809965E+02  0.30779809965E+02  0.00000000000E+00 0. -1.
         24    1    1    2    0    0 -0.30035300578E+02 -0.17532125721E+02  0.51418135666E+03  0.52159292384E+03  0.80419002446E+02 0.  1.
        -24    1    1    2    0    0  0.30035300578E+02  0.17532125721E+02  0.43812277734E+02  0.97960330480E+02  0.80419002446E+02 0. -1.
<mgrwt>
<rscale>  0 0.87616840E+02</rscale>
<asrwt>0</asrwt>
<pdfrwt beam="1">  1        1 0.47353558E-02 0.87616840E+02</pdfrwt>
<pdfrwt beam="2">  1       -1 0.90580521E-01 0.87616840E+02</pdfrwt>
<totfact> 0.21303803E+03</totfact>
</mgrwt>
</event>
<event>
 4    1  0.5015492E-001  0.8563588E+02  0.7546771E-02  0.1313778E+00
          2   -1    0    0  501    0  0.00000000000E+00  0.00000000000E+00  0.15490931666E+04  0.15490931666E+04  0.00000000000E+00 0. -1.
         -2   -1    0    0    0  501 -0.00000000000E+00 -0.00000000000E+00 -0.87296919549E+01  0.87296919549E+01  0.00000000000E+00 0.  1.
         24    1    1    2    0    0  0.20719141374E+02 -0.20904662089E+02  0.12971460769E+04  0.12999697876E+04  0.80419002446E+02 0. -1.
        -24    1    1    2    0    0 -0.20719141374E+02  0.20904662089E+02  0.24321739771E+03  0.25785307099E+03  0.80419002446E+02 0.  1.
<mgrwt>
<rscale>  0 0.85635878E+02</rscale>
<asrwt>0</asrwt>
<pdfrwt beam="1">  1        2 0.23832181E+00 0.85635878E+02</pdfrwt>
<pdfrwt beam="2">  1       -2 0.13430308E-02 0.85635878E+02</pdfrwt>
<totfact> 0.16756019E+04</totfact>
</mgrwt>
</event>
<event>
 4    1  0.5015492E-001  0.9937227E+02  0.7546771E-02  0.1281622E+00
          1   -1    0    0  501    0  0.00000000000E+00  0.00000000000E+00  0.69724269976E+03  0.69724269976E+03  0.00000000000E+00 0. -1.
         -1   -1    0    0    0  501 -0.00000000000E+00 -0.00000000000E+00 -0.16116107627E+02  0.16116107627E+02  0.00000000000E+00 0.  1.
         24    1    1    2    0    0 -0.56282078190E+02  0.15490611358E+02  0.21638574386E+03  0.23811265709E+03  0.80419002446E+02 0.  1.
        -24    1    1    2    0    0  0.56282078190E+02 -0.15490611358E+02  0.46474084827E+03  0.47524615030E+03  0.80419002446E+02 0. -1.
<mgrwt>
<rscale>  0 0.99372266E+02</rscale>
<asrwt>0</asrwt>
<pdfrwt beam="1">  1        1 0.10726808E+00 0.99372266E+02</pdfrwt>
<pdfrwt beam="2">  1       -1 0.24794017E-02 0.99372266E+02</pdfrwt>
<totfact> 0.13187398E+04</totfact>
</mgrwt>
</event>
<event>
 4    1  0.5015492E-001  0.1038514E+03  0.7546771E-02  0.1272399E+00
          2   -1    0    0  501    0  0.00000000000E+00  0.00000000000E+00  0.11961448209E+02  0.11961448209E+02  0.00000000000E+00 0. -1.
         -2   -1    0    0    0  501 -0.00000000000E+00 -0.00000000000E+00 -0.96795650268E+03  0.96795650268E+03  0.00000000000E+00 0.  1.
         24    1    1    2    0    0  0.19617975139E+02 -0.62713835449E+02 -0.34976691679E+03  0.36485887976E+03  0.80419002446E+02 0. -1.
        -24    1    1    2    0    0 -0.19617975139E+02  0.62713835449E+02 -0.60622813768E+03  0.61505907113E+03  0.80419002446E+02 0.  1.
<mgrwt>
<rscale>  0 0.10385137E+03</rscale>
<asrwt>0</asrwt>
<pdfrwt beam="1">  1        2 0.18402228E-02 0.10385137E+03</pdfrwt>
<pdfrwt beam="2">  1       -2 0.14891638E+00 0.10385137E+03</pdfrwt>
<totfact> 0.18633161E+03</totfact>
</mgrwt>
</event>
<event>
 4    1  0.5015492E-001  0.9038908E+02  0.7546771E-02  0.1301912E+00
         -1   -1    0    0    0  501 -0.00000000000E+00  0.00000000000E+00  0.20737478230E+02  0.20737478230E+02  0.00000000000E+00 0.  1.
          1   -1    0    0  501    0  0.00000000000E+00 -0.00000000000E+00 -0.82908224483E+03  0.82908224483E+03  0.00000000000E+00 0. -1.
         24    1    1    2    0    0 -0.29811121130E+02  0.28535354068E+02 -0.96355203256E+02  0.13211551962E+03  0.80419002446E+02 0.  1.
        -24    1    1    2    0    0  0.29811121130E+02 -0.28535354068E+02 -0.71198956334E+03  0.71770420344E+03  0.80419002446E+02 0. -1.
<mgrwt>
<rscale>  0 0.90389077E+02</rscale>
<asrwt>0</asrwt>
<pdfrwt beam="1">  1        1 0.12755112E+00 0.90389077E+02</pdfrwt>
<pdfrwt beam="2">  1       -1 0.31903811E-02 0.90389077E+02</pdfrwt>
<totfact> 0.70817321E+03</totfact>
</mgrwt>
</event>
<event>
 4    1  0.5015492E-001  0.8567627E+02  0.7546771E-02  0.1313673E+00
         -2   -1    0    0    0  501 -0.00000000000E+00  0.00000000000E+00  0.47623348672E+01  0.47623348672E+01  0.00000000000E+00 0.  1.
          2   -1    0    0  501    0  0.00000000000E+00 -0.00000000000E+00 -0.16383233187E+04  0.16383233187E+04  0.00000000000E+00 0. -1.
         24    1    1    2    0    0 -0.83704540460E+01  0.28339717589E+02 -0.61690534885E+03  0.62282632370E+03  0.80419002446E+02 0.  0.
        -24    1    1    2    0    0  0.83704540460E+01 -0.28339717589E+02 -0.10166556350E+04  0.10202593299E+04  0.80419002446E+02 0.  0.
<mgrwt>
<rscale>  0 0.85676262E+02</rscale>
<asrwt>0</asrwt>
<pdfrwt beam="1">  1        2 0.25204965E+00 0.85676273E+02</pdfrwt>
<pdfrwt beam="2">  1       -2 0.73266716E-03 0.85676273E+02</pdfrwt>
<totfact> 0.35567739E+04</totfact>
</mgrwt>
</event>
<event>
 4    1  0.5015492E-001  0.8418229E+02  0.7546771E-02  0.1317585E+00
          2   -1    0    0  501    0  0.00000000000E+00  0.00000000000E+00  0.71620307403E+02  0.71620307403E+02  0.00000000000E+00 0. -1.
         -2   -1    0    0    0  501 -0.00000000000E+00 -0.00000000000E+00 -0.13680179480E+03  0.13680179480E+03  0.00000000000E+00 0.  1.
         24    1    1    2    0    0  0.16072805798E+02  0.19002808393E+02  0.22227468283E+02  0.87067319435E+02  0.80419002446E+02 0. -1.
        -24    1    1    2    0    0 -0.16072805798E+02 -0.19002808393E+02 -0.87408955678E+02  0.12135478277E+03  0.80419002446E+02 0.  1.
<mgrwt>
<rscale>  0 0.84182289E+02</rscale>
<asrwt>0</asrwt>
<pdfrwt beam="1">  1        2 0.11018509E-01 0.84182289E+02</pdfrwt>
<pdfrwt beam="2">  1       -2 0.21046430E-01 0.84182289E+02</pdfrwt>
<totfact> 0.98068999E+03</totfact>
</mgrwt>
</event>
<event>
 4    1  0.5015492E-001  0.8735615E+02  0.7546771E-02  0.1309383E+00
          1   -1    0    0  501    0  0.00000000000E+00  0.00000000000E+00  0.79541209324E+03  0.79541209324E+03  0.00000000000E+00 0. -1.
         -1   -1    0    0    0  501 -0.00000000000E+00 -0.00000000000E+00 -0.95938907402E+01  0.95938907402E+01  0.00000000000E+00 0.  1.
         24    1    1    2    0    0 -0.31883835551E+02 -0.12136794948E+02  0.39290563929E+03  0.40249961254E+03  0.80419002446E+02 0.  0.
        -24    1    1    2    0    0  0.31883835551E+02  0.12136794948E+02  0.39291256322E+03  0.40250637144E+03  0.80419002446E+02 0.  1.
<mgrwt>
<rscale>  0 0.87356149E+02</rscale>
<asrwt>0</asrwt>
<pdfrwt beam="1">  1        1 0.12237104E+00 0.87356149E+02</pdfrwt>
<pdfrwt beam="2">  1       -1 0.14759838E-02 0.87356149E+02</pdfrwt>
<totfact> 0.22599887E+04</totfact>
</mgrwt>
</event>
<event>
 4    1  0.5015492E-001  0.9238613E+02  0.7546771E-02  0.1297174E+00
         -2   -1    0    0    0  501 -0.00000000000E+00  0.00000000000E+00  0.27773529806E+02  0.27773529806E+02  0.00000000000E+00 0.  1.
          2   -1    0    0  501    0  0.00000000000E+00 -0.00000000000E+00 -0.14617992224E+04  0.14617992224E+04  0.00000000000E+00 0. -1.
         24    1    1    2    0    0  0.36194297387E+02 -0.27530973604E+02 -0.13788970687E+04  0.13819885396E+04  0.80419002446E+02 0. -1.
        -24    1    1    2    0    0 -0.36194297387E+02  0.27530973604E+02 -0.55128623936E+02  0.10758421261E+03  0.80419002446E+02 0.  1.
<mgrwt>
<rscale>  0 0.92386133E+02</rscale>
<asrwt>0</asrwt>
<pdfrwt beam="1">  1        2 0.22489226E+00 0.92386133E+02</pdfrwt>
<pdfrwt beam="2">  1       -2 0.42728494E-02 0.92386133E+02</pdfrwt>
<totfact> 0.35008728E+03</totfact>
</mgrwt>
</event>
<event>
 4    1  0.5015492E-001  0.8305184E+02  0.7546771E-02  0.1320607E+00
         -1   -1    0    0    0  501 -0.00000000000E+00  0.00000000000E+00  0.63251619532E+01  0.63251619532E+01  0.00000000000E+00 0.  1.
          1   -1    0    0  501    0  0.00000000000E+00 -0.00000000000E+00 -0.14087031846E+04  0.14087031846E+04  0.00000000000E+00 0. -1.
         24    1    1    2    0    0 -0.20436175940E+02  0.35714981261E+01 -0.36492876383E+03  0.37426008538E+03  0.80419002446E+02 0.  0.
        -24    1    1    2    0    0  0.20436175940E+02 -0.35714981261E+01 -0.10374492589E+04  0.10407682612E+04  0.80419002446E+02 0.  1.
<mgrwt>
<rscale>  0 0.83051844E+02</rscale>
<asrwt>0</asrwt>
<pdfrwt beam="1">  1        1 0.21672399E+00 0.83051844E+02</pdfrwt>
<pdfrwt beam="2">  1       -1 0.97309995E-03 0.83051844E+02</pdfrwt>
<totfact> 0.15043177E+04</totfact>
</mgrwt>
</event>
<event>
 4    1  0.5015492E-001  0.8267167E+02  0.7546771E-02  0.1321636E+00
         -1   -1    0    0    0  501 -0.00000000000E+00  0.00000000000E+00  0.53531728553E+02  0.53531728553E+02  0.00000000000E+00 0.  1.
          1   -1    0    0  501    0  0.00000000000E+00 -0.00000000000E+00 -0.14313859447E+03  0.14313859447E+03  0.00000000000E+00 0. -1.
         24    1    1    2    0    0  0.64841557259E+01  0.18037328247E+02 -0.12481233794E+02  0.83608532084E+02  0.80419002446E+02 0.  0.
        -24    1    1    2    0    0 -0.64841557259E+01 -0.18037328247E+02 -0.77125632123E+02  0.11306179094E+03  0.80419002446E+02 0. -1.
<mgrwt>
<rscale>  0 0.82671673E+02</rscale>
<asrwt>0</asrwt>
<pdfrwt beam="1">  1        1 0.22021322E-01 0.82671673E+02</pdfrwt>
<pdfrwt beam="2">  1       -1 0.82356507E-02 0.82671673E+02</pdfrwt>
<totfact> 0.16414683E+04</totfact>
</mgrwt>
</event>
<event>
 4    1  0.5015492E-001  0.1033932E+03  0.7546771E-02  0.1273318E+00
         -2   -1    0    0    0  501 -0.00000000000E+00  0.00000000000E+00  0.11978685670E+02  0.11978685670E+02  0.00000000000E+00 0.  1.
          2   -1    0    0  501    0  0.00000000000E+00 -0.00000000000E+00 -0.11484405544E+04  0.11484405544E+04  0.00000000000E+00 0. -1.
         24    1    1    2    0    0 -0.14938916737E+02  0.63243741476E+02 -0.84217267722E+03  0.84849571377E+03  0.80419002446E+02 0. -1.
        -24    1    1    2    0    0  0.14938916737E+02 -0.63243741476E+02 -0.29428919155E+03  0.31192352635E+03  0.80419002446E+02 0.  1.
<mgrwt>
<rscale>  0 0.10339322E+03</rscale>
<asrwt>0</asrwt>
<pdfrwt beam="1">  1        2 0.17668322E+00 0.10339322E+03</pdfrwt>
<pdfrwt beam="2">  1       -2 0.18428741E-02 0.10339322E+03</pdfrwt>
<totfact> 0.17556822E+04</totfact>
</mgrwt>
</event>
<event>
 4    1  0.5015492E-001  0.8397581E+02  0.7546771E-02  0.1318133E+00
         -1   -1    0    0    0  501 -0.00000000000E+00  0.00000000000E+00  0.30568843620E+03  0.30568843620E+03  0.00000000000E+00 0.  1.
          1   -1    0    0  501    0  0.00000000000E+00 -0.00000000000E+00 -0.23401735826E+02  0.23401735826E+02  0.00000000000E+00 0. -1.
         24    1    1    2    0    0  0.15133355258E+02 -0.18860067763E+02  0.16076291080E+03  0.18137433677E+03  0.80419002446E+02 0.  0.
        -24    1    1    2    0    0 -0.15133355258E+02  0.18860067763E+02  0.12152378958E+03  0.14771583526E+03  0.80419002446E+02 0.  1.
<mgrwt>
<rscale>  0 0.83975809E+02</rscale>
<asrwt>0</asrwt>
<pdfrwt beam="1">  1        1 0.36002673E-02 0.83975809E+02</pdfrwt>
<pdfrwt beam="2">  1       -1 0.47028987E-01 0.83975809E+02</pdfrwt>
<totfact> 0.10862688E+04</totfact>
</mgrwt>
</event>
<event>
 4    1  0.5015492E-001  0.1369327E+03  0.7546771E-02  0.1217517E+00
          1   -1    0    0  501    0  0.00000000000E+00  0.00000000000E+00  0.39354726678E+02  0.39354726678E+02  0.00000000000E+00 0. -1.
         -1   -1    0    0    0  501 -0.00000000000E+00 -0.00000000000E+00 -0.68307278895E+03  0.68307278895E+03  0.00000000000E+00 0.  1.
         24    1    1    2    0    0  0.39619814569E+01  0.11075939497E+03 -0.52052339571E+03  0.53823337160E+03  0.80419002446E+02 0.  1.
        -24    1    1    2    0    0 -0.39619814569E+01 -0.11075939497E+03 -0.12319466656E+03  0.18419414403E+03  0.80419002446E+02 0.  0.
<mgrwt>
<rscale>  0 0.13693267E+03</rscale>
<asrwt>0</asrwt>
<pdfrwt beam="1">  1        1 0.60545736E-02 0.13693267E+03</pdfrwt>
<pdfrwt beam="2">  1       -1 0.10508812E+00 0.13693267E+03</pdfrwt>
<totfact> 0.11288203E+03</totfact>
</mgrwt>
</event>
<event>
 4    1  0.5015492E-001  0.8590559E+02  0.7546771E-02  0.1313081E+00
         -2   -1    0    0    0  501 -0.00000000000E+00  0.00000000000E+00  0.80447230147E+01  0.80447230147E+01  0.00000000000E+00 0.  1.
          2   -1    0    0  501    0  0.00000000000E+00 -0.00000000000E+00 -0.93235422460E+03  0.93235422460E+03  0.00000000000E+00 0. -1.
         24    1    1    2    0    0 -0.57132568104E+01 -0.29663253746E+02 -0.40249138420E+03  0.41155689793E+03  0.80419002446E+02 0.  0.
        -24    1    1    2    0    0  0.57132568104E+01  0.29663253746E+02 -0.52181811739E+03  0.52884204969E+03  0.80419002446E+02 0.  0.
<mgrwt>
<rscale>  0 0.85905574E+02</rscale>
<asrwt>0</asrwt>
<pdfrwt beam="1">  1        2 0.14343901E+00 0.85905585E+02</pdfrwt>
<pdfrwt beam="2">  1       -2 0.12376506E-02 0.85905585E+02</pdfrwt>
<totfact> 0.40640492E+04</totfact>
</mgrwt>
</event>
<event>
 4    1  0.5015492E-001  0.9205638E+02  0.7546771E-02  0.1297947E+00
         -1   -1    0    0    0  501 -0.00000000000E+00  0.00000000000E+00  0.68825274015E+02  0.68825274015E+02  0.00000000000E+00 0.  1.
          1   -1    0    0  501    0  0.00000000000E+00 -0.00000000000E+00 -0.15953923244E+03  0.15953923244E+03  0.00000000000E+00 0. -1.
         24    1    1    2    0    0 -0.44733450234E+02 -0.24656291761E+01  0.91908508910E+01  0.92514045374E+02  0.80419002446E+02 0.  0.
        -24    1    1    2    0    0  0.44733450234E+02  0.24656291761E+01 -0.99904809317E+02  0.13585046108E+03  0.80419002446E+02 0.  1.
<mgrwt>
<rscale>  0 0.92056379E+02</rscale>
<asrwt>0</asrwt>
<pdfrwt beam="1">  1        1 0.24544497E-01 0.92056379E+02</pdfrwt>
<pdfrwt beam="2">  1       -1 0.10588504E-01 0.92056379E+02</pdfrwt>
<totfact> 0.99406132E+03</totfact>
</mgrwt>
</event>
<event>
 4    1  0.5015492E-001  0.8915226E+02  0.7546771E-02  0.1304918E+00
          2   -1    0    0  501    0  0.00000000000E+00  0.00000000000E+00  0.23848182123E+04  0.23848182123E+04  0.00000000000E+00 0. -1.
         -2   -1    0    0    0  501 -0.00000000000E+00 -0.00000000000E+00 -0.49279878478E+01  0.49279878478E+01  0.00000000000E+00 0.  1.
         24    1    1    2    0    0 -0.85696352603E+01 -0.37516264335E+02  0.18697632389E+04  0.18718874683E+04  0.80419002446E+02 0. -1.
        -24    1    1    2    0    0  0.85696352603E+01  0.37516264335E+02  0.51012698560E+03  0.51785873183E+03  0.80419002446E+02 0.  1.
<mgrwt>
<rscale>  0 0.89152256E+02</rscale>
<asrwt>0</asrwt>
<pdfrwt beam="1">  1        2 0.36689419E+00 0.89152256E+02</pdfrwt>
<pdfrwt beam="2">  1       -2 0.75815388E-03 0.89152256E+02</pdfrwt>
<totfact> 0.14272950E+04</totfact>
</mgrwt>
</event>
<event>
 4    1  0.5015492E-001  0.9061960E+02  0.7546771E-02  0.1301358E+00
          2   -1    0    0  501    0  0.00000000000E+00  0.00000000000E+00  0.99133361661E+01  0.99133361661E+01  0.00000000000E+00 0. -1.
         -2   -1    0    0    0  501 -0.00000000000E+00 -0.00000000000E+00 -0.83003107205E+03  0.83003107205E+03  0.00000000000E+00 0.  1.
         24    1    1    2    0    0 -0.48352217979E+01 -0.41488713179E+02 -0.42884724034E+03  0.43831708179E+03  0.80419002446E+02 0.  1.
        -24    1    1    2    0    0  0.48352217979E+01  0.41488713179E+02 -0.39127049554E+03  0.40162732642E+03  0.80419002446E+02 0. -1.
<mgrwt>
<rscale>  0 0.90619593E+02</rscale>
<asrwt>0</asrwt>
<pdfrwt beam="1">  1        2 0.15251281E-02 0.90619605E+02</pdfrwt>
<pdfrwt beam="2">  1       -2 0.12769714E+00 0.90619605E+02</pdfrwt>
<totfact> 0.34738009E+03</totfact>
</mgrwt>
</event>
<event>
 4    1  0.5015492E-001  0.1214952E+03  0.7546771E-02  0.1240651E+00
          2   -1    0    0  501    0  0.00000000000E+00  0.00000000000E+00  0.18740708465E+04  0.18740708465E+04  0.00000000000E+00 0. -1.
         -2   -1    0    0    0  501 -0.00000000000E+00 -0.00000000000E+00 -0.78912244986E+01  0.78912244986E+01  0.00000000000E+00 0.  1.
         24    1    1    2    0    0  0.21854894302E+02 -0.88409383373E+02  0.89240773228E+03  0.90064012350E+03  0.80419002446E+02 0.  1.
        -24    1    1    2    0    0 -0.21854894302E+02  0.88409383373E+02  0.97377188970E+03  0.98132194747E+03  0.80419002446E+02 0. -1.
<mgrwt>
<rscale>  0 0.12149516E+03</rscale>
<asrwt>0</asrwt>
<pdfrwt beam="1">  1        2 0.28831824E+00 0.12149518E+03</pdfrwt>
<pdfrwt beam="2">  1       -2 0.12140360E-02 0.12149518E+03</pdfrwt>
<totfact> 0.13511513E+04</totfact>
</mgrwt>
</event>
<event>
 4    1  0.5015492E-001  0.8284213E+02  0.7546771E-02  0.1321174E+00
          3   -1    0    0  501    0  0.00000000000E+00  0.00000000000E+00  0.74976527418E+02  0.74976527418E+02  0.00000000000E+00 0. -1.
         -3   -1    0    0    0  501 -0.00000000000E+00 -0.00000000000E+00 -0.24670286093E+03  0.24670286093E+03  0.00000000000E+00 0.  1.
         24    1    1    2    0    0 -0.15684253915E+02 -0.12231355774E+02 -0.21342183973E+03  0.22893601620E+03  0.80419002446E+02 0.  1.
        -24    1    1    2    0    0  0.15684253915E+02  0.12231355774E+02  0.41695506216E+02  0.92743372151E+02  0.80419002446E+02 0. -1.
<mgrwt>
<rscale>  0 0.82842126E+02</rscale>
<asrwt>0</asrwt>
<pdfrwt beam="1">  1        3 0.11534850E-01 0.82842126E+02</pdfrwt>
<pdfrwt beam="2">  1       -3 0.37954286E-01 0.82842126E+02</pdfrwt>
<totfact> 0.84637920E+02</totfact>
</mgrwt>
</event>
<event>
 4    1  0.5015492E-001  0.1234267E+03  0.7546771E-02  0.1237549E+00
          2   -1    0    0  501    0  0.00000000000E+00  0.00000000000E+00  0.38038891408E+03  0.38038891408E+03  0.00000000000E+00 0. -1.
         -2   -1    0    0    0  501 -0.00000000000E+00 -0.00000000000E+00 -0.61922329823E+02  0.61922329823E+02  0.00000000000E+00 0.  1.
         24    1    1    2    0    0  0.90042558395E+02 -0.25676077989E+02  0.29067502064E+03  0.31579440603E+03  0.80419002446E+02 0. -1.
        -24    1    1    2    0    0 -0.90042558395E+02  0.25676077989E+02  0.27791563624E+02  0.12651683788E+03  0.80419002446E+02 0.  1.
<mgrwt>
<rscale>  0 0.12342666E+03</rscale>
<asrwt>0</asrwt>
<pdfrwt beam="1">  1        2 0.58521370E-01 0.12342666E+03</pdfrwt>
<pdfrwt beam="2">  1       -2 0.95265125E-02 0.12342666E+03</pdfrwt>
<totfact> 0.57646028E+03</totfact>
</mgrwt>
</event>
<event>
 4    1  0.5015492E-001  0.9429343E+02  0.7546771E-02  0.1292775E+00
         -2   -1    0    0    0  501 -0.00000000000E+00  0.00000000000E+00  0.67478927449E+01  0.67478927449E+01  0.00000000000E+00 0.  1.
          2   -1    0    0  501    0  0.00000000000E+00 -0.00000000000E+00 -0.13218695184E+04  0.13218695184E+04  0.00000000000E+00 0. -1.
         24    1    1    2    0    0 -0.48732303085E+02  0.70141245714E+01 -0.69516545410E+03  0.70153136768E+03  0.80419002446E+02 0. -1.
        -24    1    1    2    0    0  0.48732303085E+02 -0.70141245714E+01 -0.61995617154E+03  0.62708604345E+03  0.80419002446E+02 0.  1.
<mgrwt>
<rscale>  0 0.94293432E+02</rscale>
<asrwt>0</asrwt>
<pdfrwt beam="1">  1        2 0.20336473E+00 0.94293432E+02</pdfrwt>
<pdfrwt beam="2">  1       -2 0.10381364E-02 0.94293432E+02</pdfrwt>
<totfact> 0.31866912E+04</totfact>
</mgrwt>
</event>
<event>
 4    1  0.5015492E-001  0.8873820E+02  0.7546771E-02  0.1305936E+00
         -2   -1    0    0    0  501 -0.00000000000E+00  0.00000000000E+00  0.29972697447E+02  0.29972697447E+02  0.00000000000E+00 0.  1.
          2   -1    0    0  501    0  0.00000000000E+00 -0.00000000000E+00 -0.34513702342E+03  0.34513702342E+03  0.00000000000E+00 0. -1.
         24    1    1    2    0    0 -0.40133414372E+01  0.37298058107E+02 -0.24923320637E+03  0.26455936793E+03  0.80419002446E+02 0. -1.
        -24    1    1    2    0    0  0.40133414372E+01 -0.37298058107E+02 -0.65931119605E+02  0.11055035294E+03  0.80419002446E+02 0.  1.
<mgrwt>
<rscale>  0 0.88738199E+02</rscale>
<asrwt>0</asrwt>
<pdfrwt beam="1">  1        2 0.53098008E-01 0.88738199E+02</pdfrwt>
<pdfrwt beam="2">  1       -2 0.46111838E-02 0.88738199E+02</pdfrwt>
<totfact> 0.18688723E+04</totfact>
</mgrwt>
</event>
<event>
 4    1  0.5015492E-001  0.8446395E+02  0.7546771E-02  0.1316840E+00
          2   -1    0    0  501    0  0.00000000000E+00  0.00000000000E+00  0.16596310001E+04  0.16596310001E+04  0.00000000000E+00 0. -1.
         -2   -1    0    0    0  501 -0.00000000000E+00 -0.00000000000E+00 -0.47217030026E+01  0.47217030026E+01  0.00000000000E+00 0.  1.
         24    1    1    2    0    0 -0.17628372503E+02  0.18872815243E+02  0.10765512548E+04  0.10798596033E+04  0.80419002446E+02 0. -1.
        -24    1    1    2    0    0  0.17628372503E+02 -0.18872815243E+02  0.57835804223E+03  0.58449309974E+03  0.80419002446E+02 0.  1.
<mgrwt>
<rscale>  0 0.84463949E+02</rscale>
<asrwt>0</asrwt>
<pdfrwt beam="1">  1        2 0.25532738E+00 0.84463949E+02</pdfrwt>
<pdfrwt beam="2">  1       -2 0.72641717E-03 0.84463949E+02</pdfrwt>
<totfact> 0.35079306E+04</totfact>
</mgrwt>
</event>
<event>
 4    1  0.5015492E-001  0.8442239E+02  0.7546771E-02  0.1316950E+00
          2   -1    0    0  501    0  0.00000000000E+00  0.00000000000E+00  0.35504036299E+02  0.35504036299E+02  0.00000000000E+00 0. -1.
         -2   -1    0    0    0  501 -0.00000000000E+00 -0.00000000000E+00 -0.23430900760E+03  0.23430900760E+03  0.00000000000E+00 0.  1.
         24    1    1    2    0    0 -0.17610644169E+02 -0.18702637936E+02 -0.48340590974E+02  0.97282846092E+02  0.80419002446E+02 0. -1.
        -24    1    1    2    0    0  0.17610644169E+02  0.18702637936E+02 -0.15046438033E+03  0.17253019781E+03  0.80419002446E+02 0.  1.
<mgrwt>
<rscale>  0 0.84422387E+02</rscale>
<asrwt>0</asrwt>
<pdfrwt beam="1">  1        2 0.54621594E-02 0.84422387E+02</pdfrwt>
<pdfrwt beam="2">  1       -2 0.36047540E-01 0.84422387E+02</pdfrwt>
<totfact> 0.90984023E+03</totfact>
</mgrwt>
</event>
<event>
 4    1  0.5015492E-001  0.8235078E+02  0.7546771E-02  0.1322510E+00
         -1   -1    0    0    0  501 -0.00000000000E+00  0.00000000000E+00  0.46364777638E+01  0.46364777638E+01  0.00000000000E+00 0.  1.
          1   -1    0    0  501    0  0.00000000000E+00 -0.00000000000E+00 -0.16221211758E+04  0.16221211758E+04  0.00000000000E+00 0. -1.
         24    1    1    2    0    0 -0.31206104222E+01 -0.17455566267E+02 -0.55373014832E+03  0.55982026411E+03  0.80419002446E+02 0. -1.
        -24    1    1    2    0    0  0.31206104222E+01  0.17455566267E+02 -0.10637545497E+04  0.10669373894E+04  0.80419002446E+02 0. -1.
<mgrwt>
<rscale>  0 0.82350780E+02</rscale>
<asrwt>0</asrwt>
<pdfrwt beam="1">  1        1 0.24955725E+00 0.82350780E+02</pdfrwt>
<pdfrwt beam="2">  1       -1 0.71330386E-03 0.82350780E+02</pdfrwt>
<totfact> 0.17014162E+04</totfact>
</mgrwt>
</event>
<event>
 4    1  0.5015492E-001  0.8536823E+02  0.7546771E-02  0.1314472E+00
         -3   -1    0    0    0  501 -0.00000000000E+00  0.00000000000E+00  0.72700382509E+03  0.72700382509E+03  0.00000000000E+00 0.  1.
          3   -1    0    0  501    0  0.00000000000E+00 -0.00000000000E+00 -0.12002800496E+02  0.12002800496E+02  0.00000000000E+00 0. -1.
         24    1    1    2    0    0 -0.28278251804E+02 -0.45672263469E+01  0.50751752254E+03  0.51464722939E+03  0.80419002446E+02 0.  1.
        -24    1    1    2    0    0  0.28278251804E+02  0.45672263469E+01  0.20748350206E+03  0.22435939620E+03  0.80419002446E+02 0. -1.
<mgrwt>
<rscale>  0 0.85368232E+02</rscale>
<asrwt>0</asrwt>
<pdfrwt beam="1">  1        3 0.18465853E-02 0.85368232E+02</pdfrwt>
<pdfrwt beam="2">  1       -3 0.11184671E+00 0.85368232E+02</pdfrwt>
<totfact> 0.15876004E+03</totfact>
</mgrwt>
</event>
<event>
 4    1  0.5015492E-001  0.9035864E+02  0.7546771E-02  0.1301986E+00
         -1   -1    0    0    0  501 -0.00000000000E+00  0.00000000000E+00  0.15626047983E+03  0.15626047983E+03  0.00000000000E+00 0.  1.
          1   -1    0    0  501    0  0.00000000000E+00 -0.00000000000E+00 -0.36842851353E+03  0.36842851353E+03  0.00000000000E+00 0. -1.
         24    1    1    2    0    0 -0.20879755071E+02 -0.35517658403E+02  0.13694671362E+03  0.16407037074E+03  0.80419002446E+02 0.  1.
        -24    1    1    2    0    0  0.20879755071E+02  0.35517658403E+02 -0.34911474732E+03  0.36061862262E+03  0.80419002446E+02 0. -1.
<mgrwt>
<rscale>  0 0.90358642E+02</rscale>
<asrwt>0</asrwt>
<pdfrwt beam="1">  1        1 0.56681310E-01 0.90358642E+02</pdfrwt>
<pdfrwt beam="2">  1       -1 0.24040074E-01 0.90358642E+02</pdfrwt>
<totfact> 0.98960884E+02</totfact>
</mgrwt>
</event>
<event>
 4    1  0.5015492E-001  0.8073075E+02  0.7546771E-02  0.1326990E+00
          2   -1    0    0  501    0  0.00000000000E+00  0.00000000000E+00  0.14967270002E+04  0.14967270002E+04  0.00000000000E+00 0. -1.
         -2   -1    0    0    0  501 -0.00000000000E+00 -0.00000000000E+00 -0.17957316732E+02  0.17957316732E+02  0.00000000000E+00 0.  1.
         24    1    1    2    0    0 -0.49153108935E+01  0.51067149090E+01  0.13985379331E+04  0.14008660911E+04  0.80419002446E+02 0. -1.
        -24    1    1    2    0    0  0.49153108935E+01 -0.51067149090E+01  0.80231750371E+02  0.11381822587E+03  0.80419002446E+02 0.  1.
<mgrwt>
<rscale>  0 0.80730755E+02</rscale>
<asrwt>0</asrwt>
<pdfrwt beam="1">  1        2 0.23026559E+00 0.80730755E+02</pdfrwt>
<pdfrwt beam="2">  1       -2 0.27626653E-02 0.80730755E+02</pdfrwt>
<totfact> 0.63213286E+03</totfact>
</mgrwt>
</event>
<event>
 4    1  0.5015492E-001  0.8195998E+02  0.7546771E-02  0.1323580E+00
         -2   -1    0    0    0  501 -0.00000000000E+00  0.00000000000E+00  0.10544032608E+02  0.10544032608E+02  0.00000000000E+00 0.  1.
          2   -1    0    0  501    0  0.00000000000E+00 -0.00000000000E+00 -0.10131154856E+04  0.10131154856E+04  0.00000000000E+00 0. -1.
         24    1    1    2    0    0  0.15747694009E+02  0.14940028223E+01 -0.81310860457E+03  0.81722887901E+03  0.80419002446E+02 0.  0.
        -24    1    1    2    0    0 -0.15747694009E+02 -0.14940028223E+01 -0.18946284838E+03  0.20643063915E+03  0.80419002446E+02 0.  1.
<mgrwt>
<rscale>  0 0.81959977E+02</rscale>
<asrwt>0</asrwt>
<pdfrwt beam="1">  1        2 0.15586397E+00 0.81959977E+02</pdfrwt>
<pdfrwt beam="2">  1       -2 0.16221584E-02 0.81959977E+02</pdfrwt>
<totfact> 0.24661576E+04</totfact>
</mgrwt>
</event>
<event>
 4    1  0.5015492E-001  0.1140528E+03  0.7546771E-02  0.1253244E+00
          2   -1    0    0  501    0  0.00000000000E+00  0.00000000000E+00  0.86476967449E+03  0.86476967449E+03  0.00000000000E+00 0. -1.
         -2   -1    0    0    0  501 -0.00000000000E+00 -0.00000000000E+00 -0.91079261985E+02  0.91079261985E+02  0.00000000000E+00 0.  1.
         24    1    1    2    0    0 -0.34561847344E+02 -0.73118453996E+02  0.82352405269E+03  0.83138433406E+03  0.80419002446E+02 0. -1.
        -24    1    1    2    0    0  0.34561847344E+02  0.73118453996E+02 -0.49833640183E+02  0.12446460242E+03  0.80419002446E+02 0.  1.
<mgrwt>
<rscale>  0 0.11405282E+03</rscale>
<asrwt>0</asrwt>
<pdfrwt beam="1">  1        2 0.13304148E+00 0.11405282E+03</pdfrwt>
<pdfrwt beam="2">  1       -2 0.14012195E-01 0.11405282E+03</pdfrwt>
<totfact> 0.12260692E+03</totfact>
</mgrwt>
</event>
<event>
 4    1  0.5015492E-001  0.9586903E+02  0.7546771E-02  0.1289231E+00
          1   -1    0    0  501    0  0.00000000000E+00  0.00000000000E+00  0.45319787846E+03  0.45319787846E+03  0.00000000000E+00 0. -1.
         -1   -1    0    0    0  501 -0.00000000000E+00 -0.00000000000E+00 -0.20345037964E+02  0.20345037964E+02  0.00000000000E+00 0.  1.
         24    1    1    2    0    0  0.45146271992E+02 -0.26181366515E+02  0.22981052096E+03  0.24900550461E+03  0.80419002446E+02 0.  1.
        -24    1    1    2    0    0 -0.45146271992E+02  0.26181366515E+02  0.20304231953E+03  0.22453741181E+03  0.80419002446E+02 0. -1.
<mgrwt>
<rscale>  0 0.95869015E+02</rscale>
<asrwt>0</asrwt>
<pdfrwt beam="1">  1        1 0.69722743E-01 0.95869027E+02</pdfrwt>
<pdfrwt beam="2">  1       -1 0.31300062E-02 0.95869027E+02</pdfrwt>
<totfact> 0.16643548E+04</totfact>
</mgrwt>
</event>
<event>
 4    1  0.5015492E-001  0.9041233E+02  0.7546771E-02  0.1301856E+00
          2   -1    0    0  501    0  0.00000000000E+00  0.00000000000E+00  0.12473609920E+04  0.12473609920E+04  0.00000000000E+00 0. -1.
         -2   -1    0    0    0  501 -0.00000000000E+00 -0.00000000000E+00 -0.13191785264E+02  0.13191785264E+02  0.00000000000E+00 0.  1.
         24    1    1    2    0    0  0.28006650876E+01  0.41222921817E+02  0.10641923798E+04  0.10680261281E+04  0.80419002446E+02 0. -1.
        -24    1    1    2    0    0 -0.28006650876E+01 -0.41222921817E+02  0.16997682689E+03  0.19252664917E+03  0.80419002446E+02 0.  1.
<mgrwt>
<rscale>  0 0.90412327E+02</rscale>
<asrwt>0</asrwt>
<pdfrwt beam="1">  1        2 0.19190160E+00 0.90412327E+02</pdfrwt>
<pdfrwt beam="2">  1       -2 0.20295064E-02 0.90412327E+02</pdfrwt>
<totfact> 0.13372509E+04</totfact>
</mgrwt>
</event>
<event>
 4    1  0.5015492E-001  0.8531433E+02  0.7546771E-02  0.1314613E+00
          2   -1    0    0  501    0  0.00000000000E+00  0.00000000000E+00  0.11898348411E+03  0.11898348411E+03  0.00000000000E+00 0. -1.
         -2   -1    0    0    0  501 -0.00000000000E+00 -0.00000000000E+00 -0.12033479568E+03  0.12033479568E+03  0.00000000000E+00 0.  1.
         24    1    1    2    0    0 -0.26686986795E+02 -0.99561076104E+01  0.83226325087E+02  0.11918538704E+03  0.80419002446E+02 0. -1.
        -24    1    1    2    0    0  0.26686986795E+02  0.99561076104E+01 -0.84577636655E+02  0.12013289275E+03  0.80419002446E+02 0.  1.
<mgrwt>
<rscale>  0 0.85314332E+02</rscale>
<asrwt>0</asrwt>
<pdfrwt beam="1">  1        2 0.18305151E-01 0.85314332E+02</pdfrwt>
<pdfrwt beam="2">  1       -2 0.18513045E-01 0.85314332E+02</pdfrwt>
<totfact> 0.67463962E+03</totfact>
</mgrwt>
</event>
<event>
 4    1  0.5015492E-001  0.1029691E+03  0.7546771E-02  0.1274173E+00
         -2   -1    0    0    0  501 -0.00000000000E+00  0.00000000000E+00  0.17499671276E+02  0.17499671276E+02  0.00000000000E+00 0.  1.
          2   -1    0    0  501    0  0.00000000000E+00 -0.00000000000E+00 -0.98387783567E+03  0.98387783567E+03  0.00000000000E+00 0. -1.
         24    1    1    2    0    0  0.64078539268E+02  0.54182080811E+01 -0.79353365840E+03  0.80018641524E+03  0.80419002446E+02 0. -1.
        -24    1    1    2    0    0 -0.64078539268E+02 -0.54182080811E+01 -0.17284450599E+03  0.20119109170E+03  0.80419002446E+02 0.  1.
<mgrwt>
<rscale>  0 0.10296908E+03</rscale>
<asrwt>0</asrwt>
<pdfrwt beam="1">  1        2 0.15136586E+00 0.10296908E+03</pdfrwt>
<pdfrwt beam="2">  1       -2 0.26922564E-02 0.10296908E+03</pdfrwt>
<totfact> 0.12609111E+04</totfact>
</mgrwt>
</event>
<event>
 4    1  0.5015492E-001  0.1634525E+03  0.7546771E-02  0.1184853E+00
          2   -1    0    0  501    0  0.00000000000E+00  0.00000000000E+00  0.93349188230E+03  0.93349188230E+03  0.00000000000E+00 0. -1.
         -2   -1    0    0    0  501 -0.00000000000E+00 -0.00000000000E+00 -0.36853589531E+02  0.36853589531E+02  0.00000000000E+00 0.  1.
         24    1    1    2    0    0 -0.88336547610E+02  0.11156232781E+03  0.67764134586E+03  0.69707568327E+03  0.80419002446E+02 0. -1.
        -24    1    1    2    0    0  0.88336547610E+02 -0.11156232781E+03  0.21899694691E+03  0.27326978856E+03  0.80419002446E+02 0.  1.
<mgrwt>
<rscale>  0 0.16345248E+03</rscale>
<asrwt>0</asrwt>
<pdfrwt beam="1">  1        2 0.14361412E+00 0.16345248E+03</pdfrwt>
<pdfrwt beam="2">  1       -2 0.56697837E-02 0.16345248E+03</pdfrwt>
<totfact> 0.45873844E+03</totfact>
</mgrwt>
</event>
<event>
 4    1  0.5015492E-001  0.8881000E+02  0.7546771E-02  0.1305759E+00
         -1   -1    0    0    0  501 -0.00000000000E+00  0.00000000000E+00  0.81193348420E+03  0.81193348420E+03  0.00000000000E+00 0.  1.
          1   -1    0    0  501    0  0.00000000000E+00 -0.00000000000E+00 -0.11220088462E+02  0.11220088462E+02  0.00000000000E+00 0. -1.
         24    1    1    2    0    0  0.34091441561E+02 -0.16055347070E+02  0.55114274783E+03  0.55825222346E+03  0.80419002446E+02 0.  1.
        -24    1    1    2    0    0 -0.34091441561E+02  0.16055347070E+02  0.24957064791E+03  0.26490134920E+03  0.80419002446E+02 0. -1.
<mgrwt>
<rscale>  0 0.88810002E+02</rscale>
<asrwt>0</asrwt>
<pdfrwt beam="1">  1        1 0.17261681E-02 0.88810002E+02</pdfrwt>
<pdfrwt beam="2">  1       -1 0.12491280E+00 0.88810002E+02</pdfrwt>
<totfact> 0.41466035E+03</totfact>
</mgrwt>
</event>
<event>
 4    1  0.5015492E-001  0.1004091E+03  0.7546771E-02  0.1279438E+00
          3   -1    0    0  501    0  0.00000000000E+00  0.00000000000E+00  0.68884164378E+02  0.68884164378E+02  0.00000000000E+00 0. -1.
         -3   -1    0    0    0  501 -0.00000000000E+00 -0.00000000000E+00 -0.34484591603E+03  0.34484591603E+03  0.00000000000E+00 0.  1.
         24    1    1    2    0    0  0.11142662805E+02  0.59081449884E+02 -0.29492234648E+03  0.31154643805E+03  0.80419002446E+02 0.  1.
        -24    1    1    2    0    0 -0.11142662805E+02 -0.59081449884E+02  0.18960594827E+02  0.10218364236E+03  0.80419002446E+02 0. -1.
<mgrwt>
<rscale>  0 0.10040913E+03</rscale>
<asrwt>0</asrwt>
<pdfrwt beam="1">  1        3 0.10597564E-01 0.10040913E+03</pdfrwt>
<pdfrwt beam="2">  1       -3 0.53053217E-01 0.10040913E+03</pdfrwt>
<totfact> 0.52502567E+02</totfact>
</mgrwt>
</event>
<event>
 4    1  0.5015492E-001  0.1013721E+03  0.7546771E-02  0.1277437E+00
          2   -1    0    0  501    0  0.00000000000E+00  0.00000000000E+00  0.31647292986E+04  0.31647292986E+04  0.00000000000E+00 0. -1.
         -2   -1    0    0    0  501 -0.00000000000E+00 -0.00000000000E+00 -0.13401708276E+02  0.13401708276E+02  0.00000000000E+00 0.  1.
         24    1    1    2    0    0  0.50922341130E+01 -0.61507362188E+02  0.29588879506E+04  0.29606239556E+04  0.80419002446E+02 0. -1.
        -24    1    1    2    0    0 -0.50922341130E+01  0.61507362188E+02  0.19243963970E+03  0.21750705123E+03  0.80419002446E+02 0.  1.
<mgrwt>
<rscale>  0 0.10137210E+03</rscale>
<asrwt>0</asrwt>
<pdfrwt beam="1">  1        2 0.48688083E+00 0.10137210E+03</pdfrwt>
<pdfrwt beam="2">  1       -2 0.20618038E-02 0.10137210E+03</pdfrwt>
<totfact> 0.12797424E+03</totfact>
</mgrwt>
</event>
<event>
 4    1  0.5015492E-001  0.9218675E+02  0.7546771E-02  0.1297641E+00
         -1   -1    0    0    0  501 -0.00000000000E+00  0.00000000000E+00  0.46996804063E+02  0.46996804063E+02  0.00000000000E+00 0.  1.
          1   -1    0    0  501    0  0.00000000000E+00 -0.00000000000E+00 -0.18443727033E+03  0.18443727033E+03  0.00000000000E+00 0. -1.
         24    1    1    2    0    0  0.21708277278E+02 -0.39495974493E+02 -0.52535449272E+02  0.10610546964E+03  0.80419002446E+02 0.  1.
        -24    1    1    2    0    0 -0.21708277278E+02  0.39495974493E+02 -0.84905016994E+02  0.12532860475E+03  0.80419002446E+02 0. -1.
<mgrwt>
<rscale>  0 0.92186752E+02</rscale>
<asrwt>0</asrwt>
<pdfrwt beam="1">  1        1 0.28374965E-01 0.92186752E+02</pdfrwt>
<pdfrwt beam="2">  1       -1 0.72302775E-02 0.92186752E+02</pdfrwt>
<totfact> 0.14726559E+04</totfact>
</mgrwt>
</event>
<event>
 4    1  0.5015492E-001  0.8618789E+02  0.7546771E-02  0.1312355E+00
          2   -1    0    0  501    0  0.00000000000E+00  0.00000000000E+00  0.10418034722E+03  0.10418034722E+03  0.00000000000E+00 0. -1.
         -2   -1    0    0    0  501 -0.00000000000E+00 -0.00000000000E+00 -0.74524089108E+02  0.74524089108E+02  0.00000000000E+00 0.  1.
         24    1    1    2    0    0  0.29954701600E+02  0.79907819109E+01  0.33404907655E+02  0.92435061277E+02  0.80419002446E+02 0.  1.
        -24    1    1    2    0    0 -0.29954701600E+02 -0.79907819109E+01 -0.37486495461E+01  0.86269375049E+02  0.80419002446E+02 0. -1.
<mgrwt>
<rscale>  0 0.86187892E+02</rscale>
<asrwt>0</asrwt>
<pdfrwt beam="1">  1        2 0.16027746E-01 0.86187892E+02</pdfrwt>
<pdfrwt beam="2">  1       -2 0.11465244E-01 0.86187892E+02</pdfrwt>
<totfact> 0.16996644E+04</totfact>
</mgrwt>
</event>
<event>
 4    1  0.5015492E-001  0.8446198E+02  0.7546771E-02  0.1316846E+00
         -1   -1    0    0    0  501 -0.00000000000E+00  0.00000000000E+00  0.10926149387E+02  0.10926149387E+02  0.00000000000E+00 0.  1.
          1   -1    0    0  501    0  0.00000000000E+00 -0.00000000000E+00 -0.70740846995E+03  0.70740846995E+03  0.00000000000E+00 0. -1.
         24    1    1    2    0    0  0.18938690961E+02  0.17548108149E+02 -0.24855348332E+03  0.26251220951E+03  0.80419002446E+02 0.  1.
        -24    1    1    2    0    0 -0.18938690961E+02 -0.17548108149E+02 -0.44792883724E+03  0.45582240983E+03  0.80419002446E+02 0. -1.
<mgrwt>
<rscale>  0 0.84461980E+02</rscale>
<asrwt>0</asrwt>
<pdfrwt beam="1">  1        1 0.10883209E+00 0.84461980E+02</pdfrwt>
<pdfrwt beam="2">  1       -1 0.16809457E-02 0.84461980E+02</pdfrwt>
<totfact> 0.22176860E+04</totfact>
</mgrwt>
</event>
<event>
 4    1  0.5015492E-001  0.9537804E+02  0.7546771E-02  0.1290327E+00
         -1   -1    0    0    0  501 -0.00000000000E+00  0.00000000000E+00  0.86959788786E+02  0.86959788786E+02  0.00000000000E+00 0.  1.
          1   -1    0    0  501    0  0.00000000000E+00 -0.00000000000E+00 -0.14001135929E+03  0.14001135929E+03  0.00000000000E+00 0. -1.
         24    1    1    2    0    0 -0.43269921261E+02 -0.27522128232E+02  0.30538122528E+02  0.10014762359E+03  0.80419002446E+02 0.  1.
        -24    1    1    2    0    0  0.43269921261E+02  0.27522128232E+02 -0.83589693037E+02  0.12682352449E+03  0.80419002446E+02 0. -1.
<mgrwt>
<rscale>  0 0.95378035E+02</rscale>
<asrwt>0</asrwt>
<pdfrwt beam="1">  1        1 0.21540209E-01 0.95378035E+02</pdfrwt>
<pdfrwt beam="2">  1       -1 0.13378429E-01 0.95378035E+02</pdfrwt>
<totfact> 0.82095531E+03</totfact>
</mgrwt>
</event>
<event>
 4    1  0.5015492E-001  0.8766636E+02  0.7546771E-02  0.1308603E+00
          1   -1    0    0  501    0  0.00000000000E+00  0.00000000000E+00  0.58263972176E+03  0.58263972176E+03  0.00000000000E+00 0. -1.
         -1   -1    0    0    0  501 -0.00000000000E+00 -0.00000000000E+00 -0.26460503546E+02  0.26460503546E+02  0.00000000000E+00 0.  1.
         24    1    1    2    0    0  0.23268832433E+02 -0.26014166280E+02  0.62418026409E+02  0.10761691960E+03  0.80419002446E+02 0.  1.
        -24    1    1    2    0    0 -0.23268832433E+02  0.26014166280E+02  0.49376119181E+03  0.50148330571E+03  0.80419002446E+02 0. -1.
<mgrwt>
<rscale>  0 0.87666364E+02</rscale>
<asrwt>0</asrwt>
<pdfrwt beam="1">  1        1 0.89636870E-01 0.87666364E+02</pdfrwt>
<pdfrwt beam="2">  1       -1 0.40708471E-02 0.87666364E+02</pdfrwt>
<totfact> 0.81577051E+03</totfact>
</mgrwt>
</event>
<event>
 4    1  0.5015492E-001  0.9057181E+02  0.7546771E-02  0.1301473E+00
          1   -1    0    0  501    0  0.00000000000E+00  0.00000000000E+00  0.29093368258E+03  0.29093368258E+03  0.00000000000E+00 0. -1.
         -1   -1    0    0    0  501 -0.00000000000E+00 -0.00000000000E+00 -0.28312694816E+02  0.28312694816E+02  0.00000000000E+00 0.  1.
         24    1    1    2    0    0  0.41627015628E+02 -0.17965292184E+01  0.12107563717E+03  0.15120370967E+03  0.80419002446E+02 0.  1.
        -24    1    1    2    0    0 -0.41627015628E+02  0.17965292184E+01  0.14154535059E+03  0.16804266773E+03  0.80419002446E+02 0. -1.
<mgrwt>
<rscale>  0 0.90571805E+02</rscale>
<asrwt>0</asrwt>
<pdfrwt beam="1">  1        1 0.44759026E-01 0.90571805E+02</pdfrwt>
<pdfrwt beam="2">  1       -1 0.43557994E-02 0.90571805E+02</pdfrwt>
<totfact> 0.17733179E+04</totfact>
</mgrwt>
</event>
<event>
 4    1  0.5015492E-001  0.9611836E+02  0.7546771E-02  0.1288677E+00
         -1   -1    0    0    0  501 -0.00000000000E+00  0.00000000000E+00  0.12932605659E+02  0.12932605659E+02  0.00000000000E+00 0.  1.
          1   -1    0    0  501    0  0.00000000000E+00 -0.00000000000E+00 -0.80417940648E+03  0.80417940648E+03  0.00000000000E+00 0. -1.
         24    1    1    2    0    0  0.34967938976E+01 -0.52528995353E+02 -0.25909521405E+03  0.27634954101E+03  0.80419002446E+02 0.  1.
        -24    1    1    2    0    0 -0.34967938976E+01  0.52528995353E+02 -0.53215158677E+03  0.54076247113E+03  0.80419002446E+02 0. -1.
<mgrwt>
<rscale>  0 0.96118359E+02</rscale>
<asrwt>0</asrwt>
<pdfrwt beam="1">  1        1 0.12371998E+00 0.96118359E+02</pdfrwt>
<pdfrwt beam="2">  1       -1 0.19896304E-02 0.96118359E+02</pdfrwt>
<totfact> 0.14663602E+04</totfact>
</mgrwt>
</event>
<event>
 4    1  0.5015492E-001  0.9650776E+02  0.7546771E-02  0.1287816E+00
         -2   -1    0    0    0  501 -0.00000000000E+00  0.00000000000E+00  0.10705340287E+02  0.10705340287E+02  0.00000000000E+00 0.  1.
          2   -1    0    0  501    0  0.00000000000E+00 -0.00000000000E+00 -0.87293331227E+03  0.87293331227E+03  0.00000000000E+00 0. -1.
         24    1    1    2    0    0 -0.39791203314E+02  0.35541405630E+02 -0.45668405120E+03  0.46676982545E+03  0.80419002446E+02 0. -1.
        -24    1    1    2    0    0  0.39791203314E+02 -0.35541405630E+02 -0.40554392079E+03  0.41686882711E+03  0.80419002446E+02 0.  1.
<mgrwt>
<rscale>  0 0.96507758E+02</rscale>
<asrwt>0</asrwt>
<pdfrwt beam="1">  1        2 0.13429747E+00 0.96507758E+02</pdfrwt>
<pdfrwt beam="2">  1       -2 0.16469749E-02 0.96507758E+02</pdfrwt>
<totfact> 0.29789074E+04</totfact>
</mgrwt>
</event>
<event>
 4    1  0.5015492E-001  0.8096009E+02  0.7546771E-02  0.1326349E+00
         -2   -1    0    0    0  501 -0.00000000000E+00  0.00000000000E+00  0.21343826813E+02  0.21343826813E+02  0.00000000000E+00 0.  1.
          2   -1    0    0  501    0  0.00000000000E+00 -0.00000000000E+00 -0.31726892489E+03  0.31726892489E+03  0.00000000000E+00 0. -1.
         24    1    1    2    0    0 -0.16549120589E-01  0.93443129047E+01 -0.11764082539E+03  0.14280719944E+03  0.80419002446E+02 0.  0.
        -24    1    1    2    0    0  0.16549120589E-01 -0.93443129047E+01 -0.17828427269E+03  0.19580555227E+03  0.80419002446E+02 0. -1.
<mgrwt>
<rscale>  0 0.80960077E+02</rscale>
<asrwt>0</asrwt>
<pdfrwt beam="1">  1        2 0.48810602E-01 0.80960087E+02</pdfrwt>
<pdfrwt beam="2">  1       -2 0.32836658E-02 0.80960087E+02</pdfrwt>
<totfact> 0.33215985E+04</totfact>
</mgrwt>
</event>
<event>
 4    1  0.5015492E-001  0.8264602E+02  0.7546771E-02  0.1321706E+00
          1   -1    0    0  501    0  0.00000000000E+00  0.00000000000E+00  0.60140679382E+02  0.60140679382E+02  0.00000000000E+00 0. -1.
         -1   -1    0    0    0  501 -0.00000000000E+00 -0.00000000000E+00 -0.13020508232E+03  0.13020508232E+03  0.00000000000E+00 0.  1.
         24    1    1    2    0    0 -0.18980270738E+02  0.17025299726E+01 -0.69047231109E+02  0.10769347874E+03  0.80419002446E+02 0.  0.
        -24    1    1    2    0    0  0.18980270738E+02 -0.17025299726E+01 -0.10171718302E+01  0.82652282960E+02  0.80419002446E+02 0. -1.
<mgrwt>
<rscale>  0 0.82646024E+02</rscale>
<asrwt>0</asrwt>
<pdfrwt beam="1">  1        1 0.92524122E-02 0.82646024E+02</pdfrwt>
<pdfrwt beam="2">  1       -1 0.20031551E-01 0.82646024E+02</pdfrwt>
<totfact> 0.12744044E+04</totfact>
</mgrwt>
</event>
<event>
 4    1  0.5015492E-001  0.9148928E+02  0.7546771E-02  0.1299285E+00
         -1   -1    0    0    0  501 -0.00000000000E+00  0.00000000000E+00  0.17436763787E+03  0.17436763787E+03  0.00000000000E+00 0.  1.
          1   -1    0    0  501    0  0.00000000000E+00 -0.00000000000E+00 -0.54514106807E+02  0.54514106807E+02  0.00000000000E+00 0. -1.
         24    1    1    2    0    0  0.16285064665E+02 -0.40470591522E+02  0.99475399105E+02  0.13515044614E+03  0.80419002446E+02 0.  0.
        -24    1    1    2    0    0 -0.16285064665E+02  0.40470591522E+02  0.20378131956E+02  0.93731298538E+02  0.80419002446E+02 0.  0.
<mgrwt>
<rscale>  0 0.91489278E+02</rscale>
<asrwt>0</asrwt>
<pdfrwt beam="1">  1        1 0.83867857E-02 0.91489278E+02</pdfrwt>
<pdfrwt beam="2">  1       -1 0.26825790E-01 0.91489278E+02</pdfrwt>
<totfact> 0.91555469E+03</totfact>
</mgrwt>
</event>
<event>
 4    1  0.5015492E-001  0.8675310E+02  0.7546771E-02  0.1310911E+00
          2   -1    0    0  501    0  0.00000000000E+00  0.00000000000E+00  0.13121125801E+04  0.13121125801E+04  0.00000000000E+00 0. -1.
         -2   -1    0    0    0  501 -0.00000000000E+00 -0.00000000000E+00 -0.14296996071E+02  0.14296996071E+02  0.00000000000E+00 0.  1.
         24    1    1    2    0    0  0.73893299668E+01 -0.31690403859E+02  0.11621127485E+04  0.11653463606E+04  0.80419002446E+02 0. -1.
        -24    1    1    2    0    0 -0.73893299668E+01  0.31690403859E+02  0.13570283547E+03  0.16106321555E+03  0.80419002446E+02 0.  1.
<mgrwt>
<rscale>  0 0.86753097E+02</rscale>
<asrwt>0</asrwt>
<pdfrwt beam="1">  1        2 0.20186338E+00 0.86753097E+02</pdfrwt>
<pdfrwt beam="2">  1       -2 0.21995389E-02 0.86753097E+02</pdfrwt>
<totfact> 0.10976397E+04</totfact>
</mgrwt>
</event>
<event>
 4    1  0.5015492E-001  0.8454997E+02  0.7546771E-02  0.1316614E+00
          2   -1    0    0  501    0  0.00000000000E+00  0.00000000000E+00  0.44124919433E+03  0.44124919433E+03  0.00000000000E+00 0. -1.
         -2   -1    0    0    0  501 -0.00000000000E+00 -0.00000000000E+00 -0.16259891937E+02  0.16259891937E+02  0.00000000000E+00 0.  1.
         24    1    1    2    0    0 -0.21847425758E+02  0.14288720258E+02  0.19873171921E+03  0.21596988149E+03  0.80419002446E+02 0. -1.
        -24    1    1    2    0    0  0.21847425758E+02 -0.14288720258E+02  0.22625758319E+03  0.24153920478E+03  0.80419002446E+02 0.  1.
<mgrwt>
<rscale>  0 0.84549957E+02</rscale>
<asrwt>0</asrwt>
<pdfrwt beam="1">  1        2 0.67884482E-01 0.84549968E+02</pdfrwt>
<pdfrwt beam="2">  1       -2 0.25015222E-02 0.84549968E+02</pdfrwt>
<totfact> 0.35054334E+04</totfact>
</mgrwt>
</event>
<event>
 4    1  0.5015492E-001  0.1008991E+03  0.7546771E-02  0.1278417E+00
         -2   -1    0    0    0  501 -0.00000000000E+00  0.00000000000E+00  0.31010228134E+03  0.31010228134E+03  0.00000000000E+00 0.  1.
          2   -1    0    0  501    0  0.00000000000E+00 -0.00000000000E+00 -0.41068390926E+02  0.41068390926E+02  0.00000000000E+00 0. -1.
         24    1    1    2    0    0 -0.31598095359E+02  0.52105396113E+02  0.55874293594E+02  0.11533674425E+03  0.80419002446E+02 0. -1.
        -24    1    1    2    0    0  0.31598095359E+02 -0.52105396113E+02  0.21315959682E+03  0.23583392802E+03  0.80419002446E+02 0.  1.
<mgrwt>
<rscale>  0 0.10089910E+03</rscale>
<asrwt>0</asrwt>
<pdfrwt beam="1">  1        2 0.63182142E-02 0.10089910E+03</pdfrwt>
<pdfrwt beam="2">  1       -2 0.47708042E-01 0.10089910E+03</pdfrwt>
<totfact> 0.45232174E+03</totfact>
</mgrwt>
</event>
<event>
 4    1  0.5015492E-001  0.8428192E+02  0.7546771E-02  0.1317321E+00
          2   -1    0    0  501    0  0.00000000000E+00  0.00000000000E+00  0.10390945958E+04  0.10390945958E+04  0.00000000000E+00 0. -1.
         -2   -1    0    0    0  501 -0.00000000000E+00 -0.00000000000E+00 -0.71148732812E+01  0.71148732812E+01  0.00000000000E+00 0.  1.
         24    1    1    2    0    0  0.16208178424E+02 -0.19326704761E+02  0.61951949974E+03  0.62522624152E+03  0.80419002446E+02 0.  0.
        -24    1    1    2    0    0 -0.16208178424E+02  0.19326704761E+02  0.41246022282E+03  0.42098322761E+03  0.80419002446E+02 0.  0.
<mgrwt>
<rscale>  0 0.84281923E+02</rscale>
<asrwt>0</asrwt>
<pdfrwt beam="1">  1        2 0.15986059E+00 0.84281923E+02</pdfrwt>
<pdfrwt beam="2">  1       -2 0.10945967E-02 0.84281923E+02</pdfrwt>
<totfact> 0.41761457E+04</totfact>
</mgrwt>
</event>
<event>
 4    1  0.5015492E-001  0.8927923E+02  0.7546771E-02  0.1304607E+00
         -2   -1    0    0    0  501 -0.00000000000E+00  0.00000000000E+00  0.21823388233E+02  0.21823388233E+02  0.00000000000E+00 0.  1.
          2   -1    0    0  501    0  0.00000000000E+00 -0.00000000000E+00 -0.64160132775E+03  0.64160132775E+03  0.00000000000E+00 0. -1.
         24    1    1    2    0    0  0.72570048879E+01 -0.38090689232E+02 -0.52759348210E+03  0.53509406934E+03  0.80419002446E+02 0. -1.
        -24    1    1    2    0    0 -0.72570048879E+01  0.38090689232E+02 -0.92184457417E+02  0.12833064665E+03  0.80419002446E+02 0.  1.
<mgrwt>
<rscale>  0 0.89279229E+02</rscale>
<asrwt>0</asrwt>
<pdfrwt beam="1">  1        2 0.98707890E-01 0.89279229E+02</pdfrwt>
<pdfrwt beam="2">  1       -2 0.33574446E-02 0.89279229E+02</pdfrwt>
<totfact> 0.15282570E+04</totfact>
</mgrwt>
</event>
<event>
 4    1  0.5015492E-001  0.9541109E+02  0.7546771E-02  0.1290253E+00
         -2   -1    0    0    0  501 -0.00000000000E+00  0.00000000000E+00  0.57737113568E+01  0.57737113568E+01  0.00000000000E+00 0.  1.
          2   -1    0    0  501    0  0.00000000000E+00 -0.00000000000E+00 -0.22917751458E+04  0.22917751458E+04  0.00000000000E+00 0. -1.
         24    1    1    2    0    0 -0.76700787902E+01  0.50766418513E+02 -0.17847002443E+04  0.17872487900E+04  0.80419002446E+02 0. -1.
        -24    1    1    2    0    0  0.76700787902E+01 -0.50766418513E+02 -0.50130119008E+03  0.51030006711E+03  0.80419002446E+02 0.  1.
<mgrwt>
<rscale>  0 0.95411086E+02</rscale>
<asrwt>0</asrwt>
<pdfrwt beam="1">  1        2 0.35258135E+00 0.95411086E+02</pdfrwt>
<pdfrwt beam="2">  1       -2 0.88826187E-03 0.95411086E+02</pdfrwt>
<totfact> 0.12782392E+04</totfact>
</mgrwt>
</event>
<event>
 4    1  0.5015492E-001  0.8814600E+02  0.7546771E-02  0.1307405E+00
         -1   -1    0    0    0  501 -0.00000000000E+00  0.00000000000E+00  0.38330089827E+02  0.38330089827E+02  0.00000000000E+00 0.  1.
          1   -1    0    0  501    0  0.00000000000E+00 -0.00000000000E+00 -0.42858091579E+03  0.42858091579E+03  0.00000000000E+00 0. -1.
         24    1    1    2    0    0 -0.35282974146E+02 -0.75903036963E+01 -0.25643927819E+02  0.91800479101E+02  0.80419002446E+02 0.  1.
        -24    1    1    2    0    0  0.35282974146E+02  0.75903036963E+01 -0.36460689814E+03  0.37511052651E+03  0.80419002446E+02 0. -1.
<mgrwt>
<rscale>  0 0.88145998E+02</rscale>
<asrwt>0</asrwt>
<pdfrwt beam="1">  1        1 0.65935530E-01 0.88145998E+02</pdfrwt>
<pdfrwt beam="2">  1       -1 0.58969365E-02 0.88145998E+02</pdfrwt>
<totfact> 0.70466100E+03</totfact>
</mgrwt>
</event>
<event>
 4    1  0.5015492E-001  0.8573072E+02  0.7546771E-02  0.1313533E+00
         -2   -1    0    0    0  501 -0.00000000000E+00  0.00000000000E+00  0.50534090146E+03  0.50534090146E+03  0.00000000000E+00 0.  1.
          2   -1    0    0  501    0  0.00000000000E+00 -0.00000000000E+00 -0.57823980040E+02  0.57823980040E+02  0.00000000000E+00 0. -1.
         24    1    1    2    0    0  0.16417285715E+02  0.24759103680E+02 -0.19851098749E+02  0.87998991819E+02  0.80419002446E+02 0. -1.
        -24    1    1    2    0    0 -0.16417285715E+02 -0.24759103680E+02  0.46736802017E+03  0.47516588968E+03  0.80419002446E+02 0.  1.
<mgrwt>
<rscale>  0 0.85730721E+02</rscale>
<asrwt>0</asrwt>
<pdfrwt beam="1">  1        2 0.88959973E-02 0.85730721E+02</pdfrwt>
<pdfrwt beam="2">  1       -2 0.77744751E-01 0.85730721E+02</pdfrwt>
<totfact> 0.10737009E+03</totfact>
</mgrwt>
</event>
<event>
 4    1  0.5015492E-001  0.8140071E+02  0.7546771E-02  0.1325123E+00
          4   -1    0    0  501    0  0.00000000000E+00  0.00000000000E+00  0.99218256119E+02  0.99218256119E+02  0.00000000000E+00 0. -1.
         -4   -1    0    0    0  501 -0.00000000000E+00 -0.00000000000E+00 -0.69822551288E+02  0.69822551288E+02  0.00000000000E+00 0.  1.
         24    1    1    2    0    0  0.57563121844E+01  0.11212529613E+02 -0.29374733896E+01  0.81453671830E+02  0.80419002446E+02 0.  0.
        -24    1    1    2    0    0 -0.57563121844E+01 -0.11212529613E+02  0.32333178221E+02  0.87587135577E+02  0.80419002446E+02 0. -1.
<mgrwt>
<rscale>  0 0.81400698E+02</rscale>
<asrwt>0</asrwt>
<pdfrwt beam="1">  1        4 0.15264347E-01 0.81400708E+02</pdfrwt>
<pdfrwt beam="2">  1       -4 0.10741931E-01 0.81400708E+02</pdfrwt>
<totfact> 0.35108928E+03</totfact>
</mgrwt>
</event>
<event>
 4    1  0.5015492E-001  0.8385696E+02  0.7546771E-02  0.1318449E+00
          4   -1    0    0  501    0  0.00000000000E+00  0.00000000000E+00  0.10698434767E+03  0.10698434767E+03  0.00000000000E+00 0. -1.
         -4   -1    0    0    0  501 -0.00000000000E+00 -0.00000000000E+00 -0.83133035448E+02  0.83133035448E+02  0.00000000000E+00 0.  1.
         24    1    1    2    0    0 -0.17633912791E+02  0.15931704871E+02  0.55419535128E+02  0.10051524724E+03  0.80419002446E+02 0.  0.
        -24    1    1    2    0    0  0.17633912791E+02 -0.15931704871E+02 -0.31568222909E+02  0.89602135870E+02  0.80419002446E+02 0.  1.
<mgrwt>
<rscale>  0 0.83856962E+02</rscale>
<asrwt>0</asrwt>
<pdfrwt beam="1">  1        4 0.16459130E-01 0.83856962E+02</pdfrwt>
<pdfrwt beam="2">  1       -4 0.12789698E-01 0.83856962E+02</pdfrwt>
<totfact> 0.23136582E+03</totfact>
</mgrwt>
</event>
<event>
 4    1  0.5015492E-001  0.8892342E+02  0.7546771E-02  0.1305480E+00
          1   -1    0    0  501    0  0.00000000000E+00  0.00000000000E+00  0.23128279005E+03  0.23128279005E+03  0.00000000000E+00 0. -1.
         -1   -1    0    0    0  501 -0.00000000000E+00 -0.00000000000E+00 -0.35619018490E+02  0.35619018490E+02  0.00000000000E+00 0.  1.
         24    1    1    2    0    0 -0.81215705168E+01  0.37070128865E+02  0.12456952969E+03  0.15305207625E+03  0.80419002446E+02 0.  0.
        -24    1    1    2    0    0  0.81215705168E+01 -0.37070128865E+02  0.71094241867E+02  0.11384973229E+03  0.80419002446E+02 0.  0.
<mgrwt>
<rscale>  0 0.88923407E+02</rscale>
<asrwt>0</asrwt>
<pdfrwt beam="1">  1        1 0.35581967E-01 0.88923418E+02</pdfrwt>
<pdfrwt beam="2">  1       -1 0.54798491E-02 0.88923418E+02</pdfrwt>
<totfact> 0.16739408E+04</totfact>
</mgrwt>
</event>
<event>
 4    1  0.5015492E-001  0.8270610E+02  0.7546771E-02  0.1321543E+00
          1   -1    0    0  501    0  0.00000000000E+00  0.00000000000E+00  0.17412852460E+03  0.17412852460E+03  0.00000000000E+00 0. -1.
         -1   -1    0    0    0  501 -0.00000000000E+00 -0.00000000000E+00 -0.41902337029E+02  0.41902337029E+02  0.00000000000E+00 0.  1.
         24    1    1    2    0    0  0.17701806325E+02  0.77284490975E+01  0.39107199451E+02  0.91485910805E+02  0.80419002446E+02 0.  1.
        -24    1    1    2    0    0 -0.17701806325E+02 -0.77284490975E+01  0.93118988121E+02  0.12454495082E+03  0.80419002446E+02 0. -1.
<mgrwt>
<rscale>  0 0.82706099E+02</rscale>
<asrwt>0</asrwt>
<pdfrwt beam="1">  1        1 0.26789003E-01 0.82706099E+02</pdfrwt>
<pdfrwt beam="2">  1       -1 0.64465135E-02 0.82706099E+02</pdfrwt>
<totfact> 0.18515940E+04</totfact>
</mgrwt>
</event>
<event>
 4    1  0.5015492E-001  0.1045083E+03  0.7546771E-02  0.1271091E+00
          2   -1    0    0  501    0  0.00000000000E+00  0.00000000000E+00  0.12372046391E+04  0.12372046391E+04  0.00000000000E+00 0. -1.
         -2   -1    0    0    0  501 -0.00000000000E+00 -0.00000000000E+00 -0.88508735900E+01  0.88508735900E+01  0.00000000000E+00 0.  1.
         24    1    1    2    0    0  0.23871116181E+02  0.62329193233E+02  0.58246636866E+03  0.59176772900E+03  0.80419002446E+02 0.  0.
        -24    1    1    2    0    0 -0.23871116181E+02 -0.62329193233E+02  0.64588739690E+03  0.65428778373E+03  0.80419002446E+02 0.  1.
<mgrwt>
<rscale>  0 0.10450826E+03</rscale>
<asrwt>0</asrwt>
<pdfrwt beam="1">  1        2 0.19033904E+00 0.10450828E+03</pdfrwt>
<pdfrwt beam="2">  1       -2 0.13616738E-02 0.10450828E+03</pdfrwt>
<totfact> 0.24242708E+04</totfact>
</mgrwt>
</event>
<event>
 4    1  0.5015492E-001  0.8721257E+02  0.7546771E-02  0.1309746E+00
         -1   -1    0    0    0  501 -0.00000000000E+00  0.00000000000E+00  0.98657958984E+01  0.98657958984E+01  0.00000000000E+00 0.  1.
          1   -1    0    0  501    0  0.00000000000E+00 -0.00000000000E+00 -0.15832520914E+04  0.15832520914E+04  0.00000000000E+00 0. -1.
         24    1    1    2    0    0  0.33444478180E+02 -0.45037020365E+01 -0.21613258694E+03  0.23306507148E+03  0.80419002446E+02 0.  1.
        -24    1    1    2    0    0 -0.33444478180E+02  0.45037020365E+01 -0.13572537086E+04  0.13600528158E+04  0.80419002446E+02 0. -1.
<mgrwt>
<rscale>  0 0.87212570E+02</rscale>
<asrwt>0</asrwt>
<pdfrwt beam="1">  1        1 0.24357719E+00 0.87212570E+02</pdfrwt>
<pdfrwt beam="2">  1       -1 0.15178151E-02 0.87212570E+02</pdfrwt>
<totfact> 0.62344977E+03</totfact>
</mgrwt>
</event>
<event>
 4    1  0.5015492E-001  0.8399069E+02  0.7546771E-02  0.1318093E+00
          2   -1    0    0  501    0  0.00000000000E+00  0.00000000000E+00  0.95975849662E+02  0.95975849662E+02  0.00000000000E+00 0. -1.
         -2   -1    0    0    0  501 -0.00000000000E+00 -0.00000000000E+00 -0.99596275821E+02  0.99596275821E+02  0.00000000000E+00 0.  1.
         24    1    1    2    0    0  0.23549506419E+02 -0.57131857547E+01  0.48242359604E+02  0.96859490803E+02  0.80419002446E+02 0. -1.
        -24    1    1    2    0    0 -0.23549506419E+02  0.57131857547E+01 -0.51862785763E+02  0.98712634680E+02  0.80419002446E+02 0.  1.
<mgrwt>
<rscale>  0 0.83990688E+02</rscale>
<asrwt>0</asrwt>
<pdfrwt beam="1">  1        2 0.14765515E-01 0.83990688E+02</pdfrwt>
<pdfrwt beam="2">  1       -2 0.15322504E-01 0.83990688E+02</pdfrwt>
<totfact> 0.11732162E+04</totfact>
</mgrwt>
</event>
<event>
 4    1  0.5015492E-001  0.8539625E+02  0.7546771E-02  0.1314400E+00
         -2   -1    0    0    0  501 -0.00000000000E+00  0.00000000000E+00  0.19898350892E+01  0.19898350892E+01  0.00000000000E+00 0.  1.
          2   -1    0    0  501    0  0.00000000000E+00 -0.00000000000E+00 -0.36746319860E+04  0.36746319860E+04  0.00000000000E+00 0. -1.
         24    1    1    2    0    0 -0.93349591170E+01  0.27169078106E+02 -0.17416421402E+04  0.17437344582E+04  0.80419002446E+02 0. -1.
        -24    1    1    2    0    0  0.93349591170E+01 -0.27169078106E+02 -0.19310000107E+04  0.19328873629E+04  0.80419002446E+02 0.  1.
<mgrwt>
<rscale>  0 0.85396241E+02</rscale>
<asrwt>0</asrwt>
<pdfrwt beam="1">  1        2 0.56532083E+00 0.85396252E+02</pdfrwt>
<pdfrwt beam="2">  1       -2 0.30613236E-03 0.85396252E+02</pdfrwt>
<totfact> 0.90997406E+03</totfact>
</mgrwt>
</event>
<event>
 4    1  0.5015492E-001  0.8503484E+02  0.7546771E-02  0.1315341E+00
         -2   -1    0    0    0  501 -0.00000000000E+00  0.00000000000E+00  0.13546868728E+02  0.13546868728E+02  0.00000000000E+00 0.  1.
          2   -1    0    0  501    0  0.00000000000E+00 -0.00000000000E+00 -0.10396195562E+04  0.10396195562E+04  0.00000000000E+00 0. -1.
         24    1    1    2    0    0 -0.23753040329E+02  0.14124479927E+02 -0.88035256306E+03  0.88444986240E+03  0.80419002446E+02 0.  1.
        -24    1    1    2    0    0  0.23753040329E+02 -0.14124479927E+02 -0.14572012441E+03  0.16871656253E+03  0.80419002446E+02 0.  1.
<mgrwt>
<rscale>  0 0.85034839E+02</rscale>
<asrwt>0</asrwt>
<pdfrwt beam="1">  1        2 0.15994150E+00 0.85034839E+02</pdfrwt>
<pdfrwt beam="2">  1       -2 0.20841333E-02 0.85034839E+02</pdfrwt>
<totfact> 0.16692462E+04</totfact>
</mgrwt>
</event>
<event>
 4    1  0.5015492E-001  0.8119761E+02  0.7546771E-02  0.1325687E+00
         -1   -1    0    0    0  501 -0.00000000000E+00  0.00000000000E+00  0.23254969485E+02  0.23254969485E+02  0.00000000000E+00 0.  1.
          1   -1    0    0  501    0  0.00000000000E+00 -0.00000000000E+00 -0.35103928437E+03  0.35103928437E+03  0.00000000000E+00 0. -1.
         24    1    1    2    0    0 -0.98074623465E+01 -0.54451895960E+01 -0.81810445685E+02  0.11526491827E+03  0.80419002446E+02 0.  1.
        -24    1    1    2    0    0  0.98074623465E+01  0.54451895960E+01 -0.24597386920E+03  0.25902933558E+03  0.80419002446E+02 0. -1.
<mgrwt>
<rscale>  0 0.81197613E+02</rscale>
<asrwt>0</asrwt>
<pdfrwt beam="1">  1        1 0.54006041E-01 0.81197613E+02</pdfrwt>
<pdfrwt beam="2">  1       -1 0.35776878E-02 0.81197613E+02</pdfrwt>
<totfact> 0.18533535E+04</totfact>
</mgrwt>
</event>
<event>
 4    1  0.5015492E-001  0.9068740E+02  0.7546771E-02  0.1301196E+00
          2   -1    0    0  501    0  0.00000000000E+00  0.00000000000E+00  0.13513816650E+04  0.13513816650E+04  0.00000000000E+00 0. -1.
         -2   -1    0    0    0  501 -0.00000000000E+00 -0.00000000000E+00 -0.69101141531E+01  0.69101141531E+01  0.00000000000E+00 0.  1.
         24    1    1    2    0    0  0.22726656851E+02 -0.35220560734E+02  0.90680629139E+03  0.91132971799E+03  0.80419002446E+02 0.  0.
        -24    1    1    2    0    0 -0.22726656851E+02  0.35220560734E+02  0.43766525943E+03  0.44696206113E+03  0.80419002446E+02 0. -1.
<mgrwt>
<rscale>  0 0.90687401E+02</rscale>
<asrwt>0</asrwt>
<pdfrwt beam="1">  1        2 0.20790466E+00 0.90687401E+02</pdfrwt>
<pdfrwt beam="2">  1       -2 0.10630956E-02 0.90687401E+02</pdfrwt>
<totfact> 0.29630664E+04</totfact>
</mgrwt>
</event>
<event>
 4    1  0.5015492E-001  0.9472777E+02  0.7546771E-02  0.1291790E+00
          2   -1    0    0  501    0  0.00000000000E+00  0.00000000000E+00  0.12381855196E+04  0.12381855196E+04  0.00000000000E+00 0. -1.
         -2   -1    0    0    0  501 -0.00000000000E+00 -0.00000000000E+00 -0.11482860441E+02  0.11482860441E+02  0.00000000000E+00 0.  1.
         24    1    1    2    0    0  0.14193546590E+02 -0.48007055672E+02  0.99284231965E+03  0.99735110257E+03  0.80419002446E+02 0. -1.
        -24    1    1    2    0    0 -0.14193546590E+02  0.48007055672E+02  0.23386033949E+03  0.25231727745E+03  0.80419002446E+02 0.  1.
<mgrwt>
<rscale>  0 0.94727768E+02</rscale>
<asrwt>0</asrwt>
<pdfrwt beam="1">  1        2 0.19048997E+00 0.94727768E+02</pdfrwt>
<pdfrwt beam="2">  1       -2 0.17665949E-02 0.94727768E+02</pdfrwt>
<totfact> 0.16557913E+04</totfact>
</mgrwt>
</event>
<event>
 4    1  0.5015492E-001  0.8339654E+02  0.7546771E-02  0.1319680E+00
          2   -1    0    0  501    0  0.00000000000E+00  0.00000000000E+00  0.25957767901E+04  0.25957767901E+04  0.00000000000E+00 0. -1.
         -2   -1    0    0    0  501 -0.00000000000E+00 -0.00000000000E+00 -0.29195348711E+01  0.29195348711E+01  0.00000000000E+00 0.  1.
         24    1    1    2    0    0 -0.15593840894E+02 -0.15639642702E+02  0.16691169696E+04  0.16711991026E+04  0.80419002446E+02 0. -1.
        -24    1    1    2    0    0  0.15593840894E+02  0.15639642702E+02  0.92374028556E+03  0.92749722232E+03  0.80419002446E+02 0.  1.
<mgrwt>
<rscale>  0 0.83396536E+02</rscale>
<asrwt>0</asrwt>
<pdfrwt beam="1">  1        2 0.39934843E+00 0.83396536E+02</pdfrwt>
<pdfrwt beam="2">  1       -2 0.44916129E-03 0.83396536E+02</pdfrwt>
<totfact> 0.22991012E+04</totfact>
</mgrwt>
</event>
<event>
 4    1  0.5015492E-001  0.9862718E+02  0.7546771E-02  0.1283210E+00
         -2   -1    0    0    0  501 -0.00000000000E+00  0.00000000000E+00  0.14305701918E+02  0.14305701918E+02  0.00000000000E+00 0.  1.
          2   -1    0    0  501    0  0.00000000000E+00 -0.00000000000E+00 -0.71981392752E+03  0.71981392752E+03  0.00000000000E+00 0. -1.
         24    1    1    2    0    0 -0.44543064979E+02  0.35721415485E+02 -0.43912284669E+03  0.45006243411E+03  0.80419002446E+02 0.  1.
        -24    1    1    2    0    0  0.44543064979E+02 -0.35721415485E+02 -0.26638537892E+03  0.28405719533E+03  0.80419002446E+02 0. -1.
<mgrwt>
<rscale>  0 0.98627177E+02</rscale>
<asrwt>0</asrwt>
<pdfrwt beam="1">  1        2 0.11074059E+00 0.98627177E+02</pdfrwt>
<pdfrwt beam="2">  1       -2 0.22008774E-02 0.98627177E+02</pdfrwt>
<totfact> 0.24910991E+04</totfact>
</mgrwt>
</event>
<event>
 4    1  0.5015492E-001  0.8084133E+02  0.7546771E-02  0.1326681E+00
          2   -1    0    0  501    0  0.00000000000E+00  0.00000000000E+00  0.18686631766E+04  0.18686631766E+04  0.00000000000E+00 0. -1.
         -2   -1    0    0    0  501 -0.00000000000E+00 -0.00000000000E+00 -0.11549861804E+03  0.11549861804E+03  0.00000000000E+00 0.  1.
         24    1    1    2    0    0  0.14802015513E+01  0.81187059586E+01  0.18535275027E+04  0.18552896064E+04  0.80419002446E+02 0. -1.
        -24    1    1    2    0    0 -0.14802015513E+01 -0.81187059586E+01 -0.10036294416E+03  0.12887218822E+03  0.80419002446E+02 0.  1.
<mgrwt>
<rscale>  0 0.80841328E+02</rscale>
<asrwt>0</asrwt>
<pdfrwt beam="1">  1        2 0.28748662E+00 0.80841328E+02</pdfrwt>
<pdfrwt beam="2">  1       -2 0.17769020E-01 0.80841328E+02</pdfrwt>
<totfact> 0.24242836E+02</totfact>
</mgrwt>
</event>
<event>
 4    1  0.5015492E-001  0.9672202E+02  0.7546771E-02  0.1287344E+00
         -2   -1    0    0    0  501 -0.00000000000E+00  0.00000000000E+00  0.69836548828E+02  0.69836548828E+02  0.00000000000E+00 0.  1.
          2   -1    0    0  501    0  0.00000000000E+00 -0.00000000000E+00 -0.14695136133E+04  0.14695136133E+04  0.00000000000E+00 0. -1.
         24    1    1    2    0    0 -0.48715122134E+02  0.22688532924E+02 -0.14335944968E+04  0.14368536216E+04  0.80419002446E+02 0. -1.
        -24    1    1    2    0    0  0.48715122134E+02 -0.22688532924E+02  0.33917432337E+02  0.10249654053E+03  0.80419002446E+02 0.  1.
<mgrwt>
<rscale>  0 0.96722017E+02</rscale>
<asrwt>0</asrwt>
<pdfrwt beam="1">  1        2 0.22607899E+00 0.96722017E+02</pdfrwt>
<pdfrwt beam="2">  1       -2 0.10744086E-01 0.96722017E+02</pdfrwt>
<totfact> 0.85763494E+02</totfact>
</mgrwt>
</event>
<event>
 4    1  0.5015492E-001  0.8840749E+02  0.7546771E-02  0.1306755E+00
          2   -1    0    0  501    0  0.00000000000E+00  0.00000000000E+00  0.60140770021E+03  0.60140770021E+03  0.00000000000E+00 0. -1.
         -2   -1    0    0    0  501 -0.00000000000E+00 -0.00000000000E+00 -0.14413680109E+02  0.14413680109E+02  0.00000000000E+00 0.  1.
         24    1    1    2    0    0  0.34163672485E+02  0.13472642954E+02  0.39006406125E+03  0.39995731830E+03  0.80419002446E+02 0. -1.
        -24    1    1    2    0    0 -0.34163672485E+02 -0.13472642954E+02  0.19692995885E+03  0.21586406203E+03  0.80419002446E+02 0.  1.
<mgrwt>
<rscale>  0 0.88407492E+02</rscale>
<asrwt>0</asrwt>
<pdfrwt beam="1">  1        2 0.92524242E-01 0.88407492E+02</pdfrwt>
<pdfrwt beam="2">  1       -2 0.22174897E-02 0.88407492E+02</pdfrwt>
<totfact> 0.29952611E+04</totfact>
</mgrwt>
</event>
<event>
 4    1  0.5015492E-001  0.1106380E+03  0.7546771E-02  0.1259393E+00
         -1   -1    0    0    0  501 -0.00000000000E+00  0.00000000000E+00  0.24847681590E+02  0.24847681590E+02  0.00000000000E+00 0.  1.
          1   -1    0    0  501    0  0.00000000000E+00 -0.00000000000E+00 -0.24539178886E+04  0.24539178886E+04  0.00000000000E+00 0. -1.
         24    1    1    2    0    0  0.17903105984E+02  0.73844657320E+02 -0.10651952976E+03  0.15358118633E+03  0.80419002446E+02 0.  1.
        -24    1    1    2    0    0 -0.17903105984E+02 -0.73844657320E+02 -0.23225506773E+04  0.23251843839E+04  0.80419002446E+02 0. -1.
<mgrwt>
<rscale>  0 0.11063802E+03</rscale>
<asrwt>0</asrwt>
<pdfrwt beam="1">  1        1 0.37752579E+00 0.11063802E+03</pdfrwt>
<pdfrwt beam="2">  1       -1 0.38227207E-02 0.11063802E+03</pdfrwt>
<totfact> 0.46578921E+02</totfact>
</mgrwt>
</event>
<event>
 4    1  0.5015492E-001  0.8587981E+02  0.7546771E-02  0.1313148E+00
          4   -1    0    0  501    0  0.00000000000E+00  0.00000000000E+00  0.10426280289E+03  0.10426280289E+03  0.00000000000E+00 0. -1.
         -4   -1    0    0    0  501 -0.00000000000E+00 -0.00000000000E+00 -0.75059633970E+02  0.75059633970E+02  0.00000000000E+00 0.  1.
         24    1    1    2    0    0  0.15440932016E+02 -0.25878627232E+02  0.36115805727E+02  0.93164870561E+02  0.80419002446E+02 0.  0.
        -24    1    1    2    0    0 -0.15440932016E+02  0.25878627232E+02 -0.69126368047E+01  0.86157566301E+02  0.80419002446E+02 0. -1.
<mgrwt>
<rscale>  0 0.85879810E+02</rscale>
<asrwt>0</asrwt>
<pdfrwt beam="1">  1        4 0.16040431E-01 0.85879810E+02</pdfrwt>
<pdfrwt beam="2">  1       -4 0.11547636E-01 0.85879810E+02</pdfrwt>
<totfact> 0.28962934E+03</totfact>
</mgrwt>
</event>
<event>
 4    1  0.5015492E-001  0.9010561E+02  0.7546771E-02  0.1302596E+00
          2   -1    0    0  501    0  0.00000000000E+00  0.00000000000E+00  0.19767139657E+03  0.19767139657E+03  0.00000000000E+00 0. -1.
         -2   -1    0    0    0  501 -0.00000000000E+00 -0.00000000000E+00 -0.76274311646E+02  0.76274311646E+02  0.00000000000E+00 0.  1.
         24    1    1    2    0    0 -0.25477612549E+02  0.31665378256E+02  0.15374991745E+03  0.17820790665E+03  0.80419002446E+02 0. -1.
        -24    1    1    2    0    0  0.25477612549E+02 -0.31665378256E+02 -0.32352832531E+02  0.95737801565E+02  0.80419002446E+02 0.  1.
<mgrwt>
<rscale>  0 0.90105610E+02</rscale>
<asrwt>0</asrwt>
<pdfrwt beam="1">  1        2 0.30410984E-01 0.90105610E+02</pdfrwt>
<pdfrwt beam="2">  1       -2 0.11734510E-01 0.90105610E+02</pdfrwt>
<totfact> 0.81144635E+03</totfact>
</mgrwt>
</event>
<event>
 4    1  0.5015492E-001  0.8131703E+02  0.7546771E-02  0.1325355E+00
         -2   -1    0    0    0  501 -0.00000000000E+00  0.00000000000E+00  0.94415659320E+01  0.94415659320E+01  0.00000000000E+00 0.  1.
          2   -1    0    0  501    0  0.00000000000E+00 -0.00000000000E+00 -0.73912701914E+03  0.73912701914E+03  0.00000000000E+00 0. -1.
         24    1    1    2    0    0  0.11164935519E+02  0.45373974991E+01 -0.45056511594E+03  0.45784427856E+03  0.80419002446E+02 0. -1.
        -24    1    1    2    0    0 -0.11164935519E+02 -0.45373974991E+01 -0.27912033727E+03  0.29072430651E+03  0.80419002446E+02 0.  0.
<mgrwt>
<rscale>  0 0.81317032E+02</rscale>
<asrwt>0</asrwt>
<pdfrwt beam="1">  1        2 0.11371189E+00 0.81317032E+02</pdfrwt>
<pdfrwt beam="2">  1       -2 0.14525481E-02 0.81317032E+02</pdfrwt>
<totfact> 0.42879085E+04</totfact>
</mgrwt>
</event>
<event>
 4    1  0.5015492E-001  0.8208559E+02  0.7546771E-02  0.1323235E+00
         -1   -1    0    0    0  501 -0.00000000000E+00  0.00000000000E+00  0.57866825433E+03  0.57866825433E+03  0.00000000000E+00 0.  1.
          1   -1    0    0  501    0  0.00000000000E+00 -0.00000000000E+00 -0.42263672289E+02  0.42263672289E+02  0.00000000000E+00 0. -1.
         24    1    1    2    0    0  0.42536963197E+01  0.15897640553E+02  0.53246157897E+03  0.53875168486E+03  0.80419002446E+02 0.  1.
        -24    1    1    2    0    0 -0.42536963197E+01 -0.15897640553E+02  0.39430030694E+01  0.82180241756E+02  0.80419002446E+02 0. -1.
<mgrwt>
<rscale>  0 0.82085595E+02</rscale>
<asrwt>0</asrwt>
<pdfrwt beam="1">  1        1 0.65021038E-02 0.82085595E+02</pdfrwt>
<pdfrwt beam="2">  1       -1 0.89025880E-01 0.82085595E+02</pdfrwt>
<totfact> 0.14381786E+03</totfact>
</mgrwt>
</event>
<event>
 4    1  0.5015492E-001  0.8740006E+02  0.7546771E-02  0.1309273E+00
         -2   -1    0    0    0  501 -0.00000000000E+00  0.00000000000E+00  0.39716901054E+02  0.39716901054E+02  0.00000000000E+00 0.  1.
          2   -1    0    0  501    0  0.00000000000E+00 -0.00000000000E+00 -0.25055959285E+03  0.25055959285E+03  0.00000000000E+00 0. -1.
         24    1    1    2    0    0  0.69648792425E+01 -0.33511851816E+02 -0.17538887391E+03  0.19595924780E+03  0.80419002446E+02 0.  1.
        -24    1    1    2    0    0 -0.69648792425E+01  0.33511851816E+02 -0.35453817892E+02  0.94317246103E+02  0.80419002446E+02 0.  0.
<mgrwt>
<rscale>  0 0.87400056E+02</rscale>
<asrwt>0</asrwt>
<pdfrwt beam="1">  1        2 0.38547630E-01 0.87400056E+02</pdfrwt>
<pdfrwt beam="2">  1       -2 0.61102924E-02 0.87400056E+02</pdfrwt>
<totfact> 0.17146435E+04</totfact>
</mgrwt>
</event>
<event>
 4    1  0.5015492E-001  0.1055354E+03  0.7546771E-02  0.1269068E+00
         -2   -1    0    0    0  501 -0.00000000000E+00  0.00000000000E+00  0.85047884347E+03  0.85047884347E+03  0.00000000000E+00 0.  1.
          2   -1    0    0  501    0  0.00000000000E+00 -0.00000000000E+00 -0.14334748136E+02  0.14334748136E+02  0.00000000000E+00 0. -1.
         24    1    1    2    0    0  0.67590582134E+02 -0.10100128603E+02  0.29094994984E+03  0.30949893159E+03  0.80419002446E+02 0. -1.
        -24    1    1    2    0    0 -0.67590582134E+02  0.10100128603E+02  0.54519414549E+03  0.55531466001E+03  0.80419002446E+02 0.  1.
<mgrwt>
<rscale>  0 0.10553537E+03</rscale>
<asrwt>0</asrwt>
<pdfrwt beam="1">  1        2 0.22053465E-02 0.10553537E+03</pdfrwt>
<pdfrwt beam="2">  1       -2 0.13084286E+00 0.10553537E+03</pdfrwt>
<totfact> 0.20145690E+03</totfact>
</mgrwt>
</event>
<event>
 4    1  0.5015492E-001  0.1069590E+03  0.7546771E-02  0.1266307E+00
          3   -1    0    0  501    0  0.00000000000E+00  0.00000000000E+00  0.46795262027E+03  0.46795262027E+03  0.00000000000E+00 0. -1.
         -3   -1    0    0    0  501 -0.00000000000E+00 -0.00000000000E+00 -0.60642443214E+02  0.60642443214E+02  0.00000000000E+00 0.  1.
         24    1    1    2    0    0 -0.57511907447E+02 -0.40809200382E+02 -0.53247831721E+00  0.10696031891E+03  0.80419002446E+02 0.  1.
        -24    1    1    2    0    0  0.57511907447E+02  0.40809200382E+02  0.40784265537E+03  0.42163474457E+03  0.80419002446E+02 0. -1.
<mgrwt>
<rscale>  0 0.10695899E+03</rscale>
<asrwt>0</asrwt>
<pdfrwt beam="1">  1        3 0.71992708E-01 0.10695899E+03</pdfrwt>
<pdfrwt beam="2">  1       -3 0.93296070E-02 0.10695899E+03</pdfrwt>
<totfact> 0.34914902E+02</totfact>
</mgrwt>
</event>
<event>
 4    1  0.5015492E-001  0.1214628E+03  0.7546771E-02  0.1240703E+00
         -1   -1    0    0    0  501 -0.00000000000E+00  0.00000000000E+00  0.17852691885E+03  0.17852691885E+03  0.00000000000E+00 0.  1.
          1   -1    0    0  501    0  0.00000000000E+00 -0.00000000000E+00 -0.86496737702E+02  0.86496737702E+02  0.00000000000E+00 0. -1.
         24    1    1    2    0    0  0.13295852843E+02  0.90051079485E+02  0.18028461003E+02  0.12279339551E+03  0.80419002446E+02 0. -1.
        -24    1    1    2    0    0 -0.13295852843E+02 -0.90051079485E+02  0.74001720148E+02  0.14223026105E+03  0.80419002446E+02 0.  1.
<mgrwt>
<rscale>  0 0.12146274E+03</rscale>
<asrwt>0</asrwt>
<pdfrwt beam="1">  1        1 0.13307190E-01 0.12146275E+03</pdfrwt>
<pdfrwt beam="2">  1       -1 0.27465680E-01 0.12146275E+03</pdfrwt>
<totfact> 0.49170881E+03</totfact>
</mgrwt>
</event>
<event>
 4    1  0.5015492E-001  0.9914158E+02  0.7546771E-02  0.1282111E+00
         -2   -1    0    0    0  501 -0.00000000000E+00  0.00000000000E+00  0.29784799845E+03  0.29784799845E+03  0.00000000000E+00 0.  1.
          2   -1    0    0  501    0  0.00000000000E+00 -0.00000000000E+00 -0.45302461478E+02  0.45302461478E+02  0.00000000000E+00 0. -1.
         24    1    1    2    0    0  0.21713127004E+02  0.53762233618E+02  0.36862876763E+02  0.10577298939E+03  0.80419002446E+02 0. -1.
        -24    1    1    2    0    0 -0.21713127004E+02 -0.53762233618E+02  0.21568266021E+03  0.23737747053E+03  0.80419002446E+02 0.  1.
<mgrwt>
<rscale>  0 0.99141584E+02</rscale>
<asrwt>0</asrwt>
<pdfrwt beam="1">  1        2 0.69696096E-02 0.99141584E+02</pdfrwt>
<pdfrwt beam="2">  1       -2 0.45822768E-01 0.99141584E+02</pdfrwt>
<totfact> 0.43138796E+03</totfact>
</mgrwt>
</event>
<event>
 4    1  0.5015492E-001  0.8678088E+02  0.7546771E-02  0.1310840E+00
          1   -1    0    0  501    0  0.00000000000E+00  0.00000000000E+00  0.72800090239E+03  0.72800090239E+03  0.00000000000E+00 0. -1.
         -1   -1    0    0    0  501 -0.00000000000E+00 -0.00000000000E+00 -0.23008494691E+02  0.23008494691E+02  0.00000000000E+00 0.  1.
         24    1    1    2    0    0 -0.78628773589E+01 -0.31652498004E+02  0.73913661168E+02  0.11399188889E+03  0.80419002446E+02 0.  1.
        -24    1    1    2    0    0  0.78628773589E+01  0.31652498004E+02  0.63107874653E+03  0.63701750820E+03  0.80419002446E+02 0. -1.
<mgrwt>
<rscale>  0 0.86780882E+02</rscale>
<asrwt>0</asrwt>
<pdfrwt beam="1">  1        1 0.11200012E+00 0.86780882E+02</pdfrwt>
<pdfrwt beam="2">  1       -1 0.35397690E-02 0.86780882E+02</pdfrwt>
<totfact> 0.73523693E+03</totfact>
</mgrwt>
</event>
<event>
 4    1  0.5015492E-001  0.8497464E+02  0.7546771E-02  0.1315499E+00
          1   -1    0    0  501    0  0.00000000000E+00  0.00000000000E+00  0.11596481604E+04  0.11596481604E+04  0.00000000000E+00 0. -1.
         -1   -1    0    0    0  501 -0.00000000000E+00 -0.00000000000E+00 -0.16963305104E+02  0.16963305104E+02  0.00000000000E+00 0.  1.
         24    1    1    2    0    0 -0.25400144901E+02 -0.10407045556E+02  0.10330247608E+03  0.13376132280E+03  0.80419002446E+02 0.  1.
        -24    1    1    2    0    0  0.25400144901E+02  0.10407045556E+02  0.10393823793E+04  0.10428501428E+04  0.80419002446E+02 0. -1.
<mgrwt>
<rscale>  0 0.84974643E+02</rscale>
<asrwt>0</asrwt>
<pdfrwt beam="1">  1        1 0.17840735E+00 0.84974643E+02</pdfrwt>
<pdfrwt beam="2">  1       -1 0.26097402E-02 0.84974643E+02</pdfrwt>
<totfact> 0.54251884E+03</totfact>
</mgrwt>
</event>
<event>
 4    1  0.5015492E-001  0.1439670E+03  0.7546771E-02  0.1208089E+00
          2   -1    0    0  501    0  0.00000000000E+00  0.00000000000E+00  0.77700473244E+03  0.77700473244E+03  0.00000000000E+00 0. -1.
         -2   -1    0    0    0  501 -0.00000000000E+00 -0.00000000000E+00 -0.28722743569E+02  0.28722743569E+02  0.00000000000E+00 0.  1.
         24    1    1    2    0    0 -0.11921427793E+03  0.68735777025E+01  0.48171218819E+03  0.50276549040E+03  0.80419002446E+02 0. -1.
        -24    1    1    2    0    0  0.11921427793E+03 -0.68735777025E+01  0.26656980068E+03  0.30296198560E+03  0.80419002446E+02 0.  1.
<mgrwt>
<rscale>  0 0.14396703E+03</rscale>
<asrwt>0</asrwt>
<pdfrwt beam="1">  1        2 0.11953917E+00 0.14396703E+03</pdfrwt>
<pdfrwt beam="2">  1       -2 0.44188842E-02 0.14396703E+03</pdfrwt>
<totfact> 0.84033694E+03</totfact>
</mgrwt>
</event>
<event>
 4    1  0.5015492E-001  0.1102666E+03  0.7546771E-02  0.1260077E+00
         -1   -1    0    0    0  501 -0.00000000000E+00  0.00000000000E+00  0.30875634713E+02  0.30875634713E+02  0.00000000000E+00 0.  1.
          1   -1    0    0  501    0  0.00000000000E+00 -0.00000000000E+00 -0.59342490551E+03  0.59342490551E+03  0.00000000000E+00 0. -1.
         24    1    1    2    0    0  0.46341788671E+02  0.59531140938E+02 -0.10022760996E+03  0.14901109983E+03  0.80419002446E+02 0.  1.
        -24    1    1    2    0    0 -0.46341788671E+02 -0.59531140938E+02 -0.46232166084E+03  0.47528944040E+03  0.80419002446E+02 0. -1.
<mgrwt>
<rscale>  0 0.11026665E+03</rscale>
<asrwt>0</asrwt>
<pdfrwt beam="1">  1        1 0.91296130E-01 0.11026665E+03</pdfrwt>
<pdfrwt beam="2">  1       -1 0.47500981E-02 0.11026665E+03</pdfrwt>
<totfact> 0.64539921E+03</totfact>
</mgrwt>
</event>
<event>
 4    1  0.5015492E-001  0.8299979E+02  0.7546771E-02  0.1320748E+00
         -2   -1    0    0    0  501 -0.00000000000E+00  0.00000000000E+00  0.10185795915E+03  0.10185795915E+03  0.00000000000E+00 0.  1.
          2   -1    0    0  501    0  0.00000000000E+00 -0.00000000000E+00 -0.18658547453E+03  0.18658547453E+03  0.00000000000E+00 0. -1.
         24    1    1    2    0    0  0.18779362816E+01 -0.20450475560E+02 -0.15751758919E+03  0.17804705966E+03  0.80419002446E+02 0. -1.
        -24    1    1    2    0    0 -0.18779362816E+01  0.20450475560E+02  0.72790073816E+02  0.11039637402E+03  0.80419002446E+02 0.  1.
<mgrwt>
<rscale>  0 0.82999786E+02</rscale>
<asrwt>0</asrwt>
<pdfrwt beam="1">  1        2 0.28705458E-01 0.82999786E+02</pdfrwt>
<pdfrwt beam="2">  1       -2 0.15670455E-01 0.82999786E+02</pdfrwt>
<totfact> 0.53992497E+03</totfact>
</mgrwt>
</event>
<event>
 4    1  0.5015492E-001  0.8566780E+02  0.7546771E-02  0.1313695E+00
          2   -1    0    0  501    0  0.00000000000E+00  0.00000000000E+00  0.92364454395E+03  0.92364454395E+03  0.00000000000E+00 0. -1.
         -2   -1    0    0    0  501 -0.00000000000E+00 -0.00000000000E+00 -0.79654278254E+01  0.79654278254E+01  0.00000000000E+00 0.  1.
         24    1    1    2    0    0  0.14226219124E+02 -0.25872133419E+02  0.43463662941E+03  0.44299883542E+03  0.80419002446E+02 0. -1.
        -24    1    1    2    0    0 -0.14226219124E+02  0.25872133419E+02  0.48104248671E+03  0.48861113635E+03  0.80419002446E+02 0.  0.
<mgrwt>
<rscale>  0 0.85667791E+02</rscale>
<asrwt>0</asrwt>
<pdfrwt beam="1">  1        2 0.14209908E+00 0.85667802E+02</pdfrwt>
<pdfrwt beam="2">  1       -2 0.12254512E-02 0.85667802E+02</pdfrwt>
<totfact> 0.41707826E+04</totfact>
</mgrwt>
</event>
<event>
 4    1  0.5015492E-001  0.8595968E+02  0.7546771E-02  0.1312942E+00
          2   -1    0    0  501    0  0.00000000000E+00  0.00000000000E+00  0.11050221053E+03  0.11050221053E+03  0.00000000000E+00 0. -1.
         -2   -1    0    0    0  501 -0.00000000000E+00 -0.00000000000E+00 -0.69221891712E+02  0.69221891712E+02  0.00000000000E+00 0.  1.
         24    1    1    2    0    0 -0.27654043858E+02 -0.12534102370E+02  0.37210998189E+02  0.93668160036E+02  0.80419002446E+02 0.  1.
        -24    1    1    2    0    0  0.27654043858E+02  0.12534102370E+02  0.40693206261E+01  0.86055942204E+02  0.80419002446E+02 0.  0.
<mgrwt>
<rscale>  0 0.85959676E+02</rscale>
<asrwt>0</asrwt>
<pdfrwt beam="1">  1        2 0.17000340E-01 0.85959676E+02</pdfrwt>
<pdfrwt beam="2">  1       -2 0.10649522E-01 0.85959676E+02</pdfrwt>
<totfact> 0.17833817E+04</totfact>
</mgrwt>
</event>
<event>
 4    1  0.5015492E-001  0.8445267E+02  0.7546771E-02  0.1316870E+00
          1   -1    0    0  501    0  0.00000000000E+00  0.00000000000E+00  0.15116533776E+02  0.15116533776E+02  0.00000000000E+00 0. -1.
         -1   -1    0    0    0  501 -0.00000000000E+00 -0.00000000000E+00 -0.48209350097E+03  0.48209350097E+03  0.00000000000E+00 0.  1.
         24    1    1    2    0    0  0.99696061901E+01  0.23783275734E+02 -0.26978334074E+03  0.28269295029E+03  0.80419002446E+02 0.  0.
        -24    1    1    2    0    0 -0.99696061901E+01 -0.23783275734E+02 -0.19719362646E+03  0.21451708446E+03  0.80419002446E+02 0.  1.
<mgrwt>
<rscale>  0 0.84452668E+02</rscale>
<asrwt>0</asrwt>
<pdfrwt beam="1">  1        1 0.23256210E-02 0.84452668E+02</pdfrwt>
<pdfrwt beam="2">  1       -1 0.74168219E-01 0.84452668E+02</pdfrwt>
<totfact> 0.84157908E+03</totfact>
</mgrwt>
</event>
<event>
 4    1  0.5015492E-001  0.8886668E+02  0.7546771E-02  0.1305620E+00
         -1   -1    0    0    0  501 -0.00000000000E+00  0.00000000000E+00  0.16902410060E+02  0.16902410060E+02  0.00000000000E+00 0.  1.
          1   -1    0    0  501    0  0.00000000000E+00 -0.00000000000E+00 -0.49978588866E+03  0.49978588866E+03  0.00000000000E+00 0. -1.
         24    1    1    2    0    0  0.17264027042E+02 -0.33645516169E+02 -0.30737933947E+03  0.31996771974E+03  0.80419002446E+02 0. -1.
        -24    1    1    2    0    0 -0.17264027042E+02  0.33645516169E+02 -0.17550413912E+03  0.19672057897E+03  0.80419002446E+02 0.  1.
<mgrwt>
<rscale>  0 0.88866672E+02</rscale>
<asrwt>0</asrwt>
<pdfrwt beam="1">  1        1 0.76890141E-01 0.88866683E+02</pdfrwt>
<pdfrwt beam="2">  1       -1 0.26003706E-02 0.88866683E+02</pdfrwt>
<totfact> 0.19043646E+04</totfact>
</mgrwt>
</event>
<event>
 4    1  0.5015492E-001  0.9526999E+02  0.7546771E-02  0.1290569E+00
         -1   -1    0    0    0  501 -0.00000000000E+00  0.00000000000E+00  0.23082617436E+02  0.23082617436E+02  0.00000000000E+00 0.  1.
          1   -1    0    0  501    0  0.00000000000E+00 -0.00000000000E+00 -0.40291445899E+03  0.40291445899E+03  0.00000000000E+00 0. -1.
         24    1    1    2    0    0 -0.41092049699E+02 -0.30341353081E+02 -0.15686349745E+03  0.18352800070E+03  0.80419002446E+02 0. -1.
        -24    1    1    2    0    0  0.41092049699E+02  0.30341353081E+02 -0.22296834411E+03  0.24246907573E+03  0.80419002446E+02 0.  0.
<mgrwt>
<rscale>  0 0.95269986E+02</rscale>
<asrwt>0</asrwt>
<pdfrwt beam="1">  1        1 0.61986835E-01 0.95269986E+02</pdfrwt>
<pdfrwt beam="2">  1       -1 0.35511722E-02 0.95269986E+02</pdfrwt>
<totfact> 0.16061319E+04</totfact>
</mgrwt>
</event>
<event>
 4    1  0.5015492E-001  0.9504364E+02  0.7546771E-02  0.1291078E+00
          1   -1    0    0  501    0  0.00000000000E+00  0.00000000000E+00  0.29892836749E+03  0.29892836749E+03  0.00000000000E+00 0. -1.
         -1   -1    0    0    0  501 -0.00000000000E+00 -0.00000000000E+00 -0.70947641365E+02  0.70947641365E+02  0.00000000000E+00 0.  1.
         24    1    1    2    0    0  0.54759923946E+01  0.50359610891E+02 -0.26132036651E+02  0.98570666000E+02  0.80419002446E+02 0.  1.
        -24    1    1    2    0    0 -0.54759923946E+01 -0.50359610891E+02  0.25411276278E+03  0.27130534286E+03  0.80419002446E+02 0. -1.
<mgrwt>
<rscale>  0 0.95043637E+02</rscale>
<asrwt>0</asrwt>
<pdfrwt beam="1">  1        1 0.45988979E-01 0.95043637E+02</pdfrwt>
<pdfrwt beam="2">  1       -1 0.10915022E-01 0.95043637E+02</pdfrwt>
<totfact> 0.44039178E+03</totfact>
</mgrwt>
</event>
<event>
 4    1  0.5015492E-001  0.1089883E+03  0.7546771E-02  0.1262455E+00
         -2   -1    0    0    0  501 -0.00000000000E+00  0.00000000000E+00  0.74522125682E+03  0.74522125682E+03  0.00000000000E+00 0.  1.
          2   -1    0    0  501    0  0.00000000000E+00 -0.00000000000E+00 -0.45896729441E+02  0.45896729441E+02  0.00000000000E+00 0. -1.
         24    1    1    2    0    0 -0.20959988563E+02 -0.70511764288E+02  0.30088368498E+02  0.11306527273E+03  0.80419002446E+02 0. -1.
        -24    1    1    2    0    0  0.20959988563E+02  0.70511764288E+02  0.66923615888E+03  0.67805271354E+03  0.80419002446E+02 0.  1.
<mgrwt>
<rscale>  0 0.10898828E+03</rscale>
<asrwt>0</asrwt>
<pdfrwt beam="1">  1        2 0.70610358E-02 0.10898828E+03</pdfrwt>
<pdfrwt beam="2">  1       -2 0.11464942E+00 0.10898828E+03</pdfrwt>
<totfact> 0.60199979E+02</totfact>
</mgrwt>
</event>
<event>
 4    1  0.5015492E-001  0.8802474E+02  0.7546771E-02  0.1307707E+00
         -2   -1    0    0    0  501 -0.00000000000E+00  0.00000000000E+00  0.79517311437E+01  0.79517311437E+01  0.00000000000E+00 0.  1.
          2   -1    0    0  501    0  0.00000000000E+00 -0.00000000000E+00 -0.10494400345E+04  0.10494400345E+04  0.00000000000E+00 0. -1.
         24    1    1    2    0    0  0.29641765004E+02  0.20062433496E+02 -0.37939069327E+03  0.38946841921E+03  0.80419002446E+02 0.  1.
        -24    1    1    2    0    0 -0.29641765004E+02 -0.20062433496E+02 -0.66209761010E+03  0.66792334644E+03  0.80419002446E+02 0. -1.
<mgrwt>
<rscale>  0 0.88024732E+02</rscale>
<asrwt>0</asrwt>
<pdfrwt beam="1">  1        2 0.16145225E+00 0.88024743E+02</pdfrwt>
<pdfrwt beam="2">  1       -2 0.12233437E-02 0.88024743E+02</pdfrwt>
<totfact> 0.35349223E+04</totfact>
</mgrwt>
</event>
<event>
 4    1  0.5015492E-001  0.1643706E+03  0.7546771E-02  0.1183849E+00
         -2   -1    0    0    0  501 -0.00000000000E+00  0.00000000000E+00  0.10168761585E+03  0.10168761585E+03  0.00000000000E+00 0.  1.
          2   -1    0    0  501    0  0.00000000000E+00 -0.00000000000E+00 -0.37313245593E+03  0.37313245593E+03  0.00000000000E+00 0. -1.
         24    1    1    2    0    0  0.13917965460E+03 -0.34343650139E+02 -0.83282236615E+01  0.16458140181E+03  0.80419002446E+02 0.  1.
        -24    1    1    2    0    0 -0.13917965460E+03  0.34343650139E+02 -0.26311661642E+03  0.31023866998E+03  0.80419002446E+02 0. -1.
<mgrwt>
<rscale>  0 0.16437057E+03</rscale>
<asrwt>0</asrwt>
<pdfrwt beam="1">  1        2 0.57404994E-01 0.16437059E+03</pdfrwt>
<pdfrwt beam="2">  1       -2 0.15644248E-01 0.16437059E+03</pdfrwt>
<totfact> 0.26947677E+03</totfact>
</mgrwt>
</event>
<event>
 4    1  0.5015492E-001  0.8052811E+02  0.7546771E-02  0.1327559E+00
         -4   -1    0    0    0  501 -0.00000000000E+00  0.00000000000E+00  0.99554530200E+01  0.99554530200E+01  0.00000000000E+00 0.  1.
          4   -1    0    0  501    0  0.00000000000E+00 -0.00000000000E+00 -0.66968470453E+03  0.66968470453E+03  0.00000000000E+00 0. -1.
         24    1    1    2    0    0 -0.40618231656E+01 -0.10293966923E+01 -0.27368150036E+03  0.28528290811E+03  0.80419002446E+02 0.  1.
        -24    1    1    2    0    0  0.40618231656E+01  0.10293966923E+01 -0.38604775115E+03  0.39435724944E+03  0.80419002446E+02 0.  0.
<mgrwt>
<rscale>  0 0.80528105E+02</rscale>
<asrwt>0</asrwt>
<pdfrwt beam="1">  1        4 0.10302841E+00 0.80528115E+02</pdfrwt>
<pdfrwt beam="2">  1       -4 0.15316083E-02 0.80528115E+02</pdfrwt>
<totfact> 0.17752367E+03</totfact>
</mgrwt>
</event>
<event>
 4    1  0.5015492E-001  0.1063022E+03  0.7546771E-02  0.1267575E+00
          2   -1    0    0  501    0  0.00000000000E+00  0.00000000000E+00  0.31589651222E+03  0.31589651222E+03  0.00000000000E+00 0. -1.
         -2   -1    0    0    0  501 -0.00000000000E+00 -0.00000000000E+00 -0.14893776547E+03  0.14893776547E+03  0.00000000000E+00 0.  1.
         24    1    1    2    0    0 -0.57661861686E+02  0.38833542588E+02  0.28607211064E+03  0.30518421119E+03  0.80419002446E+02 0. -1.
        -24    1    1    2    0    0  0.57661861686E+02 -0.38833542588E+02 -0.11911336388E+03  0.15965006650E+03  0.80419002446E+02 0.  1.
<mgrwt>
<rscale>  0 0.10630216E+03</rscale>
<asrwt>0</asrwt>
<pdfrwt beam="1">  1        2 0.48599463E-01 0.10630216E+03</pdfrwt>
<pdfrwt beam="2">  1       -2 0.22913502E-01 0.10630216E+03</pdfrwt>
<totfact> 0.16671229E+03</totfact>
</mgrwt>
</event>
<event>
 4    1  0.5015492E-001  0.8915907E+02  0.7546771E-02  0.1304901E+00
          2   -1    0    0  501    0  0.00000000000E+00  0.00000000000E+00  0.32875107696E+03  0.32875107696E+03  0.00000000000E+00 0. -1.
         -2   -1    0    0    0  501 -0.00000000000E+00 -0.00000000000E+00 -0.28904984125E+02  0.28904984125E+02  0.00000000000E+00 0.  1.
         24    1    1    2    0    0  0.31433445559E+02  0.22227530587E+02  0.22222164793E+03  0.23944060094E+03  0.80419002446E+02 0.  1.
        -24    1    1    2    0    0 -0.31433445559E+02 -0.22227530587E+02  0.77624444897E+02  0.11821546014E+03  0.80419002446E+02 0.  1.
<mgrwt>
<rscale>  0 0.89159075E+02</rscale>
<asrwt>0</asrwt>
<pdfrwt beam="1">  1        2 0.50577086E-01 0.89159075E+02</pdfrwt>
<pdfrwt beam="2">  1       -2 0.44469209E-02 0.89159075E+02</pdfrwt>
<totfact> 0.20756514E+04</totfact>
</mgrwt>
</event>
<event>
 4    1  0.5015492E-001  0.8569341E+02  0.7546771E-02  0.1313629E+00
          2   -1    0    0  501    0  0.00000000000E+00  0.00000000000E+00  0.50831129672E+02  0.50831129672E+02  0.00000000000E+00 0. -1.
         -2   -1    0    0    0  501 -0.00000000000E+00 -0.00000000000E+00 -0.19598826293E+03  0.19598826293E+03  0.00000000000E+00 0.  1.
         24    1    1    2    0    0  0.18965813552E+02 -0.22725366277E+02 -0.93035135466E+01  0.86196958617E+02  0.80419002446E+02 0. -1.
        -24    1    1    2    0    0 -0.18965813552E+02  0.22725366277E+02 -0.13585361971E+03  0.16062243399E+03  0.80419002446E+02 0.  1.
<mgrwt>
<rscale>  0 0.85693409E+02</rscale>
<asrwt>0</asrwt>
<pdfrwt beam="1">  1        2 0.78201737E-02 0.85693409E+02</pdfrwt>
<pdfrwt beam="2">  1       -2 0.30152041E-01 0.85693409E+02</pdfrwt>
<totfact> 0.80083072E+03</totfact>
</mgrwt>
</event>
<event>
 4    1  0.5015492E-001  0.8318985E+02  0.7546771E-02  0.1320235E+00
          2   -1    0    0  501    0  0.00000000000E+00  0.00000000000E+00  0.27308982594E+03  0.27308982594E+03  0.00000000000E+00 0. -1.
         -2   -1    0    0    0  501 -0.00000000000E+00 -0.00000000000E+00 -0.46121098651E+02  0.46121098651E+02  0.00000000000E+00 0.  1.
         24    1    1    2    0    0  0.21241153203E+02  0.14657869605E+01  0.22061526882E+03  0.23577881141E+03  0.80419002446E+02 0. -1.
        -24    1    1    2    0    0 -0.21241153203E+02 -0.14657869605E+01  0.63534584730E+01  0.83432113180E+02  0.80419002446E+02 0.  1.
<mgrwt>
<rscale>  0 0.83189850E+02</rscale>
<asrwt>0</asrwt>
<pdfrwt beam="1">  1        2 0.42013818E-01 0.83189850E+02</pdfrwt>
<pdfrwt beam="2">  1       -2 0.70955538E-02 0.83189850E+02</pdfrwt>
<totfact> 0.12448572E+04</totfact>
</mgrwt>
</event>
<event>
 4    1  0.5015492E-001  0.9656331E+02  0.7546771E-02  0.1287693E+00
         -1   -1    0    0    0  501 -0.00000000000E+00  0.00000000000E+00  0.23637252807E+02  0.23637252807E+02  0.00000000000E+00 0.  1.
          1   -1    0    0  501    0  0.00000000000E+00 -0.00000000000E+00 -0.41326015047E+03  0.41326015047E+03  0.00000000000E+00 0. -1.
         24    1    1    2    0    0  0.50970833881E+02 -0.16100487938E+02 -0.24137709894E+03  0.25997571322E+03  0.80419002446E+02 0. -1.
        -24    1    1    2    0    0 -0.50970833881E+02  0.16100487938E+02 -0.14824579873E+03  0.17692169006E+03  0.80419002446E+02 0.  1.
<mgrwt>
<rscale>  0 0.96563295E+02</rscale>
<asrwt>0</asrwt>
<pdfrwt beam="1">  1        1 0.63578481E-01 0.96563307E+02</pdfrwt>
<pdfrwt beam="2">  1       -1 0.36365006E-02 0.96563307E+02</pdfrwt>
<totfact> 0.15053620E+04</totfact>
</mgrwt>
</event>
<event>
 4    1  0.5015492E-001  0.8154782E+02  0.7546771E-02  0.1324715E+00
         -1   -1    0    0    0  501 -0.00000000000E+00  0.00000000000E+00  0.20469298623E+02  0.20469298623E+02  0.00000000000E+00 0.  1.
          1   -1    0    0  501    0  0.00000000000E+00 -0.00000000000E+00 -0.91993555477E+03  0.91993555477E+03  0.00000000000E+00 0. -1.
         24    1    1    2    0    0 -0.10879920299E+02  0.80285891633E+01 -0.71564709618E+02  0.10849679501E+03  0.80419002446E+02 0.  1.
        -24    1    1    2    0    0  0.10879920299E+02 -0.80285891633E+01 -0.82790154652E+03  0.83190805838E+03  0.80419002446E+02 0. -1.
<mgrwt>
<rscale>  0 0.81547819E+02</rscale>
<asrwt>0</asrwt>
<pdfrwt beam="1">  1        1 0.14152856E+00 0.81547819E+02</pdfrwt>
<pdfrwt beam="2">  1       -1 0.31491226E-02 0.81547819E+02</pdfrwt>
<totfact> 0.61092244E+03</totfact>
</mgrwt>
</event>
<event>
 4    1  0.5015492E-001  0.9228663E+02  0.7546771E-02  0.1297407E+00
         -3   -1    0    0    0  501 -0.00000000000E+00  0.00000000000E+00  0.66161442996E+03  0.66161442996E+03  0.00000000000E+00 0.  1.
          3   -1    0    0  501    0  0.00000000000E+00 -0.00000000000E+00 -0.16578042048E+02  0.16578042048E+02  0.00000000000E+00 0. -1.
         24    1    1    2    0    0  0.14740410831E+02  0.42805689191E+02  0.48282992757E+03  0.49157050526E+03  0.80419002446E+02 0.  1.
        -24    1    1    2    0    0 -0.14740410831E+02 -0.42805689191E+02  0.16220646034E+03  0.18662196674E+03  0.80419002446E+02 0. -1.
<mgrwt>
<rscale>  0 0.92286633E+02</rscale>
<asrwt>0</asrwt>
<pdfrwt beam="1">  1        3 0.25504685E-02 0.92286633E+02</pdfrwt>
<pdfrwt beam="2">  1       -3 0.10178681E+00 0.92286633E+02</pdfrwt>
<totfact> 0.12260842E+03</totfact>
</mgrwt>
</event>
<event>
 4    1  0.5015492E-001  0.8290465E+02  0.7546771E-02  0.1321005E+00
         -1   -1    0    0    0  501 -0.00000000000E+00  0.00000000000E+00  0.55380091759E+02  0.55380091759E+02  0.00000000000E+00 0.  1.
          1   -1    0    0  501    0  0.00000000000E+00 -0.00000000000E+00 -0.14920140324E+04  0.14920140324E+04  0.00000000000E+00 0. -1.
         24    1    1    2    0    0 -0.85673107624E+01  0.18236385275E+02  0.22502573505E+02  0.85904285867E+02  0.80419002446E+02 0.  1.
        -24    1    1    2    0    0  0.85673107624E+01 -0.18236385275E+02 -0.14591365142E+04  0.14614898383E+04  0.80419002446E+02 0. -1.
<mgrwt>
<rscale>  0 0.82904647E+02</rscale>
<asrwt>0</asrwt>
<pdfrwt beam="1">  1        1 0.22954056E+00 0.82904647E+02</pdfrwt>
<pdfrwt beam="2">  1       -1 0.85200163E-02 0.82904647E+02</pdfrwt>
<totfact> 0.58515588E+02</totfact>
</mgrwt>
</event>
<event>
 4    1  0.5015492E-001  0.8719794E+02  0.7546771E-02  0.1309783E+00
          2   -1    0    0  501    0  0.00000000000E+00  0.00000000000E+00  0.20395350987E+02  0.20395350987E+02  0.00000000000E+00 0. -1.
         -2   -1    0    0    0  501 -0.00000000000E+00 -0.00000000000E+00 -0.44656520529E+03  0.44656520529E+03  0.00000000000E+00 0.  1.
         24    1    1    2    0    0  0.15206791605E+02  0.30083522056E+02 -0.11819502843E+03  0.14687935699E+03  0.80419002446E+02 0. -1.
        -24    1    1    2    0    0 -0.15206791605E+02 -0.30083522056E+02 -0.30797482587E+03  0.32008119928E+03  0.80419002446E+02 0.  1.
<mgrwt>
<rscale>  0 0.87197940E+02</rscale>
<asrwt>0</asrwt>
<pdfrwt beam="1">  1        2 0.31377465E-02 0.87197940E+02</pdfrwt>
<pdfrwt beam="2">  1       -2 0.68702336E-01 0.87197940E+02</pdfrwt>
<totfact> 0.53058637E+03</totfact>
</mgrwt>
</event>
<event>
 4    1  0.5015492E-001  0.8731370E+02  0.7546771E-02  0.1309491E+00
         -1   -1    0    0    0  501 -0.00000000000E+00  0.00000000000E+00  0.22258025414E+02  0.22258025414E+02  0.00000000000E+00 0.  1.
          1   -1    0    0  501    0  0.00000000000E+00 -0.00000000000E+00 -0.51328744088E+03  0.51328744088E+03  0.00000000000E+00 0. -1.
         24    1    1    2    0    0  0.26545144992E+02  0.21256086192E+02 -0.91061691655E+02  0.12615828774E+03  0.80419002446E+02 0.  1.
        -24    1    1    2    0    0 -0.26545144992E+02 -0.21256086192E+02 -0.39996772381E+03  0.40938717856E+03  0.80419002446E+02 0.  0.
<mgrwt>
<rscale>  0 0.87313698E+02</rscale>
<asrwt>0</asrwt>
<pdfrwt beam="1">  1        1 0.78967291E-01 0.87313698E+02</pdfrwt>
<pdfrwt beam="2">  1       -1 0.34243119E-02 0.87313698E+02</pdfrwt>
<totfact> 0.12362980E+04</totfact>
</mgrwt>
</event>
<event>
 4    1  0.5015492E-001  0.8179701E+02  0.7546771E-02  0.1324028E+00
          2   -1    0    0  501    0  0.00000000000E+00  0.00000000000E+00  0.80122631944E+03  0.80122631944E+03  0.00000000000E+00 0. -1.
         -2   -1    0    0    0  501 -0.00000000000E+00 -0.00000000000E+00 -0.10475414171E+02  0.10475414171E+02  0.00000000000E+00 0.  1.
         24    1    1    2    0    0  0.68135200721E+01  0.13308288852E+02  0.57815917585E+03  0.58391676049E+03  0.80419002446E+02 0.  0.
        -24    1    1    2    0    0 -0.68135200721E+01 -0.13308288852E+02  0.21259172942E+03  0.22778497312E+03  0.80419002446E+02 0.  0.
<mgrwt>
<rscale>  0 0.81797008E+02</rscale>
<asrwt>0</asrwt>
<pdfrwt beam="1">  1        2 0.12326554E+00 0.81797008E+02</pdfrwt>
<pdfrwt beam="2">  1       -2 0.16116028E-02 0.81797008E+02</pdfrwt>
<totfact> 0.33600553E+04</totfact>
</mgrwt>
</event>
<event>
 4    1  0.5015492E-001  0.8335650E+02  0.7546771E-02  0.1319787E+00
         -3   -1    0    0    0  501 -0.00000000000E+00  0.00000000000E+00  0.41024145528E+03  0.41024145528E+03  0.00000000000E+00 0.  1.
          3   -1    0    0  501    0  0.00000000000E+00 -0.00000000000E+00 -0.24692668053E+02  0.24692668053E+02  0.00000000000E+00 0. -1.
         24    1    1    2    0    0  0.17086142767E+02  0.13753315856E+02  0.31464975518E+03  0.32550387765E+03  0.80419002446E+02 0. -1.
        -24    1    1    2    0    0 -0.17086142767E+02 -0.13753315856E+02  0.70899032040E+02  0.10943024568E+03  0.80419002446E+02 0.  0.
<mgrwt>
<rscale>  0 0.83356499E+02</rscale>
<asrwt>0</asrwt>
<pdfrwt beam="1">  1        3 0.37988723E-02 0.83356499E+02</pdfrwt>
<pdfrwt beam="2">  1       -3 0.63114065E-01 0.83356499E+02</pdfrwt>
<totfact> 0.18240490E+03</totfact>
</mgrwt>
</event>
<event>
 4    1  0.5015492E-001  0.8125761E+02  0.7546771E-02  0.1325520E+00
          2   -1    0    0  501    0  0.00000000000E+00  0.00000000000E+00  0.37217769727E+03  0.37217769727E+03  0.00000000000E+00 0. -1.
         -2   -1    0    0    0  501 -0.00000000000E+00 -0.00000000000E+00 -0.35613340102E+02  0.35613340102E+02  0.00000000000E+00 0.  1.
         24    1    1    2    0    0 -0.10561156421E+02 -0.49036392729E+01  0.31272374724E+03  0.32310825081E+03  0.80419002446E+02 0.  0.
        -24    1    1    2    0    0  0.10561156421E+02  0.49036392729E+01  0.23840609929E+02  0.84682786558E+02  0.80419002446E+02 0.  1.
<mgrwt>
<rscale>  0 0.81257613E+02</rscale>
<asrwt>0</asrwt>
<pdfrwt beam="1">  1        2 0.57258105E-01 0.81257613E+02</pdfrwt>
<pdfrwt beam="2">  1       -2 0.54789757E-02 0.81257613E+02</pdfrwt>
<totfact> 0.13256907E+04</totfact>
</mgrwt>
</event>
<event>
 4    1  0.5015492E-001  0.1014246E+03  0.7546771E-02  0.1277328E+00
          2   -1    0    0  501    0  0.00000000000E+00  0.00000000000E+00  0.16459436136E+04  0.16459436136E+04  0.00000000000E+00 0. -1.
         -2   -1    0    0    0  501 -0.00000000000E+00 -0.00000000000E+00 -0.62866396440E+01  0.62866396440E+01  0.00000000000E+00 0.  1.
         24    1    1    2    0    0 -0.59771664579E+02 -0.15718825987E+02  0.75665721860E+03  0.76342458422E+03  0.80419002446E+02 0.  0.
        -24    1    1    2    0    0  0.59771664579E+02  0.15718825987E+02  0.88299975538E+03  0.88880566905E+03  0.80419002446E+02 0.  1.
<mgrwt>
<rscale>  0 0.10142461E+03</rscale>
<asrwt>0</asrwt>
<pdfrwt beam="1">  1        2 0.25322175E+00 0.10142462E+03</pdfrwt>
<pdfrwt beam="2">  1       -2 0.96717664E-03 0.10142462E+03</pdfrwt>
<totfact> 0.24130695E+04</totfact>
</mgrwt>
</event>
<event>
 4    1  0.5015492E-001  0.1029555E+03  0.7546771E-02  0.1274201E+00
          1   -1    0    0  501    0  0.00000000000E+00  0.00000000000E+00  0.16035916227E+03  0.16035916227E+03  0.00000000000E+00 0. -1.
         -1   -1    0    0    0  501 -0.00000000000E+00 -0.00000000000E+00 -0.70722617754E+02  0.70722617754E+02  0.00000000000E+00 0.  1.
         24    1    1    2    0    0  0.56812086647E+02 -0.30083348968E+02  0.15280870190E+02  0.10408334171E+03  0.80419002446E+02 0.  1.
        -24    1    1    2    0    0 -0.56812086647E+02  0.30083348968E+02  0.74355674327E+02  0.12699843831E+03  0.80419002446E+02 0. -1.
<mgrwt>
<rscale>  0 0.10295551E+03</rscale>
<asrwt>0</asrwt>
<pdfrwt beam="1">  1        1 0.24670640E-01 0.10295551E+03</pdfrwt>
<pdfrwt beam="2">  1       -1 0.10880403E-01 0.10295551E+03</pdfrwt>
<totfact> 0.95713847E+03</totfact>
</mgrwt>
</event>
<event>
 4    1  0.5015492E-001  0.8543998E+02  0.7546771E-02  0.1314286E+00
         -1   -1    0    0    0  501 -0.00000000000E+00  0.00000000000E+00  0.19519336599E+03  0.19519336599E+03  0.00000000000E+00 0.  1.
          1   -1    0    0  501    0  0.00000000000E+00 -0.00000000000E+00 -0.24046385495E+03  0.24046385495E+03  0.00000000000E+00 0. -1.
         24    1    1    2    0    0  0.28845913852E+02  0.82894032761E+00  0.17753875103E+03  0.19702791163E+03  0.80419002446E+02 0.  1.
        -24    1    1    2    0    0 -0.28845913852E+02 -0.82894032761E+00 -0.22280923999E+03  0.23862930932E+03  0.80419002446E+02 0. -1.
<mgrwt>
<rscale>  0 0.85439978E+02</rscale>
<asrwt>0</asrwt>
<pdfrwt beam="1">  1        1 0.36994439E-01 0.85439978E+02</pdfrwt>
<pdfrwt beam="2">  1       -1 0.30029748E-01 0.85439978E+02</pdfrwt>
<totfact> 0.11560645E+03</totfact>
</mgrwt>
</event>
<event>
 4    1  0.5015492E-001  0.1073714E+03  0.7546771E-02  0.1265517E+00
          2   -1    0    0  501    0  0.00000000000E+00  0.00000000000E+00  0.10154092217E+03  0.10154092217E+03  0.00000000000E+00 0. -1.
         -2   -1    0    0    0  501 -0.00000000000E+00 -0.00000000000E+00 -0.31330702670E+03  0.31330702670E+03  0.00000000000E+00 0.  1.
         24    1    1    2    0    0 -0.61521841708E+02  0.35727617523E+02  0.59747112471E+02  0.12287527442E+03  0.80419002446E+02 0. -1.
        -24    1    1    2    0    0  0.61521841708E+02 -0.35727617523E+02 -0.27151321700E+03  0.29197267444E+03  0.80419002446E+02 0.  1.
<mgrwt>
<rscale>  0 0.10737139E+03</rscale>
<asrwt>0</asrwt>
<pdfrwt beam="1">  1        2 0.15621680E-01 0.10737139E+03</pdfrwt>
<pdfrwt beam="2">  1       -2 0.48201081E-01 0.10737139E+03</pdfrwt>
<totfact> 0.14798899E+03</totfact>
</mgrwt>
</event>
<event>
 4    1  0.5015492E-001  0.1057519E+03  0.7546771E-02  0.1268645E+00
          2   -1    0    0  501    0  0.00000000000E+00  0.00000000000E+00  0.18644529099E+03  0.18644529099E+03  0.00000000000E+00 0. -1.
         -2   -1    0    0    0  501 -0.00000000000E+00 -0.00000000000E+00 -0.16802141550E+03  0.16802141550E+03  0.00000000000E+00 0.  1.
         24    1    1    2    0    0 -0.68667622958E+02 -0.10035864591E+01  0.15133125916E+03  0.18462019278E+03  0.80419002446E+02 0. -1.
        -24    1    1    2    0    0  0.68667622958E+02  0.10035864591E+01 -0.13290738368E+03  0.16984651371E+03  0.80419002446E+02 0.  1.
<mgrwt>
<rscale>  0 0.10575191E+03</rscale>
<asrwt>0</asrwt>
<pdfrwt beam="1">  1        2 0.28683891E-01 0.10575191E+03</pdfrwt>
<pdfrwt beam="2">  1       -2 0.25849448E-01 0.10575191E+03</pdfrwt>
<totfact> 0.23664679E+03</totfact>
</mgrwt>
</event>
<event>
 4    1  0.5015492E-001  0.1013285E+03  0.7546771E-02  0.1277527E+00
          2   -1    0    0  501    0  0.00000000000E+00  0.00000000000E+00  0.12582592572E+04  0.12582592572E+04  0.00000000000E+00 0. -1.
         -2   -1    0    0    0  501 -0.00000000000E+00 -0.00000000000E+00 -0.81698279187E+01  0.81698279187E+01  0.00000000000E+00 0.  1.
         24    1    1    2    0    0  0.61228281482E+02 -0.71646988529E+01  0.60313213413E+03  0.61158468141E+03  0.80419002446E+02 0. -1.
        -24    1    1    2    0    0 -0.61228281482E+02  0.71646988529E+01  0.64695729518E+03  0.65484440373E+03  0.80419002446E+02 0.  1.
<mgrwt>
<rscale>  0 0.10132845E+03</rscale>
<asrwt>0</asrwt>
<pdfrwt beam="1">  1        2 0.19357819E+00 0.10132846E+03</pdfrwt>
<pdfrwt beam="2">  1       -2 0.12568976E-02 0.10132846E+03</pdfrwt>
<totfact> 0.26410647E+04</totfact>
</mgrwt>
</event>
<event>
 4    1  0.5015492E-001  0.1257394E+03  0.7546771E-02  0.1233918E+00
         -2   -1    0    0    0  501 -0.00000000000E+00  0.00000000000E+00  0.16627336895E+04  0.16627336895E+04  0.00000000000E+00 0.  1.
          2   -1    0    0  501    0  0.00000000000E+00 -0.00000000000E+00 -0.98908840064E+01  0.98908840064E+01  0.00000000000E+00 0. -1.
         24    1    1    2    0    0  0.93002773992E+02 -0.26337280327E+02  0.66202027213E+03  0.67385549265E+03  0.80419002446E+02 0.  1.
        -24    1    1    2    0    0 -0.93002773992E+02  0.26337280327E+02  0.99082253338E+03  0.99876908087E+03  0.80419002446E+02 0. -1.
<mgrwt>
<rscale>  0 0.12573935E+03</rscale>
<asrwt>0</asrwt>
<pdfrwt beam="1">  1        2 0.15216758E-02 0.12573935E+03</pdfrwt>
<pdfrwt beam="2">  1       -2 0.25580496E+00 0.12573935E+03</pdfrwt>
<totfact> 0.51966066E+02</totfact>
</mgrwt>
</event>
<event>
 4    1  0.5015492E-001  0.1600705E+03  0.7546771E-02  0.1188617E+00
          2   -1    0    0  501    0  0.00000000000E+00  0.00000000000E+00  0.13884461369E+04  0.13884461369E+04  0.00000000000E+00 0. -1.
         -2   -1    0    0    0  501 -0.00000000000E+00 -0.00000000000E+00 -0.45088364211E+02  0.45088364211E+02  0.00000000000E+00 0.  1.
         24    1    1    2    0    0 -0.81550506383E+02  0.11182515704E+03  0.12225703133E+04  0.12330047598E+04  0.80419002446E+02 0. -1.
        -24    1    1    2    0    0  0.81550506383E+02 -0.11182515704E+03  0.12078745938E+03  0.20052974127E+03  0.80419002446E+02 0.  1.
<mgrwt>
<rscale>  0 0.16007051E+03</rscale>
<asrwt>0</asrwt>
<pdfrwt beam="1">  1        2 0.21360707E+00 0.16007051E+03</pdfrwt>
<pdfrwt beam="2">  1       -2 0.69366725E-02 0.16007051E+03</pdfrwt>
<totfact> 0.18567767E+03</totfact>
</mgrwt>
</event>
<event>
 4    1  0.5015492E-001  0.1001058E+03  0.7546771E-02  0.1280074E+00
          2   -1    0    0  501    0  0.00000000000E+00  0.00000000000E+00  0.13365670913E+04  0.13365670913E+04  0.00000000000E+00 0. -1.
         -2   -1    0    0    0  501 -0.00000000000E+00 -0.00000000000E+00 -0.27362873319E+02  0.27362873319E+02  0.00000000000E+00 0.  1.
         24    1    1    2    0    0  0.58695317369E+02 -0.10431543878E+02  0.12356707675E+04  0.12397190888E+04  0.80419002446E+02 0. -1.
        -24    1    1    2    0    0 -0.58695317369E+02  0.10431543878E+02  0.73533450452E+02  0.12421087585E+03  0.80419002446E+02 0.  1.
<mgrwt>
<rscale>  0 0.10010581E+03</rscale>
<asrwt>0</asrwt>
<pdfrwt beam="1">  1        2 0.20562566E+00 0.10010581E+03</pdfrwt>
<pdfrwt beam="2">  1       -2 0.42096739E-02 0.10010581E+03</pdfrwt>
<totfact> 0.41668153E+03</totfact>
</mgrwt>
</event>
<event>
 4    1  0.5015492E-001  0.9187840E+02  0.7546771E-02  0.1298366E+00
         -2   -1    0    0    0  501 -0.00000000000E+00  0.00000000000E+00  0.37454774640E+03  0.37454774640E+03  0.00000000000E+00 0.  1.
          2   -1    0    0  501    0  0.00000000000E+00 -0.00000000000E+00 -0.33345313066E+02  0.33345313066E+02  0.00000000000E+00 0. -1.
         24    1    1    2    0    0  0.41854055983E+02  0.14921863984E+02  0.54495570251E+02  0.10682418808E+03  0.80419002446E+02 0.  1.
        -24    1    1    2    0    0 -0.41854055983E+02 -0.14921863984E+02  0.28670686308E+03  0.30106887139E+03  0.80419002446E+02 0.  1.
<mgrwt>
<rscale>  0 0.91878398E+02</rscale>
<asrwt>0</asrwt>
<pdfrwt beam="1">  1        2 0.51300484E-02 0.91878398E+02</pdfrwt>
<pdfrwt beam="2">  1       -2 0.57622727E-01 0.91878398E+02</pdfrwt>
<totfact> 0.40285324E+03</totfact>
</mgrwt>
</event>
<event>
 4    1  0.5015492E-001  0.8884164E+02  0.7546771E-02  0.1305681E+00
          3   -1    0    0  501    0  0.00000000000E+00  0.00000000000E+00  0.77430312610E+02  0.77430312610E+02  0.00000000000E+00 0. -1.
         -3   -1    0    0    0  501 -0.00000000000E+00 -0.00000000000E+00 -0.15265450009E+03  0.15265450009E+03  0.00000000000E+00 0.  1.
         24    1    1    2    0    0 -0.37636134023E+02 -0.30235577564E+01 -0.10392405555E+03  0.13672251374E+03  0.80419002446E+02 0.  1.
        -24    1    1    2    0    0  0.37636134023E+02  0.30235577564E+01  0.28699868073E+02  0.93362298962E+02  0.80419002446E+02 0. -1.
<mgrwt>
<rscale>  0 0.88841637E+02</rscale>
<asrwt>0</asrwt>
<pdfrwt beam="1">  1        3 0.11912356E-01 0.88841637E+02</pdfrwt>
<pdfrwt beam="2">  1       -3 0.23485307E-01 0.88841637E+02</pdfrwt>
<totfact> 0.19582549E+03</totfact>
</mgrwt>
</event>
<event>
 4    1  0.5015492E-001  0.8607431E+02  0.7546771E-02  0.1312647E+00
         -1   -1    0    0    0  501 -0.00000000000E+00  0.00000000000E+00  0.10255566126E+03  0.10255566126E+03  0.00000000000E+00 0.  1.
          1   -1    0    0  501    0  0.00000000000E+00 -0.00000000000E+00 -0.75956665738E+02  0.75956665738E+02  0.00000000000E+00 0. -1.
         24    1    1    2    0    0 -0.28668140346E+02 -0.10941114920E+02  0.33039075511E+02  0.92197433433E+02  0.80419002446E+02 0.  1.
        -24    1    1    2    0    0  0.28668140346E+02  0.10941114920E+02 -0.64400799880E+01  0.86314893565E+02  0.80419002446E+02 0. -1.
<mgrwt>
<rscale>  0 0.86074306E+02</rscale>
<asrwt>0</asrwt>
<pdfrwt beam="1">  1        1 0.11685641E-01 0.86074306E+02</pdfrwt>
<pdfrwt beam="2">  1       -1 0.15777794E-01 0.86074306E+02</pdfrwt>
<totfact> 0.13728072E+04</totfact>
</mgrwt>
</event>
<event>
 4    1  0.5015492E-001  0.8841905E+02  0.7546771E-02  0.1306726E+00
          1   -1    0    0  501    0  0.00000000000E+00  0.00000000000E+00  0.73388887693E+03  0.73388887693E+03  0.00000000000E+00 0. -1.
         -1   -1    0    0    0  501 -0.00000000000E+00 -0.00000000000E+00 -0.17726911113E+02  0.17726911113E+02  0.00000000000E+00 0.  1.
         24    1    1    2    0    0 -0.61907517150E+01  0.36226893251E+02  0.12067750800E+03  0.14960277435E+03  0.80419002446E+02 0.  1.
        -24    1    1    2    0    0  0.61907517150E+01 -0.36226893251E+02  0.59548445781E+03  0.60201301369E+03  0.80419002446E+02 0. -1.
<mgrwt>
<rscale>  0 0.88419054E+02</rscale>
<asrwt>0</asrwt>
<pdfrwt beam="1">  1        1 0.11290596E+00 0.88419054E+02</pdfrwt>
<pdfrwt beam="2">  1       -1 0.27272177E-02 0.88419054E+02</pdfrwt>
<totfact> 0.10596131E+04</totfact>
</mgrwt>
</event>
<event>
 4    1  0.5015492E-001  0.9724093E+02  0.7546771E-02  0.1286207E+00
         -1   -1    0    0    0  501 -0.00000000000E+00  0.00000000000E+00  0.11560154736E+03  0.11560154736E+03  0.00000000000E+00 0.  1.
          1   -1    0    0  501    0  0.00000000000E+00 -0.00000000000E+00 -0.22197977559E+03  0.22197977559E+03  0.00000000000E+00 0. -1.
         24    1    1    2    0    0 -0.50646133774E+02 -0.20580373585E+02  0.80945189282E+02  0.12652241804E+03  0.80419002446E+02 0.  1.
        -24    1    1    2    0    0  0.50646133774E+02  0.20580373585E+02 -0.18732341751E+03  0.21105890492E+03  0.80419002446E+02 0. -1.
<mgrwt>
<rscale>  0 0.97240931E+02</rscale>
<asrwt>0</asrwt>
<pdfrwt beam="1">  1        1 0.34150734E-01 0.97240931E+02</pdfrwt>
<pdfrwt beam="2">  1       -1 0.17784854E-01 0.97240931E+02</pdfrwt>
<totfact> 0.29843131E+03</totfact>
</mgrwt>
</event>
<event>
 4    1  0.5015492E-001  0.8708291E+02  0.7546771E-02  0.1310074E+00
         -2   -1    0    0    0  501 -0.00000000000E+00  0.00000000000E+00  0.48754554907E+02  0.48754554907E+02  0.00000000000E+00 0.  1.
          2   -1    0    0  501    0  0.00000000000E+00 -0.00000000000E+00 -0.22531447836E+03  0.22531447836E+03  0.00000000000E+00 0. -1.
         24    1    1    2    0    0  0.32519891372E+02 -0.76598543982E+01 -0.16453599291E+03  0.18615994634E+03  0.80419002446E+02 0. -1.
        -24    1    1    2    0    0 -0.32519891372E+02  0.76598543982E+01 -0.12023930544E+02  0.87909086927E+02  0.80419002446E+02 0.  0.
<mgrwt>
<rscale>  0 0.87082907E+02</rscale>
<asrwt>0</asrwt>
<pdfrwt beam="1">  1        2 0.34663767E-01 0.87082907E+02</pdfrwt>
<pdfrwt beam="2">  1       -2 0.75007006E-02 0.87082907E+02</pdfrwt>
<totfact> 0.14065187E+04</totfact>
</mgrwt>
</event>
<event>
 4    1  0.5015492E-001  0.8449818E+02  0.7546771E-02  0.1316750E+00
         -1   -1    0    0    0  501 -0.00000000000E+00  0.00000000000E+00  0.48548704671E+02  0.48548704671E+02  0.00000000000E+00 0.  1.
          1   -1    0    0  501    0  0.00000000000E+00 -0.00000000000E+00 -0.55938482546E+03  0.55938482546E+03  0.00000000000E+00 0. -1.
         24    1    1    2    0    0  0.19727421714E+02 -0.16839125030E+02  0.55494732933E+01  0.84680221466E+02  0.80419002446E+02 0.  1.
        -24    1    1    2    0    0 -0.19727421714E+02  0.16839125030E+02 -0.51638559408E+03  0.52325330867E+03  0.80419002446E+02 0. -1.
<mgrwt>
<rscale>  0 0.84498185E+02</rscale>
<asrwt>0</asrwt>
<pdfrwt beam="1">  1        1 0.86059202E-01 0.84498185E+02</pdfrwt>
<pdfrwt beam="2">  1       -1 0.74690317E-02 0.84498185E+02</pdfrwt>
<totfact> 0.35256945E+03</totfact>
</mgrwt>
</event>
<event>
 4    1  0.5015492E-001  0.9050098E+02  0.7546771E-02  0.1301643E+00
          1   -1    0    0  501    0  0.00000000000E+00  0.00000000000E+00  0.10134067495E+03  0.10134067495E+03  0.00000000000E+00 0. -1.
         -1   -1    0    0    0  501 -0.00000000000E+00 -0.00000000000E+00 -0.10928092383E+03  0.10928092383E+03  0.00000000000E+00 0.  1.
         24    1    1    2    0    0  0.40889493265E+02  0.71596332663E+01 -0.57712849618E+02  0.10733685282E+03  0.80419002446E+02 0.  1.
        -24    1    1    2    0    0 -0.40889493265E+02 -0.71596332663E+01  0.49772600740E+02  0.10328474595E+03  0.80419002446E+02 0. -1.
<mgrwt>
<rscale>  0 0.90500978E+02</rscale>
<asrwt>0</asrwt>
<pdfrwt beam="1">  1        1 0.15590873E-01 0.90500978E+02</pdfrwt>
<pdfrwt beam="2">  1       -1 0.16812450E-01 0.90500978E+02</pdfrwt>
<totfact> 0.86253732E+03</totfact>
</mgrwt>
</event>
<event>
 4    1  0.5015492E-001  0.1336729E+03  0.7546771E-02  0.1222105E+00
         -2   -1    0    0    0  501 -0.00000000000E+00  0.00000000000E+00  0.32410657154E+02  0.32410657154E+02  0.00000000000E+00 0.  1.
          2   -1    0    0  501    0  0.00000000000E+00 -0.00000000000E+00 -0.58657263485E+03  0.58657263485E+03  0.00000000000E+00 0. -1.
         24    1    1    2    0    0 -0.40515497025E+02 -0.98791298890E+02 -0.35296007286E+03  0.37742450268E+03  0.80419002446E+02 0.  1.
        -24    1    1    2    0    0  0.40515497025E+02  0.98791298890E+02 -0.20120190484E+03  0.24155878933E+03  0.80419002446E+02 0. -1.
<mgrwt>
<rscale>  0 0.13367289E+03</rscale>
<asrwt>0</asrwt>
<pdfrwt beam="1">  1        2 0.90241939E-01 0.13367289E+03</pdfrwt>
<pdfrwt beam="2">  1       -2 0.49862552E-02 0.13367289E+03</pdfrwt>
<totfact> 0.97212377E+03</totfact>
</mgrwt>
</event>
<event>
 4    1  0.5015492E-001  0.9176375E+02  0.7546771E-02  0.1298636E+00
          2   -1    0    0  501    0  0.00000000000E+00  0.00000000000E+00  0.36832665747E+02  0.36832665747E+02  0.00000000000E+00 0. -1.
         -2   -1    0    0    0  501 -0.00000000000E+00 -0.00000000000E+00 -0.33778789369E+03  0.33778789369E+03  0.00000000000E+00 0.  1.
         24    1    1    2    0    0  0.38138519715E+02 -0.22334329375E+02 -0.43991643977E+02  0.10176369514E+03  0.80419002446E+02 0. -1.
        -24    1    1    2    0    0 -0.38138519715E+02  0.22334329375E+02 -0.25696358397E+03  0.27285686430E+03  0.80419002446E+02 0.  1.
<mgrwt>
<rscale>  0 0.91763745E+02</rscale>
<asrwt>0</asrwt>
<pdfrwt beam="1">  1        2 0.56665639E-02 0.91763745E+02</pdfrwt>
<pdfrwt beam="2">  1       -2 0.51967369E-01 0.91763745E+02</pdfrwt>
<totfact> 0.43590627E+03</totfact>
</mgrwt>
</event>
<event>
 4    1  0.5015492E-001  0.8084956E+02  0.7546771E-02  0.1326658E+00
          2   -1    0    0  501    0  0.00000000000E+00  0.00000000000E+00  0.10815584501E+04  0.10815584501E+04  0.00000000000E+00 0. -1.
         -2   -1    0    0    0  501 -0.00000000000E+00 -0.00000000000E+00 -0.21524275538E+02  0.21524275538E+02  0.00000000000E+00 0.  1.
         24    1    1    2    0    0 -0.20104394701E+00 -0.83303900844E+01  0.99775964749E+03  0.10010299526E+04  0.80419002446E+02 0.  0.
        -24    1    1    2    0    0  0.20104394701E+00  0.83303900844E+01  0.62274527098E+02  0.10205277310E+03  0.80419002446E+02 0.  1.
<mgrwt>
<rscale>  0 0.80849563E+02</rscale>
<asrwt>0</asrwt>
<pdfrwt beam="1">  1        2 0.16639357E+00 0.80849563E+02</pdfrwt>
<pdfrwt beam="2">  1       -2 0.33114278E-02 0.80849563E+02</pdfrwt>
<totfact> 0.80674214E+03</totfact>
</mgrwt>
</event>
<event>
 4    1  0.5015492E-001  0.9162655E+02  0.7546771E-02  0.1298960E+00
          1   -1    0    0  501    0  0.00000000000E+00  0.00000000000E+00  0.97648809707E+03  0.97648809707E+03  0.00000000000E+00 0. -1.
         -1   -1    0    0    0  501 -0.00000000000E+00 -0.00000000000E+00 -0.17800627357E+02  0.17800627357E+02  0.00000000000E+00 0.  1.
         24    1    1    2    0    0 -0.71737948915E+01  0.43321424803E+02  0.12188087965E+03  0.15248073308E+03  0.80419002446E+02 0.  1.
        -24    1    1    2    0    0  0.71737948915E+01 -0.43321424803E+02  0.83680659006E+03  0.84180799135E+03  0.80419002446E+02 0. -1.
<mgrwt>
<rscale>  0 0.91626553E+02</rscale>
<asrwt>0</asrwt>
<pdfrwt beam="1">  1        1 0.15022890E+00 0.91626553E+02</pdfrwt>
<pdfrwt beam="2">  1       -1 0.27385588E-02 0.91626553E+02</pdfrwt>
<totfact> 0.68321398E+03</totfact>
</mgrwt>
</event>
<event>
 4    1  0.5015492E-001  0.8355306E+02  0.7546771E-02  0.1319260E+00
         -2   -1    0    0    0  501 -0.00000000000E+00  0.00000000000E+00  0.68507767533E+01  0.68507767533E+01  0.00000000000E+00 0.  1.
          2   -1    0    0  501    0  0.00000000000E+00 -0.00000000000E+00 -0.12962384973E+04  0.12962384973E+04  0.00000000000E+00 0. -1.
         24    1    1    2    0    0  0.15642083166E+01 -0.22615277663E+02 -0.94600058313E+03  0.94968321917E+03  0.80419002446E+02 0. -1.
        -24    1    1    2    0    0 -0.15642083166E+01  0.22615277663E+02 -0.34338713737E+03  0.35340605483E+03  0.80419002446E+02 0.  1.
<mgrwt>
<rscale>  0 0.83553058E+02</rscale>
<asrwt>0</asrwt>
<pdfrwt beam="1">  1        2 0.19942136E+00 0.83553058E+02</pdfrwt>
<pdfrwt beam="2">  1       -2 0.10539654E-02 0.83553058E+02</pdfrwt>
<totfact> 0.31827700E+04</totfact>
</mgrwt>
</event>
<event>
 4    1  0.5015492E-001  0.8730848E+02  0.7546771E-02  0.1309504E+00
         -2   -1    0    0    0  501 -0.00000000000E+00  0.00000000000E+00  0.21294520411E+03  0.21294520411E+03  0.00000000000E+00 0.  1.
          2   -1    0    0  501    0  0.00000000000E+00 -0.00000000000E+00 -0.52581810715E+02  0.52581810715E+02  0.00000000000E+00 0. -1.
         24    1    1    2    0    0 -0.28773469878E+02 -0.18100902631E+02  0.51713988072E+01  0.87461503331E+02  0.80419002446E+02 0. -1.
        -24    1    1    2    0    0  0.28773469878E+02  0.18100902631E+02  0.15519199459E+03  0.17806551149E+03  0.80419002446E+02 0.  1.
<mgrwt>
<rscale>  0 0.87308483E+02</rscale>
<asrwt>0</asrwt>
<pdfrwt beam="1">  1        2 0.80895095E-02 0.87308483E+02</pdfrwt>
<pdfrwt beam="2">  1       -2 0.32760800E-01 0.87308483E+02</pdfrwt>
<totfact> 0.66288572E+03</totfact>
</mgrwt>
</event>
<event>
 4    1  0.5015492E-001  0.8963733E+02  0.7546771E-02  0.1303732E+00
          1   -1    0    0  501    0  0.00000000000E+00  0.00000000000E+00  0.26026595374E+03  0.26026595374E+03  0.00000000000E+00 0. -1.
         -1   -1    0    0    0  501 -0.00000000000E+00 -0.00000000000E+00 -0.31336853918E+02  0.31336853918E+02  0.00000000000E+00 0.  1.
         24    1    1    2    0    0 -0.16815761063E+02 -0.35844958993E+02  0.13222861543E+03  0.15974746821E+03  0.80419002446E+02 0.  0.
        -24    1    1    2    0    0  0.16815761063E+02  0.35844958993E+02  0.96700484383E+02  0.13185533944E+03  0.80419002446E+02 0.  0.
<mgrwt>
<rscale>  0 0.89637319E+02</rscale>
<asrwt>0</asrwt>
<pdfrwt beam="1">  1        1 0.40040915E-01 0.89637330E+02</pdfrwt>
<pdfrwt beam="2">  1       -1 0.48210546E-02 0.89637330E+02</pdfrwt>
<totfact> 0.17498007E+04</totfact>
</mgrwt>
</event>
<event>
 4    1  0.5015492E-001  0.1172213E+03  0.7546771E-02  0.1247753E+00
          3   -1    0    0  501    0  0.00000000000E+00  0.00000000000E+00  0.12129511227E+03  0.12129511227E+03  0.00000000000E+00 0. -1.
         -3   -1    0    0    0  501 -0.00000000000E+00 -0.00000000000E+00 -0.34040931708E+03  0.34040931708E+03  0.00000000000E+00 0.  1.
         24    1    1    2    0    0  0.46176402799E+02 -0.71703187727E+02 -0.29812418443E+03  0.32034177467E+03  0.80419002446E+02 0.  1.
        -24    1    1    2    0    0 -0.46176402799E+02  0.71703187727E+02  0.79009979619E+02  0.14136265468E+03  0.80419002446E+02 0. -1.
<mgrwt>
<rscale>  0 0.11722126E+03</rscale>
<asrwt>0</asrwt>
<pdfrwt beam="1">  1        3 0.18660787E-01 0.11722126E+03</pdfrwt>
<pdfrwt beam="2">  1       -3 0.52370662E-01 0.11722126E+03</pdfrwt>
<totfact> 0.21158960E+02</totfact>
</mgrwt>
</event>
<event>
 4    1  0.5015492E-001  0.8487085E+02  0.7546771E-02  0.1315771E+00
          2   -1    0    0  501    0  0.00000000000E+00  0.00000000000E+00  0.25806816009E+03  0.25806816009E+03  0.00000000000E+00 0. -1.
         -2   -1    0    0    0  501 -0.00000000000E+00 -0.00000000000E+00 -0.33151610828E+02  0.33151610828E+02  0.00000000000E+00 0.  1.
         24    1    1    2    0    0  0.15566655765E+02  0.22215416889E+02  0.17034914240E+03  0.19032049756E+03  0.80419002446E+02 0. -1.
        -24    1    1    2    0    0 -0.15566655765E+02 -0.22215416889E+02  0.54567406865E+02  0.10089927336E+03  0.80419002446E+02 0.  1.
<mgrwt>
<rscale>  0 0.84870852E+02</rscale>
<asrwt>0</asrwt>
<pdfrwt beam="1">  1        2 0.39702793E-01 0.84870852E+02</pdfrwt>
<pdfrwt beam="2">  1       -2 0.51002480E-02 0.84870852E+02</pdfrwt>
<totfact> 0.21698344E+04</totfact>
</mgrwt>
</event>
<event>
 4    1  0.5015492E-001  0.8062596E+02  0.7546771E-02  0.1327284E+00
         -2   -1    0    0    0  501 -0.00000000000E+00  0.00000000000E+00  0.11025556627E+03  0.11025556627E+03  0.00000000000E+00 0.  1.
          2   -1    0    0  501    0  0.00000000000E+00 -0.00000000000E+00 -0.59982741145E+02  0.59982741145E+02  0.00000000000E+00 0. -1.
         24    1    1    2    0    0  0.14090102915E+01  0.55985676310E+01  0.14015673049E+02  0.81835104417E+02  0.80419002446E+02 0. -1.
        -24    1    1    2    0    0 -0.14090102915E+01 -0.55985676310E+01  0.36257152078E+02  0.88403203000E+02  0.80419002446E+02 0.  0.
<mgrwt>
<rscale>  0 0.80625959E+02</rscale>
<asrwt>0</asrwt>
<pdfrwt beam="1">  1        2 0.92281140E-02 0.80625959E+02</pdfrwt>
<pdfrwt beam="2">  1       -2 0.16962395E-01 0.80625959E+02</pdfrwt>
<totfact> 0.17295521E+04</totfact>
</mgrwt>
</event>
<event>
 4    1  0.5015492E-001  0.8393009E+02  0.7546771E-02  0.1318254E+00
          2   -1    0    0  501    0  0.00000000000E+00  0.00000000000E+00  0.22229671514E+04  0.22229671514E+04  0.00000000000E+00 0. -1.
         -2   -1    0    0    0  501 -0.00000000000E+00 -0.00000000000E+00 -0.34571590181E+01  0.34571590181E+01  0.00000000000E+00 0.  1.
         24    1    1    2    0    0  0.11346092996E+02 -0.21173345352E+02  0.14312273944E+04  0.14336861982E+04  0.80419002446E+02 0.  0.
        -24    1    1    2    0    0 -0.11346092996E+02  0.21173345352E+02  0.78828259796E+03  0.79273811223E+03  0.80419002446E+02 0.  0.
<mgrwt>
<rscale>  0 0.83930092E+02</rscale>
<asrwt>0</asrwt>
<pdfrwt beam="1">  1        2 0.34199380E+00 0.83930092E+02</pdfrwt>
<pdfrwt beam="2">  1       -2 0.53187240E-03 0.83930092E+02</pdfrwt>
<totfact> 0.28323575E+04</totfact>
</mgrwt>
</event>
<event>
 4    1  0.5015492E-001  0.1028418E+03  0.7546771E-02  0.1274431E+00
          2   -1    0    0  501    0  0.00000000000E+00  0.00000000000E+00  0.20748830074E+04  0.20748830074E+04  0.00000000000E+00 0. -1.
         -2   -1    0    0    0  501 -0.00000000000E+00 -0.00000000000E+00 -0.66692178431E+01  0.66692178431E+01  0.00000000000E+00 0.  1.
         24    1    1    2    0    0 -0.40743010718E+02  0.49489759212E+02  0.15393788566E+04  0.15428103284E+04  0.80419002446E+02 0. -1.
        -24    1    1    2    0    0  0.40743010718E+02 -0.49489759212E+02  0.52883493299E+03  0.53874189691E+03  0.80419002446E+02 0.  1.
<mgrwt>
<rscale>  0 0.10284185E+03</rscale>
<asrwt>0</asrwt>
<pdfrwt beam="1">  1        2 0.31921226E+00 0.10284185E+03</pdfrwt>
<pdfrwt beam="2">  1       -2 0.10260352E-02 0.10284185E+03</pdfrwt>
<totfact> 0.13485449E+04</totfact>
</mgrwt>
</event>
<event>
 4    1  0.5015492E-001  0.9261963E+02  0.7546771E-02  0.1296629E+00
         -2   -1    0    0    0  501 -0.00000000000E+00  0.00000000000E+00  0.97654347612E+01  0.97654347612E+01  0.00000000000E+00 0.  1.
          2   -1    0    0  501    0  0.00000000000E+00 -0.00000000000E+00 -0.21795948703E+04  0.21795948703E+04  0.00000000000E+00 0. -1.
         24    1    1    2    0    0  0.39517300173E+02 -0.23442758646E+02 -0.19307056826E+04  0.19329259760E+04  0.80419002446E+02 0. -1.
        -24    1    1    2    0    0 -0.39517300173E+02  0.23442758646E+02 -0.23912375301E+03  0.25643432913E+03  0.80419002446E+02 0.  1.
<mgrwt>
<rscale>  0 0.92619630E+02</rscale>
<asrwt>0</asrwt>
<pdfrwt beam="1">  1        2 0.33532216E+00 0.92619630E+02</pdfrwt>
<pdfrwt beam="2">  1       -2 0.15023751E-02 0.92619630E+02</pdfrwt>
<totfact> 0.69067690E+03</totfact>
</mgrwt>
</event>
<event>
 4    1  0.5015492E-001  0.1203483E+03  0.7546771E-02  0.1242524E+00
         -1   -1    0    0    0  501 -0.00000000000E+00  0.00000000000E+00  0.43246754594E+02  0.43246754594E+02  0.00000000000E+00 0.  1.
          1   -1    0    0  501    0  0.00000000000E+00 -0.00000000000E+00 -0.35183226709E+03  0.35183226709E+03  0.00000000000E+00 0. -1.
         24    1    1    2    0    0  0.80926136923E+02 -0.38307392878E+02 -0.19761718173E+03  0.23137904498E+03  0.80419002446E+02 0.  1.
        -24    1    1    2    0    0 -0.80926136923E+02  0.38307392878E+02 -0.11096833077E+03  0.16369997671E+03  0.80419002446E+02 0.  0.
<mgrwt>
<rscale>  0 0.12034831E+03</rscale>
<asrwt>0</asrwt>
<pdfrwt beam="1">  1        1 0.54128043E-01 0.12034832E+03</pdfrwt>
<pdfrwt beam="2">  1       -1 0.66533466E-02 0.12034832E+03</pdfrwt>
<totfact> 0.77065337E+03</totfact>
</mgrwt>
</event>
<event>
 4    1  0.5015492E-001  0.8739610E+02  0.7546771E-02  0.1309283E+00
          4   -1    0    0  501    0  0.00000000000E+00  0.00000000000E+00  0.45290460780E+02  0.45290460780E+02  0.00000000000E+00 0. -1.
         -4   -1    0    0    0  501 -0.00000000000E+00 -0.00000000000E+00 -0.19128268811E+03  0.19128268811E+03  0.00000000000E+00 0.  1.
         24    1    1    2    0    0 -0.27528896173E+02  0.20322957672E+02 -0.32305048501E+02  0.93175612936E+02  0.80419002446E+02 0. -1.
        -24    1    1    2    0    0  0.27528896173E+02 -0.20322957672E+02 -0.11368717883E+03  0.14339753595E+03  0.80419002446E+02 0.  1.
<mgrwt>
<rscale>  0 0.87396102E+02</rscale>
<asrwt>0</asrwt>
<pdfrwt beam="1">  1        4 0.69677632E-02 0.87396102E+02</pdfrwt>
<pdfrwt beam="2">  1       -4 0.29428106E-01 0.87396102E+02</pdfrwt>
<totfact> 0.22529310E+03</totfact>
</mgrwt>
</event>
<event>
 4    1  0.5015492E-001  0.9101085E+02  0.7546771E-02  0.1300422E+00
         -1   -1    0    0    0  501 -0.00000000000E+00  0.00000000000E+00  0.27194906900E+02  0.27194906900E+02  0.00000000000E+00 0.  1.
          1   -1    0    0  501    0  0.00000000000E+00 -0.00000000000E+00 -0.36670901506E+03  0.36670901506E+03  0.00000000000E+00 0. -1.
         24    1    1    2    0    0 -0.11417770441E+02 -0.41053542282E+02 -0.88688360796E+02  0.12707714236E+03  0.80419002446E+02 0.  1.
        -24    1    1    2    0    0  0.11417770441E+02  0.41053542282E+02 -0.25082574736E+03  0.26682677960E+03  0.80419002446E+02 0. -1.
<mgrwt>
<rscale>  0 0.91010850E+02</rscale>
<asrwt>0</asrwt>
<pdfrwt beam="1">  1        1 0.56416769E-01 0.91010850E+02</pdfrwt>
<pdfrwt beam="2">  1       -1 0.41838320E-02 0.91010850E+02</pdfrwt>
<totfact> 0.14165288E+04</totfact>
</mgrwt>
</event>
<event>
 4    1  0.5015492E-001  0.1273142E+03  0.7546771E-02  0.1231496E+00
         -1   -1    0    0    0  501 -0.00000000000E+00  0.00000000000E+00  0.10977041915E+03  0.10977041915E+03  0.00000000000E+00 0.  1.
          1   -1    0    0  501    0  0.00000000000E+00 -0.00000000000E+00 -0.23737838699E+03  0.23737838699E+03  0.00000000000E+00 0. -1.
         24    1    1    2    0    0  0.19956669935E+02  0.96661357003E+02  0.42905091559E+02  0.13434935597E+03  0.80419002446E+02 0.  1.
        -24    1    1    2    0    0 -0.19956669935E+02 -0.96661357003E+02 -0.17051305940E+03  0.21279945017E+03  0.80419002446E+02 0. -1.
<mgrwt>
<rscale>  0 0.12731419E+03</rscale>
<asrwt>0</asrwt>
<pdfrwt beam="1">  1        1 0.36519751E-01 0.12731419E+03</pdfrwt>
<pdfrwt beam="2">  1       -1 0.16887757E-01 0.12731419E+03</pdfrwt>
<totfact> 0.30226498E+03</totfact>
</mgrwt>
</event>
<event>
 4    1  0.5015492E-001  0.9828456E+02  0.7546771E-02  0.1283945E+00
          1   -1    0    0  501    0  0.00000000000E+00  0.00000000000E+00  0.16410531209E+04  0.16410531209E+04  0.00000000000E+00 0. -1.
         -1   -1    0    0    0  501 -0.00000000000E+00 -0.00000000000E+00 -0.70072851418E+01  0.70072851418E+01  0.00000000000E+00 0.  1.
         24    1    1    2    0    0 -0.22862560824E+02  0.51671481130E+02  0.48744844161E+03  0.49725832102E+03  0.80419002446E+02 0.  1.
        -24    1    1    2    0    0  0.22862560824E+02 -0.51671481130E+02  0.11465973942E+04  0.11508020851E+04  0.80419002446E+02 0. -1.
<mgrwt>
<rscale>  0 0.98284559E+02</rscale>
<asrwt>0</asrwt>
<pdfrwt beam="1">  1        1 0.25246941E+00 0.98284559E+02</pdfrwt>
<pdfrwt beam="2">  1       -1 0.10780452E-02 0.98284559E+02</pdfrwt>
<totfact> 0.93583021E+03</totfact>
</mgrwt>
</event>
<event>
 4    1  0.5015492E-001  0.9633263E+02  0.7546771E-02  0.1288203E+00
          2   -1    0    0  501    0  0.00000000000E+00  0.00000000000E+00  0.11954031547E+04  0.11954031547E+04  0.00000000000E+00 0. -1.
         -2   -1    0    0    0  501 -0.00000000000E+00 -0.00000000000E+00 -0.28718804949E+02  0.28718804949E+02  0.00000000000E+00 0.  1.
         24    1    1    2    0    0  0.51222519608E+02  0.13748185327E+02  0.11061753797E+04  0.11103620787E+04  0.80419002446E+02 0. -1.
        -24    1    1    2    0    0 -0.51222519608E+02 -0.13748185327E+02  0.60508970079E+02  0.11375988102E+03  0.80419002446E+02 0.  1.
<mgrwt>
<rscale>  0 0.96332627E+02</rscale>
<asrwt>0</asrwt>
<pdfrwt beam="1">  1        2 0.18390814E+00 0.96332627E+02</pdfrwt>
<pdfrwt beam="2">  1       -2 0.44182786E-02 0.96332627E+02</pdfrwt>
<totfact> 0.46110641E+03</totfact>
</mgrwt>
</event>
<event>
 4    1  0.5015492E-001  0.8454519E+02  0.7546771E-02  0.1316626E+00
         -2   -1    0    0    0  501 -0.00000000000E+00  0.00000000000E+00  0.27495578189E+02  0.27495578189E+02  0.00000000000E+00 0.  1.
          2   -1    0    0  501    0  0.00000000000E+00 -0.00000000000E+00 -0.10265976603E+04  0.10265976603E+04  0.00000000000E+00 0. -1.
         24    1    1    2    0    0  0.13704184119E+02  0.22200659790E+02 -0.95500295937E+03  0.95873799461E+03  0.80419002446E+02 0. -1.
        -24    1    1    2    0    0 -0.13704184119E+02 -0.22200659790E+02 -0.44099122779E+02  0.95355243913E+02  0.80419002446E+02 0.  1.
<mgrwt>
<rscale>  0 0.84545194E+02</rscale>
<asrwt>0</asrwt>
<pdfrwt beam="1">  1        2 0.15793806E+00 0.84545194E+02</pdfrwt>
<pdfrwt beam="2">  1       -2 0.42300901E-02 0.84545194E+02</pdfrwt>
<totfact> 0.60762139E+03</totfact>
</mgrwt>
</event>
<event>
 4    1  0.5015492E-001  0.1299946E+03  0.7546771E-02  0.1227464E+00
         -2   -1    0    0    0  501 -0.00000000000E+00  0.00000000000E+00  0.12899323939E+02  0.12899323939E+02  0.00000000000E+00 0.  1.
          2   -1    0    0  501    0  0.00000000000E+00 -0.00000000000E+00 -0.30829391780E+04  0.30829391780E+04  0.00000000000E+00 0. -1.
         24    1    1    2    0    0  0.69494527978E+02  0.74845702917E+02 -0.27088582294E+04  0.27119755699E+04  0.80419002446E+02 0. -1.
        -24    1    1    2    0    0 -0.69494527978E+02 -0.74845702917E+02 -0.36118162464E+03  0.38386293204E+03  0.80419002446E+02 0.  1.
<mgrwt>
<rscale>  0 0.12999456E+03</rscale>
<asrwt>0</asrwt>
<pdfrwt beam="1">  1        2 0.47429876E+00 0.12999456E+03</pdfrwt>
<pdfrwt beam="2">  1       -2 0.19845096E-02 0.12999456E+03</pdfrwt>
<totfact> 0.14966290E+03</totfact>
</mgrwt>
</event>
<event>
 4    1  0.5015492E-001  0.1020868E+03  0.7546771E-02  0.1275968E+00
         -2   -1    0    0    0  501 -0.00000000000E+00  0.00000000000E+00  0.58438843729E+01  0.58438843729E+01  0.00000000000E+00 0.  1.
          2   -1    0    0  501    0  0.00000000000E+00 -0.00000000000E+00 -0.31022057179E+04  0.31022057179E+04  0.00000000000E+00 0. -1.
         24    1    1    2    0    0  0.51640192418E+02  0.35885643659E+02 -0.25614409370E+04  0.25634744740E+04  0.80419002446E+02 0. -1.
        -24    1    1    2    0    0 -0.51640192418E+02 -0.35885643659E+02 -0.53492089656E+03  0.54457512835E+03  0.80419002446E+02 0.  1.
<mgrwt>
<rscale>  0 0.10208675E+03</rscale>
<asrwt>0</asrwt>
<pdfrwt beam="1">  1        2 0.47726400E+00 0.10208675E+03</pdfrwt>
<pdfrwt beam="2">  1       -2 0.89905616E-03 0.10208675E+03</pdfrwt>
<totfact> 0.45575634E+03</totfact>
</mgrwt>
</event>
<event>
 4    1  0.5015492E-001  0.8366736E+02  0.7546771E-02  0.1318955E+00
         -1   -1    0    0    0  501 -0.00000000000E+00  0.00000000000E+00  0.78731161991E+02  0.78731161991E+02  0.00000000000E+00 0.  1.
          1   -1    0    0  501    0  0.00000000000E+00 -0.00000000000E+00 -0.25689583098E+03  0.25689583098E+03  0.00000000000E+00 0. -1.
         24    1    1    2    0    0 -0.83888882603E+01  0.21508997491E+02  0.46617951802E+02  0.95778180208E+02  0.80419002446E+02 0.  1.
        -24    1    1    2    0    0  0.83888882603E+01 -0.21508997491E+02 -0.22478262079E+03  0.23984881276E+03  0.80419002446E+02 0. -1.
<mgrwt>
<rscale>  0 0.83667355E+02</rscale>
<asrwt>0</asrwt>
<pdfrwt beam="1">  1        1 0.39522436E-01 0.83667355E+02</pdfrwt>
<pdfrwt beam="2">  1       -1 0.12112486E-01 0.83667355E+02</pdfrwt>
<totfact> 0.44834787E+03</totfact>
</mgrwt>
</event>
<event>
 4    1  0.5015492E-001  0.8231747E+02  0.7546771E-02  0.1322601E+00
         -1   -1    0    0    0  501 -0.00000000000E+00  0.00000000000E+00  0.18490522875E+02  0.18490522875E+02  0.00000000000E+00 0.  1.
          1   -1    0    0  501    0  0.00000000000E+00 -0.00000000000E+00 -0.41065588465E+03  0.41065588465E+03  0.00000000000E+00 0. -1.
         24    1    1    2    0    0 -0.17219117283E+02 -0.35282666878E+01 -0.26646993077E+03  0.27889493833E+03  0.80419002446E+02 0. -1.
        -24    1    1    2    0    0  0.17219117283E+02  0.35282666878E+01 -0.12569543100E+03  0.15025146920E+03  0.80419002446E+02 0.  1.
<mgrwt>
<rscale>  0 0.82317461E+02</rscale>
<asrwt>0</asrwt>
<pdfrwt beam="1">  1        1 0.63177826E-01 0.82317471E+02</pdfrwt>
<pdfrwt beam="2">  1       -1 0.28446959E-02 0.82317471E+02</pdfrwt>
<totfact> 0.21274733E+04</totfact>
</mgrwt>
</event>
<event>
 4    1  0.5015492E-001  0.8375357E+02  0.7546771E-02  0.1318725E+00
         -2   -1    0    0    0  501 -0.00000000000E+00  0.00000000000E+00  0.46402732550E+02  0.46402732550E+02  0.00000000000E+00 0.  1.
          2   -1    0    0  501    0  0.00000000000E+00 -0.00000000000E+00 -0.37212420806E+03  0.37212420806E+03  0.00000000000E+00 0. -1.
         24    1    1    2    0    0 -0.10927178871E+02  0.20689178239E+02 -0.32411137616E+03  0.33475789078E+03  0.80419002446E+02 0. -1.
        -24    1    1    2    0    0  0.10927178871E+02 -0.20689178239E+02 -0.16100993536E+01  0.83769049825E+02  0.80419002446E+02 0.  1.
<mgrwt>
<rscale>  0 0.83753575E+02</rscale>
<asrwt>0</asrwt>
<pdfrwt beam="1">  1        2 0.57249879E-01 0.83753575E+02</pdfrwt>
<pdfrwt beam="2">  1       -2 0.71388818E-02 0.83753575E+02</pdfrwt>
<totfact> 0.89385113E+03</totfact>
</mgrwt>
</event>
<event>
 4    1  0.5015492E-001  0.8266980E+02  0.7546771E-02  0.1321641E+00
         -2   -1    0    0    0  501 -0.00000000000E+00  0.00000000000E+00  0.24799537795E+03  0.24799537795E+03  0.00000000000E+00 0.  1.
          2   -1    0    0  501    0  0.00000000000E+00 -0.00000000000E+00 -0.72877595858E+02  0.72877595858E+02  0.00000000000E+00 0. -1.
         24    1    1    2    0    0  0.11578444668E+02 -0.15264953702E+02 -0.38957966084E+02  0.91389377217E+02  0.80419002446E+02 0. -1.
        -24    1    1    2    0    0 -0.11578444668E+02  0.15264953702E+02  0.21407574818E+03  0.22948359659E+03  0.80419002446E+02 0.  1.
<mgrwt>
<rscale>  0 0.82669796E+02</rscale>
<asrwt>0</asrwt>
<pdfrwt beam="1">  1        2 0.11211938E-01 0.82669796E+02</pdfrwt>
<pdfrwt beam="2">  1       -2 0.38153135E-01 0.82669796E+02</pdfrwt>
<totfact> 0.33572521E+03</totfact>
</mgrwt>
</event>
<event>
 4    1  0.5015492E-001  0.8592277E+02  0.7546771E-02  0.1313037E+00
          2   -1    0    0  501    0  0.00000000000E+00  0.00000000000E+00  0.26277068277E+03  0.26277068277E+03  0.00000000000E+00 0. -1.
         -2   -1    0    0    0  501 -0.00000000000E+00 -0.00000000000E+00 -0.77959884441E+02  0.77959884441E+02  0.00000000000E+00 0.  1.
         24    1    1    2    0    0  0.46372385266E+01  0.29899872621E+02  0.22865647272E+03  0.24426728155E+03  0.80419002446E+02 0.  0.
        -24    1    1    2    0    0 -0.46372385266E+01 -0.29899872621E+02 -0.43845674391E+02  0.96463285664E+02  0.80419002446E+02 0.  0.
<mgrwt>
<rscale>  0 0.85922769E+02</rscale>
<asrwt>0</asrwt>
<pdfrwt beam="1">  1        2 0.40426258E-01 0.85922769E+02</pdfrwt>
<pdfrwt beam="2">  1       -2 0.11993829E-01 0.85922769E+02</pdfrwt>
<totfact> 0.57814146E+03</totfact>
</mgrwt>
</event>
<event>
 4    1  0.5015492E-001  0.1114467E+03  0.7546771E-02  0.1257914E+00
         -1   -1    0    0    0  501 -0.00000000000E+00  0.00000000000E+00  0.56039332097E+02  0.56039332097E+02  0.00000000000E+00 0.  1.
          1   -1    0    0  501    0  0.00000000000E+00 -0.00000000000E+00 -0.13148824340E+04  0.13148824340E+04  0.00000000000E+00 0. -1.
         24    1    1    2    0    0 -0.44913742752E+02 -0.62736880364E+02 -0.43955321570E+01  0.11153339008E+03  0.80419002446E+02 0.  1.
        -24    1    1    2    0    0  0.44913742752E+02  0.62736880364E+02 -0.12544475697E+04  0.12593883760E+04  0.80419002446E+02 0. -1.
<mgrwt>
<rscale>  0 0.11144674E+03</rscale>
<asrwt>0</asrwt>
<pdfrwt beam="1">  1        1 0.20228961E+00 0.11144674E+03</pdfrwt>
<pdfrwt beam="2">  1       -1 0.86214355E-02 0.11144674E+03</pdfrwt>
<totfact> 0.74482905E+02</totfact>
</mgrwt>
</event>
<event>
 4    1  0.5015492E-001  0.8887635E+02  0.7546771E-02  0.1305596E+00
          1   -1    0    0  501    0  0.00000000000E+00  0.00000000000E+00  0.77653926486E+02  0.77653926486E+02  0.00000000000E+00 0. -1.
         -1   -1    0    0    0  501 -0.00000000000E+00 -0.00000000000E+00 -0.10178455262E+03  0.10178455262E+03  0.00000000000E+00 0.  1.
         24    1    1    2    0    0  0.27925641354E+02 -0.25533262174E+02 -0.14314032294E+02  0.90021644048E+02  0.80419002446E+02 0. -1.
        -24    1    1    2    0    0 -0.27925641354E+02  0.25533262174E+02 -0.98165938361E+01  0.89416835055E+02  0.80419002446E+02 0.  0.
<mgrwt>
<rscale>  0 0.88876346E+02</rscale>
<asrwt>0</asrwt>
<pdfrwt beam="1">  1        1 0.11946758E-01 0.88876346E+02</pdfrwt>
<pdfrwt beam="2">  1       -1 0.15659162E-01 0.88876346E+02</pdfrwt>
<totfact> 0.13544175E+04</totfact>
</mgrwt>
</event>
<event>
 4    1  0.5015492E-001  0.9043352E+02  0.7546771E-02  0.1301805E+00
          1   -1    0    0  501    0  0.00000000000E+00  0.00000000000E+00  0.15552826286E+03  0.15552826286E+03  0.00000000000E+00 0. -1.
         -1   -1    0    0    0  501 -0.00000000000E+00 -0.00000000000E+00 -0.14968456088E+03  0.14968456088E+03  0.00000000000E+00 0.  1.
         24    1    1    2    0    0 -0.36887116134E+02 -0.18717555558E+02 -0.11999070200E+03  0.15025308896E+03  0.80419002446E+02 0.  1.
        -24    1    1    2    0    0  0.36887116134E+02  0.18717555558E+02  0.12583440398E+03  0.15495973478E+03  0.80419002446E+02 0. -1.
<mgrwt>
<rscale>  0 0.90433524E+02</rscale>
<asrwt>0</asrwt>
<pdfrwt beam="1">  1        1 0.23927425E-01 0.90433524E+02</pdfrwt>
<pdfrwt beam="2">  1       -1 0.23028394E-01 0.90433524E+02</pdfrwt>
<totfact> 0.30543953E+03</totfact>
</mgrwt>
</event>
<event>
 4    1  0.5015492E-001  0.1229143E+03  0.7546771E-02  0.1238365E+00
          1   -1    0    0  501    0  0.00000000000E+00  0.00000000000E+00  0.10153305049E+04  0.10153305049E+04  0.00000000000E+00 0. -1.
         -1   -1    0    0    0  501 -0.00000000000E+00 -0.00000000000E+00 -0.21271901039E+02  0.21271901039E+02  0.00000000000E+00 0.  1.
         24    1    1    2    0    0  0.32213675393E+02 -0.87195179849E+02  0.21291037537E+03  0.24584296648E+03  0.80419002446E+02 0.  1.
        -24    1    1    2    0    0 -0.32213675393E+02  0.87195179849E+02  0.78114822852E+03  0.79075943949E+03  0.80419002446E+02 0. -1.
<mgrwt>
<rscale>  0 0.12291435E+03</rscale>
<asrwt>0</asrwt>
<pdfrwt beam="1">  1        1 0.15620466E+00 0.12291435E+03</pdfrwt>
<pdfrwt beam="2">  1       -1 0.32726009E-02 0.12291435E+03</pdfrwt>
<totfact> 0.50205693E+03</totfact>
</mgrwt>
</event>
<event>
 4    1  0.5015492E-001  0.9875434E+02  0.7546771E-02  0.1282937E+00
         -2   -1    0    0    0  501 -0.00000000000E+00  0.00000000000E+00  0.31072565435E+02  0.31072565435E+02  0.00000000000E+00 0.  1.
          2   -1    0    0  501    0  0.00000000000E+00 -0.00000000000E+00 -0.67975468498E+03  0.67975468498E+03  0.00000000000E+00 0. -1.
         24    1    1    2    0    0  0.46273505723E+02 -0.33822560920E+02 -0.58509827442E+03  0.59337375207E+03  0.80419002446E+02 0. -1.
        -24    1    1    2    0    0 -0.46273505723E+02  0.33822560920E+02 -0.63583845126E+02  0.11745349835E+03  0.80419002446E+02 0.  1.
<mgrwt>
<rscale>  0 0.98754336E+02</rscale>
<asrwt>0</asrwt>
<pdfrwt beam="1">  1        2 0.10457766E+00 0.98754336E+02</pdfrwt>
<pdfrwt beam="2">  1       -2 0.47803939E-02 0.98754336E+02</pdfrwt>
<totfact> 0.85684402E+03</totfact>
</mgrwt>
</event>
<event>
 4    1  0.5015492E-001  0.8100104E+02  0.7546771E-02  0.1326234E+00
          1   -1    0    0  501    0  0.00000000000E+00  0.00000000000E+00  0.14776365514E+04  0.14776365514E+04  0.00000000000E+00 0. -1.
         -1   -1    0    0    0  501 -0.00000000000E+00 -0.00000000000E+00 -0.11995491822E+02  0.11995491822E+02  0.00000000000E+00 0.  1.
         24    1    1    2    0    0  0.36796329093E+01 -0.89673290471E+01  0.14171862687E+03  0.16323399721E+03  0.80419002446E+02 0.  0.
        -24    1    1    2    0    0 -0.36796329093E+01  0.89673290471E+01  0.13239224327E+04  0.13263980460E+04  0.80419002446E+02 0. -1.
<mgrwt>
<rscale>  0 0.81001041E+02</rscale>
<asrwt>0</asrwt>
<pdfrwt beam="1">  1        1 0.22732856E+00 0.81001041E+02</pdfrwt>
<pdfrwt beam="2">  1       -1 0.18454614E-02 0.81001041E+02</pdfrwt>
<totfact> 0.54945833E+03</totfact>
</mgrwt>
</event>
<event>
 4    1  0.5015492E-001  0.8905144E+02  0.7546771E-02  0.1305165E+00
         -2   -1    0    0    0  501 -0.00000000000E+00  0.00000000000E+00  0.63895275407E+02  0.63895275407E+02  0.00000000000E+00 0.  1.
          2   -1    0    0  501    0  0.00000000000E+00 -0.00000000000E+00 -0.83842788648E+03  0.83842788648E+03  0.00000000000E+00 0. -1.
         24    1    1    2    0    0 -0.89963657419E+01 -0.37175380803E+02 -0.80369865481E+03  0.80861714502E+03  0.80419002446E+02 0. -1.
        -24    1    1    2    0    0  0.89963657419E+01  0.37175380803E+02  0.29166043736E+02  0.93706016861E+02  0.80419002446E+02 0.  1.
<mgrwt>
<rscale>  0 0.89051443E+02</rscale>
<asrwt>0</asrwt>
<pdfrwt beam="1">  1        2 0.12898890E+00 0.89051443E+02</pdfrwt>
<pdfrwt beam="2">  1       -2 0.98300426E-02 0.89051443E+02</pdfrwt>
<totfact> 0.22232441E+03</totfact>
</mgrwt>
</event>
<event>
 4    1  0.5015492E-001  0.1067930E+03  0.7546771E-02  0.1266627E+00
         -2   -1    0    0    0  501 -0.00000000000E+00  0.00000000000E+00  0.12196691410E+03  0.12196691410E+03  0.00000000000E+00 0.  1.
          2   -1    0    0  501    0  0.00000000000E+00 -0.00000000000E+00 -0.10640409058E+03  0.10640409058E+03  0.00000000000E+00 0. -1.
         24    1    1    2    0    0 -0.31618141887E+02 -0.62752105724E+02 -0.31972433682E+02  0.11147639274E+03  0.80419002446E+02 0.  1.
        -24    1    1    2    0    0  0.31618141887E+02  0.62752105724E+02  0.47535257201E+02  0.11689461194E+03  0.80419002446E+02 0.  0.
<mgrwt>
<rscale>  0 0.10679302E+03</rscale>
<asrwt>0</asrwt>
<pdfrwt beam="1">  1        2 0.16369860E-01 0.10679302E+03</pdfrwt>
<pdfrwt beam="2">  1       -2 0.18764141E-01 0.10679302E+03</pdfrwt>
<totfact> 0.76343507E+03</totfact>
</mgrwt>
</event>
<event>
 4    1  0.5015492E-001  0.8049331E+02  0.7546771E-02  0.1327657E+00
          1   -1    0    0  501    0  0.00000000000E+00  0.00000000000E+00  0.31362558401E+03  0.31362558401E+03  0.00000000000E+00 0. -1.
         -1   -1    0    0    0  501 -0.00000000000E+00 -0.00000000000E+00 -0.22455769994E+02  0.22455769994E+02  0.00000000000E+00 0.  1.
         24    1    1    2    0    0  0.27681365687E+01  0.20721370588E+01  0.98050959971E+02  0.12685883114E+03  0.80419002446E+02 0.  1.
        -24    1    1    2    0    0 -0.27681365687E+01 -0.20721370588E+01  0.19311885404E+03  0.20922252286E+03  0.80419002446E+02 0.  0.
<mgrwt>
<rscale>  0 0.80493306E+02</rscale>
<asrwt>0</asrwt>
<pdfrwt beam="1">  1        1 0.48250087E-01 0.80493306E+02</pdfrwt>
<pdfrwt beam="2">  1       -1 0.34547341E-02 0.80493306E+02</pdfrwt>
<totfact> 0.22346360E+04</totfact>
</mgrwt>
</event>
<event>
 4    1  0.5015492E-001  0.1282559E+03  0.7546771E-02  0.1230067E+00
         -2   -1    0    0    0  501 -0.00000000000E+00  0.00000000000E+00  0.28121699603E+02  0.28121699603E+02  0.00000000000E+00 0.  1.
          2   -1    0    0  501    0  0.00000000000E+00 -0.00000000000E+00 -0.73403507099E+03  0.73403507099E+03  0.00000000000E+00 0. -1.
         24    1    1    2    0    0 -0.16765692734E+02  0.98495086508E+02 -0.52470142238E+03  0.54014921006E+03  0.80419002446E+02 0. -1.
        -24    1    1    2    0    0  0.16765692734E+02 -0.98495086508E+02 -0.18121194900E+03  0.22200756054E+03  0.80419002446E+02 0.  1.
<mgrwt>
<rscale>  0 0.12825594E+03</rscale>
<asrwt>0</asrwt>
<pdfrwt beam="1">  1        2 0.11292848E+00 0.12825594E+03</pdfrwt>
<pdfrwt beam="2">  1       -2 0.43264150E-02 0.12825594E+03</pdfrwt>
<totfact> 0.92324206E+03</totfact>
</mgrwt>
</event>
<event>
 4    1  0.5015492E-001  0.8435508E+02  0.7546771E-02  0.1317128E+00
          1   -1    0    0  501    0  0.00000000000E+00  0.00000000000E+00  0.29825028341E+02  0.29825028341E+02  0.00000000000E+00 0. -1.
         -1   -1    0    0    0  501 -0.00000000000E+00 -0.00000000000E+00 -0.28947750569E+03  0.28947750569E+03  0.00000000000E+00 0.  1.
         24    1    1    2    0    0 -0.16370504173E+02 -0.19508199819E+02 -0.19676774423E+03  0.21408718876E+03  0.80419002446E+02 0.  0.
        -24    1    1    2    0    0  0.16370504173E+02  0.19508199819E+02 -0.62884733121E+02  0.10521534527E+03  0.80419002446E+02 0.  0.
<mgrwt>
<rscale>  0 0.84355078E+02</rscale>
<asrwt>0</asrwt>
<pdfrwt beam="1">  1        1 0.45884659E-02 0.84355078E+02</pdfrwt>
<pdfrwt beam="2">  1       -1 0.44535001E-01 0.84355078E+02</pdfrwt>
<totfact> 0.86153301E+03</totfact>
</mgrwt>
</event>
<event>
 4    1  0.5015492E-001  0.8057091E+02  0.7546771E-02  0.1327439E+00
         -1   -1    0    0    0  501 -0.00000000000E+00  0.00000000000E+00  0.59253902458E+03  0.59253902458E+03  0.00000000000E+00 0.  1.
          1   -1    0    0  501    0  0.00000000000E+00 -0.00000000000E+00 -0.55992038745E+02  0.55992038745E+02  0.00000000000E+00 0. -1.
         24    1    1    2    0    0 -0.39359133525E+00 -0.49295267656E+01  0.55909013517E+03  0.56486586934E+03  0.80419002446E+02 0.  1.
        -24    1    1    2    0    0  0.39359133525E+00  0.49295267656E+01 -0.22543149333E+02  0.83665193985E+02  0.80419002446E+02 0. -1.
<mgrwt>
<rscale>  0 0.80570907E+02</rscale>
<asrwt>0</asrwt>
<pdfrwt beam="1">  1        1 0.86141602E-02 0.80570907E+02</pdfrwt>
<pdfrwt beam="2">  1       -1 0.91159846E-01 0.80570907E+02</pdfrwt>
<totfact> 0.94224826E+02</totfact>
</mgrwt>
</event>
<event>
 4    1  0.5015492E-001  0.9812187E+02  0.7546771E-02  0.1284296E+00
         -2   -1    0    0    0  501 -0.00000000000E+00  0.00000000000E+00  0.60667767546E+01  0.60667767546E+01  0.00000000000E+00 0.  1.
          2   -1    0    0  501    0  0.00000000000E+00 -0.00000000000E+00 -0.22891598765E+04  0.22891598765E+04  0.00000000000E+00 0. -1.
         24    1    1    2    0    0  0.10492026272E+02 -0.55232257316E+02 -0.17771398218E+04  0.17798465797E+04  0.80419002446E+02 0. -1.
        -24    1    1    2    0    0 -0.10492026272E+02  0.55232257316E+02 -0.50595327791E+03  0.51538007358E+03  0.80419002446E+02 0.  1.
<mgrwt>
<rscale>  0 0.98121867E+02</rscale>
<asrwt>0</asrwt>
<pdfrwt beam="1">  1        2 0.35217861E+00 0.98121867E+02</pdfrwt>
<pdfrwt beam="2">  1       -2 0.93334982E-03 0.98121867E+02</pdfrwt>
<totfact> 0.11967190E+04</totfact>
</mgrwt>
</event>
<event>
 4    1  0.5015492E-001  0.1034757E+03  0.7546771E-02  0.1273152E+00
         -2   -1    0    0    0  501 -0.00000000000E+00  0.00000000000E+00  0.57350511149E+02  0.57350511149E+02  0.00000000000E+00 0.  1.
          2   -1    0    0  501    0  0.00000000000E+00 -0.00000000000E+00 -0.22597776724E+03  0.22597776724E+03  0.00000000000E+00 0. -1.
         24    1    1    2    0    0  0.44134809090E+02 -0.47876229968E+02 -0.14337602143E+03  0.17681604635E+03  0.80419002446E+02 0. -1.
        -24    1    1    2    0    0 -0.44134809090E+02  0.47876229968E+02 -0.25251234662E+02  0.10651223205E+03  0.80419002446E+02 0.  1.
<mgrwt>
<rscale>  0 0.10347575E+03</rscale>
<asrwt>0</asrwt>
<pdfrwt beam="1">  1        2 0.34765810E-01 0.10347575E+03</pdfrwt>
<pdfrwt beam="2">  1       -2 0.88231557E-02 0.10347575E+03</pdfrwt>
<totfact> 0.11110384E+04</totfact>
</mgrwt>
</event>
<event>
 4    1  0.5015492E-001  0.8053491E+02  0.7546771E-02  0.1327540E+00
          1   -1    0    0  501    0  0.00000000000E+00  0.00000000000E+00  0.21796049919E+03  0.21796049919E+03  0.00000000000E+00 0. -1.
         -1   -1    0    0    0  501 -0.00000000000E+00 -0.00000000000E+00 -0.14130631511E+03  0.14130631511E+03  0.00000000000E+00 0.  1.
         24    1    1    2    0    0 -0.27965917567E+01 -0.32917405212E+01 -0.12127536779E+03  0.14558017471E+03  0.80419002446E+02 0.  0.
        -24    1    1    2    0    0  0.27965917567E+01  0.32917405212E+01  0.19792955187E+03  0.21368663959E+03  0.80419002446E+02 0. -1.
<mgrwt>
<rscale>  0 0.80534914E+02</rscale>
<asrwt>0</asrwt>
<pdfrwt beam="1">  1        1 0.33532384E-01 0.80534914E+02</pdfrwt>
<pdfrwt beam="2">  1       -1 0.21739433E-01 0.80534914E+02</pdfrwt>
<totfact> 0.21982966E+03</totfact>
</mgrwt>
</event>
<event>
 4    1  0.5015492E-001  0.8856828E+02  0.7546771E-02  0.1306356E+00
         -2   -1    0    0    0  501 -0.00000000000E+00  0.00000000000E+00  0.79336359699E+01  0.79336359699E+01  0.00000000000E+00 0.  1.
          2   -1    0    0  501    0  0.00000000000E+00 -0.00000000000E+00 -0.99070355457E+03  0.99070355457E+03  0.00000000000E+00 0. -1.
         24    1    1    2    0    0  0.29141399654E+01 -0.36995036802E+02 -0.51358743622E+03  0.52116829869E+03  0.80419002446E+02 0. -1.
        -24    1    1    2    0    0 -0.29141399654E+01  0.36995036802E+02 -0.46918248238E+03  0.47746889185E+03  0.80419002446E+02 0.  0.
<mgrwt>
<rscale>  0 0.88568284E+02</rscale>
<asrwt>0</asrwt>
<pdfrwt beam="1">  1        2 0.15241587E+00 0.88568284E+02</pdfrwt>
<pdfrwt beam="2">  1       -2 0.12205599E-02 0.88568284E+02</pdfrwt>
<totfact> 0.38382136E+04</totfact>
</mgrwt>
</event>
<event>
 4    1  0.5015492E-001  0.8558087E+02  0.7546771E-02  0.1313920E+00
          2   -1    0    0  501    0  0.00000000000E+00  0.00000000000E+00  0.13059705380E+04  0.13059705380E+04  0.00000000000E+00 0. -1.
         -2   -1    0    0    0  501 -0.00000000000E+00 -0.00000000000E+00 -0.16394951532E+02  0.16394951532E+02  0.00000000000E+00 0.  1.
         24    1    1    2    0    0  0.17109172968E+02 -0.23751766205E+02  0.11810938124E+04  0.11841903056E+04  0.80419002446E+02 0. -1.
        -24    1    1    2    0    0 -0.17109172968E+02  0.23751766205E+02  0.10848177404E+03  0.13817518392E+03  0.80419002446E+02 0.  1.
<mgrwt>
<rscale>  0 0.85580875E+02</rscale>
<asrwt>0</asrwt>
<pdfrwt beam="1">  1        2 0.20091846E+00 0.85580875E+02</pdfrwt>
<pdfrwt beam="2">  1       -2 0.25223013E-02 0.85580875E+02</pdfrwt>
<totfact> 0.90713801E+03</totfact>
</mgrwt>
</event>
<event>
 4    1  0.5015492E-001  0.1079853E+03  0.7546771E-02  0.1264347E+00
          1   -1    0    0  501    0  0.00000000000E+00  0.00000000000E+00  0.26087810807E+03  0.26087810807E+03  0.00000000000E+00 0. -1.
         -1   -1    0    0    0  501 -0.00000000000E+00 -0.00000000000E+00 -0.44962865235E+02  0.44962865235E+02  0.00000000000E+00 0.  1.
         24    1    1    2    0    0  0.16990121927E+02  0.70035316154E+02  0.96228940791E+02  0.14464036349E+03  0.80419002446E+02 0.  1.
        -24    1    1    2    0    0 -0.16990121927E+02 -0.70035316154E+02  0.11968630204E+03  0.16120060981E+03  0.80419002446E+02 0. -1.
<mgrwt>
<rscale>  0 0.10798530E+03</rscale>
<asrwt>0</asrwt>
<pdfrwt beam="1">  1        1 0.40135093E-01 0.10798530E+03</pdfrwt>
<pdfrwt beam="2">  1       -1 0.69173640E-02 0.10798530E+03</pdfrwt>
<totfact> 0.10426097E+04</totfact>
</mgrwt>
</event>
<event>
 4    1  0.5015492E-001  0.9127467E+02  0.7546771E-02  0.1299794E+00
         -2   -1    0    0    0  501 -0.00000000000E+00  0.00000000000E+00  0.21879147537E+03  0.21879147537E+03  0.00000000000E+00 0.  1.
          2   -1    0    0  501    0  0.00000000000E+00 -0.00000000000E+00 -0.17183653997E+03  0.17183653997E+03  0.00000000000E+00 0. -1.
         24    1    1    2    0    0  0.43112426215E+02 -0.22733186305E+01 -0.14884303772E+03  0.17460044417E+03  0.80419002446E+02 0. -1.
        -24    1    1    2    0    0 -0.43112426215E+02  0.22733186305E+01  0.19579797312E+03  0.21602757117E+03  0.80419002446E+02 0.  1.
<mgrwt>
<rscale>  0 0.91274669E+02</rscale>
<asrwt>0</asrwt>
<pdfrwt beam="1">  1        2 0.26436391E-01 0.91274669E+02</pdfrwt>
<pdfrwt beam="2">  1       -2 0.33660227E-01 0.91274669E+02</pdfrwt>
<totfact> 0.16039534E+03</totfact>
</mgrwt>
</event>
<event>
 4    1  0.5015492E-001  0.9147112E+02  0.7546771E-02  0.1299328E+00
          2   -1    0    0  501    0  0.00000000000E+00  0.00000000000E+00  0.84586484718E+03  0.84586484718E+03  0.00000000000E+00 0. -1.
         -2   -1    0    0    0  501 -0.00000000000E+00 -0.00000000000E+00 -0.99561045683E+01  0.99561045683E+01  0.00000000000E+00 0.  1.
         24    1    1    2    0    0  0.42263869078E+02 -0.10654382598E+02  0.45239449509E+03  0.46154928842E+03  0.80419002446E+02 0. -1.
        -24    1    1    2    0    0 -0.42263869078E+02  0.10654382598E+02  0.38351424753E+03  0.39427166334E+03  0.80419002446E+02 0.  1.
<mgrwt>
<rscale>  0 0.91471124E+02</rscale>
<asrwt>0</asrwt>
<pdfrwt beam="1">  1        2 0.13013300E+00 0.91471124E+02</pdfrwt>
<pdfrwt beam="2">  1       -2 0.15317091E-02 0.91471124E+02</pdfrwt>
<totfact> 0.34198248E+04</totfact>
</mgrwt>
</event>
<event>
 4    1  0.5015492E-001  0.1152085E+03  0.7546771E-02  0.1251218E+00
          2   -1    0    0  501    0  0.00000000000E+00  0.00000000000E+00  0.87727623218E+02  0.87727623218E+02  0.00000000000E+00 0. -1.
         -2   -1    0    0    0  501 -0.00000000000E+00 -0.00000000000E+00 -0.15134653891E+03  0.15134653891E+03  0.00000000000E+00 0.  1.
         24    1    1    2    0    0 -0.80449034662E+02 -0.18268557332E+02 -0.33952852725E+02  0.12010744993E+03  0.80419002446E+02 0.  0.
        -24    1    1    2    0    0  0.80449034662E+02  0.18268557332E+02 -0.29666062963E+02  0.11896671220E+03  0.80419002446E+02 0.  0.
<mgrwt>
<rscale>  0 0.11520854E+03</rscale>
<asrwt>0</asrwt>
<pdfrwt beam="1">  1        2 0.13496557E-01 0.11520855E+03</pdfrwt>
<pdfrwt beam="2">  1       -2 0.23284083E-01 0.11520855E+03</pdfrwt>
<totfact> 0.66712727E+03</totfact>
</mgrwt>
</event>
<event>
 4    1  0.5015492E-001  0.9043436E+02  0.7546771E-02  0.1301803E+00
          1   -1    0    0  501    0  0.00000000000E+00  0.00000000000E+00  0.59586287044E+03  0.59586287044E+03  0.00000000000E+00 0. -1.
         -1   -1    0    0    0  501 -0.00000000000E+00 -0.00000000000E+00 -0.13773846250E+02  0.13773846250E+02  0.00000000000E+00 0.  1.
         24    1    1    2    0    0 -0.40545599041E+02  0.81980545988E+01  0.30914932070E+03  0.32210506383E+03  0.80419002446E+02 0. -1.
        -24    1    1    2    0    0  0.40545599041E+02 -0.81980545988E+01  0.27293970349E+03  0.28753165286E+03  0.80419002446E+02 0.  1.
<mgrwt>
<rscale>  0 0.90434350E+02</rscale>
<asrwt>0</asrwt>
<pdfrwt beam="1">  1        1 0.91671191E-01 0.90434362E+02</pdfrwt>
<pdfrwt beam="2">  1       -1 0.21190537E-02 0.90434362E+02</pdfrwt>
<totfact> 0.20315101E+04</totfact>
</mgrwt>
</event>
<event>
 4    1  0.5015492E-001  0.8083594E+02  0.7546771E-02  0.1326696E+00
          2   -1    0    0  501    0  0.00000000000E+00  0.00000000000E+00  0.24311065826E+03  0.24311065826E+03  0.00000000000E+00 0. -1.
         -2   -1    0    0    0  501 -0.00000000000E+00 -0.00000000000E+00 -0.28005280837E+02  0.28005280837E+02  0.00000000000E+00 0.  1.
         24    1    1    2    0    0 -0.81668719605E+01  0.73176587207E+00  0.13474369541E+03  0.15713151398E+03  0.80419002446E+02 0.  0.
        -24    1    1    2    0    0  0.81668719605E+01 -0.73176587207E+00  0.80361682015E+02  0.11398442512E+03  0.80419002446E+02 0.  1.
<mgrwt>
<rscale>  0 0.80835940E+02</rscale>
<asrwt>0</asrwt>
<pdfrwt beam="1">  1        2 0.37401638E-01 0.80835940E+02</pdfrwt>
<pdfrwt beam="2">  1       -2 0.43085049E-02 0.80835940E+02</pdfrwt>
<totfact> 0.29468585E+04</totfact>
</mgrwt>
</event>
<event>
 4    1  0.5015492E-001  0.8236165E+02  0.7546771E-02  0.1322480E+00
          3   -1    0    0  501    0  0.00000000000E+00  0.00000000000E+00  0.74087493011E+02  0.74087493011E+02  0.00000000000E+00 0. -1.
         -3   -1    0    0    0  501 -0.00000000000E+00 -0.00000000000E+00 -0.46746575757E+03  0.46746575757E+03  0.00000000000E+00 0.  1.
         24    1    1    2    0    0  0.67841195688E+01 -0.16437817125E+02 -0.43950430831E+03  0.44715487148E+03  0.80419002446E+02 0.  1.
        -24    1    1    2    0    0 -0.67841195688E+01  0.16437817125E+02  0.46126043752E+02  0.94398379100E+02  0.80419002446E+02 0. -1.
<mgrwt>
<rscale>  0 0.82361654E+02</rscale>
<asrwt>0</asrwt>
<pdfrwt beam="1">  1        3 0.11398075E-01 0.82361654E+02</pdfrwt>
<pdfrwt beam="2">  1       -3 0.71917811E-01 0.82361654E+02</pdfrwt>
<totfact> 0.24159877E+02</totfact>
</mgrwt>
</event>
<event>
 4    1  0.5015492E-001  0.1108499E+03  0.7546771E-02  0.1259004E+00
         -1   -1    0    0    0  501 -0.00000000000E+00  0.00000000000E+00  0.68970054557E+02  0.68970054557E+02  0.00000000000E+00 0.  1.
          1   -1    0    0  501    0  0.00000000000E+00 -0.00000000000E+00 -0.24482636727E+03  0.24482636727E+03  0.00000000000E+00 0. -1.
         24    1    1    2    0    0  0.65678813407E+02 -0.38817277980E+02 -0.60548447838E+01  0.11101515527E+03  0.80419002446E+02 0.  1.
        -24    1    1    2    0    0 -0.65678813407E+02  0.38817277980E+02 -0.16980146793E+03  0.20278126655E+03  0.80419002446E+02 0. -1.
<mgrwt>
<rscale>  0 0.11084991E+03</rscale>
<asrwt>0</asrwt>
<pdfrwt beam="1">  1        1 0.37665596E-01 0.11084991E+03</pdfrwt>
<pdfrwt beam="2">  1       -1 0.10610777E-01 0.11084991E+03</pdfrwt>
<totfact> 0.59310238E+03</totfact>
</mgrwt>
</event>
<event>
 4    1  0.5015492E-001  0.1070063E+03  0.7546771E-02  0.1266216E+00
         -2   -1    0    0    0  501 -0.00000000000E+00  0.00000000000E+00  0.57522747253E+02  0.57522747253E+02  0.00000000000E+00 0.  1.
          2   -1    0    0  501    0  0.00000000000E+00 -0.00000000000E+00 -0.43087092281E+03  0.43087092281E+03  0.00000000000E+00 0. -1.
         24    1    1    2    0    0  0.25242979597E+02  0.65923571338E+02 -0.36579059575E+03  0.38112084851E+03  0.80419002446E+02 0. -1.
        -24    1    1    2    0    0 -0.25242979597E+02 -0.65923571338E+02 -0.75575798088E+01  0.10727282155E+03  0.80419002446E+02 0.  1.
<mgrwt>
<rscale>  0 0.10700627E+03</rscale>
<asrwt>0</asrwt>
<pdfrwt beam="1">  1        2 0.66287834E-01 0.10700627E+03</pdfrwt>
<pdfrwt beam="2">  1       -2 0.88496535E-02 0.10700627E+03</pdfrwt>
<totfact> 0.56125239E+03</totfact>
</mgrwt>
</event>
<event>
 4    1  0.5015492E-001  0.8413264E+02  0.7546771E-02  0.1317716E+00
         -4   -1    0    0    0  501 -0.00000000000E+00  0.00000000000E+00  0.46903739325E+01  0.46903739325E+01  0.00000000000E+00 0.  1.
          4   -1    0    0  501    0  0.00000000000E+00 -0.00000000000E+00 -0.15107273472E+04  0.15107273472E+04  0.00000000000E+00 0. -1.
         24    1    1    2    0    0 -0.22157228271E+02  0.10960820716E+02 -0.72823976832E+03  0.73308352762E+03  0.80419002446E+02 0.  0.
        -24    1    1    2    0    0  0.22157228271E+02 -0.10960820716E+02 -0.77779720496E+03  0.78233419352E+03  0.80419002446E+02 0. -1.
<mgrwt>
<rscale>  0 0.84132634E+02</rscale>
<asrwt>0</asrwt>
<pdfrwt beam="1">  1        4 0.23241940E+00 0.84132644E+02</pdfrwt>
<pdfrwt beam="2">  1       -4 0.72159658E-03 0.84132644E+02</pdfrwt>
<totfact> 0.67753655E+02</totfact>
</mgrwt>
</event>
<event>
 4    1  0.5015492E-001  0.9619510E+02  0.7546771E-02  0.1288507E+00
          1   -1    0    0  501    0  0.00000000000E+00  0.00000000000E+00  0.10237127241E+04  0.10237127241E+04  0.00000000000E+00 0. -1.
         -1   -1    0    0    0  501 -0.00000000000E+00 -0.00000000000E+00 -0.12639330459E+02  0.12639330459E+02  0.00000000000E+00 0.  1.
         24    1    1    2    0    0  0.20966720101E+02 -0.48442520072E+02  0.22898446276E+03  0.24836944507E+03  0.80419002446E+02 0.  1.
        -24    1    1    2    0    0 -0.20966720101E+02  0.48442520072E+02  0.78208893084E+03  0.78798260945E+03  0.80419002446E+02 0. -1.
<mgrwt>
<rscale>  0 0.96195099E+02</rscale>
<asrwt>0</asrwt>
<pdfrwt beam="1">  1        1 0.15749420E+00 0.96195099E+02</pdfrwt>
<pdfrwt beam="2">  1       -1 0.19445132E-02 0.96195099E+02</pdfrwt>
<totfact> 0.10348260E+04</totfact>
</mgrwt>
</event>
<event>
 4    1  0.5015492E-001  0.8426702E+02  0.7546771E-02  0.1317361E+00
         -3   -1    0    0    0  501 -0.00000000000E+00  0.00000000000E+00  0.42521788818E+03  0.42521788818E+03  0.00000000000E+00 0.  1.
          3   -1    0    0  501    0  0.00000000000E+00 -0.00000000000E+00 -0.25672751929E+02  0.25672751929E+02  0.00000000000E+00 0. -1.
         24    1    1    2    0    0 -0.20785489171E+02  0.14201338492E+02  0.33305708188E+03  0.34355196160E+03  0.80419002446E+02 0.  1.
        -24    1    1    2    0    0  0.20785489171E+02 -0.14201338492E+02  0.66488054364E+02  0.10733867850E+03  0.80419002446E+02 0. -1.
<mgrwt>
<rscale>  0 0.84267019E+02</rscale>
<asrwt>0</asrwt>
<pdfrwt beam="1">  1        3 0.39496544E-02 0.84267019E+02</pdfrwt>
<pdfrwt beam="2">  1       -3 0.65418132E-01 0.84267019E+02</pdfrwt>
<totfact> 0.15987805E+03</totfact>
</mgrwt>
</event>
<event>
 4    1  0.5015492E-001  0.8419922E+02  0.7546771E-02  0.1317540E+00
         -2   -1    0    0    0  501 -0.00000000000E+00  0.00000000000E+00  0.16201540582E+02  0.16201540582E+02  0.00000000000E+00 0.  1.
          2   -1    0    0  501    0  0.00000000000E+00 -0.00000000000E+00 -0.10576514255E+04  0.10576514255E+04  0.00000000000E+00 0. -1.
         24    1    1    2    0    0  0.79766306106E+01 -0.23636114637E+02 -0.93184018171E+03  0.93563648537E+03  0.80419002446E+02 0. -1.
        -24    1    1    2    0    0 -0.79766306106E+01  0.23636114637E+02 -0.10960970324E+03  0.13821648075E+03  0.80419002446E+02 0.  1.
<mgrwt>
<rscale>  0 0.84199219E+02</rscale>
<asrwt>0</asrwt>
<pdfrwt beam="1">  1        2 0.16271557E+00 0.84199219E+02</pdfrwt>
<pdfrwt beam="2">  1       -2 0.24925452E-02 0.84199219E+02</pdfrwt>
<totfact> 0.12591553E+04</totfact>
</mgrwt>
</event>
<event>
 4    1  0.5015492E-001  0.1785288E+03  0.7546771E-02  0.1169235E+00
         -2   -1    0    0    0  501 -0.00000000000E+00  0.00000000000E+00  0.22340886562E+03  0.22340886562E+03  0.00000000000E+00 0.  1.
          2   -1    0    0  501    0  0.00000000000E+00 -0.00000000000E+00 -0.14306927215E+03  0.14306927215E+03  0.00000000000E+00 0. -1.
         24    1    1    2    0    0 -0.90583474379E+02 -0.13114859589E+03  0.30424441841E+02  0.18110268537E+03  0.80419002446E+02 0.  0.
        -24    1    1    2    0    0  0.90583474379E+02  0.13114859589E+03  0.49915151625E+02  0.18537545239E+03  0.80419002446E+02 0.  1.
<mgrwt>
<rscale>  0 0.17852881E+03</rscale>
<asrwt>0</asrwt>
<pdfrwt beam="1">  1        2 0.22010657E-01 0.17852881E+03</pdfrwt>
<pdfrwt beam="2">  1       -2 0.34370595E-01 0.17852881E+03</pdfrwt>
<totfact> 0.19429892E+03</totfact>
</mgrwt>
</event>
