<event>
 4    1  0.3948468E+000  0.2387287E+03  0.7546771E-02  0.1120643E+00
         21   -1    0    0  503  502  0.00000000000E+00  0.00000000000E+00  0.25352061450E+03  0.25352061450E+03  0.00000000000E+00 0. -1.
         21   -1    0    0  501  503 -0.00000000000E+00 -0.00000000000E+00 -0.22486164936E+03  0.22486164936E+03  0.00000000000E+00 0. -1.
          6    1    1    2  501    0 -0.37043552725E+02  0.16028151359E+03  0.10363175971E+02  0.23895351810E+03  0.17300000000E+03 0. -1.
         -6    1    1    2    0  502  0.37043552725E+02 -0.16028151359E+03  0.18295789169E+02  0.23942874576E+03  0.17300000000E+03 0. -1.
<mgrwt>
<rscale>  2 0.23872869E+03</rscale>
<asrwt>0</asrwt>
<pdfrwt beam="1">  1       21 0.39003172E-01 0.23872869E+03</pdfrwt>
<pdfrwt beam="2">  1       21 0.34594100E-01 0.23872869E+03</pdfrwt>
<totfact> 0.49985923E+04</totfact>
</mgrwt>
</event>
<event>
 4    1  0.3948468E+000  0.1936894E+03  0.7546771E-02  0.1155175E+00
         21   -1    0    0  503  502  0.00000000000E+00  0.00000000000E+00  0.13184111802E+03  0.13184111802E+03  0.00000000000E+00 0. -1.
         21   -1    0    0  501  503 -0.00000000000E+00 -0.00000000000E+00 -0.30715730620E+03  0.30715730620E+03  0.00000000000E+00 0. -1.
          6    1    1    2  501    0 -0.17917559081E+02 -0.85238275841E+02 -0.14720531118E+03  0.24327968726E+03  0.17300000000E+03 0. -1.
         -6    1    1    2    0  502  0.17917559081E+02  0.85238275841E+02 -0.28110877008E+02  0.19571873696E+03  0.17300000000E+03 0. -1.
<mgrwt>
<rscale>  2 0.19368945E+03</rscale>
<asrwt>0</asrwt>
<pdfrwt beam="1">  1       21 0.20283249E-01 0.19368945E+03</pdfrwt>
<pdfrwt beam="2">  1       21 0.47254970E-01 0.19368945E+03</pdfrwt>
<totfact> 0.96298356E+04</totfact>
</mgrwt>
</event>
<event>
 4    1  0.3948468E+000  0.2583757E+03  0.7546771E-02  0.1108123E+00
         21   -1    0    0  501  502  0.00000000000E+00  0.00000000000E+00  0.13411563628E+03  0.13411563628E+03  0.00000000000E+00 0.  1.
         21   -1    0    0  502  503 -0.00000000000E+00 -0.00000000000E+00 -0.72556860164E+03  0.72556860164E+03  0.00000000000E+00 0.  1.
          6    1    1    2  501    0  0.24622945881E+02 -0.19032269528E+03 -0.54874408937E+02  0.26413863511E+03  0.17300000000E+03 0.  1.
         -6    1    1    2    0  503 -0.24622945881E+02  0.19032269528E+03 -0.53657855643E+03  0.59554560281E+03  0.17300000000E+03 0.  1.
<mgrwt>
<rscale>  2 0.25837573E+03</rscale>
<asrwt>0</asrwt>
<pdfrwt beam="1">  1       21 0.20633175E-01 0.25837573E+03</pdfrwt>
<pdfrwt beam="2">  1       21 0.11162594E+00 0.25837573E+03</pdfrwt>
<totfact> 0.13189707E+04</totfact>
</mgrwt>
</event>
<event>
 4    1  0.3948468E+000  0.2275333E+03  0.7546771E-02  0.1128388E+00
         21   -1    0    0  503  502  0.00000000000E+00  0.00000000000E+00  0.52101403818E+03  0.52101403818E+03  0.00000000000E+00 0.  1.
         21   -1    0    0  501  503 -0.00000000000E+00 -0.00000000000E+00 -0.10089492197E+03  0.10089492197E+03  0.00000000000E+00 0. -1.
          6    1    1    2  501    0 -0.75452778347E+02  0.12707984477E+03  0.24833017405E+03  0.33680748811E+03  0.17300000000E+03 0. -1.
         -6    1    1    2    0  502  0.75452778347E+02 -0.12707984477E+03  0.17178894217E+03  0.28510147204E+03  0.17300000000E+03 0.  1.
<mgrwt>
<rscale>  2 0.22753331E+03</rscale>
<asrwt>0</asrwt>
<pdfrwt beam="1">  1       21 0.80156004E-01 0.22753331E+03</pdfrwt>
<pdfrwt beam="2">  1       21 0.15522296E-01 0.22753331E+03</pdfrwt>
<totfact> 0.49629957E+04</totfact>
</mgrwt>
</event>
<event>
 4    1  0.3948468E+000  0.1783303E+03  0.7546771E-02  0.1169429E+00
         21   -1    0    0  501  502  0.00000000000E+00  0.00000000000E+00  0.91709589015E+02  0.91709589015E+02  0.00000000000E+00 0.  1.
         21   -1    0    0  502  503 -0.00000000000E+00 -0.00000000000E+00 -0.38537171642E+03  0.38537171642E+03  0.00000000000E+00 0.  1.
          6    1    1    2  501    0  0.21371338036E+02  0.37629314202E+02 -0.71330105873E+02  0.19206687216E+03  0.17300000000E+03 0.  1.
         -6    1    1    2    0  503 -0.21371338036E+02 -0.37629314202E+02 -0.22233202153E+03  0.28501443327E+03  0.17300000000E+03 0.  1.
<mgrwt>
<rscale>  2 0.17833031E+03</rscale>
<asrwt>0</asrwt>
<pdfrwt beam="1">  1       21 0.14109167E-01 0.17833031E+03</pdfrwt>
<pdfrwt beam="2">  1       21 0.59287957E-01 0.17833031E+03</pdfrwt>
<totfact> 0.11715986E+05</totfact>
</mgrwt>
</event>
<event>
 4    1  0.3948468E+000  0.1912837E+03  0.7546771E-02  0.1157309E+00
         21   -1    0    0  503  502  0.00000000000E+00  0.00000000000E+00  0.53486064075E+02  0.53486064075E+02  0.00000000000E+00 0. -1.
         21   -1    0    0  501  503 -0.00000000000E+00 -0.00000000000E+00 -0.77193804224E+03  0.77193804224E+03  0.00000000000E+00 0. -1.
          6    1    1    2  501    0  0.53720429947E+02 -0.61437533569E+02 -0.49844993975E+03  0.53389305817E+03  0.17300000000E+03 0. -1.
         -6    1    1    2    0  502 -0.53720429947E+02  0.61437533569E+02 -0.22000203841E+03  0.29153104814E+03  0.17300000000E+03 0. -1.
<mgrwt>
<rscale>  2 0.19128370E+03</rscale>
<asrwt>0</asrwt>
<pdfrwt beam="1">  1       21 0.82286252E-02 0.19128370E+03</pdfrwt>
<pdfrwt beam="2">  1       21 0.11875970E+00 0.19128370E+03</pdfrwt>
<totfact> 0.61953759E+04</totfact>
</mgrwt>
</event>
<event>
 4    1  0.3948468E+000  0.1900876E+03  0.7546771E-02  0.1158382E+00
         21   -1    0    0  503  502  0.00000000000E+00  0.00000000000E+00  0.21908074135E+03  0.21908074135E+03  0.00000000000E+00 0. -1.
         21   -1    0    0  501  503 -0.00000000000E+00 -0.00000000000E+00 -0.19084613176E+03  0.19084613176E+03  0.00000000000E+00 0.  1.
          6    1    1    2  501    0 -0.52567472887E+02 -0.58659566332E+02 -0.61410773334E+02  0.19976127505E+03  0.17300000000E+03 0.  1.
         -6    1    1    2    0  502  0.52567472887E+02  0.58659566332E+02  0.89645382922E+02  0.21016559806E+03  0.17300000000E+03 0. -1.
<mgrwt>
<rscale>  2 0.19008757E+03</rscale>
<asrwt>0</asrwt>
<pdfrwt beam="1">  1       21 0.33704729E-01 0.19008757E+03</pdfrwt>
<pdfrwt beam="2">  1       21 0.29360943E-01 0.19008757E+03</pdfrwt>
<totfact> 0.94322756E+04</totfact>
</mgrwt>
</event>
<event>
 4    1  0.3948468E+000  0.2038460E+03  0.7546771E-02  0.1146534E+00
         21   -1    0    0  503  502  0.00000000000E+00  0.00000000000E+00  0.24683054049E+02  0.24683054049E+02  0.00000000000E+00 0.  1.
         21   -1    0    0  501  503 -0.00000000000E+00 -0.00000000000E+00 -0.25825819327E+04  0.25825819327E+04  0.00000000000E+00 0.  1.
          6    1    1    2  501    0 -0.71364693946E+02 -0.80816203884E+02 -0.20481419185E+04  0.20582610371E+04  0.17300000000E+03 0.  1.
         -6    1    1    2    0  502  0.71364693946E+02  0.80816203884E+02 -0.50975696013E+03  0.54900394967E+03  0.17300000000E+03 0.  1.
<mgrwt>
<rscale>  2 0.20384597E+03</rscale>
<asrwt>0</asrwt>
<pdfrwt beam="1">  1       21 0.37973959E-02 0.20384597E+03</pdfrwt>
<pdfrwt beam="2">  1       21 0.39731999E+00 0.20384597E+03</pdfrwt>
<totfact> 0.38120837E+03</totfact>
</mgrwt>
</event>
<event>
 4    1  0.3948468E+000  0.1812274E+03  0.7546771E-02  0.1166620E+00
         21   -1    0    0  501  502  0.00000000000E+00  0.00000000000E+00  0.13101166064E+04  0.13101166064E+04  0.00000000000E+00 0.  1.
         21   -1    0    0  502  503 -0.00000000000E+00 -0.00000000000E+00 -0.46629221762E+02  0.46629221762E+02  0.00000000000E+00 0.  1.
          6    1    1    2  501    0  0.24783344494E+01 -0.53927876745E+02  0.10930248157E+04  0.11079470230E+04  0.17300000000E+03 0.  1.
         -6    1    1    2    0  503 -0.24783344494E+01  0.53927876745E+02  0.17046256887E+03  0.24879880510E+03  0.17300000000E+03 0.  1.
<mgrwt>
<rscale>  2 0.18122737E+03</rscale>
<asrwt>0</asrwt>
<pdfrwt beam="1">  1       21 0.20155637E+00 0.18122737E+03</pdfrwt>
<pdfrwt beam="2">  1       21 0.71737274E-02 0.18122737E+03</pdfrwt>
<totfact> 0.19196008E+04</totfact>
</mgrwt>
</event>
<event>
 4    1  0.3948468E+000  0.2290190E+03  0.7546771E-02  0.1127332E+00
         21   -1    0    0  503  502  0.00000000000E+00  0.00000000000E+00  0.16685770232E+03  0.16685770232E+03  0.00000000000E+00 0. -1.
         21   -1    0    0  501  503 -0.00000000000E+00 -0.00000000000E+00 -0.31445195589E+03  0.31445195589E+03  0.00000000000E+00 0. -1.
          6    1    1    2  501    0  0.14896119739E+03  0.18200304337E+02 -0.78381650687E+02  0.24206067952E+03  0.17300000000E+03 0. -1.
         -6    1    1    2    0  502 -0.14896119739E+03 -0.18200304337E+02 -0.69212602880E+02  0.23924897869E+03  0.17300000000E+03 0. -1.
<mgrwt>
<rscale>  2 0.22901897E+03</rscale>
<asrwt>0</asrwt>
<pdfrwt beam="1">  1       21 0.25670416E-01 0.22901897E+03</pdfrwt>
<pdfrwt beam="2">  1       21 0.48377224E-01 0.22901897E+03</pdfrwt>
<totfact> 0.57814856E+04</totfact>
</mgrwt>
</event>
<event>
 4    1  0.3948468E+000  0.1973897E+03  0.7546771E-02  0.1151960E+00
         21   -1    0    0  501  502  0.00000000000E+00  0.00000000000E+00  0.79349433035E+02  0.79349433035E+02  0.00000000000E+00 0.  1.
         21   -1    0    0  502  503 -0.00000000000E+00 -0.00000000000E+00 -0.49139814388E+03  0.49139814388E+03  0.00000000000E+00 0. -1.
          6    1    1    2  501    0  0.19593499800E+02  0.93004141476E+02 -0.21387223053E+03  0.29103952748E+03  0.17300000000E+03 0.  1.
         -6    1    1    2    0  503 -0.19593499800E+02 -0.93004141476E+02 -0.19817648032E+03  0.27970804943E+03  0.17300000000E+03 0.  1.
<mgrwt>
<rscale>  2 0.19738965E+03</rscale>
<asrwt>0</asrwt>
<pdfrwt beam="1">  1       21 0.12207605E-01 0.19738965E+03</pdfrwt>
<pdfrwt beam="2">  1       21 0.75599715E-01 0.19738965E+03</pdfrwt>
<totfact> 0.88703331E+04</totfact>
</mgrwt>
</event>
<event>
 4    1  0.3948468E+000  0.1767680E+03  0.7546771E-02  0.1170968E+00
         21   -1    0    0  503  502  0.00000000000E+00  0.00000000000E+00  0.65791510168E+02  0.65791510168E+02  0.00000000000E+00 0.  1.
         21   -1    0    0  501  503 -0.00000000000E+00 -0.00000000000E+00 -0.49713772037E+03  0.49713772037E+03  0.00000000000E+00 0.  1.
          6    1    1    2  501    0 -0.26432714074E+02 -0.24884736033E+02 -0.27515047204E+03  0.32703932596E+03  0.17300000000E+03 0.  1.
         -6    1    1    2    0  502  0.26432714074E+02  0.24884736033E+02 -0.15619573816E+03  0.23588990457E+03  0.17300000000E+03 0.  1.
<mgrwt>
<rscale>  2 0.17676804E+03</rscale>
<asrwt>0</asrwt>
<pdfrwt beam="1">  1       21 0.10121771E-01 0.17676804E+03</pdfrwt>
<pdfrwt beam="2">  1       21 0.76482725E-01 0.17676804E+03</pdfrwt>
<totfact> 0.12158388E+05</totfact>
</mgrwt>
</event>
<event>
 4    1  0.3948468E+000  0.1813529E+03  0.7546771E-02  0.1166500E+00
         21   -1    0    0  501  502  0.00000000000E+00  0.00000000000E+00  0.22555481072E+03  0.22555481072E+03  0.00000000000E+00 0. -1.
         21   -1    0    0  502  503 -0.00000000000E+00 -0.00000000000E+00 -0.37580223884E+03  0.37580223884E+03  0.00000000000E+00 0. -1.
          6    1    1    2  501    0 -0.38295079015E+02 -0.38643921757E+02  0.16009740445E+03  0.24190916617E+03  0.17300000000E+03 0. -1.
         -6    1    1    2    0  503  0.38295079015E+02  0.38643921757E+02 -0.31034483257E+03  0.35944788338E+03  0.17300000000E+03 0. -1.
<mgrwt>
<rscale>  2 0.18135288E+03</rscale>
<asrwt>0</asrwt>
<pdfrwt beam="1">  1       21 0.34700740E-01 0.18135288E+03</pdfrwt>
<pdfrwt beam="2">  1       21 0.57815729E-01 0.18135288E+03</pdfrwt>
<totfact> 0.22602627E+04</totfact>
</mgrwt>
</event>
<event>
 4    1  0.3948468E+000  0.1761632E+03  0.7546771E-02  0.1171569E+00
         21   -1    0    0  503  502  0.00000000000E+00  0.00000000000E+00  0.87599002603E+02  0.87599002603E+02  0.00000000000E+00 0. -1.
         21   -1    0    0  501  503 -0.00000000000E+00 -0.00000000000E+00 -0.64995319084E+03  0.64995319084E+03  0.00000000000E+00 0. -1.
          6    1    1    2  501    0 -0.31054591045E+02  0.11835759317E+02 -0.52991211387E+03  0.55842664805E+03  0.17300000000E+03 0.  1.
         -6    1    1    2    0  502  0.31054591045E+02 -0.11835759317E+02 -0.32442074366E+02  0.17912554539E+03  0.17300000000E+03 0.  1.
<mgrwt>
<rscale>  2 0.17616320E+03</rscale>
<asrwt>0</asrwt>
<pdfrwt beam="1">  1       21 0.13476769E-01 0.17616320E+03</pdfrwt>
<pdfrwt beam="2">  1       21 0.99992804E-01 0.17616320E+03</pdfrwt>
<totfact> 0.39459547E+04</totfact>
</mgrwt>
</event>
<event>
 4    1  0.3948468E+000  0.1974245E+03  0.7546771E-02  0.1151930E+00
         21   -1    0    0  501  502  0.00000000000E+00  0.00000000000E+00  0.23677956436E+03  0.23677956436E+03  0.00000000000E+00 0. -1.
         21   -1    0    0  502  503 -0.00000000000E+00 -0.00000000000E+00 -0.30765819223E+03  0.30765819223E+03  0.00000000000E+00 0.  1.
          6    1    1    2  501    0 -0.82231740488E+02  0.47805447456E+02  0.15018049190E+03  0.24805362343E+03  0.17300000000E+03 0. -1.
         -6    1    1    2    0  503  0.82231740488E+02 -0.47805447456E+02 -0.22105911977E+03  0.29638413315E+03  0.17300000000E+03 0.  1.
<mgrwt>
<rscale>  2 0.19742447E+03</rscale>
<asrwt>0</asrwt>
<pdfrwt beam="1">  1       21 0.36427626E-01 0.19742447E+03</pdfrwt>
<pdfrwt beam="2">  1       21 0.47332029E-01 0.19742447E+03</pdfrwt>
<totfact> 0.30952430E+04</totfact>
</mgrwt>
</event>
<event>
 4    1  0.3948468E+000  0.1902105E+03  0.7546771E-02  0.1158272E+00
         21   -1    0    0  501  502  0.00000000000E+00  0.00000000000E+00  0.52412652137E+02  0.52412652137E+02  0.00000000000E+00 0. -1.
         21   -1    0    0  502  503 -0.00000000000E+00 -0.00000000000E+00 -0.71890041864E+03  0.71890041864E+03  0.00000000000E+00 0.  1.
          6    1    1    2  501    0  0.55192677459E+02  0.56610972858E+02 -0.25631076481E+03  0.31917901255E+03  0.17300000000E+03 0. -1.
         -6    1    1    2    0  503 -0.55192677459E+02 -0.56610972858E+02 -0.41017700169E+03  0.45213405822E+03  0.17300000000E+03 0.  1.
<mgrwt>
<rscale>  2 0.19021050E+03</rscale>
<asrwt>0</asrwt>
<pdfrwt beam="1">  1       21 0.80634846E-02 0.19021050E+03</pdfrwt>
<pdfrwt beam="2">  1       21 0.11060007E+00 0.19021050E+03</pdfrwt>
<totfact> 0.76377406E+04</totfact>
</mgrwt>
</event>
<event>
 4    1  0.3948468E+000  0.1876164E+03  0.7546771E-02  0.1160629E+00
         21   -1    0    0  503  502  0.00000000000E+00  0.00000000000E+00  0.42452250401E+03  0.42452250401E+03  0.00000000000E+00 0. -1.
         21   -1    0    0  501  503 -0.00000000000E+00 -0.00000000000E+00 -0.14053333301E+03  0.14053333301E+03  0.00000000000E+00 0. -1.
          6    1    1    2  501    0 -0.18231052635E+02  0.70274873267E+02 -0.38908639508E+02  0.19160848447E+03  0.17300000000E+03 0. -1.
         -6    1    1    2    0  502  0.18231052635E+02 -0.70274873267E+02  0.32289781051E+03  0.37344735255E+03  0.17300000000E+03 0. -1.
<mgrwt>
<rscale>  2 0.18761644E+03</rscale>
<asrwt>0</asrwt>
<pdfrwt beam="1">  1       21 0.65311154E-01 0.18761644E+03</pdfrwt>
<pdfrwt beam="2">  1       21 0.21620513E-01 0.18761644E+03</pdfrwt>
<totfact> 0.43129955E+04</totfact>
</mgrwt>
</event>
<event>
 4    1  0.3948468E+000  0.2350485E+03  0.7546771E-02  0.1123136E+00
         21   -1    0    0  501  502  0.00000000000E+00  0.00000000000E+00  0.18596317172E+03  0.18596317172E+03  0.00000000000E+00 0.  1.
         21   -1    0    0  502  503 -0.00000000000E+00 -0.00000000000E+00 -0.32361904377E+03  0.32361904377E+03  0.00000000000E+00 0.  1.
          6    1    1    2  501    0 -0.76488953703E+02 -0.13952866618E+03  0.41224489489E+01  0.23508467264E+03  0.17300000000E+03 0.  1.
         -6    1    1    2    0  503  0.76488953703E+02  0.13952866618E+03 -0.14177832100E+03  0.27449754285E+03  0.17300000000E+03 0.  1.
<mgrwt>
<rscale>  2 0.23504852E+03</rscale>
<asrwt>0</asrwt>
<pdfrwt beam="1">  1       21 0.28609719E-01 0.23504852E+03</pdfrwt>
<pdfrwt beam="2">  1       21 0.49787545E-01 0.23504852E+03</pdfrwt>
<totfact> 0.44031312E+04</totfact>
</mgrwt>
</event>
<event>
 4    1  0.3948468E+000  0.1902083E+03  0.7546771E-02  0.1158274E+00
         21   -1    0    0  501  502  0.00000000000E+00  0.00000000000E+00  0.25850720853E+03  0.25850720853E+03  0.00000000000E+00 0.  1.
         21   -1    0    0  502  503 -0.00000000000E+00 -0.00000000000E+00 -0.23166096782E+03  0.23166096782E+03  0.00000000000E+00 0.  1.
          6    1    1    2  501    0 -0.42421179244E+01 -0.78944410003E+02  0.16762474744E+03  0.25352962626E+03  0.17300000000E+03 0.  1.
         -6    1    1    2    0  503  0.42421179244E+01  0.78944410003E+02 -0.14077850672E+03  0.23663855009E+03  0.17300000000E+03 0.  1.
<mgrwt>
<rscale>  2 0.19020835E+03</rscale>
<asrwt>0</asrwt>
<pdfrwt beam="1">  1       21 0.39770340E-01 0.19020835E+03</pdfrwt>
<pdfrwt beam="2">  1       21 0.35640149E-01 0.19020835E+03</pdfrwt>
<totfact> 0.46314862E+04</totfact>
</mgrwt>
</event>
<event>
 4    1  0.3948468E+000  0.1858125E+03  0.7546771E-02  0.1162293E+00
         21   -1    0    0  503  502  0.00000000000E+00  0.00000000000E+00  0.81174090629E+03  0.81174090629E+03  0.00000000000E+00 0. -1.
         21   -1    0    0  501  503 -0.00000000000E+00 -0.00000000000E+00 -0.49681471159E+02  0.49681471159E+02  0.00000000000E+00 0. -1.
          6    1    1    2  501    0  0.26047763574E+02 -0.62600262108E+02  0.54440136812E+03  0.57523832314E+03  0.17300000000E+03 0.  1.
         -6    1    1    2    0  502 -0.26047763574E+02  0.62600262108E+02  0.21765806701E+03  0.28618405431E+03  0.17300000000E+03 0.  1.
<mgrwt>
<rscale>  2 0.18581248E+03</rscale>
<asrwt>0</asrwt>
<pdfrwt beam="1">  1       21 0.12488321E+00 0.18581248E+03</pdfrwt>
<pdfrwt beam="2">  1       21 0.76433038E-02 0.18581248E+03</pdfrwt>
<totfact> 0.62323420E+04</totfact>
</mgrwt>
</event>
<event>
 4    1  0.3948468E+000  0.1816411E+03  0.7546771E-02  0.1166224E+00
         21   -1    0    0  501  502  0.00000000000E+00  0.00000000000E+00  0.26045463184E+03  0.26045463184E+03  0.00000000000E+00 0.  1.
         21   -1    0    0  502  503 -0.00000000000E+00 -0.00000000000E+00 -0.17751989275E+03  0.17751989275E+03  0.00000000000E+00 0.  1.
          6    1    1    2  501    0  0.52471248992E+02  0.17642419886E+02  0.15866329357E+03  0.24117945119E+03  0.17300000000E+03 0.  1.
         -6    1    1    2    0  503 -0.52471248992E+02 -0.17642419886E+02 -0.75728554485E+02  0.19679507340E+03  0.17300000000E+03 0.  1.
<mgrwt>
<rscale>  2 0.18164109E+03</rscale>
<asrwt>0</asrwt>
<pdfrwt beam="1">  1       21 0.40069943E-01 0.18164109E+03</pdfrwt>
<pdfrwt beam="2">  1       21 0.27310753E-01 0.18164109E+03</pdfrwt>
<totfact> 0.77082287E+04</totfact>
</mgrwt>
</event>
<event>
 4    1  0.3948468E+000  0.2385036E+03  0.7546771E-02  0.1120794E+00
         21   -1    0    0  503  502  0.00000000000E+00  0.00000000000E+00  0.71725067525E+02  0.71725067525E+02  0.00000000000E+00 0.  1.
         21   -1    0    0  501  503 -0.00000000000E+00 -0.00000000000E+00 -0.80305698819E+03  0.80305698819E+03  0.00000000000E+00 0. -1.
          6    1    1    2  501    0 -0.15625776732E+03 -0.50383159700E+02 -0.31692155597E+03  0.39663991890E+03  0.17300000000E+03 0. -1.
         -6    1    1    2    0  502  0.15625776732E+03  0.50383159700E+02 -0.41441036469E+03  0.47814213681E+03  0.17300000000E+03 0.  1.
<mgrwt>
<rscale>  2 0.23850357E+03</rscale>
<asrwt>0</asrwt>
<pdfrwt beam="1">  1       21 0.11034625E-01 0.23850357E+03</pdfrwt>
<pdfrwt beam="2">  1       21 0.12354724E+00 0.23850357E+03</pdfrwt>
<totfact> 0.32647172E+04</totfact>
</mgrwt>
</event>
<event>
 4    1  0.3948468E+000  0.2368430E+03  0.7546771E-02  0.1121914E+00
         21   -1    0    0  503  502  0.00000000000E+00  0.00000000000E+00  0.13757554931E+04  0.13757554931E+04  0.00000000000E+00 0.  1.
         21   -1    0    0  501  503 -0.00000000000E+00 -0.00000000000E+00 -0.17232929580E+03  0.17232929580E+03  0.00000000000E+00 0. -1.
          6    1    1    2  501    0  0.80496301656E+02 -0.14030663682E+03 -0.74587692945E+02  0.24831015053E+03  0.17300000000E+03 0. -1.
         -6    1    1    2    0  502 -0.80496301656E+02  0.14030663682E+03  0.12780138903E+04  0.12997746384E+04  0.17300000000E+03 0.  1.
<mgrwt>
<rscale>  2 0.23684300E+03</rscale>
<asrwt>0</asrwt>
<pdfrwt beam="1">  1       21 0.21165468E+00 0.23684300E+03</pdfrwt>
<pdfrwt beam="2">  1       21 0.26512200E-01 0.23684300E+03</pdfrwt>
<totfact> 0.14666323E+03</totfact>
</mgrwt>
</event>
<event>
 4    1  0.3948468E+000  0.1752792E+03  0.7546771E-02  0.1172452E+00
         21   -1    0    0  501  502  0.00000000000E+00  0.00000000000E+00  0.14495378839E+03  0.14495378839E+03  0.00000000000E+00 0. -1.
         21   -1    0    0  502  503 -0.00000000000E+00 -0.00000000000E+00 -0.29421767428E+03  0.29421767428E+03  0.00000000000E+00 0. -1.
          6    1    1    2  501    0 -0.10488081880E+02 -0.26149387982E+02  0.41482796878E+02  0.18012110590E+03  0.17300000000E+03 0. -1.
         -6    1    1    2    0  503  0.10488081880E+02  0.26149387982E+02 -0.19074668277E+03  0.25905035677E+03  0.17300000000E+03 0. -1.
<mgrwt>
<rscale>  2 0.17527918E+03</rscale>
<asrwt>0</asrwt>
<pdfrwt beam="1">  1       21 0.22300583E-01 0.17527918E+03</pdfrwt>
<pdfrwt beam="2">  1       21 0.45264258E-01 0.17527918E+03</pdfrwt>
<totfact> 0.88703153E+04</totfact>
</mgrwt>
</event>
<event>
 4    1  0.3948468E+000  0.1958886E+03  0.7546771E-02  0.1153255E+00
         21   -1    0    0  501  502  0.00000000000E+00  0.00000000000E+00  0.43570841158E+03  0.43570841158E+03  0.00000000000E+00 0.  1.
         21   -1    0    0  502  503 -0.00000000000E+00 -0.00000000000E+00 -0.16814779859E+03  0.16814779859E+03  0.00000000000E+00 0.  1.
          6    1    1    2  501    0  0.71233985929E+02 -0.58043655871E+02  0.34214161679E+03  0.39425021582E+03  0.17300000000E+03 0.  1.
         -6    1    1    2    0  503 -0.71233985929E+02  0.58043655871E+02 -0.74581003801E+02  0.20960599435E+03  0.17300000000E+03 0.  1.
<mgrwt>
<rscale>  2 0.19588861E+03</rscale>
<asrwt>0</asrwt>
<pdfrwt beam="1">  1       21 0.67032063E-01 0.19588861E+03</pdfrwt>
<pdfrwt beam="2">  1       21 0.25868892E-01 0.19588861E+03</pdfrwt>
<totfact> 0.28863431E+04</totfact>
</mgrwt>
</event>
<event>
 4    1  0.3948468E+000  0.4086525E+03  0.7546771E-02  0.1040824E+00
         21   -1    0    0  503  502  0.00000000000E+00  0.00000000000E+00  0.47531468860E+03  0.47531468860E+03  0.00000000000E+00 0. -1.
         21   -1    0    0  501  503 -0.00000000000E+00 -0.00000000000E+00 -0.43811555342E+03  0.43811555342E+03  0.00000000000E+00 0.  1.
          6    1    1    2  501    0  0.32561671634E+03  0.17618628128E+03 -0.18465993665E+03  0.44843744700E+03  0.17300000000E+03 0.  1.
         -6    1    1    2    0  502 -0.32561671634E+03 -0.17618628128E+03  0.22185907182E+03  0.46499279502E+03  0.17300000000E+03 0. -1.
<mgrwt>
<rscale>  2 0.40865248E+03</rscale>
<asrwt>0</asrwt>
<pdfrwt beam="1">  1       21 0.73125337E-01 0.40865248E+03</pdfrwt>
<pdfrwt beam="2">  1       21 0.67402393E-01 0.40865248E+03</pdfrwt>
<totfact> 0.29941399E+03</totfact>
</mgrwt>
</event>
<event>
 4    1  0.3948468E+000  0.2476776E+03  0.7546771E-02  0.1114781E+00
         21   -1    0    0  501  502  0.00000000000E+00  0.00000000000E+00  0.25191575684E+04  0.25191575684E+04  0.00000000000E+00 0. -1.
         21   -1    0    0  502  503 -0.00000000000E+00 -0.00000000000E+00 -0.38183770344E+02  0.38183770344E+02  0.00000000000E+00 0.  1.
          6    1    1    2  501    0 -0.13209811857E+03  0.11817477540E+03  0.20101004965E+04  0.20253020013E+04  0.17300000000E+03 0. -1.
         -6    1    1    2    0  503  0.13209811857E+03 -0.11817477540E+03  0.47087330160E+03  0.53203933748E+03  0.17300000000E+03 0.  1.
<mgrwt>
<rscale>  2 0.24767759E+03</rscale>
<asrwt>0</asrwt>
<pdfrwt beam="1">  1       21 0.38756257E+00 0.24767759E+03</pdfrwt>
<pdfrwt beam="2">  1       21 0.58744282E-02 0.24767759E+03</pdfrwt>
<totfact> 0.19818939E+03</totfact>
</mgrwt>
</event>
<event>
 4    1  0.3948468E+000  0.2561433E+03  0.7546771E-02  0.1109483E+00
         21   -1    0    0  503  502  0.00000000000E+00  0.00000000000E+00  0.42523699140E+03  0.42523699140E+03  0.00000000000E+00 0. -1.
         21   -1    0    0  501  503 -0.00000000000E+00 -0.00000000000E+00 -0.20677197472E+03  0.20677197472E+03  0.00000000000E+00 0. -1.
          6    1    1    2  501    0 -0.57743062088E+02 -0.17985032243E+03 -0.49972429975E+02  0.26097249559E+03  0.17300000000E+03 0. -1.
         -6    1    1    2    0  502  0.57743062088E+02  0.17985032243E+03  0.26843744665E+03  0.37103647053E+03  0.17300000000E+03 0. -1.
<mgrwt>
<rscale>  2 0.25614332E+03</rscale>
<asrwt>0</asrwt>
<pdfrwt beam="1">  1       21 0.65421076E-01 0.25614332E+03</pdfrwt>
<pdfrwt beam="2">  1       21 0.31811073E-01 0.25614332E+03</pdfrwt>
<totfact> 0.19730019E+04</totfact>
</mgrwt>
</event>
<event>
 4    1  0.3948468E+000  0.1775909E+03  0.7546771E-02  0.1170155E+00
         21   -1    0    0  503  502  0.00000000000E+00  0.00000000000E+00  0.32335085438E+02  0.32335085438E+02  0.00000000000E+00 0. -1.
         21   -1    0    0  501  503 -0.00000000000E+00 -0.00000000000E+00 -0.13416251226E+04  0.13416251226E+04  0.00000000000E+00 0. -1.
          6    1    1    2  501    0 -0.35137874757E+02  0.19361304825E+02 -0.10135859821E+04  0.10290262745E+04  0.17300000000E+03 0. -1.
         -6    1    1    2    0  502  0.35137874757E+02 -0.19361304825E+02 -0.29570405502E+03  0.34493393356E+03  0.17300000000E+03 0. -1.
<mgrwt>
<rscale>  2 0.17759091E+03</rscale>
<asrwt>0</asrwt>
<pdfrwt beam="1">  1       21 0.49746288E-02 0.17759091E+03</pdfrwt>
<pdfrwt beam="2">  1       21 0.20640385E+00 0.17759091E+03</pdfrwt>
<totfact> 0.33531074E+04</totfact>
</mgrwt>
</event>
<event>
 4    1  0.3948468E+000  0.2622992E+03  0.7546771E-02  0.1105770E+00
         21   -1    0    0  501  502  0.00000000000E+00  0.00000000000E+00  0.86118413327E+02  0.86118413327E+02  0.00000000000E+00 0.  1.
         21   -1    0    0  502  503 -0.00000000000E+00 -0.00000000000E+00 -0.81536548741E+03  0.81536548741E+03  0.00000000000E+00 0. -1.
          6    1    1    2  501    0 -0.19039109052E+03  0.51216272284E+02 -0.30059032212E+03  0.39894287266E+03  0.17300000000E+03 0. -1.
         -6    1    1    2    0  503  0.19039109052E+03 -0.51216272284E+02 -0.42865675197E+03  0.50254102808E+03  0.17300000000E+03 0. -1.
<mgrwt>
<rscale>  2 0.26229921E+03</rscale>
<asrwt>0</asrwt>
<pdfrwt beam="1">  1       21 0.13248986E-01 0.26229921E+03</pdfrwt>
<pdfrwt beam="2">  1       21 0.12544085E+00 0.26229921E+03</pdfrwt>
<totfact> 0.22341761E+04</totfact>
</mgrwt>
</event>
<event>
 4    1  0.3948468E+000  0.1807593E+03  0.7546771E-02  0.1167070E+00
         21   -1    0    0  501  502  0.00000000000E+00  0.00000000000E+00  0.34508991116E+03  0.34508991116E+03  0.00000000000E+00 0.  1.
         21   -1    0    0  502  503 -0.00000000000E+00 -0.00000000000E+00 -0.95207358804E+02  0.95207358804E+02  0.00000000000E+00 0.  1.
          6    1    1    2  501    0 -0.50086240983E+02 -0.15371320557E+02  0.10859263466E+03  0.21087026660E+03  0.17300000000E+03 0. -1.
         -6    1    1    2    0  503  0.50086240983E+02  0.15371320557E+02  0.14128991769E+03  0.22942700337E+03  0.17300000000E+03 0. -1.
<mgrwt>
<rscale>  2 0.18075926E+03</rscale>
<asrwt>0</asrwt>
<pdfrwt beam="1">  1       21 0.53090755E-01 0.18075926E+03</pdfrwt>
<pdfrwt beam="2">  1       21 0.14647286E-01 0.18075926E+03</pdfrwt>
<totfact> 0.13821445E+05</totfact>
</mgrwt>
</event>
<event>
 4    1  0.3948468E+000  0.1788364E+03  0.7546771E-02  0.1168934E+00
         21   -1    0    0  503  502  0.00000000000E+00  0.00000000000E+00  0.12855354052E+03  0.12855354052E+03  0.00000000000E+00 0. -1.
         21   -1    0    0  501  503 -0.00000000000E+00 -0.00000000000E+00 -0.73726231761E+03  0.73726231761E+03  0.00000000000E+00 0. -1.
          6    1    1    2  501    0 -0.42486629915E+02  0.15759149935E+02 -0.65672995126E+03  0.68064432225E+03  0.17300000000E+03 0. -1.
         -6    1    1    2    0  502  0.42486629915E+02 -0.15759149935E+02  0.48021174171E+02  0.18517153587E+03  0.17300000000E+03 0. -1.
<mgrwt>
<rscale>  2 0.17883642E+03</rscale>
<asrwt>0</asrwt>
<pdfrwt beam="1">  1       21 0.19777468E-01 0.17883642E+03</pdfrwt>
<pdfrwt beam="2">  1       21 0.11342497E+00 0.17883642E+03</pdfrwt>
<totfact> 0.14424433E+04</totfact>
</mgrwt>
</event>
<event>
 4    1  0.3948468E+000  0.2116660E+03  0.7546771E-02  0.1140253E+00
         21   -1    0    0  501  502  0.00000000000E+00  0.00000000000E+00  0.16395617987E+03  0.16395617987E+03  0.00000000000E+00 0. -1.
         21   -1    0    0  502  503 -0.00000000000E+00 -0.00000000000E+00 -0.34890258323E+03  0.34890258323E+03  0.00000000000E+00 0. -1.
          6    1    1    2  501    0 -0.69578032826E+02 -0.10016181457E+03 -0.21187253840E+03  0.29948700185E+03  0.17300000000E+03 0. -1.
         -6    1    1    2    0  503  0.69578032826E+02  0.10016181457E+03  0.26926135044E+02  0.21337176125E+03  0.17300000000E+03 0. -1.
<mgrwt>
<rscale>  2 0.21166599E+03</rscale>
<asrwt>0</asrwt>
<pdfrwt beam="1">  1       21 0.25224028E-01 0.21166599E+03</pdfrwt>
<pdfrwt beam="2">  1       21 0.53677320E-01 0.21166599E+03</pdfrwt>
<totfact> 0.48446492E+04</totfact>
</mgrwt>
</event>
<event>
 4    1  0.3948468E+000  0.1940666E+03  0.7546771E-02  0.1154844E+00
         21   -1    0    0  501  502  0.00000000000E+00  0.00000000000E+00  0.22755470004E+04  0.22755470004E+04  0.00000000000E+00 0. -1.
         21   -1    0    0  502  503 -0.00000000000E+00 -0.00000000000E+00 -0.38414027618E+02  0.38414027618E+02  0.00000000000E+00 0. -1.
          6    1    1    2  501    0  0.35317294507E+02  0.80532866159E+02  0.19914161256E+04  0.20008498292E+04  0.17300000000E+03 0. -1.
         -6    1    1    2    0  503 -0.35317294507E+02 -0.80532866159E+02  0.24571684722E+03  0.31311119882E+03  0.17300000000E+03 0. -1.
<mgrwt>
<rscale>  2 0.19406662E+03</rscale>
<asrwt>0</asrwt>
<pdfrwt beam="1">  1       21 0.35008405E+00 0.19406662E+03</pdfrwt>
<pdfrwt beam="2">  1       21 0.59098522E-02 0.19406662E+03</pdfrwt>
<totfact> 0.35277144E+03</totfact>
</mgrwt>
</event>
<event>
 4    1  0.3948468E+000  0.3270441E+03  0.7546771E-02  0.1072452E+00
         21   -1    0    0  501  502  0.00000000000E+00  0.00000000000E+00  0.10244893320E+03  0.10244893320E+03  0.00000000000E+00 0.  1.
         21   -1    0    0  502  503 -0.00000000000E+00 -0.00000000000E+00 -0.11461407140E+04  0.11461407140E+04  0.00000000000E+00 0. -1.
          6    1    1    2  501    0  0.13920075955E+03  0.24010833595E+03 -0.33548886998E+03  0.46851963282E+03  0.17300000000E+03 0.  1.
         -6    1    1    2    0  503 -0.13920075955E+03 -0.24010833595E+03 -0.70820291081E+03  0.78007001438E+03  0.17300000000E+03 0. -1.
<mgrwt>
<rscale>  2 0.32704413E+03</rscale>
<asrwt>0</asrwt>
<pdfrwt beam="1">  1       21 0.15761375E-01 0.32704413E+03</pdfrwt>
<pdfrwt beam="2">  1       21 0.17632933E+00 0.32704413E+03</pdfrwt>
<totfact> 0.63250764E+03</totfact>
</mgrwt>
</event>
<event>
 4    1  0.3948468E+000  0.2643980E+03  0.7546771E-02  0.1104529E+00
         21   -1    0    0  501  502  0.00000000000E+00  0.00000000000E+00  0.21082256612E+03  0.21082256612E+03  0.00000000000E+00 0. -1.
         21   -1    0    0  502  503 -0.00000000000E+00 -0.00000000000E+00 -0.46650543932E+03  0.46650543932E+03  0.00000000000E+00 0.  1.
          6    1    1    2  501    0 -0.19161762022E+03  0.57096245206E+02  0.54285534018E+02  0.26991334313E+03  0.17300000000E+03 0. -1.
         -6    1    1    2    0  503  0.19161762022E+03 -0.57096245206E+02 -0.30996840722E+03  0.40741466231E+03  0.17300000000E+03 0.  1.
<mgrwt>
<rscale>  2 0.26439798E+03</rscale>
<asrwt>0</asrwt>
<pdfrwt beam="1">  1       21 0.32434241E-01 0.26439798E+03</pdfrwt>
<pdfrwt beam="2">  1       21 0.71770066E-01 0.26439798E+03</pdfrwt>
<totfact> 0.15406179E+04</totfact>
</mgrwt>
</event>
<event>
 4    1  0.3948468E+000  0.1951762E+03  0.7546771E-02  0.1153874E+00
         21   -1    0    0  503  502  0.00000000000E+00  0.00000000000E+00  0.30385943028E+03  0.30385943028E+03  0.00000000000E+00 0.  1.
         21   -1    0    0  501  503 -0.00000000000E+00 -0.00000000000E+00 -0.40570979404E+03  0.40570979404E+03  0.00000000000E+00 0. -1.
          6    1    1    2  501    0  0.63863033213E+02 -0.63923840095E+02 -0.34584383372E+03  0.39711673557E+03  0.17300000000E+03 0. -1.
         -6    1    1    2    0  502 -0.63863033213E+02  0.63923840095E+02  0.24399346996E+03  0.31245248875E+03  0.17300000000E+03 0.  1.
<mgrwt>
<rscale>  2 0.19517619E+03</rscale>
<asrwt>0</asrwt>
<pdfrwt beam="1">  1       21 0.46747605E-01 0.19517619E+03</pdfrwt>
<pdfrwt beam="2">  1       21 0.62416891E-01 0.19517619E+03</pdfrwt>
<totfact> 0.10408738E+04</totfact>
</mgrwt>
</event>
<event>
 4    1  0.3948468E+000  0.2326456E+03  0.7546771E-02  0.1124791E+00
         21   -1    0    0  503  502  0.00000000000E+00  0.00000000000E+00  0.49224180329E+03  0.49224180329E+03  0.00000000000E+00 0.  1.
         21   -1    0    0  501  503 -0.00000000000E+00 -0.00000000000E+00 -0.11046471769E+03  0.11046471769E+03  0.00000000000E+00 0.  1.
          6    1    1    2  501    0  0.13656129779E+03 -0.74471361983E+02  0.17039862391E+03  0.28837417159E+03  0.17300000000E+03 0.  1.
         -6    1    1    2    0  502 -0.13656129779E+03  0.74471361983E+02  0.21137846170E+03  0.31433234940E+03  0.17300000000E+03 0.  1.
<mgrwt>
<rscale>  2 0.23264559E+03</rscale>
<asrwt>0</asrwt>
<pdfrwt beam="1">  1       21 0.75729507E-01 0.23264559E+03</pdfrwt>
<pdfrwt beam="2">  1       21 0.16994572E-01 0.23264559E+03</pdfrwt>
<totfact> 0.47651827E+04</totfact>
</mgrwt>
</event>
<event>
 4    1  0.3948468E+000  0.2818792E+03  0.7546771E-02  0.1094667E+00
         21   -1    0    0  503  502  0.00000000000E+00  0.00000000000E+00  0.19280818671E+04  0.19280818671E+04  0.00000000000E+00 0. -1.
         21   -1    0    0  501  503 -0.00000000000E+00 -0.00000000000E+00 -0.45926733170E+02  0.45926733170E+02  0.00000000000E+00 0.  1.
          6    1    1    2  501    0 -0.17186949319E+03 -0.14137808162E+03  0.62476551862E+03  0.68541070747E+03  0.17300000000E+03 0.  1.
         -6    1    1    2    0  502  0.17186949319E+03  0.14137808162E+03  0.12573896153E+04  0.12885978928E+04  0.17300000000E+03 0. -1.
<mgrwt>
<rscale>  2 0.28187920E+03</rscale>
<asrwt>0</asrwt>
<pdfrwt beam="1">  1       21 0.29662792E+00 0.28187920E+03</pdfrwt>
<pdfrwt beam="2">  1       21 0.70656528E-02 0.28187920E+03</pdfrwt>
<totfact> 0.48799136E+03</totfact>
</mgrwt>
</event>
<event>
 4    1  0.3948468E+000  0.1786617E+03  0.7546771E-02  0.1169105E+00
         21   -1    0    0  503  502  0.00000000000E+00  0.00000000000E+00  0.10503445853E+04  0.10503445853E+04  0.00000000000E+00 0.  1.
         21   -1    0    0  501  503 -0.00000000000E+00 -0.00000000000E+00 -0.30879906702E+02  0.30879906702E+02  0.00000000000E+00 0. -1.
          6    1    1    2  501    0 -0.44581322750E+02 -0.18705400061E+01  0.44164041824E+03  0.47640975250E+03  0.17300000000E+03 0. -1.
         -6    1    1    2    0  502  0.44581322750E+02  0.18705400061E+01  0.57782426039E+03  0.60481473953E+03  0.17300000000E+03 0.  1.
<mgrwt>
<rscale>  2 0.17866167E+03</rscale>
<asrwt>0</asrwt>
<pdfrwt beam="1">  1       21 0.16159145E+00 0.17866167E+03</pdfrwt>
<pdfrwt beam="2">  1       21 0.47507557E-02 0.17866167E+03</pdfrwt>
<totfact> 0.72421725E+04</totfact>
</mgrwt>
</event>
<event>
 4    1  0.3948468E+000  0.2714410E+03  0.7546771E-02  0.1100458E+00
         21   -1    0    0  503  502  0.00000000000E+00  0.00000000000E+00  0.38144477482E+03  0.38144477482E+03  0.00000000000E+00 0.  1.
         21   -1    0    0  501  503 -0.00000000000E+00 -0.00000000000E+00 -0.19319132662E+03  0.19319132662E+03  0.00000000000E+00 0. -1.
          6    1    1    2  501    0  0.20554735874E+03  0.38749187134E+02  0.97732448756E+02  0.28849930282E+03  0.17300000000E+03 0.  1.
         -6    1    1    2    0  502 -0.20554735874E+03 -0.38749187134E+02  0.90520999449E+02  0.28613679863E+03  0.17300000000E+03 0. -1.
<mgrwt>
<rscale>  2 0.27144100E+03</rscale>
<asrwt>0</asrwt>
<pdfrwt beam="1">  1       21 0.58683811E-01 0.27144100E+03</pdfrwt>
<pdfrwt beam="2">  1       21 0.29721743E-01 0.27144100E+03</pdfrwt>
<totfact> 0.28379544E+04</totfact>
</mgrwt>
</event>
<event>
 4    1  0.3948468E+000  0.1734734E+03  0.7546771E-02  0.1174273E+00
         21   -1    0    0  503  502  0.00000000000E+00  0.00000000000E+00  0.16368014347E+03  0.16368014347E+03  0.00000000000E+00 0.  1.
         21   -1    0    0  501  503 -0.00000000000E+00 -0.00000000000E+00 -0.34282982027E+03  0.34282982027E+03  0.00000000000E+00 0.  1.
          6    1    1    2  501    0 -0.32658379325E+01  0.12383418702E+02 -0.26203396987E+03  0.31425279016E+03  0.17300000000E+03 0.  1.
         -6    1    1    2    0  502  0.32658379325E+01 -0.12383418702E+02  0.82884293071E+02  0.19225717358E+03  0.17300000000E+03 0.  1.
<mgrwt>
<rscale>  2 0.17347338E+03</rscale>
<asrwt>0</asrwt>
<pdfrwt beam="1">  1       21 0.25181561E-01 0.17347338E+03</pdfrwt>
<pdfrwt beam="2">  1       21 0.52743049E-01 0.17347338E+03</pdfrwt>
<totfact> 0.51367654E+04</totfact>
</mgrwt>
</event>
<event>
 4    1  0.3948468E+000  0.1836514E+03  0.7546771E-02  0.1164315E+00
         21   -1    0    0  503  502  0.00000000000E+00  0.00000000000E+00  0.14678247259E+03  0.14678247259E+03  0.00000000000E+00 0.  1.
         21   -1    0    0  501  503 -0.00000000000E+00 -0.00000000000E+00 -0.27248435801E+03  0.27248435801E+03  0.00000000000E+00 0.  1.
          6    1    1    2  501    0 -0.61506155185E+02 -0.39807972768E+01 -0.14583977948E+03  0.23451459475E+03  0.17300000000E+03 0. -1.
         -6    1    1    2    0  502  0.61506155185E+02  0.39807972768E+01  0.20137894063E+02  0.18475223585E+03  0.17300000000E+03 0. -1.
<mgrwt>
<rscale>  2 0.18365145E+03</rscale>
<asrwt>0</asrwt>
<pdfrwt beam="1">  1       21 0.22581919E-01 0.18365145E+03</pdfrwt>
<pdfrwt beam="2">  1       21 0.41920670E-01 0.18365145E+03</pdfrwt>
<totfact> 0.10098405E+05</totfact>
</mgrwt>
</event>
<event>
 4    1  0.3948468E+000  0.1906658E+03  0.7546771E-02  0.1157862E+00
         21   -1    0    0  501  502  0.00000000000E+00  0.00000000000E+00  0.11335764009E+04  0.11335764009E+04  0.00000000000E+00 0. -1.
         21   -1    0    0  502  503 -0.00000000000E+00 -0.00000000000E+00 -0.35874404845E+02  0.35874404845E+02  0.00000000000E+00 0. -1.
          6    1    1    2  501    0 -0.60878322598E+02 -0.52137251787E+02  0.73927412307E+03  0.76346558025E+03  0.17300000000E+03 0. -1.
         -6    1    1    2    0  503  0.60878322598E+02  0.52137251787E+02  0.35842787298E+03  0.40598522549E+03  0.17300000000E+03 0. -1.
<mgrwt>
<rscale>  2 0.19066584E+03</rscale>
<asrwt>0</asrwt>
<pdfrwt beam="1">  1       21 0.17439634E+00 0.19066584E+03</pdfrwt>
<pdfrwt beam="2">  1       21 0.55191401E-02 0.19066584E+03</pdfrwt>
<totfact> 0.45272494E+04</totfact>
</mgrwt>
</event>
<event>
 4    1  0.3948468E+000  0.2100324E+03  0.7546771E-02  0.1141540E+00
         21   -1    0    0  501  502  0.00000000000E+00  0.00000000000E+00  0.57195230466E+03  0.57195230466E+03  0.00000000000E+00 0. -1.
         21   -1    0    0  502  503 -0.00000000000E+00 -0.00000000000E+00 -0.16875981055E+03  0.16875981055E+03  0.00000000000E+00 0. -1.
          6    1    1    2  501    0 -0.30112239688E+02  0.11522961127E+03  0.47449890755E+03  0.51890540906E+03  0.17300000000E+03 0. -1.
         -6    1    1    2    0  503  0.30112239688E+02 -0.11522961127E+03 -0.71306413432E+02  0.22180670614E+03  0.17300000000E+03 0. -1.
<mgrwt>
<rscale>  2 0.21003240E+03</rscale>
<asrwt>0</asrwt>
<pdfrwt beam="1">  1       21 0.87992661E-01 0.21003240E+03</pdfrwt>
<pdfrwt beam="2">  1       21 0.25963048E-01 0.21003240E+03</pdfrwt>
<totfact> 0.15422616E+04</totfact>
</mgrwt>
</event>
<event>
 4    1  0.3948468E+000  0.2373721E+03  0.7546771E-02  0.1121556E+00
         21   -1    0    0  503  502  0.00000000000E+00  0.00000000000E+00  0.39058638285E+03  0.39058638285E+03  0.00000000000E+00 0. -1.
         21   -1    0    0  501  503 -0.00000000000E+00 -0.00000000000E+00 -0.18223649047E+03  0.18223649047E+03  0.00000000000E+00 0. -1.
          6    1    1    2  501    0  0.10426019296E+03  0.12468491677E+03 -0.26573656359E+02  0.23885492567E+03  0.17300000000E+03 0. -1.
         -6    1    1    2    0  502 -0.10426019296E+03 -0.12468491677E+03  0.23492354874E+03  0.33396794765E+03  0.17300000000E+03 0. -1.
<mgrwt>
<rscale>  2 0.23737211E+03</rscale>
<asrwt>0</asrwt>
<pdfrwt beam="1">  1       21 0.60090213E-01 0.23737211E+03</pdfrwt>
<pdfrwt beam="2">  1       21 0.28036383E-01 0.23737211E+03</pdfrwt>
<totfact> 0.30676073E+04</totfact>
</mgrwt>
</event>
<event>
 4    1  0.3948468E+000  0.1777449E+03  0.7546771E-02  0.1170004E+00
         21   -1    0    0  503  502  0.00000000000E+00  0.00000000000E+00  0.12457743607E+03  0.12457743607E+03  0.00000000000E+00 0.  1.
         21   -1    0    0  501  503 -0.00000000000E+00 -0.00000000000E+00 -0.11083043804E+04  0.11083043804E+04  0.00000000000E+00 0.  1.
          6    1    1    2  501    0  0.15796921772E+02 -0.37612422872E+02 -0.10332021742E+04  0.10483796879E+04  0.17300000000E+03 0.  1.
         -6    1    1    2    0  502 -0.15796921772E+02  0.37612422872E+02  0.49475229895E+02  0.18450212862E+03  0.17300000000E+03 0.  1.
<mgrwt>
<rscale>  2 0.17774487E+03</rscale>
<asrwt>0</asrwt>
<pdfrwt beam="1">  1       21 0.19165759E-01 0.17774487E+03</pdfrwt>
<pdfrwt beam="2">  1       21 0.17050837E+00 0.17774487E+03</pdfrwt>
<totfact> 0.53594961E+03</totfact>
</mgrwt>
</event>
<event>
 4    1  0.3948468E+000  0.3049569E+03  0.7546771E-02  0.1082789E+00
         21   -1    0    0  503  502  0.00000000000E+00  0.00000000000E+00  0.17699365671E+03  0.17699365671E+03  0.00000000000E+00 0. -1.
         21   -1    0    0  501  503 -0.00000000000E+00 -0.00000000000E+00 -0.52979736813E+03  0.52979736813E+03  0.00000000000E+00 0.  1.
          6    1    1    2  501    0 -0.23167287862E+03  0.96940215440E+02 -0.14433556584E+03  0.33738921682E+03  0.17300000000E+03 0. -1.
         -6    1    1    2    0  502  0.23167287862E+03 -0.96940215440E+02 -0.20846814558E+03  0.36940180803E+03  0.17300000000E+03 0.  1.
<mgrwt>
<rscale>  2 0.30495693E+03</rscale>
<asrwt>0</asrwt>
<pdfrwt beam="1">  1       21 0.27229793E-01 0.30495693E+03</pdfrwt>
<pdfrwt beam="2">  1       21 0.81507287E-01 0.30495693E+03</pdfrwt>
<totfact> 0.15996197E+04</totfact>
</mgrwt>
</event>
<event>
 4    1  0.3948468E+000  0.1860940E+03  0.7546771E-02  0.1162032E+00
         21   -1    0    0  501  502  0.00000000000E+00  0.00000000000E+00  0.82345908581E+03  0.82345908581E+03  0.00000000000E+00 0. -1.
         21   -1    0    0  502  503 -0.00000000000E+00 -0.00000000000E+00 -0.47480222244E+02  0.47480222244E+02  0.00000000000E+00 0. -1.
          6    1    1    2  501    0  0.65802929586E+02 -0.19286183999E+02  0.53518350850E+03  0.56661483409E+03  0.17300000000E+03 0. -1.
         -6    1    1    2    0  503 -0.65802929586E+02  0.19286183999E+02  0.24079535507E+03  0.30432447397E+03  0.17300000000E+03 0. -1.
<mgrwt>
<rscale>  2 0.18609402E+03</rscale>
<asrwt>0</asrwt>
<pdfrwt beam="1">  1       21 0.12668600E+00 0.18609402E+03</pdfrwt>
<pdfrwt beam="2">  1       21 0.73046502E-02 0.18609402E+03</pdfrwt>
<totfact> 0.65028913E+04</totfact>
</mgrwt>
</event>
<event>
 4    1  0.3948468E+000  0.1863178E+03  0.7546771E-02  0.1161825E+00
         21   -1    0    0  501  502  0.00000000000E+00  0.00000000000E+00  0.28380084141E+02  0.28380084141E+02  0.00000000000E+00 0. -1.
         21   -1    0    0  502  503 -0.00000000000E+00 -0.00000000000E+00 -0.12323711526E+04  0.12323711526E+04  0.00000000000E+00 0.  1.
          6    1    1    2  501    0  0.57692077354E+02  0.38169904551E+02 -0.65639675758E+03  0.68232764913E+03  0.17300000000E+03 0.  1.
         -6    1    1    2    0  503 -0.57692077354E+02 -0.38169904551E+02 -0.54759431091E+03  0.57842358765E+03  0.17300000000E+03 0. -1.
<mgrwt>
<rscale>  2 0.18631779E+03</rscale>
<asrwt>0</asrwt>
<pdfrwt beam="1">  1       21 0.43661674E-02 0.18631779E+03</pdfrwt>
<pdfrwt beam="2">  1       21 0.18959554E+00 0.18631779E+03</pdfrwt>
<totfact> 0.53288069E+04</totfact>
</mgrwt>
</event>
<event>
 4    1  0.3948468E+000  0.1956705E+03  0.7546771E-02  0.1153444E+00
         21   -1    0    0  501  502  0.00000000000E+00  0.00000000000E+00  0.26404511257E+02  0.26404511257E+02  0.00000000000E+00 0. -1.
         21   -1    0    0  502  503 -0.00000000000E+00 -0.00000000000E+00 -0.31059866265E+04  0.31059866265E+04  0.00000000000E+00 0. -1.
          6    1    1    2  501    0 -0.59852787041E+02 -0.69105726671E+02 -0.39619527367E+03  0.44187968097E+03  0.17300000000E+03 0. -1.
         -6    1    1    2    0  503  0.59852787041E+02  0.69105726671E+02 -0.26833868416E+04  0.26905114568E+04  0.17300000000E+03 0. -1.
<mgrwt>
<rscale>  2 0.19567053E+03</rscale>
<asrwt>0</asrwt>
<pdfrwt beam="1">  1       21 0.40622357E-02 0.19567053E+03</pdfrwt>
<pdfrwt beam="2">  1       21 0.47784372E+00 0.19567053E+03</pdfrwt>
<totfact> 0.10258801E+03</totfact>
</mgrwt>
</event>
<event>
 4    1  0.3948468E+000  0.2482644E+03  0.7546771E-02  0.1114407E+00
         21   -1    0    0  503  502  0.00000000000E+00  0.00000000000E+00  0.75427598343E+03  0.75427598343E+03  0.00000000000E+00 0.  1.
         21   -1    0    0  501  503 -0.00000000000E+00 -0.00000000000E+00 -0.13903206116E+03  0.13903206116E+03  0.00000000000E+00 0.  1.
          6    1    1    2  501    0 -0.10803970611E+03 -0.14154025934E+03  0.20835971890E+02  0.24913723294E+03  0.17300000000E+03 0.  1.
         -6    1    1    2    0  502  0.10803970611E+03  0.14154025934E+03  0.59440795038E+03  0.64417081166E+03  0.17300000000E+03 0.  1.
<mgrwt>
<rscale>  2 0.24826442E+03</rscale>
<asrwt>0</asrwt>
<pdfrwt beam="1">  1       21 0.11604246E+00 0.24826442E+03</pdfrwt>
<pdfrwt beam="2">  1       21 0.21389548E-01 0.24826442E+03</pdfrwt>
<totfact> 0.11264867E+04</totfact>
</mgrwt>
</event>
<event>
 4    1  0.3948468E+000  0.3064400E+03  0.7546771E-02  0.1082065E+00
         21   -1    0    0  503  502  0.00000000000E+00  0.00000000000E+00  0.11413957772E+03  0.11413957772E+03  0.00000000000E+00 0.  1.
         21   -1    0    0  501  503 -0.00000000000E+00 -0.00000000000E+00 -0.96392270026E+03  0.96392270026E+03  0.00000000000E+00 0. -1.
          6    1    1    2  501    0  0.78502586799E+02  0.24044506209E+03 -0.63119504555E+03  0.70164996227E+03  0.17300000000E+03 0. -1.
         -6    1    1    2    0  502 -0.78502586799E+02 -0.24044506209E+03 -0.21858807699E+03  0.37641231571E+03  0.17300000000E+03 0.  1.
<mgrwt>
<rscale>  2 0.30644002E+03</rscale>
<asrwt>0</asrwt>
<pdfrwt beam="1">  1       21 0.17559936E-01 0.30644002E+03</pdfrwt>
<pdfrwt beam="2">  1       21 0.14829579E+00 0.30644002E+03</pdfrwt>
<totfact> 0.84320901E+03</totfact>
</mgrwt>
</event>
<event>
 4    1  0.3948468E+000  0.2359670E+03  0.7546771E-02  0.1122509E+00
         21   -1    0    0  503  502  0.00000000000E+00  0.00000000000E+00  0.13312864508E+04  0.13312864508E+04  0.00000000000E+00 0. -1.
         21   -1    0    0  501  503 -0.00000000000E+00 -0.00000000000E+00 -0.51803190987E+02  0.51803190987E+02  0.00000000000E+00 0.  1.
          6    1    1    2  501    0  0.15444057397E+03 -0.43583765907E+02  0.33622805350E+03  0.41076725709E+03  0.17300000000E+03 0.  1.
         -6    1    1    2    0  502 -0.15444057397E+03  0.43583765907E+02  0.94325520632E+03  0.97232238470E+03  0.17300000000E+03 0. -1.
<mgrwt>
<rscale>  2 0.23596702E+03</rscale>
<asrwt>0</asrwt>
<pdfrwt beam="1">  1       21 0.20481327E+00 0.23596702E+03</pdfrwt>
<pdfrwt beam="2">  1       21 0.79697227E-02 0.23596702E+03</pdfrwt>
<totfact> 0.14628357E+04</totfact>
</mgrwt>
</event>
<event>
 4    1  0.3948468E+000  0.2645047E+03  0.7546771E-02  0.1104467E+00
         21   -1    0    0  501  502  0.00000000000E+00  0.00000000000E+00  0.64714916956E+03  0.64714916956E+03  0.00000000000E+00 0. -1.
         21   -1    0    0  502  503 -0.00000000000E+00 -0.00000000000E+00 -0.17466280904E+03  0.17466280904E+03  0.00000000000E+00 0.  1.
          6    1    1    2  501    0  0.99945356856E+02  0.17333399341E+03  0.48988929541E+03  0.55673536746E+03  0.17300000000E+03 0. -1.
         -6    1    1    2    0  503 -0.99945356856E+02 -0.17333399341E+03 -0.17402934883E+02  0.26507661114E+03  0.17300000000E+03 0.  1.
<mgrwt>
<rscale>  2 0.26450472E+03</rscale>
<asrwt>0</asrwt>
<pdfrwt beam="1">  1       21 0.99561410E-01 0.26450472E+03</pdfrwt>
<pdfrwt beam="2">  1       21 0.26871202E-01 0.26450472E+03</pdfrwt>
<totfact> 0.10470175E+04</totfact>
</mgrwt>
</event>
<event>
 4    1  0.3948468E+000  0.2870414E+03  0.7546771E-02  0.1091904E+00
         21   -1    0    0  503  502  0.00000000000E+00  0.00000000000E+00  0.40543083409E+03  0.40543083409E+03  0.00000000000E+00 0.  1.
         21   -1    0    0  501  503 -0.00000000000E+00 -0.00000000000E+00 -0.22879672555E+03  0.22879672555E+03  0.00000000000E+00 0. -1.
          6    1    1    2  501    0  0.22619262965E+03  0.36064806805E+02 -0.17703284806E+02  0.28758682566E+03  0.17300000000E+03 0. -1.
         -6    1    1    2    0  502 -0.22619262965E+03 -0.36064806805E+02  0.19433739335E+03  0.34664073398E+03  0.17300000000E+03 0.  1.
<mgrwt>
<rscale>  2 0.28704142E+03</rscale>
<asrwt>0</asrwt>
<pdfrwt beam="1">  1       21 0.62373975E-01 0.28704142E+03</pdfrwt>
<pdfrwt beam="2">  1       21 0.35199496E-01 0.28704142E+03</pdfrwt>
<totfact> 0.17658014E+04</totfact>
</mgrwt>
</event>
<event>
 4    1  0.3948468E+000  0.2190846E+03  0.7546771E-02  0.1134567E+00
         21   -1    0    0  501  502  0.00000000000E+00  0.00000000000E+00  0.80698746410E+02  0.80698746410E+02  0.00000000000E+00 0.  1.
         21   -1    0    0  502  503 -0.00000000000E+00 -0.00000000000E+00 -0.71216886401E+03  0.71216886401E+03  0.00000000000E+00 0. -1.
          6    1    1    2  501    0  0.72534923354E+02  0.11317124273E+03 -0.15478482544E+03  0.26824687784E+03  0.17300000000E+03 0.  1.
         -6    1    1    2    0  503 -0.72534923354E+02 -0.11317124273E+03 -0.47668529216E+03  0.52462073258E+03  0.17300000000E+03 0. -1.
<mgrwt>
<rscale>  2 0.21908456E+03</rscale>
<asrwt>0</asrwt>
<pdfrwt beam="1">  1       21 0.12415192E-01 0.21908456E+03</pdfrwt>
<pdfrwt beam="2">  1       21 0.10956444E+00 0.21908456E+03</pdfrwt>
<totfact> 0.35887512E+04</totfact>
</mgrwt>
</event>
<event>
 4    1  0.3948468E+000  0.1851500E+03  0.7546771E-02  0.1162910E+00
         21   -1    0    0  501  502  0.00000000000E+00  0.00000000000E+00  0.79076206129E+02  0.79076206129E+02  0.00000000000E+00 0.  1.
         21   -1    0    0  502  503 -0.00000000000E+00 -0.00000000000E+00 -0.80488888088E+03  0.80488888088E+03  0.00000000000E+00 0. -1.
          6    1    1    2  501    0 -0.64578839767E+02 -0.13457338739E+02 -0.62683121430E+02  0.19547301661E+03  0.17300000000E+03 0.  1.
         -6    1    1    2    0  503  0.64578839767E+02  0.13457338739E+02 -0.66312955332E+03  0.68849207040E+03  0.17300000000E+03 0. -1.
<mgrwt>
<rscale>  2 0.18515001E+03</rscale>
<asrwt>0</asrwt>
<pdfrwt beam="1">  1       21 0.12165570E-01 0.18515001E+03</pdfrwt>
<pdfrwt beam="2">  1       21 0.12382906E+00 0.18515001E+03</pdfrwt>
<totfact> 0.28089696E+04</totfact>
</mgrwt>
</event>
<event>
 4    1  0.3948468E+000  0.2145439E+03  0.7546771E-02  0.1138017E+00
         21   -1    0    0  501  502  0.00000000000E+00  0.00000000000E+00  0.30840514921E+03  0.30840514921E+03  0.00000000000E+00 0. -1.
         21   -1    0    0  502  503 -0.00000000000E+00 -0.00000000000E+00 -0.16265827187E+03  0.16265827187E+03  0.00000000000E+00 0.  1.
          6    1    1    2  501    0 -0.86550236066E+02 -0.92785529257E+02  0.14049998041E+03  0.25645534172E+03  0.17300000000E+03 0. -1.
         -6    1    1    2    0  503  0.86550236066E+02  0.92785529257E+02  0.52468969295E+01  0.21460807937E+03  0.17300000000E+03 0.  1.
<mgrwt>
<rscale>  2 0.21454393E+03</rscale>
<asrwt>0</asrwt>
<pdfrwt beam="1">  1       21 0.47446946E-01 0.21454393E+03</pdfrwt>
<pdfrwt beam="2">  1       21 0.25024350E-01 0.21454393E+03</pdfrwt>
<totfact> 0.63602902E+04</totfact>
</mgrwt>
</event>
<event>
 4    1  0.3948468E+000  0.1748247E+03  0.7546771E-02  0.1172908E+00
         21   -1    0    0  503  502  0.00000000000E+00  0.00000000000E+00  0.13758642020E+03  0.13758642020E+03  0.00000000000E+00 0. -1.
         21   -1    0    0  501  503 -0.00000000000E+00 -0.00000000000E+00 -0.36213475002E+03  0.36213475002E+03  0.00000000000E+00 0. -1.
          6    1    1    2  501    0  0.12665556374E+02  0.21777346703E+02 -0.26762587083E+03  0.31966744577E+03  0.17300000000E+03 0. -1.
         -6    1    1    2    0  502 -0.12665556374E+02 -0.21777346703E+02  0.43077541014E+02  0.18005372445E+03  0.17300000000E+03 0. -1.
<mgrwt>
<rscale>  2 0.17482468E+03</rscale>
<asrwt>0</asrwt>
<pdfrwt beam="1">  1       21 0.21167142E-01 0.17482468E+03</pdfrwt>
<pdfrwt beam="2">  1       21 0.55713038E-01 0.17482468E+03</pdfrwt>
<totfact> 0.63504628E+04</totfact>
</mgrwt>
</event>
<event>
 4    1  0.3948468E+000  0.2073616E+03  0.7546771E-02  0.1143673E+00
         21   -1    0    0  501  502  0.00000000000E+00  0.00000000000E+00  0.90482050517E+02  0.90482050517E+02  0.00000000000E+00 0.  1.
         21   -1    0    0  502  503 -0.00000000000E+00 -0.00000000000E+00 -0.12589483148E+04  0.12589483148E+04  0.00000000000E+00 0. -1.
          6    1    1    2  501    0  0.67029978428E+02 -0.92611096390E+02 -0.51880452235E+02  0.21375316257E+03  0.17300000000E+03 0.  1.
         -6    1    1    2    0  503 -0.67029978428E+02  0.92611096390E+02 -0.11165858121E+04  0.11356772028E+04  0.17300000000E+03 0. -1.
<mgrwt>
<rscale>  2 0.20736160E+03</rscale>
<asrwt>0</asrwt>
<pdfrwt beam="1">  1       21 0.13920316E-01 0.20736160E+03</pdfrwt>
<pdfrwt beam="2">  1       21 0.19368434E+00 0.20736160E+03</pdfrwt>
<totfact> 0.65438235E+03</totfact>
</mgrwt>
</event>
<event>
 4    1  0.3948468E+000  0.2008113E+03  0.7546771E-02  0.1149056E+00
         21   -1    0    0  501  502  0.00000000000E+00  0.00000000000E+00  0.59043953358E+03  0.59043953358E+03  0.00000000000E+00 0.  1.
         21   -1    0    0  502  503 -0.00000000000E+00 -0.00000000000E+00 -0.80671337587E+02  0.80671337587E+02  0.00000000000E+00 0.  1.
          6    1    1    2  501    0  0.12613144627E+02 -0.10117850660E+03  0.38630596324E+03  0.43538199188E+03  0.17300000000E+03 0.  1.
         -6    1    1    2    0  503 -0.12613144627E+02  0.10117850660E+03  0.12346223275E+03  0.23572887929E+03  0.17300000000E+03 0.  1.
<mgrwt>
<rscale>  2 0.20081131E+03</rscale>
<asrwt>0</asrwt>
<pdfrwt beam="1">  1       21 0.90836849E-01 0.20081131E+03</pdfrwt>
<pdfrwt beam="2">  1       21 0.12410975E-01 0.20081131E+03</pdfrwt>
<totfact> 0.56582468E+04</totfact>
</mgrwt>
</event>
<event>
 4    1  0.3948468E+000  0.1869106E+03  0.7546771E-02  0.1161278E+00
         21   -1    0    0  503  502  0.00000000000E+00  0.00000000000E+00  0.66858946333E+03  0.66858946333E+03  0.00000000000E+00 0.  1.
         21   -1    0    0  501  503 -0.00000000000E+00 -0.00000000000E+00 -0.14486041724E+03  0.14486041724E+03  0.00000000000E+00 0.  1.
          6    1    1    2  501    0  0.21189173884E+02 -0.67509937943E+02 -0.63334804885E+02  0.19734961444E+03  0.17300000000E+03 0.  1.
         -6    1    1    2    0  502 -0.21189173884E+02  0.67509937943E+02  0.58706385097E+03  0.61610026613E+03  0.17300000000E+03 0.  1.
<mgrwt>
<rscale>  2 0.18691060E+03</rscale>
<asrwt>0</asrwt>
<pdfrwt beam="1">  1       21 0.10285992E+00 0.18691060E+03</pdfrwt>
<pdfrwt beam="2">  1       21 0.22286218E-01 0.18691060E+03</pdfrwt>
<totfact> 0.14514456E+04</totfact>
</mgrwt>
</event>
<event>
 4    1  0.3948468E+000  0.1807169E+03  0.7546771E-02  0.1167111E+00
         21   -1    0    0  503  502  0.00000000000E+00  0.00000000000E+00  0.36169515554E+02  0.36169515554E+02  0.00000000000E+00 0.  1.
         21   -1    0    0  501  503 -0.00000000000E+00 -0.00000000000E+00 -0.17787189991E+04  0.17787189991E+04  0.00000000000E+00 0.  1.
          6    1    1    2  501    0  0.48495911918E+02 -0.19435543555E+02 -0.15080199174E+04  0.15188096211E+04  0.17300000000E+03 0.  1.
         -6    1    1    2    0  502 -0.48495911918E+02  0.19435543555E+02 -0.23452956619E+03  0.29607889361E+03  0.17300000000E+03 0.  1.
<mgrwt>
<rscale>  2 0.18071689E+03</rscale>
<asrwt>0</asrwt>
<pdfrwt beam="1">  1       21 0.55645411E-02 0.18071689E+03</pdfrwt>
<pdfrwt beam="2">  1       21 0.27364906E+00 0.18071689E+03</pdfrwt>
<totfact> 0.10993303E+04</totfact>
</mgrwt>
</event>
<event>
 4    1  0.3948468E+000  0.1904815E+03  0.7546771E-02  0.1158028E+00
         21   -1    0    0  503  502  0.00000000000E+00  0.00000000000E+00  0.75881344312E+03  0.75881344312E+03  0.00000000000E+00 0.  1.
         21   -1    0    0  501  503 -0.00000000000E+00 -0.00000000000E+00 -0.61697200574E+02  0.61697200574E+02  0.00000000000E+00 0.  1.
          6    1    1    2  501    0 -0.71176849612E+02  0.35889370361E+02  0.15395947833E+03  0.24492184834E+03  0.17300000000E+03 0.  1.
         -6    1    1    2    0  502  0.71176849612E+02 -0.35889370361E+02  0.54315676422E+03  0.57558879536E+03  0.17300000000E+03 0.  1.
<mgrwt>
<rscale>  2 0.19048147E+03</rscale>
<asrwt>0</asrwt>
<pdfrwt beam="1">  1       21 0.11674052E+00 0.19048147E+03</pdfrwt>
<pdfrwt beam="2">  1       21 0.94918776E-02 0.19048147E+03</pdfrwt>
<totfact> 0.50333661E+04</totfact>
</mgrwt>
</event>
<event>
 4    1  0.3948468E+000  0.1822317E+03  0.7546771E-02  0.1165661E+00
         21   -1    0    0  503  502  0.00000000000E+00  0.00000000000E+00  0.15569373278E+03  0.15569373278E+03  0.00000000000E+00 0.  1.
         21   -1    0    0  501  503 -0.00000000000E+00 -0.00000000000E+00 -0.21852521923E+03  0.21852521923E+03  0.00000000000E+00 0.  1.
          6    1    1    2  501    0  0.35028522734E+02 -0.45303170052E+02 -0.60368524669E+02  0.19197065763E+03  0.17300000000E+03 0.  1.
         -6    1    1    2    0  502 -0.35028522734E+02  0.45303170052E+02 -0.24629617877E+01  0.18224829437E+03  0.17300000000E+03 0.  1.
<mgrwt>
<rscale>  2 0.18223165E+03</rscale>
<asrwt>0</asrwt>
<pdfrwt beam="1">  1       21 0.23952882E-01 0.18223165E+03</pdfrwt>
<pdfrwt beam="2">  1       21 0.33619264E-01 0.18223165E+03</pdfrwt>
<totfact> 0.14052603E+05</totfact>
</mgrwt>
</event>
<event>
 4    1  0.3948468E+000  0.1775916E+03  0.7546771E-02  0.1170154E+00
         21   -1    0    0  503  502  0.00000000000E+00  0.00000000000E+00  0.89836829228E+03  0.89836829228E+03  0.00000000000E+00 0. -1.
         21   -1    0    0  501  503 -0.00000000000E+00 -0.00000000000E+00 -0.50785315567E+02  0.50785315567E+02  0.00000000000E+00 0. -1.
          6    1    1    2  501    0  0.26411905164E+02  0.30202468566E+02  0.68747974951E+03  0.71004731098E+03  0.17300000000E+03 0. -1.
         -6    1    1    2    0  502 -0.26411905164E+02 -0.30202468566E+02  0.16010322721E+03  0.23910629687E+03  0.17300000000E+03 0. -1.
<mgrwt>
<rscale>  2 0.17759160E+03</rscale>
<asrwt>0</asrwt>
<pdfrwt beam="1">  1       21 0.13821049E+00 0.17759160E+03</pdfrwt>
<pdfrwt beam="2">  1       21 0.78131261E-02 0.17759160E+03</pdfrwt>
<totfact> 0.46641073E+04</totfact>
</mgrwt>
</event>
<event>
 4    1  0.3948468E+000  0.2793069E+03  0.7546771E-02  0.1096068E+00
         21   -1    0    0  501  502  0.00000000000E+00  0.00000000000E+00  0.69735606789E+03  0.69735606789E+03  0.00000000000E+00 0. -1.
         21   -1    0    0  502  503 -0.00000000000E+00 -0.00000000000E+00 -0.16376892457E+03  0.16376892457E+03  0.00000000000E+00 0.  1.
          6    1    1    2  501    0 -0.77290993441E+02 -0.20520592133E+03  0.50917802576E+03  0.58075350170E+03  0.17300000000E+03 0. -1.
         -6    1    1    2    0  503  0.77290993441E+02  0.20520592133E+03  0.24409117563E+02  0.28037149077E+03  0.17300000000E+03 0.  1.
<mgrwt>
<rscale>  2 0.27930694E+03</rscale>
<asrwt>0</asrwt>
<pdfrwt beam="1">  1       21 0.10728555E+00 0.27930694E+03</pdfrwt>
<pdfrwt beam="2">  1       21 0.25195220E-01 0.27930694E+03</pdfrwt>
<totfact> 0.98222815E+03</totfact>
</mgrwt>
</event>
<event>
 4    1  0.3948468E+000  0.3914941E+03  0.7546771E-02  0.1046765E+00
         21   -1    0    0  503  502  0.00000000000E+00  0.00000000000E+00  0.19063513890E+03  0.19063513890E+03  0.00000000000E+00 0. -1.
         21   -1    0    0  501  503 -0.00000000000E+00 -0.00000000000E+00 -0.87154218697E+03  0.87154218697E+03  0.00000000000E+00 0.  1.
          6    1    1    2  501    0 -0.22435799194E+03  0.27018898848E+03 -0.48831732818E+03  0.62587651422E+03  0.17300000000E+03 0.  1.
         -6    1    1    2    0  502  0.22435799194E+03 -0.27018898848E+03 -0.19258971989E+03  0.43630081165E+03  0.17300000000E+03 0. -1.
<mgrwt>
<rscale>  2 0.39149406E+03</rscale>
<asrwt>0</asrwt>
<pdfrwt beam="1">  1       21 0.29328482E-01 0.39149406E+03</pdfrwt>
<pdfrwt beam="2">  1       21 0.13408342E+00 0.39149406E+03</pdfrwt>
<totfact> 0.39592457E+03</totfact>
</mgrwt>
</event>
<event>
 4    1  0.3948468E+000  0.2427091E+03  0.7546771E-02  0.1118001E+00
         21   -1    0    0  501  502  0.00000000000E+00  0.00000000000E+00  0.15981959208E+03  0.15981959208E+03  0.00000000000E+00 0.  1.
         21   -1    0    0  502  503 -0.00000000000E+00 -0.00000000000E+00 -0.10256297909E+04  0.10256297909E+04  0.00000000000E+00 0. -1.
          6    1    1    2  501    0  0.15173672109E+03 -0.77166610129E+02  0.41504998535E+02  0.24623237632E+03  0.17300000000E+03 0.  1.
         -6    1    1    2    0  503 -0.15173672109E+03  0.77166610129E+02 -0.90731519737E+03  0.93921700668E+03  0.17300000000E+03 0. -1.
<mgrwt>
<rscale>  2 0.24270912E+03</rscale>
<asrwt>0</asrwt>
<pdfrwt beam="1">  1       21 0.24587630E-01 0.24270912E+03</pdfrwt>
<pdfrwt beam="2">  1       21 0.15778919E+00 0.24270912E+03</pdfrwt>
<totfact> 0.39238322E+03</totfact>
</mgrwt>
</event>
<event>
 4    1  0.3948468E+000  0.2000988E+03  0.7546771E-02  0.1149656E+00
         21   -1    0    0  503  502  0.00000000000E+00  0.00000000000E+00  0.66471421616E+02  0.66471421616E+02  0.00000000000E+00 0.  1.
         21   -1    0    0  501  503 -0.00000000000E+00 -0.00000000000E+00 -0.12305977059E+04  0.12305977059E+04  0.00000000000E+00 0. -1.
          6    1    1    2  501    0 -0.30501390066E+02  0.95813363707E+02 -0.10454439729E+04  0.10644212681E+04  0.17300000000E+03 0. -1.
         -6    1    1    2    0  502  0.30501390066E+02 -0.95813363707E+02 -0.11868231136E+03  0.23264785942E+03  0.17300000000E+03 0.  1.
<mgrwt>
<rscale>  2 0.20009881E+03</rscale>
<asrwt>0</asrwt>
<pdfrwt beam="1">  1       21 0.10226372E-01 0.20009881E+03</pdfrwt>
<pdfrwt beam="2">  1       21 0.18932273E+00 0.20009881E+03</pdfrwt>
<totfact> 0.12218139E+04</totfact>
</mgrwt>
</event>
<event>
 4    1  0.3948468E+000  0.2001785E+03  0.7546771E-02  0.1149588E+00
         21   -1    0    0  501  502  0.00000000000E+00  0.00000000000E+00  0.58548371776E+03  0.58548371776E+03  0.00000000000E+00 0.  1.
         21   -1    0    0  502  503 -0.00000000000E+00 -0.00000000000E+00 -0.31799217174E+03  0.31799217174E+03  0.00000000000E+00 0.  1.
          6    1    1    2  501    0  0.92499182897E+02 -0.39828986605E+02  0.53392785103E+03  0.57021960429E+03  0.17300000000E+03 0.  1.
         -6    1    1    2    0  503 -0.92499182897E+02  0.39828986605E+02 -0.26643630501E+03  0.33325628522E+03  0.17300000000E+03 0.  1.
<mgrwt>
<rscale>  2 0.20017854E+03</rscale>
<asrwt>0</asrwt>
<pdfrwt beam="1">  1       21 0.90074418E-01 0.20017854E+03</pdfrwt>
<pdfrwt beam="2">  1       21 0.48921873E-01 0.20017854E+03</pdfrwt>
<totfact> 0.41555958E+03</totfact>
</mgrwt>
</event>
<event>
 4    1  0.3948468E+000  0.2406972E+03  0.7546771E-02  0.1119329E+00
         21   -1    0    0  501  502  0.00000000000E+00  0.00000000000E+00  0.77572582036E+03  0.77572582036E+03  0.00000000000E+00 0. -1.
         21   -1    0    0  502  503 -0.00000000000E+00 -0.00000000000E+00 -0.80723707144E+02  0.80723707144E+02  0.00000000000E+00 0. -1.
          6    1    1    2  501    0  0.14299068358E+03  0.86947275650E+02  0.46462331507E+03  0.52326856321E+03  0.17300000000E+03 0. -1.
         -6    1    1    2    0  503 -0.14299068358E+03 -0.86947275650E+02  0.23037879814E+03  0.33318096429E+03  0.17300000000E+03 0. -1.
<mgrwt>
<rscale>  2 0.24069725E+03</rscale>
<asrwt>0</asrwt>
<pdfrwt beam="1">  1       21 0.11934243E+00 0.24069725E+03</pdfrwt>
<pdfrwt beam="2">  1       21 0.12419032E-01 0.24069725E+03</pdfrwt>
<totfact> 0.28768639E+04</totfact>
</mgrwt>
</event>
<event>
 4    1  0.3948468E+000  0.1871186E+03  0.7546771E-02  0.1161086E+00
         21   -1    0    0  501  502  0.00000000000E+00  0.00000000000E+00  0.20208981318E+03  0.20208981318E+03  0.00000000000E+00 0. -1.
         21   -1    0    0  502  503 -0.00000000000E+00 -0.00000000000E+00 -0.21380543574E+03  0.21380543574E+03  0.00000000000E+00 0.  1.
          6    1    1    2  501    0 -0.67222652757E+02 -0.23779940188E+02  0.84701769821E+02  0.20539659298E+03  0.17300000000E+03 0. -1.
         -6    1    1    2    0  503  0.67222652757E+02  0.23779940188E+02 -0.96417392383E+02  0.21049865594E+03  0.17300000000E+03 0.  1.
<mgrwt>
<rscale>  2 0.18711860E+03</rscale>
<asrwt>0</asrwt>
<pdfrwt beam="1">  1       21 0.31090740E-01 0.18711860E+03</pdfrwt>
<pdfrwt beam="2">  1       21 0.32893144E-01 0.18711860E+03</pdfrwt>
<totfact> 0.88615201E+04</totfact>
</mgrwt>
</event>
<event>
 4    1  0.3948468E+000  0.2199652E+03  0.7546771E-02  0.1133909E+00
         21   -1    0    0  503  502  0.00000000000E+00  0.00000000000E+00  0.91832657538E+02  0.91832657538E+02  0.00000000000E+00 0.  1.
         21   -1    0    0  501  503 -0.00000000000E+00 -0.00000000000E+00 -0.53047347223E+03  0.53047347223E+03  0.00000000000E+00 0.  1.
          6    1    1    2  501    0  0.10196589448E+03 -0.89769956243E+02 -0.19370705335E+03  0.29309914909E+03  0.17300000000E+03 0.  1.
         -6    1    1    2    0  502 -0.10196589448E+03  0.89769956243E+02 -0.24493376134E+03  0.32920698067E+03  0.17300000000E+03 0.  1.
<mgrwt>
<rscale>  2 0.21996520E+03</rscale>
<asrwt>0</asrwt>
<pdfrwt beam="1">  1       21 0.14128101E-01 0.21996520E+03</pdfrwt>
<pdfrwt beam="2">  1       21 0.81611302E-01 0.21996520E+03</pdfrwt>
<totfact> 0.56760982E+04</totfact>
</mgrwt>
</event>
<event>
 4    1  0.3948468E+000  0.1733059E+03  0.7546771E-02  0.1174444E+00
         21   -1    0    0  503  502  0.00000000000E+00  0.00000000000E+00  0.51742318780E+03  0.51742318780E+03  0.00000000000E+00 0.  1.
         21   -1    0    0  501  503 -0.00000000000E+00 -0.00000000000E+00 -0.72257888199E+02  0.72257888199E+02  0.00000000000E+00 0.  1.
          6    1    1    2  501    0  0.36118048359E+01  0.96374981708E+01  0.91829150162E+02  0.19613138281E+03  0.17300000000E+03 0.  1.
         -6    1    1    2    0  502 -0.36118048359E+01 -0.96374981708E+01  0.35333614944E+03  0.39354969319E+03  0.17300000000E+03 0.  1.
<mgrwt>
<rscale>  2 0.17330588E+03</rscale>
<asrwt>0</asrwt>
<pdfrwt beam="1">  1       21 0.79603565E-01 0.17330588E+03</pdfrwt>
<pdfrwt beam="2">  1       21 0.11116599E-01 0.17330588E+03</pdfrwt>
<totfact> 0.94289724E+04</totfact>
</mgrwt>
</event>
<event>
 4    1  0.3948468E+000  0.4287646E+03  0.7546771E-02  0.1034251E+00
         21   -1    0    0  503  502  0.00000000000E+00  0.00000000000E+00  0.79118291710E+03  0.79118291710E+03  0.00000000000E+00 0. -1.
         21   -1    0    0  501  503 -0.00000000000E+00 -0.00000000000E+00 -0.23524587241E+03  0.23524587241E+03  0.00000000000E+00 0. -1.
          6    1    1    2  501    0 -0.38076467798E+03 -0.94490094782E+02  0.33481324324E+03  0.54400278111E+03  0.17300000000E+03 0. -1.
         -6    1    1    2    0  502  0.38076467798E+03  0.94490094782E+02  0.22112380146E+03  0.48242600840E+03  0.17300000000E+03 0. -1.
<mgrwt>
<rscale>  2 0.42876464E+03</rscale>
<asrwt>0</asrwt>
<pdfrwt beam="1">  1       21 0.12172045E+00 0.42876464E+03</pdfrwt>
<pdfrwt beam="2">  1       21 0.36191673E-01 0.42876464E+03</pdfrwt>
<totfact> 0.32854251E+03</totfact>
</mgrwt>
</event>
<event>
 4    1  0.3948468E+000  0.2697243E+03  0.7546771E-02  0.1101438E+00
         21   -1    0    0  503  502  0.00000000000E+00  0.00000000000E+00  0.14820800325E+03  0.14820800325E+03  0.00000000000E+00 0.  1.
         21   -1    0    0  501  503 -0.00000000000E+00 -0.00000000000E+00 -0.70653413338E+03  0.70653413338E+03  0.00000000000E+00 0. -1.
          6    1    1    2  501    0  0.15470732897E+03 -0.13743294548E+03 -0.43047072536E+02  0.27313773557E+03  0.17300000000E+03 0.  1.
         -6    1    1    2    0  502 -0.15470732897E+03  0.13743294548E+03 -0.51527905759E+03  0.58160440106E+03  0.17300000000E+03 0. -1.
<mgrwt>
<rscale>  2 0.26972425E+03</rscale>
<asrwt>0</asrwt>
<pdfrwt beam="1">  1       21 0.22801231E-01 0.26972425E+03</pdfrwt>
<pdfrwt beam="2">  1       21 0.10869756E+00 0.26972425E+03</pdfrwt>
<totfact> 0.11577321E+04</totfact>
</mgrwt>
</event>
<event>
 4    1  0.3948468E+000  0.1872363E+03  0.7546771E-02  0.1160978E+00
         21   -1    0    0  503  502  0.00000000000E+00  0.00000000000E+00  0.68429566284E+02  0.68429566284E+02  0.00000000000E+00 0.  1.
         21   -1    0    0  501  503 -0.00000000000E+00 -0.00000000000E+00 -0.93052592442E+03  0.93052592442E+03  0.00000000000E+00 0.  1.
          6    1    1    2  501    0  0.57394475362E+02  0.42828962318E+02 -0.76589790718E+03  0.78845231310E+03  0.17300000000E+03 0.  1.
         -6    1    1    2    0  502 -0.57394475362E+02 -0.42828962318E+02 -0.96198450964E+02  0.21050317761E+03  0.17300000000E+03 0.  1.
<mgrwt>
<rscale>  2 0.18723634E+03</rscale>
<asrwt>0</asrwt>
<pdfrwt beam="1">  1       21 0.10527625E-01 0.18723634E+03</pdfrwt>
<pdfrwt beam="2">  1       21 0.14315784E+00 0.18723634E+03</pdfrwt>
<totfact> 0.25107197E+04</totfact>
</mgrwt>
</event>
<event>
 4    1  0.3948468E+000  0.2983704E+03  0.7546771E-02  0.1086058E+00
         21   -1    0    0  503  502  0.00000000000E+00  0.00000000000E+00  0.34543249990E+03  0.34543249990E+03  0.00000000000E+00 0.  1.
         21   -1    0    0  501  503 -0.00000000000E+00 -0.00000000000E+00 -0.55098888757E+03  0.55098888757E+03  0.00000000000E+00 0. -1.
          6    1    1    2  501    0  0.80466541969E+02 -0.22939271076E+03 -0.42977518390E+03  0.52319364371E+03  0.17300000000E+03 0. -1.
         -6    1    1    2    0  502 -0.80466541969E+02  0.22939271076E+03  0.22421879623E+03  0.37322774376E+03  0.17300000000E+03 0.  1.
<mgrwt>
<rscale>  2 0.29837037E+03</rscale>
<asrwt>0</asrwt>
<pdfrwt beam="1">  1       21 0.53143462E-01 0.29837037E+03</pdfrwt>
<pdfrwt beam="2">  1       21 0.84767521E-01 0.29837037E+03</pdfrwt>
<totfact> 0.37683641E+03</totfact>
</mgrwt>
</event>
<event>
 4    1  0.3948468E+000  0.2573062E+03  0.7546771E-02  0.1108773E+00
         21   -1    0    0  501  502  0.00000000000E+00  0.00000000000E+00  0.86670028468E+02  0.86670028468E+02  0.00000000000E+00 0.  1.
         21   -1    0    0  502  503 -0.00000000000E+00 -0.00000000000E+00 -0.83344854340E+03  0.83344854340E+03  0.00000000000E+00 0. -1.
          6    1    1    2  501    0  0.17054465446E+03 -0.84805561190E+02 -0.24048274961E+03  0.35219087898E+03  0.17300000000E+03 0. -1.
         -6    1    1    2    0  503 -0.17054465446E+03  0.84805561190E+02 -0.50629576532E+03  0.56792769289E+03  0.17300000000E+03 0.  1.
<mgrwt>
<rscale>  2 0.25730616E+03</rscale>
<asrwt>0</asrwt>
<pdfrwt beam="1">  1       21 0.13333850E-01 0.25730616E+03</pdfrwt>
<pdfrwt beam="2">  1       21 0.12822286E+00 0.25730616E+03</pdfrwt>
<totfact> 0.20940597E+04</totfact>
</mgrwt>
</event>
<event>
 4    1  0.3948468E+000  0.3479155E+03  0.7546771E-02  0.1063474E+00
         21   -1    0    0  503  502  0.00000000000E+00  0.00000000000E+00  0.13175549056E+04  0.13175549056E+04  0.00000000000E+00 0.  1.
         21   -1    0    0  501  503 -0.00000000000E+00 -0.00000000000E+00 -0.20621096611E+03  0.20621096611E+03  0.00000000000E+00 0. -1.
          6    1    1    2  501    0 -0.26446251921E+03  0.14551895031E+03 -0.11652153167E+02  0.34811055951E+03  0.17300000000E+03 0. -1.
         -6    1    1    2    0  502  0.26446251921E+03 -0.14551895031E+03  0.11229960927E+04  0.11756553122E+04  0.17300000000E+03 0.  1.
<mgrwt>
<rscale>  2 0.34791549E+03</rscale>
<asrwt>0</asrwt>
<pdfrwt beam="1">  1       21 0.20270075E+00 0.34791549E+03</pdfrwt>
<pdfrwt beam="2">  1       21 0.31724765E-01 0.34791549E+03</pdfrwt>
<totfact> 0.10851273E+03</totfact>
</mgrwt>
</event>
<event>
 4    1  0.3948468E+000  0.2015275E+03  0.7546771E-02  0.1148457E+00
         21   -1    0    0  503  502  0.00000000000E+00  0.00000000000E+00  0.68754664404E+03  0.68754664404E+03  0.00000000000E+00 0.  1.
         21   -1    0    0  501  503 -0.00000000000E+00 -0.00000000000E+00 -0.69200679603E+02  0.69200679603E+02  0.00000000000E+00 0.  1.
          6    1    1    2  501    0  0.48229640178E+02 -0.91423422327E+02  0.16440042257E+03  0.26007852523E+03  0.17300000000E+03 0. -1.
         -6    1    1    2    0  502 -0.48229640178E+02  0.91423422327E+02  0.45394554187E+03  0.49666879842E+03  0.17300000000E+03 0. -1.
<mgrwt>
<rscale>  2 0.20152752E+03</rscale>
<asrwt>0</asrwt>
<pdfrwt beam="1">  1       21 0.10577640E+00 0.20152752E+03</pdfrwt>
<pdfrwt beam="2">  1       21 0.10646259E-01 0.20152752E+03</pdfrwt>
<totfact> 0.51895612E+04</totfact>
</mgrwt>
</event>
<event>
 4    1  0.3948468E+000  0.1791469E+03  0.7546771E-02  0.1168631E+00
         21   -1    0    0  501  502  0.00000000000E+00  0.00000000000E+00  0.32135370952E+03  0.32135370952E+03  0.00000000000E+00 0.  1.
         21   -1    0    0  502  503 -0.00000000000E+00 -0.00000000000E+00 -0.60818057682E+03  0.60818057682E+03  0.00000000000E+00 0.  1.
          6    1    1    2  501    0  0.42147576320E+02 -0.19702339942E+02  0.28148361148E+03  0.33365644594E+03  0.17300000000E+03 0.  1.
         -6    1    1    2    0  503 -0.42147576320E+02  0.19702339942E+02 -0.56831047878E+03  0.59587784040E+03  0.17300000000E+03 0.  1.
<mgrwt>
<rscale>  2 0.17914687E+03</rscale>
<asrwt>0</asrwt>
<pdfrwt beam="1">  1       21 0.49439033E-01 0.17914687E+03</pdfrwt>
<pdfrwt beam="2">  1       21 0.93566241E-01 0.17914687E+03</pdfrwt>
<totfact> 0.37873306E+03</totfact>
</mgrwt>
</event>
<event>
 4    1  0.3948468E+000  0.2535968E+03  0.7546771E-02  0.1111053E+00
         21   -1    0    0  501  502  0.00000000000E+00  0.00000000000E+00  0.20471144535E+03  0.20471144535E+03  0.00000000000E+00 0. -1.
         21   -1    0    0  502  503 -0.00000000000E+00 -0.00000000000E+00 -0.31415743040E+03  0.31415743040E+03  0.00000000000E+00 0. -1.
          6    1    1    2  501    0  0.17028985061E+03 -0.73373787113E+02 -0.55260236059E+02  0.25954775966E+03  0.17300000000E+03 0. -1.
         -6    1    1    2    0  503 -0.17028985061E+03  0.73373787113E+02 -0.54185748993E+02  0.25932111609E+03  0.17300000000E+03 0. -1.
<mgrwt>
<rscale>  2 0.25359682E+03</rscale>
<asrwt>0</asrwt>
<pdfrwt beam="1">  1       21 0.31494068E-01 0.25359682E+03</pdfrwt>
<pdfrwt beam="2">  1       21 0.48331912E-01 0.25359682E+03</pdfrwt>
<totfact> 0.38507734E+04</totfact>
</mgrwt>
</event>
<event>
 4    1  0.3948468E+000  0.3853050E+03  0.7546771E-02  0.1048990E+00
         21   -1    0    0  503  502  0.00000000000E+00  0.00000000000E+00  0.64506011692E+02  0.64506011692E+02  0.00000000000E+00 0.  1.
         21   -1    0    0  501  503 -0.00000000000E+00 -0.00000000000E+00 -0.27806975688E+04  0.27806975688E+04  0.00000000000E+00 0.  1.
          6    1    1    2  501    0 -0.63426839817E+01 -0.34422477145E+03 -0.19486617684E+04  0.19863893401E+04  0.17300000000E+03 0.  1.
         -6    1    1    2    0  502  0.63426839817E+01  0.34422477145E+03 -0.76752978875E+03  0.85881424041E+03  0.17300000000E+03 0.  1.
<mgrwt>
<rscale>  2 0.38530497E+03</rscale>
<asrwt>0</asrwt>
<pdfrwt beam="1">  1       21 0.99240004E-02 0.38530497E+03</pdfrwt>
<pdfrwt beam="2">  1       21 0.42779969E+00 0.38530497E+03</pdfrwt>
<totfact> 0.38455635E+02</totfact>
</mgrwt>
</event>
<event>
 4    1  0.3948468E+000  0.1955600E+03  0.7546771E-02  0.1153540E+00
         21   -1    0    0  503  502  0.00000000000E+00  0.00000000000E+00  0.28039794346E+04  0.28039794346E+04  0.00000000000E+00 0. -1.
         21   -1    0    0  501  503 -0.00000000000E+00 -0.00000000000E+00 -0.16066485119E+02  0.16066485119E+02  0.00000000000E+00 0. -1.
          6    1    1    2  501    0  0.46249061229E+02 -0.78585882829E+02  0.84588608221E+03  0.86819754706E+03  0.17300000000E+03 0. -1.
         -6    1    1    2    0  502 -0.46249061229E+02  0.78585882829E+02  0.19420268672E+04  0.19518483726E+04  0.17300000000E+03 0. -1.
<mgrwt>
<rscale>  2 0.19556001E+03</rscale>
<asrwt>0</asrwt>
<pdfrwt beam="1">  1       21 0.43138106E+00 0.19556001E+03</pdfrwt>
<pdfrwt beam="2">  1       21 0.24717692E-02 0.19556001E+03</pdfrwt>
<totfact> 0.47769773E+03</totfact>
</mgrwt>
</event>
<event>
 4    1  0.3948468E+000  0.2022097E+03  0.7546771E-02  0.1147888E+00
         21   -1    0    0  501  502  0.00000000000E+00  0.00000000000E+00  0.47577471227E+03  0.47577471227E+03  0.00000000000E+00 0. -1.
         21   -1    0    0  502  503 -0.00000000000E+00 -0.00000000000E+00 -0.86264627307E+02  0.86264627307E+02  0.00000000000E+00 0. -1.
          6    1    1    2  501    0  0.39157683196E+02 -0.97089924844E+02  0.21195502648E+03  0.29293977352E+03  0.17300000000E+03 0. -1.
         -6    1    1    2    0  503 -0.39157683196E+02  0.97089924844E+02  0.17755505849E+03  0.26909956606E+03  0.17300000000E+03 0. -1.
<mgrwt>
<rscale>  2 0.20220974E+03</rscale>
<asrwt>0</asrwt>
<pdfrwt beam="1">  1       21 0.73196108E-01 0.20220974E+03</pdfrwt>
<pdfrwt beam="2">  1       21 0.13271481E-01 0.20220974E+03</pdfrwt>
<totfact> 0.81858416E+04</totfact>
</mgrwt>
</event>
<event>
 4    1  0.3948468E+000  0.2196566E+03  0.7546771E-02  0.1134139E+00
         21   -1    0    0  501  502  0.00000000000E+00  0.00000000000E+00  0.79276194563E+03  0.79276194563E+03  0.00000000000E+00 0.  1.
         21   -1    0    0  502  503 -0.00000000000E+00 -0.00000000000E+00 -0.63716445780E+02  0.63716445780E+02  0.00000000000E+00 0.  1.
          6    1    1    2  501    0 -0.11336349800E+03  0.73951072378E+02  0.27388173049E+03  0.35108438598E+03  0.17300000000E+03 0.  1.
         -6    1    1    2    0  503  0.11336349800E+03 -0.73951072378E+02  0.45516376936E+03  0.50539400542E+03  0.17300000000E+03 0.  1.
<mgrwt>
<rscale>  2 0.21965665E+03</rscale>
<asrwt>0</asrwt>
<pdfrwt beam="1">  1       21 0.12196337E+00 0.21965665E+03</pdfrwt>
<pdfrwt beam="2">  1       21 0.98025307E-02 0.21965665E+03</pdfrwt>
<totfact> 0.42019245E+04</totfact>
</mgrwt>
</event>
<event>
 4    1  0.3948468E+000  0.2011036E+03  0.7546771E-02  0.1148811E+00
         21   -1    0    0  503  502  0.00000000000E+00  0.00000000000E+00  0.32148684991E+03  0.32148684991E+03  0.00000000000E+00 0. -1.
         21   -1    0    0  501  503 -0.00000000000E+00 -0.00000000000E+00 -0.28588443517E+03  0.28588443517E+03  0.00000000000E+00 0.  1.
          6    1    1    2  501    0 -0.63406678673E+02 -0.80580693360E+02 -0.20944948075E+03  0.29036483952E+03  0.17300000000E+03 0.  1.
         -6    1    1    2    0  502  0.63406678673E+02  0.80580693360E+02  0.24505189549E+03  0.31700644556E+03  0.17300000000E+03 0. -1.
<mgrwt>
<rscale>  2 0.20110359E+03</rscale>
<asrwt>0</asrwt>
<pdfrwt beam="1">  1       21 0.49459515E-01 0.20110359E+03</pdfrwt>
<pdfrwt beam="2">  1       21 0.43982221E-01 0.20110359E+03</pdfrwt>
<totfact> 0.19257761E+04</totfact>
</mgrwt>
</event>
<event>
 4    1  0.3948468E+000  0.2093429E+03  0.7546771E-02  0.1142087E+00
         21   -1    0    0  503  502  0.00000000000E+00  0.00000000000E+00  0.17100133068E+03  0.17100133068E+03  0.00000000000E+00 0. -1.
         21   -1    0    0  501  503 -0.00000000000E+00 -0.00000000000E+00 -0.37219819903E+03  0.37219819903E+03  0.00000000000E+00 0.  1.
          6    1    1    2  501    0 -0.56304481175E+01  0.11774448524E+03 -0.25216917997E+03  0.32774038670E+03  0.17300000000E+03 0.  1.
         -6    1    1    2    0  502  0.56304481175E+01 -0.11774448524E+03  0.50972311623E+02  0.21545914300E+03  0.17300000000E+03 0.  1.
<mgrwt>
<rscale>  2 0.20934294E+03</rscale>
<asrwt>0</asrwt>
<pdfrwt beam="1">  1       21 0.26307897E-01 0.20934294E+03</pdfrwt>
<pdfrwt beam="2">  1       21 0.57261261E-01 0.20934294E+03</pdfrwt>
<totfact> 0.39002482E+04</totfact>
</mgrwt>
</event>
<event>
 4    1  0.3948468E+000  0.1818473E+03  0.7546771E-02  0.1166027E+00
         21   -1    0    0  501  502  0.00000000000E+00  0.00000000000E+00  0.14177835937E+03  0.14177835937E+03  0.00000000000E+00 0.  1.
         21   -1    0    0  502  503 -0.00000000000E+00 -0.00000000000E+00 -0.34513110546E+03  0.34513110546E+03  0.00000000000E+00 0.  1.
          6    1    1    2  501    0  0.20691439266E+02  0.52070070214E+02  0.36942817642E+02  0.18556184857E+03  0.17300000000E+03 0.  1.
         -6    1    1    2    0  503 -0.20691439266E+02 -0.52070070214E+02 -0.24029556373E+03  0.30134761625E+03  0.17300000000E+03 0.  1.
<mgrwt>
<rscale>  2 0.18184727E+03</rscale>
<asrwt>0</asrwt>
<pdfrwt beam="1">  1       21 0.21812056E-01 0.18184727E+03</pdfrwt>
<pdfrwt beam="2">  1       21 0.53097092E-01 0.18184727E+03</pdfrwt>
<totfact> 0.66219390E+04</totfact>
</mgrwt>
</event>
<event>
 4    1  0.3948468E+000  0.2369587E+03  0.7546771E-02  0.1121836E+00
         21   -1    0    0  503  502  0.00000000000E+00  0.00000000000E+00  0.14052160122E+03  0.14052160122E+03  0.00000000000E+00 0. -1.
         21   -1    0    0  501  503 -0.00000000000E+00 -0.00000000000E+00 -0.51934361915E+03  0.51934361915E+03  0.00000000000E+00 0. -1.
          6    1    1    2  501    0  0.35939466287E+02 -0.15788849719E+03 -0.34785028945E+03  0.42089101517E+03  0.17300000000E+03 0. -1.
         -6    1    1    2    0  502 -0.35939466287E+02  0.15788849719E+03 -0.30971728483E+02  0.23897420519E+03  0.17300000000E+03 0. -1.
<mgrwt>
<rscale>  2 0.23695869E+03</rscale>
<asrwt>0</asrwt>
<pdfrwt beam="1">  1       21 0.21618708E-01 0.23695869E+03</pdfrwt>
<pdfrwt beam="2">  1       21 0.79899018E-01 0.23695869E+03</pdfrwt>
<totfact> 0.26869546E+04</totfact>
</mgrwt>
</event>
<event>
 4    1  0.3948468E+000  0.1808834E+03  0.7546771E-02  0.1166951E+00
         21   -1    0    0  503  502  0.00000000000E+00  0.00000000000E+00  0.21020703033E+04  0.21020703033E+04  0.00000000000E+00 0. -1.
         21   -1    0    0  501  503 -0.00000000000E+00 -0.00000000000E+00 -0.29252256429E+02  0.29252256429E+02  0.00000000000E+00 0. -1.
          6    1    1    2  501    0  0.34436527030E+02 -0.40049317924E+02  0.30746032867E+03  0.35672212711E+03  0.17300000000E+03 0. -1.
         -6    1    1    2    0  502 -0.34436527030E+02  0.40049317924E+02  0.17653577182E+04  0.17746004326E+04  0.17300000000E+03 0. -1.
<mgrwt>
<rscale>  2 0.18088345E+03</rscale>
<asrwt>0</asrwt>
<pdfrwt beam="1">  1       21 0.32339531E+00 0.18088345E+03</pdfrwt>
<pdfrwt beam="2">  1       21 0.45003488E-02 0.18088345E+03</pdfrwt>
<totfact> 0.81537005E+03</totfact>
</mgrwt>
</event>
<event>
 4    1  0.3948468E+000  0.3283643E+03  0.7546771E-02  0.1071863E+00
         21   -1    0    0  503  502  0.00000000000E+00  0.00000000000E+00  0.10129787640E+04  0.10129787640E+04  0.00000000000E+00 0.  1.
         21   -1    0    0  501  503 -0.00000000000E+00 -0.00000000000E+00 -0.11421035405E+03  0.11421035405E+03  0.00000000000E+00 0. -1.
          6    1    1    2  501    0  0.27870598694E+03  0.14734151628E+02  0.30239393725E+03  0.44639132570E+03  0.17300000000E+03 0. -1.
         -6    1    1    2    0  502 -0.27870598694E+03 -0.14734151628E+02  0.59637447271E+03  0.68079779236E+03  0.17300000000E+03 0.  1.
<mgrwt>
<rscale>  2 0.32836431E+03</rscale>
<asrwt>0</asrwt>
<pdfrwt beam="1">  1       21 0.15584288E+00 0.32836431E+03</pdfrwt>
<pdfrwt beam="2">  1       21 0.17570824E-01 0.32836431E+03</pdfrwt>
<totfact> 0.72896952E+03</totfact>
</mgrwt>
</event>
<event>
 4    1  0.3948468E+000  0.2092441E+03  0.7546771E-02  0.1142166E+00
         21   -1    0    0  503  502  0.00000000000E+00  0.00000000000E+00  0.57310907697E+03  0.57310907697E+03  0.00000000000E+00 0. -1.
         21   -1    0    0  501  503 -0.00000000000E+00 -0.00000000000E+00 -0.76868868517E+02  0.76868868517E+02  0.00000000000E+00 0. -1.
          6    1    1    2  501    0 -0.86543587345E+02  0.79776655085E+02  0.27361603045E+03  0.34445440820E+03  0.17300000000E+03 0. -1.
         -6    1    1    2    0  502  0.86543587345E+02 -0.79776655085E+02  0.22262417800E+03  0.30552353729E+03  0.17300000000E+03 0. -1.
<mgrwt>
<rscale>  2 0.20924413E+03</rscale>
<asrwt>0</asrwt>
<pdfrwt beam="1">  1       21 0.88170625E-01 0.20924413E+03</pdfrwt>
<pdfrwt beam="2">  1       21 0.11825980E-01 0.20924413E+03</pdfrwt>
<totfact> 0.65841723E+04</totfact>
</mgrwt>
</event>
<event>
 4    1  0.3948468E+000  0.2091248E+03  0.7546771E-02  0.1142261E+00
         21   -1    0    0  501  502  0.00000000000E+00  0.00000000000E+00  0.17922231114E+03  0.17922231114E+03  0.00000000000E+00 0.  1.
         21   -1    0    0  502  503 -0.00000000000E+00 -0.00000000000E+00 -0.28560439428E+03  0.28560439428E+03  0.00000000000E+00 0.  1.
          6    1    1    2  501    0 -0.10526255349E+03  0.52191893803E+02  0.35496407038E+02  0.21211599152E+03  0.17300000000E+03 0.  1.
         -6    1    1    2    0  503  0.10526255349E+03 -0.52191893803E+02 -0.14187849018E+03  0.25271071390E+03  0.17300000000E+03 0.  1.
<mgrwt>
<rscale>  2 0.20912484E+03</rscale>
<asrwt>0</asrwt>
<pdfrwt beam="1">  1       21 0.27572663E-01 0.20912484E+03</pdfrwt>
<pdfrwt beam="2">  1       21 0.43939137E-01 0.20912484E+03</pdfrwt>
<totfact> 0.61986864E+04</totfact>
</mgrwt>
</event>
<event>
 4    1  0.3948468E+000  0.2264886E+03  0.7546771E-02  0.1129136E+00
         21   -1    0    0  503  502  0.00000000000E+00  0.00000000000E+00  0.21998587915E+03  0.21998587915E+03  0.00000000000E+00 0. -1.
         21   -1    0    0  501  503 -0.00000000000E+00 -0.00000000000E+00 -0.24055003266E+03  0.24055003266E+03  0.00000000000E+00 0.  1.
          6    1    1    2  501    0  0.14418716343E+03 -0.24044493799E+02 -0.50578133737E+02  0.23206728204E+03  0.17300000000E+03 0. -1.
         -6    1    1    2    0  502 -0.14418716343E+03  0.24044493799E+02  0.30013980234E+02  0.22846862977E+03  0.17300000000E+03 0.  1.
<mgrwt>
<rscale>  2 0.22648858E+03</rscale>
<asrwt>0</asrwt>
<pdfrwt beam="1">  1       21 0.33843981E-01 0.22648858E+03</pdfrwt>
<pdfrwt beam="2">  1       21 0.37007697E-01 0.22648858E+03</pdfrwt>
<totfact> 0.58335623E+04</totfact>
</mgrwt>
</event>
<event>
 4    1  0.3948468E+000  0.2031019E+03  0.7546771E-02  0.1147148E+00
         21   -1    0    0  501  502  0.00000000000E+00  0.00000000000E+00  0.53845424211E+02  0.53845424211E+02  0.00000000000E+00 0.  1.
         21   -1    0    0  502  503 -0.00000000000E+00 -0.00000000000E+00 -0.86465658130E+03  0.86465658130E+03  0.00000000000E+00 0.  1.
          6    1    1    2  501    0  0.99202618689E+02  0.38473841494E+02 -0.56046386329E+03  0.59612929645E+03  0.17300000000E+03 0.  1.
         -6    1    1    2    0  503 -0.99202618689E+02 -0.38473841494E+02 -0.25034729380E+03  0.32237270906E+03  0.17300000000E+03 0.  1.
<mgrwt>
<rscale>  2 0.20310194E+03</rscale>
<asrwt>0</asrwt>
<pdfrwt beam="1">  1       21 0.82839120E-02 0.20310194E+03</pdfrwt>
<pdfrwt beam="2">  1       21 0.13302408E+00 0.20310194E+03</pdfrwt>
<totfact> 0.45787779E+04</totfact>
</mgrwt>
</event>
<event>
 4    1  0.3948468E+000  0.2274282E+03  0.7546771E-02  0.1128463E+00
         21   -1    0    0  503  502  0.00000000000E+00  0.00000000000E+00  0.67257828629E+02  0.67257828629E+02  0.00000000000E+00 0.  1.
         21   -1    0    0  501  503 -0.00000000000E+00 -0.00000000000E+00 -0.81885676982E+03  0.81885676982E+03  0.00000000000E+00 0. -1.
          6    1    1    2  501    0  0.95437329656E+02 -0.11263344874E+03 -0.48508647386E+03  0.53575410851E+03  0.17300000000E+03 0. -1.
         -6    1    1    2    0  502 -0.95437329656E+02  0.11263344874E+03 -0.26651246734E+03  0.35036048994E+03  0.17300000000E+03 0.  1.
<mgrwt>
<rscale>  2 0.22742818E+03</rscale>
<asrwt>0</asrwt>
<pdfrwt beam="1">  1       21 0.10347358E-01 0.22742818E+03</pdfrwt>
<pdfrwt beam="2">  1       21 0.12597797E+00 0.22742818E+03</pdfrwt>
<totfact> 0.35053967E+04</totfact>
</mgrwt>
</event>
<event>
 4    1  0.3948468E+000  0.2039907E+03  0.7546771E-02  0.1146415E+00
         21   -1    0    0  501  502  0.00000000000E+00  0.00000000000E+00  0.31944690606E+03  0.31944690606E+03  0.00000000000E+00 0. -1.
         21   -1    0    0  502  503 -0.00000000000E+00 -0.00000000000E+00 -0.14562530549E+03  0.14562530549E+03  0.00000000000E+00 0. -1.
          6    1    1    2  501    0 -0.91200544043E+02  0.58014281188E+02  0.11384803807E+02  0.20430812469E+03  0.17300000000E+03 0. -1.
         -6    1    1    2    0  503  0.91200544043E+02 -0.58014281188E+02  0.16243679677E+03  0.26076408687E+03  0.17300000000E+03 0. -1.
<mgrwt>
<rscale>  2 0.20399068E+03</rscale>
<asrwt>0</asrwt>
<pdfrwt beam="1">  1       21 0.49145678E-01 0.20399068E+03</pdfrwt>
<pdfrwt beam="2">  1       21 0.22403893E-01 0.20399068E+03</pdfrwt>
<totfact> 0.73300129E+04</totfact>
</mgrwt>
</event>
<event>
 4    1  0.3948468E+000  0.1990819E+03  0.7546771E-02  0.1150516E+00
         21   -1    0    0  501  502  0.00000000000E+00  0.00000000000E+00  0.40635001970E+03  0.40635001970E+03  0.00000000000E+00 0.  1.
         21   -1    0    0  502  503 -0.00000000000E+00 -0.00000000000E+00 -0.19741205069E+03  0.19741205069E+03  0.00000000000E+00 0.  1.
          6    1    1    2  501    0  0.91039120099E+02 -0.37636407572E+02 -0.11025492374E+03  0.22757365571E+03  0.17300000000E+03 0.  1.
         -6    1    1    2    0  503 -0.91039120099E+02  0.37636407572E+02  0.31919289275E+03  0.37618841469E+03  0.17300000000E+03 0.  1.
<mgrwt>
<rscale>  2 0.19908194E+03</rscale>
<asrwt>0</asrwt>
<pdfrwt beam="1">  1       21 0.62515387E-01 0.19908194E+03</pdfrwt>
<pdfrwt beam="2">  1       21 0.30371085E-01 0.19908194E+03</pdfrwt>
<totfact> 0.24583643E+04</totfact>
</mgrwt>
</event>
<event>
 4    1  0.3948468E+000  0.2052058E+03  0.7546771E-02  0.1145420E+00
         21   -1    0    0  501  502  0.00000000000E+00  0.00000000000E+00  0.86162909823E+03  0.86162909823E+03  0.00000000000E+00 0. -1.
         21   -1    0    0  502  503 -0.00000000000E+00 -0.00000000000E+00 -0.95115966075E+02  0.95115966075E+02  0.00000000000E+00 0.  1.
          6    1    1    2  501    0  0.10205211186E+03  0.42021361521E+02  0.71681171861E+03  0.74560610800E+03  0.17300000000E+03 0. -1.
         -6    1    1    2    0  503 -0.10205211186E+03 -0.42021361521E+02  0.49701413552E+02  0.21113895630E+03  0.17300000000E+03 0.  1.
<mgrwt>
<rscale>  2 0.20520582E+03</rscale>
<asrwt>0</asrwt>
<pdfrwt beam="1">  1       21 0.13255832E+00 0.20520582E+03</pdfrwt>
<pdfrwt beam="2">  1       21 0.14633226E-01 0.20520582E+03</pdfrwt>
<totfact> 0.16743247E+04</totfact>
</mgrwt>
</event>
<event>
 4    1  0.3948468E+000  0.1745914E+03  0.7546771E-02  0.1173143E+00
         21   -1    0    0  501  502  0.00000000000E+00  0.00000000000E+00  0.74293399055E+03  0.74293399055E+03  0.00000000000E+00 0. -1.
         21   -1    0    0  502  503 -0.00000000000E+00 -0.00000000000E+00 -0.44178149217E+02  0.44178149217E+02  0.00000000000E+00 0. -1.
          6    1    1    2  501    0 -0.55547590106E-01 -0.23519409286E+02  0.45444559605E+03  0.48682950349E+03  0.17300000000E+03 0.  1.
         -6    1    1    2    0  503  0.55547590106E-01  0.23519409286E+02  0.24431024528E+03  0.30028263627E+03  0.17300000000E+03 0.  1.
<mgrwt>
<rscale>  2 0.17459143E+03</rscale>
<asrwt>0</asrwt>
<pdfrwt beam="1">  1       21 0.11429753E+00 0.17459143E+03</pdfrwt>
<pdfrwt beam="2">  1       21 0.67966388E-02 0.17459143E+03</pdfrwt>
<totfact> 0.95463499E+04</totfact>
</mgrwt>
</event>
<event>
 4    1  0.3948468E+000  0.1907187E+03  0.7546771E-02  0.1157815E+00
         21   -1    0    0  503  502  0.00000000000E+00  0.00000000000E+00  0.23243274832E+03  0.23243274832E+03  0.00000000000E+00 0. -1.
         21   -1    0    0  501  503 -0.00000000000E+00 -0.00000000000E+00 -0.31830440663E+03  0.31830440663E+03  0.00000000000E+00 0. -1.
          6    1    1    2  501    0 -0.28783585301E+02  0.74940901451E+02 -0.23927199450E+03  0.30598156945E+03  0.17300000000E+03 0. -1.
         -6    1    1    2    0  502  0.28783585301E+02 -0.74940901451E+02  0.15340033619E+03  0.24475558551E+03  0.17300000000E+03 0. -1.
<mgrwt>
<rscale>  2 0.19071873E+03</rscale>
<asrwt>0</asrwt>
<pdfrwt beam="1">  1       21 0.35758884E-01 0.19071873E+03</pdfrwt>
<pdfrwt beam="2">  1       21 0.48969909E-01 0.19071873E+03</pdfrwt>
<totfact> 0.30039040E+04</totfact>
</mgrwt>
</event>
<event>
 4    1  0.3948468E+000  0.2100214E+03  0.7546771E-02  0.1141549E+00
         21   -1    0    0  503  502  0.00000000000E+00  0.00000000000E+00  0.77172002337E+03  0.77172002337E+03  0.00000000000E+00 0.  1.
         21   -1    0    0  501  503 -0.00000000000E+00 -0.00000000000E+00 -0.72201683511E+02  0.72201683511E+02  0.00000000000E+00 0. -1.
          6    1    1    2  501    0  0.10609868927E+03  0.54065416380E+02  0.15714254288E+03  0.26230284004E+03  0.17300000000E+03 0. -1.
         -6    1    1    2    0  502 -0.10609868927E+03 -0.54065416380E+02  0.54237579698E+03  0.58161886684E+03  0.17300000000E+03 0.  1.
<mgrwt>
<rscale>  2 0.21002143E+03</rscale>
<asrwt>0</asrwt>
<pdfrwt beam="1">  1       21 0.11872615E+00 0.21002143E+03</pdfrwt>
<pdfrwt beam="2">  1       21 0.11107952E-01 0.21002143E+03</pdfrwt>
<totfact> 0.36167697E+04</totfact>
</mgrwt>
</event>
<event>
 4    1  0.3948468E+000  0.1758567E+03  0.7546771E-02  0.1171874E+00
         21   -1    0    0  503  502  0.00000000000E+00  0.00000000000E+00  0.12368512712E+03  0.12368512712E+03  0.00000000000E+00 0.  1.
         21   -1    0    0  501  503 -0.00000000000E+00 -0.00000000000E+00 -0.28021104674E+03  0.28021104674E+03  0.00000000000E+00 0.  1.
          6    1    1    2  501    0  0.15612742056E+02  0.27437907303E+02 -0.14453481379E+03  0.22763108063E+03  0.17300000000E+03 0.  1.
         -6    1    1    2    0  502 -0.15612742056E+02 -0.27437907303E+02 -0.11991105816E+02  0.17626509323E+03  0.17300000000E+03 0.  1.
<mgrwt>
<rscale>  2 0.17585675E+03</rscale>
<asrwt>0</asrwt>
<pdfrwt beam="1">  1       21 0.19028481E-01 0.17585675E+03</pdfrwt>
<pdfrwt beam="2">  1       21 0.43109391E-01 0.17585675E+03</pdfrwt>
<totfact> 0.13180047E+05</totfact>
</mgrwt>
</event>
<event>
 4    1  0.3948468E+000  0.1944580E+03  0.7546771E-02  0.1154501E+00
         21   -1    0    0  501  502  0.00000000000E+00  0.00000000000E+00  0.59194160696E+02  0.59194160696E+02  0.00000000000E+00 0. -1.
         21   -1    0    0  502  503 -0.00000000000E+00 -0.00000000000E+00 -0.68246714197E+03  0.68246714197E+03  0.00000000000E+00 0.  1.
          6    1    1    2  501    0  0.86919956708E+02 -0.18161450336E+02 -0.40542602685E+03  0.44964895241E+03  0.17300000000E+03 0.  1.
         -6    1    1    2    0  503 -0.86919956708E+02  0.18161450336E+02 -0.21784695442E+03  0.29201235026E+03  0.17300000000E+03 0. -1.
<mgrwt>
<rscale>  2 0.19445801E+03</rscale>
<asrwt>0</asrwt>
<pdfrwt beam="1">  1       21 0.91067936E-02 0.19445801E+03</pdfrwt>
<pdfrwt beam="2">  1       21 0.10499495E+00 0.19445801E+03</pdfrwt>
<totfact> 0.69856557E+04</totfact>
</mgrwt>
</event>
<event>
 4    1  0.3948468E+000  0.1992227E+03  0.7546771E-02  0.1150396E+00
         21   -1    0    0  501  502  0.00000000000E+00  0.00000000000E+00  0.72270515080E+02  0.72270515080E+02  0.00000000000E+00 0.  1.
         21   -1    0    0  502  503 -0.00000000000E+00 -0.00000000000E+00 -0.11575581073E+04  0.11575581073E+04  0.00000000000E+00 0.  1.
          6    1    1    2  501    0  0.66188782620E+02 -0.73346660741E+02 -0.96854980273E+02  0.22151879105E+03  0.17300000000E+03 0.  1.
         -6    1    1    2    0  503 -0.66188782620E+02  0.73346660741E+02 -0.98843261195E+03  0.10083098313E+04  0.17300000000E+03 0.  1.
<mgrwt>
<rscale>  2 0.19922271E+03</rscale>
<asrwt>0</asrwt>
<pdfrwt beam="1">  1       21 0.11118542E-01 0.19922271E+03</pdfrwt>
<pdfrwt beam="2">  1       21 0.17808585E+00 0.19922271E+03</pdfrwt>
<totfact> 0.12544594E+04</totfact>
</mgrwt>
</event>
<event>
 4    1  0.3948468E+000  0.2641692E+03  0.7546771E-02  0.1104664E+00
         21   -1    0    0  503  502  0.00000000000E+00  0.00000000000E+00  0.22363960601E+03  0.22363960601E+03  0.00000000000E+00 0. -1.
         21   -1    0    0  501  503 -0.00000000000E+00 -0.00000000000E+00 -0.46033008914E+03  0.46033008914E+03  0.00000000000E+00 0.  1.
          6    1    1    2  501    0 -0.15671747726E+03  0.12367691681E+03  0.75753497541E+02  0.27481619279E+03  0.17300000000E+03 0.  1.
         -6    1    1    2    0  502  0.15671747726E+03 -0.12367691681E+03 -0.31244398067E+03  0.40915350235E+03  0.17300000000E+03 0.  1.
<mgrwt>
<rscale>  2 0.26416916E+03</rscale>
<asrwt>0</asrwt>
<pdfrwt beam="1">  1       21 0.34406093E-01 0.26416916E+03</pdfrwt>
<pdfrwt beam="2">  1       21 0.70820014E-01 0.26416916E+03</pdfrwt>
<totfact> 0.14114924E+04</totfact>
</mgrwt>
</event>
<event>
 4    1  0.3948468E+000  0.2277911E+03  0.7546771E-02  0.1128204E+00
         21   -1    0    0  501  502  0.00000000000E+00  0.00000000000E+00  0.21404508228E+03  0.21404508228E+03  0.00000000000E+00 0. -1.
         21   -1    0    0  502  503 -0.00000000000E+00 -0.00000000000E+00 -0.40019388391E+03  0.40019388391E+03  0.00000000000E+00 0. -1.
          6    1    1    2  501    0  0.13604061937E+03 -0.58759952338E+02  0.99762380869E+02  0.24867914017E+03  0.17300000000E+03 0. -1.
         -6    1    1    2    0  503 -0.13604061937E+03  0.58759952338E+02 -0.28591118251E+03  0.36555982602E+03  0.17300000000E+03 0. -1.
<mgrwt>
<rscale>  2 0.22779109E+03</rscale>
<asrwt>0</asrwt>
<pdfrwt beam="1">  1       21 0.32930013E-01 0.22779109E+03</pdfrwt>
<pdfrwt beam="2">  1       21 0.61568290E-01 0.22779109E+03</pdfrwt>
<totfact> 0.21331972E+04</totfact>
</mgrwt>
</event>
<event>
 4    1  0.3948468E+000  0.2029697E+03  0.7546771E-02  0.1147257E+00
         21   -1    0    0  503  502  0.00000000000E+00  0.00000000000E+00  0.74873546686E+03  0.74873546686E+03  0.00000000000E+00 0.  1.
         21   -1    0    0  501  503 -0.00000000000E+00 -0.00000000000E+00 -0.10558067135E+03  0.10558067135E+03  0.00000000000E+00 0.  1.
          6    1    1    2  501    0  0.15687811550E+02 -0.10498373095E+03  0.25983434687E+02  0.20462607379E+03  0.17300000000E+03 0.  1.
         -6    1    1    2    0  502 -0.15687811550E+02  0.10498373095E+03  0.61717136082E+03  0.64969006443E+03  0.17300000000E+03 0.  1.
<mgrwt>
<rscale>  2 0.20296968E+03</rscale>
<asrwt>0</asrwt>
<pdfrwt beam="1">  1       21 0.11519007E+00 0.20296968E+03</pdfrwt>
<pdfrwt beam="2">  1       21 0.16243181E-01 0.20296968E+03</pdfrwt>
<totfact> 0.19675332E+04</totfact>
</mgrwt>
</event>
<event>
 4    1  0.3948468E+000  0.1954264E+03  0.7546771E-02  0.1153656E+00
         21   -1    0    0  503  502  0.00000000000E+00  0.00000000000E+00  0.62922477940E+03  0.62922477940E+03  0.00000000000E+00 0. -1.
         21   -1    0    0  501  503 -0.00000000000E+00 -0.00000000000E+00 -0.11445282029E+03  0.11445282029E+03  0.00000000000E+00 0.  1.
          6    1    1    2  501    0  0.89056228132E+02  0.18206277114E+02  0.25516688937E+01  0.19544306411E+03  0.17300000000E+03 0.  1.
         -6    1    1    2    0  502 -0.89056228132E+02 -0.18206277114E+02  0.51222029022E+03  0.54823453558E+03  0.17300000000E+03 0. -1.
<mgrwt>
<rscale>  2 0.19542641E+03</rscale>
<asrwt>0</asrwt>
<pdfrwt beam="1">  1       21 0.96803810E-01 0.19542641E+03</pdfrwt>
<pdfrwt beam="2">  1       21 0.17608127E-01 0.19542641E+03</pdfrwt>
<totfact> 0.25876278E+04</totfact>
</mgrwt>
</event>
<event>
 4    1  0.3948468E+000  0.2725602E+03  0.7546771E-02  0.1099823E+00
         21   -1    0    0  501  502  0.00000000000E+00  0.00000000000E+00  0.30621105836E+03  0.30621105836E+03  0.00000000000E+00 0.  1.
         21   -1    0    0  502  503 -0.00000000000E+00 -0.00000000000E+00 -0.43553217163E+03  0.43553217163E+03  0.00000000000E+00 0. -1.
          6    1    1    2  501    0  0.11508488643E+03  0.17639587424E+03  0.18217492871E+03  0.32783645341E+03  0.17300000000E+03 0.  1.
         -6    1    1    2    0  503 -0.11508488643E+03 -0.17639587424E+03 -0.31149604198E+03  0.41390677658E+03  0.17300000000E+03 0. -1.
<mgrwt>
<rscale>  2 0.27256015E+03</rscale>
<asrwt>0</asrwt>
<pdfrwt beam="1">  1       21 0.47109394E-01 0.27256015E+03</pdfrwt>
<pdfrwt beam="2">  1       21 0.67004950E-01 0.27256015E+03</pdfrwt>
<totfact> 0.83739535E+03</totfact>
</mgrwt>
</event>
<event>
 4    1  0.3948468E+000  0.1760668E+03  0.7546771E-02  0.1171665E+00
         21   -1    0    0  501  502  0.00000000000E+00  0.00000000000E+00  0.11523288094E+04  0.11523288094E+04  0.00000000000E+00 0.  1.
         21   -1    0    0  502  503 -0.00000000000E+00 -0.00000000000E+00 -0.45000657914E+02  0.45000657914E+02  0.00000000000E+00 0.  1.
          6    1    1    2  501    0 -0.32611640740E+02 -0.26465840115E+01  0.93333021499E+03  0.94979198445E+03  0.17300000000E+03 0.  1.
         -6    1    1    2    0  503  0.32611640740E+02  0.26465840115E+01  0.17399793651E+03  0.24753748288E+03  0.17300000000E+03 0.  1.
<mgrwt>
<rscale>  2 0.17606682E+03</rscale>
<asrwt>0</asrwt>
<pdfrwt beam="1">  1       21 0.17728133E+00 0.17606682E+03</pdfrwt>
<pdfrwt beam="2">  1       21 0.69231790E-02 0.17606682E+03</pdfrwt>
<totfact> 0.29613674E+04</totfact>
</mgrwt>
</event>
<event>
 4    1  0.3948468E+000  0.2235009E+03  0.7546771E-02  0.1131300E+00
         21   -1    0    0  503  502  0.00000000000E+00  0.00000000000E+00  0.37771898484E+03  0.37771898484E+03  0.00000000000E+00 0.  1.
         21   -1    0    0  501  503 -0.00000000000E+00 -0.00000000000E+00 -0.24194824950E+03  0.24194824950E+03  0.00000000000E+00 0.  1.
          6    1    1    2  501    0 -0.13998475635E+03  0.20685837680E+02 -0.14074177567E+03  0.26412285647E+03  0.17300000000E+03 0.  1.
         -6    1    1    2    0  502  0.13998475635E+03 -0.20685837680E+02  0.27651251101E+03  0.35554437787E+03  0.17300000000E+03 0.  1.
<mgrwt>
<rscale>  2 0.22350086E+03</rscale>
<asrwt>0</asrwt>
<pdfrwt beam="1">  1       21 0.58110613E-01 0.22350086E+03</pdfrwt>
<pdfrwt beam="2">  1       21 0.37222807E-01 0.22350086E+03</pdfrwt>
<totfact> 0.18970548E+04</totfact>
</mgrwt>
</event>
<event>
 4    1  0.3948468E+000  0.1866434E+03  0.7546771E-02  0.1161524E+00
         21   -1    0    0  501  502  0.00000000000E+00  0.00000000000E+00  0.20117194998E+02  0.20117194998E+02  0.00000000000E+00 0.  1.
         21   -1    0    0  502  503 -0.00000000000E+00 -0.00000000000E+00 -0.20481631815E+04  0.20481631815E+04  0.00000000000E+00 0.  1.
          6    1    1    2  501    0  0.70046845219E+02 -0.42496593104E+00 -0.60748621055E+03  0.63551179150E+03  0.17300000000E+03 0. -1.
         -6    1    1    2    0  503 -0.70046845219E+02  0.42496593104E+00 -0.14205597760E+04  0.14327685850E+04  0.17300000000E+03 0. -1.
<mgrwt>
<rscale>  2 0.18664335E+03</rscale>
<asrwt>0</asrwt>
<pdfrwt beam="1">  1       21 0.30949524E-02 0.18664335E+03</pdfrwt>
<pdfrwt beam="2">  1       21 0.31510210E+00 0.18664335E+03</pdfrwt>
<totfact> 0.16895553E+04</totfact>
</mgrwt>
</event>
<event>
 4    1  0.3948468E+000  0.3416709E+03  0.7546771E-02  0.1066086E+00
         21   -1    0    0  503  502  0.00000000000E+00  0.00000000000E+00  0.15957012943E+03  0.15957012943E+03  0.00000000000E+00 0. -1.
         21   -1    0    0  501  503 -0.00000000000E+00 -0.00000000000E+00 -0.73857769461E+03  0.73857769461E+03  0.00000000000E+00 0. -1.
          6    1    1    2  501    0  0.29451381187E+03 -0.84630902999E+01 -0.33320184944E+03  0.47724467703E+03  0.17300000000E+03 0. -1.
         -6    1    1    2    0  502 -0.29451381187E+03  0.84630902999E+01 -0.24580571573E+03  0.42090314701E+03  0.17300000000E+03 0. -1.
<mgrwt>
<rscale>  2 0.34167091E+03</rscale>
<asrwt>0</asrwt>
<pdfrwt beam="1">  1       21 0.24549251E-01 0.34167091E+03</pdfrwt>
<pdfrwt beam="2">  1       21 0.11362734E+00 0.34167091E+03</pdfrwt>
<totfact> 0.87151312E+03</totfact>
</mgrwt>
</event>
<event>
 4    1  0.3948468E+000  0.1908715E+03  0.7546771E-02  0.1157678E+00
         21   -1    0    0  501  502  0.00000000000E+00  0.00000000000E+00  0.27858087466E+03  0.27858087466E+03  0.00000000000E+00 0. -1.
         21   -1    0    0  502  503 -0.00000000000E+00 -0.00000000000E+00 -0.13676188778E+03  0.13676188778E+03  0.00000000000E+00 0. -1.
          6    1    1    2  501    0 -0.51763083248E+02 -0.61834473108E+02  0.27465582829E+02  0.19283743696E+03  0.17300000000E+03 0. -1.
         -6    1    1    2    0  503  0.51763083248E+02  0.61834473108E+02  0.11435340405E+03  0.22250532549E+03  0.17300000000E+03 0. -1.
<mgrwt>
<rscale>  2 0.19087147E+03</rscale>
<asrwt>0</asrwt>
<pdfrwt beam="1">  1       21 0.42858596E-01 0.19087147E+03</pdfrwt>
<pdfrwt beam="2">  1       21 0.21040290E-01 0.19087147E+03</pdfrwt>
<totfact> 0.10998929E+05</totfact>
</mgrwt>
</event>
<event>
 4    1  0.3948468E+000  0.2079488E+03  0.7546771E-02  0.1143201E+00
         21   -1    0    0  503  502  0.00000000000E+00  0.00000000000E+00  0.41077140575E+03  0.41077140575E+03  0.00000000000E+00 0. -1.
         21   -1    0    0  501  503 -0.00000000000E+00 -0.00000000000E+00 -0.12170813146E+03  0.12170813146E+03  0.00000000000E+00 0.  1.
          6    1    1    2  501    0 -0.11537377881E+03 -0.16093609379E+01  0.24237105295E+03  0.31935313712E+03  0.17300000000E+03 0. -1.
         -6    1    1    2    0  502  0.11537377881E+03  0.16093609379E+01  0.46692221345E+02  0.21312640009E+03  0.17300000000E+03 0.  1.
<mgrwt>
<rscale>  2 0.20794879E+03</rscale>
<asrwt>0</asrwt>
<pdfrwt beam="1">  1       21 0.63195600E-01 0.20794879E+03</pdfrwt>
<pdfrwt beam="2">  1       21 0.18724328E-01 0.20794879E+03</pdfrwt>
<totfact> 0.60033290E+04</totfact>
</mgrwt>
</event>
<event>
 4    1  0.3948468E+000  0.2421191E+03  0.7546771E-02  0.1118389E+00
         21   -1    0    0  503  502  0.00000000000E+00  0.00000000000E+00  0.23982460863E+03  0.23982460863E+03  0.00000000000E+00 0.  1.
         21   -1    0    0  501  503 -0.00000000000E+00 -0.00000000000E+00 -0.65000567016E+03  0.65000567016E+03  0.00000000000E+00 0. -1.
          6    1    1    2  501    0 -0.86494806373E+01 -0.16916815313E+03 -0.55653082045E+03  0.60691698910E+03  0.17300000000E+03 0. -1.
         -6    1    1    2    0  502  0.86494806373E+01  0.16916815313E+03  0.14634975891E+03  0.28291328969E+03  0.17300000000E+03 0.  1.
<mgrwt>
<rscale>  2 0.24211914E+03</rscale>
<asrwt>0</asrwt>
<pdfrwt beam="1">  1       21 0.36896094E-01 0.24211914E+03</pdfrwt>
<pdfrwt beam="2">  1       21 0.10000087E+00 0.24211914E+03</pdfrwt>
<totfact> 0.56144110E+03</totfact>
</mgrwt>
</event>
<event>
 4    1  0.3948468E+000  0.3468398E+03  0.7546771E-02  0.1063920E+00
         21   -1    0    0  501  502  0.00000000000E+00  0.00000000000E+00  0.65590673047E+03  0.65590673047E+03  0.00000000000E+00 0.  1.
         21   -1    0    0  502  503 -0.00000000000E+00 -0.00000000000E+00 -0.18342726400E+03  0.18342726400E+03  0.00000000000E+00 0. -1.
          6    1    1    2  501    0  0.24834638964E+03  0.16938976290E+03  0.24066143882E+03  0.42215607204E+03  0.17300000000E+03 0.  1.
         -6    1    1    2    0  503 -0.24834638964E+03 -0.16938976290E+03  0.23181802765E+03  0.41717792244E+03  0.17300000000E+03 0. -1.
<mgrwt>
<rscale>  2 0.34683976E+03</rscale>
<asrwt>0</asrwt>
<pdfrwt beam="1">  1       21 0.10090873E+00 0.34683976E+03</pdfrwt>
<pdfrwt beam="2">  1       21 0.28219579E-01 0.34683976E+03</pdfrwt>
<totfact> 0.88709725E+03</totfact>
</mgrwt>
</event>
<event>
 4    1  0.3948468E+000  0.1794719E+03  0.7546771E-02  0.1168315E+00
         21   -1    0    0  503  502  0.00000000000E+00  0.00000000000E+00  0.13392920583E+04  0.13392920583E+04  0.00000000000E+00 0. -1.
         21   -1    0    0  501  503 -0.00000000000E+00 -0.00000000000E+00 -0.31907325997E+02  0.31907325997E+02  0.00000000000E+00 0.  1.
          6    1    1    2  501    0 -0.26735981624E+02 -0.39577103735E+02  0.99391167677E+03  0.10099854361E+04  0.17300000000E+03 0. -1.
         -6    1    1    2    0  502  0.26735981624E+02  0.39577103735E+02  0.31347305558E+03  0.36121394828E+03  0.17300000000E+03 0.  1.
<mgrwt>
<rscale>  2 0.17947189E+03</rscale>
<asrwt>0</asrwt>
<pdfrwt beam="1">  1       21 0.20604489E+00 0.17947189E+03</pdfrwt>
<pdfrwt beam="2">  1       21 0.49088204E-02 0.17947189E+03</pdfrwt>
<totfact> 0.34425631E+04</totfact>
</mgrwt>
</event>
<event>
 4    1  0.3948468E+000  0.1827261E+03  0.7546771E-02  0.1165190E+00
         21   -1    0    0  501  502  0.00000000000E+00  0.00000000000E+00  0.14301246838E+04  0.14301246838E+04  0.00000000000E+00 0. -1.
         21   -1    0    0  502  503 -0.00000000000E+00 -0.00000000000E+00 -0.23941950692E+02  0.23941950692E+02  0.00000000000E+00 0.  1.
          6    1    1    2  501    0 -0.48385816566E+02 -0.33446075295E+02  0.81771917813E+03  0.83788631775E+03  0.17300000000E+03 0. -1.
         -6    1    1    2    0  503  0.48385816566E+02  0.33446075295E+02  0.58846355494E+03  0.61618031670E+03  0.17300000000E+03 0.  1.
<mgrwt>
<rscale>  2 0.18272610E+03</rscale>
<asrwt>0</asrwt>
<pdfrwt beam="1">  1       21 0.22001912E+00 0.18272610E+03</pdfrwt>
<pdfrwt beam="2">  1       21 0.36833781E-02 0.18272610E+03</pdfrwt>
<totfact> 0.45561742E+04</totfact>
</mgrwt>
</event>
<event>
 4    1  0.3948468E+000  0.1809690E+03  0.7546771E-02  0.1166869E+00
         21   -1    0    0  501  502  0.00000000000E+00  0.00000000000E+00  0.22381469869E+03  0.22381469869E+03  0.00000000000E+00 0.  1.
         21   -1    0    0  502  503 -0.00000000000E+00 -0.00000000000E+00 -0.20361951734E+03  0.20361951734E+03  0.00000000000E+00 0.  1.
          6    1    1    2  501    0 -0.21883268510E+02 -0.48393257772E+02  0.12346401327E+03  0.21907338362E+03  0.17300000000E+03 0.  1.
         -6    1    1    2    0  503  0.21883268510E+02  0.48393257772E+02 -0.10326883192E+03  0.20836083241E+03  0.17300000000E+03 0.  1.
<mgrwt>
<rscale>  2 0.18096902E+03</rscale>
<asrwt>0</asrwt>
<pdfrwt beam="1">  1       21 0.34433031E-01 0.18096902E+03</pdfrwt>
<pdfrwt beam="2">  1       21 0.31326080E-01 0.18096902E+03</pdfrwt>
<totfact> 0.79976072E+04</totfact>
</mgrwt>
</event>
<event>
 4    1  0.3948468E+000  0.2579640E+03  0.7546771E-02  0.1108373E+00
         21   -1    0    0  501  502  0.00000000000E+00  0.00000000000E+00  0.16333132510E+04  0.16333132510E+04  0.00000000000E+00 0. -1.
         21   -1    0    0  502  503 -0.00000000000E+00 -0.00000000000E+00 -0.99424511491E+02  0.99424511491E+02  0.00000000000E+00 0.  1.
          6    1    1    2  501    0  0.18111210878E+03 -0.61764429283E+02  0.14325365486E+04  0.14555776873E+04  0.17300000000E+03 0. -1.
         -6    1    1    2    0  503 -0.18111210878E+03  0.61764429283E+02  0.10135219087E+03  0.27716007516E+03  0.17300000000E+03 0.  1.
<mgrwt>
<rscale>  2 0.25796403E+03</rscale>
<asrwt>0</asrwt>
<pdfrwt beam="1">  1       21 0.25127894E+00 0.25796403E+03</pdfrwt>
<pdfrwt beam="2">  1       21 0.15296080E-01 0.25796403E+03</pdfrwt>
<totfact> 0.23196840E+03</totfact>
</mgrwt>
</event>
<event>
 4    1  0.3948468E+000  0.2134572E+03  0.7546771E-02  0.1138857E+00
         21   -1    0    0  503  502  0.00000000000E+00  0.00000000000E+00  0.63642604189E+03  0.63642604189E+03  0.00000000000E+00 0.  1.
         21   -1    0    0  501  503 -0.00000000000E+00 -0.00000000000E+00 -0.73760774721E+02  0.73760774721E+02  0.00000000000E+00 0.  1.
          6    1    1    2  501    0 -0.12482233166E+03  0.73726851753E+01  0.22046500742E+03  0.30686933777E+03  0.17300000000E+03 0.  1.
         -6    1    1    2    0  502  0.12482233166E+03 -0.73726851753E+01  0.34220025974E+03  0.40331747884E+03  0.17300000000E+03 0.  1.
<mgrwt>
<rscale>  2 0.21345719E+03</rscale>
<asrwt>0</asrwt>
<pdfrwt beam="1">  1       21 0.97911695E-01 0.21345719E+03</pdfrwt>
<pdfrwt beam="2">  1       21 0.11347812E-01 0.21345719E+03</pdfrwt>
<totfact> 0.55382448E+04</totfact>
</mgrwt>
</event>
<event>
 4    1  0.3948468E+000  0.1934011E+03  0.7546771E-02  0.1155429E+00
         21   -1    0    0  503  502  0.00000000000E+00  0.00000000000E+00  0.21692102318E+04  0.21692102318E+04  0.00000000000E+00 0. -1.
         21   -1    0    0  501  503 -0.00000000000E+00 -0.00000000000E+00 -0.17335299812E+02  0.17335299812E+02  0.00000000000E+00 0.  1.
          6    1    1    2  501    0  0.69006573558E+02  0.52087312467E+02  0.11556513699E+04  0.11717226993E+04  0.17300000000E+03 0. -1.
         -6    1    1    2    0  502 -0.69006573558E+02 -0.52087312467E+02  0.99622356213E+03  0.10148228324E+04  0.17300000000E+03 0. -1.
<mgrwt>
<rscale>  2 0.19340113E+03</rscale>
<asrwt>0</asrwt>
<pdfrwt beam="1">  1       21 0.33372444E+00 0.19340113E+03</pdfrwt>
<pdfrwt beam="2">  1       21 0.26669709E-02 0.19340113E+03</pdfrwt>
<totfact> 0.16724496E+04</totfact>
</mgrwt>
</event>
<event>
 4    1  0.3948468E+000  0.2163263E+03  0.7546771E-02  0.1136652E+00
         21   -1    0    0  503  502  0.00000000000E+00  0.00000000000E+00  0.59480852319E+03  0.59480852319E+03  0.00000000000E+00 0. -1.
         21   -1    0    0  501  503 -0.00000000000E+00 -0.00000000000E+00 -0.97242511094E+02  0.97242511094E+02  0.00000000000E+00 0. -1.
          6    1    1    2  501    0 -0.10908718890E+03  0.70484334842E+02  0.39998138805E+03  0.45473307228E+03  0.17300000000E+03 0. -1.
         -6    1    1    2    0  502  0.10908718890E+03 -0.70484334842E+02  0.97584624047E+02  0.23731796200E+03  0.17300000000E+03 0. -1.
<mgrwt>
<rscale>  2 0.21632627E+03</rscale>
<asrwt>0</asrwt>
<pdfrwt beam="1">  1       21 0.91509001E-01 0.21632627E+03</pdfrwt>
<pdfrwt beam="2">  1       21 0.14960387E-01 0.21632627E+03</pdfrwt>
<totfact> 0.39354913E+04</totfact>
</mgrwt>
</event>
<event>
 4    1  0.3948468E+000  0.1824164E+03  0.7546771E-02  0.1165485E+00
         21   -1    0    0  503  502  0.00000000000E+00  0.00000000000E+00  0.87844765492E+02  0.87844765492E+02  0.00000000000E+00 0.  1.
         21   -1    0    0  501  503 -0.00000000000E+00 -0.00000000000E+00 -0.63789023971E+03  0.63789023971E+03  0.00000000000E+00 0.  1.
          6    1    1    2  501    0 -0.24095928756E+02  0.52594116757E+02 -0.50628199022E+03  0.53814236827E+03  0.17300000000E+03 0.  1.
         -6    1    1    2    0  502  0.24095928756E+02 -0.52594116757E+02 -0.43763483993E+02  0.18759263693E+03  0.17300000000E+03 0.  1.
<mgrwt>
<rscale>  2 0.18241643E+03</rscale>
<asrwt>0</asrwt>
<pdfrwt beam="1">  1       21 0.13514580E-01 0.18241643E+03</pdfrwt>
<pdfrwt beam="2">  1       21 0.98136958E-01 0.18241643E+03</pdfrwt>
<totfact> 0.40895073E+04</totfact>
</mgrwt>
</event>
<event>
 4    1  0.3948468E+000  0.1904068E+03  0.7546771E-02  0.1158095E+00
         21   -1    0    0  503  502  0.00000000000E+00  0.00000000000E+00  0.32032963950E+03  0.32032963950E+03  0.00000000000E+00 0.  1.
         21   -1    0    0  501  503 -0.00000000000E+00 -0.00000000000E+00 -0.16743538681E+03  0.16743538681E+03  0.00000000000E+00 0. -1.
          6    1    1    2  501    0 -0.35512160477E+02  0.71166217891E+02 -0.62381978701E+02  0.20036530482E+03  0.17300000000E+03 0. -1.
         -6    1    1    2    0  502  0.35512160477E+02 -0.71166217891E+02  0.21527623139E+03  0.28739972149E+03  0.17300000000E+03 0.  1.
<mgrwt>
<rscale>  2 0.19040679E+03</rscale>
<asrwt>0</asrwt>
<pdfrwt beam="1">  1       21 0.49281483E-01 0.19040679E+03</pdfrwt>
<pdfrwt beam="2">  1       21 0.25759290E-01 0.19040679E+03</pdfrwt>
<totfact> 0.56233630E+04</totfact>
</mgrwt>
</event>
<event>
 4    1  0.3948468E+000  0.2217602E+03  0.7546771E-02  0.1132578E+00
         21   -1    0    0  503  502  0.00000000000E+00  0.00000000000E+00  0.14400690963E+03  0.14400690963E+03  0.00000000000E+00 0.  1.
         21   -1    0    0  501  503 -0.00000000000E+00 -0.00000000000E+00 -0.58382360003E+03  0.58382360003E+03  0.00000000000E+00 0. -1.
          6    1    1    2  501    0  0.47672066453E+02  0.13029179937E+03 -0.45436477750E+03  0.50559364111E+03  0.17300000000E+03 0. -1.
         -6    1    1    2    0  502 -0.47672066453E+02 -0.13029179937E+03  0.14548087100E+02  0.22223686855E+03  0.17300000000E+03 0.  1.
<mgrwt>
<rscale>  2 0.22176018E+03</rscale>
<asrwt>0</asrwt>
<pdfrwt beam="1">  1       21 0.22154909E-01 0.22176018E+03</pdfrwt>
<pdfrwt beam="2">  1       21 0.89819015E-01 0.22176018E+03</pdfrwt>
<totfact> 0.19761289E+04</totfact>
</mgrwt>
</event>
<event>
 4    1  0.3948468E+000  0.1856358E+03  0.7546771E-02  0.1162457E+00
         21   -1    0    0  501  502  0.00000000000E+00  0.00000000000E+00  0.37627347850E+03  0.37627347850E+03  0.00000000000E+00 0.  1.
         21   -1    0    0  502  503 -0.00000000000E+00 -0.00000000000E+00 -0.92575770087E+02  0.92575770087E+02  0.00000000000E+00 0.  1.
          6    1    1    2  501    0  0.21100037315E+02 -0.63925261972E+02  0.16611205943E+03  0.24910613598E+03  0.17300000000E+03 0.  1.
         -6    1    1    2    0  503 -0.21100037315E+02  0.63925261972E+02  0.11758564898E+03  0.21974311261E+03  0.17300000000E+03 0.  1.
<mgrwt>
<rscale>  2 0.18563580E+03</rscale>
<asrwt>0</asrwt>
<pdfrwt beam="1">  1       21 0.57888227E-01 0.18563580E+03</pdfrwt>
<pdfrwt beam="2">  1       21 0.14242426E-01 0.18563580E+03</pdfrwt>
<totfact> 0.12089220E+05</totfact>
</mgrwt>
</event>
<event>
 4    1  0.3948468E+000  0.1991357E+03  0.7546771E-02  0.1150470E+00
         21   -1    0    0  503  502  0.00000000000E+00  0.00000000000E+00  0.36526457697E+03  0.36526457697E+03  0.00000000000E+00 0.  1.
         21   -1    0    0  501  503 -0.00000000000E+00 -0.00000000000E+00 -0.82920970353E+03  0.82920970353E+03  0.00000000000E+00 0. -1.
          6    1    1    2  501    0 -0.34017931357E+02 -0.92567819283E+02 -0.78874170830E+03  0.81349155080E+03  0.17300000000E+03 0. -1.
         -6    1    1    2    0  502  0.34017931357E+02  0.92567819283E+02  0.32479658173E+03  0.38098272970E+03  0.17300000000E+03 0.  1.
<mgrwt>
<rscale>  2 0.19913568E+03</rscale>
<asrwt>0</asrwt>
<pdfrwt beam="1">  1       21 0.56194551E-01 0.19913568E+03</pdfrwt>
<pdfrwt beam="2">  1       21 0.12757072E+00 0.19913568E+03</pdfrwt>
<totfact> 0.13423720E+03</totfact>
</mgrwt>
</event>
<event>
 4    1  0.3948468E+000  0.1880074E+03  0.7546771E-02  0.1160271E+00
         21   -1    0    0  501  502  0.00000000000E+00  0.00000000000E+00  0.63966806124E+03  0.63966806124E+03  0.00000000000E+00 0.  1.
         21   -1    0    0  502  503 -0.00000000000E+00 -0.00000000000E+00 -0.57775082113E+02  0.57775082113E+02  0.00000000000E+00 0.  1.
          6    1    1    2  501    0  0.50005312325E+02  0.54011585655E+02  0.36373394818E+03  0.40944983539E+03  0.17300000000E+03 0.  1.
         -6    1    1    2    0  503 -0.50005312325E+02 -0.54011585655E+02  0.21815903095E+03  0.28799330796E+03  0.17300000000E+03 0.  1.
<mgrwt>
<rscale>  2 0.18800740E+03</rscale>
<asrwt>0</asrwt>
<pdfrwt beam="1">  1       21 0.98410466E-01 0.18800740E+03</pdfrwt>
<pdfrwt beam="2">  1       21 0.88884746E-02 0.18800740E+03</pdfrwt>
<totfact> 0.85300937E+04</totfact>
</mgrwt>
</event>
<event>
 4    1  0.3948468E+000  0.1993690E+03  0.7546771E-02  0.1150272E+00
         21   -1    0    0  503  502  0.00000000000E+00  0.00000000000E+00  0.72568979741E+02  0.72568979741E+02  0.00000000000E+00 0. -1.
         21   -1    0    0  501  503 -0.00000000000E+00 -0.00000000000E+00 -0.54792000739E+03  0.54792000739E+03  0.00000000000E+00 0.  1.
          6    1    1    2  501    0 -0.74695506777E+02  0.65111994561E+02 -0.24349811362E+03  0.31470513485E+03  0.17300000000E+03 0.  1.
         -6    1    1    2    0  502  0.74695506777E+02 -0.65111994561E+02 -0.23185291404E+03  0.30578385228E+03  0.17300000000E+03 0.  1.
<mgrwt>
<rscale>  2 0.19936898E+03</rscale>
<asrwt>0</asrwt>
<pdfrwt beam="1">  1       21 0.11164458E-01 0.19936898E+03</pdfrwt>
<pdfrwt beam="2">  1       21 0.84295387E-01 0.19936898E+03</pdfrwt>
<totfact> 0.81273733E+04</totfact>
</mgrwt>
</event>
<event>
 4    1  0.3948468E+000  0.2626157E+03  0.7546771E-02  0.1105582E+00
         21   -1    0    0  503  502  0.00000000000E+00  0.00000000000E+00  0.93639413124E+03  0.93639413124E+03  0.00000000000E+00 0.  1.
         21   -1    0    0  501  503 -0.00000000000E+00 -0.00000000000E+00 -0.44122913700E+03  0.44122913700E+03  0.00000000000E+00 0.  1.
          6    1    1    2  501    0 -0.33844118435E+02 -0.19466018454E+03 -0.38111656065E+03  0.46283565615E+03  0.17300000000E+03 0.  1.
         -6    1    1    2    0  502  0.33844118435E+02  0.19466018454E+03  0.87628155489E+03  0.91478761210E+03  0.17300000000E+03 0.  1.
<mgrwt>
<rscale>  2 0.26261571E+03</rscale>
<asrwt>0</asrwt>
<pdfrwt beam="1">  1       21 0.14406064E+00 0.26261571E+03</pdfrwt>
<pdfrwt beam="2">  1       21 0.67881406E-01 0.26261571E+03</pdfrwt>
<totfact> 0.61607804E+02</totfact>
</mgrwt>
</event>
<event>
 4    1  0.3948468E+000  0.2348005E+03  0.7546771E-02  0.1123306E+00
         21   -1    0    0  501  502  0.00000000000E+00  0.00000000000E+00  0.96747954797E+02  0.96747954797E+02  0.00000000000E+00 0. -1.
         21   -1    0    0  502  503 -0.00000000000E+00 -0.00000000000E+00 -0.10130491587E+04  0.10130491587E+04  0.00000000000E+00 0. -1.
          6    1    1    2  501    0 -0.12803695766E+02 -0.15823509308E+03 -0.91121460934E+02  0.25186186681E+03  0.17300000000E+03 0. -1.
         -6    1    1    2    0  503  0.12803695766E+02  0.15823509308E+03 -0.82517974295E+03  0.85793524667E+03  0.17300000000E+03 0. -1.
<mgrwt>
<rscale>  2 0.23480051E+03</rscale>
<asrwt>0</asrwt>
<pdfrwt beam="1">  1       21 0.14884300E-01 0.23480051E+03</pdfrwt>
<pdfrwt beam="2">  1       21 0.15585373E+00 0.23480051E+03</pdfrwt>
<totfact> 0.10427775E+04</totfact>
</mgrwt>
</event>
<event>
 4    1  0.3948468E+000  0.2163762E+03  0.7546771E-02  0.1136614E+00
         21   -1    0    0  503  502  0.00000000000E+00  0.00000000000E+00  0.19091481422E+04  0.19091481422E+04  0.00000000000E+00 0. -1.
         21   -1    0    0  501  503 -0.00000000000E+00 -0.00000000000E+00 -0.54202051463E+02  0.54202051463E+02  0.00000000000E+00 0.  1.
          6    1    1    2  501    0 -0.12652618843E+03  0.29677778510E+02  0.20106174106E+03  0.29537174986E+03  0.17300000000E+03 0.  1.
         -6    1    1    2    0  502  0.12652618843E+03 -0.29677778510E+02  0.16538843497E+04  0.16679784438E+04  0.17300000000E+03 0. -1.
<mgrwt>
<rscale>  2 0.21637617E+03</rscale>
<asrwt>0</asrwt>
<pdfrwt beam="1">  1       21 0.29371505E+00 0.21637617E+03</pdfrwt>
<pdfrwt beam="2">  1       21 0.83387786E-02 0.21637617E+03</pdfrwt>
<totfact> 0.40336596E+03</totfact>
</mgrwt>
</event>
<event>
 4    1  0.3948468E+000  0.1916297E+03  0.7546771E-02  0.1157000E+00
         21   -1    0    0  501  502  0.00000000000E+00  0.00000000000E+00  0.10311437675E+03  0.10311437675E+03  0.00000000000E+00 0. -1.
         21   -1    0    0  502  503 -0.00000000000E+00 -0.00000000000E+00 -0.41575330514E+03  0.41575330514E+03  0.00000000000E+00 0.  1.
          6    1    1    2  501    0 -0.81025927947E+02 -0.15090796887E+02 -0.58071513867E+02  0.20023544610E+03  0.17300000000E+03 0. -1.
         -6    1    1    2    0  503  0.81025927947E+02  0.15090796887E+02 -0.25456741453E+03  0.31863223580E+03  0.17300000000E+03 0.  1.
<mgrwt>
<rscale>  2 0.19162968E+03</rscale>
<asrwt>0</asrwt>
<pdfrwt beam="1">  1       21 0.15863750E-01 0.19162968E+03</pdfrwt>
<pdfrwt beam="2">  1       21 0.63962048E-01 0.19162968E+03</pdfrwt>
<totfact> 0.79979410E+04</totfact>
</mgrwt>
</event>
<event>
 4    1  0.3948468E+000  0.2179414E+03  0.7546771E-02  0.1135427E+00
         21   -1    0    0  503  502  0.00000000000E+00  0.00000000000E+00  0.13593258533E+03  0.13593258533E+03  0.00000000000E+00 0. -1.
         21   -1    0    0  501  503 -0.00000000000E+00 -0.00000000000E+00 -0.35709700598E+03  0.35709700598E+03  0.00000000000E+00 0. -1.
          6    1    1    2  501    0  0.94226558305E+02 -0.93224561337E+02 -0.14671143517E+03  0.26272173176E+03  0.17300000000E+03 0. -1.
         -6    1    1    2    0  502 -0.94226558305E+02  0.93224561337E+02 -0.74452985474E+02  0.23030785955E+03  0.17300000000E+03 0. -1.
<mgrwt>
<rscale>  2 0.21794142E+03</rscale>
<asrwt>0</asrwt>
<pdfrwt beam="1">  1       21 0.20912706E-01 0.21794142E+03</pdfrwt>
<pdfrwt beam="2">  1       21 0.54938000E-01 0.21794142E+03</pdfrwt>
<totfact> 0.65644125E+04</totfact>
</mgrwt>
</event>
<event>
 4    1  0.3948468E+000  0.2283029E+03  0.7546771E-02  0.1127840E+00
         21   -1    0    0  501  502  0.00000000000E+00  0.00000000000E+00  0.20524305595E+03  0.20524305595E+03  0.00000000000E+00 0. -1.
         21   -1    0    0  502  503 -0.00000000000E+00 -0.00000000000E+00 -0.26389110767E+03  0.26389110767E+03  0.00000000000E+00 0.  1.
          6    1    1    2  501    0  0.13058109673E+03 -0.71706257715E+02  0.16195079152E+02  0.22887658423E+03  0.17300000000E+03 0.  1.
         -6    1    1    2    0  503 -0.13058109673E+03  0.71706257715E+02 -0.74843130872E+02  0.24025757940E+03  0.17300000000E+03 0.  1.
<mgrwt>
<rscale>  2 0.22830289E+03</rscale>
<asrwt>0</asrwt>
<pdfrwt beam="1">  1       21 0.31575855E-01 0.22830289E+03</pdfrwt>
<pdfrwt beam="2">  1       21 0.40598632E-01 0.22830289E+03</pdfrwt>
<totfact> 0.55453522E+04</totfact>
</mgrwt>
</event>
<event>
 4    1  0.3948468E+000  0.3986351E+03  0.7546771E-02  0.1044253E+00
         21   -1    0    0  503  502  0.00000000000E+00  0.00000000000E+00  0.40833056451E+03  0.40833056451E+03  0.00000000000E+00 0. -1.
         21   -1    0    0  501  503 -0.00000000000E+00 -0.00000000000E+00 -0.39939263671E+03  0.39939263671E+03  0.00000000000E+00 0.  1.
          6    1    1    2  501    0 -0.34057334312E+03 -0.11397695035E+03  0.69081538065E+02  0.40457657639E+03  0.17300000000E+03 0. -1.
         -6    1    1    2    0  502  0.34057334312E+03  0.11397695035E+03 -0.60143610271E+02  0.40314662483E+03  0.17300000000E+03 0.  1.
<mgrwt>
<rscale>  2 0.39863511E+03</rscale>
<asrwt>0</asrwt>
<pdfrwt beam="1">  1       21 0.62820087E-01 0.39863511E+03</pdfrwt>
<pdfrwt beam="2">  1       21 0.61445021E-01 0.39863511E+03</pdfrwt>
<totfact> 0.51787910E+03</totfact>
</mgrwt>
</event>
<event>
 4    1  0.3948468E+000  0.1923808E+03  0.7546771E-02  0.1156331E+00
         21   -1    0    0  503  502  0.00000000000E+00  0.00000000000E+00  0.25314403972E+03  0.25314403972E+03  0.00000000000E+00 0. -1.
         21   -1    0    0  501  503 -0.00000000000E+00 -0.00000000000E+00 -0.14787574854E+03  0.14787574854E+03  0.00000000000E+00 0. -1.
          6    1    1    2  501    0  0.69335381627E+02  0.47686105656E+02  0.31307010786E+02  0.19491148951E+03  0.17300000000E+03 0. -1.
         -6    1    1    2    0  502 -0.69335381627E+02 -0.47686105656E+02  0.73961280395E+02  0.20610829875E+03  0.17300000000E+03 0. -1.
<mgrwt>
<rscale>  2 0.19238077E+03</rscale>
<asrwt>0</asrwt>
<pdfrwt beam="1">  1       21 0.38945237E-01 0.19238077E+03</pdfrwt>
<pdfrwt beam="2">  1       21 0.22750115E-01 0.19238077E+03</pdfrwt>
<totfact> 0.11520106E+05</totfact>
</mgrwt>
</event>
<event>
 4    1  0.3948468E+000  0.1778977E+03  0.7546771E-02  0.1169853E+00
         21   -1    0    0  503  502  0.00000000000E+00  0.00000000000E+00  0.17423683094E+03  0.17423683094E+03  0.00000000000E+00 0.  1.
         21   -1    0    0  501  503 -0.00000000000E+00 -0.00000000000E+00 -0.18335470903E+03  0.18335470903E+03  0.00000000000E+00 0.  1.
          6    1    1    2  501    0  0.41256880163E+02  0.40573720241E+01  0.12754231987E+02  0.17835431832E+03  0.17300000000E+03 0. -1.
         -6    1    1    2    0  502 -0.41256880163E+02 -0.40573720241E+01 -0.21872110073E+02  0.17923722166E+03  0.17300000000E+03 0. -1.
<mgrwt>
<rscale>  2 0.17789770E+03</rscale>
<asrwt>0</asrwt>
<pdfrwt beam="1">  1       21 0.26805666E-01 0.17789770E+03</pdfrwt>
<pdfrwt beam="2">  1       21 0.28208417E-01 0.17789770E+03</pdfrwt>
<totfact> 0.15989457E+05</totfact>
</mgrwt>
</event>
<event>
 4    1  0.3948468E+000  0.2336119E+03  0.7546771E-02  0.1124123E+00
         21   -1    0    0  501  502  0.00000000000E+00  0.00000000000E+00  0.48487941287E+03  0.48487941287E+03  0.00000000000E+00 0. -1.
         21   -1    0    0  502  503 -0.00000000000E+00 -0.00000000000E+00 -0.11857752520E+03  0.11857752520E+03  0.00000000000E+00 0.  1.
          6    1    1    2  501    0 -0.15606517526E+03 -0.17004914099E+02  0.11513888595E+03  0.26044475247E+03  0.17300000000E+03 0.  1.
         -6    1    1    2    0  503  0.15606517526E+03  0.17004914099E+02  0.25116300173E+03  0.34301218560E+03  0.17300000000E+03 0.  1.
<mgrwt>
<rscale>  2 0.23361187E+03</rscale>
<asrwt>0</asrwt>
<pdfrwt beam="1">  1       21 0.74596832E-01 0.23361187E+03</pdfrwt>
<pdfrwt beam="2">  1       21 0.18242696E-01 0.23361187E+03</pdfrwt>
<totfact> 0.43205157E+04</totfact>
</mgrwt>
</event>
<event>
 4    1  0.3948468E+000  0.2409258E+03  0.7546771E-02  0.1119178E+00
         21   -1    0    0  503  502  0.00000000000E+00  0.00000000000E+00  0.10802817754E+03  0.10802817754E+03  0.00000000000E+00 0. -1.
         21   -1    0    0  501  503 -0.00000000000E+00 -0.00000000000E+00 -0.69242775678E+03  0.69242775678E+03  0.00000000000E+00 0.  1.
          6    1    1    2  501    0  0.86197926087E+02  0.14382683677E+03 -0.48162723585E+03  0.53852579859E+03  0.17300000000E+03 0.  1.
         -6    1    1    2    0  502 -0.86197926087E+02 -0.14382683677E+03 -0.10277234339E+03  0.26193013573E+03  0.17300000000E+03 0. -1.
<mgrwt>
<rscale>  2 0.24092580E+03</rscale>
<asrwt>0</asrwt>
<pdfrwt beam="1">  1       21 0.16619720E-01 0.24092580E+03</pdfrwt>
<pdfrwt beam="2">  1       21 0.10652735E+00 0.24092580E+03</pdfrwt>
<totfact> 0.22328795E+04</totfact>
</mgrwt>
</event>
<event>
 4    1  0.3948468E+000  0.2112470E+03  0.7546771E-02  0.1140582E+00
         21   -1    0    0  501  502  0.00000000000E+00  0.00000000000E+00  0.12107975895E+04  0.12107975895E+04  0.00000000000E+00 0. -1.
         21   -1    0    0  502  503 -0.00000000000E+00 -0.00000000000E+00 -0.37630801973E+02  0.37630801973E+02  0.00000000000E+00 0.  1.
          6    1    1    2  501    0 -0.78118450935E+02  0.92702713582E+02  0.49702067254E+03  0.54005077022E+03  0.17300000000E+03 0. -1.
         -6    1    1    2    0  503  0.78118450935E+02 -0.92702713582E+02  0.67614611500E+03  0.70837762126E+03  0.17300000000E+03 0.  1.
<mgrwt>
<rscale>  2 0.21124698E+03</rscale>
<asrwt>0</asrwt>
<pdfrwt beam="1">  1       21 0.18627652E+00 0.21124698E+03</pdfrwt>
<pdfrwt beam="2">  1       21 0.57893551E-02 0.21124698E+03</pdfrwt>
<totfact> 0.34180003E+04</totfact>
</mgrwt>
</event>
<event>
 4    1  0.3948468E+000  0.1787446E+03  0.7546771E-02  0.1169024E+00
         21   -1    0    0  501  502  0.00000000000E+00  0.00000000000E+00  0.13119325217E+04  0.13119325217E+04  0.00000000000E+00 0.  1.
         21   -1    0    0  502  503 -0.00000000000E+00 -0.00000000000E+00 -0.27750571864E+02  0.27750571864E+02  0.00000000000E+00 0.  1.
          6    1    1    2  501    0 -0.35700845727E+02  0.27314429875E+02  0.87646734516E+03  0.89450804110E+03  0.17300000000E+03 0.  1.
         -6    1    1    2    0  503  0.35700845727E+02 -0.27314429875E+02  0.40771460464E+03  0.44517505242E+03  0.17300000000E+03 0.  1.
<mgrwt>
<rscale>  2 0.17874459E+03</rscale>
<asrwt>0</asrwt>
<pdfrwt beam="1">  1       21 0.20183572E+00 0.17874459E+03</pdfrwt>
<pdfrwt beam="2">  1       21 0.42693198E-02 0.17874459E+03</pdfrwt>
<totfact> 0.46334324E+04</totfact>
</mgrwt>
</event>
<event>
 4    1  0.3948468E+000  0.1786286E+03  0.7546771E-02  0.1169137E+00
         21   -1    0    0  501  502  0.00000000000E+00  0.00000000000E+00  0.59188101463E+02  0.59188101463E+02  0.00000000000E+00 0.  1.
         21   -1    0    0  502  503 -0.00000000000E+00 -0.00000000000E+00 -0.81568303929E+03  0.81568303929E+03  0.00000000000E+00 0.  1.
          6    1    1    2  501    0  0.43878170420E+02  0.73395672939E+01 -0.12352453962E+03  0.21717844040E+03  0.17300000000E+03 0.  1.
         -6    1    1    2    0  503 -0.43878170420E+02 -0.73395672939E+01 -0.63297039821E+03  0.65769270035E+03  0.17300000000E+03 0.  1.
<mgrwt>
<rscale>  2 0.17862856E+03</rscale>
<asrwt>0</asrwt>
<pdfrwt beam="1">  1       21 0.91058612E-02 0.17862856E+03</pdfrwt>
<pdfrwt beam="2">  1       21 0.12548971E+00 0.17862856E+03</pdfrwt>
<totfact> 0.45549291E+04</totfact>
</mgrwt>
</event>
<event>
 4    1  0.3948468E+000  0.1954935E+03  0.7546771E-02  0.1153598E+00
         21   -1    0    0  503  502  0.00000000000E+00  0.00000000000E+00  0.73378605091E+02  0.73378605091E+02  0.00000000000E+00 0. -1.
         21   -1    0    0  501  503 -0.00000000000E+00 -0.00000000000E+00 -0.52670688276E+03  0.52670688276E+03  0.00000000000E+00 0. -1.
          6    1    1    2  501    0  0.90294563405E+02 -0.11644026165E+02 -0.25836099084E+03  0.32398779778E+03  0.17300000000E+03 0. -1.
         -6    1    1    2    0  502 -0.90294563405E+02  0.11644026165E+02 -0.19496728683E+03  0.27609769007E+03  0.17300000000E+03 0. -1.
<mgrwt>
<rscale>  2 0.19549346E+03</rscale>
<asrwt>0</asrwt>
<pdfrwt beam="1">  1       21 0.11289016E-01 0.19549346E+03</pdfrwt>
<pdfrwt beam="2">  1       21 0.81031828E-01 0.19549346E+03</pdfrwt>
<totfact> 0.87328420E+04</totfact>
</mgrwt>
</event>
<event>
 4    1  0.3948468E+000  0.1856480E+03  0.7546771E-02  0.1162446E+00
         21   -1    0    0  503  502  0.00000000000E+00  0.00000000000E+00  0.13331781177E+04  0.13331781177E+04  0.00000000000E+00 0. -1.
         21   -1    0    0  501  503 -0.00000000000E+00 -0.00000000000E+00 -0.28321365389E+02  0.28321365389E+02  0.00000000000E+00 0. -1.
          6    1    1    2  501    0 -0.39700067650E+02 -0.54406544188E+02  0.45141119443E+03  0.48809551717E+03  0.17300000000E+03 0. -1.
         -6    1    1    2    0  502  0.39700067650E+02  0.54406544188E+02  0.85344555790E+03  0.87340396594E+03  0.17300000000E+03 0. -1.
<mgrwt>
<rscale>  2 0.18564797E+03</rscale>
<asrwt>0</asrwt>
<pdfrwt beam="1">  1       21 0.20510428E+00 0.18564797E+03</pdfrwt>
<pdfrwt beam="2">  1       21 0.43571342E-02 0.18564797E+03</pdfrwt>
<totfact> 0.42485212E+04</totfact>
</mgrwt>
</event>
<event>
 4    1  0.3948468E+000  0.2142074E+03  0.7546771E-02  0.1138277E+00
         21   -1    0    0  503  502  0.00000000000E+00  0.00000000000E+00  0.49855163422E+03  0.49855163422E+03  0.00000000000E+00 0. -1.
         21   -1    0    0  501  503 -0.00000000000E+00 -0.00000000000E+00 -0.10563349835E+03  0.10563349835E+03  0.00000000000E+00 0. -1.
          6    1    1    2  501    0  0.12569625758E+03  0.12500984467E+02  0.88075188448E+02  0.23160756163E+03  0.17300000000E+03 0. -1.
         -6    1    1    2    0  502 -0.12569625758E+03 -0.12500984467E+02  0.30484294742E+03  0.37257757095E+03  0.17300000000E+03 0. -1.
<mgrwt>
<rscale>  2 0.21420743E+03</rscale>
<asrwt>0</asrwt>
<pdfrwt beam="1">  1       21 0.76700250E-01 0.21420743E+03</pdfrwt>
<pdfrwt beam="2">  1       21 0.16251308E-01 0.21420743E+03</pdfrwt>
<totfact> 0.50706163E+04</totfact>
</mgrwt>
</event>
<event>
 4    1  0.3948468E+000  0.1948168E+03  0.7546771E-02  0.1154187E+00
         21   -1    0    0  501  502  0.00000000000E+00  0.00000000000E+00  0.56076613229E+02  0.56076613229E+02  0.00000000000E+00 0. -1.
         21   -1    0    0  502  503 -0.00000000000E+00 -0.00000000000E+00 -0.13939697984E+04  0.13939697984E+04  0.00000000000E+00 0. -1.
          6    1    1    2  501    0  0.82030611304E+02 -0.35993984763E+02 -0.14891327912E+03  0.24521164904E+03  0.17300000000E+03 0. -1.
         -6    1    1    2    0  503 -0.82030611304E+02  0.35993984763E+02 -0.11889799061E+04  0.12048347626E+04  0.17300000000E+03 0. -1.
<mgrwt>
<rscale>  2 0.19481681E+03</rscale>
<asrwt>0</asrwt>
<pdfrwt beam="1">  1       21 0.86271727E-02 0.19481681E+03</pdfrwt>
<pdfrwt beam="2">  1       21 0.21445686E+00 0.19481681E+03</pdfrwt>
<totfact> 0.11428780E+04</totfact>
</mgrwt>
</event>
<event>
 4    1  0.3948468E+000  0.3089710E+03  0.7546771E-02  0.1080840E+00
         21   -1    0    0  501  502  0.00000000000E+00  0.00000000000E+00  0.35581494755E+03  0.35581494755E+03  0.00000000000E+00 0. -1.
         21   -1    0    0  502  503 -0.00000000000E+00 -0.00000000000E+00 -0.49127848836E+03  0.49127848836E+03  0.00000000000E+00 0. -1.
          6    1    1    2  501    0  0.55616043808E+02 -0.24988181203E+03  0.21761610263E+03  0.37791511274E+03  0.17300000000E+03 0. -1.
         -6    1    1    2    0  503 -0.55616043808E+02  0.24988181203E+03 -0.35307964345E+03  0.46917832317E+03  0.17300000000E+03 0. -1.
<mgrwt>
<rscale>  2 0.30897098E+03</rscale>
<asrwt>0</asrwt>
<pdfrwt beam="1">  1       21 0.54740762E-01 0.30897098E+03</pdfrwt>
<pdfrwt beam="2">  1       21 0.75581305E-01 0.30897098E+03</pdfrwt>
<totfact> 0.45744518E+03</totfact>
</mgrwt>
</event>
<event>
 4    1  0.3948468E+000  0.2516388E+03  0.7546771E-02  0.1112273E+00
         21   -1    0    0  501  502  0.00000000000E+00  0.00000000000E+00  0.14184040364E+04  0.14184040364E+04  0.00000000000E+00 0.  1.
         21   -1    0    0  502  503 -0.00000000000E+00 -0.00000000000E+00 -0.48653263526E+02  0.48653263526E+02  0.00000000000E+00 0. -1.
          6    1    1    2  501    0 -0.13756511483E+03  0.12028684814E+03  0.89546504507E+03  0.93015038225E+03  0.17300000000E+03 0.  1.
         -6    1    1    2    0  503  0.13756511483E+03 -0.12028684814E+03  0.47428572781E+03  0.53690691769E+03  0.17300000000E+03 0. -1.
<mgrwt>
<rscale>  2 0.25163880E+03</rscale>
<asrwt>0</asrwt>
<pdfrwt beam="1">  1       21 0.21821597E+00 0.25163880E+03</pdfrwt>
<pdfrwt beam="2">  1       21 0.74851186E-02 0.25163880E+03</pdfrwt>
<totfact> 0.13290422E+04</totfact>
</mgrwt>
</event>
<event>
 4    1  0.3948468E+000  0.1961420E+03  0.7546771E-02  0.1153035E+00
         21   -1    0    0  501  502  0.00000000000E+00  0.00000000000E+00  0.30819043409E+03  0.30819043409E+03  0.00000000000E+00 0. -1.
         21   -1    0    0  502  503 -0.00000000000E+00 -0.00000000000E+00 -0.14435473970E+03  0.14435473970E+03  0.00000000000E+00 0. -1.
          6    1    1    2  501    0  0.92388565669E+02  0.26558345190E+01  0.16513227441E+03  0.25639884667E+03  0.17300000000E+03 0. -1.
         -6    1    1    2    0  503 -0.92388565669E+02 -0.26558345190E+01 -0.12965800227E+01  0.19614632712E+03  0.17300000000E+03 0. -1.
<mgrwt>
<rscale>  2 0.19614204E+03</rscale>
<asrwt>0</asrwt>
<pdfrwt beam="1">  1       21 0.47413913E-01 0.19614204E+03</pdfrwt>
<pdfrwt beam="2">  1       21 0.22208422E-01 0.19614204E+03</pdfrwt>
<totfact> 0.80564737E+04</totfact>
</mgrwt>
</event>
<event>
 4    1  0.3948468E+000  0.3903401E+03  0.7546771E-02  0.1047177E+00
         21   -1    0    0  503  502  0.00000000000E+00  0.00000000000E+00  0.73723629991E+03  0.73723629991E+03  0.00000000000E+00 0. -1.
         21   -1    0    0  501  503 -0.00000000000E+00 -0.00000000000E+00 -0.53108040925E+03  0.53108040925E+03  0.00000000000E+00 0.  1.
          6    1    1    2  501    0  0.34613176048E+03 -0.51275428430E+02 -0.39255971374E+03  0.55359596641E+03  0.17300000000E+03 0.  1.
         -6    1    1    2    0  502 -0.34613176048E+03  0.51275428430E+02  0.59871560440E+03  0.71472074275E+03  0.17300000000E+03 0. -1.
<mgrwt>
<rscale>  2 0.39034006E+03</rscale>
<asrwt>0</asrwt>
<pdfrwt beam="1">  1       21 0.11342097E+00 0.39034006E+03</pdfrwt>
<pdfrwt beam="2">  1       21 0.81704678E-01 0.39034006E+03</pdfrwt>
<totfact> 0.68853783E+02</totfact>
</mgrwt>
</event>
<event>
 4    1  0.3948468E+000  0.2478076E+03  0.7546771E-02  0.1114698E+00
         21   -1    0    0  501  502  0.00000000000E+00  0.00000000000E+00  0.34569841324E+03  0.34569841324E+03  0.00000000000E+00 0.  1.
         21   -1    0    0  502  503 -0.00000000000E+00 -0.00000000000E+00 -0.21979220987E+03  0.21979220987E+03  0.00000000000E+00 0. -1.
          6    1    1    2  501    0  0.15581104912E+03 -0.84867627758E+02  0.18678095548E+03  0.31031552104E+03  0.17300000000E+03 0.  1.
         -6    1    1    2    0  503 -0.15581104912E+03  0.84867627758E+02 -0.60874752109E+02  0.25517510206E+03  0.17300000000E+03 0. -1.
<mgrwt>
<rscale>  2 0.24780758E+03</rscale>
<asrwt>0</asrwt>
<pdfrwt beam="1">  1       21 0.53184371E-01 0.24780758E+03</pdfrwt>
<pdfrwt beam="2">  1       21 0.33814186E-01 0.24780758E+03</pdfrwt>
<totfact> 0.27422306E+04</totfact>
</mgrwt>
</event>
<event>
 4    1  0.3948468E+000  0.1784251E+03  0.7546771E-02  0.1169336E+00
         21   -1    0    0  501  502  0.00000000000E+00  0.00000000000E+00  0.14887635314E+03  0.14887635314E+03  0.00000000000E+00 0. -1.
         21   -1    0    0  502  503 -0.00000000000E+00 -0.00000000000E+00 -0.26776087513E+03  0.26776087513E+03  0.00000000000E+00 0. -1.
          6    1    1    2  501    0 -0.23820463513E+02 -0.36593830874E+02  0.34041956561E+02  0.18164354584E+03  0.17300000000E+03 0. -1.
         -6    1    1    2    0  503  0.23820463513E+02  0.36593830874E+02 -0.15292647854E+03  0.23499368243E+03  0.17300000000E+03 0. -1.
<mgrwt>
<rscale>  2 0.17842512E+03</rscale>
<asrwt>0</asrwt>
<pdfrwt beam="1">  1       21 0.22904054E-01 0.17842512E+03</pdfrwt>
<pdfrwt beam="2">  1       21 0.41193981E-01 0.17842512E+03</pdfrwt>
<totfact> 0.10207048E+05</totfact>
</mgrwt>
</event>
<event>
 4    1  0.3948468E+000  0.1971118E+03  0.7546771E-02  0.1152199E+00
         21   -1    0    0  503  502  0.00000000000E+00  0.00000000000E+00  0.80192081636E+03  0.80192081636E+03  0.00000000000E+00 0. -1.
         21   -1    0    0  501  503 -0.00000000000E+00 -0.00000000000E+00 -0.10167877268E+03  0.10167877268E+03  0.00000000000E+00 0. -1.
          6    1    1    2  501    0 -0.87374394475E+02  0.35913361622E+02  0.23229125568E+02  0.19847580867E+03  0.17300000000E+03 0. -1.
         -6    1    1    2    0  502  0.87374394475E+02 -0.35913361622E+02  0.67701291811E+03  0.70512378037E+03  0.17300000000E+03 0. -1.
<mgrwt>
<rscale>  2 0.19711178E+03</rscale>
<asrwt>0</asrwt>
<pdfrwt beam="1">  1       21 0.12337243E+00 0.19711178E+03</pdfrwt>
<pdfrwt beam="2">  1       21 0.15642889E-01 0.19711178E+03</pdfrwt>
<totfact> 0.17858872E+04</totfact>
</mgrwt>
</event>
<event>
 4    1  0.3948468E+000  0.1756068E+03  0.7546771E-02  0.1172124E+00
         21   -1    0    0  503  502  0.00000000000E+00  0.00000000000E+00  0.44611313934E+02  0.44611313934E+02  0.00000000000E+00 0.  1.
         21   -1    0    0  501  503 -0.00000000000E+00 -0.00000000000E+00 -0.73790497209E+03  0.73790497209E+03  0.00000000000E+00 0.  1.
          6    1    1    2  501    0 -0.28816152845E+02  0.88540775526E+01 -0.44502343493E+03  0.47841783307E+03  0.17300000000E+03 0.  1.
         -6    1    1    2    0  502  0.28816152845E+02 -0.88540775526E+01 -0.24827022322E+03  0.30409845296E+03  0.17300000000E+03 0.  1.
<mgrwt>
<rscale>  2 0.17560685E+03</rscale>
<asrwt>0</asrwt>
<pdfrwt beam="1">  1       21 0.68632789E-02 0.17560685E+03</pdfrwt>
<pdfrwt beam="2">  1       21 0.11352384E+00 0.17560685E+03</pdfrwt>
<totfact> 0.95390256E+04</totfact>
</mgrwt>
</event>
<event>
 4    1  0.3948468E+000  0.1931442E+03  0.7546771E-02  0.1155656E+00
         21   -1    0    0  503  502  0.00000000000E+00  0.00000000000E+00  0.23443936994E+03  0.23443936994E+03  0.00000000000E+00 0. -1.
         21   -1    0    0  501  503 -0.00000000000E+00 -0.00000000000E+00 -0.23962963773E+03  0.23962963773E+03  0.00000000000E+00 0. -1.
          6    1    1    2  501    0  0.75886665049E+02 -0.40210858696E+02 -0.13998576244E+03  0.23853870289E+03  0.17300000000E+03 0. -1.
         -6    1    1    2    0  502 -0.75886665049E+02  0.40210858696E+02  0.13479549465E+03  0.23553030478E+03  0.17300000000E+03 0. -1.
<mgrwt>
<rscale>  2 0.19314424E+03</rscale>
<asrwt>0</asrwt>
<pdfrwt beam="1">  1       21 0.36067595E-01 0.19314424E+03</pdfrwt>
<pdfrwt beam="2">  1       21 0.36866098E-01 0.19314424E+03</pdfrwt>
<totfact> 0.52594914E+04</totfact>
</mgrwt>
</event>
<event>
 4    1  0.3948468E+000  0.2060681E+03  0.7546771E-02  0.1144718E+00
         21   -1    0    0  503  502  0.00000000000E+00  0.00000000000E+00  0.13668534558E+03  0.13668534558E+03  0.00000000000E+00 0. -1.
         21   -1    0    0  501  503 -0.00000000000E+00 -0.00000000000E+00 -0.53301529435E+03  0.53301529435E+03  0.00000000000E+00 0.  1.
          6    1    1    2  501    0 -0.10093324982E+03  0.48451530666E+02 -0.41443413814E+03  0.46283876955E+03  0.17300000000E+03 0.  1.
         -6    1    1    2    0  502  0.10093324982E+03 -0.48451530666E+02  0.18104189363E+02  0.20686187038E+03  0.17300000000E+03 0. -1.
<mgrwt>
<rscale>  2 0.20606812E+03</rscale>
<asrwt>0</asrwt>
<pdfrwt beam="1">  1       21 0.21028515E-01 0.20606812E+03</pdfrwt>
<pdfrwt beam="2">  1       21 0.82002353E-01 0.20606812E+03</pdfrwt>
<totfact> 0.27119373E+04</totfact>
</mgrwt>
</event>
<event>
 4    1  0.3948468E+000  0.1925463E+03  0.7546771E-02  0.1156185E+00
         21   -1    0    0  503  502  0.00000000000E+00  0.00000000000E+00  0.17431563165E+04  0.17431563165E+04  0.00000000000E+00 0. -1.
         21   -1    0    0  501  503 -0.00000000000E+00 -0.00000000000E+00 -0.65033291395E+02  0.65033291395E+02  0.00000000000E+00 0. -1.
          6    1    1    2  501    0  0.76877864011E+02  0.35140467452E+02  0.97393955135E+02  0.21577683130E+03  0.17300000000E+03 0. -1.
         -6    1    1    2    0  502 -0.76877864011E+02 -0.35140467452E+02  0.15807290700E+04  0.15924127766E+04  0.17300000000E+03 0. -1.
<mgrwt>
<rscale>  2 0.19254625E+03</rscale>
<asrwt>0</asrwt>
<pdfrwt beam="1">  1       21 0.26817786E+00 0.19254625E+03</pdfrwt>
<pdfrwt beam="2">  1       21 0.10005123E-01 0.19254625E+03</pdfrwt>
<totfact> 0.42231455E+03</totfact>
</mgrwt>
</event>
<event>
 4    1  0.3948468E+000  0.2253819E+03  0.7546771E-02  0.1129933E+00
         21   -1    0    0  503  502  0.00000000000E+00  0.00000000000E+00  0.36401206028E+03  0.36401206028E+03  0.00000000000E+00 0.  1.
         21   -1    0    0  501  503 -0.00000000000E+00 -0.00000000000E+00 -0.21254536001E+03  0.21254536001E+03  0.00000000000E+00 0. -1.
          6    1    1    2  501    0  0.14444392341E+03  0.19831590162E+01 -0.93210257329E+02  0.24389574003E+03  0.17300000000E+03 0. -1.
         -6    1    1    2    0  502 -0.14444392341E+03 -0.19831590162E+01  0.24467695760E+03  0.33266168026E+03  0.17300000000E+03 0. -1.
<mgrwt>
<rscale>  2 0.22538185E+03</rscale>
<asrwt>0</asrwt>
<pdfrwt beam="1">  1       21 0.56001855E-01 0.22538185E+03</pdfrwt>
<pdfrwt beam="2">  1       21 0.32699286E-01 0.22538185E+03</pdfrwt>
<totfact> 0.26547239E+04</totfact>
</mgrwt>
</event>
<event>
 4    1  0.3948468E+000  0.1748694E+03  0.7546771E-02  0.1172863E+00
         21   -1    0    0  503  502  0.00000000000E+00  0.00000000000E+00  0.19745167669E+03  0.19745167669E+03  0.00000000000E+00 0. -1.
         21   -1    0    0  501  503 -0.00000000000E+00 -0.00000000000E+00 -0.15644124560E+03  0.15644124560E+03  0.00000000000E+00 0. -1.
          6    1    1    2  501    0  0.24891877532E+02 -0.55416625154E+01  0.38239194451E+02  0.17900154073E+03  0.17300000000E+03 0. -1.
         -6    1    1    2    0  502 -0.24891877532E+02  0.55416625154E+01  0.27712366341E+01  0.17489138156E+03  0.17300000000E+03 0. -1.
<mgrwt>
<rscale>  2 0.17486942E+03</rscale>
<asrwt>0</asrwt>
<pdfrwt beam="1">  1       21 0.30377181E-01 0.17486942E+03</pdfrwt>
<pdfrwt beam="2">  1       21 0.24067884E-01 0.17486942E+03</pdfrwt>
<totfact> 0.17027430E+05</totfact>
</mgrwt>
</event>
<event>
 4    1  0.3948468E+000  0.2030513E+03  0.7546771E-02  0.1147190E+00
         21   -1    0    0  501  502  0.00000000000E+00  0.00000000000E+00  0.26114073536E+03  0.26114073536E+03  0.00000000000E+00 0. -1.
         21   -1    0    0  502  503 -0.00000000000E+00 -0.00000000000E+00 -0.15839592754E+03  0.15839592754E+03  0.00000000000E+00 0. -1.
          6    1    1    2  501    0 -0.68111552877E+02  0.81618892626E+02  0.39441826431E+02  0.20684652509E+03  0.17300000000E+03 0. -1.
         -6    1    1    2    0  503  0.68111552877E+02 -0.81618892626E+02  0.63302981388E+02  0.21269013781E+03  0.17300000000E+03 0. -1.
<mgrwt>
<rscale>  2 0.20305129E+03</rscale>
<asrwt>0</asrwt>
<pdfrwt beam="1">  1       21 0.40175498E-01 0.20305129E+03</pdfrwt>
<pdfrwt beam="2">  1       21 0.24368604E-01 0.20305129E+03</pdfrwt>
<totfact> 0.94549012E+04</totfact>
</mgrwt>
</event>
<event>
 4    1  0.3948468E+000  0.1736066E+03  0.7546771E-02  0.1174138E+00
         21   -1    0    0  503  502  0.00000000000E+00  0.00000000000E+00  0.22040681565E+03  0.22040681565E+03  0.00000000000E+00 0. -1.
         21   -1    0    0  501  503 -0.00000000000E+00 -0.00000000000E+00 -0.23605368530E+03  0.23605368530E+03  0.00000000000E+00 0. -1.
          6    1    1    2  501    0 -0.18564588473E+00 -0.14498867037E+02 -0.15585836134E+03  0.23330469436E+03  0.17300000000E+03 0. -1.
         -6    1    1    2    0  502  0.18564588473E+00  0.14498867037E+02  0.14021149170E+03  0.22315580659E+03  0.17300000000E+03 0. -1.
<mgrwt>
<rscale>  2 0.17360660E+03</rscale>
<asrwt>0</asrwt>
<pdfrwt beam="1">  1       21 0.33908741E-01 0.17360660E+03</pdfrwt>
<pdfrwt beam="2">  1       21 0.36315952E-01 0.17360660E+03</pdfrwt>
<totfact> 0.61793298E+04</totfact>
</mgrwt>
</event>
<event>
 4    1  0.3948468E+000  0.1774389E+03  0.7546771E-02  0.1170305E+00
         21   -1    0    0  501  502  0.00000000000E+00  0.00000000000E+00  0.33862355554E+03  0.33862355554E+03  0.00000000000E+00 0.  1.
         21   -1    0    0  502  503 -0.00000000000E+00 -0.00000000000E+00 -0.10481637827E+03  0.10481637827E+03  0.00000000000E+00 0.  1.
          6    1    1    2  501    0  0.95971851372E+01 -0.38255215738E+02  0.19141707758E+03  0.26100778740E+03  0.17300000000E+03 0. -1.
         -6    1    1    2    0  503 -0.95971851372E+01  0.38255215738E+02  0.42390099682E+02  0.18243214641E+03  0.17300000000E+03 0. -1.
<mgrwt>
<rscale>  2 0.17743891E+03</rscale>
<asrwt>0</asrwt>
<pdfrwt beam="1">  1       21 0.52095931E-01 0.17743891E+03</pdfrwt>
<pdfrwt beam="2">  1       21 0.16125597E-01 0.17743891E+03</pdfrwt>
<totfact> 0.12084781E+05</totfact>
</mgrwt>
</event>
<event>
 4    1  0.3948468E+000  0.2111414E+03  0.7546771E-02  0.1140665E+00
         21   -1    0    0  501  502  0.00000000000E+00  0.00000000000E+00  0.96832674239E+02  0.96832674239E+02  0.00000000000E+00 0.  1.
         21   -1    0    0  502  503 -0.00000000000E+00 -0.00000000000E+00 -0.81772573529E+03  0.81772573529E+03  0.00000000000E+00 0. -1.
          6    1    1    2  501    0 -0.11569001694E+03 -0.35601854343E+02 -0.58161518294E+02  0.21900555761E+03  0.17300000000E+03 0.  1.
         -6    1    1    2    0  503  0.11569001694E+03  0.35601854343E+02 -0.66273154276E+03  0.69555285192E+03  0.17300000000E+03 0. -1.
<mgrwt>
<rscale>  2 0.21114136E+03</rscale>
<asrwt>0</asrwt>
<pdfrwt beam="1">  1       21 0.14897335E-01 0.21114136E+03</pdfrwt>
<pdfrwt beam="2">  1       21 0.12580396E+00 0.21114136E+03</pdfrwt>
<totfact> 0.18425465E+04</totfact>
</mgrwt>
</event>
<event>
 4    1  0.3948468E+000  0.1791153E+03  0.7546771E-02  0.1168662E+00
         21   -1    0    0  503  502  0.00000000000E+00  0.00000000000E+00  0.62659472800E+03  0.62659472800E+03  0.00000000000E+00 0. -1.
         21   -1    0    0  501  503 -0.00000000000E+00 -0.00000000000E+00 -0.52327471080E+02  0.52327471080E+02  0.00000000000E+00 0. -1.
          6    1    1    2  501    0 -0.46400850855E+02 -0.49495163983E+00  0.23732748361E+03  0.29733250480E+03  0.17300000000E+03 0. -1.
         -6    1    1    2    0  502  0.46400850855E+02  0.49495163983E+00  0.33693977331E+03  0.38158969427E+03  0.17300000000E+03 0. -1.
<mgrwt>
<rscale>  2 0.17911528E+03</rscale>
<asrwt>0</asrwt>
<pdfrwt beam="1">  1       21 0.96399184E-01 0.17911528E+03</pdfrwt>
<pdfrwt beam="2">  1       21 0.80503806E-02 0.17911528E+03</pdfrwt>
<totfact> 0.10682651E+05</totfact>
</mgrwt>
</event>
<event>
 4    1  0.3948468E+000  0.1858389E+03  0.7546771E-02  0.1162269E+00
         21   -1    0    0  501  502  0.00000000000E+00  0.00000000000E+00  0.41314914339E+03  0.41314914339E+03  0.00000000000E+00 0.  1.
         21   -1    0    0  502  503 -0.00000000000E+00 -0.00000000000E+00 -0.10022278228E+03  0.10022278228E+03  0.00000000000E+00 0.  1.
          6    1    1    2  501    0 -0.64215452873E+02 -0.21987738712E+02  0.26102457829E+03  0.32042146544E+03  0.17300000000E+03 0.  1.
         -6    1    1    2    0  503  0.64215452873E+02  0.21987738712E+02  0.51901782820E+02  0.19295046023E+03  0.17300000000E+03 0.  1.
<mgrwt>
<rscale>  2 0.18583887E+03</rscale>
<asrwt>0</asrwt>
<pdfrwt beam="1">  1       21 0.63561406E-01 0.18583887E+03</pdfrwt>
<pdfrwt beam="2">  1       21 0.15418890E-01 0.18583887E+03</pdfrwt>
<totfact> 0.85596494E+04</totfact>
</mgrwt>
</event>
<event>
 4    1  0.3948468E+000  0.2381547E+03  0.7546771E-02  0.1121028E+00
         21   -1    0    0  501  502  0.00000000000E+00  0.00000000000E+00  0.61802880656E+03  0.61802880656E+03  0.00000000000E+00 0. -1.
         21   -1    0    0  502  503 -0.00000000000E+00 -0.00000000000E+00 -0.11789800884E+03  0.11789800884E+03  0.00000000000E+00 0. -1.
          6    1    1    2  501    0  0.34845655447E+02 -0.15992008667E+03  0.42328182974E+03  0.48568010172E+03  0.17300000000E+03 0. -1.
         -6    1    1    2    0  503 -0.34845655447E+02  0.15992008667E+03  0.76848967978E+02  0.25024671367E+03  0.17300000000E+03 0. -1.
<mgrwt>
<rscale>  2 0.23815468E+03</rscale>
<asrwt>0</asrwt>
<pdfrwt beam="1">  1       21 0.95081353E-01 0.23815468E+03</pdfrwt>
<pdfrwt beam="2">  1       21 0.18138155E-01 0.23815468E+03</pdfrwt>
<totfact> 0.24956967E+04</totfact>
</mgrwt>
</event>
<event>
 4    1  0.3948468E+000  0.2588219E+03  0.7546771E-02  0.1107853E+00
         21   -1    0    0  503  502  0.00000000000E+00  0.00000000000E+00  0.62687316529E+02  0.62687316529E+02  0.00000000000E+00 0. -1.
         21   -1    0    0  501  503 -0.00000000000E+00 -0.00000000000E+00 -0.12516522367E+04  0.12516522367E+04  0.00000000000E+00 0.  1.
          6    1    1    2  501    0 -0.12333351065E+03  0.14781287145E+03 -0.84578785602E+03  0.88450319231E+03  0.17300000000E+03 0.  1.
         -6    1    1    2    0  502  0.12333351065E+03 -0.14781287145E+03 -0.34317706420E+03  0.42983636097E+03  0.17300000000E+03 0. -1.
<mgrwt>
<rscale>  2 0.25882195E+03</rscale>
<asrwt>0</asrwt>
<pdfrwt beam="1">  1       21 0.96442023E-02 0.25882195E+03</pdfrwt>
<pdfrwt beam="2">  1       21 0.19256189E+00 0.25882195E+03</pdfrwt>
<totfact> 0.12384649E+04</totfact>
</mgrwt>
</event>
<event>
 4    1  0.3948468E+000  0.3472629E+03  0.7546771E-02  0.1063744E+00
         21   -1    0    0  503  502  0.00000000000E+00  0.00000000000E+00  0.81388230517E+03  0.81388230517E+03  0.00000000000E+00 0.  1.
         21   -1    0    0  501  503 -0.00000000000E+00 -0.00000000000E+00 -0.18967427972E+03  0.18967427972E+03  0.00000000000E+00 0. -1.
          6    1    1    2  501    0 -0.21250150099E+03  0.21332057457E+03  0.77377041035E+02  0.35577909148E+03  0.17300000000E+03 0. -1.
         -6    1    1    2    0  502  0.21250150099E+03 -0.21332057457E+03  0.54683098441E+03  0.64777749341E+03  0.17300000000E+03 0.  1.
<mgrwt>
<rscale>  2 0.34726295E+03</rscale>
<asrwt>0</asrwt>
<pdfrwt beam="1">  1       21 0.12521266E+00 0.34726295E+03</pdfrwt>
<pdfrwt beam="2">  1       21 0.29180659E-01 0.34726295E+03</pdfrwt>
<totfact> 0.48624274E+03</totfact>
</mgrwt>
</event>
<event>
 4    1  0.3948468E+000  0.3383850E+03  0.7546771E-02  0.1067486E+00
         21   -1    0    0  503  502  0.00000000000E+00  0.00000000000E+00  0.14091189416E+04  0.14091189416E+04  0.00000000000E+00 0.  1.
         21   -1    0    0  501  503 -0.00000000000E+00 -0.00000000000E+00 -0.14077805164E+03  0.14077805164E+03  0.00000000000E+00 0. -1.
          6    1    1    2  501    0 -0.25677268162E+03 -0.13654004600E+03  0.13028559618E+03  0.36259995968E+03  0.17300000000E+03 0. -1.
         -6    1    1    2    0  502  0.25677268162E+03  0.13654004600E+03  0.11380552938E+04  0.11872970335E+04  0.17300000000E+03 0.  1.
<mgrwt>
<rscale>  2 0.33838498E+03</rscale>
<asrwt>0</asrwt>
<pdfrwt beam="1">  1       21 0.21678752E+00 0.33838498E+03</pdfrwt>
<pdfrwt beam="2">  1       21 0.21658163E-01 0.33838498E+03</pdfrwt>
<totfact> 0.18608123E+03</totfact>
</mgrwt>
</event>
<event>
 4    1  0.3948468E+000  0.2215853E+03  0.7546771E-02  0.1132707E+00
         21   -1    0    0  501  502  0.00000000000E+00  0.00000000000E+00  0.45601699277E+03  0.45601699277E+03  0.00000000000E+00 0.  1.
         21   -1    0    0  502  503 -0.00000000000E+00 -0.00000000000E+00 -0.11645550059E+03  0.11645550059E+03  0.00000000000E+00 0.  1.
          6    1    1    2  501    0 -0.13589112390E+03 -0.26545194221E+02  0.24839299006E+03  0.33286502129E+03  0.17300000000E+03 0.  1.
         -6    1    1    2    0  503  0.13589112390E+03  0.26545194221E+02  0.91168502122E+02  0.23960747207E+03  0.17300000000E+03 0.  1.
<mgrwt>
<rscale>  2 0.22158530E+03</rscale>
<asrwt>0</asrwt>
<pdfrwt beam="1">  1       21 0.70156459E-01 0.22158530E+03</pdfrwt>
<pdfrwt beam="2">  1       21 0.17916231E-01 0.22158530E+03</pdfrwt>
<totfact> 0.51500738E+04</totfact>
</mgrwt>
</event>
<event>
 4    1  0.3948468E+000  0.2069203E+03  0.7546771E-02  0.1144028E+00
         21   -1    0    0  501  502  0.00000000000E+00  0.00000000000E+00  0.21284737462E+04  0.21284737462E+04  0.00000000000E+00 0. -1.
         21   -1    0    0  502  503 -0.00000000000E+00 -0.00000000000E+00 -0.20119491107E+02  0.20119491107E+02  0.00000000000E+00 0.  1.
          6    1    1    2  501    0  0.64500779905E+01  0.11333766098E+03  0.10396973104E+04  0.10600879803E+04  0.17300000000E+03 0. -1.
         -6    1    1    2    0  503 -0.64500779905E+01 -0.11333766098E+03  0.10686569447E+04  0.10885052569E+04  0.17300000000E+03 0. -1.
<mgrwt>
<rscale>  2 0.20692034E+03</rscale>
<asrwt>0</asrwt>
<pdfrwt beam="1">  1       21 0.32745732E+00 0.20692034E+03</pdfrwt>
<pdfrwt beam="2">  1       21 0.30953080E-02 0.20692034E+03</pdfrwt>
<totfact> 0.14019039E+04</totfact>
</mgrwt>
</event>
<event>
 4    1  0.3948468E+000  0.2670856E+03  0.7546771E-02  0.1102959E+00
         21   -1    0    0  503  502  0.00000000000E+00  0.00000000000E+00  0.15002611360E+03  0.15002611360E+03  0.00000000000E+00 0.  1.
         21   -1    0    0  501  503 -0.00000000000E+00 -0.00000000000E+00 -0.53986903516E+03  0.53986903516E+03  0.00000000000E+00 0.  1.
          6    1    1    2  501    0 -0.17704668284E+03  0.10030060253E+03 -0.75795175272E+02  0.27763221601E+03  0.17300000000E+03 0.  1.
         -6    1    1    2    0  502  0.17704668284E+03 -0.10030060253E+03 -0.31404774628E+03  0.41226293275E+03  0.17300000000E+03 0.  1.
<mgrwt>
<rscale>  2 0.26708564E+03</rscale>
<asrwt>0</asrwt>
<pdfrwt beam="1">  1       21 0.23080940E-01 0.26708564E+03</pdfrwt>
<pdfrwt beam="2">  1       21 0.83056776E-01 0.26708564E+03</pdfrwt>
<totfact> 0.21413811E+04</totfact>
</mgrwt>
</event>
<event>
 4    1  0.3948468E+000  0.2425202E+03  0.7546771E-02  0.1118125E+00
         21   -1    0    0  503  502  0.00000000000E+00  0.00000000000E+00  0.14512862152E+03  0.14512862152E+03  0.00000000000E+00 0. -1.
         21   -1    0    0  501  503 -0.00000000000E+00 -0.00000000000E+00 -0.20913694287E+04  0.20913694287E+04  0.00000000000E+00 0.  1.
          6    1    1    2  501    0 -0.16555683402E+03 -0.38444229813E+02 -0.19771926551E+04  0.19920107479E+04  0.17300000000E+03 0.  1.
         -6    1    1    2    0  502  0.16555683402E+03  0.38444229813E+02  0.30951847991E+02  0.24448730231E+03  0.17300000000E+03 0. -1.
<mgrwt>
<rscale>  2 0.24252015E+03</rscale>
<asrwt>0</asrwt>
<pdfrwt beam="1">  1       21 0.22327483E-01 0.24252015E+03</pdfrwt>
<pdfrwt beam="2">  1       21 0.32174910E+00 0.24252015E+03</pdfrwt>
<totfact> 0.44899552E+02</totfact>
</mgrwt>
</event>
<event>
 4    1  0.3948468E+000  0.1984290E+03  0.7546771E-02  0.1151071E+00
         21   -1    0    0  501  502  0.00000000000E+00  0.00000000000E+00  0.55478197635E+03  0.55478197635E+03  0.00000000000E+00 0. -1.
         21   -1    0    0  502  503 -0.00000000000E+00 -0.00000000000E+00 -0.93533878696E+02  0.93533878696E+02  0.00000000000E+00 0. -1.
          6    1    1    2  501    0  0.86035187254E+02  0.45199834322E+02  0.38982960055E+03  0.43742564617E+03  0.17300000000E+03 0. -1.
         -6    1    1    2    0  503 -0.86035187254E+02 -0.45199834322E+02  0.71418497107E+02  0.21089020887E+03  0.17300000000E+03 0. -1.
<mgrwt>
<rscale>  2 0.19842903E+03</rscale>
<asrwt>0</asrwt>
<pdfrwt beam="1">  1       21 0.85351072E-01 0.19842903E+03</pdfrwt>
<pdfrwt beam="2">  1       21 0.14389828E-01 0.19842903E+03</pdfrwt>
<totfact> 0.50070144E+04</totfact>
</mgrwt>
</event>
<event>
 4    1  0.3948468E+000  0.2029105E+03  0.7546771E-02  0.1147306E+00
         21   -1    0    0  501  502  0.00000000000E+00  0.00000000000E+00  0.43989658621E+03  0.43989658621E+03  0.00000000000E+00 0. -1.
         21   -1    0    0  502  503 -0.00000000000E+00 -0.00000000000E+00 -0.21851603390E+03  0.21851603390E+03  0.00000000000E+00 0. -1.
          6    1    1    2  501    0  0.31852944062E+02 -0.10113878028E+03  0.35960015862E+03  0.41289821627E+03  0.17300000000E+03 0. -1.
         -6    1    1    2    0  503 -0.31852944062E+02  0.10113878028E+03 -0.13821960631E+03  0.24551440384E+03  0.17300000000E+03 0. -1.
<mgrwt>
<rscale>  2 0.20291048E+03</rscale>
<asrwt>0</asrwt>
<pdfrwt beam="1">  1       21 0.67676398E-01 0.20291048E+03</pdfrwt>
<pdfrwt beam="2">  1       21 0.33617852E-01 0.20291048E+03</pdfrwt>
<totfact> 0.16899902E+04</totfact>
</mgrwt>
</event>
<event>
 4    1  0.3948468E+000  0.1792550E+03  0.7546771E-02  0.1168526E+00
         21   -1    0    0  503  502  0.00000000000E+00  0.00000000000E+00  0.20022929336E+03  0.20022929336E+03  0.00000000000E+00 0. -1.
         21   -1    0    0  501  503 -0.00000000000E+00 -0.00000000000E+00 -0.16413128326E+03  0.16413128326E+03  0.00000000000E+00 0. -1.
          6    1    1    2  501    0 -0.66711241172E+01  0.46463422048E+02 -0.91316648914E+01  0.17948743908E+03  0.17300000000E+03 0.  1.
         -6    1    1    2    0  502  0.66711241172E+01 -0.46463422048E+02  0.45229674989E+02  0.18487313754E+03  0.17300000000E+03 0.  1.
<mgrwt>
<rscale>  2 0.17925500E+03</rscale>
<asrwt>0</asrwt>
<pdfrwt beam="1">  1       21 0.30804506E-01 0.17925500E+03</pdfrwt>
<pdfrwt beam="2">  1       21 0.25250967E-01 0.17925500E+03</pdfrwt>
<totfact> 0.15103041E+05</totfact>
</mgrwt>
</event>
<event>
 4    1  0.3948468E+000  0.1875459E+03  0.7546771E-02  0.1160694E+00
         21   -1    0    0  501  502  0.00000000000E+00  0.00000000000E+00  0.51173850815E+03  0.51173850815E+03  0.00000000000E+00 0.  1.
         21   -1    0    0  502  503 -0.00000000000E+00 -0.00000000000E+00 -0.17225881165E+03  0.17225881165E+03  0.00000000000E+00 0.  1.
          6    1    1    2  501    0 -0.59080563661E+02 -0.41880243835E+02  0.43486895511E+03  0.47358681986E+03  0.17300000000E+03 0.  1.
         -6    1    1    2    0  503  0.59080563661E+02  0.41880243835E+02 -0.95389258610E+02  0.21041049994E+03  0.17300000000E+03 0.  1.
<mgrwt>
<rscale>  2 0.18754591E+03</rscale>
<asrwt>0</asrwt>
<pdfrwt beam="1">  1       21 0.78729000E-01 0.18754591E+03</pdfrwt>
<pdfrwt beam="2">  1       21 0.26501356E-01 0.18754591E+03</pdfrwt>
<totfact> 0.19376213E+04</totfact>
</mgrwt>
</event>
<event>
 4    1  0.3948468E+000  0.1781688E+03  0.7546771E-02  0.1169587E+00
         21   -1    0    0  503  502  0.00000000000E+00  0.00000000000E+00  0.74200713193E+02  0.74200713193E+02  0.00000000000E+00 0. -1.
         21   -1    0    0  501  503 -0.00000000000E+00 -0.00000000000E+00 -0.43176571054E+03  0.43176571054E+03  0.00000000000E+00 0. -1.
          6    1    1    2  501    0 -0.23320926802E+02 -0.35654823944E+02 -0.20298383334E+03  0.27008622456E+03  0.17300000000E+03 0. -1.
         -6    1    1    2    0  502  0.23320926802E+02  0.35654823944E+02 -0.15458116400E+03  0.23588019917E+03  0.17300000000E+03 0. -1.
<mgrwt>
<rscale>  2 0.17816883E+03</rscale>
<asrwt>0</asrwt>
<pdfrwt beam="1">  1       21 0.11415494E-01 0.17816883E+03</pdfrwt>
<pdfrwt beam="2">  1       21 0.66425494E-01 0.17816883E+03</pdfrwt>
<totfact> 0.13404246E+05</totfact>
</mgrwt>
</event>
<event>
 4    1  0.3948468E+000  0.2793797E+03  0.7546771E-02  0.1096028E+00
         21   -1    0    0  503  502  0.00000000000E+00  0.00000000000E+00  0.19208620954E+04  0.19208620954E+04  0.00000000000E+00 0.  1.
         21   -1    0    0  501  503 -0.00000000000E+00 -0.00000000000E+00 -0.57321114357E+02  0.57321114357E+02  0.00000000000E+00 0. -1.
          6    1    1    2  501    0 -0.18112110027E+03  0.12377069316E+03  0.39811018699E+03  0.48635867262E+03  0.17300000000E+03 0. -1.
         -6    1    1    2    0  502  0.18112110027E+03 -0.12377069316E+03  0.14654307940E+04  0.14918245371E+04  0.17300000000E+03 0.  1.
<mgrwt>
<rscale>  2 0.27937974E+03</rscale>
<asrwt>0</asrwt>
<pdfrwt beam="1">  1       21 0.29551720E+00 0.27937974E+03</pdfrwt>
<pdfrwt beam="2">  1       21 0.88186345E-02 0.27937974E+03</pdfrwt>
<totfact> 0.33650555E+03</totfact>
</mgrwt>
</event>
<event>
 4    1  0.3948468E+000  0.1823369E+03  0.7546771E-02  0.1165560E+00
         21   -1    0    0  501  502  0.00000000000E+00  0.00000000000E+00  0.40089035201E+03  0.40089035201E+03  0.00000000000E+00 0.  1.
         21   -1    0    0  502  503 -0.00000000000E+00 -0.00000000000E+00 -0.16860080861E+03  0.16860080861E+03  0.00000000000E+00 0.  1.
          6    1    1    2  501    0 -0.56680979634E+02 -0.10247151752E+02  0.31911760010E+03  0.36753609383E+03  0.17300000000E+03 0.  1.
         -6    1    1    2    0  503  0.56680979634E+02  0.10247151752E+02 -0.86828056699E+02  0.20195506679E+03  0.17300000000E+03 0.  1.
<mgrwt>
<rscale>  2 0.18233688E+03</rscale>
<asrwt>0</asrwt>
<pdfrwt beam="1">  1       21 0.61675439E-01 0.18233688E+03</pdfrwt>
<pdfrwt beam="2">  1       21 0.25938586E-01 0.18233688E+03</pdfrwt>
<totfact> 0.34657689E+04</totfact>
</mgrwt>
</event>
<event>
 4    1  0.3948468E+000  0.1764511E+03  0.7546771E-02  0.1171283E+00
         21   -1    0    0  501  502  0.00000000000E+00  0.00000000000E+00  0.75032338286E+03  0.75032338286E+03  0.00000000000E+00 0. -1.
         21   -1    0    0  502  503 -0.00000000000E+00 -0.00000000000E+00 -0.44388747858E+02  0.44388747858E+02  0.00000000000E+00 0. -1.
          6    1    1    2  501    0  0.34724359125E+02  0.45971956292E+00  0.45441482201E+03  0.48747084315E+03  0.17300000000E+03 0. -1.
         -6    1    1    2    0  503 -0.34724359125E+02 -0.45971956292E+00  0.25151981298E+03  0.30724128756E+03  0.17300000000E+03 0. -1.
<mgrwt>
<rscale>  2 0.17645111E+03</rscale>
<asrwt>0</asrwt>
<pdfrwt beam="1">  1       21 0.11543436E+00 0.17645111E+03</pdfrwt>
<pdfrwt beam="2">  1       21 0.68290387E-02 0.17645111E+03</pdfrwt>
<totfact> 0.92357451E+04</totfact>
</mgrwt>
</event>
<event>
 4    1  0.3948468E+000  0.2718446E+03  0.7546771E-02  0.1100229E+00
         21   -1    0    0  501  502  0.00000000000E+00  0.00000000000E+00  0.14670216365E+04  0.14670216365E+04  0.00000000000E+00 0. -1.
         21   -1    0    0  502  503 -0.00000000000E+00 -0.00000000000E+00 -0.69448844855E+02  0.69448844855E+02  0.00000000000E+00 0.  1.
          6    1    1    2  501    0  0.12350294718E+03  0.16946243593E+03  0.29616747478E+03  0.40201326878E+03  0.17300000000E+03 0.  1.
         -6    1    1    2    0  503 -0.12350294718E+03 -0.16946243593E+03  0.11014053169E+04  0.11344572126E+04  0.17300000000E+03 0. -1.
<mgrwt>
<rscale>  2 0.27184462E+03</rscale>
<asrwt>0</asrwt>
<pdfrwt beam="1">  1       21 0.22569561E+00 0.27184462E+03</pdfrwt>
<pdfrwt beam="2">  1       21 0.10684439E-01 0.27184462E+03</pdfrwt>
<totfact> 0.62841145E+03</totfact>
</mgrwt>
</event>
<event>
 4    1  0.3948468E+000  0.2728008E+03  0.7546771E-02  0.1099687E+00
         21   -1    0    0  501  502  0.00000000000E+00  0.00000000000E+00  0.13224741451E+03  0.13224741451E+03  0.00000000000E+00 0. -1.
         21   -1    0    0  502  503 -0.00000000000E+00 -0.00000000000E+00 -0.56934060263E+03  0.56934060263E+03  0.00000000000E+00 0.  1.
          6    1    1    2  501    0  0.21069575954E+03 -0.99276954443E+01 -0.18076163336E+03  0.32725377052E+03  0.17300000000E+03 0. -1.
         -6    1    1    2    0  503 -0.21069575954E+03  0.99276954443E+01 -0.25633155477E+03  0.37433424662E+03  0.17300000000E+03 0.  1.
<mgrwt>
<rscale>  2 0.27280077E+03</rscale>
<asrwt>0</asrwt>
<pdfrwt beam="1">  1       21 0.20345756E-01 0.27280077E+03</pdfrwt>
<pdfrwt beam="2">  1       21 0.87590862E-01 0.27280077E+03</pdfrwt>
<totfact> 0.23997947E+04</totfact>
</mgrwt>
</event>
<event>
 4    1  0.3948468E+000  0.2172037E+03  0.7546771E-02  0.1135985E+00
         21   -1    0    0  503  502  0.00000000000E+00  0.00000000000E+00  0.75778971893E+03  0.75778971893E+03  0.00000000000E+00 0. -1.
         21   -1    0    0  501  503 -0.00000000000E+00 -0.00000000000E+00 -0.73540516779E+02  0.73540516779E+02  0.00000000000E+00 0.  1.
          6    1    1    2  501    0 -0.63955428252E+02 -0.11470888887E+03  0.17930382929E+03  0.28165100601E+03  0.17300000000E+03 0. -1.
         -6    1    1    2    0  502  0.63955428252E+02  0.11470888887E+03  0.50494537286E+03  0.54967922970E+03  0.17300000000E+03 0.  1.
<mgrwt>
<rscale>  2 0.21720365E+03</rscale>
<asrwt>0</asrwt>
<pdfrwt beam="1">  1       21 0.11658303E+00 0.21720365E+03</pdfrwt>
<pdfrwt beam="2">  1       21 0.11313926E-01 0.21720365E+03</pdfrwt>
<totfact> 0.36464714E+04</totfact>
</mgrwt>
</event>
<event>
 4    1  0.3948468E+000  0.2930678E+03  0.7546771E-02  0.1088758E+00
         21   -1    0    0  503  502  0.00000000000E+00  0.00000000000E+00  0.35670876299E+03  0.35670876299E+03  0.00000000000E+00 0. -1.
         21   -1    0    0  501  503 -0.00000000000E+00 -0.00000000000E+00 -0.83870568742E+03  0.83870568742E+03  0.00000000000E+00 0.  1.
          6    1    1    2  501    0 -0.37212468832E+02 -0.23361291678E+03 -0.74566775797E+03  0.80119234146E+03  0.17300000000E+03 0.  1.
         -6    1    1    2    0  502  0.37212468832E+02  0.23361291678E+03  0.26367083354E+03  0.39422210895E+03  0.17300000000E+03 0. -1.
<mgrwt>
<rscale>  2 0.29306785E+03</rscale>
<asrwt>0</asrwt>
<pdfrwt beam="1">  1       21 0.54878272E-01 0.29306785E+03</pdfrwt>
<pdfrwt beam="2">  1       21 0.12903164E+00 0.29306785E+03</pdfrwt>
<totfact> 0.12727166E+03</totfact>
</mgrwt>
</event>
<event>
 4    1  0.3948468E+000  0.2060967E+03  0.7546771E-02  0.1144695E+00
         21   -1    0    0  501  502  0.00000000000E+00  0.00000000000E+00  0.16086757049E+04  0.16086757049E+04  0.00000000000E+00 0.  1.
         21   -1    0    0  502  503 -0.00000000000E+00 -0.00000000000E+00 -0.30098930413E+02  0.30098930413E+02  0.00000000000E+00 0.  1.
          6    1    1    2  501    0  0.10458012345E+03 -0.40122778528E+02  0.10763687306E+04  0.10959222070E+04  0.17300000000E+03 0.  1.
         -6    1    1    2    0  503 -0.10458012345E+03  0.40122778528E+02  0.50220804384E+03  0.54285242826E+03  0.17300000000E+03 0.  1.
<mgrwt>
<rscale>  2 0.20609668E+03</rscale>
<asrwt>0</asrwt>
<pdfrwt beam="1">  1       21 0.24748850E+00 0.20609668E+03</pdfrwt>
<pdfrwt beam="2">  1       21 0.46306059E-02 0.20609668E+03</pdfrwt>
<totfact> 0.20833478E+04</totfact>
</mgrwt>
</event>
<event>
 4    1  0.3948468E+000  0.1778156E+03  0.7546771E-02  0.1169934E+00
         21   -1    0    0  501  502  0.00000000000E+00  0.00000000000E+00  0.70741979408E+02  0.70741979408E+02  0.00000000000E+00 0. -1.
         21   -1    0    0  502  503 -0.00000000000E+00 -0.00000000000E+00 -0.72844998720E+03  0.72844998720E+03  0.00000000000E+00 0. -1.
          6    1    1    2  501    0 -0.39470696326E+02  0.11465352372E+02 -0.80450583451E+02  0.19516835438E+03  0.17300000000E+03 0. -1.
         -6    1    1    2    0  503  0.39470696326E+02 -0.11465352372E+02 -0.57725742434E+03  0.60402361223E+03  0.17300000000E+03 0. -1.
<mgrwt>
<rscale>  2 0.17781561E+03</rscale>
<asrwt>0</asrwt>
<pdfrwt beam="1">  1       21 0.10883382E-01 0.17781561E+03</pdfrwt>
<pdfrwt beam="2">  1       21 0.11206923E+00 0.17781561E+03</pdfrwt>
<totfact> 0.43945149E+04</totfact>
</mgrwt>
</event>
<event>
 4    1  0.3948468E+000  0.1845037E+03  0.7546771E-02  0.1163514E+00
         21   -1    0    0  503  502  0.00000000000E+00  0.00000000000E+00  0.41745455859E+03  0.41745455859E+03  0.00000000000E+00 0. -1.
         21   -1    0    0  501  503 -0.00000000000E+00 -0.00000000000E+00 -0.87353385155E+02  0.87353385155E+02  0.00000000000E+00 0. -1.
          6    1    1    2  501    0  0.35529941712E+02  0.53387517739E+02  0.23013240433E+03  0.29496190827E+03  0.17300000000E+03 0. -1.
         -6    1    1    2    0  502 -0.35529941712E+02 -0.53387517739E+02  0.99968769110E+02  0.20984603548E+03  0.17300000000E+03 0. -1.
<mgrwt>
<rscale>  2 0.18450367E+03</rscale>
<asrwt>0</asrwt>
<pdfrwt beam="1">  1       21 0.64223777E-01 0.18450367E+03</pdfrwt>
<pdfrwt beam="2">  1       21 0.13438983E-01 0.18450367E+03</pdfrwt>
<totfact> 0.10743522E+05</totfact>
</mgrwt>
</event>
<event>
 4    1  0.3948468E+000  0.2710128E+03  0.7546771E-02  0.1100701E+00
         21   -1    0    0  501  502  0.00000000000E+00  0.00000000000E+00  0.56529422655E+03  0.56529422655E+03  0.00000000000E+00 0.  1.
         21   -1    0    0  502  503 -0.00000000000E+00 -0.00000000000E+00 -0.18016190332E+03  0.18016190332E+03  0.00000000000E+00 0. -1.
          6    1    1    2  501    0  0.20722853914E+03  0.23984470140E+02 -0.42479421636E+01  0.27104606113E+03  0.17300000000E+03 0. -1.
         -6    1    1    2    0  503 -0.20722853914E+03 -0.23984470140E+02  0.38938026539E+03  0.47441006874E+03  0.17300000000E+03 0.  1.
<mgrwt>
<rscale>  2 0.27101277E+03</rscale>
<asrwt>0</asrwt>
<pdfrwt beam="1">  1       21 0.86968342E-01 0.27101277E+03</pdfrwt>
<pdfrwt beam="2">  1       21 0.27717216E-01 0.27101277E+03</pdfrwt>
<totfact> 0.13507283E+04</totfact>
</mgrwt>
</event>
<event>
 4    1  0.3948468E+000  0.1801716E+03  0.7546771E-02  0.1167637E+00
         21   -1    0    0  501  502  0.00000000000E+00  0.00000000000E+00  0.10264796806E+03  0.10264796806E+03  0.00000000000E+00 0.  1.
         21   -1    0    0  502  503 -0.00000000000E+00 -0.00000000000E+00 -0.47494876071E+03  0.47494876071E+03  0.00000000000E+00 0. -1.
          6    1    1    2  501    0 -0.34255384594E+02 -0.36869690697E+02 -0.19208128926E+02  0.18119259831E+03  0.17300000000E+03 0.  1.
         -6    1    1    2    0  503  0.34255384594E+02  0.36869690697E+02 -0.35309266373E+03  0.39640413046E+03  0.17300000000E+03 0.  1.
<mgrwt>
<rscale>  2 0.18017160E+03</rscale>
<asrwt>0</asrwt>
<pdfrwt beam="1">  1       21 0.15791996E-01 0.18017160E+03</pdfrwt>
<pdfrwt beam="2">  1       21 0.73069037E-01 0.18017160E+03</pdfrwt>
<totfact> 0.60519998E+04</totfact>
</mgrwt>
</event>
<event>
 4    1  0.3948468E+000  0.2101338E+03  0.7546771E-02  0.1141460E+00
         21   -1    0    0  503  502  0.00000000000E+00  0.00000000000E+00  0.43091338564E+03  0.43091338564E+03  0.00000000000E+00 0.  1.
         21   -1    0    0  501  503 -0.00000000000E+00 -0.00000000000E+00 -0.10397821892E+03  0.10397821892E+03  0.00000000000E+00 0.  1.
          6    1    1    2  501    0  0.11674488615E+03 -0.24450931403E+02  0.13127006806E+03  0.24776611402E+03  0.17300000000E+03 0.  1.
         -6    1    1    2    0  502 -0.11674488615E+03  0.24450931403E+02  0.19566509866E+03  0.28712549055E+03  0.17300000000E+03 0.  1.
<mgrwt>
<rscale>  2 0.21013381E+03</rscale>
<asrwt>0</asrwt>
<pdfrwt beam="1">  1       21 0.66294366E-01 0.21013381E+03</pdfrwt>
<pdfrwt beam="2">  1       21 0.15996649E-01 0.21013381E+03</pdfrwt>
<totfact> 0.72260271E+04</totfact>
</mgrwt>
</event>
<event>
 4    1  0.3948468E+000  0.2029797E+03  0.7546771E-02  0.1147249E+00
         21   -1    0    0  501  502  0.00000000000E+00  0.00000000000E+00  0.32912678071E+03  0.32912678071E+03  0.00000000000E+00 0.  1.
         21   -1    0    0  502  503 -0.00000000000E+00 -0.00000000000E+00 -0.13099238851E+03  0.13099238851E+03  0.00000000000E+00 0.  1.
          6    1    1    2  501    0 -0.10263878220E+03 -0.27148751609E+02  0.14751978344E+03  0.25092401406E+03  0.17300000000E+03 0.  1.
         -6    1    1    2    0  503  0.10263878220E+03  0.27148751609E+02  0.50614608765E+02  0.20919515517E+03  0.17300000000E+03 0.  1.
<mgrwt>
<rscale>  2 0.20297974E+03</rscale>
<asrwt>0</asrwt>
<pdfrwt beam="1">  1       21 0.50634889E-01 0.20297974E+03</pdfrwt>
<pdfrwt beam="2">  1       21 0.20152675E-01 0.20297974E+03</pdfrwt>
<totfact> 0.84090341E+04</totfact>
</mgrwt>
</event>
<event>
 4    1  0.3948468E+000  0.1831678E+03  0.7546771E-02  0.1164772E+00
         21   -1    0    0  503  502  0.00000000000E+00  0.00000000000E+00  0.12536284174E+03  0.12536284174E+03  0.00000000000E+00 0. -1.
         21   -1    0    0  501  503 -0.00000000000E+00 -0.00000000000E+00 -0.27102003986E+03  0.27102003986E+03  0.00000000000E+00 0. -1.
          6    1    1    2  501    0  0.47360056382E+02  0.37127624951E+02 -0.50651637782E+02  0.19004216344E+03  0.17300000000E+03 0. -1.
         -6    1    1    2    0  502 -0.47360056382E+02 -0.37127624951E+02 -0.95005560345E+02  0.20634071816E+03  0.17300000000E+03 0. -1.
<mgrwt>
<rscale>  2 0.18316778E+03</rscale>
<asrwt>0</asrwt>
<pdfrwt beam="1">  1       21 0.19286591E-01 0.18316778E+03</pdfrwt>
<pdfrwt beam="2">  1       21 0.41695390E-01 0.18316778E+03</pdfrwt>
<totfact> 0.13721507E+05</totfact>
</mgrwt>
</event>
<event>
 4    1  0.3948468E+000  0.2394237E+03  0.7546771E-02  0.1120177E+00
         21   -1    0    0  501  502  0.00000000000E+00  0.00000000000E+00  0.35207204420E+03  0.35207204420E+03  0.00000000000E+00 0. -1.
         21   -1    0    0  502  503 -0.00000000000E+00 -0.00000000000E+00 -0.31309161691E+03  0.31309161691E+03  0.00000000000E+00 0.  1.
          6    1    1    2  501    0  0.16185202253E+03  0.34621056989E+02  0.24990166080E+03  0.34608457761E+03  0.17300000000E+03 0. -1.
         -6    1    1    2    0  503 -0.16185202253E+03 -0.34621056989E+02 -0.21092123351E+03  0.31907908351E+03  0.17300000000E+03 0.  1.
<mgrwt>
<rscale>  2 0.23942367E+03</rscale>
<asrwt>0</asrwt>
<pdfrwt beam="1">  1       21 0.54164930E-01 0.23942367E+03</pdfrwt>
<pdfrwt beam="2">  1       21 0.48167941E-01 0.23942367E+03</pdfrwt>
<totfact> 0.12894533E+04</totfact>
</mgrwt>
</event>
<event>
 4    1  0.3948468E+000  0.2093825E+03  0.7546771E-02  0.1142056E+00
         21   -1    0    0  501  502  0.00000000000E+00  0.00000000000E+00  0.20109350551E+03  0.20109350551E+03  0.00000000000E+00 0.  1.
         21   -1    0    0  502  503 -0.00000000000E+00 -0.00000000000E+00 -0.46041429605E+03  0.46041429605E+03  0.00000000000E+00 0. -1.
          6    1    1    2  501    0 -0.11623516898E+03 -0.20035631584E+02  0.11033220629E+03  0.23667327011E+03  0.17300000000E+03 0.  1.
         -6    1    1    2    0  503  0.11623516898E+03  0.20035631584E+02 -0.36965299683E+03  0.42483453144E+03  0.17300000000E+03 0. -1.
<mgrwt>
<rscale>  2 0.20938252E+03</rscale>
<asrwt>0</asrwt>
<pdfrwt beam="1">  1       21 0.30937463E-01 0.20938252E+03</pdfrwt>
<pdfrwt beam="2">  1       21 0.70832968E-01 0.20938252E+03</pdfrwt>
<totfact> 0.17929781E+04</totfact>
</mgrwt>
</event>
<event>
 4    1  0.3948468E+000  0.2792661E+03  0.7546771E-02  0.1096090E+00
         21   -1    0    0  501  502  0.00000000000E+00  0.00000000000E+00  0.56824829702E+03  0.56824829702E+03  0.00000000000E+00 0.  1.
         21   -1    0    0  502  503 -0.00000000000E+00 -0.00000000000E+00 -0.18499984766E+03  0.18499984766E+03  0.00000000000E+00 0.  1.
          6    1    1    2  501    0  0.21668461737E+03  0.33291873472E+02  0.27423499194E+00  0.27926626622E+03  0.17300000000E+03 0.  1.
         -6    1    1    2    0  503 -0.21668461737E+03 -0.33291873472E+02  0.38297421437E+03  0.47398187847E+03  0.17300000000E+03 0.  1.
<mgrwt>
<rscale>  2 0.27926613E+03</rscale>
<asrwt>0</asrwt>
<pdfrwt beam="1">  1       21 0.87422814E-01 0.27926613E+03</pdfrwt>
<pdfrwt beam="2">  1       21 0.28461515E-01 0.27926613E+03</pdfrwt>
<totfact> 0.12621948E+04</totfact>
</mgrwt>
</event>
<event>
 4    1  0.3948468E+000  0.1742759E+03  0.7546771E-02  0.1173461E+00
         21   -1    0    0  501  502  0.00000000000E+00  0.00000000000E+00  0.30307643708E+03  0.30307643708E+03  0.00000000000E+00 0. -1.
         21   -1    0    0  502  503 -0.00000000000E+00 -0.00000000000E+00 -0.25461974156E+03  0.25461974156E+03  0.00000000000E+00 0. -1.
          6    1    1    2  501    0 -0.17134892113E+02 -0.12226490317E+02  0.24137606287E+03  0.29771546033E+03  0.17300000000E+03 0. -1.
         -6    1    1    2    0  503  0.17134892113E+02  0.12226490317E+02 -0.19291936735E+03  0.25998071831E+03  0.17300000000E+03 0. -1.
<mgrwt>
<rscale>  2 0.17427591E+03</rscale>
<asrwt>0</asrwt>
<pdfrwt beam="1">  1       21 0.46627144E-01 0.17427591E+03</pdfrwt>
<pdfrwt beam="2">  1       21 0.39172268E-01 0.17427591E+03</pdfrwt>
<totfact> 0.27958215E+04</totfact>
</mgrwt>
</event>
<event>
 4    1  0.3948468E+000  0.1743492E+03  0.7546771E-02  0.1173387E+00
         21   -1    0    0  503  502  0.00000000000E+00  0.00000000000E+00  0.18384144259E+03  0.18384144259E+03  0.00000000000E+00 0. -1.
         21   -1    0    0  501  503 -0.00000000000E+00 -0.00000000000E+00 -0.17532514088E+03  0.17532514088E+03  0.00000000000E+00 0. -1.
          6    1    1    2  501    0  0.43942967129E+01 -0.21197546474E+02 -0.38583568505E+02  0.17856745946E+03  0.17300000000E+03 0. -1.
         -6    1    1    2    0  502 -0.43942967129E+01  0.21197546474E+02  0.47099870210E+02  0.18059912401E+03  0.17300000000E+03 0. -1.
<mgrwt>
<rscale>  2 0.17434921E+03</rscale>
<asrwt>0</asrwt>
<pdfrwt beam="1">  1       21 0.28283299E-01 0.17434921E+03</pdfrwt>
<pdfrwt beam="2">  1       21 0.26973098E-01 0.17434921E+03</pdfrwt>
<totfact> 0.15736932E+05</totfact>
</mgrwt>
</event>
<event>
 4    1  0.3948468E+000  0.2019456E+03  0.7546771E-02  0.1148108E+00
         21   -1    0    0  503  502  0.00000000000E+00  0.00000000000E+00  0.34464429008E+04  0.34464429008E+04  0.00000000000E+00 0.  1.
         21   -1    0    0  501  503 -0.00000000000E+00 -0.00000000000E+00 -0.25568666218E+02  0.25568666218E+02  0.00000000000E+00 0. -1.
          6    1    1    2  501    0  0.59593392857E+01  0.10400726288E+03  0.43804556572E+03  0.48235458130E+03  0.17300000000E+03 0. -1.
         -6    1    1    2    0  502 -0.59593392857E+01 -0.10400726288E+03  0.29828286688E+04  0.29896569857E+04  0.17300000000E+03 0.  1.
<mgrwt>
<rscale>  2 0.20194560E+03</rscale>
<asrwt>0</asrwt>
<pdfrwt beam="1">  1       21 0.53022162E+00 0.20194560E+03</pdfrwt>
<pdfrwt beam="2">  1       21 0.39336437E-02 0.20194560E+03</pdfrwt>
<totfact> 0.45619168E+02</totfact>
</mgrwt>
</event>
<event>
 4    1  0.3948468E+000  0.1857226E+03  0.7546771E-02  0.1162377E+00
         21   -1    0    0  503  502  0.00000000000E+00  0.00000000000E+00  0.34535930627E+03  0.34535930627E+03  0.00000000000E+00 0. -1.
         21   -1    0    0  501  503 -0.00000000000E+00 -0.00000000000E+00 -0.15835812678E+03  0.15835812678E+03  0.00000000000E+00 0. -1.
          6    1    1    2  501    0 -0.67020340417E+02 -0.84945951077E+01 -0.59555555948E+02  0.19503781280E+03  0.17300000000E+03 0. -1.
         -6    1    1    2    0  502  0.67020340417E+02  0.84945951077E+01  0.24655673543E+03  0.30867962026E+03  0.17300000000E+03 0. -1.
<mgrwt>
<rscale>  2 0.18572260E+03</rscale>
<asrwt>0</asrwt>
<pdfrwt beam="1">  1       21 0.53132201E-01 0.18572260E+03</pdfrwt>
<pdfrwt beam="2">  1       21 0.24362789E-01 0.18572260E+03</pdfrwt>
<totfact> 0.53552887E+04</totfact>
</mgrwt>
</event>
<event>
 4    1  0.3948468E+000  0.2351935E+03  0.7546771E-02  0.1123037E+00
         21   -1    0    0  501  502  0.00000000000E+00  0.00000000000E+00  0.22267098419E+03  0.22267098419E+03  0.00000000000E+00 0. -1.
         21   -1    0    0  502  503 -0.00000000000E+00 -0.00000000000E+00 -0.31883869324E+03  0.31883869324E+03  0.00000000000E+00 0. -1.
          6    1    1    2  501    0  0.15792592578E+03 -0.21128348712E+02  0.79159057500E+02  0.24815753371E+03  0.17300000000E+03 0. -1.
         -6    1    1    2    0  503 -0.15792592578E+03  0.21128348712E+02 -0.17532676655E+03  0.29335214371E+03  0.17300000000E+03 0. -1.
<mgrwt>
<rscale>  2 0.23519355E+03</rscale>
<asrwt>0</asrwt>
<pdfrwt beam="1">  1       21 0.34257075E-01 0.23519355E+03</pdfrwt>
<pdfrwt beam="2">  1       21 0.49052107E-01 0.23519355E+03</pdfrwt>
<totfact> 0.31861478E+04</totfact>
</mgrwt>
</event>
<event>
 4    1  0.3948468E+000  0.1920229E+03  0.7546771E-02  0.1156649E+00
         21   -1    0    0  503  502  0.00000000000E+00  0.00000000000E+00  0.59583270551E+03  0.59583270551E+03  0.00000000000E+00 0. -1.
         21   -1    0    0  501  503 -0.00000000000E+00 -0.00000000000E+00 -0.83023845875E+02  0.83023845875E+02  0.00000000000E+00 0. -1.
          6    1    1    2  501    0 -0.67024881903E+02  0.49512321742E+02  0.85130035581E+02  0.21004744168E+03  0.17300000000E+03 0. -1.
         -6    1    1    2    0  502  0.67024881903E+02 -0.49512321742E+02  0.42767882405E+03  0.46880910970E+03  0.17300000000E+03 0. -1.
<mgrwt>
<rscale>  2 0.19202293E+03</rscale>
<asrwt>0</asrwt>
<pdfrwt beam="1">  1       21 0.91666567E-01 0.19202293E+03</pdfrwt>
<pdfrwt beam="2">  1       21 0.12772900E-01 0.19202293E+03</pdfrwt>
<totfact> 0.52844714E+04</totfact>
</mgrwt>
</event>
<event>
 4    1  0.3948468E+000  0.1917549E+03  0.7546771E-02  0.1156888E+00
         21   -1    0    0  503  502  0.00000000000E+00  0.00000000000E+00  0.30617369097E+03  0.30617369097E+03  0.00000000000E+00 0.  1.
         21   -1    0    0  501  503 -0.00000000000E+00 -0.00000000000E+00 -0.17175936654E+03  0.17175936654E+03  0.00000000000E+00 0.  1.
          6    1    1    2  501    0  0.21854384440E+02 -0.79770548811E+02 -0.63853412841E+02  0.20210693434E+03  0.17300000000E+03 0.  1.
         -6    1    1    2    0  502 -0.21854384440E+02  0.79770548811E+02  0.19826773727E+03  0.27582612316E+03  0.17300000000E+03 0.  1.
<mgrwt>
<rscale>  2 0.19175493E+03</rscale>
<asrwt>0</asrwt>
<pdfrwt beam="1">  1       21 0.47103645E-01 0.19175493E+03</pdfrwt>
<pdfrwt beam="2">  1       21 0.26424518E-01 0.19175493E+03</pdfrwt>
<totfact> 0.58777303E+04</totfact>
</mgrwt>
</event>
<event>
 4    1  0.3948468E+000  0.1933679E+03  0.7546771E-02  0.1155458E+00
         21   -1    0    0  503  502  0.00000000000E+00  0.00000000000E+00  0.39944166467E+03  0.39944166467E+03  0.00000000000E+00 0. -1.
         21   -1    0    0  501  503 -0.00000000000E+00 -0.00000000000E+00 -0.10677961964E+03  0.10677961964E+03  0.00000000000E+00 0. -1.
          6    1    1    2  501    0 -0.42065501871E+02  0.75449630349E+02  0.23522591748E+03  0.30450350642E+03  0.17300000000E+03 0. -1.
         -6    1    1    2    0  502  0.42065501871E+02 -0.75449630349E+02  0.57436127555E+02  0.20171777789E+03  0.17300000000E+03 0. -1.
<mgrwt>
<rscale>  2 0.19336792E+03</rscale>
<asrwt>0</asrwt>
<pdfrwt beam="1">  1       21 0.61452563E-01 0.19336792E+03</pdfrwt>
<pdfrwt beam="2">  1       21 0.16427634E-01 0.19336792E+03</pdfrwt>
<totfact> 0.81749508E+04</totfact>
</mgrwt>
</event>
<event>
 4    1  0.3948468E+000  0.1910624E+03  0.7546771E-02  0.1157507E+00
         21   -1    0    0  501  502  0.00000000000E+00  0.00000000000E+00  0.16122774924E+02  0.16122774924E+02  0.00000000000E+00 0.  1.
         21   -1    0    0  502  503 -0.00000000000E+00 -0.00000000000E+00 -0.29805356831E+04  0.29805356831E+04  0.00000000000E+00 0.  1.
          6    1    1    2  501    0 -0.51627198707E+02 -0.62533874891E+02 -0.74765088110E+03  0.77167784286E+03  0.17300000000E+03 0.  1.
         -6    1    1    2    0  503  0.51627198707E+02  0.62533874891E+02 -0.22167620271E+04  0.22249806152E+04  0.17300000000E+03 0.  1.
<mgrwt>
<rscale>  2 0.19106243E+03</rscale>
<asrwt>0</asrwt>
<pdfrwt beam="1">  1       21 0.24804250E-02 0.19106243E+03</pdfrwt>
<pdfrwt beam="2">  1       21 0.45854430E+00 0.19106243E+03</pdfrwt>
<totfact> 0.31665026E+03</totfact>
</mgrwt>
</event>
<event>
 4    1  0.3948468E+000  0.1782308E+03  0.7546771E-02  0.1169526E+00
         21   -1    0    0  501  502  0.00000000000E+00  0.00000000000E+00  0.15682265527E+04  0.15682265527E+04  0.00000000000E+00 0.  1.
         21   -1    0    0  502  503 -0.00000000000E+00 -0.00000000000E+00 -0.27243126703E+02  0.27243126703E+02  0.00000000000E+00 0.  1.
          6    1    1    2  501    0 -0.40569461152E+02 -0.13833093976E+02  0.11744854803E+04  0.11879319757E+04  0.17300000000E+03 0. -1.
         -6    1    1    2    0  503  0.40569461152E+02  0.13833093976E+02  0.36649794571E+03  0.40753770363E+03  0.17300000000E+03 0. -1.
<mgrwt>
<rscale>  2 0.17823085E+03</rscale>
<asrwt>0</asrwt>
<pdfrwt beam="1">  1       21 0.24126555E+00 0.17823085E+03</pdfrwt>
<pdfrwt beam="2">  1       21 0.41912515E-02 0.17823085E+03</pdfrwt>
<totfact> 0.27459266E+04</totfact>
</mgrwt>
</event>
<event>
 4    1  0.3948468E+000  0.1919273E+03  0.7546771E-02  0.1156734E+00
         21   -1    0    0  501  502  0.00000000000E+00  0.00000000000E+00  0.22530353178E+03  0.22530353178E+03  0.00000000000E+00 0. -1.
         21   -1    0    0  502  503 -0.00000000000E+00 -0.00000000000E+00 -0.18172004698E+03  0.18172004698E+03  0.00000000000E+00 0. -1.
          6    1    1    2  501    0 -0.82366424758E+02 -0.11084038119E+02  0.86241026381E+02  0.21041292370E+03  0.17300000000E+03 0. -1.
         -6    1    1    2    0  503  0.82366424758E+02  0.11084038119E+02 -0.42657541587E+02  0.19661065506E+03  0.17300000000E+03 0. -1.
<mgrwt>
<rscale>  2 0.19192729E+03</rscale>
<asrwt>0</asrwt>
<pdfrwt beam="1">  1       21 0.34662082E-01 0.19192729E+03</pdfrwt>
<pdfrwt beam="2">  1       21 0.27956930E-01 0.19192729E+03</pdfrwt>
<totfact> 0.98063320E+04</totfact>
</mgrwt>
</event>
<event>
 4    1  0.3948468E+000  0.1891460E+03  0.7546771E-02  0.1159234E+00
         21   -1    0    0  503  502  0.00000000000E+00  0.00000000000E+00  0.35593480023E+03  0.35593480023E+03  0.00000000000E+00 0.  1.
         21   -1    0    0  501  503 -0.00000000000E+00 -0.00000000000E+00 -0.14000970948E+03  0.14000970948E+03  0.00000000000E+00 0. -1.
          6    1    1    2  501    0  0.33624913150E+02  0.68677327338E+02 -0.23742489825E+02  0.19063031212E+03  0.17300000000E+03 0. -1.
         -6    1    1    2    0  502 -0.33624913150E+02 -0.68677327338E+02  0.23966758057E+03  0.30531419759E+03  0.17300000000E+03 0.  1.
<mgrwt>
<rscale>  2 0.18914600E+03</rscale>
<asrwt>0</asrwt>
<pdfrwt beam="1">  1       21 0.54759200E-01 0.18914600E+03</pdfrwt>
<pdfrwt beam="2">  1       21 0.21539955E-01 0.18914600E+03</pdfrwt>
<totfact> 0.63336703E+04</totfact>
</mgrwt>
</event>
<event>
 4    1  0.3948468E+000  0.2301659E+03  0.7546771E-02  0.1126523E+00
         21   -1    0    0  503  502  0.00000000000E+00  0.00000000000E+00  0.97969365726E+02  0.97969365726E+02  0.00000000000E+00 0.  1.
         21   -1    0    0  501  503 -0.00000000000E+00 -0.00000000000E+00 -0.11154119318E+04  0.11154119318E+04  0.00000000000E+00 0. -1.
          6    1    1    2  501    0  0.71079560324E+02  0.13414565480E+03 -0.94419112712E+03  0.97184013353E+03  0.17300000000E+03 0. -1.
         -6    1    1    2    0  502 -0.71079560324E+02 -0.13414565480E+03 -0.73251438952E+02  0.24154116400E+03  0.17300000000E+03 0.  1.
<mgrwt>
<rscale>  2 0.23016594E+03</rscale>
<asrwt>0</asrwt>
<pdfrwt beam="1">  1       21 0.15072211E-01 0.23016594E+03</pdfrwt>
<pdfrwt beam="2">  1       21 0.17160182E+00 0.23016594E+03</pdfrwt>
<totfact> 0.78547643E+03</totfact>
</mgrwt>
</event>
<event>
 4    1  0.3948468E+000  0.3020570E+03  0.7546771E-02  0.1084217E+00
         21   -1    0    0  503  502  0.00000000000E+00  0.00000000000E+00  0.14579887873E+03  0.14579887873E+03  0.00000000000E+00 0.  1.
         21   -1    0    0  501  503 -0.00000000000E+00 -0.00000000000E+00 -0.63348782944E+03  0.63348782944E+03  0.00000000000E+00 0. -1.
          6    1    1    2  501    0  0.15000212803E+03  0.19699950366E+03 -0.20087273817E+03  0.36275101626E+03  0.17300000000E+03 0.  1.
         -6    1    1    2    0  502 -0.15000212803E+03 -0.19699950366E+03 -0.28681621255E+03  0.41653569191E+03  0.17300000000E+03 0. -1.
<mgrwt>
<rscale>  2 0.30205702E+03</rscale>
<asrwt>0</asrwt>
<pdfrwt beam="1">  1       21 0.22430596E-01 0.30205702E+03</pdfrwt>
<pdfrwt beam="2">  1       21 0.97459668E-01 0.30205702E+03</pdfrwt>
<totfact> 0.15317747E+04</totfact>
</mgrwt>
</event>
<event>
 4    1  0.3948468E+000  0.2399601E+03  0.7546771E-02  0.1119819E+00
         21   -1    0    0  501  502  0.00000000000E+00  0.00000000000E+00  0.10101196854E+04  0.10101196854E+04  0.00000000000E+00 0.  1.
         21   -1    0    0  502  503 -0.00000000000E+00 -0.00000000000E+00 -0.12649088936E+03  0.12649088936E+03  0.00000000000E+00 0.  1.
          6    1    1    2  501    0 -0.17474727388E+02  0.16536776228E+03  0.86302908684E+03  0.89576786481E+03  0.17300000000E+03 0.  1.
         -6    1    1    2    0  503  0.17474727388E+02 -0.16536776228E+03  0.20599709163E+02  0.24084270991E+03  0.17300000000E+03 0.  1.
<mgrwt>
<rscale>  2 0.23996013E+03</rscale>
<asrwt>0</asrwt>
<pdfrwt beam="1">  1       21 0.15540302E+00 0.23996013E+03</pdfrwt>
<pdfrwt beam="2">  1       21 0.19460137E-01 0.23996013E+03</pdfrwt>
<totfact> 0.63798551E+03</totfact>
</mgrwt>
</event>
<event>
 4    1  0.3948468E+000  0.1972619E+03  0.7546771E-02  0.1152070E+00
         21   -1    0    0  503  502  0.00000000000E+00  0.00000000000E+00  0.13523831141E+03  0.13523831141E+03  0.00000000000E+00 0.  1.
         21   -1    0    0  501  503 -0.00000000000E+00 -0.00000000000E+00 -0.40641516227E+03  0.40641516227E+03  0.00000000000E+00 0. -1.
          6    1    1    2  501    0 -0.94542373862E+02 -0.67065735812E+01 -0.28194195031E+03  0.34409809928E+03  0.17300000000E+03 0. -1.
         -6    1    1    2    0  502  0.94542373862E+02  0.67065735812E+01  0.10765099457E+02  0.19755537439E+03  0.17300000000E+03 0.  1.
<mgrwt>
<rscale>  2 0.19726185E+03</rscale>
<asrwt>0</asrwt>
<pdfrwt beam="1">  1       21 0.20805894E-01 0.19726185E+03</pdfrwt>
<pdfrwt beam="2">  1       21 0.62525409E-01 0.19726185E+03</pdfrwt>
<totfact> 0.50714800E+04</totfact>
</mgrwt>
</event>
<event>
 4    1  0.3948468E+000  0.2967252E+03  0.7546771E-02  0.1086889E+00
         21   -1    0    0  503  502  0.00000000000E+00  0.00000000000E+00  0.96690973113E+02  0.96690973113E+02  0.00000000000E+00 0. -1.
         21   -1    0    0  501  503 -0.00000000000E+00 -0.00000000000E+00 -0.91767756326E+03  0.91767756326E+03  0.00000000000E+00 0.  1.
          6    1    1    2  501    0 -0.72544221190E+02  0.22990034795E+03 -0.45506599442E+03  0.54325950823E+03  0.17300000000E+03 0.  1.
         -6    1    1    2    0  502  0.72544221190E+02 -0.22990034795E+03 -0.36592059574E+03  0.47110902814E+03  0.17300000000E+03 0. -1.
<mgrwt>
<rscale>  2 0.29672518E+03</rscale>
<asrwt>0</asrwt>
<pdfrwt beam="1">  1       21 0.14875534E-01 0.29672518E+03</pdfrwt>
<pdfrwt beam="2">  1       21 0.14118116E+00 0.29672518E+03</pdfrwt>
<totfact> 0.13119820E+04</totfact>
</mgrwt>
</event>
<event>
 4    1  0.3948468E+000  0.1737244E+03  0.7546771E-02  0.1174019E+00
         21   -1    0    0  503  502  0.00000000000E+00  0.00000000000E+00  0.21197072152E+02  0.21197072152E+02  0.00000000000E+00 0. -1.
         21   -1    0    0  501  503 -0.00000000000E+00 -0.00000000000E+00 -0.15765672205E+04  0.15765672205E+04  0.00000000000E+00 0. -1.
          6    1    1    2  501    0  0.13350359114E+02  0.85401125671E+01 -0.52899600695E+03  0.55679164953E+03  0.17300000000E+03 0.  1.
         -6    1    1    2    0  502 -0.13350359114E+02 -0.85401125671E+01 -0.10263741414E+04  0.10409726432E+04  0.17300000000E+03 0.  1.
<mgrwt>
<rscale>  2 0.17372440E+03</rscale>
<asrwt>0</asrwt>
<pdfrwt beam="1">  1       21 0.32610874E-02 0.17372440E+03</pdfrwt>
<pdfrwt beam="2">  1       21 0.24254885E+00 0.17372440E+03</pdfrwt>
<totfact> 0.41158132E+04</totfact>
</mgrwt>
</event>
<event>
 4    1  0.3948468E+000  0.2092075E+03  0.7546771E-02  0.1142195E+00
         21   -1    0    0  501  502  0.00000000000E+00  0.00000000000E+00  0.33721422987E+03  0.33721422987E+03  0.00000000000E+00 0.  1.
         21   -1    0    0  502  503 -0.00000000000E+00 -0.00000000000E+00 -0.13360622637E+03  0.13360622637E+03  0.00000000000E+00 0. -1.
          6    1    1    2  501    0  0.89433488412E+02  0.76422578519E+02  0.14157868814E+03  0.25261093462E+03  0.17300000000E+03 0.  1.
         -6    1    1    2    0  503 -0.89433488412E+02 -0.76422578519E+02  0.62029315363E+02  0.21820952161E+03  0.17300000000E+03 0. -1.
<mgrwt>
<rscale>  2 0.20920746E+03</rscale>
<asrwt>0</asrwt>
<pdfrwt beam="1">  1       21 0.51879112E-01 0.20920746E+03</pdfrwt>
<pdfrwt beam="2">  1       21 0.20554804E-01 0.20920746E+03</pdfrwt>
<totfact> 0.76810207E+04</totfact>
</mgrwt>
</event>
<event>
 4    1  0.3948468E+000  0.1816749E+03  0.7546771E-02  0.1166192E+00
         21   -1    0    0  503  502  0.00000000000E+00  0.00000000000E+00  0.42261987525E+02  0.42261987525E+02  0.00000000000E+00 0. -1.
         21   -1    0    0  501  503 -0.00000000000E+00 -0.00000000000E+00 -0.18815846174E+04  0.18815846174E+04  0.00000000000E+00 0. -1.
          6    1    1    2  501    0 -0.55031951116E+02  0.69464043453E+01 -0.16553502573E+04  0.16652898374E+04  0.17300000000E+03 0. -1.
         -6    1    1    2    0  502  0.55031951116E+02 -0.69464043453E+01 -0.18397237265E+03  0.25855676760E+03  0.17300000000E+03 0. -1.
<mgrwt>
<rscale>  2 0.18167490E+03</rscale>
<asrwt>0</asrwt>
<pdfrwt beam="1">  1       21 0.65018464E-02 0.18167490E+03</pdfrwt>
<pdfrwt beam="2">  1       21 0.28947446E+00 0.18167490E+03</pdfrwt>
<totfact> 0.68259641E+03</totfact>
</mgrwt>
</event>
<event>
 4    1  0.3948468E+000  0.1810274E+03  0.7546771E-02  0.1166812E+00
         21   -1    0    0  503  502  0.00000000000E+00  0.00000000000E+00  0.52598661802E+02  0.52598661802E+02  0.00000000000E+00 0. -1.
         21   -1    0    0  501  503 -0.00000000000E+00 -0.00000000000E+00 -0.69756957752E+03  0.69756957752E+03  0.00000000000E+00 0. -1.
          6    1    1    2  501    0 -0.44916639223E+02 -0.28712417720E+02 -0.19988043547E+03  0.26967220082E+03  0.17300000000E+03 0. -1.
         -6    1    1    2    0  502  0.44916639223E+02  0.28712417720E+02 -0.44509048025E+03  0.48049603850E+03  0.17300000000E+03 0. -1.
<mgrwt>
<rscale>  2 0.18102737E+03</rscale>
<asrwt>0</asrwt>
<pdfrwt beam="1">  1       21 0.80921021E-02 0.18102737E+03</pdfrwt>
<pdfrwt beam="2">  1       21 0.10731839E+00 0.18102737E+03</pdfrwt>
<totfact> 0.81967001E+04</totfact>
</mgrwt>
</event>
<event>
 4    1  0.3948468E+000  0.1791782E+03  0.7546771E-02  0.1168601E+00
         21   -1    0    0  503  502  0.00000000000E+00  0.00000000000E+00  0.20410059681E+03  0.20410059681E+03  0.00000000000E+00 0. -1.
         21   -1    0    0  501  503 -0.00000000000E+00 -0.00000000000E+00 -0.58510593239E+03  0.58510593239E+03  0.00000000000E+00 0. -1.
          6    1    1    2  501    0 -0.27888852053E+01 -0.46562238205E+02 -0.52791995681E+03  0.55749825175E+03  0.17300000000E+03 0. -1.
         -6    1    1    2    0  502  0.27888852053E+01  0.46562238205E+02  0.14691462123E+03  0.23170827745E+03  0.17300000000E+03 0. -1.
<mgrwt>
<rscale>  2 0.17917818E+03</rscale>
<asrwt>0</asrwt>
<pdfrwt beam="1">  1       21 0.31400093E-01 0.17917818E+03</pdfrwt>
<pdfrwt beam="2">  1       21 0.90016294E-01 0.17917818E+03</pdfrwt>
<totfact> 0.10333501E+04</totfact>
</mgrwt>
</event>
<event>
 4    1  0.3948468E+000  0.2188163E+03  0.7546771E-02  0.1134769E+00
         21   -1    0    0  503  502  0.00000000000E+00  0.00000000000E+00  0.38365444884E+02  0.38365444884E+02  0.00000000000E+00 0.  1.
         21   -1    0    0  501  503 -0.00000000000E+00 -0.00000000000E+00 -0.13081890519E+04  0.13081890519E+04  0.00000000000E+00 0. -1.
          6    1    1    2  501    0  0.79640457573E+01 -0.13374654574E+03 -0.77931320810E+03  0.80945020899E+03  0.17300000000E+03 0. -1.
         -6    1    1    2    0  502 -0.79640457573E+01  0.13374654574E+03 -0.49051039894E+03  0.53710428781E+03  0.17300000000E+03 0.  1.
<mgrwt>
<rscale>  2 0.21881628E+03</rscale>
<asrwt>0</asrwt>
<pdfrwt beam="1">  1       21 0.59023755E-02 0.21881628E+03</pdfrwt>
<pdfrwt beam="2">  1       21 0.20125988E+00 0.21881628E+03</pdfrwt>
<totfact> 0.26236672E+04</totfact>
</mgrwt>
</event>
<event>
 4    1  0.3948468E+000  0.1966533E+03  0.7546771E-02  0.1152594E+00
         21   -1    0    0  503  502  0.00000000000E+00  0.00000000000E+00  0.60144529575E+03  0.60144529575E+03  0.00000000000E+00 0. -1.
         21   -1    0    0  501  503 -0.00000000000E+00 -0.00000000000E+00 -0.89955312403E+02  0.89955312403E+02  0.00000000000E+00 0. -1.
          6    1    1    2  501    0 -0.31711171497E+02 -0.87965430290E+02  0.71124085547E+02  0.20911994374E+03  0.17300000000E+03 0. -1.
         -6    1    1    2    0  502  0.31711171497E+02  0.87965430290E+02  0.44036589780E+03  0.48228066441E+03  0.17300000000E+03 0. -1.
<mgrwt>
<rscale>  2 0.19665329E+03</rscale>
<asrwt>0</asrwt>
<pdfrwt beam="1">  1       21 0.92530043E-01 0.19665329E+03</pdfrwt>
<pdfrwt beam="2">  1       21 0.13839279E-01 0.19665329E+03</pdfrwt>
<totfact> 0.44634635E+04</totfact>
</mgrwt>
</event>
<event>
 4    1  0.3948468E+000  0.3890359E+03  0.7546771E-02  0.1047644E+00
         21   -1    0    0  501  502  0.00000000000E+00  0.00000000000E+00  0.32499907326E+03  0.32499907326E+03  0.00000000000E+00 0. -1.
         21   -1    0    0  502  503 -0.00000000000E+00 -0.00000000000E+00 -0.11897096201E+04  0.11897096201E+04  0.00000000000E+00 0.  1.
          6    1    1    2  501    0 -0.28463507375E+03 -0.20100448335E+03  0.15846270536E+03  0.42007065658E+03  0.17300000000E+03 0. -1.
         -6    1    1    2    0  503  0.28463507375E+03  0.20100448335E+03 -0.10231732522E+04  0.10946380368E+04  0.17300000000E+03 0.  1.
<mgrwt>
<rscale>  2 0.38903589E+03</rscale>
<asrwt>0</asrwt>
<pdfrwt beam="1">  1       21 0.49999858E-01 0.38903589E+03</pdfrwt>
<pdfrwt beam="2">  1       21 0.18303225E+00 0.38903589E+03</pdfrwt>
<totfact> 0.56542168E+02</totfact>
</mgrwt>
</event>
<event>
 4    1  0.3948468E+000  0.2152415E+03  0.7546771E-02  0.1137481E+00
         21   -1    0    0  503  502  0.00000000000E+00  0.00000000000E+00  0.14316358765E+03  0.14316358765E+03  0.00000000000E+00 0.  1.
         21   -1    0    0  501  503 -0.00000000000E+00 -0.00000000000E+00 -0.57468489524E+03  0.57468489524E+03  0.00000000000E+00 0.  1.
          6    1    1    2  501    0 -0.12758182631E+02  0.12742506658E+03 -0.45300236834E+03  0.50153770001E+03  0.17300000000E+03 0.  1.
         -6    1    1    2    0  502  0.12758182631E+02 -0.12742506658E+03  0.21481060741E+02  0.21631078287E+03  0.17300000000E+03 0.  1.
<mgrwt>
<rscale>  2 0.21524154E+03</rscale>
<asrwt>0</asrwt>
<pdfrwt beam="1">  1       21 0.22025167E-01 0.21524154E+03</pdfrwt>
<pdfrwt beam="2">  1       21 0.88413060E-01 0.21524154E+03</pdfrwt>
<totfact> 0.20802886E+04</totfact>
</mgrwt>
</event>
<event>
 4    1  0.3948468E+000  0.2310417E+03  0.7546771E-02  0.1125909E+00
         21   -1    0    0  503  502  0.00000000000E+00  0.00000000000E+00  0.65148927450E+02  0.65148927450E+02  0.00000000000E+00 0. -1.
         21   -1    0    0  501  503 -0.00000000000E+00 -0.00000000000E+00 -0.82082702880E+03  0.82082702880E+03  0.00000000000E+00 0. -1.
          6    1    1    2  501    0  0.12313625260E+03 -0.91042559920E+02 -0.39658058060E+03  0.45897324686E+03  0.17300000000E+03 0. -1.
         -6    1    1    2    0  502 -0.12313625260E+03  0.91042559920E+02 -0.35909752075E+03  0.42700270939E+03  0.17300000000E+03 0. -1.
<mgrwt>
<rscale>  2 0.23104174E+03</rscale>
<asrwt>0</asrwt>
<pdfrwt beam="1">  1       21 0.10022911E-01 0.23104174E+03</pdfrwt>
<pdfrwt beam="2">  1       21 0.12628109E+00 0.23104174E+03</pdfrwt>
<totfact> 0.36801978E+04</totfact>
</mgrwt>
</event>
<event>
 4    1  0.3948468E+000  0.1828373E+03  0.7546771E-02  0.1165085E+00
         21   -1    0    0  503  502  0.00000000000E+00  0.00000000000E+00  0.10521532655E+03  0.10521532655E+03  0.00000000000E+00 0.  1.
         21   -1    0    0  501  503 -0.00000000000E+00 -0.00000000000E+00 -0.32172315648E+03  0.32172315648E+03  0.00000000000E+00 0. -1.
          6    1    1    2  501    0  0.56806985734E+02 -0.16536682933E+02 -0.84455566857E+02  0.20140069087E+03  0.17300000000E+03 0.  1.
         -6    1    1    2    0  502 -0.56806985734E+02  0.16536682933E+02 -0.13205226308E+03  0.22553779216E+03  0.17300000000E+03 0. -1.
<mgrwt>
<rscale>  2 0.18283735E+03</rscale>
<asrwt>0</asrwt>
<pdfrwt beam="1">  1       21 0.16186974E-01 0.18283735E+03</pdfrwt>
<pdfrwt beam="2">  1       21 0.49495869E-01 0.18283735E+03</pdfrwt>
<totfact> 0.13328463E+05</totfact>
</mgrwt>
</event>
<event>
 4    1  0.3948468E+000  0.1954096E+03  0.7546771E-02  0.1153671E+00
         21   -1    0    0  501  502  0.00000000000E+00  0.00000000000E+00  0.12968536902E+04  0.12968536902E+04  0.00000000000E+00 0.  1.
         21   -1    0    0  502  503 -0.00000000000E+00 -0.00000000000E+00 -0.30086004743E+02  0.30086004743E+02  0.00000000000E+00 0.  1.
          6    1    1    2  501    0  0.23948692913E+02 -0.87649224017E+02  0.73028132462E+03  0.75597337219E+03  0.17300000000E+03 0. -1.
         -6    1    1    2    0  503 -0.23948692913E+02  0.87649224017E+02  0.53648636086E+03  0.57096632278E+03  0.17300000000E+03 0. -1.
<mgrwt>
<rscale>  2 0.19540964E+03</rscale>
<asrwt>0</asrwt>
<pdfrwt beam="1">  1       21 0.19951591E+00 0.19540964E+03</pdfrwt>
<pdfrwt beam="2">  1       21 0.46286171E-02 0.19540964E+03</pdfrwt>
<totfact> 0.41374428E+04</totfact>
</mgrwt>
</event>
<event>
 4    1  0.3948468E+000  0.4902773E+03  0.7546771E-02  0.1016348E+00
         21   -1    0    0  501  502  0.00000000000E+00  0.00000000000E+00  0.28474642306E+03  0.28474642306E+03  0.00000000000E+00 0. -1.
         21   -1    0    0  502  503 -0.00000000000E+00 -0.00000000000E+00 -0.12486293476E+04  0.12486293476E+04  0.00000000000E+00 0.  1.
          6    1    1    2  501    0  0.45666197711E+03 -0.43619871791E+02 -0.45582352719E+02  0.49239171950E+03  0.17300000000E+03 0. -1.
         -6    1    1    2    0  503 -0.45666197711E+03  0.43619871791E+02 -0.91830057183E+03  0.10409840512E+04  0.17300000000E+03 0.  1.
<mgrwt>
<rscale>  2 0.49027732E+03</rscale>
<asrwt>0</asrwt>
<pdfrwt beam="1">  1       21 0.43807143E-01 0.49027732E+03</pdfrwt>
<pdfrwt beam="2">  1       21 0.19209682E+00 0.49027732E+03</pdfrwt>
<totfact> 0.61554778E+02</totfact>
</mgrwt>
</event>
<event>
 4    1  0.3948468E+000  0.2094387E+03  0.7546771E-02  0.1142011E+00
         21   -1    0    0  503  502  0.00000000000E+00  0.00000000000E+00  0.20096160833E+03  0.20096160833E+03  0.00000000000E+00 0. -1.
         21   -1    0    0  501  503 -0.00000000000E+00 -0.00000000000E+00 -0.22469513069E+03  0.22469513069E+03  0.00000000000E+00 0. -1.
          6    1    1    2  501    0  0.11062703639E+03  0.41197261622E+02 -0.47846810610E+02  0.21483452430E+03  0.17300000000E+03 0. -1.
         -6    1    1    2    0  502 -0.11062703639E+03 -0.41197261622E+02  0.24113288251E+02  0.21082221471E+03  0.17300000000E+03 0. -1.
<mgrwt>
<rscale>  2 0.20943867E+03</rscale>
<asrwt>0</asrwt>
<pdfrwt beam="1">  1       21 0.30917170E-01 0.20943867E+03</pdfrwt>
<pdfrwt beam="2">  1       21 0.34568482E-01 0.20943867E+03</pdfrwt>
<totfact> 0.80462356E+04</totfact>
</mgrwt>
</event>
<event>
 4    1  0.3948468E+000  0.1982238E+03  0.7546771E-02  0.1151246E+00
         21   -1    0    0  503  502  0.00000000000E+00  0.00000000000E+00  0.31225872846E+03  0.31225872846E+03  0.00000000000E+00 0. -1.
         21   -1    0    0  501  503 -0.00000000000E+00 -0.00000000000E+00 -0.13939994038E+03  0.13939994038E+03  0.00000000000E+00 0.  1.
          6    1    1    2  501    0 -0.47245643453E+02 -0.84448467402E+02  0.15979941996E+02  0.19886692289E+03  0.17300000000E+03 0. -1.
         -6    1    1    2    0  502  0.47245643453E+02  0.84448467402E+02  0.15687884609E+03  0.25279174595E+03  0.17300000000E+03 0.  1.
<mgrwt>
<rscale>  2 0.19822385E+03</rscale>
<asrwt>0</asrwt>
<pdfrwt beam="1">  1       21 0.48039804E-01 0.19822385E+03</pdfrwt>
<pdfrwt beam="2">  1       21 0.21446145E-01 0.19822385E+03</pdfrwt>
<totfact> 0.83662496E+04</totfact>
</mgrwt>
</event>
<event>
 4    1  0.3948468E+000  0.2281816E+03  0.7546771E-02  0.1127926E+00
         21   -1    0    0  503  502  0.00000000000E+00  0.00000000000E+00  0.63177915138E+03  0.63177915138E+03  0.00000000000E+00 0.  1.
         21   -1    0    0  501  503 -0.00000000000E+00 -0.00000000000E+00 -0.11842735020E+03  0.11842735020E+03  0.00000000000E+00 0. -1.
          6    1    1    2  501    0  0.45195641275E+02  0.14175751273E+03  0.49822629941E+02  0.23355755791E+03  0.17300000000E+03 0. -1.
         -6    1    1    2    0  502 -0.45195641275E+02 -0.14175751273E+03  0.46352917124E+03  0.51664894367E+03  0.17300000000E+03 0.  1.
<mgrwt>
<rscale>  2 0.22818159E+03</rscale>
<asrwt>0</asrwt>
<pdfrwt beam="1">  1       21 0.97196791E-01 0.22818159E+03</pdfrwt>
<pdfrwt beam="2">  1       21 0.18219593E-01 0.22818159E+03</pdfrwt>
<totfact> 0.23617901E+04</totfact>
</mgrwt>
</event>
<event>
 4    1  0.3948468E+000  0.2369863E+03  0.7546771E-02  0.1121817E+00
         21   -1    0    0  501  502  0.00000000000E+00  0.00000000000E+00  0.41672492644E+03  0.41672492644E+03  0.00000000000E+00 0.  1.
         21   -1    0    0  502  503 -0.00000000000E+00 -0.00000000000E+00 -0.14116900344E+03  0.14116900344E+03  0.00000000000E+00 0.  1.
          6    1    1    2  501    0  0.13470189476E+03  0.89938435336E+02  0.19716163650E+03  0.30827785115E+03  0.17300000000E+03 0.  1.
         -6    1    1    2    0  503 -0.13470189476E+03 -0.89938435336E+02  0.78394286501E+02  0.24961607873E+03  0.17300000000E+03 0.  1.
<mgrwt>
<rscale>  2 0.23698633E+03</rscale>
<asrwt>0</asrwt>
<pdfrwt beam="1">  1       21 0.64111527E-01 0.23698633E+03</pdfrwt>
<pdfrwt beam="2">  1       21 0.21718308E-01 0.23698633E+03</pdfrwt>
<totfact> 0.43484735E+04</totfact>
</mgrwt>
</event>
<event>
 4    1  0.3948468E+000  0.2219995E+03  0.7546771E-02  0.1132401E+00
         21   -1    0    0  503  502  0.00000000000E+00  0.00000000000E+00  0.66831891916E+02  0.66831891916E+02  0.00000000000E+00 0.  1.
         21   -1    0    0  501  503 -0.00000000000E+00 -0.00000000000E+00 -0.76086507716E+03  0.76086507716E+03  0.00000000000E+00 0.  1.
          6    1    1    2  501    0 -0.13079409585E+03  0.47409696051E+02 -0.41964893722E+03  0.47475151954E+03  0.17300000000E+03 0.  1.
         -6    1    1    2    0  502  0.13079409585E+03 -0.47409696051E+02 -0.27438424802E+03  0.35294544954E+03  0.17300000000E+03 0.  1.
<mgrwt>
<rscale>  2 0.22199949E+03</rscale>
<asrwt>0</asrwt>
<pdfrwt beam="1">  1       21 0.10281829E-01 0.22199949E+03</pdfrwt>
<pdfrwt beam="2">  1       21 0.11705617E+00 0.22199949E+03</pdfrwt>
<totfact> 0.42704739E+04</totfact>
</mgrwt>
</event>
<event>
 4    1  0.3948468E+000  0.1836404E+03  0.7546771E-02  0.1164326E+00
         21   -1    0    0  501  502  0.00000000000E+00  0.00000000000E+00  0.55287990229E+03  0.55287990229E+03  0.00000000000E+00 0. -1.
         21   -1    0    0  502  503 -0.00000000000E+00 -0.00000000000E+00 -0.65089602045E+02  0.65089602045E+02  0.00000000000E+00 0. -1.
          6    1    1    2  501    0 -0.49354250978E+02 -0.36864194053E+02  0.32137711469E+03  0.37014464840E+03  0.17300000000E+03 0. -1.
         -6    1    1    2    0  503  0.49354250978E+02  0.36864194053E+02  0.16641318556E+03  0.24782485594E+03  0.17300000000E+03 0. -1.
<mgrwt>
<rscale>  2 0.18364044E+03</rscale>
<asrwt>0</asrwt>
<pdfrwt beam="1">  1       21 0.85058443E-01 0.18364044E+03</pdfrwt>
<pdfrwt beam="2">  1       21 0.10013785E-01 0.18364044E+03</pdfrwt>
<totfact> 0.97193183E+04</totfact>
</mgrwt>
</event>
<event>
 4    1  0.3948468E+000  0.1873920E+03  0.7546771E-02  0.1160835E+00
         21   -1    0    0  503  502  0.00000000000E+00  0.00000000000E+00  0.13852142474E+03  0.13852142474E+03  0.00000000000E+00 0.  1.
         21   -1    0    0  501  503 -0.00000000000E+00 -0.00000000000E+00 -0.30276851488E+03  0.30276851488E+03  0.00000000000E+00 0.  1.
          6    1    1    2  501    0 -0.59127076165E+02 -0.41118815725E+02 -0.17112656331E+03  0.25377168639E+03  0.17300000000E+03 0.  1.
         -6    1    1    2    0  502  0.59127076165E+02  0.41118815725E+02  0.68794731717E+01  0.18751825323E+03  0.17300000000E+03 0.  1.
<mgrwt>
<rscale>  2 0.18739202E+03</rscale>
<asrwt>0</asrwt>
<pdfrwt beam="1">  1       21 0.21310989E-01 0.18739202E+03</pdfrwt>
<pdfrwt beam="2">  1       21 0.46579771E-01 0.18739202E+03</pdfrwt>
<totfact> 0.90642766E+04</totfact>
</mgrwt>
</event>
<event>
 4    1  0.3948468E+000  0.2443666E+03  0.7546771E-02  0.1116918E+00
         21   -1    0    0  501  502  0.00000000000E+00  0.00000000000E+00  0.11736859898E+03  0.11736859898E+03  0.00000000000E+00 0.  1.
         21   -1    0    0  502  503 -0.00000000000E+00 -0.00000000000E+00 -0.11775271204E+04  0.11775271204E+04  0.00000000000E+00 0.  1.
          6    1    1    2  501    0  0.92116535989E+02 -0.14594715187E+03 -0.42158090209E+02  0.24797647451E+03  0.17300000000E+03 0.  1.
         -6    1    1    2    0  503 -0.92116535989E+02  0.14594715187E+03 -0.10180004312E+04  0.10469192449E+04  0.17300000000E+03 0.  1.
<mgrwt>
<rscale>  2 0.24436658E+03</rscale>
<asrwt>0</asrwt>
<pdfrwt beam="1">  1       21 0.18056707E-01 0.24436658E+03</pdfrwt>
<pdfrwt beam="2">  1       21 0.18115802E+00 0.24436658E+03</pdfrwt>
<totfact> 0.47822401E+03</totfact>
</mgrwt>
</event>
<event>
 4    1  0.3948468E+000  0.1859676E+03  0.7546771E-02  0.1162149E+00
         21   -1    0    0  503  502  0.00000000000E+00  0.00000000000E+00  0.10550275927E+02  0.10550275927E+02  0.00000000000E+00 0. -1.
         21   -1    0    0  501  503 -0.00000000000E+00 -0.00000000000E+00 -0.32883499549E+04  0.32883499549E+04  0.00000000000E+00 0. -1.
          6    1    1    2  501    0 -0.46819507759E+02  0.49627478100E+02 -0.15464248937E+04  0.15575666614E+04  0.17300000000E+03 0. -1.
         -6    1    1    2    0  502  0.46819507759E+02 -0.49627478100E+02 -0.17313747853E+04  0.17413335695E+04  0.17300000000E+03 0. -1.
<mgrwt>
<rscale>  2 0.18596761E+03</rscale>
<asrwt>0</asrwt>
<pdfrwt beam="1">  1       21 0.16231188E-02 0.18596761E+03</pdfrwt>
<pdfrwt beam="2">  1       21 0.50590016E+00 0.18596761E+03</pdfrwt>
<totfact> 0.30003653E+03</totfact>
</mgrwt>
</event>
<event>
 4    1  0.3948468E+000  0.2161443E+03  0.7546771E-02  0.1136791E+00
         21   -1    0    0  503  502  0.00000000000E+00  0.00000000000E+00  0.55194607514E+03  0.55194607514E+03  0.00000000000E+00 0.  1.
         21   -1    0    0  501  503 -0.00000000000E+00 -0.00000000000E+00 -0.84653479200E+02  0.84653479200E+02  0.00000000000E+00 0.  1.
          6    1    1    2  501    0  0.11844487890E+03 -0.52537471331E+02  0.23718662205E+03  0.32089853367E+03  0.17300000000E+03 0. -1.
         -6    1    1    2    0  502 -0.11844487890E+03  0.52537471331E+02  0.23010597389E+03  0.31570102067E+03  0.17300000000E+03 0. -1.
<mgrwt>
<rscale>  2 0.21614434E+03</rscale>
<asrwt>0</asrwt>
<pdfrwt beam="1">  1       21 0.84914779E-01 0.21614434E+03</pdfrwt>
<pdfrwt beam="2">  1       21 0.13023613E-01 0.21614434E+03</pdfrwt>
<totfact> 0.60180032E+04</totfact>
</mgrwt>
</event>
<event>
 4    1  0.3948468E+000  0.1804869E+03  0.7546771E-02  0.1167333E+00
         21   -1    0    0  501  502  0.00000000000E+00  0.00000000000E+00  0.17375855053E+03  0.17375855053E+03  0.00000000000E+00 0.  1.
         21   -1    0    0  502  503 -0.00000000000E+00 -0.00000000000E+00 -0.20347452035E+03  0.20347452035E+03  0.00000000000E+00 0.  1.
          6    1    1    2  501    0 -0.40864070204E+02 -0.31251502506E+02 -0.67747179112E+02  0.19278280245E+03  0.17300000000E+03 0.  1.
         -6    1    1    2    0  503  0.40864070204E+02  0.31251502506E+02  0.38031209293E+02  0.18445026843E+03  0.17300000000E+03 0.  1.
<mgrwt>
<rscale>  2 0.18048692E+03</rscale>
<asrwt>0</asrwt>
<pdfrwt beam="1">  1       21 0.26732085E-01 0.18048692E+03</pdfrwt>
<pdfrwt beam="2">  1       21 0.31303772E-01 0.18048692E+03</pdfrwt>
<totfact> 0.13118258E+05</totfact>
</mgrwt>
</event>
<event>
 4    1  0.3948468E+000  0.1885431E+03  0.7546771E-02  0.1159782E+00
         21   -1    0    0  501  502  0.00000000000E+00  0.00000000000E+00  0.15361809310E+03  0.15361809310E+03  0.00000000000E+00 0.  1.
         21   -1    0    0  502  503 -0.00000000000E+00 -0.00000000000E+00 -0.24033532624E+03  0.24033532624E+03  0.00000000000E+00 0. -1.
          6    1    1    2  501    0  0.64596405184E+02  0.38036906648E+02 -0.81321524322E+02  0.20533312482E+03  0.17300000000E+03 0.  1.
         -6    1    1    2    0  503 -0.64596405184E+02 -0.38036906648E+02 -0.53957088133E+01  0.18862029452E+03  0.17300000000E+03 0.  1.
<mgrwt>
<rscale>  2 0.18854310E+03</rscale>
<asrwt>0</asrwt>
<pdfrwt beam="1">  1       21 0.23633553E-01 0.18854310E+03</pdfrwt>
<pdfrwt beam="2">  1       21 0.36974665E-01 0.18854310E+03</pdfrwt>
<totfact> 0.11909421E+05</totfact>
</mgrwt>
</event>
<event>
 4    1  0.3948468E+000  0.3699994E+03  0.7546771E-02  0.1054693E+00
         21   -1    0    0  501  502  0.00000000000E+00  0.00000000000E+00  0.14491879072E+03  0.14491879072E+03  0.00000000000E+00 0. -1.
         21   -1    0    0  502  503 -0.00000000000E+00 -0.00000000000E+00 -0.94899843927E+03  0.94899843927E+03  0.00000000000E+00 0.  1.
          6    1    1    2  501    0 -0.23377782808E+02 -0.32622701649E+03 -0.43900394673E+03  0.57412895091E+03  0.17300000000E+03 0. -1.
         -6    1    1    2    0  503  0.23377782808E+02  0.32622701649E+03 -0.36507570181E+03  0.51978827908E+03  0.17300000000E+03 0.  1.
<mgrwt>
<rscale>  2 0.36999944E+03</rscale>
<asrwt>0</asrwt>
<pdfrwt beam="1">  1       21 0.22295198E-01 0.36999944E+03</pdfrwt>
<pdfrwt beam="2">  1       21 0.14599976E+00 0.36999944E+03</pdfrwt>
<totfact> 0.54371319E+03</totfact>
</mgrwt>
</event>
<event>
 4    1  0.3948468E+000  0.2412962E+03  0.7546771E-02  0.1118932E+00
         21   -1    0    0  503  502  0.00000000000E+00  0.00000000000E+00  0.19857001846E+04  0.19857001846E+04  0.00000000000E+00 0. -1.
         21   -1    0    0  501  503 -0.00000000000E+00 -0.00000000000E+00 -0.44171801767E+02  0.44171801767E+02  0.00000000000E+00 0.  1.
          6    1    1    2  501    0  0.16186854583E+03 -0.45753931182E+02  0.38228284282E+03  0.45206638922E+03  0.17300000000E+03 0.  1.
         -6    1    1    2    0  502 -0.16186854583E+03  0.45753931182E+02  0.15592455400E+04  0.15778055972E+04  0.17300000000E+03 0.  1.
<mgrwt>
<rscale>  2 0.24129618E+03</rscale>
<asrwt>0</asrwt>
<pdfrwt beam="1">  1       21 0.30549227E+00 0.24129618E+03</pdfrwt>
<pdfrwt beam="2">  1       21 0.67956634E-02 0.24129618E+03</pdfrwt>
<totfact> 0.47987329E+03</totfact>
</mgrwt>
</event>
<event>
 4    1  0.3948468E+000  0.1769699E+03  0.7546771E-02  0.1170768E+00
         21   -1    0    0  501  502  0.00000000000E+00  0.00000000000E+00  0.83137980496E+02  0.83137980496E+02  0.00000000000E+00 0.  1.
         21   -1    0    0  502  503 -0.00000000000E+00 -0.00000000000E+00 -0.55993765591E+03  0.55993765591E+03  0.00000000000E+00 0.  1.
          6    1    1    2  501    0  0.24039395943E+02  0.28486099760E+02 -0.54464280305E+02  0.18516130337E+03  0.17300000000E+03 0.  1.
         -6    1    1    2    0  503 -0.24039395943E+02 -0.28486099760E+02 -0.42233539511E+03  0.45791433303E+03  0.17300000000E+03 0.  1.
<mgrwt>
<rscale>  2 0.17696991E+03</rscale>
<asrwt>0</asrwt>
<pdfrwt beam="1">  1       21 0.12790459E-01 0.17696991E+03</pdfrwt>
<pdfrwt beam="2">  1       21 0.86144253E-01 0.17696991E+03</pdfrwt>
<totfact> 0.61267955E+04</totfact>
</mgrwt>
</event>
<event>
 4    1  0.3948468E+000  0.1989878E+03  0.7546771E-02  0.1150596E+00
         21   -1    0    0  501  502  0.00000000000E+00  0.00000000000E+00  0.96449024392E+02  0.96449024392E+02  0.00000000000E+00 0.  1.
         21   -1    0    0  502  503 -0.00000000000E+00 -0.00000000000E+00 -0.54793415360E+03  0.54793415360E+03  0.00000000000E+00 0.  1.
          6    1    1    2  501    0 -0.98229069348E+02  0.42651273114E+01 -0.64405254126E+02  0.20915108925E+03  0.17300000000E+03 0.  1.
         -6    1    1    2    0  503  0.98229069348E+02 -0.42651273114E+01 -0.38707987508E+03  0.43523208874E+03  0.17300000000E+03 0.  1.
<mgrwt>
<rscale>  2 0.19898779E+03</rscale>
<asrwt>0</asrwt>
<pdfrwt beam="1">  1       21 0.14838311E-01 0.19898779E+03</pdfrwt>
<pdfrwt beam="2">  1       21 0.84297564E-01 0.19898779E+03</pdfrwt>
<totfact> 0.48703806E+04</totfact>
</mgrwt>
</event>
<event>
 4    1  0.3948468E+000  0.1978214E+03  0.7546771E-02  0.1151590E+00
         21   -1    0    0  501  502  0.00000000000E+00  0.00000000000E+00  0.58025450209E+03  0.58025450209E+03  0.00000000000E+00 0.  1.
         21   -1    0    0  502  503 -0.00000000000E+00 -0.00000000000E+00 -0.93089419565E+02  0.93089419565E+02  0.00000000000E+00 0. -1.
          6    1    1    2  501    0  0.78998383199E+02  0.54438729973E+02  0.42030087413E+03  0.46452787286E+03  0.17300000000E+03 0.  1.
         -6    1    1    2    0  503 -0.78998383199E+02 -0.54438729973E+02  0.66864208391E+02  0.20881604879E+03  0.17300000000E+03 0. -1.
<mgrwt>
<rscale>  2 0.19782143E+03</rscale>
<asrwt>0</asrwt>
<pdfrwt beam="1">  1       21 0.89269921E-01 0.19782143E+03</pdfrwt>
<pdfrwt beam="2">  1       21 0.14321450E-01 0.19782143E+03</pdfrwt>
<totfact> 0.45561132E+04</totfact>
</mgrwt>
</event>
<event>
 4    1  0.3948468E+000  0.2266832E+03  0.7546771E-02  0.1128996E+00
         21   -1    0    0  503  502  0.00000000000E+00  0.00000000000E+00  0.53023728452E+02  0.53023728452E+02  0.00000000000E+00 0. -1.
         21   -1    0    0  501  503 -0.00000000000E+00 -0.00000000000E+00 -0.10042352747E+04  0.10042352747E+04  0.00000000000E+00 0.  1.
          6    1    1    2  501    0  0.12872768468E+03 -0.69895932313E+02 -0.57448604665E+03  0.61759167413E+03  0.17300000000E+03 0.  1.
         -6    1    1    2    0  502 -0.12872768468E+03  0.69895932313E+02 -0.37672549955E+03  0.43966732897E+03  0.17300000000E+03 0. -1.
<mgrwt>
<rscale>  2 0.22668317E+03</rscale>
<asrwt>0</asrwt>
<pdfrwt beam="1">  1       21 0.81574978E-02 0.22668317E+03</pdfrwt>
<pdfrwt beam="2">  1       21 0.15449771E+00 0.22668317E+03</pdfrwt>
<totfact> 0.31417316E+04</totfact>
</mgrwt>
</event>
<event>
 4    1  0.3948468E+000  0.2062849E+03  0.7546771E-02  0.1144542E+00
         21   -1    0    0  501  502  0.00000000000E+00  0.00000000000E+00  0.21685817120E+03  0.21685817120E+03  0.00000000000E+00 0. -1.
         21   -1    0    0  502  503 -0.00000000000E+00 -0.00000000000E+00 -0.73062467066E+03  0.73062467066E+03  0.00000000000E+00 0. -1.
          6    1    1    2  501    0  0.95004605423E+02 -0.59988318991E+02  0.14827658534E+03  0.25404609666E+03  0.17300000000E+03 0. -1.
         -6    1    1    2    0  503 -0.95004605423E+02  0.59988318991E+02 -0.66204308480E+03  0.69343674520E+03  0.17300000000E+03 0. -1.
<mgrwt>
<rscale>  2 0.20628493E+03</rscale>
<asrwt>0</asrwt>
<pdfrwt beam="1">  1       21 0.33362795E-01 0.20628493E+03</pdfrwt>
<pdfrwt beam="2">  1       21 0.11240380E+00 0.20628493E+03</pdfrwt>
<totfact> 0.53049194E+03</totfact>
</mgrwt>
</event>
<event>
 4    1  0.3948468E+000  0.2065772E+03  0.7546771E-02  0.1144305E+00
         21   -1    0    0  501  502  0.00000000000E+00  0.00000000000E+00  0.26062715179E+03  0.26062715179E+03  0.00000000000E+00 0.  1.
         21   -1    0    0  502  503 -0.00000000000E+00 -0.00000000000E+00 -0.55468735189E+03  0.55468735189E+03  0.00000000000E+00 0. -1.
          6    1    1    2  501    0 -0.76335339448E+02  0.83174948872E+02  0.19521100422E+03  0.28422085134E+03  0.17300000000E+03 0.  1.
         -6    1    1    2    0  503  0.76335339448E+02 -0.83174948872E+02 -0.48927120432E+03  0.53109365233E+03  0.17300000000E+03 0. -1.
<mgrwt>
<rscale>  2 0.20657724E+03</rscale>
<asrwt>0</asrwt>
<pdfrwt beam="1">  1       21 0.40096486E-01 0.20657724E+03</pdfrwt>
<pdfrwt beam="2">  1       21 0.85336514E-01 0.20657724E+03</pdfrwt>
<totfact> 0.70455257E+03</totfact>
</mgrwt>
</event>
<event>
 4    1  0.3948468E+000  0.1771386E+03  0.7546771E-02  0.1170601E+00
         21   -1    0    0  501  502  0.00000000000E+00  0.00000000000E+00  0.51014020935E+03  0.51014020935E+03  0.00000000000E+00 0.  1.
         21   -1    0    0  502  503 -0.00000000000E+00 -0.00000000000E+00 -0.17681164333E+03  0.17681164333E+03  0.00000000000E+00 0.  1.
          6    1    1    2  501    0  0.38037856327E+02 -0.14849401408E+01  0.44403524136E+03  0.47806419980E+03  0.17300000000E+03 0.  1.
         -6    1    1    2    0  503 -0.38037856327E+02  0.14849401408E+01 -0.11070667534E+03  0.20888765288E+03  0.17300000000E+03 0.  1.
<mgrwt>
<rscale>  2 0.17713860E+03</rscale>
<asrwt>0</asrwt>
<pdfrwt beam="1">  1       21 0.78483108E-01 0.17713860E+03</pdfrwt>
<pdfrwt beam="2">  1       21 0.27201792E-01 0.17713860E+03</pdfrwt>
<totfact> 0.18679147E+04</totfact>
</mgrwt>
</event>
<event>
 4    1  0.3948468E+000  0.2534541E+03  0.7546771E-02  0.1111141E+00
         21   -1    0    0  501  502  0.00000000000E+00  0.00000000000E+00  0.30498785045E+03  0.30498785045E+03  0.00000000000E+00 0.  1.
         21   -1    0    0  502  503 -0.00000000000E+00 -0.00000000000E+00 -0.44618231987E+03  0.44618231987E+03  0.00000000000E+00 0.  1.
          6    1    1    2  501    0  0.36374149955E+01 -0.18519375459E+03  0.20229914014E+03  0.32428983892E+03  0.17300000000E+03 0.  1.
         -6    1    1    2    0  503 -0.36374149955E+01  0.18519375459E+03 -0.34349360957E+03  0.42688033140E+03  0.17300000000E+03 0.  1.
<mgrwt>
<rscale>  2 0.25345405E+03</rscale>
<asrwt>0</asrwt>
<pdfrwt beam="1">  1       21 0.46921208E-01 0.25345405E+03</pdfrwt>
<pdfrwt beam="2">  1       21 0.68643434E-01 0.25345405E+03</pdfrwt>
<totfact> 0.80879972E+03</totfact>
</mgrwt>
</event>
<event>
 4    1  0.3948468E+000  0.1746432E+03  0.7546771E-02  0.1173090E+00
         21   -1    0    0  503  502  0.00000000000E+00  0.00000000000E+00  0.13312731346E+04  0.13312731346E+04  0.00000000000E+00 0. -1.
         21   -1    0    0  501  503 -0.00000000000E+00 -0.00000000000E+00 -0.44513247821E+02  0.44513247821E+02  0.00000000000E+00 0. -1.
          6    1    1    2  501    0  0.22606627836E+02  0.77587335820E+01  0.16416546820E+03  0.23968846138E+03  0.17300000000E+03 0. -1.
         -6    1    1    2    0  502 -0.22606627836E+02 -0.77587335820E+01  0.11225944186E+04  0.11360979210E+04  0.17300000000E+03 0. -1.
<mgrwt>
<rscale>  2 0.17464323E+03</rscale>
<asrwt>0</asrwt>
<pdfrwt beam="1">  1       21 0.20481122E+00 0.17464323E+03</pdfrwt>
<pdfrwt beam="2">  1       21 0.68481930E-02 0.17464323E+03</pdfrwt>
<totfact> 0.19937197E+04</totfact>
</mgrwt>
</event>
<event>
 4    1  0.3948468E+000  0.2459365E+03  0.7546771E-02  0.1115900E+00
         21   -1    0    0  501  502  0.00000000000E+00  0.00000000000E+00  0.63083973690E+02  0.63083973690E+02  0.00000000000E+00 0. -1.
         21   -1    0    0  502  503 -0.00000000000E+00 -0.00000000000E+00 -0.16633095496E+04  0.16633095496E+04  0.00000000000E+00 0.  1.
          6    1    1    2  501    0  0.11385003232E+03 -0.13264215646E+03 -0.13618942448E+04  0.13839222180E+04  0.17300000000E+03 0.  1.
         -6    1    1    2    0  503 -0.11385003232E+03  0.13264215646E+03 -0.23833133106E+03  0.34247130521E+03  0.17300000000E+03 0. -1.
<mgrwt>
<rscale>  2 0.24593652E+03</rscale>
<asrwt>0</asrwt>
<pdfrwt beam="1">  1       21 0.97052281E-02 0.24593652E+03</pdfrwt>
<pdfrwt beam="2">  1       21 0.25589374E+00 0.24593652E+03</pdfrwt>
<totfact> 0.49957086E+03</totfact>
</mgrwt>
</event>
<event>
 4    1  0.3948468E+000  0.2222467E+03  0.7546771E-02  0.1132219E+00
         21   -1    0    0  501  502  0.00000000000E+00  0.00000000000E+00  0.17099503510E+03  0.17099503510E+03  0.00000000000E+00 0. -1.
         21   -1    0    0  502  503 -0.00000000000E+00 -0.00000000000E+00 -0.30376141313E+03  0.30376141313E+03  0.00000000000E+00 0. -1.
          6    1    1    2  501    0 -0.10428702753E+02  0.13912532319E+03 -0.13806968575E+02  0.22267520242E+03  0.17300000000E+03 0. -1.
         -6    1    1    2    0  503  0.10428702753E+02 -0.13912532319E+03 -0.11895940946E+03  0.25208124581E+03  0.17300000000E+03 0. -1.
<mgrwt>
<rscale>  2 0.22224674E+03</rscale>
<asrwt>0</asrwt>
<pdfrwt beam="1">  1       21 0.26306929E-01 0.22224674E+03</pdfrwt>
<pdfrwt beam="2">  1       21 0.46732524E-01 0.22224674E+03</pdfrwt>
<totfact> 0.59432589E+04</totfact>
</mgrwt>
</event>
<event>
 4    1  0.3948468E+000  0.1787032E+03  0.7546771E-02  0.1169064E+00
         21   -1    0    0  501  502  0.00000000000E+00  0.00000000000E+00  0.38049322868E+03  0.38049322868E+03  0.00000000000E+00 0. -1.
         21   -1    0    0  502  503 -0.00000000000E+00 -0.00000000000E+00 -0.93177476347E+02  0.93177476347E+02  0.00000000000E+00 0. -1.
          6    1    1    2  501    0 -0.40688670252E+02 -0.18715514222E+02  0.21826840202E+03  0.28209206597E+03  0.17300000000E+03 0.  1.
         -6    1    1    2    0  503  0.40688670252E+02  0.18715514222E+02  0.69047350308E+02  0.19157863906E+03  0.17300000000E+03 0.  1.
<mgrwt>
<rscale>  2 0.17870321E+03</rscale>
<asrwt>0</asrwt>
<pdfrwt beam="1">  1       21 0.58537419E-01 0.17870321E+03</pdfrwt>
<pdfrwt beam="2">  1       21 0.14334997E-01 0.17870321E+03</pdfrwt>
<totfact> 0.11696564E+05</totfact>
</mgrwt>
</event>
<event>
 4    1  0.3948468E+000  0.2147546E+03  0.7546771E-02  0.1137855E+00
         21   -1    0    0  503  502  0.00000000000E+00  0.00000000000E+00  0.27583617194E+03  0.27583617194E+03  0.00000000000E+00 0.  1.
         21   -1    0    0  501  503 -0.00000000000E+00 -0.00000000000E+00 -0.27597784655E+03  0.27597784655E+03  0.00000000000E+00 0.  1.
          6    1    1    2  501    0 -0.11858572925E+03 -0.46129630306E+02 -0.17329080364E+03  0.27595148233E+03  0.17300000000E+03 0.  1.
         -6    1    1    2    0  502  0.11858572925E+03  0.46129630306E+02  0.17314912903E+03  0.27586253616E+03  0.17300000000E+03 0.  1.
<mgrwt>
<rscale>  2 0.21475455E+03</rscale>
<asrwt>0</asrwt>
<pdfrwt beam="1">  1       21 0.42436334E-01 0.21475455E+03</pdfrwt>
<pdfrwt beam="2">  1       21 0.42458130E-01 0.21475455E+03</pdfrwt>
<totfact> 0.28171364E+04</totfact>
</mgrwt>
</event>
<event>
 4    1  0.3948468E+000  0.2221090E+03  0.7546771E-02  0.1132320E+00
         21   -1    0    0  503  502  0.00000000000E+00  0.00000000000E+00  0.11691321024E+03  0.11691321024E+03  0.00000000000E+00 0.  1.
         21   -1    0    0  501  503 -0.00000000000E+00 -0.00000000000E+00 -0.46697838136E+03  0.46697838136E+03  0.00000000000E+00 0.  1.
          6    1    1    2  501    0 -0.50522254583E+02  0.12981106011E+03 -0.26568109862E+03  0.34629302000E+03  0.17300000000E+03 0.  1.
         -6    1    1    2    0  502  0.50522254583E+02 -0.12981106011E+03 -0.84384072494E+02  0.23759857160E+03  0.17300000000E+03 0.  1.
<mgrwt>
<rscale>  2 0.22210900E+03</rscale>
<asrwt>0</asrwt>
<pdfrwt beam="1">  1       21 0.17986648E-01 0.22210900E+03</pdfrwt>
<pdfrwt beam="2">  1       21 0.71842828E-01 0.22210900E+03</pdfrwt>
<totfact> 0.48491293E+04</totfact>
</mgrwt>
</event>
<event>
 4    1  0.3948468E+000  0.2520064E+03  0.7546771E-02  0.1112043E+00
         21   -1    0    0  501  502  0.00000000000E+00  0.00000000000E+00  0.46246812667E+03  0.46246812667E+03  0.00000000000E+00 0. -1.
         21   -1    0    0  502  503 -0.00000000000E+00 -0.00000000000E+00 -0.19889950028E+03  0.19889950028E+03  0.00000000000E+00 0. -1.
          6    1    1    2  501    0 -0.14380324203E+03  0.11357305449E+03  0.31577925142E+03  0.40400958745E+03  0.17300000000E+03 0. -1.
         -6    1    1    2    0  503  0.14380324203E+03 -0.11357305449E+03 -0.52210625026E+02  0.25735803949E+03  0.17300000000E+03 0. -1.
<mgrwt>
<rscale>  2 0.25200637E+03</rscale>
<asrwt>0</asrwt>
<pdfrwt beam="1">  1       21 0.71148942E-01 0.25200637E+03</pdfrwt>
<pdfrwt beam="2">  1       21 0.30599923E-01 0.25200637E+03</pdfrwt>
<totfact> 0.17726976E+04</totfact>
</mgrwt>
</event>
<event>
 4    1  0.3948468E+000  0.1733734E+03  0.7546771E-02  0.1174375E+00
         21   -1    0    0  503  502  0.00000000000E+00  0.00000000000E+00  0.81736924387E+02  0.81736924387E+02  0.00000000000E+00 0.  1.
         21   -1    0    0  501  503 -0.00000000000E+00 -0.00000000000E+00 -0.40316127554E+03  0.40316127554E+03  0.00000000000E+00 0.  1.
          6    1    1    2  501    0 -0.63451520418E+00  0.11354778598E+02 -0.23257155940E+03  0.29008251214E+03  0.17300000000E+03 0. -1.
         -6    1    1    2    0  502  0.63451520418E+00 -0.11354778598E+02 -0.88852791757E+02  0.19481568779E+03  0.17300000000E+03 0. -1.
<mgrwt>
<rscale>  2 0.17337339E+03</rscale>
<asrwt>0</asrwt>
<pdfrwt beam="1">  1       21 0.12574911E-01 0.17337339E+03</pdfrwt>
<pdfrwt beam="2">  1       21 0.62024813E-01 0.17337339E+03</pdfrwt>
<totfact> 0.13107028E+05</totfact>
</mgrwt>
</event>
<event>
 4    1  0.3948468E+000  0.1809941E+03  0.7546771E-02  0.1166844E+00
         21   -1    0    0  503  502  0.00000000000E+00  0.00000000000E+00  0.23882303470E+03  0.23882303470E+03  0.00000000000E+00 0.  1.
         21   -1    0    0  501  503 -0.00000000000E+00 -0.00000000000E+00 -0.14548658844E+03  0.14548658844E+03  0.00000000000E+00 0.  1.
          6    1    1    2  501    0  0.52993175004E+02  0.46466131233E+01  0.72031533627E+00  0.18099554267E+03  0.17300000000E+03 0.  1.
         -6    1    1    2    0  502 -0.52993175004E+02 -0.46466131233E+01  0.92616130920E+02  0.20331408047E+03  0.17300000000E+03 0.  1.
<mgrwt>
<rscale>  2 0.18099411E+03</rscale>
<asrwt>0</asrwt>
<pdfrwt beam="1">  1       21 0.36742005E-01 0.18099411E+03</pdfrwt>
<pdfrwt beam="2">  1       21 0.22382552E-01 0.18099411E+03</pdfrwt>
<totfact> 0.13401373E+05</totfact>
</mgrwt>
</event>
<event>
 4    1  0.3948468E+000  0.2061528E+03  0.7546771E-02  0.1144649E+00
         21   -1    0    0  503  502  0.00000000000E+00  0.00000000000E+00  0.40713464418E+03  0.40713464418E+03  0.00000000000E+00 0.  1.
         21   -1    0    0  501  503 -0.00000000000E+00 -0.00000000000E+00 -0.25249945365E+03  0.25249945365E+03  0.00000000000E+00 0.  1.
          6    1    1    2  501    0  0.62439069477E+02 -0.93120071214E+02 -0.17528671309E+03  0.27060010504E+03  0.17300000000E+03 0.  1.
         -6    1    1    2    0  502 -0.62439069477E+02  0.93120071214E+02  0.32992190362E+03  0.38903399279E+03  0.17300000000E+03 0.  1.
<mgrwt>
<rscale>  2 0.20615282E+03</rscale>
<asrwt>0</asrwt>
<pdfrwt beam="1">  1       21 0.62636099E-01 0.20615282E+03</pdfrwt>
<pdfrwt beam="2">  1       21 0.38846070E-01 0.20615282E+03</pdfrwt>
<totfact> 0.14962741E+04</totfact>
</mgrwt>
</event>
<event>
 4    1  0.3948468E+000  0.1730718E+03  0.7546771E-02  0.1174682E+00
         21   -1    0    0  503  502  0.00000000000E+00  0.00000000000E+00  0.50271239413E+03  0.50271239413E+03  0.00000000000E+00 0. -1.
         21   -1    0    0  501  503 -0.00000000000E+00 -0.00000000000E+00 -0.61824792726E+02  0.61824792726E+02  0.00000000000E+00 0. -1.
          6    1    1    2  501    0 -0.49222665400E+01 -0.78858968249E+00  0.16671134284E+03  0.24030506115E+03  0.17300000000E+03 0.  1.
         -6    1    1    2    0  502  0.49222665400E+01  0.78858968249E+00  0.27417625857E+03  0.32423212571E+03  0.17300000000E+03 0.  1.
<mgrwt>
<rscale>  2 0.17307181E+03</rscale>
<asrwt>0</asrwt>
<pdfrwt beam="1">  1       21 0.77340366E-01 0.17307181E+03</pdfrwt>
<pdfrwt beam="2">  1       21 0.95115069E-02 0.17307181E+03</pdfrwt>
<totfact> 0.13249209E+05</totfact>
</mgrwt>
</event>
<event>
 4    1  0.3948468E+000  0.2496114E+03  0.7546771E-02  0.1113551E+00
         21   -1    0    0  501  502  0.00000000000E+00  0.00000000000E+00  0.13071568263E+03  0.13071568263E+03  0.00000000000E+00 0.  1.
         21   -1    0    0  502  503 -0.00000000000E+00 -0.00000000000E+00 -0.65742253805E+03  0.65742253805E+03  0.00000000000E+00 0. -1.
          6    1    1    2  501    0  0.20141821605E+02 -0.17880481415E+03 -0.46999336652E+03  0.53216502996E+03  0.17300000000E+03 0. -1.
         -6    1    1    2    0  503 -0.20141821605E+02  0.17880481415E+03 -0.56713488903E+02  0.25597319072E+03  0.17300000000E+03 0.  1.
<mgrwt>
<rscale>  2 0.24961141E+03</rscale>
<asrwt>0</asrwt>
<pdfrwt beam="1">  1       21 0.20110105E-01 0.24961141E+03</pdfrwt>
<pdfrwt beam="2">  1       21 0.10114193E+00 0.24961141E+03</pdfrwt>
<totfact> 0.17665329E+04</totfact>
</mgrwt>
</event>
<event>
 4    1  0.3948468E+000  0.2434400E+03  0.7546771E-02  0.1117522E+00
         21   -1    0    0  501  502  0.00000000000E+00  0.00000000000E+00  0.14116946296E+03  0.14116946296E+03  0.00000000000E+00 0. -1.
         21   -1    0    0  502  503 -0.00000000000E+00 -0.00000000000E+00 -0.42706802906E+03  0.42706802906E+03  0.00000000000E+00 0.  1.
          6    1    1    2  501    0  0.11793929918E+03  0.12419487405E+03 -0.18001202734E+03  0.30276620521E+03  0.17300000000E+03 0. -1.
         -6    1    1    2    0  503 -0.11793929918E+03 -0.12419487405E+03 -0.10588653876E+03  0.26547128681E+03  0.17300000000E+03 0. -1.
<mgrwt>
<rscale>  2 0.24344002E+03</rscale>
<asrwt>0</asrwt>
<pdfrwt beam="1">  1       21 0.21718379E-01 0.24344002E+03</pdfrwt>
<pdfrwt beam="2">  1       21 0.65702772E-01 0.24344002E+03</pdfrwt>
<totfact> 0.41099073E+04</totfact>
</mgrwt>
</event>
<event>
 4    1  0.3948468E+000  0.1935128E+03  0.7546771E-02  0.1155331E+00
         21   -1    0    0  503  502  0.00000000000E+00  0.00000000000E+00  0.25256366822E+02  0.25256366822E+02  0.00000000000E+00 0. -1.
         21   -1    0    0  501  503 -0.00000000000E+00 -0.00000000000E+00 -0.17665439126E+04  0.17665439126E+04  0.00000000000E+00 0. -1.
          6    1    1    2  501    0  0.16148093095E+02  0.85190653257E+02 -0.12297719647E+04  0.12449041302E+04  0.17300000000E+03 0. -1.
         -6    1    1    2    0  502 -0.16148093095E+02 -0.85190653257E+02 -0.51151558111E+03  0.54689614922E+03  0.17300000000E+03 0. -1.
<mgrwt>
<rscale>  2 0.19351281E+03</rscale>
<asrwt>0</asrwt>
<pdfrwt beam="1">  1       21 0.38855940E-02 0.19351281E+03</pdfrwt>
<pdfrwt beam="2">  1       21 0.27177605E+00 0.19351281E+03</pdfrwt>
<totfact> 0.20405960E+04</totfact>
</mgrwt>
</event>
<event>
 4    1  0.3948468E+000  0.1772908E+03  0.7546771E-02  0.1170451E+00
         21   -1    0    0  501  502  0.00000000000E+00  0.00000000000E+00  0.13114679716E+03  0.13114679716E+03  0.00000000000E+00 0.  1.
         21   -1    0    0  502  503 -0.00000000000E+00 -0.00000000000E+00 -0.25110073927E+03  0.25110073927E+03  0.00000000000E+00 0.  1.
          6    1    1    2  501    0 -0.10717801666E+02 -0.37258029213E+02 -0.19199865094E+02  0.17832741470E+03  0.17300000000E+03 0.  1.
         -6    1    1    2    0  503  0.10717801666E+02  0.37258029213E+02 -0.10075407701E+03  0.20392012173E+03  0.17300000000E+03 0.  1.
<mgrwt>
<rscale>  2 0.17729081E+03</rscale>
<asrwt>0</asrwt>
<pdfrwt beam="1">  1       21 0.20176431E-01 0.17729081E+03</pdfrwt>
<pdfrwt beam="2">  1       21 0.38630883E-01 0.17729081E+03</pdfrwt>
<totfact> 0.14745758E+05</totfact>
</mgrwt>
</event>
<event>
 4    1  0.3948468E+000  0.2004313E+03  0.7546771E-02  0.1149376E+00
         21   -1    0    0  503  502  0.00000000000E+00  0.00000000000E+00  0.13086195669E+03  0.13086195669E+03  0.00000000000E+00 0. -1.
         21   -1    0    0  501  503 -0.00000000000E+00 -0.00000000000E+00 -0.76409487839E+03  0.76409487839E+03  0.00000000000E+00 0. -1.
          6    1    1    2  501    0 -0.57893479358E+02  0.83018425616E+02 -0.66272199904E+03  0.69236779385E+03  0.17300000000E+03 0. -1.
         -6    1    1    2    0  502  0.57893479358E+02 -0.83018425616E+02  0.29489077348E+02  0.20258904123E+03  0.17300000000E+03 0. -1.
<mgrwt>
<rscale>  2 0.20043132E+03</rscale>
<asrwt>0</asrwt>
<pdfrwt beam="1">  1       21 0.20132608E-01 0.20043132E+03</pdfrwt>
<pdfrwt beam="2">  1       21 0.11755306E+00 0.20043132E+03</pdfrwt>
<totfact> 0.12600408E+04</totfact>
</mgrwt>
</event>
<event>
 4    1  0.3948468E+000  0.1881969E+03  0.7546771E-02  0.1160098E+00
         21   -1    0    0  503  502  0.00000000000E+00  0.00000000000E+00  0.16968922287E+04  0.16968922287E+04  0.00000000000E+00 0.  1.
         21   -1    0    0  501  503 -0.00000000000E+00 -0.00000000000E+00 -0.31183542511E+02  0.31183542511E+02  0.00000000000E+00 0.  1.
          6    1    1    2  501    0  0.73116874996E+02 -0.11958140635E+02  0.33600447625E+03  0.38511956922E+03  0.17300000000E+03 0.  1.
         -6    1    1    2    0  502 -0.73116874996E+02  0.11958140635E+02  0.13297042099E+04  0.13429562020E+04  0.17300000000E+03 0.  1.
<mgrwt>
<rscale>  2 0.18819690E+03</rscale>
<asrwt>0</asrwt>
<pdfrwt beam="1">  1       21 0.26106027E+00 0.18819690E+03</pdfrwt>
<pdfrwt beam="2">  1       21 0.47974694E-02 0.18819690E+03</pdfrwt>
<totfact> 0.16596534E+04</totfact>
</mgrwt>
</event>
<event>
 4    1  0.3948468E+000  0.1901536E+03  0.7546771E-02  0.1158323E+00
         21   -1    0    0  503  502  0.00000000000E+00  0.00000000000E+00  0.65687660503E+03  0.65687660503E+03  0.00000000000E+00 0.  1.
         21   -1    0    0  501  503 -0.00000000000E+00 -0.00000000000E+00 -0.62763907147E+02  0.62763907147E+02  0.00000000000E+00 0.  1.
          6    1    1    2  501    0 -0.61354374399E+02 -0.49649021391E+02  0.17087873063E+03  0.25565196100E+03  0.17300000000E+03 0.  1.
         -6    1    1    2    0  502  0.61354374399E+02  0.49649021391E+02  0.42323396725E+03  0.46398855117E+03  0.17300000000E+03 0.  1.
<mgrwt>
<rscale>  2 0.19015358E+03</rscale>
<asrwt>0</asrwt>
<pdfrwt beam="1">  1       21 0.10105793E+00 0.19015358E+03</pdfrwt>
<pdfrwt beam="2">  1       21 0.96559862E-02 0.19015358E+03</pdfrwt>
<totfact> 0.69189615E+04</totfact>
</mgrwt>
</event>
<event>
 4    1  0.3948468E+000  0.2914136E+03  0.7546771E-02  0.1089613E+00
         21   -1    0    0  501  502  0.00000000000E+00  0.00000000000E+00  0.18032704543E+03  0.18032704543E+03  0.00000000000E+00 0. -1.
         21   -1    0    0  502  503 -0.00000000000E+00 -0.00000000000E+00 -0.47965182859E+03  0.47965182859E+03  0.00000000000E+00 0.  1.
          6    1    1    2  501    0  0.21063467362E+03  0.10308199338E+03 -0.19415408696E+03  0.35016806332E+03  0.17300000000E+03 0. -1.
         -6    1    1    2    0  503 -0.21063467362E+03 -0.10308199338E+03 -0.10517069621E+03  0.30981081070E+03  0.17300000000E+03 0. -1.
<mgrwt>
<rscale>  2 0.29141356E+03</rscale>
<asrwt>0</asrwt>
<pdfrwt beam="1">  1       21 0.27742623E-01 0.29141356E+03</pdfrwt>
<pdfrwt beam="2">  1       21 0.73792588E-01 0.29141356E+03</pdfrwt>
<totfact> 0.19444746E+04</totfact>
</mgrwt>
</event>
<event>
 4    1  0.3948468E+000  0.1808894E+03  0.7546771E-02  0.1166945E+00
         21   -1    0    0  501  502  0.00000000000E+00  0.00000000000E+00  0.11686488371E+03  0.11686488371E+03  0.00000000000E+00 0. -1.
         21   -1    0    0  502  503 -0.00000000000E+00 -0.00000000000E+00 -0.30374687238E+03  0.30374687238E+03  0.00000000000E+00 0. -1.
          6    1    1    2  501    0  0.11194808763E+02  0.51639706419E+02 -0.34625551741E+02  0.18417359163E+03  0.17300000000E+03 0. -1.
         -6    1    1    2    0  503 -0.11194808763E+02 -0.51639706419E+02 -0.15225643694E+03  0.23643816445E+03  0.17300000000E+03 0. -1.
<mgrwt>
<rscale>  2 0.18088942E+03</rscale>
<asrwt>0</asrwt>
<pdfrwt beam="1">  1       21 0.17979213E-01 0.18088942E+03</pdfrwt>
<pdfrwt beam="2">  1       21 0.46730287E-01 0.18088942E+03</pdfrwt>
<totfact> 0.12386705E+05</totfact>
</mgrwt>
</event>
<event>
 4    1  0.3948468E+000  0.2551344E+03  0.7546771E-02  0.1110102E+00
         21   -1    0    0  503  502  0.00000000000E+00  0.00000000000E+00  0.18185347447E+03  0.18185347447E+03  0.00000000000E+00 0.  1.
         21   -1    0    0  501  503 -0.00000000000E+00 -0.00000000000E+00 -0.36041099833E+03  0.36041099833E+03  0.00000000000E+00 0. -1.
          6    1    1    2  501    0 -0.16463539747E+03 -0.89776181723E+02 -0.11170526641E+03  0.27851686385E+03  0.17300000000E+03 0.  1.
         -6    1    1    2    0  502  0.16463539747E+03  0.89776181723E+02 -0.66852257458E+02  0.26374760896E+03  0.17300000000E+03 0.  1.
<mgrwt>
<rscale>  2 0.25513443E+03</rscale>
<asrwt>0</asrwt>
<pdfrwt beam="1">  1       21 0.27977458E-01 0.25513443E+03</pdfrwt>
<pdfrwt beam="2">  1       21 0.55447846E-01 0.25513443E+03</pdfrwt>
<totfact> 0.36319198E+04</totfact>
</mgrwt>
</event>
<event>
 4    1  0.3948468E+000  0.2258192E+03  0.7546771E-02  0.1129618E+00
         21   -1    0    0  501  502  0.00000000000E+00  0.00000000000E+00  0.19923537641E+04  0.19923537641E+04  0.00000000000E+00 0.  1.
         21   -1    0    0  502  503 -0.00000000000E+00 -0.00000000000E+00 -0.45757098293E+02  0.45757098293E+02  0.00000000000E+00 0.  1.
          6    1    1    2  501    0 -0.14036392781E+03 -0.36922381814E+02  0.16497494751E+04  0.16651329151E+04  0.17300000000E+03 0.  1.
         -6    1    1    2    0  503  0.14036392781E+03  0.36922381814E+02  0.29684719076E+03  0.37297794730E+03  0.17300000000E+03 0.  1.
<mgrwt>
<rscale>  2 0.22581916E+03</rscale>
<asrwt>0</asrwt>
<pdfrwt beam="1">  1       21 0.30651590E+00 0.22581916E+03</pdfrwt>
<pdfrwt beam="2">  1       21 0.70395551E-02 0.22581916E+03</pdfrwt>
<totfact> 0.45208923E+03</totfact>
</mgrwt>
</event>
<event>
 4    1  0.3948468E+000  0.2495619E+03  0.7546771E-02  0.1113582E+00
         21   -1    0    0  501  502  0.00000000000E+00  0.00000000000E+00  0.11712542878E+04  0.11712542878E+04  0.00000000000E+00 0.  1.
         21   -1    0    0  502  503 -0.00000000000E+00 -0.00000000000E+00 -0.81274270945E+02  0.81274270945E+02  0.00000000000E+00 0. -1.
          6    1    1    2  501    0  0.76856846597E+02  0.16261972672E+03  0.91322968587E+03  0.94671516811E+03  0.17300000000E+03 0.  1.
         -6    1    1    2    0  503 -0.76856846597E+02 -0.16261972672E+03  0.17675033099E+03  0.30581339064E+03  0.17300000000E+03 0. -1.
<mgrwt>
<rscale>  2 0.24956192E+03</rscale>
<asrwt>0</asrwt>
<pdfrwt beam="1">  1       21 0.18019296E+00 0.24956192E+03</pdfrwt>
<pdfrwt beam="2">  1       21 0.12503735E-01 0.24956192E+03</pdfrwt>
<totfact> 0.94865092E+03</totfact>
</mgrwt>
</event>
<event>
 4    1  0.3948468E+000  0.2487704E+03  0.7546771E-02  0.1114084E+00
         21   -1    0    0  501  502  0.00000000000E+00  0.00000000000E+00  0.57814109795E+03  0.57814109795E+03  0.00000000000E+00 0.  1.
         21   -1    0    0  502  503 -0.00000000000E+00 -0.00000000000E+00 -0.27330731321E+03  0.27330731321E+03  0.00000000000E+00 0. -1.
          6    1    1    2  501    0  0.16963494354E+03 -0.56406546373E+02  0.48446463580E+03  0.54460324630E+03  0.17300000000E+03 0.  1.
         -6    1    1    2    0  503 -0.16963494354E+03  0.56406546373E+02 -0.17963085105E+03  0.30684516486E+03  0.17300000000E+03 0. -1.
<mgrwt>
<rscale>  2 0.24877040E+03</rscale>
<asrwt>0</asrwt>
<pdfrwt beam="1">  1       21 0.88944784E-01 0.24877040E+03</pdfrwt>
<pdfrwt beam="2">  1       21 0.42047279E-01 0.24877040E+03</pdfrwt>
<totfact> 0.56520582E+03</totfact>
</mgrwt>
</event>
<event>
 4    1  0.3948468E+000  0.1858685E+03  0.7546771E-02  0.1162241E+00
         21   -1    0    0  503  502  0.00000000000E+00  0.00000000000E+00  0.71756273944E+03  0.71756273944E+03  0.00000000000E+00 0.  1.
         21   -1    0    0  501  503 -0.00000000000E+00 -0.00000000000E+00 -0.69759585431E+02  0.69759585431E+02  0.00000000000E+00 0.  1.
          6    1    1    2  501    0 -0.55588756131E+02 -0.39089593244E+02  0.54302732312E+03  0.57395625248E+03  0.17300000000E+03 0.  1.
         -6    1    1    2    0  502  0.55588756131E+02  0.39089593244E+02  0.10477583089E+03  0.21336607239E+03  0.17300000000E+03 0.  1.
<mgrwt>
<rscale>  2 0.18586852E+03</rscale>
<asrwt>0</asrwt>
<pdfrwt beam="1">  1       21 0.11039426E+00 0.18586852E+03</pdfrwt>
<pdfrwt beam="2">  1       21 0.10732244E-01 0.18586852E+03</pdfrwt>
<totfact> 0.46521509E+04</totfact>
</mgrwt>
</event>
<event>
 4    1  0.3948468E+000  0.1842638E+03  0.7546771E-02  0.1163739E+00
         21   -1    0    0  501  502  0.00000000000E+00  0.00000000000E+00  0.63594682006E+02  0.63594682006E+02  0.00000000000E+00 0. -1.
         21   -1    0    0  502  503 -0.00000000000E+00 -0.00000000000E+00 -0.80170645503E+03  0.80170645503E+03  0.00000000000E+00 0. -1.
          6    1    1    2  501    0 -0.26887228835E+02  0.57456259903E+02 -0.11899784756E+03  0.21934819945E+03  0.17300000000E+03 0. -1.
         -6    1    1    2    0  503  0.26887228835E+02 -0.57456259903E+02 -0.61911392547E+03  0.64595293759E+03  0.17300000000E+03 0. -1.
<mgrwt>
<rscale>  2 0.18426379E+03</rscale>
<asrwt>0</asrwt>
<pdfrwt beam="1">  1       21 0.97837973E-02 0.18426379E+03</pdfrwt>
<pdfrwt beam="2">  1       21 0.12333945E+00 0.18426379E+03</pdfrwt>
<totfact> 0.41788251E+04</totfact>
</mgrwt>
</event>
<event>
 4    1  0.3948468E+000  0.2045586E+03  0.7546771E-02  0.1145949E+00
         21   -1    0    0  503  502  0.00000000000E+00  0.00000000000E+00  0.16236875898E+03  0.16236875898E+03  0.00000000000E+00 0.  1.
         21   -1    0    0  501  503 -0.00000000000E+00 -0.00000000000E+00 -0.38578518352E+03  0.38578518352E+03  0.00000000000E+00 0.  1.
          6    1    1    2  501    0 -0.10413318868E+03  0.32733571025E+02 -0.26962585463E+03  0.33844099802E+03  0.17300000000E+03 0.  1.
         -6    1    1    2    0  502  0.10413318868E+03 -0.32733571025E+02  0.46209430084E+02  0.20971294449E+03  0.17300000000E+03 0.  1.
<mgrwt>
<rscale>  2 0.20455857E+03</rscale>
<asrwt>0</asrwt>
<pdfrwt beam="1">  1       21 0.24979809E-01 0.20455857E+03</pdfrwt>
<pdfrwt beam="2">  1       21 0.59351566E-01 0.20455857E+03</pdfrwt>
<totfact> 0.39988977E+04</totfact>
</mgrwt>
</event>
<event>
 4    1  0.3948468E+000  0.1732889E+03  0.7546771E-02  0.1174461E+00
         21   -1    0    0  501  502  0.00000000000E+00  0.00000000000E+00  0.58448999348E+02  0.58448999348E+02  0.00000000000E+00 0.  1.
         21   -1    0    0  502  503 -0.00000000000E+00 -0.00000000000E+00 -0.86868235243E+03  0.86868235243E+03  0.00000000000E+00 0.  1.
          6    1    1    2  501    0  0.45235894516E+01 -0.89199130404E+01 -0.10880782596E+03  0.20461713198E+03  0.17300000000E+03 0.  1.
         -6    1    1    2    0  503 -0.45235894516E+01  0.89199130404E+01 -0.70142552712E+03  0.72251421979E+03  0.17300000000E+03 0.  1.
<mgrwt>
<rscale>  2 0.17328886E+03</rscale>
<asrwt>0</asrwt>
<pdfrwt beam="1">  1       21 0.89921539E-02 0.17328886E+03</pdfrwt>
<pdfrwt beam="2">  1       21 0.13364344E+00 0.17328886E+03</pdfrwt>
<totfact> 0.39871952E+04</totfact>
</mgrwt>
</event>
<event>
 4    1  0.3948468E+000  0.1801646E+03  0.7546771E-02  0.1167644E+00
         21   -1    0    0  501  502  0.00000000000E+00  0.00000000000E+00  0.14597754816E+03  0.14597754816E+03  0.00000000000E+00 0.  1.
         21   -1    0    0  502  503 -0.00000000000E+00 -0.00000000000E+00 -0.25523256593E+03  0.25523256593E+03  0.00000000000E+00 0. -1.
          6    1    1    2  501    0  0.42681373846E+02  0.26619399827E+02 -0.12662263588E+03  0.22021031774E+03  0.17300000000E+03 0. -1.
         -6    1    1    2    0  503 -0.42681373846E+02 -0.26619399827E+02  0.17367618115E+02  0.18099979635E+03  0.17300000000E+03 0.  1.
<mgrwt>
<rscale>  2 0.18016463E+03</rscale>
<asrwt>0</asrwt>
<pdfrwt beam="1">  1       21 0.22458085E-01 0.18016463E+03</pdfrwt>
<pdfrwt beam="2">  1       21 0.39266548E-01 0.18016463E+03</pdfrwt>
<totfact> 0.11661015E+05</totfact>
</mgrwt>
</event>
<event>
 4    1  0.3948468E+000  0.1876566E+03  0.7546771E-02  0.1160592E+00
         21   -1    0    0  501  502  0.00000000000E+00  0.00000000000E+00  0.11752341926E+03  0.11752341926E+03  0.00000000000E+00 0. -1.
         21   -1    0    0  502  503 -0.00000000000E+00 -0.00000000000E+00 -0.60501778697E+03  0.60501778697E+03  0.00000000000E+00 0. -1.
          6    1    1    2  501    0  0.19124472241E+02 -0.70144655757E+02  0.12917109327E+02  0.18810069081E+03  0.17300000000E+03 0. -1.
         -6    1    1    2    0  503 -0.19124472241E+02  0.70144655757E+02 -0.50041147704E+03  0.53444051542E+03  0.17300000000E+03 0. -1.
<mgrwt>
<rscale>  2 0.18765665E+03</rscale>
<asrwt>0</asrwt>
<pdfrwt beam="1">  1       21 0.18080526E-01 0.18765665E+03</pdfrwt>
<pdfrwt beam="2">  1       21 0.93079659E-01 0.18765665E+03</pdfrwt>
<totfact> 0.27131455E+04</totfact>
</mgrwt>
</event>
<event>
 4    1  0.3948468E+000  0.1733029E+03  0.7546771E-02  0.1174447E+00
         21   -1    0    0  503  502  0.00000000000E+00  0.00000000000E+00  0.19712588311E+03  0.19712588311E+03  0.00000000000E+00 0. -1.
         21   -1    0    0  501  503 -0.00000000000E+00 -0.00000000000E+00 -0.15405792657E+03  0.15405792657E+03  0.00000000000E+00 0. -1.
          6    1    1    2  501    0 -0.94474856356E+01  0.39533709525E+01  0.30939478049E+01  0.17333048387E+03  0.17300000000E+03 0. -1.
         -6    1    1    2    0  502  0.94474856356E+01 -0.39533709525E+01  0.39974008731E+02  0.17785332581E+03  0.17300000000E+03 0. -1.
<mgrwt>
<rscale>  2 0.17330287E+03</rscale>
<asrwt>0</asrwt>
<pdfrwt beam="1">  1       21 0.30327059E-01 0.17330287E+03</pdfrwt>
<pdfrwt beam="2">  1       21 0.23701219E-01 0.17330287E+03</pdfrwt>
<totfact> 0.17595358E+05</totfact>
</mgrwt>
</event>
<event>
 4    1  0.3948468E+000  0.2314026E+03  0.7546771E-02  0.1125656E+00
         21   -1    0    0  501  502  0.00000000000E+00  0.00000000000E+00  0.80945837004E+03  0.80945837004E+03  0.00000000000E+00 0. -1.
         21   -1    0    0  502  503 -0.00000000000E+00 -0.00000000000E+00 -0.90899727605E+02  0.90899727605E+02  0.00000000000E+00 0.  1.
          6    1    1    2  501    0  0.10848044682E+03  0.10885847152E+03  0.59417385398E+03  0.63764389977E+03  0.17300000000E+03 0. -1.
         -6    1    1    2    0  503 -0.10848044682E+03 -0.10885847152E+03  0.12438478845E+03  0.26271419787E+03  0.17300000000E+03 0.  1.
<mgrwt>
<rscale>  2 0.23140262E+03</rscale>
<asrwt>0</asrwt>
<pdfrwt beam="1">  1       21 0.12453205E+00 0.23140262E+03</pdfrwt>
<pdfrwt beam="2">  1       21 0.13984574E-01 0.23140262E+03</pdfrwt>
<totfact> 0.20957078E+04</totfact>
</mgrwt>
</event>
<event>
 4    1  0.3948468E+000  0.2095882E+03  0.7546771E-02  0.1141892E+00
         21   -1    0    0  501  502  0.00000000000E+00  0.00000000000E+00  0.35194181130E+03  0.35194181130E+03  0.00000000000E+00 0. -1.
         21   -1    0    0  502  503 -0.00000000000E+00 -0.00000000000E+00 -0.18100362906E+03  0.18100362906E+03  0.00000000000E+00 0. -1.
          6    1    1    2  501    0 -0.96542170904E+02  0.68394649130E+02  0.23393874859E+03  0.31409322961E+03  0.17300000000E+03 0. -1.
         -6    1    1    2    0  503  0.96542170904E+02 -0.68394649130E+02 -0.63000566347E+02  0.21885221076E+03  0.17300000000E+03 0. -1.
<mgrwt>
<rscale>  2 0.20958821E+03</rscale>
<asrwt>0</asrwt>
<pdfrwt beam="1">  1       21 0.54144894E-01 0.20958821E+03</pdfrwt>
<pdfrwt beam="2">  1       21 0.27846712E-01 0.20958821E+03</pdfrwt>
<totfact> 0.39357174E+04</totfact>
</mgrwt>
</event>
<event>
 4    1  0.3948468E+000  0.2247206E+03  0.7546771E-02  0.1130412E+00
         21   -1    0    0  503  502  0.00000000000E+00  0.00000000000E+00  0.12807924537E+03  0.12807924537E+03  0.00000000000E+00 0.  1.
         21   -1    0    0  501  503 -0.00000000000E+00 -0.00000000000E+00 -0.53618830423E+03  0.53618830423E+03  0.00000000000E+00 0. -1.
          6    1    1    2  501    0 -0.29768266505E+02 -0.14030039447E+03 -0.37492031440E+03  0.43710935992E+03  0.17300000000E+03 0. -1.
         -6    1    1    2    0  502  0.29768266505E+02  0.14030039447E+03 -0.33188744468E+02  0.22715818968E+03  0.17300000000E+03 0.  1.
<mgrwt>
<rscale>  2 0.22472061E+03</rscale>
<asrwt>0</asrwt>
<pdfrwt beam="1">  1       21 0.19704500E-01 0.22472061E+03</pdfrwt>
<pdfrwt beam="2">  1       21 0.82490507E-01 0.22472061E+03</pdfrwt>
<totfact> 0.29927863E+04</totfact>
</mgrwt>
</event>
<event>
 4    1  0.3948468E+000  0.2147568E+03  0.7546771E-02  0.1137854E+00
         21   -1    0    0  503  502  0.00000000000E+00  0.00000000000E+00  0.51868903678E+02  0.51868903678E+02  0.00000000000E+00 0.  1.
         21   -1    0    0  501  503 -0.00000000000E+00 -0.00000000000E+00 -0.88999108292E+03  0.88999108292E+03  0.00000000000E+00 0.  1.
          6    1    1    2  501    0 -0.12683305186E+03  0.10239884038E+02 -0.40479160372E+03  0.45823216900E+03  0.17300000000E+03 0.  1.
         -6    1    1    2    0  502  0.12683305186E+03 -0.10239884038E+02 -0.43333057553E+03  0.48362781760E+03  0.17300000000E+03 0.  1.
<mgrwt>
<rscale>  2 0.21475679E+03</rscale>
<asrwt>0</asrwt>
<pdfrwt beam="1">  1       21 0.79798317E-02 0.21475679E+03</pdfrwt>
<pdfrwt beam="2">  1       21 0.13692170E+00 0.21475679E+03</pdfrwt>
<totfact> 0.45118994E+04</totfact>
</mgrwt>
</event>
<event>
 4    1  0.3948468E+000  0.3578622E+03  0.7546771E-02  0.1059434E+00
         21   -1    0    0  501  502  0.00000000000E+00  0.00000000000E+00  0.23798866347E+03  0.23798866347E+03  0.00000000000E+00 0.  1.
         21   -1    0    0  502  503 -0.00000000000E+00 -0.00000000000E+00 -0.11772652382E+04  0.11772652382E+04  0.00000000000E+00 0. -1.
          6    1    1    2  501    0  0.23497798126E+03  0.20717560103E+03  0.51758706646E+02  0.36158587507E+03  0.17300000000E+03 0.  1.
         -6    1    1    2    0  503 -0.23497798126E+03 -0.20717560103E+03 -0.99103528136E+03  0.10536680266E+04  0.17300000000E+03 0. -1.
<mgrwt>
<rscale>  2 0.35786224E+03</rscale>
<asrwt>0</asrwt>
<pdfrwt beam="1">  1       21 0.36613640E-01 0.35786224E+03</pdfrwt>
<pdfrwt beam="2">  1       21 0.18111773E+00 0.35786224E+03</pdfrwt>
<totfact> 0.11315082E+03</totfact>
</mgrwt>
</event>
<event>
 4    1  0.3948468E+000  0.1962604E+03  0.7546771E-02  0.1152933E+00
         21   -1    0    0  503  502  0.00000000000E+00  0.00000000000E+00  0.24960060087E+02  0.24960060087E+02  0.00000000000E+00 0.  1.
         21   -1    0    0  501  503 -0.00000000000E+00 -0.00000000000E+00 -0.17828217558E+04  0.17828217558E+04  0.00000000000E+00 0.  1.
          6    1    1    2  501    0 -0.47899715378E+02 -0.79339491752E+02 -0.12103162866E+04  0.12261254631E+04  0.17300000000E+03 0.  1.
         -6    1    1    2    0  502  0.47899715378E+02  0.79339491752E+02 -0.54754540917E+03  0.58165635283E+03  0.17300000000E+03 0.  1.
<mgrwt>
<rscale>  2 0.19626038E+03</rscale>
<asrwt>0</asrwt>
<pdfrwt beam="1">  1       21 0.38400090E-02 0.19626038E+03</pdfrwt>
<pdfrwt beam="2">  1       21 0.27428029E+00 0.19626038E+03</pdfrwt>
<totfact> 0.20078957E+04</totfact>
</mgrwt>
</event>
<event>
 4    1  0.3948468E+000  0.2714642E+03  0.7546771E-02  0.1100445E+00
         21   -1    0    0  503  502  0.00000000000E+00  0.00000000000E+00  0.21044331187E+03  0.21044331187E+03  0.00000000000E+00 0. -1.
         21   -1    0    0  501  503 -0.00000000000E+00 -0.00000000000E+00 -0.39832270718E+03  0.39832270718E+03  0.00000000000E+00 0.  1.
          6    1    1    2  501    0 -0.14225769018E+03  0.15338365764E+03 -0.19976105244E+03  0.33704194831E+03  0.17300000000E+03 0. -1.
         -6    1    1    2    0  502  0.14225769018E+03 -0.15338365764E+03  0.11881657124E+02  0.27172407075E+03  0.17300000000E+03 0.  1.
<mgrwt>
<rscale>  2 0.27146417E+03</rscale>
<asrwt>0</asrwt>
<pdfrwt beam="1">  1       21 0.32375894E-01 0.27146417E+03</pdfrwt>
<pdfrwt beam="2">  1       21 0.61280416E-01 0.27146417E+03</pdfrwt>
<totfact> 0.21827295E+04</totfact>
</mgrwt>
</event>
<event>
 4    1  0.3948468E+000  0.2241881E+03  0.7546771E-02  0.1130799E+00
         21   -1    0    0  503  502  0.00000000000E+00  0.00000000000E+00  0.63185116594E+03  0.63185116594E+03  0.00000000000E+00 0.  1.
         21   -1    0    0  501  503 -0.00000000000E+00 -0.00000000000E+00 -0.81990007945E+02  0.81990007945E+02  0.00000000000E+00 0. -1.
          6    1    1    2  501    0 -0.69549780968E+02  0.12447546362E+03  0.33657187165E+03  0.40440195086E+03  0.17300000000E+03 0.  1.
         -6    1    1    2    0  502  0.69549780968E+02 -0.12447546362E+03  0.21328928634E+03  0.30943922302E+03  0.17300000000E+03 0.  1.
<mgrwt>
<rscale>  2 0.22418812E+03</rscale>
<asrwt>0</asrwt>
<pdfrwt beam="1">  1       21 0.97207869E-01 0.22418812E+03</pdfrwt>
<pdfrwt beam="2">  1       21 0.12613848E-01 0.22418812E+03</pdfrwt>
<totfact> 0.46362990E+04</totfact>
</mgrwt>
</event>
<event>
 4    1  0.3948468E+000  0.2921273E+03  0.7546771E-02  0.1089244E+00
         21   -1    0    0  503  502  0.00000000000E+00  0.00000000000E+00  0.54241841197E+02  0.54241841197E+02  0.00000000000E+00 0. -1.
         21   -1    0    0  501  503 -0.00000000000E+00 -0.00000000000E+00 -0.16454445923E+04  0.16454445923E+04  0.00000000000E+00 0.  1.
          6    1    1    2  501    0  0.47531455885E+02 -0.23054304868E+03 -0.61764292597E+03  0.68324309041E+03  0.17300000000E+03 0. -1.
         -6    1    1    2    0  502 -0.47531455885E+02  0.23054304868E+03 -0.97355982518E+03  0.10164433431E+04  0.17300000000E+03 0.  1.
<mgrwt>
<rscale>  2 0.29212726E+03</rscale>
<asrwt>0</asrwt>
<pdfrwt beam="1">  1       21 0.83448986E-02 0.29212726E+03</pdfrwt>
<pdfrwt beam="2">  1       21 0.25314532E+00 0.29212726E+03</pdfrwt>
<totfact> 0.65452681E+03</totfact>
</mgrwt>
</event>
<event>
 4    1  0.3948468E+000  0.2315266E+03  0.7546771E-02  0.1125570E+00
         21   -1    0    0  501  502  0.00000000000E+00  0.00000000000E+00  0.35923502914E+03  0.35923502914E+03  0.00000000000E+00 0.  1.
         21   -1    0    0  502  503 -0.00000000000E+00 -0.00000000000E+00 -0.15573958222E+03  0.15573958222E+03  0.00000000000E+00 0. -1.
          6    1    1    2  501    0 -0.13704461653E+03  0.69959548214E+02  0.15443566544E+03  0.27830727634E+03  0.17300000000E+03 0. -1.
         -6    1    1    2    0  503  0.13704461653E+03 -0.69959548214E+02  0.49059781480E+02  0.23666733502E+03  0.17300000000E+03 0. -1.
<mgrwt>
<rscale>  2 0.23152660E+03</rscale>
<asrwt>0</asrwt>
<pdfrwt beam="1">  1       21 0.55266927E-01 0.23152660E+03</pdfrwt>
<pdfrwt beam="2">  1       21 0.23959936E-01 0.23152660E+03</pdfrwt>
<totfact> 0.49798694E+04</totfact>
</mgrwt>
</event>
<event>
 4    1  0.3948468E+000  0.2927969E+03  0.7546771E-02  0.1088898E+00
         21   -1    0    0  503  502  0.00000000000E+00  0.00000000000E+00  0.13993678509E+03  0.13993678509E+03  0.00000000000E+00 0. -1.
         21   -1    0    0  501  503 -0.00000000000E+00 -0.00000000000E+00 -0.10668689410E+04  0.10668689410E+04  0.00000000000E+00 0.  1.
          6    1    1    2  501    0  0.13669626566E+03 -0.19265294431E+03 -0.85719028911E+03  0.90581743069E+03  0.17300000000E+03 0.  1.
         -6    1    1    2    0  502 -0.13669626566E+03  0.19265294431E+03 -0.69741866836E+02  0.30098829543E+03  0.17300000000E+03 0. -1.
<mgrwt>
<rscale>  2 0.29279690E+03</rscale>
<asrwt>0</asrwt>
<pdfrwt beam="1">  1       21 0.21528736E-01 0.29279690E+03</pdfrwt>
<pdfrwt beam="2">  1       21 0.16413368E+00 0.29279690E+03</pdfrwt>
<totfact> 0.43937264E+03</totfact>
</mgrwt>
</event>
<event>
 4    1  0.3948468E+000  0.1880385E+03  0.7546771E-02  0.1160242E+00
         21   -1    0    0  501  502  0.00000000000E+00  0.00000000000E+00  0.56219912003E+03  0.56219912003E+03  0.00000000000E+00 0.  1.
         21   -1    0    0  502  503 -0.00000000000E+00 -0.00000000000E+00 -0.14946658328E+03  0.14946658328E+03  0.00000000000E+00 0.  1.
          6    1    1    2  501    0  0.22846784283E+02  0.70053576730E+02  0.47717725734E+03  0.51289045038E+03  0.17300000000E+03 0.  1.
         -6    1    1    2    0  503 -0.22846784283E+02 -0.70053576730E+02 -0.64444720587E+02  0.19877525293E+03  0.17300000000E+03 0.  1.
<mgrwt>
<rscale>  2 0.18803850E+03</rscale>
<asrwt>0</asrwt>
<pdfrwt beam="1">  1       21 0.86492171E-01 0.18803850E+03</pdfrwt>
<pdfrwt beam="2">  1       21 0.22994859E-01 0.18803850E+03</pdfrwt>
<totfact> 0.20501227E+04</totfact>
</mgrwt>
</event>
<event>
 4    1  0.3948468E+000  0.2161668E+03  0.7546771E-02  0.1136774E+00
         21   -1    0    0  501  502  0.00000000000E+00  0.00000000000E+00  0.90096928860E+03  0.90096928860E+03  0.00000000000E+00 0.  1.
         21   -1    0    0  502  503 -0.00000000000E+00 -0.00000000000E+00 -0.11678211256E+03  0.11678211256E+03  0.00000000000E+00 0.  1.
          6    1    1    2  501    0  0.34165451951E+01 -0.12956621410E+03  0.77150092870E+03  0.80121268063E+03  0.17300000000E+03 0.  1.
         -6    1    1    2    0  503 -0.34165451951E+01  0.12956621410E+03  0.12686247346E+02  0.21653872053E+03  0.17300000000E+03 0.  1.
<mgrwt>
<rscale>  2 0.21616678E+03</rscale>
<asrwt>0</asrwt>
<pdfrwt beam="1">  1       21 0.13861065E+00 0.21616678E+03</pdfrwt>
<pdfrwt beam="2">  1       21 0.17966480E-01 0.21616678E+03</pdfrwt>
<totfact> 0.10170086E+04</totfact>
</mgrwt>
</event>
<event>
 4    1  0.3948468E+000  0.1963708E+03  0.7546771E-02  0.1152838E+00
         21   -1    0    0  503  502  0.00000000000E+00  0.00000000000E+00  0.64238833020E+03  0.64238833020E+03  0.00000000000E+00 0.  1.
         21   -1    0    0  501  503 -0.00000000000E+00 -0.00000000000E+00 -0.15517171439E+03  0.15517171439E+03  0.00000000000E+00 0.  1.
          6    1    1    2  501    0  0.90347724894E+01 -0.92470937149E+02 -0.68651726054E+02  0.20802538504E+03  0.17300000000E+03 0.  1.
         -6    1    1    2    0  502 -0.90347724894E+01  0.92470937149E+02  0.55586834186E+03  0.58953465955E+03  0.17300000000E+03 0.  1.
<mgrwt>
<rscale>  2 0.19637083E+03</rscale>
<asrwt>0</asrwt>
<pdfrwt beam="1">  1       21 0.98828973E-01 0.19637083E+03</pdfrwt>
<pdfrwt beam="2">  1       21 0.23872572E-01 0.19637083E+03</pdfrwt>
<totfact> 0.13926670E+04</totfact>
</mgrwt>
</event>
<event>
 4    1  0.3948468E+000  0.1831523E+03  0.7546771E-02  0.1164787E+00
         21   -1    0    0  501  502  0.00000000000E+00  0.00000000000E+00  0.19393246013E+03  0.19393246013E+03  0.00000000000E+00 0.  1.
         21   -1    0    0  502  503 -0.00000000000E+00 -0.00000000000E+00 -0.19455952047E+03  0.19455952047E+03  0.00000000000E+00 0.  1.
          6    1    1    2  501    0  0.59172006296E+02 -0.10698370226E+02  0.64390688387E+02  0.19414155198E+03  0.17300000000E+03 0. -1.
         -6    1    1    2    0  503 -0.59172006296E+02  0.10698370226E+02 -0.65017748728E+02  0.19435042862E+03  0.17300000000E+03 0. -1.
<mgrwt>
<rscale>  2 0.18315234E+03</rscale>
<asrwt>0</asrwt>
<pdfrwt beam="1">  1       21 0.29835763E-01 0.18315234E+03</pdfrwt>
<pdfrwt beam="2">  1       21 0.29932234E-01 0.18315234E+03</pdfrwt>
<totfact> 0.11567116E+05</totfact>
</mgrwt>
</event>
<event>
 4    1  0.3948468E+000  0.1969994E+03  0.7546771E-02  0.1152296E+00
         21   -1    0    0  503  502  0.00000000000E+00  0.00000000000E+00  0.67218870599E+03  0.67218870599E+03  0.00000000000E+00 0. -1.
         21   -1    0    0  501  503 -0.00000000000E+00 -0.00000000000E+00 -0.70899319735E+02  0.70899319735E+02  0.00000000000E+00 0. -1.
          6    1    1    2  501    0 -0.26536429265E+02  0.90418901417E+02  0.14054525895E+03  0.24199530910E+03  0.17300000000E+03 0. -1.
         -6    1    1    2    0  502  0.26536429265E+02 -0.90418901417E+02  0.46074412730E+03  0.50109271663E+03  0.17300000000E+03 0. -1.
<mgrwt>
<rscale>  2 0.19699939E+03</rscale>
<asrwt>0</asrwt>
<pdfrwt beam="1">  1       21 0.10341364E+00 0.19699939E+03</pdfrwt>
<pdfrwt beam="2">  1       21 0.10907588E-01 0.19699939E+03</pdfrwt>
<totfact> 0.52601234E+04</totfact>
</mgrwt>
</event>
<event>
 4    1  0.3948468E+000  0.1768031E+03  0.7546771E-02  0.1170933E+00
         21   -1    0    0  501  502  0.00000000000E+00  0.00000000000E+00  0.52335737104E+03  0.52335737104E+03  0.00000000000E+00 0.  1.
         21   -1    0    0  502  503 -0.00000000000E+00 -0.00000000000E+00 -0.10218246846E+03  0.10218246846E+03  0.00000000000E+00 0.  1.
          6    1    1    2  501    0 -0.14626143100E+02  0.33413006944E+02  0.41218994841E+03  0.44850853578E+03  0.17300000000E+03 0.  1.
         -6    1    1    2    0  503  0.14626143100E+02 -0.33413006944E+02  0.89849541748E+01  0.17703130372E+03  0.17300000000E+03 0.  1.
<mgrwt>
<rscale>  2 0.17680315E+03</rscale>
<asrwt>0</asrwt>
<pdfrwt beam="1">  1       21 0.80516517E-01 0.17680315E+03</pdfrwt>
<pdfrwt beam="2">  1       21 0.15720380E-01 0.17680315E+03</pdfrwt>
<totfact> 0.49192486E+04</totfact>
</mgrwt>
</event>
<event>
 4    1  0.3948468E+000  0.2269883E+03  0.7546771E-02  0.1128778E+00
         21   -1    0    0  503  502  0.00000000000E+00  0.00000000000E+00  0.13834448536E+03  0.13834448536E+03  0.00000000000E+00 0. -1.
         21   -1    0    0  501  503 -0.00000000000E+00 -0.00000000000E+00 -0.11668154897E+04  0.11668154897E+04  0.00000000000E+00 0. -1.
          6    1    1    2  501    0 -0.25724486607E+02 -0.14468221927E+03 -0.10526889930E+04  0.10768833780E+04  0.17300000000E+03 0. -1.
         -6    1    1    2    0  502  0.25724486607E+02  0.14468221927E+03  0.24217988696E+02  0.22827659705E+03  0.17300000000E+03 0. -1.
<mgrwt>
<rscale>  2 0.22698831E+03</rscale>
<asrwt>0</asrwt>
<pdfrwt beam="1">  1       21 0.21283768E-01 0.22698831E+03</pdfrwt>
<pdfrwt beam="2">  1       21 0.17951007E+00 0.22698831E+03</pdfrwt>
<totfact> 0.36553242E+03</totfact>
</mgrwt>
</event>
<event>
 4    1  0.3948468E+000  0.1808772E+03  0.7546771E-02  0.1166957E+00
         21   -1    0    0  501  502  0.00000000000E+00  0.00000000000E+00  0.60211927062E+03  0.60211927062E+03  0.00000000000E+00 0.  1.
         21   -1    0    0  502  503 -0.00000000000E+00 -0.00000000000E+00 -0.13488049107E+03  0.13488049107E+03  0.00000000000E+00 0.  1.
          6    1    1    2  501    0  0.17609957775E+02 -0.49774153239E+02  0.51838103294E+03  0.54903139460E+03  0.17300000000E+03 0.  1.
         -6    1    1    2    0  503 -0.17609957775E+02  0.49774153239E+02 -0.51142253398E+02  0.18796836709E+03  0.17300000000E+03 0.  1.
<mgrwt>
<rscale>  2 0.18087724E+03</rscale>
<asrwt>0</asrwt>
<pdfrwt beam="1">  1       21 0.92633732E-01 0.18087724E+03</pdfrwt>
<pdfrwt beam="2">  1       21 0.20750845E-01 0.18087724E+03</pdfrwt>
<totfact> 0.21319866E+04</totfact>
</mgrwt>
</event>
<event>
 4    1  0.3948468E+000  0.1863593E+03  0.7546771E-02  0.1161787E+00
         21   -1    0    0  503  502  0.00000000000E+00  0.00000000000E+00  0.15084076549E+04  0.15084076549E+04  0.00000000000E+00 0.  1.
         21   -1    0    0  501  503 -0.00000000000E+00 -0.00000000000E+00 -0.38304774890E+02  0.38304774890E+02  0.00000000000E+00 0.  1.
          6    1    1    2  501    0  0.49784321513E+02 -0.48190500495E+02  0.24659741741E+03  0.30909559893E+03  0.17300000000E+03 0.  1.
         -6    1    1    2    0  502 -0.49784321513E+02  0.48190500495E+02  0.12235054626E+04  0.12376168309E+04  0.17300000000E+03 0.  1.
<mgrwt>
<rscale>  2 0.18635934E+03</rscale>
<asrwt>0</asrwt>
<pdfrwt beam="1">  1       21 0.23206267E+00 0.18635934E+03</pdfrwt>
<pdfrwt beam="2">  1       21 0.58930434E-02 0.18635934E+03</pdfrwt>
<totfact> 0.17374521E+04</totfact>
</mgrwt>
</event>
<event>
 4    1  0.3948468E+000  0.1744982E+03  0.7546771E-02  0.1173237E+00
         21   -1    0    0  503  502  0.00000000000E+00  0.00000000000E+00  0.13925836812E+02  0.13925836812E+02  0.00000000000E+00 0.  1.
         21   -1    0    0  501  503 -0.00000000000E+00 -0.00000000000E+00 -0.23180674213E+04  0.23180674213E+04  0.00000000000E+00 0.  1.
          6    1    1    2  501    0  0.90477380562E+01 -0.20946513547E+02 -0.14297967532E+04  0.14404056281E+04  0.17300000000E+03 0.  1.
         -6    1    1    2    0  502 -0.90477380562E+01  0.20946513547E+02 -0.87434483128E+03  0.89158763001E+03  0.17300000000E+03 0.  1.
<mgrwt>
<rscale>  2 0.17449819E+03</rscale>
<asrwt>0</asrwt>
<pdfrwt beam="1">  1       21 0.21424369E-02 0.17449819E+03</pdfrwt>
<pdfrwt beam="2">  1       21 0.35662567E+00 0.17449819E+03</pdfrwt>
<totfact> 0.17966598E+04</totfact>
</mgrwt>
</event>
<event>
 4    1  0.3948468E+000  0.2469616E+03  0.7546771E-02  0.1115240E+00
         21   -1    0    0  501  502  0.00000000000E+00  0.00000000000E+00  0.13640795496E+04  0.13640795496E+04  0.00000000000E+00 0.  1.
         21   -1    0    0  502  503 -0.00000000000E+00 -0.00000000000E+00 -0.56914750915E+02  0.56914750915E+02  0.00000000000E+00 0. -1.
          6    1    1    2  501    0  0.52111021820E+02  0.16836118529E+03  0.98257613758E+03  0.10131366707E+04  0.17300000000E+03 0.  1.
         -6    1    1    2    0  503 -0.52111021820E+02 -0.16836118529E+03  0.32458866110E+03  0.40785762985E+03  0.17300000000E+03 0. -1.
<mgrwt>
<rscale>  2 0.24696163E+03</rscale>
<asrwt>0</asrwt>
<pdfrwt beam="1">  1       21 0.20985837E+00 0.24696163E+03</pdfrwt>
<pdfrwt beam="2">  1       21 0.87561165E-02 0.24696163E+03</pdfrwt>
<totfact> 0.11433311E+04</totfact>
</mgrwt>
</event>
<event>
 4    1  0.3948468E+000  0.2435337E+03  0.7546771E-02  0.1117461E+00
         21   -1    0    0  501  502  0.00000000000E+00  0.00000000000E+00  0.75785127780E+02  0.75785127780E+02  0.00000000000E+00 0.  1.
         21   -1    0    0  502  503 -0.00000000000E+00 -0.00000000000E+00 -0.78964789810E+03  0.78964789810E+03  0.00000000000E+00 0.  1.
          6    1    1    2  501    0  0.16987126498E+03 -0.22878027739E+02 -0.39784214479E+03  0.46646224176E+03  0.17300000000E+03 0.  1.
         -6    1    1    2    0  503 -0.16987126498E+03  0.22878027739E+02 -0.31602062553E+03  0.39897078412E+03  0.17300000000E+03 0.  1.
<mgrwt>
<rscale>  2 0.24353367E+03</rscale>
<asrwt>0</asrwt>
<pdfrwt beam="1">  1       21 0.11659251E-01 0.24353367E+03</pdfrwt>
<pdfrwt beam="2">  1       21 0.12148429E+00 0.24353367E+03</pdfrwt>
<totfact> 0.30783217E+04</totfact>
</mgrwt>
</event>
<event>
 4    1  0.3948468E+000  0.1905070E+03  0.7546771E-02  0.1158005E+00
         21   -1    0    0  503  502  0.00000000000E+00  0.00000000000E+00  0.55114691271E+02  0.55114691271E+02  0.00000000000E+00 0.  1.
         21   -1    0    0  501  503 -0.00000000000E+00 -0.00000000000E+00 -0.73310982012E+03  0.73310982012E+03  0.00000000000E+00 0.  1.
          6    1    1    2  501    0 -0.45331338553E+02 -0.65642961494E+02 -0.46472743372E+03  0.50225941136E+03  0.17300000000E+03 0.  1.
         -6    1    1    2    0  502  0.45331338553E+02  0.65642961494E+02 -0.21326769512E+03  0.28596510003E+03  0.17300000000E+03 0.  1.
<mgrwt>
<rscale>  2 0.19050703E+03</rscale>
<asrwt>0</asrwt>
<pdfrwt beam="1">  1       21 0.84791836E-02 0.19050703E+03</pdfrwt>
<pdfrwt beam="2">  1       21 0.11278612E+00 0.19050703E+03</pdfrwt>
<totfact> 0.66714864E+04</totfact>
</mgrwt>
</event>
<event>
 4    1  0.3948468E+000  0.3072596E+03  0.7546771E-02  0.1081667E+00
         21   -1    0    0  503  502  0.00000000000E+00  0.00000000000E+00  0.13993200842E+04  0.13993200842E+04  0.00000000000E+00 0. -1.
         21   -1    0    0  501  503 -0.00000000000E+00 -0.00000000000E+00 -0.10364696011E+03  0.10364696011E+03  0.00000000000E+00 0.  1.
          6    1    1    2  501    0  0.89965432566E+02 -0.23745668821E+03  0.20384680854E+03  0.36873022549E+03  0.17300000000E+03 0.  1.
         -6    1    1    2    0  502 -0.89965432566E+02  0.23745668821E+03  0.10918263155E+04  0.11342368188E+04  0.17300000000E+03 0. -1.
<mgrwt>
<rscale>  2 0.30725959E+03</rscale>
<asrwt>0</asrwt>
<pdfrwt beam="1">  1       21 0.21528000E+00 0.30725959E+03</pdfrwt>
<pdfrwt beam="2">  1       21 0.15945687E-01 0.30725959E+03</pdfrwt>
<totfact> 0.34459104E+03</totfact>
</mgrwt>
</event>
<event>
 4    1  0.3948468E+000  0.1829209E+03  0.7546771E-02  0.1165006E+00
         21   -1    0    0  501  502  0.00000000000E+00  0.00000000000E+00  0.10305491737E+03  0.10305491737E+03  0.00000000000E+00 0.  1.
         21   -1    0    0  502  503 -0.00000000000E+00 -0.00000000000E+00 -0.33290196142E+03  0.33290196142E+03  0.00000000000E+00 0.  1.
          6    1    1    2  501    0 -0.19541777350E+02  0.56117582080E+02 -0.14917611722E+03  0.23603723865E+03  0.17300000000E+03 0. -1.
         -6    1    1    2    0  503  0.19541777350E+02 -0.56117582080E+02 -0.80670926821E+02  0.19991964014E+03  0.17300000000E+03 0. -1.
<mgrwt>
<rscale>  2 0.18292092E+03</rscale>
<asrwt>0</asrwt>
<pdfrwt beam="1">  1       21 0.15854602E-01 0.18292092E+03</pdfrwt>
<pdfrwt beam="2">  1       21 0.51215688E-01 0.18292092E+03</pdfrwt>
<totfact> 0.12892004E+05</totfact>
</mgrwt>
</event>
<event>
 4    1  0.3948468E+000  0.1893432E+03  0.7546771E-02  0.1159055E+00
         21   -1    0    0  501  502  0.00000000000E+00  0.00000000000E+00  0.74214828070E+02  0.74214828070E+02  0.00000000000E+00 0.  1.
         21   -1    0    0  502  503 -0.00000000000E+00 -0.00000000000E+00 -0.11268164526E+04  0.11268164526E+04  0.00000000000E+00 0.  1.
          6    1    1    2  501    0 -0.66809009795E+02 -0.38188964476E+02 -0.72405512143E+02  0.20271506847E+03  0.17300000000E+03 0.  1.
         -6    1    1    2    0  503  0.66809009795E+02  0.38188964476E+02 -0.98019611239E+03  0.99831621220E+03  0.17300000000E+03 0.  1.
<mgrwt>
<rscale>  2 0.18934318E+03</rscale>
<asrwt>0</asrwt>
<pdfrwt beam="1">  1       21 0.11417666E-01 0.18934318E+03</pdfrwt>
<pdfrwt beam="2">  1       21 0.17335637E+00 0.18934318E+03</pdfrwt>
<totfact> 0.12998609E+04</totfact>
</mgrwt>
</event>
<event>
 4    1  0.3948468E+000  0.2128375E+03  0.7546771E-02  0.1139338E+00
         21   -1    0    0  503  502  0.00000000000E+00  0.00000000000E+00  0.98142167356E+03  0.98142167356E+03  0.00000000000E+00 0. -1.
         21   -1    0    0  501  503 -0.00000000000E+00 -0.00000000000E+00 -0.62564654325E+02  0.62564654325E+02  0.00000000000E+00 0. -1.
          6    1    1    2  501    0 -0.10839037789E+03 -0.60185903601E+02  0.72674084339E+03  0.75726618204E+03  0.17300000000E+03 0. -1.
         -6    1    1    2    0  502  0.10839037789E+03  0.60185903601E+02  0.19211617584E+03  0.28672014584E+03  0.17300000000E+03 0. -1.
<mgrwt>
<rscale>  2 0.21283754E+03</rscale>
<asrwt>0</asrwt>
<pdfrwt beam="1">  1       21 0.15098794E+00 0.21283754E+03</pdfrwt>
<pdfrwt beam="2">  1       21 0.96253321E-02 0.21283754E+03</pdfrwt>
<totfact> 0.25173948E+04</totfact>
</mgrwt>
</event>
<event>
 4    1  0.3948468E+000  0.1863638E+03  0.7546771E-02  0.1161782E+00
         21   -1    0    0  501  502  0.00000000000E+00  0.00000000000E+00  0.46537525624E+03  0.46537525624E+03  0.00000000000E+00 0.  1.
         21   -1    0    0  502  503 -0.00000000000E+00 -0.00000000000E+00 -0.17337028430E+03  0.17337028430E+03  0.00000000000E+00 0.  1.
          6    1    1    2  501    0 -0.50905075628E+02  0.47022915725E+02  0.38702369238E+03  0.42955653853E+03  0.17300000000E+03 0.  1.
         -6    1    1    2    0  503  0.50905075628E+02 -0.47022915725E+02 -0.95018720440E+02  0.20918900201E+03  0.17300000000E+03 0.  1.
<mgrwt>
<rscale>  2 0.18636384E+03</rscale>
<asrwt>0</asrwt>
<pdfrwt beam="1">  1       21 0.71596193E-01 0.18636384E+03</pdfrwt>
<pdfrwt beam="2">  1       21 0.26672352E-01 0.18636384E+03</pdfrwt>
<totfact> 0.23672284E+04</totfact>
</mgrwt>
</event>
<event>
 4    1  0.3948468E+000  0.3241729E+03  0.7546771E-02  0.1073745E+00
         21   -1    0    0  501  502  0.00000000000E+00  0.00000000000E+00  0.10820497319E+04  0.10820497319E+04  0.00000000000E+00 0.  1.
         21   -1    0    0  502  503 -0.00000000000E+00 -0.00000000000E+00 -0.41270926517E+03  0.41270926517E+03  0.00000000000E+00 0. -1.
          6    1    1    2  501    0  0.10321358844E+03 -0.25398039622E+03  0.98822284310E+03  0.10400348427E+04  0.17300000000E+03 0.  1.
         -6    1    1    2    0  503 -0.10321358844E+03  0.25398039622E+03 -0.31888237641E+03  0.45472415428E+03  0.17300000000E+03 0. -1.
<mgrwt>
<rscale>  2 0.32417293E+03</rscale>
<asrwt>0</asrwt>
<pdfrwt beam="1">  1       21 0.16646919E+00 0.32417293E+03</pdfrwt>
<pdfrwt beam="2">  1       21 0.63493734E-01 0.32417293E+03</pdfrwt>
<totfact> 0.46088894E+02</totfact>
</mgrwt>
</event>
<event>
 4    1  0.3948468E+000  0.1841751E+03  0.7546771E-02  0.1163822E+00
         21   -1    0    0  501  502  0.00000000000E+00  0.00000000000E+00  0.85355275158E+02  0.85355275158E+02  0.00000000000E+00 0.  1.
         21   -1    0    0  502  503 -0.00000000000E+00 -0.00000000000E+00 -0.45739869237E+03  0.45739869237E+03  0.00000000000E+00 0.  1.
          6    1    1    2  501    0 -0.60084338340E+02  0.19527871517E+02 -0.87737304587E+02  0.20400563741E+03  0.17300000000E+03 0.  1.
         -6    1    1    2    0  503  0.60084338340E+02 -0.19527871517E+02 -0.28430611262E+03  0.33874833011E+03  0.17300000000E+03 0.  1.
<mgrwt>
<rscale>  2 0.18417509E+03</rscale>
<asrwt>0</asrwt>
<pdfrwt beam="1">  1       21 0.13131581E-01 0.18417509E+03</pdfrwt>
<pdfrwt beam="2">  1       21 0.70369029E-01 0.18417509E+03</pdfrwt>
<totfact> 0.91733949E+04</totfact>
</mgrwt>
</event>
<event>
 4    1  0.3948468E+000  0.2303293E+03  0.7546771E-02  0.1126408E+00
         21   -1    0    0  501  502  0.00000000000E+00  0.00000000000E+00  0.59864291132E+02  0.59864291132E+02  0.00000000000E+00 0.  1.
         21   -1    0    0  502  503 -0.00000000000E+00 -0.00000000000E+00 -0.97636588262E+03  0.97636588262E+03  0.00000000000E+00 0. -1.
          6    1    1    2  501    0 -0.47971764747E+02 -0.14429586008E+03 -0.30079919935E+03  0.37885583509E+03  0.17300000000E+03 0.  1.
         -6    1    1    2    0  503  0.47971764747E+02  0.14429586008E+03 -0.61570239214E+03  0.65737433866E+03  0.17300000000E+03 0. -1.
<mgrwt>
<rscale>  2 0.23032930E+03</rscale>
<asrwt>0</asrwt>
<pdfrwt beam="1">  1       21 0.92098913E-02 0.23032930E+03</pdfrwt>
<pdfrwt beam="2">  1       21 0.15021013E+00 0.23032930E+03</pdfrwt>
<totfact> 0.27305121E+04</totfact>
</mgrwt>
</event>
<event>
 4    1  0.3948468E+000  0.2096864E+03  0.7546771E-02  0.1141815E+00
         21   -1    0    0  503  502  0.00000000000E+00  0.00000000000E+00  0.60622841912E+02  0.60622841912E+02  0.00000000000E+00 0.  1.
         21   -1    0    0  501  503 -0.00000000000E+00 -0.00000000000E+00 -0.73634895426E+03  0.73634895426E+03  0.00000000000E+00 0. -1.
          6    1    1    2  501    0 -0.11506794051E+03 -0.28262340682E+02 -0.38672502841E+03  0.43991435352E+03  0.17300000000E+03 0. -1.
         -6    1    1    2    0  502  0.11506794051E+03  0.28262340682E+02 -0.28900108393E+03  0.35705744265E+03  0.17300000000E+03 0. -1.
<mgrwt>
<rscale>  2 0.20968641E+03</rscale>
<asrwt>0</asrwt>
<pdfrwt beam="1">  1       21 0.93265904E-02 0.20968641E+03</pdfrwt>
<pdfrwt beam="2">  1       21 0.11328446E+00 0.20968641E+03</pdfrwt>
<totfact> 0.55315902E+04</totfact>
</mgrwt>
</event>
<event>
 4    1  0.3948468E+000  0.2815970E+03  0.7546771E-02  0.1094820E+00
         21   -1    0    0  503  502  0.00000000000E+00  0.00000000000E+00  0.33291584927E+02  0.33291584927E+02  0.00000000000E+00 0. -1.
         21   -1    0    0  501  503 -0.00000000000E+00 -0.00000000000E+00 -0.23987588176E+04  0.23987588176E+04  0.00000000000E+00 0.  1.
          6    1    1    2  501    0  0.96058130071E+02 -0.20035151694E+03 -0.12847079878E+04  0.13152077815E+04  0.17300000000E+03 0.  1.
         -6    1    1    2    0  502 -0.96058130071E+02  0.20035151694E+03 -0.10807592449E+04  0.11168426210E+04  0.17300000000E+03 0. -1.
<mgrwt>
<rscale>  2 0.28159704E+03</rscale>
<asrwt>0</asrwt>
<pdfrwt beam="1">  1       21 0.51217815E-02 0.28159704E+03</pdfrwt>
<pdfrwt beam="2">  1       21 0.36903987E+00 0.28159704E+03</pdfrwt>
<totfact> 0.31489390E+03</totfact>
</mgrwt>
</event>
<event>
 4    1  0.3948468E+000  0.2573881E+03  0.7546771E-02  0.1108723E+00
         21   -1    0    0  503  502  0.00000000000E+00  0.00000000000E+00  0.10446354967E+03  0.10446354967E+03  0.00000000000E+00 0. -1.
         21   -1    0    0  501  503 -0.00000000000E+00 -0.00000000000E+00 -0.64934252659E+03  0.64934252659E+03  0.00000000000E+00 0.  1.
          6    1    1    2  501    0 -0.12550272058E+03  0.14341785801E+03 -0.21484388389E+03  0.33527079998E+03  0.17300000000E+03 0. -1.
         -6    1    1    2    0  502  0.12550272058E+03 -0.14341785801E+03 -0.33003509302E+03  0.41853527629E+03  0.17300000000E+03 0. -1.
<mgrwt>
<rscale>  2 0.25738806E+03</rscale>
<asrwt>0</asrwt>
<pdfrwt beam="1">  1       21 0.16071315E-01 0.25738806E+03</pdfrwt>
<pdfrwt beam="2">  1       21 0.99898849E-01 0.25738806E+03</pdfrwt>
<totfact> 0.27516412E+04</totfact>
</mgrwt>
</event>
<event>
 4    1  0.3948468E+000  0.1929532E+03  0.7546771E-02  0.1155824E+00
         21   -1    0    0  501  502  0.00000000000E+00  0.00000000000E+00  0.55091133741E+02  0.55091133741E+02  0.00000000000E+00 0. -1.
         21   -1    0    0  502  503 -0.00000000000E+00 -0.00000000000E+00 -0.71187683298E+03  0.71187683298E+03  0.00000000000E+00 0.  1.
          6    1    1    2  501    0 -0.68455615929E+02  0.51144491705E+02 -0.24207082613E+03  0.30956294230E+03  0.17300000000E+03 0.  1.
         -6    1    1    2    0  503  0.68455615929E+02 -0.51144491705E+02 -0.41471487312E+03  0.45740502442E+03  0.17300000000E+03 0.  1.
<mgrwt>
<rscale>  2 0.19295318E+03</rscale>
<asrwt>0</asrwt>
<pdfrwt beam="1">  1       21 0.84755601E-02 0.19295318E+03</pdfrwt>
<pdfrwt beam="2">  1       21 0.10951950E+00 0.19295318E+03</pdfrwt>
<totfact> 0.71614963E+04</totfact>
</mgrwt>
</event>
<event>
 4    1  0.3948468E+000  0.1966411E+03  0.7546771E-02  0.1152604E+00
         21   -1    0    0  501  502  0.00000000000E+00  0.00000000000E+00  0.44671288617E+02  0.44671288617E+02  0.00000000000E+00 0.  1.
         21   -1    0    0  502  503 -0.00000000000E+00 -0.00000000000E+00 -0.11772789496E+04  0.11772789496E+04  0.00000000000E+00 0.  1.
          6    1    1    2  501    0  0.89259497735E+02 -0.27775585260E+02 -0.25193947062E+03  0.31959542852E+03  0.17300000000E+03 0.  1.
         -6    1    1    2    0  503 -0.89259497735E+02  0.27775585260E+02 -0.88066819040E+03  0.90235480973E+03  0.17300000000E+03 0.  1.
<mgrwt>
<rscale>  2 0.19664115E+03</rscale>
<asrwt>0</asrwt>
<pdfrwt beam="1">  1       21 0.68725067E-02 0.19664115E+03</pdfrwt>
<pdfrwt beam="2">  1       21 0.18111982E+00 0.19664115E+03</pdfrwt>
<totfact> 0.27842173E+04</totfact>
</mgrwt>
</event>
<event>
 4    1  0.3948468E+000  0.2276253E+03  0.7546771E-02  0.1128322E+00
         21   -1    0    0  501  502  0.00000000000E+00  0.00000000000E+00  0.55743237941E+03  0.55743237941E+03  0.00000000000E+00 0.  1.
         21   -1    0    0  502  503 -0.00000000000E+00 -0.00000000000E+00 -0.31729853904E+03  0.31729853904E+03  0.00000000000E+00 0.  1.
          6    1    1    2  501    0  0.27034726266E+02 -0.14544204430E+03  0.48783344730E+03  0.53832586505E+03  0.17300000000E+03 0.  1.
         -6    1    1    2    0  503 -0.27034726266E+02  0.14544204430E+03 -0.24769960694E+03  0.33640505340E+03  0.17300000000E+03 0.  1.
<mgrwt>
<rscale>  2 0.22762527E+03</rscale>
<asrwt>0</asrwt>
<pdfrwt beam="1">  1       21 0.85758828E-01 0.22762527E+03</pdfrwt>
<pdfrwt beam="2">  1       21 0.48815160E-01 0.22762527E+03</pdfrwt>
<totfact> 0.45803443E+03</totfact>
</mgrwt>
</event>
<event>
 4    1  0.3948468E+000  0.2467693E+03  0.7546771E-02  0.1115364E+00
         21   -1    0    0  503  502  0.00000000000E+00  0.00000000000E+00  0.17215111876E+04  0.17215111876E+04  0.00000000000E+00 0. -1.
         21   -1    0    0  501  503 -0.00000000000E+00 -0.00000000000E+00 -0.40947200225E+02  0.40947200225E+02  0.00000000000E+00 0. -1.
          6    1    1    2  501    0  0.16187200016E+03  0.69018600984E+02  0.51514538670E+03  0.57120038617E+03  0.17300000000E+03 0. -1.
         -6    1    1    2    0  502 -0.16187200016E+03 -0.69018600984E+02  0.11654186007E+04  0.11912580017E+04  0.17300000000E+03 0. -1.
<mgrwt>
<rscale>  2 0.24676935E+03</rscale>
<asrwt>0</asrwt>
<pdfrwt beam="1">  1       21 0.26484782E+00 0.24676935E+03</pdfrwt>
<pdfrwt beam="2">  1       21 0.62995706E-02 0.24676935E+03</pdfrwt>
<totfact> 0.94106897E+03</totfact>
</mgrwt>
</event>
<event>
 4    1  0.3948468E+000  0.1900800E+03  0.7546771E-02  0.1158389E+00
         21   -1    0    0  503  502  0.00000000000E+00  0.00000000000E+00  0.14185970730E+03  0.14185970730E+03  0.00000000000E+00 0.  1.
         21   -1    0    0  501  503 -0.00000000000E+00 -0.00000000000E+00 -0.29849355110E+03  0.29849355110E+03  0.00000000000E+00 0.  1.
          6    1    1    2  501    0  0.73480191503E+02  0.28320665144E+02 -0.16266072283E+03  0.25017775555E+03  0.17300000000E+03 0.  1.
         -6    1    1    2    0  502 -0.73480191503E+02 -0.28320665144E+02  0.60268790337E+01  0.19017550286E+03  0.17300000000E+03 0.  1.
<mgrwt>
<rscale>  2 0.19007998E+03</rscale>
<asrwt>0</asrwt>
<pdfrwt beam="1">  1       21 0.21824570E-01 0.19007998E+03</pdfrwt>
<pdfrwt beam="2">  1       21 0.45922085E-01 0.19007998E+03</pdfrwt>
<totfact> 0.89159306E+04</totfact>
</mgrwt>
</event>
<event>
 4    1  0.3948468E+000  0.2023308E+03  0.7546771E-02  0.1147787E+00
         21   -1    0    0  501  502  0.00000000000E+00  0.00000000000E+00  0.33025675215E+03  0.33025675215E+03  0.00000000000E+00 0.  1.
         21   -1    0    0  502  503 -0.00000000000E+00 -0.00000000000E+00 -0.19031634772E+03  0.19031634772E+03  0.00000000000E+00 0.  1.
          6    1    1    2  501    0 -0.87339539413E+01  0.10455848887E+03  0.22366653734E+03  0.30160318213E+03  0.17300000000E+03 0.  1.
         -6    1    1    2    0  503  0.87339539413E+01 -0.10455848887E+03 -0.83726132899E+02  0.21896991774E+03  0.17300000000E+03 0.  1.
<mgrwt>
<rscale>  2 0.20233082E+03</rscale>
<asrwt>0</asrwt>
<pdfrwt beam="1">  1       21 0.50808731E-01 0.20233082E+03</pdfrwt>
<pdfrwt beam="2">  1       21 0.29279438E-01 0.20233082E+03</pdfrwt>
<totfact> 0.40965673E+04</totfact>
</mgrwt>
</event>
<event>
 4    1  0.3948468E+000  0.1924892E+03  0.7546771E-02  0.1156235E+00
         21   -1    0    0  503  502  0.00000000000E+00  0.00000000000E+00  0.35345171733E+02  0.35345171733E+02  0.00000000000E+00 0.  1.
         21   -1    0    0  501  503 -0.00000000000E+00 -0.00000000000E+00 -0.11643748650E+04  0.11643748650E+04  0.00000000000E+00 0. -1.
          6    1    1    2  501    0  0.80056202894E+02  0.26722849908E+02 -0.75391710507E+03  0.77810224755E+03  0.17300000000E+03 0.  1.
         -6    1    1    2    0  502 -0.80056202894E+02 -0.26722849908E+02 -0.37511258819E+03  0.42161778917E+03  0.17300000000E+03 0.  1.
<mgrwt>
<rscale>  2 0.19248924E+03</rscale>
<asrwt>0</asrwt>
<pdfrwt beam="1">  1       21 0.54377189E-02 0.19248924E+03</pdfrwt>
<pdfrwt beam="2">  1       21 0.17913459E+00 0.19248924E+03</pdfrwt>
<totfact> 0.43027328E+04</totfact>
</mgrwt>
</event>
<event>
 4    1  0.3948468E+000  0.1973192E+03  0.7546771E-02  0.1152021E+00
         21   -1    0    0  501  502  0.00000000000E+00  0.00000000000E+00  0.71103327087E+02  0.71103327087E+02  0.00000000000E+00 0.  1.
         21   -1    0    0  502  503 -0.00000000000E+00 -0.00000000000E+00 -0.57796167534E+03  0.57796167534E+03  0.00000000000E+00 0.  1.
          6    1    1    2  501    0 -0.78542827887E+02 -0.53262545837E+02 -0.32783432473E+03  0.38263588315E+03  0.17300000000E+03 0. -1.
         -6    1    1    2    0  503  0.78542827887E+02  0.53262545837E+02 -0.17902402353E+03  0.26642911928E+03  0.17300000000E+03 0. -1.
<mgrwt>
<rscale>  2 0.19731922E+03</rscale>
<asrwt>0</asrwt>
<pdfrwt beam="1">  1       21 0.10938973E-01 0.19731922E+03</pdfrwt>
<pdfrwt beam="2">  1       21 0.88917183E-01 0.19731922E+03</pdfrwt>
<totfact> 0.74620210E+04</totfact>
</mgrwt>
</event>
<event>
 4    1  0.3948468E+000  0.1767785E+03  0.7546771E-02  0.1170958E+00
         21   -1    0    0  503  502  0.00000000000E+00  0.00000000000E+00  0.21485042246E+03  0.21485042246E+03  0.00000000000E+00 0.  1.
         21   -1    0    0  501  503 -0.00000000000E+00 -0.00000000000E+00 -0.25792764516E+03  0.25792764516E+03  0.00000000000E+00 0.  1.
          6    1    1    2  501    0 -0.23703254959E+02  0.27564643991E+02 -0.17763956510E+03  0.25061218842E+03  0.17300000000E+03 0.  1.
         -6    1    1    2    0  502  0.23703254959E+02 -0.27564643991E+02  0.13456234239E+03  0.22216587921E+03  0.17300000000E+03 0.  1.
<mgrwt>
<rscale>  2 0.17677854E+03</rscale>
<asrwt>0</asrwt>
<pdfrwt beam="1">  1       21 0.33053911E-01 0.17677854E+03</pdfrwt>
<pdfrwt beam="2">  1       21 0.39681176E-01 0.17677854E+03</pdfrwt>
<totfact> 0.54341854E+04</totfact>
</mgrwt>
</event>
<event>
 4    1  0.3948468E+000  0.1949152E+03  0.7546771E-02  0.1154101E+00
         21   -1    0    0  501  502  0.00000000000E+00  0.00000000000E+00  0.50214006801E+03  0.50214006801E+03  0.00000000000E+00 0.  1.
         21   -1    0    0  502  503 -0.00000000000E+00 -0.00000000000E+00 -0.92956185957E+02  0.92956185957E+02  0.00000000000E+00 0.  1.
          6    1    1    2  501    0  0.87143883315E+02 -0.21653485569E+02  0.76242808308E+02  0.20929619121E+03  0.17300000000E+03 0.  1.
         -6    1    1    2    0  503 -0.87143883315E+02  0.21653485569E+02  0.33294107375E+03  0.38580006276E+03  0.17300000000E+03 0.  1.
<mgrwt>
<rscale>  2 0.19491519E+03</rscale>
<asrwt>0</asrwt>
<pdfrwt beam="1">  1       21 0.77252316E-01 0.19491519E+03</pdfrwt>
<pdfrwt beam="2">  1       21 0.14300952E-01 0.19491519E+03</pdfrwt>
<totfact> 0.63596228E+04</totfact>
</mgrwt>
</event>
<event>
 4    1  0.3948468E+000  0.4373042E+03  0.7546771E-02  0.1031577E+00
         21   -1    0    0  503  502  0.00000000000E+00  0.00000000000E+00  0.13058563312E+04  0.13058563312E+04  0.00000000000E+00 0.  1.
         21   -1    0    0  501  503 -0.00000000000E+00 -0.00000000000E+00 -0.15197854888E+03  0.15197854888E+03  0.00000000000E+00 0. -1.
          6    1    1    2  501    0  0.37995298291E+03  0.13016036562E+03  0.71603767646E+03  0.83901426931E+03  0.17300000000E+03 0.  1.
         -6    1    1    2    0  502 -0.37995298291E+03 -0.13016036562E+03  0.43784010583E+03  0.61882061074E+03  0.17300000000E+03 0. -1.
<mgrwt>
<rscale>  2 0.43730423E+03</rscale>
<asrwt>0</asrwt>
<pdfrwt beam="1">  1       21 0.20090097E+00 0.43730423E+03</pdfrwt>
<pdfrwt beam="2">  1       21 0.23381316E-01 0.43730423E+03</pdfrwt>
<totfact> 0.19361663E+03</totfact>
</mgrwt>
</event>
<event>
 4    1  0.3948468E+000  0.1829606E+03  0.7546771E-02  0.1164968E+00
         21   -1    0    0  501  502  0.00000000000E+00  0.00000000000E+00  0.17574580551E+03  0.17574580551E+03  0.00000000000E+00 0. -1.
         21   -1    0    0  502  503 -0.00000000000E+00 -0.00000000000E+00 -0.37315774236E+03  0.37315774236E+03  0.00000000000E+00 0. -1.
          6    1    1    2  501    0  0.98422848047E+01 -0.58725635013E+02  0.93325636237E+02  0.20538803557E+03  0.17300000000E+03 0. -1.
         -6    1    1    2    0  503 -0.98422848047E+01  0.58725635013E+02 -0.29073757309E+03  0.34351551229E+03  0.17300000000E+03 0. -1.
<mgrwt>
<rscale>  2 0.18296057E+03</rscale>
<asrwt>0</asrwt>
<pdfrwt beam="1">  1       21 0.27037816E-01 0.18296057E+03</pdfrwt>
<pdfrwt beam="2">  1       21 0.57408883E-01 0.18296057E+03</pdfrwt>
<totfact> 0.37303344E+04</totfact>
</mgrwt>
</event>
<event>
 4    1  0.3948468E+000  0.2520371E+03  0.7546771E-02  0.1112024E+00
         21   -1    0    0  503  502  0.00000000000E+00  0.00000000000E+00  0.31590190373E+03  0.31590190373E+03  0.00000000000E+00 0. -1.
         21   -1    0    0  501  503 -0.00000000000E+00 -0.00000000000E+00 -0.20413052135E+03  0.20413052135E+03  0.00000000000E+00 0. -1.
          6    1    1    2  501    0 -0.11390023709E+03  0.14359823119E+03  0.87652359767E+02  0.26684387230E+03  0.17300000000E+03 0. -1.
         -6    1    1    2    0  502  0.11390023709E+03 -0.14359823119E+03  0.24119022613E+02  0.25318855279E+03  0.17300000000E+03 0. -1.
<mgrwt>
<rscale>  2 0.25203713E+03</rscale>
<asrwt>0</asrwt>
<pdfrwt beam="1">  1       21 0.48600293E-01 0.25203713E+03</pdfrwt>
<pdfrwt beam="2">  1       21 0.31404696E-01 0.25203713E+03</pdfrwt>
<totfact> 0.38303397E+04</totfact>
</mgrwt>
</event>
<event>
 4    1  0.3948468E+000  0.2206272E+03  0.7546771E-02  0.1133416E+00
         21   -1    0    0  501  502  0.00000000000E+00  0.00000000000E+00  0.26686139700E+03  0.26686139700E+03  0.00000000000E+00 0.  1.
         21   -1    0    0  502  503 -0.00000000000E+00 -0.00000000000E+00 -0.21889261269E+03  0.21889261269E+03  0.00000000000E+00 0.  1.
          6    1    1    2  501    0 -0.66893624292E+02 -0.11946807907E+03  0.12314841717E+03  0.25266956987E+03  0.17300000000E+03 0.  1.
         -6    1    1    2    0  503  0.66893624292E+02  0.11946807907E+03 -0.75179632853E+02  0.23308443982E+03  0.17300000000E+03 0.  1.
<mgrwt>
<rscale>  2 0.22062724E+03</rscale>
<asrwt>0</asrwt>
<pdfrwt beam="1">  1       21 0.41055600E-01 0.22062724E+03</pdfrwt>
<pdfrwt beam="2">  1       21 0.33675786E-01 0.22062724E+03</pdfrwt>
<totfact> 0.47891652E+04</totfact>
</mgrwt>
</event>
<event>
 4    1  0.3948468E+000  0.2559206E+03  0.7546771E-02  0.1109619E+00
         21   -1    0    0  501  502  0.00000000000E+00  0.00000000000E+00  0.87359013091E+03  0.87359013091E+03  0.00000000000E+00 0.  1.
         21   -1    0    0  502  503 -0.00000000000E+00 -0.00000000000E+00 -0.10775896404E+03  0.10775896404E+03  0.00000000000E+00 0.  1.
          6    1    1    2  501    0  0.10943068688E+01  0.18858720556E+03  0.65356892497E+03  0.70188864593E+03  0.17300000000E+03 0.  1.
         -6    1    1    2    0  503 -0.10943068688E+01 -0.18858720556E+03  0.11226224191E+03  0.27946044902E+03  0.17300000000E+03 0.  1.
<mgrwt>
<rscale>  2 0.25592056E+03</rscale>
<asrwt>0</asrwt>
<pdfrwt beam="1">  1       21 0.13439848E+00 0.25592056E+03</pdfrwt>
<pdfrwt beam="2">  1       21 0.16578303E-01 0.25592056E+03</pdfrwt>
<totfact> 0.12470257E+04</totfact>
</mgrwt>
</event>
<event>
 4    1  0.3948468E+000  0.2844790E+03  0.7546771E-02  0.1093267E+00
         21   -1    0    0  503  502  0.00000000000E+00  0.00000000000E+00  0.50070399321E+02  0.50070399321E+02  0.00000000000E+00 0. -1.
         21   -1    0    0  501  503 -0.00000000000E+00 -0.00000000000E+00 -0.21374160181E+04  0.21374160181E+04  0.00000000000E+00 0.  1.
          6    1    1    2  501    0 -0.59072156333E+02 -0.21796739893E+03 -0.15837328487E+04  0.16090798745E+04  0.17300000000E+03 0. -1.
         -6    1    1    2    0  502  0.59072156333E+02  0.21796739893E+03 -0.50361277013E+03  0.57840654292E+03  0.17300000000E+03 0.  1.
<mgrwt>
<rscale>  2 0.28447901E+03</rscale>
<asrwt>0</asrwt>
<pdfrwt beam="1">  1       21 0.77031381E-02 0.28447901E+03</pdfrwt>
<pdfrwt beam="2">  1       21 0.32883325E+00 0.28447901E+03</pdfrwt>
<totfact> 0.27044376E+03</totfact>
</mgrwt>
</event>
<event>
 4    1  0.3948468E+000  0.1839438E+03  0.7546771E-02  0.1164040E+00
         21   -1    0    0  503  502  0.00000000000E+00  0.00000000000E+00  0.92282739667E+03  0.92282739667E+03  0.00000000000E+00 0.  1.
         21   -1    0    0  501  503 -0.00000000000E+00 -0.00000000000E+00 -0.46174728121E+02  0.46174728121E+02  0.00000000000E+00 0.  1.
          6    1    1    2  501    0  0.50665879640E+02  0.36596485176E+02  0.21844929168E+03  0.28557910834E+03  0.17300000000E+03 0.  1.
         -6    1    1    2    0  502 -0.50665879640E+02 -0.36596485176E+02  0.65820337687E+03  0.68342301645E+03  0.17300000000E+03 0.  1.
<mgrwt>
<rscale>  2 0.18394383E+03</rscale>
<asrwt>0</asrwt>
<pdfrwt beam="1">  1       21 0.14197343E+00 0.18394383E+03</pdfrwt>
<pdfrwt beam="2">  1       21 0.71038050E-02 0.18394383E+03</pdfrwt>
<totfact> 0.51131173E+04</totfact>
</mgrwt>
</event>
<event>
 4    1  0.3948468E+000  0.2214141E+03  0.7546771E-02  0.1132833E+00
         21   -1    0    0  501  502  0.00000000000E+00  0.00000000000E+00  0.51778809729E+03  0.51778809729E+03  0.00000000000E+00 0.  1.
         21   -1    0    0  502  503 -0.00000000000E+00 -0.00000000000E+00 -0.17304685617E+03  0.17304685617E+03  0.00000000000E+00 0.  1.
          6    1    1    2  501    0 -0.13595034298E+03  0.24752990620E+02  0.40482006165E+03  0.46141466016E+03  0.17300000000E+03 0. -1.
         -6    1    1    2    0  503  0.13595034298E+03 -0.24752990620E+02 -0.60078820527E+02  0.22942029330E+03  0.17300000000E+03 0. -1.
<mgrwt>
<rscale>  2 0.22141411E+03</rscale>
<asrwt>0</asrwt>
<pdfrwt beam="1">  1       21 0.79659707E-01 0.22141411E+03</pdfrwt>
<pdfrwt beam="2">  1       21 0.26622593E-01 0.22141411E+03</pdfrwt>
<totfact> 0.18328589E+04</totfact>
</mgrwt>
</event>
<event>
 4    1  0.3948468E+000  0.2046012E+03  0.7546771E-02  0.1145914E+00
         21   -1    0    0  503  502  0.00000000000E+00  0.00000000000E+00  0.21749570830E+03  0.21749570830E+03  0.00000000000E+00 0.  1.
         21   -1    0    0  501  503 -0.00000000000E+00 -0.00000000000E+00 -0.41868755309E+03  0.41868755309E+03  0.00000000000E+00 0.  1.
          6    1    1    2  501    0  0.85703243405E+02 -0.67731919306E+02 -0.33440922743E+03  0.39203467986E+03  0.17300000000E+03 0.  1.
         -6    1    1    2    0  502 -0.85703243405E+02  0.67731919306E+02  0.13321738264E+03  0.24414858152E+03  0.17300000000E+03 0.  1.
<mgrwt>
<rscale>  2 0.20460122E+03</rscale>
<asrwt>0</asrwt>
<pdfrwt beam="1">  1       21 0.33460878E-01 0.20460122E+03</pdfrwt>
<pdfrwt beam="2">  1       21 0.64413470E-01 0.20460122E+03</pdfrwt>
<totfact> 0.18982712E+04</totfact>
</mgrwt>
</event>
<event>
 4    1  0.3948468E+000  0.1897552E+03  0.7546771E-02  0.1158682E+00
         21   -1    0    0  501  502  0.00000000000E+00  0.00000000000E+00  0.86732652429E+02  0.86732652429E+02  0.00000000000E+00 0. -1.
         21   -1    0    0  502  503 -0.00000000000E+00 -0.00000000000E+00 -0.48113978830E+03  0.48113978830E+03  0.00000000000E+00 0. -1.
          6    1    1    2  501    0  0.40408690674E+02 -0.66672087416E+02 -0.30235730441E+03  0.35696914300E+03  0.17300000000E+03 0. -1.
         -6    1    1    2    0  503 -0.40408690674E+02  0.66672087416E+02 -0.92049831464E+02  0.21090329773E+03  0.17300000000E+03 0. -1.
<mgrwt>
<rscale>  2 0.18975518E+03</rscale>
<asrwt>0</asrwt>
<pdfrwt beam="1">  1       21 0.13343485E-01 0.18975518E+03</pdfrwt>
<pdfrwt beam="2">  1       21 0.74021505E-01 0.18975518E+03</pdfrwt>
<totfact> 0.79495799E+04</totfact>
</mgrwt>
</event>
<event>
 4    1  0.3948468E+000  0.2142805E+03  0.7546771E-02  0.1138220E+00
         21   -1    0    0  503  502  0.00000000000E+00  0.00000000000E+00  0.59998723351E+02  0.59998723351E+02  0.00000000000E+00 0. -1.
         21   -1    0    0  501  503 -0.00000000000E+00 -0.00000000000E+00 -0.76620962515E+03  0.76620962515E+03  0.00000000000E+00 0. -1.
          6    1    1    2  501    0  0.56811306690E+02 -0.11295839111E+03 -0.36745604387E+03  0.42537050540E+03  0.17300000000E+03 0. -1.
         -6    1    1    2    0  502 -0.56811306690E+02  0.11295839111E+03 -0.33875485793E+03  0.40083784310E+03  0.17300000000E+03 0. -1.
<mgrwt>
<rscale>  2 0.21428048E+03</rscale>
<asrwt>0</asrwt>
<pdfrwt beam="1">  1       21 0.92305733E-02 0.21428048E+03</pdfrwt>
<pdfrwt beam="2">  1       21 0.11787840E+00 0.21428048E+03</pdfrwt>
<totfact> 0.50994242E+04</totfact>
</mgrwt>
</event>
<event>
 4    1  0.3948468E+000  0.1964992E+03  0.7546771E-02  0.1152727E+00
         21   -1    0    0  501  502  0.00000000000E+00  0.00000000000E+00  0.84542364933E+02  0.84542364933E+02  0.00000000000E+00 0. -1.
         21   -1    0    0  502  503 -0.00000000000E+00 -0.00000000000E+00 -0.69583355481E+03  0.69583355481E+03  0.00000000000E+00 0. -1.
          6    1    1    2  501    0  0.60136491175E+02  0.71179624997E+02 -0.76914089324E+02  0.21101590869E+03  0.17300000000E+03 0. -1.
         -6    1    1    2    0  503 -0.60136491175E+02 -0.71179624997E+02 -0.53437710055E+03  0.56936001105E+03  0.17300000000E+03 0. -1.
<mgrwt>
<rscale>  2 0.19649920E+03</rscale>
<asrwt>0</asrwt>
<pdfrwt beam="1">  1       21 0.13006518E-01 0.19649920E+03</pdfrwt>
<pdfrwt beam="2">  1       21 0.10705132E+00 0.19649920E+03</pdfrwt>
<totfact> 0.35341495E+04</totfact>
</mgrwt>
</event>
<event>
 4    1  0.3948468E+000  0.1975285E+03  0.7546771E-02  0.1151841E+00
         21   -1    0    0  501  502  0.00000000000E+00  0.00000000000E+00  0.10621773312E+03  0.10621773312E+03  0.00000000000E+00 0. -1.
         21   -1    0    0  502  503 -0.00000000000E+00 -0.00000000000E+00 -0.16406905505E+04  0.16406905505E+04  0.00000000000E+00 0. -1.
          6    1    1    2  501    0  0.76537929755E+01 -0.95025960577E+02  0.22511040771E+01  0.19754134048E+03  0.17300000000E+03 0. -1.
         -6    1    1    2    0  503 -0.76537929755E+01  0.95025960577E+02 -0.15367239214E+04  0.15493669431E+04  0.17300000000E+03 0. -1.
<mgrwt>
<rscale>  2 0.19752851E+03</rscale>
<asrwt>0</asrwt>
<pdfrwt beam="1">  1       21 0.16341189E-01 0.19752851E+03</pdfrwt>
<pdfrwt beam="2">  1       21 0.25241395E+00 0.19752851E+03</pdfrwt>
<totfact> 0.21469791E+03</totfact>
</mgrwt>
</event>
<event>
 4    1  0.3948468E+000  0.2151632E+03  0.7546771E-02  0.1137541E+00
         21   -1    0    0  501  502  0.00000000000E+00  0.00000000000E+00  0.31421317911E+02  0.31421317911E+02  0.00000000000E+00 0. -1.
         21   -1    0    0  502  503 -0.00000000000E+00 -0.00000000000E+00 -0.14835775726E+04  0.14835775726E+04  0.00000000000E+00 0. -1.
          6    1    1    2  501    0 -0.30457504319E+02 -0.12425194924E+03 -0.66324300718E+03  0.69727074586E+03  0.17300000000E+03 0. -1.
         -6    1    1    2    0  503  0.30457504319E+02  0.12425194924E+03 -0.78891324746E+03  0.81772814460E+03  0.17300000000E+03 0. -1.
<mgrwt>
<rscale>  2 0.21516321E+03</rscale>
<asrwt>0</asrwt>
<pdfrwt beam="1">  1       21 0.48340495E-02 0.21516321E+03</pdfrwt>
<pdfrwt beam="2">  1       21 0.22824268E+00 0.21516321E+03</pdfrwt>
<totfact> 0.25085457E+04</totfact>
</mgrwt>
</event>
<event>
 4    1  0.3948468E+000  0.2305225E+03  0.7546771E-02  0.1126273E+00
         21   -1    0    0  501  502  0.00000000000E+00  0.00000000000E+00  0.24706942471E+03  0.24706942471E+03  0.00000000000E+00 0. -1.
         21   -1    0    0  502  503 -0.00000000000E+00 -0.00000000000E+00 -0.52959527767E+03  0.52959527767E+03  0.00000000000E+00 0.  1.
          6    1    1    2  501    0  0.14421272442E+03  0.49135493280E+02  0.15799787677E+03  0.27947081359E+03  0.17300000000E+03 0. -1.
         -6    1    1    2    0  503 -0.14421272442E+03 -0.49135493280E+02 -0.44052372974E+03  0.49719388879E+03  0.17300000000E+03 0.  1.
<mgrwt>
<rscale>  2 0.23052246E+03</rscale>
<asrwt>0</asrwt>
<pdfrwt beam="1">  1       21 0.38010681E-01 0.23052246E+03</pdfrwt>
<pdfrwt beam="2">  1       21 0.81476197E-01 0.23052246E+03</pdfrwt>
<totfact> 0.85856807E+03</totfact>
</mgrwt>
</event>
<event>
 4    1  0.3948468E+000  0.2020628E+03  0.7546771E-02  0.1148010E+00
         21   -1    0    0  501  502  0.00000000000E+00  0.00000000000E+00  0.82625184630E+02  0.82625184630E+02  0.00000000000E+00 0. -1.
         21   -1    0    0  502  503 -0.00000000000E+00 -0.00000000000E+00 -0.58869617725E+03  0.58869617725E+03  0.00000000000E+00 0. -1.
          6    1    1    2  501    0  0.10404339991E+03 -0.86804654987E+01 -0.11851984092E+03  0.23425697906E+03  0.17300000000E+03 0. -1.
         -6    1    1    2    0  503 -0.10404339991E+03  0.86804654987E+01 -0.38755115170E+03  0.43706438282E+03  0.17300000000E+03 0. -1.
<mgrwt>
<rscale>  2 0.20206281E+03</rscale>
<asrwt>0</asrwt>
<pdfrwt beam="1">  1       21 0.12711568E-01 0.20206281E+03</pdfrwt>
<pdfrwt beam="2">  1       21 0.90568638E-01 0.20206281E+03</pdfrwt>
<totfact> 0.54540503E+04</totfact>
</mgrwt>
</event>
<event>
 4    1  0.3948468E+000  0.1758690E+03  0.7546771E-02  0.1171862E+00
         21   -1    0    0  501  502  0.00000000000E+00  0.00000000000E+00  0.46493639930E+03  0.46493639930E+03  0.00000000000E+00 0.  1.
         21   -1    0    0  502  503 -0.00000000000E+00 -0.00000000000E+00 -0.10347329793E+03  0.10347329793E+03  0.00000000000E+00 0.  1.
          6    1    1    2  501    0 -0.21813922018E+02  0.22914158784E+02  0.35056154896E+03  0.39220314312E+03  0.17300000000E+03 0.  1.
         -6    1    1    2    0  503  0.21813922018E+02 -0.22914158784E+02  0.10901552405E+02  0.17620655411E+03  0.17300000000E+03 0.  1.
<mgrwt>
<rscale>  2 0.17586900E+03</rscale>
<asrwt>0</asrwt>
<pdfrwt beam="1">  1       21 0.71528676E-01 0.17586900E+03</pdfrwt>
<pdfrwt beam="2">  1       21 0.15918969E-01 0.17586900E+03</pdfrwt>
<totfact> 0.62646675E+04</totfact>
</mgrwt>
</event>
<event>
 4    1  0.3948468E+000  0.1946732E+03  0.7546771E-02  0.1154313E+00
         21   -1    0    0  501  502  0.00000000000E+00  0.00000000000E+00  0.12426747662E+03  0.12426747662E+03  0.00000000000E+00 0.  1.
         21   -1    0    0  502  503 -0.00000000000E+00 -0.00000000000E+00 -0.47600208478E+03  0.47600208478E+03  0.00000000000E+00 0.  1.
          6    1    1    2  501    0  0.77813980755E+02  0.43744981998E+02  0.40416888467E+01  0.19471511061E+03  0.17300000000E+03 0.  1.
         -6    1    1    2    0  503 -0.77813980755E+02 -0.43744981998E+02 -0.35577629700E+03  0.40555445079E+03  0.17300000000E+03 0.  1.
<mgrwt>
<rscale>  2 0.19467316E+03</rscale>
<asrwt>0</asrwt>
<pdfrwt beam="1">  1       21 0.19118073E-01 0.19467316E+03</pdfrwt>
<pdfrwt beam="2">  1       21 0.73231090E-01 0.19467316E+03</pdfrwt>
<totfact> 0.42056915E+04</totfact>
</mgrwt>
</event>
<event>
 4    1  0.3948468E+000  0.1986422E+03  0.7546771E-02  0.1150890E+00
         21   -1    0    0  503  502  0.00000000000E+00  0.00000000000E+00  0.11714661814E+04  0.11714661814E+04  0.00000000000E+00 0.  1.
         21   -1    0    0  501  503 -0.00000000000E+00 -0.00000000000E+00 -0.46959572283E+02  0.46959572283E+02  0.00000000000E+00 0.  1.
          6    1    1    2  501    0  0.36989417081E+02 -0.90341008194E+02  0.23832646953E+03  0.31025508991E+03  0.17300000000E+03 0.  1.
         -6    1    1    2    0  502 -0.36989417081E+02  0.90341008194E+02  0.88618013961E+03  0.90817066380E+03  0.17300000000E+03 0.  1.
<mgrwt>
<rscale>  2 0.19864218E+03</rscale>
<asrwt>0</asrwt>
<pdfrwt beam="1">  1       21 0.18022554E+00 0.19864218E+03</pdfrwt>
<pdfrwt beam="2">  1       21 0.72245505E-02 0.19864218E+03</pdfrwt>
<totfact> 0.25862557E+04</totfact>
</mgrwt>
</event>
<event>
 4    1  0.3948468E+000  0.3330714E+03  0.7546771E-02  0.1069786E+00
         21   -1    0    0  501  502  0.00000000000E+00  0.00000000000E+00  0.13189809891E+03  0.13189809891E+03  0.00000000000E+00 0.  1.
         21   -1    0    0  502  503 -0.00000000000E+00 -0.00000000000E+00 -0.89709866257E+03  0.89709866257E+03  0.00000000000E+00 0. -1.
          6    1    1    2  501    0 -0.19662700996E+03 -0.20577996094E+03 -0.25403062214E+03  0.41888916237E+03  0.17300000000E+03 0.  1.
         -6    1    1    2    0  503  0.19662700996E+03  0.20577996094E+03 -0.51116994152E+03  0.61010759910E+03  0.17300000000E+03 0. -1.
<mgrwt>
<rscale>  2 0.33307142E+03</rscale>
<asrwt>0</asrwt>
<pdfrwt beam="1">  1       21 0.20292015E-01 0.33307142E+03</pdfrwt>
<pdfrwt beam="2">  1       21 0.13801518E+00 0.33307142E+03</pdfrwt>
<totfact> 0.76741144E+03</totfact>
</mgrwt>
</event>
<event>
 4    1  0.3948468E+000  0.1883170E+03  0.7546771E-02  0.1159988E+00
         21   -1    0    0  503  502  0.00000000000E+00  0.00000000000E+00  0.11340525856E+03  0.11340525856E+03  0.00000000000E+00 0. -1.
         21   -1    0    0  501  503 -0.00000000000E+00 -0.00000000000E+00 -0.38949646950E+03  0.38949646950E+03  0.00000000000E+00 0.  1.
          6    1    1    2  501    0  0.67326343038E+02 -0.31645778644E+02 -0.26401600782E+02  0.19015871344E+03  0.17300000000E+03 0. -1.
         -6    1    1    2    0  502 -0.67326343038E+02  0.31645778644E+02 -0.24968961016E+03  0.31274301462E+03  0.17300000000E+03 0.  1.
<mgrwt>
<rscale>  2 0.18831700E+03</rscale>
<asrwt>0</asrwt>
<pdfrwt beam="1">  1       21 0.17446963E-01 0.18831700E+03</pdfrwt>
<pdfrwt beam="2">  1       21 0.59922534E-01 0.18831700E+03</pdfrwt>
<totfact> 0.77418458E+04</totfact>
</mgrwt>
</event>
<event>
 4    1  0.3948468E+000  0.2156965E+03  0.7546771E-02  0.1137133E+00
         21   -1    0    0  501  502  0.00000000000E+00  0.00000000000E+00  0.33568565033E+03  0.33568565033E+03  0.00000000000E+00 0.  1.
         21   -1    0    0  502  503 -0.00000000000E+00 -0.00000000000E+00 -0.19903947035E+03  0.19903947035E+03  0.00000000000E+00 0.  1.
          6    1    1    2  501    0 -0.60523038961E+02 -0.11372300776E+03  0.21565701842E+03  0.30501296748E+03  0.17300000000E+03 0.  1.
         -6    1    1    2    0  503  0.60523038961E+02  0.11372300776E+03 -0.79010838438E+02  0.22971215320E+03  0.17300000000E+03 0.  1.
<mgrwt>
<rscale>  2 0.21569646E+03</rscale>
<asrwt>0</asrwt>
<pdfrwt beam="1">  1       21 0.51643946E-01 0.21569646E+03</pdfrwt>
<pdfrwt beam="2">  1       21 0.30621457E-01 0.21569646E+03</pdfrwt>
<totfact> 0.36029193E+04</totfact>
</mgrwt>
</event>
<event>
 4    1  0.3948468E+000  0.1811617E+03  0.7546771E-02  0.1166683E+00
         21   -1    0    0  503  502  0.00000000000E+00  0.00000000000E+00  0.15745629879E+03  0.15745629879E+03  0.00000000000E+00 0. -1.
         21   -1    0    0  501  503 -0.00000000000E+00 -0.00000000000E+00 -0.47305383405E+03  0.47305383405E+03  0.00000000000E+00 0. -1.
          6    1    1    2  501    0  0.24762409600E+02 -0.47721853896E+02 -0.39358388684E+03  0.43327569543E+03  0.17300000000E+03 0. -1.
         -6    1    1    2    0  502 -0.24762409600E+02  0.47721853896E+02  0.77986351579E+02  0.19723443741E+03  0.17300000000E+03 0. -1.
<mgrwt>
<rscale>  2 0.18116167E+03</rscale>
<asrwt>0</asrwt>
<pdfrwt beam="1">  1       21 0.24224047E-01 0.18116167E+03</pdfrwt>
<pdfrwt beam="2">  1       21 0.72777511E-01 0.18116167E+03</pdfrwt>
<totfact> 0.27521250E+04</totfact>
</mgrwt>
</event>
<event>
 4    1  0.3948468E+000  0.2207135E+03  0.7546771E-02  0.1133352E+00
         21   -1    0    0  503  502  0.00000000000E+00  0.00000000000E+00  0.59197092558E+03  0.59197092558E+03  0.00000000000E+00 0.  1.
         21   -1    0    0  501  503 -0.00000000000E+00 -0.00000000000E+00 -0.12287793325E+03  0.12287793325E+03  0.00000000000E+00 0. -1.
          6    1    1    2  501    0 -0.11203499025E+03 -0.78953200235E+02  0.29130020548E+02  0.22262750272E+03  0.17300000000E+03 0. -1.
         -6    1    1    2    0  502  0.11203499025E+03  0.78953200235E+02  0.43996297179E+03  0.49222135611E+03  0.17300000000E+03 0.  1.
<mgrwt>
<rscale>  2 0.22071349E+03</rscale>
<asrwt>0</asrwt>
<pdfrwt beam="1">  1       21 0.91072449E-01 0.22071349E+03</pdfrwt>
<pdfrwt beam="2">  1       21 0.18904298E-01 0.22071349E+03</pdfrwt>
<totfact> 0.25792201E+04</totfact>
</mgrwt>
</event>
<event>
 4    1  0.3948468E+000  0.3707954E+03  0.7546771E-02  0.1054389E+00
         21   -1    0    0  503  502  0.00000000000E+00  0.00000000000E+00  0.89404321493E+03  0.89404321493E+03  0.00000000000E+00 0.  1.
         21   -1    0    0  501  503 -0.00000000000E+00 -0.00000000000E+00 -0.23680966998E+03  0.23680966998E+03  0.00000000000E+00 0.  1.
          6    1    1    2  501    0 -0.10000993476E+03  0.31234315577E+03 -0.61817194553E+01  0.37084693293E+03  0.17300000000E+03 0.  1.
         -6    1    1    2    0  502  0.10000993476E+03 -0.31234315577E+03  0.66341526441E+03  0.76000595199E+03  0.17300000000E+03 0.  1.
<mgrwt>
<rscale>  2 0.37079541E+03</rscale>
<asrwt>0</asrwt>
<pdfrwt beam="1">  1       21 0.13754511E+00 0.37079541E+03</pdfrwt>
<pdfrwt beam="2">  1       21 0.36432257E-01 0.37079541E+03</pdfrwt>
<totfact> 0.24225649E+03</totfact>
</mgrwt>
</event>
<event>
 4    1  0.3948468E+000  0.1881725E+03  0.7546771E-02  0.1160120E+00
         21   -1    0    0  501  502  0.00000000000E+00  0.00000000000E+00  0.38627762791E+02  0.38627762791E+02  0.00000000000E+00 0. -1.
         21   -1    0    0  502  503 -0.00000000000E+00 -0.00000000000E+00 -0.94069638497E+03  0.94069638497E+03  0.00000000000E+00 0. -1.
          6    1    1    2  501    0  0.46810760619E+02 -0.57346841504E+02 -0.52929016410E+03  0.56174459085E+03  0.17300000000E+03 0. -1.
         -6    1    1    2    0  503 -0.46810760619E+02  0.57346841504E+02 -0.37277845808E+03  0.41757955691E+03  0.17300000000E+03 0. -1.
<mgrwt>
<rscale>  2 0.18817255E+03</rscale>
<asrwt>0</asrwt>
<pdfrwt beam="1">  1       21 0.59427329E-02 0.18817255E+03</pdfrwt>
<pdfrwt beam="2">  1       21 0.14472252E+00 0.18817255E+03</pdfrwt>
<totfact> 0.65957829E+04</totfact>
</mgrwt>
</event>
<event>
 4    1  0.3948468E+000  0.2547382E+03  0.7546771E-02  0.1110346E+00
         21   -1    0    0  501  502  0.00000000000E+00  0.00000000000E+00  0.16923162503E+03  0.16923162503E+03  0.00000000000E+00 0.  1.
         21   -1    0    0  502  503 -0.00000000000E+00 -0.00000000000E+00 -0.68492913043E+03  0.68492913043E+03  0.00000000000E+00 0.  1.
          6    1    1    2  501    0  0.18660659830E+03 -0.11854256317E+02  0.25497055021E+02  0.25601102659E+03  0.17300000000E+03 0.  1.
         -6    1    1    2    0  503 -0.18660659830E+03  0.11854256317E+02 -0.54119456042E+03  0.59814972888E+03  0.17300000000E+03 0.  1.
<mgrwt>
<rscale>  2 0.25473819E+03</rscale>
<asrwt>0</asrwt>
<pdfrwt beam="1">  1       21 0.26035635E-01 0.25473819E+03</pdfrwt>
<pdfrwt beam="2">  1       21 0.10537371E+00 0.25473819E+03</pdfrwt>
<totfact> 0.97585718E+03</totfact>
</mgrwt>
</event>
<event>
 4    1  0.3948468E+000  0.2498686E+03  0.7546771E-02  0.1113388E+00
         21   -1    0    0  503  502  0.00000000000E+00  0.00000000000E+00  0.87939842678E+03  0.87939842678E+03  0.00000000000E+00 0.  1.
         21   -1    0    0  501  503 -0.00000000000E+00 -0.00000000000E+00 -0.72621718884E+02  0.72621718884E+02  0.00000000000E+00 0. -1.
          6    1    1    2  501    0  0.15850556168E+03  0.85914545608E+02  0.33218149638E+03  0.41566677612E+03  0.17300000000E+03 0. -1.
         -6    1    1    2    0  502 -0.15850556168E+03 -0.85914545608E+02  0.47459521151E+03  0.53635336954E+03  0.17300000000E+03 0.  1.
<mgrwt>
<rscale>  2 0.24986861E+03</rscale>
<asrwt>0</asrwt>
<pdfrwt beam="1">  1       21 0.13529206E+00 0.24986861E+03</pdfrwt>
<pdfrwt beam="2">  1       21 0.11172573E-01 0.24986861E+03</pdfrwt>
<totfact> 0.25207404E+04</totfact>
</mgrwt>
</event>
<event>
 4    1  0.3948468E+000  0.2223426E+03  0.7546771E-02  0.1132149E+00
         21   -1    0    0  501  502  0.00000000000E+00  0.00000000000E+00  0.92468619489E+03  0.92468619489E+03  0.00000000000E+00 0. -1.
         21   -1    0    0  502  503 -0.00000000000E+00 -0.00000000000E+00 -0.70089175561E+02  0.70089175561E+02  0.00000000000E+00 0.  1.
          6    1    1    2  501    0 -0.13103328670E+02  0.13905224856E+03  0.66955174697E+03  0.70550390993E+03  0.17300000000E+03 0. -1.
         -6    1    1    2    0  503  0.13103328670E+02 -0.13905224856E+03  0.18504527236E+03  0.28927146052E+03  0.17300000000E+03 0.  1.
<mgrwt>
<rscale>  2 0.22234258E+03</rscale>
<asrwt>0</asrwt>
<pdfrwt beam="1">  1       21 0.14225941E+00 0.22234258E+03</pdfrwt>
<pdfrwt beam="2">  1       21 0.10782951E-01 0.22234258E+03</pdfrwt>
<totfact> 0.23930577E+04</totfact>
</mgrwt>
</event>
<event>
 4    1  0.3948468E+000  0.2409529E+03  0.7546771E-02  0.1119160E+00
         21   -1    0    0  501  502  0.00000000000E+00  0.00000000000E+00  0.35647420056E+03  0.35647420056E+03  0.00000000000E+00 0. -1.
         21   -1    0    0  502  503 -0.00000000000E+00 -0.00000000000E+00 -0.27942948079E+03  0.27942948079E+03  0.00000000000E+00 0.  1.
          6    1    1    2  501    0  0.16769296715E+03  0.28936567928E+01  0.24387600832E+03  0.34283204622E+03  0.17300000000E+03 0. -1.
         -6    1    1    2    0  503 -0.16769296715E+03 -0.28936567928E+01 -0.16683128855E+03  0.29307163513E+03  0.17300000000E+03 0.  1.
<mgrwt>
<rscale>  2 0.24095291E+03</rscale>
<asrwt>0</asrwt>
<pdfrwt beam="1">  1       21 0.54842185E-01 0.24095291E+03</pdfrwt>
<pdfrwt beam="2">  1       21 0.42989150E-01 0.24095291E+03</pdfrwt>
<totfact> 0.15876557E+04</totfact>
</mgrwt>
</event>
<event>
 4    1  0.3948468E+000  0.2059620E+03  0.7546771E-02  0.1144804E+00
         21   -1    0    0  503  502  0.00000000000E+00  0.00000000000E+00  0.66885416470E+03  0.66885416470E+03  0.00000000000E+00 0. -1.
         21   -1    0    0  501  503 -0.00000000000E+00 -0.00000000000E+00 -0.64361008103E+02  0.64361008103E+02  0.00000000000E+00 0.  1.
          6    1    1    2  501    0 -0.59376482867E+01 -0.11160676336E+03  0.34651927858E+03  0.40310784627E+03  0.17300000000E+03 0. -1.
         -6    1    1    2    0  502  0.59376482867E+01  0.11160676336E+03  0.25797387801E+03  0.33010732653E+03  0.17300000000E+03 0. -1.
<mgrwt>
<rscale>  2 0.20596195E+03</rscale>
<asrwt>0</asrwt>
<pdfrwt beam="1">  1       21 0.10290064E+00 0.20596195E+03</pdfrwt>
<pdfrwt beam="2">  1       21 0.99016940E-02 0.20596195E+03</pdfrwt>
<totfact> 0.62911371E+04</totfact>
</mgrwt>
</event>
<event>
 4    1  0.3948468E+000  0.2597183E+03  0.7546771E-02  0.1107313E+00
         21   -1    0    0  503  502  0.00000000000E+00  0.00000000000E+00  0.15126217226E+04  0.15126217226E+04  0.00000000000E+00 0. -1.
         21   -1    0    0  501  503 -0.00000000000E+00 -0.00000000000E+00 -0.73145097858E+02  0.73145097858E+02  0.00000000000E+00 0. -1.
          6    1    1    2  501    0 -0.17529587317E+03 -0.82437644749E+02  0.22436870805E+03  0.34321265357E+03  0.17300000000E+03 0. -1.
         -6    1    1    2    0  502  0.17529587317E+03  0.82437644749E+02  0.12151079167E+04  0.12425541669E+04  0.17300000000E+03 0. -1.
<mgrwt>
<rscale>  2 0.25971833E+03</rscale>
<asrwt>0</asrwt>
<pdfrwt beam="1">  1       21 0.23271101E+00 0.25971833E+03</pdfrwt>
<pdfrwt beam="2">  1       21 0.11253093E-01 0.25971833E+03</pdfrwt>
<totfact> 0.52312664E+03</totfact>
</mgrwt>
</event>
<event>
 4    1  0.3948468E+000  0.2070534E+03  0.7546771E-02  0.1143921E+00
         21   -1    0    0  501  502  0.00000000000E+00  0.00000000000E+00  0.13470272475E+03  0.13470272475E+03  0.00000000000E+00 0.  1.
         21   -1    0    0  502  503 -0.00000000000E+00 -0.00000000000E+00 -0.42508093042E+03  0.42508093042E+03  0.00000000000E+00 0.  1.
          6    1    1    2  501    0 -0.15944308553E+02 -0.11264047510E+03 -0.48840205427E+01  0.20711096365E+03  0.17300000000E+03 0.  1.
         -6    1    1    2    0  503  0.15944308553E+02  0.11264047510E+03 -0.28549418512E+03  0.35267269152E+03  0.17300000000E+03 0.  1.
<mgrwt>
<rscale>  2 0.20705337E+03</rscale>
<asrwt>0</asrwt>
<pdfrwt beam="1">  1       21 0.20723496E-01 0.20705337E+03</pdfrwt>
<pdfrwt beam="2">  1       21 0.65397066E-01 0.20705337E+03</pdfrwt>
<totfact> 0.46119575E+04</totfact>
</mgrwt>
</event>
<event>
 4    1  0.3948468E+000  0.1903788E+03  0.7546771E-02  0.1158120E+00
         21   -1    0    0  501  502  0.00000000000E+00  0.00000000000E+00  0.22186744395E+03  0.22186744395E+03  0.00000000000E+00 0.  1.
         21   -1    0    0  502  503 -0.00000000000E+00 -0.00000000000E+00 -0.16650328455E+03  0.16650328455E+03  0.00000000000E+00 0.  1.
          6    1    1    2  501    0  0.46993110097E+02 -0.64083695860E+02  0.99770191839E+00  0.19038137483E+03  0.17300000000E+03 0.  1.
         -6    1    1    2    0  503 -0.46993110097E+02  0.64083695860E+02  0.54366457483E+02  0.19798935368E+03  0.17300000000E+03 0.  1.
<mgrwt>
<rscale>  2 0.19037876E+03</rscale>
<asrwt>0</asrwt>
<pdfrwt beam="1">  1       21 0.34133453E-01 0.19037876E+03</pdfrwt>
<pdfrwt beam="2">  1       21 0.25615890E-01 0.19037876E+03</pdfrwt>
<totfact> 0.11967267E+05</totfact>
</mgrwt>
</event>
<event>
 4    1  0.3948468E+000  0.1819475E+03  0.7546771E-02  0.1165931E+00
         21   -1    0    0  501  502  0.00000000000E+00  0.00000000000E+00  0.45493266244E+02  0.45493266244E+02  0.00000000000E+00 0. -1.
         21   -1    0    0  502  503 -0.00000000000E+00 -0.00000000000E+00 -0.84404915355E+03  0.84404915355E+03  0.00000000000E+00 0. -1.
          6    1    1    2  501    0 -0.44119127161E+02  0.35062504558E+02 -0.23413579615E+03  0.29652056868E+03  0.17300000000E+03 0. -1.
         -6    1    1    2    0  503  0.44119127161E+02 -0.35062504558E+02 -0.56442009116E+03  0.59302185112E+03  0.17300000000E+03 0. -1.
<mgrwt>
<rscale>  2 0.18194746E+03</rscale>
<asrwt>0</asrwt>
<pdfrwt beam="1">  1       21 0.69989643E-02 0.18194746E+03</pdfrwt>
<pdfrwt beam="2">  1       21 0.12985371E+00 0.18194746E+03</pdfrwt>
<totfact> 0.65937125E+04</totfact>
</mgrwt>
</event>
<event>
 4    1  0.3948468E+000  0.3325907E+03  0.7546771E-02  0.1069996E+00
         21   -1    0    0  501  502  0.00000000000E+00  0.00000000000E+00  0.38894679438E+03  0.38894679438E+03  0.00000000000E+00 0.  1.
         21   -1    0    0  502  503 -0.00000000000E+00 -0.00000000000E+00 -0.60272003915E+03  0.60272003915E+03  0.00000000000E+00 0. -1.
          6    1    1    2  501    0 -0.57484512083E+02  0.27817822274E+03  0.25345111630E+03  0.41815554653E+03  0.17300000000E+03 0.  1.
         -6    1    1    2    0  503  0.57484512083E+02 -0.27817822274E+03 -0.46722436107E+03  0.57351128700E+03  0.17300000000E+03 0. -1.
<mgrwt>
<rscale>  2 0.33259073E+03</rscale>
<asrwt>0</asrwt>
<pdfrwt beam="1">  1       21 0.59837968E-01 0.33259073E+03</pdfrwt>
<pdfrwt beam="2">  1       21 0.92726160E-01 0.33259073E+03</pdfrwt>
<totfact> 0.23246858E+03</totfact>
</mgrwt>
</event>
<event>
 4    1  0.3948468E+000  0.1886732E+03  0.7546771E-02  0.1159663E+00
         21   -1    0    0  503  502  0.00000000000E+00  0.00000000000E+00  0.20427782570E+03  0.20427782570E+03  0.00000000000E+00 0. -1.
         21   -1    0    0  501  503 -0.00000000000E+00 -0.00000000000E+00 -0.37186633502E+03  0.37186633502E+03  0.00000000000E+00 0. -1.
          6    1    1    2  501    0 -0.44654055703E+02 -0.60618516345E+02 -0.29378852296E+03  0.34915510227E+03  0.17300000000E+03 0. -1.
         -6    1    1    2    0  502  0.44654055703E+02  0.60618516345E+02  0.12620001364E+03  0.22698905845E+03  0.17300000000E+03 0. -1.
<mgrwt>
<rscale>  2 0.18867323E+03</rscale>
<asrwt>0</asrwt>
<pdfrwt beam="1">  1       21 0.31427358E-01 0.18867323E+03</pdfrwt>
<pdfrwt beam="2">  1       21 0.57210205E-01 0.18867323E+03</pdfrwt>
<totfact> 0.27979003E+04</totfact>
</mgrwt>
</event>
<event>
 4    1  0.3948468E+000  0.2189350E+03  0.7546771E-02  0.1134680E+00
         21   -1    0    0  501  502  0.00000000000E+00  0.00000000000E+00  0.20954846719E+03  0.20954846719E+03  0.00000000000E+00 0.  1.
         21   -1    0    0  502  503 -0.00000000000E+00 -0.00000000000E+00 -0.27295291334E+03  0.27295291334E+03  0.00000000000E+00 0.  1.
          6    1    1    2  501    0 -0.12517806769E+03  0.48311264051E+02 -0.12879560824E+03  0.25400951866E+03  0.17300000000E+03 0.  1.
         -6    1    1    2    0  503  0.12517806769E+03 -0.48311264051E+02  0.65391162094E+02  0.22849186188E+03  0.17300000000E+03 0.  1.
<mgrwt>
<rscale>  2 0.21893498E+03</rscale>
<asrwt>0</asrwt>
<pdfrwt beam="1">  1       21 0.32238226E-01 0.21893498E+03</pdfrwt>
<pdfrwt beam="2">  1       21 0.41992756E-01 0.21893498E+03</pdfrwt>
<totfact> 0.49896719E+04</totfact>
</mgrwt>
</event>
<event>
 4    1  0.3948468E+000  0.1798388E+03  0.7546771E-02  0.1167959E+00
         21   -1    0    0  501  502  0.00000000000E+00  0.00000000000E+00  0.39052097023E+03  0.39052097023E+03  0.00000000000E+00 0.  1.
         21   -1    0    0  502  503 -0.00000000000E+00 -0.00000000000E+00 -0.99754555297E+02  0.99754555297E+02  0.00000000000E+00 0.  1.
          6    1    1    2  501    0  0.33499906180E+02 -0.35926809778E+02  0.24639277449E+03  0.30504324070E+03  0.17300000000E+03 0.  1.
         -6    1    1    2    0  503 -0.33499906180E+02  0.35926809778E+02  0.44373640435E+02  0.18523228482E+03  0.17300000000E+03 0.  1.
<mgrwt>
<rscale>  2 0.17983876E+03</rscale>
<asrwt>0</asrwt>
<pdfrwt beam="1">  1       21 0.60080148E-01 0.17983876E+03</pdfrwt>
<pdfrwt beam="2">  1       21 0.15346855E-01 0.17983876E+03</pdfrwt>
<totfact> 0.97703260E+04</totfact>
</mgrwt>
</event>
<event>
 4    1  0.3948468E+000  0.2416771E+03  0.7546771E-02  0.1118681E+00
         21   -1    0    0  503  502  0.00000000000E+00  0.00000000000E+00  0.50079330412E+03  0.50079330412E+03  0.00000000000E+00 0. -1.
         21   -1    0    0  501  503 -0.00000000000E+00 -0.00000000000E+00 -0.12052714105E+03  0.12052714105E+03  0.00000000000E+00 0. -1.
          6    1    1    2  501    0  0.23502686012E+02  0.16711204493E+03  0.13427523942E+03  0.27647360043E+03  0.17300000000E+03 0. -1.
         -6    1    1    2    0  502 -0.23502686012E+02 -0.16711204493E+03  0.24599092365E+03  0.34484684474E+03  0.17300000000E+03 0. -1.
<mgrwt>
<rscale>  2 0.24167708E+03</rscale>
<asrwt>0</asrwt>
<pdfrwt beam="1">  1       21 0.77045123E-01 0.24167708E+03</pdfrwt>
<pdfrwt beam="2">  1       21 0.18542637E-01 0.24167708E+03</pdfrwt>
<totfact> 0.38838081E+04</totfact>
</mgrwt>
</event>
<event>
 4    1  0.3948468E+000  0.1916963E+03  0.7546771E-02  0.1156940E+00
         21   -1    0    0  501  502  0.00000000000E+00  0.00000000000E+00  0.18119463159E+04  0.18119463159E+04  0.00000000000E+00 0. -1.
         21   -1    0    0  502  503 -0.00000000000E+00 -0.00000000000E+00 -0.20583140519E+02  0.20583140519E+02  0.00000000000E+00 0. -1.
          6    1    1    2  501    0  0.82555020219E+02 -0.17768354567E+01  0.78460938105E+03  0.80768766818E+03  0.17300000000E+03 0. -1.
         -6    1    1    2    0  503 -0.82555020219E+02  0.17768354567E+01  0.10067537943E+04  0.10248417882E+04  0.17300000000E+03 0. -1.
<mgrwt>
<rscale>  2 0.19169634E+03</rscale>
<asrwt>0</asrwt>
<pdfrwt beam="1">  1       21 0.27876085E+00 0.19169634E+03</pdfrwt>
<pdfrwt beam="2">  1       21 0.31666384E-02 0.19169634E+03</pdfrwt>
<totfact> 0.26194942E+04</totfact>
</mgrwt>
</event>
<event>
 4    1  0.3948468E+000  0.1775334E+03  0.7546771E-02  0.1170212E+00
         21   -1    0    0  501  502  0.00000000000E+00  0.00000000000E+00  0.11122372065E+03  0.11122372065E+03  0.00000000000E+00 0. -1.
         21   -1    0    0  502  503 -0.00000000000E+00 -0.00000000000E+00 -0.29883920769E+03  0.29883920769E+03  0.00000000000E+00 0. -1.
          6    1    1    2  501    0 -0.26705233251E+02  0.29596119454E+02 -0.47168046235E+02  0.18369247223E+03  0.17300000000E+03 0. -1.
         -6    1    1    2    0  503  0.26705233251E+02 -0.29596119454E+02 -0.14044744081E+03  0.22637045611E+03  0.17300000000E+03 0. -1.
<mgrwt>
<rscale>  2 0.17753338E+03</rscale>
<asrwt>0</asrwt>
<pdfrwt beam="1">  1       21 0.17111342E-01 0.17753338E+03</pdfrwt>
<pdfrwt beam="2">  1       21 0.45975262E-01 0.17753338E+03</pdfrwt>
<totfact> 0.14047292E+05</totfact>
</mgrwt>
</event>
<event>
 4    1  0.3948468E+000  0.1952357E+03  0.7546771E-02  0.1153822E+00
         21   -1    0    0  503  502  0.00000000000E+00  0.00000000000E+00  0.29639738613E+03  0.29639738613E+03  0.00000000000E+00 0. -1.
         21   -1    0    0  501  503 -0.00000000000E+00 -0.00000000000E+00 -0.13879381882E+03  0.13879381882E+03  0.00000000000E+00 0.  1.
          6    1    1    2  501    0 -0.85047507125E+02 -0.30901319492E+02  0.19834058044E+02  0.19624056633E+03  0.17300000000E+03 0.  1.
         -6    1    1    2    0  502  0.85047507125E+02  0.30901319492E+02  0.13776950927E+03  0.23895063862E+03  0.17300000000E+03 0. -1.
<mgrwt>
<rscale>  2 0.19523568E+03</rscale>
<asrwt>0</asrwt>
<pdfrwt beam="1">  1       21 0.45599598E-01 0.19523568E+03</pdfrwt>
<pdfrwt beam="2">  1       21 0.21352895E-01 0.19523568E+03</pdfrwt>
<totfact> 0.94065100E+04</totfact>
</mgrwt>
</event>
<event>
 4    1  0.3948468E+000  0.2029774E+03  0.7546771E-02  0.1147251E+00
         21   -1    0    0  501  502  0.00000000000E+00  0.00000000000E+00  0.22547671536E+03  0.22547671536E+03  0.00000000000E+00 0. -1.
         21   -1    0    0  502  503 -0.00000000000E+00 -0.00000000000E+00 -0.21625600054E+03  0.21625600054E+03  0.00000000000E+00 0. -1.
          6    1    1    2  501    0  0.48680595441E+02  0.94345253843E+02  0.91582544114E+02  0.22268181264E+03  0.17300000000E+03 0. -1.
         -6    1    1    2    0  503 -0.48680595441E+02 -0.94345253843E+02 -0.82361829287E+02  0.21905090326E+03  0.17300000000E+03 0. -1.
<mgrwt>
<rscale>  2 0.20297741E+03</rscale>
<asrwt>0</asrwt>
<pdfrwt beam="1">  1       21 0.34688725E-01 0.20297741E+03</pdfrwt>
<pdfrwt beam="2">  1       21 0.33270154E-01 0.20297741E+03</pdfrwt>
<totfact> 0.69363652E+04</totfact>
</mgrwt>
</event>
<event>
 4    1  0.3948468E+000  0.1751767E+03  0.7546771E-02  0.1172554E+00
         21   -1    0    0  503  502  0.00000000000E+00  0.00000000000E+00  0.15775205847E+04  0.15775205847E+04  0.00000000000E+00 0.  1.
         21   -1    0    0  501  503 -0.00000000000E+00 -0.00000000000E+00 -0.27852709944E+02  0.27852709944E+02  0.00000000000E+00 0.  1.
          6    1    1    2  501    0  0.22743797288E+02  0.15510764264E+02  0.33402031672E+03  0.37716897553E+03  0.17300000000E+03 0.  1.
         -6    1    1    2    0  502 -0.22743797288E+02 -0.15510764264E+02  0.12156475580E+04  0.12282043191E+04  0.17300000000E+03 0.  1.
<mgrwt>
<rscale>  2 0.17517667E+03</rscale>
<asrwt>0</asrwt>
<pdfrwt beam="1">  1       21 0.24269541E+00 0.17517667E+03</pdfrwt>
<pdfrwt beam="2">  1       21 0.42850335E-02 0.17517667E+03</pdfrwt>
<totfact> 0.26018377E+04</totfact>
</mgrwt>
</event>
<event>
 4    1  0.3948468E+000  0.2297646E+03  0.7546771E-02  0.1126806E+00
         21   -1    0    0  503  502  0.00000000000E+00  0.00000000000E+00  0.19444793965E+03  0.19444793965E+03  0.00000000000E+00 0. -1.
         21   -1    0    0  501  503 -0.00000000000E+00 -0.00000000000E+00 -0.30688594682E+03  0.30688594682E+03  0.00000000000E+00 0. -1.
          6    1    1    2  501    0 -0.42249492532E+02 -0.14518174645E+03 -0.14134280362E+03  0.26975831267E+03  0.17300000000E+03 0. -1.
         -6    1    1    2    0  502  0.42249492532E+02  0.14518174645E+03  0.28904796454E+02  0.23157557379E+03  0.17300000000E+03 0. -1.
<mgrwt>
<rscale>  2 0.22976457E+03</rscale>
<asrwt>0</asrwt>
<pdfrwt beam="1">  1       21 0.29915068E-01 0.22976457E+03</pdfrwt>
<pdfrwt beam="2">  1       21 0.47213222E-01 0.22976457E+03</pdfrwt>
<totfact> 0.45187571E+04</totfact>
</mgrwt>
</event>
<event>
 4    1  0.3948468E+000  0.1882009E+03  0.7546771E-02  0.1160094E+00
         21   -1    0    0  501  502  0.00000000000E+00  0.00000000000E+00  0.54718344071E+03  0.54718344071E+03  0.00000000000E+00 0.  1.
         21   -1    0    0  502  503 -0.00000000000E+00 -0.00000000000E+00 -0.86649746790E+02  0.86649746790E+02  0.00000000000E+00 0. -1.
          6    1    1    2  501    0  0.26598625696E+01 -0.74050795036E+02  0.70872962001E+02  0.20110338599E+03  0.17300000000E+03 0. -1.
         -6    1    1    2    0  503 -0.26598625696E+01  0.74050795036E+02  0.38966073191E+03  0.43272980151E+03  0.17300000000E+03 0.  1.
<mgrwt>
<rscale>  2 0.18820094E+03</rscale>
<asrwt>0</asrwt>
<pdfrwt beam="1">  1       21 0.84182066E-01 0.18820094E+03</pdfrwt>
<pdfrwt beam="2">  1       21 0.13330731E-01 0.18820094E+03</pdfrwt>
<totfact> 0.59635468E+04</totfact>
</mgrwt>
</event>
<event>
 4    1  0.3948468E+000  0.2856389E+03  0.7546771E-02  0.1092648E+00
         21   -1    0    0  503  502  0.00000000000E+00  0.00000000000E+00  0.21031596161E+03  0.21031596161E+03  0.00000000000E+00 0.  1.
         21   -1    0    0  501  503 -0.00000000000E+00 -0.00000000000E+00 -0.76987299314E+03  0.76987299314E+03  0.00000000000E+00 0. -1.
          6    1    1    2  501    0  0.13431672222E+03 -0.18335648691E+03 -0.62497384547E+03  0.68715492480E+03  0.17300000000E+03 0. -1.
         -6    1    1    2    0  502 -0.13431672222E+03  0.18335648691E+03  0.65416813934E+02  0.29303402994E+03  0.17300000000E+03 0.  1.
<mgrwt>
<rscale>  2 0.28563890E+03</rscale>
<asrwt>0</asrwt>
<pdfrwt beam="1">  1       21 0.32356302E-01 0.28563890E+03</pdfrwt>
<pdfrwt beam="2">  1       21 0.11844200E+00 0.28563890E+03</pdfrwt>
<totfact> 0.47058287E+03</totfact>
</mgrwt>
</event>
<event>
 4    1  0.3948468E+000  0.2061538E+03  0.7546771E-02  0.1144648E+00
         21   -1    0    0  501  502  0.00000000000E+00  0.00000000000E+00  0.26470266920E+03  0.26470266920E+03  0.00000000000E+00 0.  1.
         21   -1    0    0  502  503 -0.00000000000E+00 -0.00000000000E+00 -0.17767115630E+03  0.17767115630E+03  0.00000000000E+00 0.  1.
          6    1    1    2  501    0 -0.10814633942E+03  0.29576556187E+02 -0.25135881612E+02  0.20768056228E+03  0.17300000000E+03 0.  1.
         -6    1    1    2    0  503  0.10814633942E+03 -0.29576556187E+02  0.11216739452E+03  0.23469326322E+03  0.17300000000E+03 0.  1.
<mgrwt>
<rscale>  2 0.20615383E+03</rscale>
<asrwt>0</asrwt>
<pdfrwt beam="1">  1       21 0.40723487E-01 0.20615383E+03</pdfrwt>
<pdfrwt beam="2">  1       21 0.27334024E-01 0.20615383E+03</pdfrwt>
<totfact> 0.73704152E+04</totfact>
</mgrwt>
</event>
<event>
 4    1  0.3948468E+000  0.1843268E+03  0.7546771E-02  0.1163680E+00
         21   -1    0    0  503  502  0.00000000000E+00  0.00000000000E+00  0.94247103080E+02  0.94247103080E+02  0.00000000000E+00 0. -1.
         21   -1    0    0  501  503 -0.00000000000E+00 -0.00000000000E+00 -0.45514983606E+03  0.45514983606E+03  0.00000000000E+00 0. -1.
          6    1    1    2  501    0 -0.17314503347E+02 -0.61217592405E+02 -0.30571688871E+03  0.35698627661E+03  0.17300000000E+03 0. -1.
         -6    1    1    2    0  502  0.17314503347E+02  0.61217592405E+02 -0.55185844266E+02  0.19241066253E+03  0.17300000000E+03 0. -1.
<mgrwt>
<rscale>  2 0.18432684E+03</rscale>
<asrwt>0</asrwt>
<pdfrwt beam="1">  1       21 0.14499554E-01 0.18432684E+03</pdfrwt>
<pdfrwt beam="2">  1       21 0.70023053E-01 0.18432684E+03</pdfrwt>
<totfact> 0.77526538E+04</totfact>
</mgrwt>
</event>
<event>
 4    1  0.3948468E+000  0.1960659E+03  0.7546771E-02  0.1153101E+00
         21   -1    0    0  501  502  0.00000000000E+00  0.00000000000E+00  0.61893108905E+03  0.61893108905E+03  0.00000000000E+00 0.  1.
         21   -1    0    0  502  503 -0.00000000000E+00 -0.00000000000E+00 -0.69711680592E+02  0.69711680592E+02  0.00000000000E+00 0.  1.
          6    1    1    2  501    0 -0.52050717599E+02 -0.76181222363E+02  0.38831060626E+03  0.43500227905E+03  0.17300000000E+03 0.  1.
         -6    1    1    2    0  503  0.52050717599E+02  0.76181222363E+02  0.16090880220E+03  0.25364049059E+03  0.17300000000E+03 0.  1.
<mgrwt>
<rscale>  2 0.19606595E+03</rscale>
<asrwt>0</asrwt>
<pdfrwt beam="1">  1       21 0.95220164E-01 0.19606595E+03</pdfrwt>
<pdfrwt beam="2">  1       21 0.10724874E-01 0.19606595E+03</pdfrwt>
<totfact> 0.65942803E+04</totfact>
</mgrwt>
</event>
<event>
 4    1  0.3948468E+000  0.2348148E+03  0.7546771E-02  0.1123296E+00
         21   -1    0    0  501  502  0.00000000000E+00  0.00000000000E+00  0.73720098432E+03  0.73720098432E+03  0.00000000000E+00 0. -1.
         21   -1    0    0  502  503 -0.00000000000E+00 -0.00000000000E+00 -0.25625601112E+03  0.25625601112E+03  0.00000000000E+00 0. -1.
          6    1    1    2  501    0 -0.94644938043E+02  0.12748069735E+03  0.65847150256E+03  0.69908705622E+03  0.17300000000E+03 0. -1.
         -6    1    1    2    0  503  0.94644938043E+02 -0.12748069735E+03 -0.17752652935E+03  0.29436993922E+03  0.17300000000E+03 0. -1.
<mgrwt>
<rscale>  2 0.23481480E+03</rscale>
<asrwt>0</asrwt>
<pdfrwt beam="1">  1       21 0.11341554E+00 0.23481480E+03</pdfrwt>
<pdfrwt beam="2">  1       21 0.39424002E-01 0.23481480E+03</pdfrwt>
<totfact> 0.36387401E+03</totfact>
</mgrwt>
</event>
<event>
 4    1  0.3948468E+000  0.2085026E+03  0.7546771E-02  0.1142757E+00
         21   -1    0    0  503  502  0.00000000000E+00  0.00000000000E+00  0.66098425321E+03  0.66098425321E+03  0.00000000000E+00 0. -1.
         21   -1    0    0  501  503 -0.00000000000E+00 -0.00000000000E+00 -0.10660535098E+03  0.10660535098E+03  0.00000000000E+00 0. -1.
          6    1    1    2  501    0  0.65633183076E+02 -0.96107240640E+02  0.39656065529E+02  0.21224024114E+03  0.17300000000E+03 0. -1.
         -6    1    1    2    0  502 -0.65633183076E+02  0.96107240640E+02  0.51472283670E+03  0.55534936305E+03  0.17300000000E+03 0. -1.
<mgrwt>
<rscale>  2 0.20850256E+03</rscale>
<asrwt>0</asrwt>
<pdfrwt beam="1">  1       21 0.10168988E+00 0.20850256E+03</pdfrwt>
<pdfrwt beam="2">  1       21 0.16400824E-01 0.20850256E+03</pdfrwt>
<totfact> 0.26043035E+04</totfact>
</mgrwt>
</event>
<event>
 4    1  0.3948468E+000  0.2050704E+03  0.7546771E-02  0.1145530E+00
         21   -1    0    0  503  502  0.00000000000E+00  0.00000000000E+00  0.17946289030E+03  0.17946289030E+03  0.00000000000E+00 0. -1.
         21   -1    0    0  501  503 -0.00000000000E+00 -0.00000000000E+00 -0.30629392776E+03  0.30629392776E+03  0.00000000000E+00 0.  1.
          6    1    1    2  501    0  0.85533177408E+02  0.69346435846E+02 -0.18114137932E+03  0.27361661481E+03  0.17300000000E+03 0.  1.
         -6    1    1    2    0  502 -0.85533177408E+02 -0.69346435846E+02  0.54310341854E+02  0.21214020325E+03  0.17300000000E+03 0. -1.
<mgrwt>
<rscale>  2 0.20507036E+03</rscale>
<asrwt>0</asrwt>
<pdfrwt beam="1">  1       21 0.27609676E-01 0.20507036E+03</pdfrwt>
<pdfrwt beam="2">  1       21 0.47122142E-01 0.20507036E+03</pdfrwt>
<totfact> 0.53628286E+04</totfact>
</mgrwt>
</event>
<event>
 4    1  0.3948468E+000  0.2325635E+03  0.7546771E-02  0.1124848E+00
         21   -1    0    0  503  502  0.00000000000E+00  0.00000000000E+00  0.87304053425E+03  0.87304053425E+03  0.00000000000E+00 0.  1.
         21   -1    0    0  501  503 -0.00000000000E+00 -0.00000000000E+00 -0.69834624435E+02  0.69834624435E+02  0.00000000000E+00 0.  1.
          6    1    1    2  501    0  0.57641677534E+02  0.14434057395E+03  0.24320454785E+03  0.33650292179E+03  0.17300000000E+03 0.  1.
         -6    1    1    2    0  502 -0.57641677534E+02 -0.14434057395E+03  0.56000136197E+03  0.60637223690E+03  0.17300000000E+03 0.  1.
<mgrwt>
<rscale>  2 0.23256346E+03</rscale>
<asrwt>0</asrwt>
<pdfrwt beam="1">  1       21 0.13431392E+00 0.23256346E+03</pdfrwt>
<pdfrwt beam="2">  1       21 0.10743789E-01 0.23256346E+03</pdfrwt>
<totfact> 0.27786518E+04</totfact>
</mgrwt>
</event>
<event>
 4    1  0.3948468E+000  0.2141329E+03  0.7546771E-02  0.1138334E+00
         21   -1    0    0  501  502  0.00000000000E+00  0.00000000000E+00  0.88638034175E+03  0.88638034175E+03  0.00000000000E+00 0. -1.
         21   -1    0    0  502  503 -0.00000000000E+00 -0.00000000000E+00 -0.64033122423E+02  0.64033122423E+02  0.00000000000E+00 0. -1.
          6    1    1    2  501    0  0.96359376233E+02 -0.81478691863E+02  0.61946864854E+03  0.65543444611E+03  0.17300000000E+03 0. -1.
         -6    1    1    2    0  503 -0.96359376233E+02  0.81478691863E+02  0.20287857078E+03  0.29497901807E+03  0.17300000000E+03 0. -1.
<mgrwt>
<rscale>  2 0.21413292E+03</rscale>
<asrwt>0</asrwt>
<pdfrwt beam="1">  1       21 0.13636620E+00 0.21413292E+03</pdfrwt>
<pdfrwt beam="2">  1       21 0.98512502E-02 0.21413292E+03</pdfrwt>
<totfact> 0.31499658E+04</totfact>
</mgrwt>
</event>
<event>
 4    1  0.3948468E+000  0.1828625E+03  0.7546771E-02  0.1165061E+00
         21   -1    0    0  501  502  0.00000000000E+00  0.00000000000E+00  0.29583363945E+03  0.29583363945E+03  0.00000000000E+00 0.  1.
         21   -1    0    0  502  503 -0.00000000000E+00 -0.00000000000E+00 -0.23741485914E+03  0.23741485914E+03  0.00000000000E+00 0.  1.
          6    1    1    2  501    0 -0.50709597545E+02 -0.30630666316E+02  0.22219537473E+03  0.28776637321E+03  0.17300000000E+03 0.  1.
         -6    1    1    2    0  503  0.50709597545E+02  0.30630666316E+02 -0.16377659441E+03  0.24548212538E+03  0.17300000000E+03 0.  1.
<mgrwt>
<rscale>  2 0.18286252E+03</rscale>
<asrwt>0</asrwt>
<pdfrwt beam="1">  1       21 0.45512868E-01 0.18286252E+03</pdfrwt>
<pdfrwt beam="2">  1       21 0.36525363E-01 0.18286252E+03</pdfrwt>
<totfact> 0.33637898E+04</totfact>
</mgrwt>
</event>
<event>
 4    1  0.3948468E+000  0.2584823E+03  0.7546771E-02  0.1108059E+00
         21   -1    0    0  503  502  0.00000000000E+00  0.00000000000E+00  0.49247372510E+03  0.49247372510E+03  0.00000000000E+00 0. -1.
         21   -1    0    0  501  503 -0.00000000000E+00 -0.00000000000E+00 -0.30719377050E+03  0.30719377050E+03  0.00000000000E+00 0.  1.
          6    1    1    2  501    0 -0.13699437482E+03 -0.13459814334E+03 -0.20613033242E+03  0.33060978943E+03  0.17300000000E+03 0.  1.
         -6    1    1    2    0  502  0.13699437482E+03  0.13459814334E+03  0.39141028702E+03  0.46905770616E+03  0.17300000000E+03 0. -1.
<mgrwt>
<rscale>  2 0.25848234E+03</rscale>
<asrwt>0</asrwt>
<pdfrwt beam="1">  1       21 0.75765188E-01 0.25848234E+03</pdfrwt>
<pdfrwt beam="2">  1       21 0.47260580E-01 0.25848234E+03</pdfrwt>
<totfact> 0.63729341E+03</totfact>
</mgrwt>
</event>
<event>
 4    1  0.3948468E+000  0.2074414E+03  0.7546771E-02  0.1143608E+00
         21   -1    0    0  501  502  0.00000000000E+00  0.00000000000E+00  0.20730385348E+03  0.20730385348E+03  0.00000000000E+00 0. -1.
         21   -1    0    0  502  503 -0.00000000000E+00 -0.00000000000E+00 -0.22499003404E+03  0.22499003404E+03  0.00000000000E+00 0.  1.
          6    1    1    2  501    0  0.80757491684E+02  0.81124417048E+02  0.51285181843E+02  0.21368695183E+03  0.17300000000E+03 0. -1.
         -6    1    1    2    0  503 -0.80757491684E+02 -0.81124417048E+02 -0.68971362402E+02  0.21860693570E+03  0.17300000000E+03 0. -1.
<mgrwt>
<rscale>  2 0.20744142E+03</rscale>
<asrwt>0</asrwt>
<pdfrwt beam="1">  1       21 0.31892901E-01 0.20744142E+03</pdfrwt>
<pdfrwt beam="2">  1       21 0.34613851E-01 0.20744142E+03</pdfrwt>
<totfact> 0.75567711E+04</totfact>
</mgrwt>
</event>
<event>
 4    1  0.3948468E+000  0.2080753E+03  0.7546771E-02  0.1143099E+00
         21   -1    0    0  503  502  0.00000000000E+00  0.00000000000E+00  0.17604132405E+04  0.17604132405E+04  0.00000000000E+00 0. -1.
         21   -1    0    0  501  503 -0.00000000000E+00 -0.00000000000E+00 -0.26504724732E+03  0.26504724732E+03  0.00000000000E+00 0. -1.
          6    1    1    2  501    0  0.54587505601E+02 -0.10191430934E+03 -0.21691775995E+03  0.30058049969E+03  0.17300000000E+03 0. -1.
         -6    1    1    2    0  502 -0.54587505601E+02  0.10191430934E+03  0.17122837531E+04  0.17248799881E+04  0.17300000000E+03 0. -1.
<mgrwt>
<rscale>  2 0.20807528E+03</rscale>
<asrwt>0</asrwt>
<pdfrwt beam="1">  1       21 0.27083280E+00 0.20807528E+03</pdfrwt>
<pdfrwt beam="2">  1       21 0.40776501E-01 0.20807528E+03</pdfrwt>
<totfact> 0.28506956E+02</totfact>
</mgrwt>
</event>
<event>
 4    1  0.3948468E+000  0.3584811E+03  0.7546771E-02  0.1059187E+00
         21   -1    0    0  501  502  0.00000000000E+00  0.00000000000E+00  0.15314029885E+04  0.15314029885E+04  0.00000000000E+00 0.  1.
         21   -1    0    0  502  503 -0.00000000000E+00 -0.00000000000E+00 -0.97369714607E+02  0.97369714607E+02  0.00000000000E+00 0. -1.
          6    1    1    2  501    0  0.19465785658E+03 -0.24634937340E+03  0.10197394189E+04  0.10809149723E+04  0.17300000000E+03 0.  1.
         -6    1    1    2    0  503 -0.19465785658E+03  0.24634937340E+03  0.41429385496E+03  0.54785773077E+03  0.17300000000E+03 0. -1.
<mgrwt>
<rscale>  2 0.35848109E+03</rscale>
<asrwt>0</asrwt>
<pdfrwt beam="1">  1       21 0.23560044E+00 0.35848109E+03</pdfrwt>
<pdfrwt beam="2">  1       21 0.14979957E-01 0.35848109E+03</pdfrwt>
<totfact> 0.28000924E+03</totfact>
</mgrwt>
</event>
<event>
 4    1  0.3948468E+000  0.1840882E+03  0.7546771E-02  0.1163904E+00
         21   -1    0    0  501  502  0.00000000000E+00  0.00000000000E+00  0.15710079396E+03  0.15710079396E+03  0.00000000000E+00 0.  1.
         21   -1    0    0  502  503 -0.00000000000E+00 -0.00000000000E+00 -0.22179042380E+03  0.22179042380E+03  0.00000000000E+00 0.  1.
          6    1    1    2  501    0  0.61014569635E+02  0.15385243507E+02 -0.98175530707E+00  0.18409086688E+03  0.17300000000E+03 0.  1.
         -6    1    1    2    0  503 -0.61014569635E+02 -0.15385243507E+02 -0.63707874525E+02  0.19480035088E+03  0.17300000000E+03 0.  1.
<mgrwt>
<rscale>  2 0.18408825E+03</rscale>
<asrwt>0</asrwt>
<pdfrwt beam="1">  1       21 0.24169353E-01 0.18408825E+03</pdfrwt>
<pdfrwt beam="2">  1       21 0.34121604E-01 0.18408825E+03</pdfrwt>
<totfact> 0.13407558E+05</totfact>
</mgrwt>
</event>
<event>
 4    1  0.3948468E+000  0.1992657E+03  0.7546771E-02  0.1150360E+00
         21   -1    0    0  503  502  0.00000000000E+00  0.00000000000E+00  0.51246739019E+02  0.51246739019E+02  0.00000000000E+00 0. -1.
         21   -1    0    0  501  503 -0.00000000000E+00 -0.00000000000E+00 -0.97455329178E+03  0.97455329178E+03  0.00000000000E+00 0.  1.
          6    1    1    2  501    0  0.58113315069E+02  0.80004031226E+02 -0.69385171871E+03  0.72189819917E+03  0.17300000000E+03 0.  1.
         -6    1    1    2    0  502 -0.58113315069E+02 -0.80004031226E+02 -0.22945483405E+03  0.30390183163E+03  0.17300000000E+03 0. -1.
<mgrwt>
<rscale>  2 0.19926566E+03</rscale>
<asrwt>0</asrwt>
<pdfrwt beam="1">  1       21 0.78841146E-02 0.19926566E+03</pdfrwt>
<pdfrwt beam="2">  1       21 0.14993126E+00 0.19926566E+03</pdfrwt>
<totfact> 0.36688447E+04</totfact>
</mgrwt>
</event>
<event>
 4    1  0.3948468E+000  0.2723262E+03  0.7546771E-02  0.1099956E+00
         21   -1    0    0  503  502  0.00000000000E+00  0.00000000000E+00  0.33820604474E+03  0.33820604474E+03  0.00000000000E+00 0. -1.
         21   -1    0    0  501  503 -0.00000000000E+00 -0.00000000000E+00 -0.26282206625E+03  0.26282206625E+03  0.00000000000E+00 0.  1.
          6    1    1    2  501    0  0.58240934570E+02  0.20209052283E+03 -0.84626432317E+02  0.28517226184E+03  0.17300000000E+03 0.  1.
         -6    1    1    2    0  502 -0.58240934570E+02 -0.20209052283E+03  0.16001041081E+03  0.31585584915E+03  0.17300000000E+03 0. -1.
<mgrwt>
<rscale>  2 0.27232625E+03</rscale>
<asrwt>0</asrwt>
<pdfrwt beam="1">  1       21 0.52031699E-01 0.27232625E+03</pdfrwt>
<pdfrwt beam="2">  1       21 0.40434164E-01 0.27232625E+03</pdfrwt>
<totfact> 0.19821267E+04</totfact>
</mgrwt>
</event>
<event>
 4    1  0.3948468E+000  0.2443462E+03  0.7546771E-02  0.1116931E+00
         21   -1    0    0  501  502  0.00000000000E+00  0.00000000000E+00  0.76489182189E+02  0.76489182189E+02  0.00000000000E+00 0. -1.
         21   -1    0    0  502  503 -0.00000000000E+00 -0.00000000000E+00 -0.12302650712E+04  0.12302650712E+04  0.00000000000E+00 0. -1.
          6    1    1    2  501    0  0.15655027205E+03  0.72581367069E+02 -0.18186311796E+03  0.30459684207E+03  0.17300000000E+03 0. -1.
         -6    1    1    2    0  503 -0.15655027205E+03 -0.72581367069E+02 -0.97191277104E+03  0.10021574113E+04  0.17300000000E+03 0. -1.
<mgrwt>
<rscale>  2 0.24434615E+03</rscale>
<asrwt>0</asrwt>
<pdfrwt beam="1">  1       21 0.11767567E-01 0.24434615E+03</pdfrwt>
<pdfrwt beam="2">  1       21 0.18927155E+00 0.24434615E+03</pdfrwt>
<totfact> 0.92158853E+03</totfact>
</mgrwt>
</event>
<event>
 4    1  0.3948468E+000  0.2209071E+03  0.7546771E-02  0.1133209E+00
         21   -1    0    0  503  502  0.00000000000E+00  0.00000000000E+00  0.47102352680E+03  0.47102352680E+03  0.00000000000E+00 0. -1.
         21   -1    0    0  501  503 -0.00000000000E+00 -0.00000000000E+00 -0.11972273203E+03  0.11972273203E+03  0.00000000000E+00 0.  1.
          6    1    1    2  501    0 -0.12919988208E+03 -0.46672625312E+02  0.67270812567E+02  0.23092272670E+03  0.17300000000E+03 0.  1.
         -6    1    1    2    0  502  0.12919988208E+03  0.46672625312E+02  0.28402998221E+03  0.35982353213E+03  0.17300000000E+03 0. -1.
<mgrwt>
<rscale>  2 0.22090709E+03</rscale>
<asrwt>0</asrwt>
<pdfrwt beam="1">  1       21 0.72465157E-01 0.22090709E+03</pdfrwt>
<pdfrwt beam="2">  1       21 0.18418882E-01 0.22090709E+03</pdfrwt>
<totfact> 0.45542804E+04</totfact>
</mgrwt>
</event>
<event>
 4    1  0.3948468E+000  0.2128108E+03  0.7546771E-02  0.1139359E+00
         21   -1    0    0  503  502  0.00000000000E+00  0.00000000000E+00  0.51061743734E+03  0.51061743734E+03  0.00000000000E+00 0.  1.
         21   -1    0    0  501  503 -0.00000000000E+00 -0.00000000000E+00 -0.99132545735E+02  0.99132545735E+02  0.00000000000E+00 0.  1.
          6    1    1    2  501    0 -0.12305987480E+03 -0.14686796222E+02  0.10680866691E+03  0.23811032337E+03  0.17300000000E+03 0.  1.
         -6    1    1    2    0  502  0.12305987480E+03  0.14686796222E+02  0.30467622469E+03  0.37163965970E+03  0.17300000000E+03 0.  1.
<mgrwt>
<rscale>  2 0.21281080E+03</rscale>
<asrwt>0</asrwt>
<pdfrwt beam="1">  1       21 0.78556528E-01 0.21281080E+03</pdfrwt>
<pdfrwt beam="2">  1       21 0.15251161E-01 0.21281080E+03</pdfrwt>
<totfact> 0.54012009E+04</totfact>
</mgrwt>
</event>
<event>
 4    1  0.3948468E+000  0.3281924E+03  0.7546771E-02  0.1071939E+00
         21   -1    0    0  503  502  0.00000000000E+00  0.00000000000E+00  0.93570836650E+02  0.93570836650E+02  0.00000000000E+00 0. -1.
         21   -1    0    0  501  503 -0.00000000000E+00 -0.00000000000E+00 -0.13418910303E+04  0.13418910303E+04  0.00000000000E+00 0.  1.
          6    1    1    2  501    0  0.27712374020E+03  0.31364016958E+02 -0.35353297075E+03  0.48238556192E+03  0.17300000000E+03 0. -1.
         -6    1    1    2    0  502 -0.27712374020E+03 -0.31364016958E+02 -0.89478722287E+03  0.95307630500E+03  0.17300000000E+03 0.  1.
<mgrwt>
<rscale>  2 0.32819243E+03</rscale>
<asrwt>0</asrwt>
<pdfrwt beam="1">  1       21 0.14395513E-01 0.32819243E+03</pdfrwt>
<pdfrwt beam="2">  1       21 0.20644477E+00 0.32819243E+03</pdfrwt>
<totfact> 0.46817002E+03</totfact>
</mgrwt>
</event>
<event>
 4    1  0.3948468E+000  0.2203935E+03  0.7546771E-02  0.1133590E+00
         21   -1    0    0  501  502  0.00000000000E+00  0.00000000000E+00  0.30374315853E+03  0.30374315853E+03  0.00000000000E+00 0. -1.
         21   -1    0    0  502  503 -0.00000000000E+00 -0.00000000000E+00 -0.28455234498E+03  0.28455234498E+03  0.00000000000E+00 0. -1.
          6    1    1    2  501    0 -0.56516493354E+02 -0.12429870693E+03  0.20426916932E+03  0.30049821314E+03  0.17300000000E+03 0. -1.
         -6    1    1    2    0  503  0.56516493354E+02  0.12429870693E+03 -0.18507835577E+03  0.28779729036E+03  0.17300000000E+03 0. -1.
<mgrwt>
<rscale>  2 0.22039347E+03</rscale>
<asrwt>0</asrwt>
<pdfrwt beam="1">  1       21 0.46729717E-01 0.22039347E+03</pdfrwt>
<pdfrwt beam="2">  1       21 0.43777284E-01 0.22039347E+03</pdfrwt>
<totfact> 0.21637463E+04</totfact>
</mgrwt>
</event>
<event>
 4    1  0.3948468E+000  0.4831038E+03  0.7546771E-02  0.1018286E+00
         21   -1    0    0  501  502  0.00000000000E+00  0.00000000000E+00  0.45335718387E+03  0.45335718387E+03  0.00000000000E+00 0.  1.
         21   -1    0    0  502  503 -0.00000000000E+00 -0.00000000000E+00 -0.81538253606E+03  0.81538253606E+03  0.00000000000E+00 0. -1.
          6    1    1    2  501    0  0.34350137111E+03 -0.29234749385E+03  0.20414819752E+03  0.52446709683E+03  0.17300000000E+03 0.  1.
         -6    1    1    2    0  503 -0.34350137111E+03  0.29234749385E+03 -0.56617354970E+03  0.74427262310E+03  0.17300000000E+03 0. -1.
<mgrwt>
<rscale>  2 0.48310377E+03</rscale>
<asrwt>0</asrwt>
<pdfrwt beam="1">  1       21 0.69747260E-01 0.48310377E+03</pdfrwt>
<pdfrwt beam="2">  1       21 0.12544347E+00 0.48310377E+03</pdfrwt>
<totfact> 0.73411777E+02</totfact>
</mgrwt>
</event>
<event>
 4    1  0.3948468E+000  0.1787388E+03  0.7546771E-02  0.1169029E+00
         21   -1    0    0  501  502  0.00000000000E+00  0.00000000000E+00  0.23854313873E+02  0.23854313873E+02  0.00000000000E+00 0. -1.
         21   -1    0    0  502  503 -0.00000000000E+00 -0.00000000000E+00 -0.13426680794E+04  0.13426680794E+04  0.00000000000E+00 0. -1.
          6    1    1    2  501    0 -0.85219001576E+01 -0.44112964306E+02 -0.69373558103E+03  0.71639139637E+03  0.17300000000E+03 0. -1.
         -6    1    1    2    0  503  0.85219001576E+01  0.44112964306E+02 -0.62507818448E+03  0.65013099688E+03  0.17300000000E+03 0. -1.
<mgrwt>
<rscale>  2 0.17873885E+03</rscale>
<asrwt>0</asrwt>
<pdfrwt beam="1">  1       21 0.36698929E-02 0.17873885E+03</pdfrwt>
<pdfrwt beam="2">  1       21 0.20656441E+00 0.17873885E+03</pdfrwt>
<totfact> 0.55708275E+04</totfact>
</mgrwt>
</event>
<event>
 4    1  0.3948468E+000  0.1825732E+03  0.7546771E-02  0.1165336E+00
         21   -1    0    0  503  502  0.00000000000E+00  0.00000000000E+00  0.12196542951E+04  0.12196542951E+04  0.00000000000E+00 0. -1.
         21   -1    0    0  501  503 -0.00000000000E+00 -0.00000000000E+00 -0.27922247752E+02  0.27922247752E+02  0.00000000000E+00 0. -1.
          6    1    1    2  501    0  0.11715517679E+02 -0.57155243250E+02  0.50500725653E+03  0.53699655895E+03  0.17300000000E+03 0. -1.
         -6    1    1    2    0  502 -0.11715517679E+02  0.57155243250E+02  0.68672479083E+03  0.71057998391E+03  0.17300000000E+03 0. -1.
<mgrwt>
<rscale>  2 0.18257321E+03</rscale>
<asrwt>0</asrwt>
<pdfrwt beam="1">  1       21 0.18763908E+00 0.18257321E+03</pdfrwt>
<pdfrwt beam="2">  1       21 0.42957314E-02 0.18257321E+03</pdfrwt>
<totfact> 0.56551167E+04</totfact>
</mgrwt>
</event>
<event>
 4    1  0.3948468E+000  0.2718041E+03  0.7546771E-02  0.1100251E+00
         21   -1    0    0  503  502  0.00000000000E+00  0.00000000000E+00  0.41741724445E+03  0.41741724445E+03  0.00000000000E+00 0.  1.
         21   -1    0    0  501  503 -0.00000000000E+00 -0.00000000000E+00 -0.24883723595E+03  0.24883723595E+03  0.00000000000E+00 0. -1.
          6    1    1    2  501    0 -0.16590017952E+03  0.12816239098E+03 -0.94715446911E+02  0.28783412569E+03  0.17300000000E+03 0. -1.
         -6    1    1    2    0  502  0.16590017952E+03 -0.12816239098E+03  0.26329545541E+03  0.37842035472E+03  0.17300000000E+03 0.  1.
<mgrwt>
<rscale>  2 0.27180410E+03</rscale>
<asrwt>0</asrwt>
<pdfrwt beam="1">  1       21 0.64218038E-01 0.27180410E+03</pdfrwt>
<pdfrwt beam="2">  1       21 0.38282652E-01 0.27180410E+03</pdfrwt>
<totfact> 0.14085862E+04</totfact>
</mgrwt>
</event>
<event>
 4    1  0.3948468E+000  0.3671884E+03  0.7546771E-02  0.1055773E+00
         21   -1    0    0  503  502  0.00000000000E+00  0.00000000000E+00  0.49338601313E+03  0.49338601313E+03  0.00000000000E+00 0.  1.
         21   -1    0    0  501  503 -0.00000000000E+00 -0.00000000000E+00 -0.27760658822E+03  0.27760658822E+03  0.00000000000E+00 0. -1.
          6    1    1    2  501    0  0.27718049013E+03  0.16753896704E+03  0.15607411077E+03  0.39898177607E+03  0.17300000000E+03 0.  1.
         -6    1    1    2    0  502 -0.27718049013E+03 -0.16753896704E+03  0.59705314149E+02  0.37201082528E+03  0.17300000000E+03 0. -1.
<mgrwt>
<rscale>  2 0.36718841E+03</rscale>
<asrwt>0</asrwt>
<pdfrwt beam="1">  1       21 0.75905541E-01 0.36718841E+03</pdfrwt>
<pdfrwt beam="2">  1       21 0.42708706E-01 0.36718841E+03</pdfrwt>
<totfact> 0.74439013E+03</totfact>
</mgrwt>
</event>
<event>
 4    1  0.3948468E+000  0.1814604E+03  0.7546771E-02  0.1166397E+00
         21   -1    0    0  503  502  0.00000000000E+00  0.00000000000E+00  0.55285986988E+03  0.55285986988E+03  0.00000000000E+00 0. -1.
         21   -1    0    0  501  503 -0.00000000000E+00 -0.00000000000E+00 -0.12589417520E+03  0.12589417520E+03  0.00000000000E+00 0. -1.
          6    1    1    2  501    0 -0.52005602458E+02 -0.17155323307E+02 -0.32866221190E+02  0.18441278779E+03  0.17300000000E+03 0. -1.
         -6    1    1    2    0  502  0.52005602458E+02  0.17155323307E+02  0.45983191587E+03  0.49434125729E+03  0.17300000000E+03 0. -1.
<mgrwt>
<rscale>  2 0.18146043E+03</rscale>
<asrwt>0</asrwt>
<pdfrwt beam="1">  1       21 0.85055363E-01 0.18146043E+03</pdfrwt>
<pdfrwt beam="2">  1       21 0.19368335E-01 0.18146043E+03</pdfrwt>
<totfact> 0.29504603E+04</totfact>
</mgrwt>
</event>
<event>
 4    1  0.3948468E+000  0.1732116E+03  0.7546771E-02  0.1174539E+00
         21   -1    0    0  501  502  0.00000000000E+00  0.00000000000E+00  0.62545948359E+03  0.62545948359E+03  0.00000000000E+00 0. -1.
         21   -1    0    0  502  503 -0.00000000000E+00 -0.00000000000E+00 -0.10382845232E+03  0.10382845232E+03  0.00000000000E+00 0. -1.
          6    1    1    2  501    0 -0.82428350255E+01 -0.23072270998E+01  0.52827724968E+03  0.55594884671E+03  0.17300000000E+03 0. -1.
         -6    1    1    2    0  503  0.82428350255E+01  0.23072270998E+01 -0.66462184157E+01  0.17333908920E+03  0.17300000000E+03 0. -1.
<mgrwt>
<rscale>  2 0.17321163E+03</rscale>
<asrwt>0</asrwt>
<pdfrwt beam="1">  1       21 0.96224533E-01 0.17321163E+03</pdfrwt>
<pdfrwt beam="2">  1       21 0.15973608E-01 0.17321163E+03</pdfrwt>
<totfact> 0.31785831E+04</totfact>
</mgrwt>
</event>
<event>
 4    1  0.3948468E+000  0.1816073E+03  0.7546771E-02  0.1166256E+00
         21   -1    0    0  501  502  0.00000000000E+00  0.00000000000E+00  0.63317480038E+02  0.63317480038E+02  0.00000000000E+00 0. -1.
         21   -1    0    0  502  503 -0.00000000000E+00 -0.00000000000E+00 -0.56141017401E+03  0.56141017401E+03  0.00000000000E+00 0. -1.
          6    1    1    2  501    0 -0.45351477160E+02 -0.31551019442E+02 -0.33296814310E+03  0.37927431712E+03  0.17300000000E+03 0. -1.
         -6    1    1    2    0  503  0.45351477160E+02  0.31551019442E+02 -0.16512455087E+03  0.24545333693E+03  0.17300000000E+03 0. -1.
<mgrwt>
<rscale>  2 0.18160733E+03</rscale>
<asrwt>0</asrwt>
<pdfrwt beam="1">  1       21 0.97411505E-02 0.18160733E+03</pdfrwt>
<pdfrwt beam="2">  1       21 0.86370798E-01 0.18160733E+03</pdfrwt>
<totfact> 0.98608055E+04</totfact>
</mgrwt>
</event>
<event>
 4    1  0.3948468E+000  0.2342269E+03  0.7546771E-02  0.1123700E+00
         21   -1    0    0  501  502  0.00000000000E+00  0.00000000000E+00  0.14871840567E+03  0.14871840567E+03  0.00000000000E+00 0.  1.
         21   -1    0    0  502  503 -0.00000000000E+00 -0.00000000000E+00 -0.45920946272E+03  0.45920946272E+03  0.00000000000E+00 0.  1.
          6    1    1    2  501    0 -0.12830208021E+03 -0.92042587003E+02 -0.20447792951E+02  0.23511778717E+03  0.17300000000E+03 0.  1.
         -6    1    1    2    0  503  0.12830208021E+03  0.92042587003E+02 -0.29004326410E+03  0.37281008122E+03  0.17300000000E+03 0.  1.
<mgrwt>
<rscale>  2 0.23422694E+03</rscale>
<asrwt>0</asrwt>
<pdfrwt beam="1">  1       21 0.22879755E-01 0.23422694E+03</pdfrwt>
<pdfrwt beam="2">  1       21 0.70647610E-01 0.23422694E+03</pdfrwt>
<totfact> 0.31853940E+04</totfact>
</mgrwt>
</event>
<event>
 4    1  0.3948468E+000  0.2483066E+03  0.7546771E-02  0.1114380E+00
         21   -1    0    0  503  502  0.00000000000E+00  0.00000000000E+00  0.10897065077E+04  0.10897065077E+04  0.00000000000E+00 0.  1.
         21   -1    0    0  501  503 -0.00000000000E+00 -0.00000000000E+00 -0.14820967416E+03  0.14820967416E+03  0.00000000000E+00 0. -1.
          6    1    1    2  501    0  0.17278427554E+03 -0.43275520091E+02 -0.15927407181E+02  0.24881691826E+03  0.17300000000E+03 0. -1.
         -6    1    1    2    0  502 -0.17278427554E+03  0.43275520091E+02  0.95742424070E+03  0.98909926357E+03  0.17300000000E+03 0.  1.
<mgrwt>
<rscale>  2 0.24830662E+03</rscale>
<asrwt>0</asrwt>
<pdfrwt beam="1">  1       21 0.16764715E+00 0.24830662E+03</pdfrwt>
<pdfrwt beam="2">  1       21 0.22801489E-01 0.24830662E+03</pdfrwt>
<totfact> 0.38233661E+03</totfact>
</mgrwt>
</event>
<event>
 4    1  0.3948468E+000  0.2326250E+03  0.7546771E-02  0.1124806E+00
         21   -1    0    0  503  502  0.00000000000E+00  0.00000000000E+00  0.27805803489E+03  0.27805803489E+03  0.00000000000E+00 0.  1.
         21   -1    0    0  501  503 -0.00000000000E+00 -0.00000000000E+00 -0.39414995548E+03  0.39414995548E+03  0.00000000000E+00 0.  1.
          6    1    1    2  501    0  0.88797876171E+02  0.12767276365E+03 -0.29718578574E+03  0.37740401248E+03  0.17300000000E+03 0.  1.
         -6    1    1    2    0  502 -0.88797876171E+02 -0.12767276365E+03  0.18109386514E+03  0.29480397790E+03  0.17300000000E+03 0.  1.
<mgrwt>
<rscale>  2 0.23262501E+03</rscale>
<asrwt>0</asrwt>
<pdfrwt beam="1">  1       21 0.42778159E-01 0.23262501E+03</pdfrwt>
<pdfrwt beam="2">  1       21 0.60638455E-01 0.23262501E+03</pdfrwt>
<totfact> 0.12988007E+04</totfact>
</mgrwt>
</event>
<event>
 4    1  0.3948468E+000  0.2525020E+03  0.7546771E-02  0.1111734E+00
         21   -1    0    0  501  502  0.00000000000E+00  0.00000000000E+00  0.37203580648E+03  0.37203580648E+03  0.00000000000E+00 0. -1.
         21   -1    0    0  502  503 -0.00000000000E+00 -0.00000000000E+00 -0.17176128972E+03  0.17176128972E+03  0.00000000000E+00 0.  1.
          6    1    1    2  501    0  0.17189720268E+03 -0.65418685121E+02  0.11304885003E+03  0.27665374594E+03  0.17300000000E+03 0. -1.
         -6    1    1    2    0  503 -0.17189720268E+03  0.65418685121E+02  0.87225666734E+02  0.26714335026E+03  0.17300000000E+03 0.  1.
<mgrwt>
<rscale>  2 0.25250199E+03</rscale>
<asrwt>0</asrwt>
<pdfrwt beam="1">  1       21 0.57236278E-01 0.25250199E+03</pdfrwt>
<pdfrwt beam="2">  1       21 0.26424814E-01 0.25250199E+03</pdfrwt>
<totfact> 0.37951312E+04</totfact>
</mgrwt>
</event>
<event>
 4    1  0.3948468E+000  0.1731493E+03  0.7546771E-02  0.1174603E+00
         21   -1    0    0  503  502  0.00000000000E+00  0.00000000000E+00  0.13391999913E+03  0.13391999913E+03  0.00000000000E+00 0.  1.
         21   -1    0    0  501  503 -0.00000000000E+00 -0.00000000000E+00 -0.23208916165E+03  0.23208916165E+03  0.00000000000E+00 0.  1.
          6    1    1    2  501    0 -0.50759548728E+01 -0.50906662013E+01 -0.83523247156E+02  0.19224154862E+03  0.17300000000E+03 0.  1.
         -6    1    1    2    0  502  0.50759548728E+01  0.50906662013E+01 -0.14645915362E+02  0.17376761216E+03  0.17300000000E+03 0.  1.
<mgrwt>
<rscale>  2 0.17314930E+03</rscale>
<asrwt>0</asrwt>
<pdfrwt beam="1">  1       21 0.20603077E-01 0.17314930E+03</pdfrwt>
<pdfrwt beam="2">  1       21 0.35706025E-01 0.17314930E+03</pdfrwt>
<totfact> 0.16615204E+05</totfact>
</mgrwt>
</event>
<event>
 4    1  0.3948468E+000  0.2422381E+03  0.7546771E-02  0.1118311E+00
         21   -1    0    0  501  502  0.00000000000E+00  0.00000000000E+00  0.35701223882E+03  0.35701223882E+03  0.00000000000E+00 0. -1.
         21   -1    0    0  502  503 -0.00000000000E+00 -0.00000000000E+00 -0.16444297187E+03  0.16444297187E+03  0.00000000000E+00 0.  1.
          6    1    1    2  501    0  0.22483650001E+02 -0.16806182470E+03  0.10206561793E+03  0.26286247698E+03  0.17300000000E+03 0.  1.
         -6    1    1    2    0  503 -0.22483650001E+02  0.16806182470E+03  0.90503649018E+02  0.25859273371E+03  0.17300000000E+03 0. -1.
<mgrwt>
<rscale>  2 0.24223809E+03</rscale>
<asrwt>0</asrwt>
<pdfrwt beam="1">  1       21 0.54924960E-01 0.24223809E+03</pdfrwt>
<pdfrwt beam="2">  1       21 0.25298919E-01 0.24223809E+03</pdfrwt>
<totfact> 0.45264086E+04</totfact>
</mgrwt>
</event>
<event>
 4    1  0.3948468E+000  0.1776441E+03  0.7546771E-02  0.1170103E+00
         21   -1    0    0  503  502  0.00000000000E+00  0.00000000000E+00  0.40263114246E+03  0.40263114246E+03  0.00000000000E+00 0.  1.
         21   -1    0    0  501  503 -0.00000000000E+00 -0.00000000000E+00 -0.82922569277E+02  0.82922569277E+02  0.00000000000E+00 0.  1.
          6    1    1    2  501    0  0.28031717979E+02 -0.29028559198E+02  0.10301926978E+03  0.20535433867E+03  0.17300000000E+03 0.  1.
         -6    1    1    2    0  502 -0.28031717979E+02  0.29028559198E+02  0.21668930339E+03  0.28019937307E+03  0.17300000000E+03 0.  1.
<mgrwt>
<rscale>  2 0.17764412E+03</rscale>
<asrwt>0</asrwt>
<pdfrwt beam="1">  1       21 0.61943252E-01 0.17764412E+03</pdfrwt>
<pdfrwt beam="2">  1       21 0.12757319E-01 0.17764412E+03</pdfrwt>
<totfact> 0.12789369E+05</totfact>
</mgrwt>
</event>
<event>
 4    1  0.3948468E+000  0.2999246E+03  0.7546771E-02  0.1085278E+00
         21   -1    0    0  503  502  0.00000000000E+00  0.00000000000E+00  0.17856816018E+03  0.17856816018E+03  0.00000000000E+00 0.  1.
         21   -1    0    0  501  503 -0.00000000000E+00 -0.00000000000E+00 -0.53695622730E+03  0.53695622730E+03  0.00000000000E+00 0.  1.
          6    1    1    2  501    0 -0.14949211216E+03  0.19410795348E+03 -0.90233931677E+02  0.31320432888E+03  0.17300000000E+03 0.  1.
         -6    1    1    2    0  502  0.14949211216E+03 -0.19410795348E+03 -0.26815413544E+03  0.40232005861E+03  0.17300000000E+03 0.  1.
<mgrwt>
<rscale>  2 0.29992464E+03</rscale>
<asrwt>0</asrwt>
<pdfrwt beam="1">  1       21 0.27472025E-01 0.29992464E+03</pdfrwt>
<pdfrwt beam="2">  1       21 0.82608650E-01 0.29992464E+03</pdfrwt>
<totfact> 0.15276728E+04</totfact>
</mgrwt>
</event>
<event>
 4    1  0.3948468E+000  0.1934291E+03  0.7546771E-02  0.1155404E+00
         21   -1    0    0  501  502  0.00000000000E+00  0.00000000000E+00  0.12042093695E+04  0.12042093695E+04  0.00000000000E+00 0. -1.
         21   -1    0    0  502  503 -0.00000000000E+00 -0.00000000000E+00 -0.90518897009E+02  0.90518897009E+02  0.00000000000E+00 0. -1.
          6    1    1    2  501    0 -0.15100748400E+02  0.85192588337E+02  0.10814724724E+04  0.10986343879E+04  0.17300000000E+03 0. -1.
         -6    1    1    2    0  503  0.15100748400E+02 -0.85192588337E+02  0.32218000122E+02  0.19609387864E+03  0.17300000000E+03 0. -1.
<mgrwt>
<rscale>  2 0.19342908E+03</rscale>
<asrwt>0</asrwt>
<pdfrwt beam="1">  1       21 0.18526297E+00 0.19342908E+03</pdfrwt>
<pdfrwt beam="2">  1       21 0.13925985E-01 0.19342908E+03</pdfrwt>
<totfact> 0.75228761E+03</totfact>
</mgrwt>
</event>
<event>
 4    1  0.3948468E+000  0.2824478E+03  0.7546771E-02  0.1094359E+00
         21   -1    0    0  503  502  0.00000000000E+00  0.00000000000E+00  0.11101866315E+04  0.11101866315E+04  0.00000000000E+00 0.  1.
         21   -1    0    0  501  503 -0.00000000000E+00 -0.00000000000E+00 -0.12092246660E+03  0.12092246660E+03  0.00000000000E+00 0. -1.
          6    1    1    2  501    0  0.19121188683E+03  0.11526386464E+03  0.10253574333E+03  0.30048348177E+03  0.17300000000E+03 0. -1.
         -6    1    1    2    0  502 -0.19121188683E+03 -0.11526386464E+03  0.88672842160E+03  0.93062561636E+03  0.17300000000E+03 0.  1.
<mgrwt>
<rscale>  2 0.28244777E+03</rscale>
<asrwt>0</asrwt>
<pdfrwt beam="1">  1       21 0.17079794E+00 0.28244777E+03</pdfrwt>
<pdfrwt beam="2">  1       21 0.18603457E-01 0.28244777E+03</pdfrwt>
<totfact> 0.52112433E+03</totfact>
</mgrwt>
</event>
<event>
 4    1  0.3948468E+000  0.2551541E+03  0.7546771E-02  0.1110090E+00
         21   -1    0    0  501  502  0.00000000000E+00  0.00000000000E+00  0.12118076566E+03  0.12118076566E+03  0.00000000000E+00 0. -1.
         21   -1    0    0  502  503 -0.00000000000E+00 -0.00000000000E+00 -0.11848364145E+04  0.11848364145E+04  0.00000000000E+00 0.  1.
          6    1    1    2  501    0  0.12483409303E+03  0.13996806750E+03 -0.49057403514E+02  0.25982732640E+03  0.17300000000E+03 0. -1.
         -6    1    1    2    0  503 -0.12483409303E+03 -0.13996806750E+03 -0.10145982453E+04  0.10461898537E+04  0.17300000000E+03 0.  1.
<mgrwt>
<rscale>  2 0.25515409E+03</rscale>
<asrwt>0</asrwt>
<pdfrwt beam="1">  1       21 0.18643194E-01 0.25515409E+03</pdfrwt>
<pdfrwt beam="2">  1       21 0.18228253E+00 0.25515409E+03</pdfrwt>
<totfact> 0.43929380E+03</totfact>
</mgrwt>
</event>
<event>
 4    1  0.3948468E+000  0.1986360E+03  0.7546771E-02  0.1150895E+00
         21   -1    0    0  503  502  0.00000000000E+00  0.00000000000E+00  0.58370342179E+03  0.58370342179E+03  0.00000000000E+00 0. -1.
         21   -1    0    0  501  503 -0.00000000000E+00 -0.00000000000E+00 -0.76310752787E+02  0.76310752787E+02  0.00000000000E+00 0.  1.
          6    1    1    2  501    0 -0.62625262520E+02  0.74868719990E+02  0.14217755186E+03  0.24427587886E+03  0.17300000000E+03 0.  1.
         -6    1    1    2    0  502  0.62625262520E+02 -0.74868719990E+02  0.36521511714E+03  0.41573829572E+03  0.17300000000E+03 0.  1.
<mgrwt>
<rscale>  2 0.19863597E+03</rscale>
<asrwt>0</asrwt>
<pdfrwt beam="1">  1       21 0.89800524E-01 0.19863597E+03</pdfrwt>
<pdfrwt beam="2">  1       21 0.11740116E-01 0.19863597E+03</pdfrwt>
<totfact> 0.64258022E+04</totfact>
</mgrwt>
</event>
<event>
 4    1  0.3948468E+000  0.2048365E+03  0.7546771E-02  0.1145721E+00
         21   -1    0    0  501  502  0.00000000000E+00  0.00000000000E+00  0.15183367849E+03  0.15183367849E+03  0.00000000000E+00 0. -1.
         21   -1    0    0  502  503 -0.00000000000E+00 -0.00000000000E+00 -0.30199486326E+03  0.30199486326E+03  0.00000000000E+00 0.  1.
          6    1    1    2  501    0  0.15165667407E+02 -0.10862313277E+03 -0.89454669281E+01  0.20503171418E+03  0.17300000000E+03 0.  1.
         -6    1    1    2    0  503 -0.15165667407E+02  0.10862313277E+03 -0.14121571784E+03  0.24879682756E+03  0.17300000000E+03 0.  1.
<mgrwt>
<rscale>  2 0.20483648E+03</rscale>
<asrwt>0</asrwt>
<pdfrwt beam="1">  1       21 0.23359027E-01 0.20483648E+03</pdfrwt>
<pdfrwt beam="2">  1       21 0.46460748E-01 0.20483648E+03</pdfrwt>
<totfact> 0.76068301E+04</totfact>
</mgrwt>
</event>
<event>
 4    1  0.3948468E+000  0.2360798E+03  0.7546771E-02  0.1122432E+00
         21   -1    0    0  501  502  0.00000000000E+00  0.00000000000E+00  0.50073410262E+03  0.50073410262E+03  0.00000000000E+00 0.  1.
         21   -1    0    0  502  503 -0.00000000000E+00 -0.00000000000E+00 -0.11146027293E+03  0.11146027293E+03  0.00000000000E+00 0.  1.
          6    1    1    2  501    0  0.60610455100E+02 -0.14876498923E+03  0.20610274711E+03  0.31338792519E+03  0.17300000000E+03 0.  1.
         -6    1    1    2    0  503 -0.60610455100E+02  0.14876498923E+03  0.18317108257E+03  0.29880645036E+03  0.17300000000E+03 0.  1.
<mgrwt>
<rscale>  2 0.23607975E+03</rscale>
<asrwt>0</asrwt>
<pdfrwt beam="1">  1       21 0.77036014E-01 0.23607975E+03</pdfrwt>
<pdfrwt beam="2">  1       21 0.17147735E-01 0.23607975E+03</pdfrwt>
<totfact> 0.45029448E+04</totfact>
</mgrwt>
</event>
<event>
 4    1  0.3948468E+000  0.1779516E+03  0.7546771E-02  0.1169800E+00
         21   -1    0    0  503  502  0.00000000000E+00  0.00000000000E+00  0.39170946948E+02  0.39170946948E+02  0.00000000000E+00 0.  1.
         21   -1    0    0  501  503 -0.00000000000E+00 -0.00000000000E+00 -0.89188256305E+03  0.89188256305E+03  0.00000000000E+00 0. -1.
          6    1    1    2  501    0  0.91671047974E+01  0.40666016522E+02 -0.28395106282E+03  0.33510441177E+03  0.17300000000E+03 0.  1.
         -6    1    1    2    0  502 -0.91671047974E+01 -0.40666016522E+02 -0.56876055329E+03  0.59594909823E+03  0.17300000000E+03 0. -1.
<mgrwt>
<rscale>  2 0.17795157E+03</rscale>
<asrwt>0</asrwt>
<pdfrwt beam="1">  1       21 0.60262996E-02 0.17795157E+03</pdfrwt>
<pdfrwt beam="2">  1       21 0.13721270E+00 0.17795157E+03</pdfrwt>
<totfact> 0.74294438E+04</totfact>
</mgrwt>
</event>
<event>
 4    1  0.3948468E+000  0.2198524E+03  0.7546771E-02  0.1133993E+00
         21   -1    0    0  503  502  0.00000000000E+00  0.00000000000E+00  0.15374052334E+03  0.15374052334E+03  0.00000000000E+00 0. -1.
         21   -1    0    0  501  503 -0.00000000000E+00 -0.00000000000E+00 -0.34098192881E+03  0.34098192881E+03  0.00000000000E+00 0.  1.
          6    1    1    2  501    0 -0.10583538262E+03  0.84882098791E+02 -0.16269367648E+03  0.27350380486E+03  0.17300000000E+03 0.  1.
         -6    1    1    2    0  502  0.10583538262E+03 -0.84882098791E+02 -0.24547728995E+02  0.22121864729E+03  0.17300000000E+03 0. -1.
<mgrwt>
<rscale>  2 0.21985245E+03</rscale>
<asrwt>0</asrwt>
<pdfrwt beam="1">  1       21 0.23652388E-01 0.21985245E+03</pdfrwt>
<pdfrwt beam="2">  1       21 0.52458758E-01 0.21985245E+03</pdfrwt>
<totfact> 0.57286479E+04</totfact>
</mgrwt>
</event>
<event>
 4    1  0.3948468E+000  0.2077808E+03  0.7546771E-02  0.1143335E+00
         21   -1    0    0  501  502  0.00000000000E+00  0.00000000000E+00  0.10133793409E+03  0.10133793409E+03  0.00000000000E+00 0.  1.
         21   -1    0    0  502  503 -0.00000000000E+00 -0.00000000000E+00 -0.50572598129E+03  0.50572598129E+03  0.00000000000E+00 0.  1.
          6    1    1    2  501    0 -0.11050207998E+03  0.32142898748E+02 -0.81699211954E+02  0.22326584346E+03  0.17300000000E+03 0.  1.
         -6    1    1    2    0  503  0.11050207998E+03 -0.32142898748E+02 -0.32268883524E+03  0.38379807192E+03  0.17300000000E+03 0.  1.
<mgrwt>
<rscale>  2 0.20778084E+03</rscale>
<asrwt>0</asrwt>
<pdfrwt beam="1">  1       21 0.15590451E-01 0.20778084E+03</pdfrwt>
<pdfrwt beam="2">  1       21 0.77803997E-01 0.20778084E+03</pdfrwt>
<totfact> 0.53146428E+04</totfact>
</mgrwt>
</event>
<event>
 4    1  0.3948468E+000  0.1765179E+03  0.7546771E-02  0.1171216E+00
         21   -1    0    0  503  502  0.00000000000E+00  0.00000000000E+00  0.56262811627E+02  0.56262811627E+02  0.00000000000E+00 0.  1.
         21   -1    0    0  501  503 -0.00000000000E+00 -0.00000000000E+00 -0.55976499051E+03  0.55976499051E+03  0.00000000000E+00 0. -1.
          6    1    1    2  501    0 -0.29473046263E+02 -0.18997823976E+02 -0.28353605304E+03  0.33399292080E+03  0.17300000000E+03 0. -1.
         -6    1    1    2    0  502  0.29473046263E+02  0.18997823976E+02 -0.21996612585E+03  0.28203488134E+03  0.17300000000E+03 0.  1.
<mgrwt>
<rscale>  2 0.17651792E+03</rscale>
<asrwt>0</asrwt>
<pdfrwt beam="1">  1       21 0.86558173E-02 0.17651792E+03</pdfrwt>
<pdfrwt beam="2">  1       21 0.86117689E-01 0.17651792E+03</pdfrwt>
<totfact> 0.12236692E+05</totfact>
</mgrwt>
</event>
<event>
 4    1  0.3948468E+000  0.1905467E+03  0.7546771E-02  0.1157969E+00
         21   -1    0    0  501  502  0.00000000000E+00  0.00000000000E+00  0.46867776761E+03  0.46867776761E+03  0.00000000000E+00 0.  1.
         21   -1    0    0  502  503 -0.00000000000E+00 -0.00000000000E+00 -0.86355515311E+02  0.86355515311E+02  0.00000000000E+00 0.  1.
          6    1    1    2  501    0  0.49755279263E+02  0.62477692099E+02  0.10213714037E+03  0.21619446170E+03  0.17300000000E+03 0.  1.
         -6    1    1    2    0  503 -0.49755279263E+02 -0.62477692099E+02  0.28018511193E+03  0.33883882123E+03  0.17300000000E+03 0.  1.
<mgrwt>
<rscale>  2 0.19054671E+03</rscale>
<asrwt>0</asrwt>
<pdfrwt beam="1">  1       21 0.72104271E-01 0.19054671E+03</pdfrwt>
<pdfrwt beam="2">  1       21 0.13285464E-01 0.19054671E+03</pdfrwt>
<totfact> 0.84904975E+04</totfact>
</mgrwt>
</event>
<event>
 4    1  0.3948468E+000  0.2070697E+03  0.7546771E-02  0.1143908E+00
         21   -1    0    0  501  502  0.00000000000E+00  0.00000000000E+00  0.30788695443E+03  0.30788695443E+03  0.00000000000E+00 0. -1.
         21   -1    0    0  502  503 -0.00000000000E+00 -0.00000000000E+00 -0.16920933792E+03  0.16920933792E+03  0.00000000000E+00 0. -1.
          6    1    1    2  501    0  0.92884223882E+02  0.65737240379E+02 -0.31012154620E+02  0.20937912397E+03  0.17300000000E+03 0. -1.
         -6    1    1    2    0  503 -0.92884223882E+02 -0.65737240379E+02  0.16968977113E+03  0.26771716838E+03  0.17300000000E+03 0. -1.
<mgrwt>
<rscale>  2 0.20706971E+03</rscale>
<asrwt>0</asrwt>
<pdfrwt beam="1">  1       21 0.47367224E-01 0.20706971E+03</pdfrwt>
<pdfrwt beam="2">  1       21 0.26032206E-01 0.20706971E+03</pdfrwt>
<totfact> 0.59368166E+04</totfact>
</mgrwt>
</event>
<event>
 4    1  0.3948468E+000  0.2410223E+03  0.7546771E-02  0.1119114E+00
         21   -1    0    0  503  502  0.00000000000E+00  0.00000000000E+00  0.10800052721E+03  0.10800052721E+03  0.00000000000E+00 0. -1.
         21   -1    0    0  501  503 -0.00000000000E+00 -0.00000000000E+00 -0.76255073730E+03  0.76255073730E+03  0.00000000000E+00 0.  1.
          6    1    1    2  501    0 -0.44276587925E+02  0.16187138846E+03 -0.56354006032E+03  0.61291856084E+03  0.17300000000E+03 0.  1.
         -6    1    1    2    0  502  0.44276587925E+02 -0.16187138846E+03 -0.91010149766E+02  0.25763270367E+03  0.17300000000E+03 0.  1.
<mgrwt>
<rscale>  2 0.24102233E+03</rscale>
<asrwt>0</asrwt>
<pdfrwt beam="1">  1       21 0.16615465E-01 0.24102233E+03</pdfrwt>
<pdfrwt beam="2">  1       21 0.11731550E+00 0.24102233E+03</pdfrwt>
<totfact> 0.17647069E+04</totfact>
</mgrwt>
</event>
<event>
 4    1  0.3948468E+000  0.1876698E+03  0.7546771E-02  0.1160580E+00
         21   -1    0    0  503  502  0.00000000000E+00  0.00000000000E+00  0.12224007787E+03  0.12224007787E+03  0.00000000000E+00 0.  1.
         21   -1    0    0  501  503 -0.00000000000E+00 -0.00000000000E+00 -0.34120948207E+03  0.34120948207E+03  0.00000000000E+00 0.  1.
          6    1    1    2  501    0  0.63119825146E+02  0.36150229080E+02 -0.20088792036E+03  0.27491072721E+03  0.17300000000E+03 0.  1.
         -6    1    1    2    0  502 -0.63119825146E+02 -0.36150229080E+02 -0.18081483847E+02  0.18853883273E+03  0.17300000000E+03 0.  1.
<mgrwt>
<rscale>  2 0.18766979E+03</rscale>
<asrwt>0</asrwt>
<pdfrwt beam="1">  1       21 0.18806166E-01 0.18766979E+03</pdfrwt>
<pdfrwt beam="2">  1       21 0.52493767E-01 0.18766979E+03</pdfrwt>
<totfact> 0.89262959E+04</totfact>
</mgrwt>
</event>
<event>
 4    1  0.3948468E+000  0.2227436E+03  0.7546771E-02  0.1131854E+00
         21   -1    0    0  501  502  0.00000000000E+00  0.00000000000E+00  0.53247412635E+02  0.53247412635E+02  0.00000000000E+00 0. -1.
         21   -1    0    0  502  503 -0.00000000000E+00 -0.00000000000E+00 -0.93222635435E+03  0.93222635435E+03  0.00000000000E+00 0. -1.
          6    1    1    2  501    0 -0.13247553931E+03  0.46216074513E+02 -0.42866682561E+03  0.48308378304E+03  0.17300000000E+03 0.  1.
         -6    1    1    2    0  503  0.13247553931E+03 -0.46216074513E+02 -0.45031211611E+03  0.50238998395E+03  0.17300000000E+03 0.  1.
<mgrwt>
<rscale>  2 0.22274356E+03</rscale>
<asrwt>0</asrwt>
<pdfrwt beam="1">  1       21 0.81919102E-02 0.22274356E+03</pdfrwt>
<pdfrwt beam="2">  1       21 0.14341943E+00 0.22274356E+03</pdfrwt>
<totfact> 0.38045947E+04</totfact>
</mgrwt>
</event>
<event>
 4    1  0.3948468E+000  0.2134855E+03  0.7546771E-02  0.1138835E+00
         21   -1    0    0  501  502  0.00000000000E+00  0.00000000000E+00  0.25828232733E+03  0.25828232733E+03  0.00000000000E+00 0. -1.
         21   -1    0    0  502  503 -0.00000000000E+00 -0.00000000000E+00 -0.17646534143E+03  0.17646534143E+03  0.00000000000E+00 0.  1.
          6    1    1    2  501    0 -0.11952169469E+03 -0.36900245501E+02  0.39536590354E+02  0.21711565028E+03  0.17300000000E+03 0.  1.
         -6    1    1    2    0  503  0.11952169469E+03  0.36900245501E+02  0.42280395551E+02  0.21763201848E+03  0.17300000000E+03 0. -1.
<mgrwt>
<rscale>  2 0.21348551E+03</rscale>
<asrwt>0</asrwt>
<pdfrwt beam="1">  1       21 0.39735742E-01 0.21348551E+03</pdfrwt>
<pdfrwt beam="2">  1       21 0.27148514E-01 0.21348551E+03</pdfrwt>
<totfact> 0.78248322E+04</totfact>
</mgrwt>
</event>
<event>
 4    1  0.3948468E+000  0.1819544E+03  0.7546771E-02  0.1165925E+00
         21   -1    0    0  501  502  0.00000000000E+00  0.00000000000E+00  0.65371349274E+02  0.65371349274E+02  0.00000000000E+00 0. -1.
         21   -1    0    0  502  503 -0.00000000000E+00 -0.00000000000E+00 -0.50653694783E+03  0.50653694783E+03  0.00000000000E+00 0.  1.
          6    1    1    2  501    0 -0.27378497487E+02  0.49283052757E+02 -0.21686332826E+03  0.28308497763E+03  0.17300000000E+03 0.  1.
         -6    1    1    2    0  503  0.27378497487E+02 -0.49283052757E+02 -0.22430227029E+03  0.28882331948E+03  0.17300000000E+03 0.  1.
<mgrwt>
<rscale>  2 0.18195439E+03</rscale>
<asrwt>0</asrwt>
<pdfrwt beam="1">  1       21 0.10057131E-01 0.18195439E+03</pdfrwt>
<pdfrwt beam="2">  1       21 0.77928759E-01 0.18195439E+03</pdfrwt>
<totfact> 0.11768257E+05</totfact>
</mgrwt>
</event>
<event>
 4    1  0.3948468E+000  0.2463620E+03  0.7546771E-02  0.1115626E+00
         21   -1    0    0  503  502  0.00000000000E+00  0.00000000000E+00  0.43647731576E+02  0.43647731576E+02  0.00000000000E+00 0. -1.
         21   -1    0    0  501  503 -0.00000000000E+00 -0.00000000000E+00 -0.21335024375E+04  0.21335024375E+04  0.00000000000E+00 0. -1.
          6    1    1    2  501    0 -0.12183555505E+03  0.12617969354E+03 -0.16873091592E+04  0.17051998171E+04  0.17300000000E+03 0. -1.
         -6    1    1    2    0  502  0.12183555505E+03 -0.12617969354E+03 -0.40254554671E+03  0.47195035196E+03  0.17300000000E+03 0. -1.
<mgrwt>
<rscale>  2 0.24636196E+03</rscale>
<asrwt>0</asrwt>
<pdfrwt beam="1">  1       21 0.67150360E-02 0.24636196E+03</pdfrwt>
<pdfrwt beam="2">  1       21 0.32823113E+00 0.24636196E+03</pdfrwt>
<totfact> 0.35881167E+03</totfact>
</mgrwt>
</event>
<event>
 4    1  0.3948468E+000  0.1901416E+03  0.7546771E-02  0.1158334E+00
         21   -1    0    0  503  502  0.00000000000E+00  0.00000000000E+00  0.11159111759E+03  0.11159111759E+03  0.00000000000E+00 0. -1.
         21   -1    0    0  501  503 -0.00000000000E+00 -0.00000000000E+00 -0.43073736499E+03  0.43073736499E+03  0.00000000000E+00 0. -1.
          6    1    1    2  501    0 -0.29018312214E+02  0.73367389925E+02 -0.29456732505E+03  0.35060482789E+03  0.17300000000E+03 0. -1.
         -6    1    1    2    0  502  0.29018312214E+02 -0.73367389925E+02 -0.24578922347E+02  0.19172365470E+03  0.17300000000E+03 0. -1.
<mgrwt>
<rscale>  2 0.19014162E+03</rscale>
<asrwt>0</asrwt>
<pdfrwt beam="1">  1       21 0.17167864E-01 0.19014162E+03</pdfrwt>
<pdfrwt beam="2">  1       21 0.66267286E-01 0.19014162E+03</pdfrwt>
<totfact> 0.64095258E+04</totfact>
</mgrwt>
</event>
<event>
 4    1  0.3948468E+000  0.2178710E+03  0.7546771E-02  0.1135480E+00
         21   -1    0    0  503  502  0.00000000000E+00  0.00000000000E+00  0.11685368781E+04  0.11685368781E+04  0.00000000000E+00 0.  1.
         21   -1    0    0  501  503 -0.00000000000E+00 -0.00000000000E+00 -0.41212119334E+03  0.41212119334E+03  0.00000000000E+00 0.  1.
          6    1    1    2  501    0 -0.90105189090E+02 -0.97055875106E+02 -0.37216077022E+03  0.43124404562E+03  0.17300000000E+03 0.  1.
         -6    1    1    2    0  502  0.90105189090E+02  0.97055875106E+02  0.11285764550E+04  0.11494140258E+04  0.17300000000E+03 0.  1.
<mgrwt>
<rscale>  2 0.21787104E+03</rscale>
<asrwt>0</asrwt>
<pdfrwt beam="1">  1       21 0.17977490E+00 0.21787104E+03</pdfrwt>
<pdfrwt beam="2">  1       21 0.63403261E-01 0.21787104E+03</pdfrwt>
<totfact> 0.40801442E+02</totfact>
</mgrwt>
</event>
<event>
 4    1  0.3948468E+000  0.2334377E+03  0.7546771E-02  0.1124243E+00
         21   -1    0    0  501  502  0.00000000000E+00  0.00000000000E+00  0.12564155329E+03  0.12564155329E+03  0.00000000000E+00 0. -1.
         21   -1    0    0  502  503 -0.00000000000E+00 -0.00000000000E+00 -0.46928278825E+03  0.46928278825E+03  0.00000000000E+00 0.  1.
          6    1    1    2  501    0 -0.15667480807E+03  0.41434932316E+01 -0.89933284115E+02  0.25016226656E+03  0.17300000000E+03 0. -1.
         -6    1    1    2    0  503  0.15667480807E+03 -0.41434932316E+01 -0.25370795085E+03  0.34476207498E+03  0.17300000000E+03 0.  1.
<mgrwt>
<rscale>  2 0.23343771E+03</rscale>
<asrwt>0</asrwt>
<pdfrwt beam="1">  1       21 0.19329470E-01 0.23343771E+03</pdfrwt>
<pdfrwt beam="2">  1       21 0.72197351E-01 0.23343771E+03</pdfrwt>
<totfact> 0.41729028E+04</totfact>
</mgrwt>
</event>
<event>
 4    1  0.3948468E+000  0.1755306E+03  0.7546771E-02  0.1172200E+00
         21   -1    0    0  503  502  0.00000000000E+00  0.00000000000E+00  0.24273092458E+03  0.24273092458E+03  0.00000000000E+00 0. -1.
         21   -1    0    0  501  503 -0.00000000000E+00 -0.00000000000E+00 -0.16146136364E+03  0.16146136364E+03  0.00000000000E+00 0. -1.
          6    1    1    2  501    0  0.24527217031E+02  0.16745744763E+02 -0.52819741492E+02  0.18330556302E+03  0.17300000000E+03 0. -1.
         -6    1    1    2    0  502 -0.24527217031E+02 -0.16745744763E+02  0.13408930243E+03  0.22088672520E+03  0.17300000000E+03 0. -1.
<mgrwt>
<rscale>  2 0.17553064E+03</rscale>
<asrwt>0</asrwt>
<pdfrwt beam="1">  1       21 0.37343219E-01 0.17553064E+03</pdfrwt>
<pdfrwt beam="2">  1       21 0.24840210E-01 0.17553064E+03</pdfrwt>
<totfact> 0.10671883E+05</totfact>
</mgrwt>
</event>
<event>
 4    1  0.3948468E+000  0.2179025E+03  0.7546771E-02  0.1135457E+00
         21   -1    0    0  501  502  0.00000000000E+00  0.00000000000E+00  0.14493824462E+03  0.14493824462E+03  0.00000000000E+00 0. -1.
         21   -1    0    0  502  503 -0.00000000000E+00 -0.00000000000E+00 -0.39233753257E+03  0.39233753257E+03  0.00000000000E+00 0. -1.
          6    1    1    2  501    0  0.18346329848E+02  0.13120945224E+03 -0.14575350958E+02  0.21838944350E+03  0.17300000000E+03 0. -1.
         -6    1    1    2    0  503 -0.18346329848E+02 -0.13120945224E+03 -0.23282393699E+03  0.31888633369E+03  0.17300000000E+03 0. -1.
<mgrwt>
<rscale>  2 0.21790252E+03</rscale>
<asrwt>0</asrwt>
<pdfrwt beam="1">  1       21 0.22298191E-01 0.21790252E+03</pdfrwt>
<pdfrwt beam="2">  1       21 0.60359621E-01 0.21790252E+03</pdfrwt>
<totfact> 0.47556213E+04</totfact>
</mgrwt>
</event>
<event>
 4    1  0.3948468E+000  0.1947758E+03  0.7546771E-02  0.1154223E+00
         21   -1    0    0  501  502  0.00000000000E+00  0.00000000000E+00  0.86031225046E+03  0.86031225046E+03  0.00000000000E+00 0. -1.
         21   -1    0    0  502  503 -0.00000000000E+00 -0.00000000000E+00 -0.46570564198E+02  0.46570564198E+02  0.00000000000E+00 0. -1.
          6    1    1    2  501    0  0.14946592800E+02 -0.88233936714E+02  0.51136264732E+03  0.54720141200E+03  0.17300000000E+03 0. -1.
         -6    1    1    2    0  503 -0.14946592800E+02  0.88233936714E+02  0.30237903894E+03  0.35968140265E+03  0.17300000000E+03 0. -1.
<mgrwt>
<rscale>  2 0.19477584E+03</rscale>
<asrwt>0</asrwt>
<pdfrwt beam="1">  1       21 0.13235572E+00 0.19477584E+03</pdfrwt>
<pdfrwt beam="2">  1       21 0.71647028E-02 0.19477584E+03</pdfrwt>
<totfact> 0.59956524E+04</totfact>
</mgrwt>
</event>
<event>
 4    1  0.3948468E+000  0.2146808E+03  0.7546771E-02  0.1137912E+00
         21   -1    0    0  503  502  0.00000000000E+00  0.00000000000E+00  0.56355188549E+03  0.56355188549E+03  0.00000000000E+00 0.  1.
         21   -1    0    0  501  503 -0.00000000000E+00 -0.00000000000E+00 -0.11899430379E+03  0.11899430379E+03  0.00000000000E+00 0. -1.
          6    1    1    2  501    0  0.37757012349E+02 -0.12138053259E+03  0.31430535910E+02  0.21696936249E+03  0.17300000000E+03 0.  1.
         -6    1    1    2    0  502 -0.37757012349E+02  0.12138053259E+03  0.41312704580E+03  0.46557682679E+03  0.17300000000E+03 0. -1.
<mgrwt>
<rscale>  2 0.21468075E+03</rscale>
<asrwt>0</asrwt>
<pdfrwt beam="1">  1       21 0.86700288E-01 0.21468075E+03</pdfrwt>
<pdfrwt beam="2">  1       21 0.18306816E-01 0.21468075E+03</pdfrwt>
<totfact> 0.30783516E+04</totfact>
</mgrwt>
</event>
<event>
 4    1  0.3948468E+000  0.2481891E+03  0.7546771E-02  0.1114455E+00
         21   -1    0    0  501  502  0.00000000000E+00  0.00000000000E+00  0.26357824681E+03  0.26357824681E+03  0.00000000000E+00 0. -1.
         21   -1    0    0  502  503 -0.00000000000E+00 -0.00000000000E+00 -0.29205044291E+03  0.29205044291E+03  0.00000000000E+00 0.  1.
          6    1    1    2  501    0 -0.15227266982E+03 -0.92097151027E+02  0.10994435711E+03  0.27145094006E+03  0.17300000000E+03 0. -1.
         -6    1    1    2    0  503  0.15227266982E+03  0.92097151027E+02 -0.13841655320E+03  0.28417774966E+03  0.17300000000E+03 0.  1.
<mgrwt>
<rscale>  2 0.24818914E+03</rscale>
<asrwt>0</asrwt>
<pdfrwt beam="1">  1       21 0.40550500E-01 0.24818914E+03</pdfrwt>
<pdfrwt beam="2">  1       21 0.44930837E-01 0.24818914E+03</pdfrwt>
<totfact> 0.27070423E+04</totfact>
</mgrwt>
</event>
<event>
 4    1  0.3948468E+000  0.2669926E+03  0.7546771E-02  0.1103013E+00
         21   -1    0    0  501  502  0.00000000000E+00  0.00000000000E+00  0.56021230495E+02  0.56021230495E+02  0.00000000000E+00 0.  1.
         21   -1    0    0  502  503 -0.00000000000E+00 -0.00000000000E+00 -0.21491482025E+04  0.21491482025E+04  0.00000000000E+00 0.  1.
          6    1    1    2  501    0  0.19920698994E+03  0.40897914811E+02 -0.34235689144E+03  0.43415815711E+03  0.17300000000E+03 0.  1.
         -6    1    1    2    0  503 -0.19920698994E+03 -0.40897914811E+02 -0.17507700806E+04  0.17710112759E+04  0.17300000000E+03 0.  1.
<mgrwt>
<rscale>  2 0.26699263E+03</rscale>
<asrwt>0</asrwt>
<pdfrwt beam="1">  1       21 0.86186513E-02 0.26699263E+03</pdfrwt>
<pdfrwt beam="2">  1       21 0.33063817E+00 0.26699263E+03</pdfrwt>
<totfact> 0.22012444E+03</totfact>
</mgrwt>
</event>
<event>
 4    1  0.3948468E+000  0.1769531E+03  0.7546771E-02  0.1170785E+00
         21   -1    0    0  503  502  0.00000000000E+00  0.00000000000E+00  0.82660030271E+03  0.82660030271E+03  0.00000000000E+00 0.  1.
         21   -1    0    0  501  503 -0.00000000000E+00 -0.00000000000E+00 -0.57062612445E+02  0.57062612445E+02  0.00000000000E+00 0.  1.
          6    1    1    2  501    0 -0.32229708354E+02 -0.18564212658E+02  0.12860123712E+03  0.21874794235E+03  0.17300000000E+03 0.  1.
         -6    1    1    2    0  502  0.32229708354E+02  0.18564212658E+02  0.64093645315E+03  0.66491497281E+03  0.17300000000E+03 0.  1.
<mgrwt>
<rscale>  2 0.17695306E+03</rscale>
<asrwt>0</asrwt>
<pdfrwt beam="1">  1       21 0.12716927E+00 0.17695306E+03</pdfrwt>
<pdfrwt beam="2">  1       21 0.87788640E-02 0.17695306E+03</pdfrwt>
<totfact> 0.47015364E+04</totfact>
</mgrwt>
</event>
<event>
 4    1  0.3948468E+000  0.2076655E+03  0.7546771E-02  0.1143428E+00
         21   -1    0    0  503  502  0.00000000000E+00  0.00000000000E+00  0.49399007470E+03  0.49399007470E+03  0.00000000000E+00 0. -1.
         21   -1    0    0  501  503 -0.00000000000E+00 -0.00000000000E+00 -0.44747239196E+03  0.44747239196E+03  0.00000000000E+00 0.  1.
          6    1    1    2  501    0 -0.11465541611E+03 -0.70783922444E+01 -0.39906495044E+03  0.44986420479E+03  0.17300000000E+03 0.  1.
         -6    1    1    2    0  502  0.11465541611E+03  0.70783922444E+01  0.44558263318E+03  0.49159826187E+03  0.17300000000E+03 0. -1.
<mgrwt>
<rscale>  2 0.20766552E+03</rscale>
<asrwt>0</asrwt>
<pdfrwt beam="1">  1       21 0.75998473E-01 0.20766552E+03</pdfrwt>
<pdfrwt beam="2">  1       21 0.68841906E-01 0.20766552E+03</pdfrwt>
<totfact> 0.29299359E+03</totfact>
</mgrwt>
</event>
<event>
 4    1  0.3948468E+000  0.1768153E+03  0.7546771E-02  0.1170921E+00
         21   -1    0    0  501  502  0.00000000000E+00  0.00000000000E+00  0.69896599062E+03  0.69896599062E+03  0.00000000000E+00 0. -1.
         21   -1    0    0  502  503 -0.00000000000E+00 -0.00000000000E+00 -0.56596090249E+02  0.56596090249E+02  0.00000000000E+00 0. -1.
          6    1    1    2  501    0 -0.35954967182E+02  0.64730009443E+01  0.14819164933E+03  0.23070419228E+03  0.17300000000E+03 0. -1.
         -6    1    1    2    0  503  0.35954967182E+02 -0.64730009443E+01  0.49417825105E+03  0.52485788859E+03  0.17300000000E+03 0. -1.
<mgrwt>
<rscale>  2 0.17681533E+03</rscale>
<asrwt>0</asrwt>
<pdfrwt beam="1">  1       21 0.10753322E+00 0.17681533E+03</pdfrwt>
<pdfrwt beam="2">  1       21 0.87070913E-02 0.17681533E+03</pdfrwt>
<totfact> 0.71937417E+04</totfact>
</mgrwt>
</event>
<event>
 4    1  0.3948468E+000  0.2501470E+03  0.7546771E-02  0.1113212E+00
         21   -1    0    0  503  502  0.00000000000E+00  0.00000000000E+00  0.17449484800E+03  0.17449484800E+03  0.00000000000E+00 0. -1.
         21   -1    0    0  501  503 -0.00000000000E+00 -0.00000000000E+00 -0.64806798050E+03  0.64806798050E+03  0.00000000000E+00 0. -1.
          6    1    1    2  501    0  0.16644253070E+01 -0.18067024018E+03 -0.51165860091E+03  0.56953316837E+03  0.17300000000E+03 0. -1.
         -6    1    1    2    0  502 -0.16644253070E+01  0.18067024018E+03  0.38085468408E+02  0.25302966012E+03  0.17300000000E+03 0. -1.
<mgrwt>
<rscale>  2 0.25014697E+03</rscale>
<asrwt>0</asrwt>
<pdfrwt beam="1">  1       21 0.26845361E-01 0.25014697E+03</pdfrwt>
<pdfrwt beam="2">  1       21 0.99702766E-01 0.25014697E+03</pdfrwt>
<totfact> 0.10535687E+04</totfact>
</mgrwt>
</event>
<event>
 4    1  0.3948468E+000  0.1756869E+03  0.7546771E-02  0.1172044E+00
         21   -1    0    0  501  502  0.00000000000E+00  0.00000000000E+00  0.18136955702E+04  0.18136955702E+04  0.00000000000E+00 0. -1.
         21   -1    0    0  502  503 -0.00000000000E+00 -0.00000000000E+00 -0.45011042460E+02  0.45011042460E+02  0.00000000000E+00 0. -1.
          6    1    1    2  501    0 -0.28541340771E+02  0.11058529057E+02  0.16172419465E+04  0.16267567159E+04  0.17300000000E+03 0. -1.
         -6    1    1    2    0  503  0.28541340771E+02 -0.11058529057E+02  0.15144258125E+03  0.23194989678E+03  0.17300000000E+03 0. -1.
<mgrwt>
<rscale>  2 0.17568694E+03</rscale>
<asrwt>0</asrwt>
<pdfrwt beam="1">  1       21 0.27903003E+00 0.17568694E+03</pdfrwt>
<pdfrwt beam="2">  1       21 0.69247771E-02 0.17568694E+03</pdfrwt>
<totfact> 0.70793127E+03</totfact>
</mgrwt>
</event>
<event>
 4    1  0.3948468E+000  0.1825058E+03  0.7546771E-02  0.1165400E+00
         21   -1    0    0  503  502  0.00000000000E+00  0.00000000000E+00  0.29473870413E+03  0.29473870413E+03  0.00000000000E+00 0. -1.
         21   -1    0    0  501  503 -0.00000000000E+00 -0.00000000000E+00 -0.12456362534E+03  0.12456362534E+03  0.00000000000E+00 0. -1.
          6    1    1    2  501    0 -0.13662742276E+02 -0.56504031167E+02  0.21237133538E+02  0.18373729046E+03  0.17300000000E+03 0. -1.
         -6    1    1    2    0  502  0.13662742276E+02  0.56504031167E+02  0.14893794525E+03  0.23556503900E+03  0.17300000000E+03 0. -1.
<mgrwt>
<rscale>  2 0.18250582E+03</rscale>
<asrwt>0</asrwt>
<pdfrwt beam="1">  1       21 0.45344416E-01 0.18250582E+03</pdfrwt>
<pdfrwt beam="2">  1       21 0.19163635E-01 0.18250582E+03</pdfrwt>
<totfact> 0.11702960E+05</totfact>
</mgrwt>
</event>
<event>
 4    1  0.3948468E+000  0.1773175E+03  0.7546771E-02  0.1170425E+00
         21   -1    0    0  503  502  0.00000000000E+00  0.00000000000E+00  0.94504078408E+02  0.94504078408E+02  0.00000000000E+00 0.  1.
         21   -1    0    0  501  503 -0.00000000000E+00 -0.00000000000E+00 -0.36962372010E+03  0.36962372010E+03  0.00000000000E+00 0.  1.
          6    1    1    2  501    0  0.30981679781E+02 -0.23508002921E+02 -0.21090665981E+03  0.27554148478E+03  0.17300000000E+03 0.  1.
         -6    1    1    2    0  502 -0.30981679781E+02  0.23508002921E+02 -0.64212981885E+02  0.18858631373E+03  0.17300000000E+03 0.  1.
<mgrwt>
<rscale>  2 0.17731749E+03</rscale>
<asrwt>0</asrwt>
<pdfrwt beam="1">  1       21 0.14539089E-01 0.17731749E+03</pdfrwt>
<pdfrwt beam="2">  1       21 0.56865187E-01 0.17731749E+03</pdfrwt>
<totfact> 0.12132494E+05</totfact>
</mgrwt>
</event>
<event>
 4    1  0.3948468E+000  0.2456912E+03  0.7546771E-02  0.1116059E+00
         21   -1    0    0  501  502  0.00000000000E+00  0.00000000000E+00  0.24633250424E+03  0.24633250424E+03  0.00000000000E+00 0.  1.
         21   -1    0    0  502  503 -0.00000000000E+00 -0.00000000000E+00 -0.25956853446E+03  0.25956853446E+03  0.00000000000E+00 0. -1.
          6    1    1    2  501    0 -0.48208192590E+02  0.16766373174E+03  0.53202214417E+02  0.25138542597E+03  0.17300000000E+03 0.  1.
         -6    1    1    2    0  503  0.48208192590E+02 -0.16766373174E+03 -0.66438244636E+02  0.25451561273E+03  0.17300000000E+03 0. -1.
<mgrwt>
<rscale>  2 0.24569118E+03</rscale>
<asrwt>0</asrwt>
<pdfrwt beam="1">  1       21 0.37897309E-01 0.24569118E+03</pdfrwt>
<pdfrwt beam="2">  1       21 0.39933620E-01 0.24569118E+03</pdfrwt>
<totfact> 0.39577101E+04</totfact>
</mgrwt>
</event>
<event>
 4    1  0.3948468E+000  0.2257168E+03  0.7546771E-02  0.1129691E+00
         21   -1    0    0  501  502  0.00000000000E+00  0.00000000000E+00  0.23951336834E+03  0.23951336834E+03  0.00000000000E+00 0.  1.
         21   -1    0    0  502  503 -0.00000000000E+00 -0.00000000000E+00 -0.35011591396E+03  0.35011591396E+03  0.00000000000E+00 0. -1.
          6    1    1    2  501    0  0.14370626611E+03  0.19172468209E+02  0.12938644297E+03  0.26017095549E+03  0.17300000000E+03 0.  1.
         -6    1    1    2    0  503 -0.14370626611E+03 -0.19172468209E+02 -0.23998898860E+03  0.32945832681E+03  0.17300000000E+03 0. -1.
<mgrwt>
<rscale>  2 0.22571680E+03</rscale>
<asrwt>0</asrwt>
<pdfrwt beam="1">  1       21 0.36848211E-01 0.22571680E+03</pdfrwt>
<pdfrwt beam="2">  1       21 0.53863987E-01 0.22571680E+03</pdfrwt>
<totfact> 0.22728685E+04</totfact>
</mgrwt>
</event>
<event>
 4    1  0.3948468E+000  0.2097856E+03  0.7546771E-02  0.1141736E+00
         21   -1    0    0  503  502  0.00000000000E+00  0.00000000000E+00  0.11663303188E+04  0.11663303188E+04  0.00000000000E+00 0.  1.
         21   -1    0    0  501  503 -0.00000000000E+00 -0.00000000000E+00 -0.47176921950E+02  0.47176921950E+02  0.00000000000E+00 0. -1.
          6    1    1    2  501    0  0.11067233374E+03 -0.42809375159E+02  0.28811616759E+03  0.35639996364E+03  0.17300000000E+03 0. -1.
         -6    1    1    2    0  502 -0.11067233374E+03  0.42809375159E+02  0.83103722923E+03  0.85710727708E+03  0.17300000000E+03 0.  1.
<mgrwt>
<rscale>  2 0.20978562E+03</rscale>
<asrwt>0</asrwt>
<pdfrwt beam="1">  1       21 0.17943541E+00 0.20978562E+03</pdfrwt>
<pdfrwt beam="2">  1       21 0.72579889E-02 0.20978562E+03</pdfrwt>
<totfact> 0.25781615E+04</totfact>
</mgrwt>
</event>
<event>
 4    1  0.3948468E+000  0.1916567E+03  0.7546771E-02  0.1156976E+00
         21   -1    0    0  501  502  0.00000000000E+00  0.00000000000E+00  0.55481540810E+02  0.55481540810E+02  0.00000000000E+00 0.  1.
         21   -1    0    0  502  503 -0.00000000000E+00 -0.00000000000E+00 -0.94754051290E+03  0.94754051290E+03  0.00000000000E+00 0.  1.
          6    1    1    2  501    0 -0.76443921245E+02 -0.30977796589E+02 -0.17075418367E+03  0.25668908862E+03  0.17300000000E+03 0.  1.
         -6    1    1    2    0  503  0.76443921245E+02  0.30977796589E+02 -0.72130478842E+03  0.74633296509E+03  0.17300000000E+03 0.  1.
<mgrwt>
<rscale>  2 0.19165672E+03</rscale>
<asrwt>0</asrwt>
<pdfrwt beam="1">  1       21 0.85356217E-02 0.19165672E+03</pdfrwt>
<pdfrwt beam="2">  1       21 0.14577546E+00 0.19165672E+03</pdfrwt>
<totfact> 0.34548454E+04</totfact>
</mgrwt>
</event>
<event>
 4    1  0.3948468E+000  0.1842219E+03  0.7546771E-02  0.1163778E+00
         21   -1    0    0  501  502  0.00000000000E+00  0.00000000000E+00  0.50770429477E+02  0.50770429477E+02  0.00000000000E+00 0.  1.
         21   -1    0    0  502  503 -0.00000000000E+00 -0.00000000000E+00 -0.79830245183E+03  0.79830245183E+03  0.00000000000E+00 0.  1.
          6    1    1    2  501    0  0.57784149846E+02  0.25878656488E+02 -0.54498388443E+03  0.57527832144E+03  0.17300000000E+03 0.  1.
         -6    1    1    2    0  503 -0.57784149846E+02 -0.25878656488E+02 -0.20254813793E+03  0.27379455987E+03  0.17300000000E+03 0.  1.
<mgrwt>
<rscale>  2 0.18422191E+03</rscale>
<asrwt>0</asrwt>
<pdfrwt beam="1">  1       21 0.78108356E-02 0.18422191E+03</pdfrwt>
<pdfrwt beam="2">  1       21 0.12281576E+00 0.18422191E+03</pdfrwt>
<totfact> 0.62623006E+04</totfact>
</mgrwt>
</event>
<event>
 4    1  0.3948468E+000  0.1892138E+03  0.7546771E-02  0.1159172E+00
         21   -1    0    0  503  502  0.00000000000E+00  0.00000000000E+00  0.20951136005E+04  0.20951136005E+04  0.00000000000E+00 0. -1.
         21   -1    0    0  501  503 -0.00000000000E+00 -0.00000000000E+00 -0.17298720578E+02  0.17298720578E+02  0.00000000000E+00 0. -1.
          6    1    1    2  501    0 -0.18181320925E+02 -0.74446720086E+02  0.11554039689E+04  0.11707946899E+04  0.17300000000E+03 0. -1.
         -6    1    1    2    0  502  0.18181320925E+02  0.74446720086E+02  0.92241091106E+03  0.94161763121E+03  0.17300000000E+03 0. -1.
<mgrwt>
<rscale>  2 0.18921383E+03</rscale>
<asrwt>0</asrwt>
<pdfrwt beam="1">  1       21 0.32232497E+00 0.18921383E+03</pdfrwt>
<pdfrwt beam="2">  1       21 0.26613433E-02 0.18921383E+03</pdfrwt>
<totfact> 0.19636818E+04</totfact>
</mgrwt>
</event>
<event>
 4    1  0.3948468E+000  0.2992719E+03  0.7546771E-02  0.1085605E+00
         21   -1    0    0  501  502  0.00000000000E+00  0.00000000000E+00  0.14397134698E+03  0.14397134698E+03  0.00000000000E+00 0. -1.
         21   -1    0    0  502  503 -0.00000000000E+00 -0.00000000000E+00 -0.72052141960E+03  0.72052141960E+03  0.00000000000E+00 0.  1.
          6    1    1    2  501    0  0.23042055077E+03 -0.80876639124E+02 -0.12851551946E+03  0.32569909382E+03  0.17300000000E+03 0. -1.
         -6    1    1    2    0  503 -0.23042055077E+03  0.80876639124E+02 -0.44803455316E+03  0.53879367276E+03  0.17300000000E+03 0.  1.
<mgrwt>
<rscale>  2 0.29927188E+03</rscale>
<asrwt>0</asrwt>
<pdfrwt beam="1">  1       21 0.22149438E-01 0.29927188E+03</pdfrwt>
<pdfrwt beam="2">  1       21 0.11084945E+00 0.29927188E+03</pdfrwt>
<totfact> 0.11496517E+04</totfact>
</mgrwt>
</event>
<event>
 4    1  0.3948468E+000  0.1853212E+03  0.7546771E-02  0.1162750E+00
         21   -1    0    0  501  502  0.00000000000E+00  0.00000000000E+00  0.45886844815E+03  0.45886844815E+03  0.00000000000E+00 0.  1.
         21   -1    0    0  502  503 -0.00000000000E+00 -0.00000000000E+00 -0.10939488901E+03  0.10939488901E+03  0.00000000000E+00 0.  1.
          6    1    1    2  501    0 -0.66419626684E+02 -0.18395254042E+01  0.33441484162E+03  0.38233131831E+03  0.17300000000E+03 0.  1.
         -6    1    1    2    0  503  0.66419626684E+02  0.18395254042E+01  0.15058717518E+02  0.18593201886E+03  0.17300000000E+03 0.  1.
<mgrwt>
<rscale>  2 0.18532121E+03</rscale>
<asrwt>0</asrwt>
<pdfrwt beam="1">  1       21 0.70595145E-01 0.18532121E+03</pdfrwt>
<pdfrwt beam="2">  1       21 0.16829983E-01 0.18532121E+03</pdfrwt>
<totfact> 0.57987672E+04</totfact>
</mgrwt>
</event>
<event>
 4    1  0.3948468E+000  0.1899090E+03  0.7546771E-02  0.1158543E+00
         21   -1    0    0  503  502  0.00000000000E+00  0.00000000000E+00  0.85130807254E+03  0.85130807254E+03  0.00000000000E+00 0.  1.
         21   -1    0    0  501  503 -0.00000000000E+00 -0.00000000000E+00 -0.47466901938E+02  0.47466901938E+02  0.00000000000E+00 0. -1.
          6    1    1    2  501    0 -0.19898542385E+02 -0.75766050572E+02  0.25458671796E+03  0.31761587393E+03  0.17300000000E+03 0. -1.
         -6    1    1    2    0  502  0.19898542385E+02  0.75766050572E+02  0.54925445263E+03  0.58115910054E+03  0.17300000000E+03 0.  1.
<mgrwt>
<rscale>  2 0.18990905E+03</rscale>
<asrwt>0</asrwt>
<pdfrwt beam="1">  1       21 0.13097046E+00 0.18990905E+03</pdfrwt>
<pdfrwt beam="2">  1       21 0.73026009E-02 0.18990905E+03</pdfrwt>
<totfact> 0.59724343E+04</totfact>
</mgrwt>
</event>
<event>
 4    1  0.3948468E+000  0.1930112E+03  0.7546771E-02  0.1155773E+00
         21   -1    0    0  501  502  0.00000000000E+00  0.00000000000E+00  0.11950820696E+04  0.11950820696E+04  0.00000000000E+00 0.  1.
         21   -1    0    0  502  503 -0.00000000000E+00 -0.00000000000E+00 -0.42074645661E+02  0.42074645661E+02  0.00000000000E+00 0.  1.
          6    1    1    2  501    0 -0.70375493434E+02  0.48699204226E+02  0.89138488766E+03  0.91204185239E+03  0.17300000000E+03 0.  1.
         -6    1    1    2    0  503  0.70375493434E+02 -0.48699204226E+02  0.26162253628E+03  0.32511486287E+03  0.17300000000E+03 0.  1.
<mgrwt>
<rscale>  2 0.19301120E+03</rscale>
<asrwt>0</asrwt>
<pdfrwt beam="1">  1       21 0.18385875E+00 0.19301120E+03</pdfrwt>
<pdfrwt beam="2">  1       21 0.64730233E-02 0.19301120E+03</pdfrwt>
<totfact> 0.29656273E+04</totfact>
</mgrwt>
</event>
<event>
 4    1  0.3948468E+000  0.1730011E+03  0.7546771E-02  0.1174754E+00
         21   -1    0    0  503  502  0.00000000000E+00  0.00000000000E+00  0.14741229735E+03  0.14741229735E+03  0.00000000000E+00 0. -1.
         21   -1    0    0  501  503 -0.00000000000E+00 -0.00000000000E+00 -0.34920591046E+03  0.34920591046E+03  0.00000000000E+00 0. -1.
          6    1    1    2  501    0  0.48234548934E+00  0.40089827949E+00 -0.26154912071E+03  0.31358784403E+03  0.17300000000E+03 0. -1.
         -6    1    1    2    0  502 -0.48234548934E+00 -0.40089827949E+00  0.59755507599E+02  0.18303036378E+03  0.17300000000E+03 0. -1.
<mgrwt>
<rscale>  2 0.17300114E+03</rscale>
<asrwt>0</asrwt>
<pdfrwt beam="1">  1       21 0.22678815E-01 0.17300114E+03</pdfrwt>
<pdfrwt beam="2">  1       21 0.53723985E-01 0.17300114E+03</pdfrwt>
<totfact> 0.60278108E+04</totfact>
</mgrwt>
</event>
<event>
 4    1  0.3948468E+000  0.1860918E+03  0.7546771E-02  0.1162034E+00
         21   -1    0    0  503  502  0.00000000000E+00  0.00000000000E+00  0.14481844170E+03  0.14481844170E+03  0.00000000000E+00 0. -1.
         21   -1    0    0  501  503 -0.00000000000E+00 -0.00000000000E+00 -0.25124502022E+03  0.25124502022E+03  0.00000000000E+00 0. -1.
          6    1    1    2  501    0  0.24255371824E+02 -0.64131487507E+02 -0.96702417120E+02  0.20971773466E+03  0.17300000000E+03 0. -1.
         -6    1    1    2    0  502 -0.24255371824E+02  0.64131487507E+02 -0.97241613989E+01  0.18634572726E+03  0.17300000000E+03 0. -1.
<mgrwt>
<rscale>  2 0.18609183E+03</rscale>
<asrwt>0</asrwt>
<pdfrwt beam="1">  1       21 0.22279760E-01 0.18609183E+03</pdfrwt>
<pdfrwt beam="2">  1       21 0.38653080E-01 0.18609183E+03</pdfrwt>
<totfact> 0.12192632E+05</totfact>
</mgrwt>
</event>
<event>
 4    1  0.3948468E+000  0.1798325E+03  0.7546771E-02  0.1167965E+00
         21   -1    0    0  503  502  0.00000000000E+00  0.00000000000E+00  0.48676079165E+02  0.48676079165E+02  0.00000000000E+00 0. -1.
         21   -1    0    0  501  503 -0.00000000000E+00 -0.00000000000E+00 -0.11982301631E+04  0.11982301631E+04  0.00000000000E+00 0. -1.
          6    1    1    2  501    0 -0.22026092159E+02 -0.43881260310E+02 -0.99091838097E+03  0.10071042406E+04  0.17300000000E+03 0. -1.
         -6    1    1    2    0  502  0.22026092159E+02  0.43881260310E+02 -0.15863570301E+03  0.23980200169E+03  0.17300000000E+03 0. -1.
<mgrwt>
<rscale>  2 0.17983246E+03</rscale>
<asrwt>0</asrwt>
<pdfrwt beam="1">  1       21 0.74886276E-02 0.17983246E+03</pdfrwt>
<pdfrwt beam="2">  1       21 0.18434310E+00 0.17983246E+03</pdfrwt>
<totfact> 0.23103823E+04</totfact>
</mgrwt>
</event>
<event>
 4    1  0.3948468E+000  0.2015401E+03  0.7546771E-02  0.1148446E+00
         21   -1    0    0  503  502  0.00000000000E+00  0.00000000000E+00  0.11090587779E+03  0.11090587779E+03  0.00000000000E+00 0. -1.
         21   -1    0    0  501  503 -0.00000000000E+00 -0.00000000000E+00 -0.40669059728E+03  0.40669059728E+03  0.00000000000E+00 0.  1.
          6    1    1    2  501    0 -0.21852037913E+01 -0.10336641957E+03 -0.66275305209E+02  0.21215750727E+03  0.17300000000E+03 0. -1.
         -6    1    1    2    0  502  0.21852037913E+01  0.10336641957E+03 -0.22950941428E+03  0.30543896780E+03  0.17300000000E+03 0. -1.
<mgrwt>
<rscale>  2 0.20154005E+03</rscale>
<asrwt>0</asrwt>
<pdfrwt beam="1">  1       21 0.17062443E-01 0.20154005E+03</pdfrwt>
<pdfrwt beam="2">  1       21 0.62567784E-01 0.20154005E+03</pdfrwt>
<totfact> 0.73070539E+04</totfact>
</mgrwt>
</event>
<event>
 4    1  0.3948468E+000  0.1938309E+03  0.7546771E-02  0.1155051E+00
         21   -1    0    0  503  502  0.00000000000E+00  0.00000000000E+00  0.25619500056E+02  0.25619500056E+02  0.00000000000E+00 0. -1.
         21   -1    0    0  501  503 -0.00000000000E+00 -0.00000000000E+00 -0.16559646614E+04  0.16559646614E+04  0.00000000000E+00 0. -1.
          6    1    1    2  501    0 -0.86574563252E+02 -0.12093496356E+02 -0.53075689459E+03  0.56504273184E+03  0.17300000000E+03 0. -1.
         -6    1    1    2    0  502  0.86574563252E+02  0.12093496356E+02 -0.10995882668E+04  0.11165414296E+04  0.17300000000E+03 0. -1.
<mgrwt>
<rscale>  2 0.19383087E+03</rscale>
<asrwt>0</asrwt>
<pdfrwt beam="1">  1       21 0.39414608E-02 0.19383087E+03</pdfrwt>
<pdfrwt beam="2">  1       21 0.25476384E+00 0.19383087E+03</pdfrwt>
<totfact> 0.25016909E+04</totfact>
</mgrwt>
</event>
<event>
 4    1  0.3948468E+000  0.2186690E+03  0.7546771E-02  0.1134879E+00
         21   -1    0    0  501  502  0.00000000000E+00  0.00000000000E+00  0.62834931194E+02  0.62834931194E+02  0.00000000000E+00 0.  1.
         21   -1    0    0  502  503 -0.00000000000E+00 -0.00000000000E+00 -0.15003953823E+04  0.15003953823E+04  0.00000000000E+00 0.  1.
          6    1    1    2  501    0 -0.12553647652E+03 -0.46127345376E+02 -0.17008106869E+03  0.27702654901E+03  0.17300000000E+03 0.  1.
         -6    1    1    2    0  503  0.12553647652E+03  0.46127345376E+02 -0.12674793825E+04  0.12862037645E+04  0.17300000000E+03 0.  1.
<mgrwt>
<rscale>  2 0.21866902E+03</rscale>
<asrwt>0</asrwt>
<pdfrwt beam="1">  1       21 0.96669130E-02 0.21866902E+03</pdfrwt>
<pdfrwt beam="2">  1       21 0.23083005E+00 0.21866902E+03</pdfrwt>
<totfact> 0.72735202E+03</totfact>
</mgrwt>
</event>
<event>
 4    1  0.3948468E+000  0.2856579E+03  0.7546771E-02  0.1092638E+00
         21   -1    0    0  501  502  0.00000000000E+00  0.00000000000E+00  0.17819625599E+03  0.17819625599E+03  0.00000000000E+00 0.  1.
         21   -1    0    0  502  503 -0.00000000000E+00 -0.00000000000E+00 -0.46203105336E+03  0.46203105336E+03  0.00000000000E+00 0. -1.
          6    1    1    2  501    0 -0.36945592823E+02 -0.22429095499E+03 -0.17209702880E+03  0.33349332323E+03  0.17300000000E+03 0. -1.
         -6    1    1    2    0  503  0.36945592823E+02  0.22429095499E+03 -0.11173776857E+03  0.30673398612E+03  0.17300000000E+03 0.  1.
<mgrwt>
<rscale>  2 0.28565785E+03</rscale>
<asrwt>0</asrwt>
<pdfrwt beam="1">  1       21 0.27414808E-01 0.28565785E+03</pdfrwt>
<pdfrwt beam="2">  1       21 0.71081702E-01 0.28565785E+03</pdfrwt>
<totfact> 0.21693941E+04</totfact>
</mgrwt>
</event>
<event>
 4    1  0.3948468E+000  0.1821605E+03  0.7546771E-02  0.1165728E+00
         21   -1    0    0  503  502  0.00000000000E+00  0.00000000000E+00  0.26499780747E+03  0.26499780747E+03  0.00000000000E+00 0.  1.
         21   -1    0    0  501  503 -0.00000000000E+00 -0.00000000000E+00 -0.18290554867E+03  0.18290554867E+03  0.00000000000E+00 0.  1.
          6    1    1    2  501    0 -0.45625094128E+02 -0.34231708431E+02 -0.84725428330E+02  0.20090011768E+03  0.17300000000E+03 0.  1.
         -6    1    1    2    0  502  0.45625094128E+02  0.34231708431E+02  0.16681768713E+03  0.24700323847E+03  0.17300000000E+03 0.  1.
<mgrwt>
<rscale>  2 0.18216053E+03</rscale>
<asrwt>0</asrwt>
<pdfrwt beam="1">  1       21 0.40768893E-01 0.18216053E+03</pdfrwt>
<pdfrwt beam="2">  1       21 0.28139315E-01 0.18216053E+03</pdfrwt>
<totfact> 0.70250183E+04</totfact>
</mgrwt>
</event>
<event>
 4    1  0.3948468E+000  0.2547500E+03  0.7546771E-02  0.1110339E+00
         21   -1    0    0  503  502  0.00000000000E+00  0.00000000000E+00  0.17644549013E+03  0.17644549013E+03  0.00000000000E+00 0. -1.
         21   -1    0    0  501  503 -0.00000000000E+00 -0.00000000000E+00 -0.12281482735E+04  0.12281482735E+04  0.00000000000E+00 0. -1.
          6    1    1    2  501    0  0.10824729073E+03 -0.15248312851E+03 -0.11136535221E+04  0.11424192521E+04  0.17300000000E+03 0. -1.
         -6    1    1    2    0  502 -0.10824729073E+03  0.15248312851E+03  0.61950738727E+02  0.26217451146E+03  0.17300000000E+03 0. -1.
<mgrwt>
<rscale>  2 0.25475004E+03</rscale>
<asrwt>0</asrwt>
<pdfrwt beam="1">  1       21 0.27145461E-01 0.25475004E+03</pdfrwt>
<pdfrwt beam="2">  1       21 0.18894588E+00 0.25475004E+03</pdfrwt>
<totfact> 0.19383654E+03</totfact>
</mgrwt>
</event>
<event>
 4    1  0.3948468E+000  0.1733698E+03  0.7546771E-02  0.1174379E+00
         21   -1    0    0  501  502  0.00000000000E+00  0.00000000000E+00  0.22470571802E+02  0.22470571802E+02  0.00000000000E+00 0.  1.
         21   -1    0    0  502  503 -0.00000000000E+00 -0.00000000000E+00 -0.15232176874E+04  0.15232176874E+04  0.00000000000E+00 0.  1.
          6    1    1    2  501    0 -0.11252312990E+02  0.12160569132E+01 -0.48060157956E+03  0.51091581657E+03  0.17300000000E+03 0.  1.
         -6    1    1    2    0  503  0.11252312990E+02 -0.12160569132E+01 -0.10201455361E+04  0.10347724427E+04  0.17300000000E+03 0.  1.
<mgrwt>
<rscale>  2 0.17336982E+03</rscale>
<asrwt>0</asrwt>
<pdfrwt beam="1">  1       21 0.34570106E-02 0.17336982E+03</pdfrwt>
<pdfrwt beam="2">  1       21 0.23434121E+00 0.17336982E+03</pdfrwt>
<totfact> 0.41797478E+04</totfact>
</mgrwt>
</event>
<event>
 4    1  0.3948468E+000  0.2155316E+03  0.7546771E-02  0.1137259E+00
         21   -1    0    0  503  502  0.00000000000E+00  0.00000000000E+00  0.20741090784E+03  0.20741090784E+03  0.00000000000E+00 0. -1.
         21   -1    0    0  501  503 -0.00000000000E+00 -0.00000000000E+00 -0.26571468387E+03  0.26571468387E+03  0.00000000000E+00 0. -1.
          6    1    1    2  501    0 -0.10255650191E+03  0.77505041939E+02 -0.12291631132E+03  0.24811748668E+03  0.17300000000E+03 0. -1.
         -6    1    1    2    0  502  0.10255650191E+03 -0.77505041939E+02  0.64612535288E+02  0.22500810502E+03  0.17300000000E+03 0. -1.
<mgrwt>
<rscale>  2 0.21553159E+03</rscale>
<asrwt>0</asrwt>
<pdfrwt beam="1">  1       21 0.31909371E-01 0.21553159E+03</pdfrwt>
<pdfrwt beam="2">  1       21 0.40879182E-01 0.21553159E+03</pdfrwt>
<totfact> 0.53861170E+04</totfact>
</mgrwt>
</event>
<event>
 4    1  0.3948468E+000  0.2109290E+03  0.7546771E-02  0.1140832E+00
         21   -1    0    0  503  502  0.00000000000E+00  0.00000000000E+00  0.37083885597E+03  0.37083885597E+03  0.00000000000E+00 0.  1.
         21   -1    0    0  501  503 -0.00000000000E+00 -0.00000000000E+00 -0.20593080724E+03  0.20593080724E+03  0.00000000000E+00 0. -1.
          6    1    1    2  501    0  0.92147012735E+02  0.77916362845E+02 -0.10386269050E+03  0.23511378104E+03  0.17300000000E+03 0. -1.
         -6    1    1    2    0  502 -0.92147012735E+02 -0.77916362845E+02  0.26877073923E+03  0.34165588217E+03  0.17300000000E+03 0.  1.
<mgrwt>
<rscale>  2 0.21092897E+03</rscale>
<asrwt>0</asrwt>
<pdfrwt beam="1">  1       21 0.57052132E-01 0.21092897E+03</pdfrwt>
<pdfrwt beam="2">  1       21 0.31681663E-01 0.21092897E+03</pdfrwt>
<totfact> 0.27362837E+04</totfact>
</mgrwt>
</event>
<event>
 4    1  0.3948468E+000  0.1777952E+03  0.7546771E-02  0.1169954E+00
         21   -1    0    0  501  502  0.00000000000E+00  0.00000000000E+00  0.10407641082E+03  0.10407641082E+03  0.00000000000E+00 0.  1.
         21   -1    0    0  502  503 -0.00000000000E+00 -0.00000000000E+00 -0.40831825827E+03  0.40831825827E+03  0.00000000000E+00 0.  1.
          6    1    1    2  501    0 -0.40675563123E+02  0.52576129230E+01 -0.28178401154E+03  0.33318669404E+03  0.17300000000E+03 0. -1.
         -6    1    1    2    0  503  0.40675563123E+02 -0.52576129230E+01 -0.22457835909E+02  0.17920797505E+03  0.17300000000E+03 0. -1.
<mgrwt>
<rscale>  2 0.17779523E+03</rscale>
<asrwt>0</asrwt>
<pdfrwt beam="1">  1       21 0.16011755E-01 0.17779523E+03</pdfrwt>
<pdfrwt beam="2">  1       21 0.62818194E-01 0.17779523E+03</pdfrwt>
<totfact> 0.82230543E+04</totfact>
</mgrwt>
</event>
<event>
 4    1  0.3948468E+000  0.1831261E+03  0.7546771E-02  0.1164811E+00
         21   -1    0    0  501  502  0.00000000000E+00  0.00000000000E+00  0.50593824044E+03  0.50593824044E+03  0.00000000000E+00 0.  1.
         21   -1    0    0  502  503 -0.00000000000E+00 -0.00000000000E+00 -0.16996445323E+03  0.16996445323E+03  0.00000000000E+00 0.  1.
          6    1    1    2  501    0 -0.13875173253E+02  0.58426456938E+02  0.43193915778E+03  0.46915520601E+03  0.17300000000E+03 0.  1.
         -6    1    1    2    0  503  0.13875173253E+02 -0.58426456938E+02 -0.95965370578E+02  0.20674748766E+03  0.17300000000E+03 0.  1.
<mgrwt>
<rscale>  2 0.18312611E+03</rscale>
<asrwt>0</asrwt>
<pdfrwt beam="1">  1       21 0.77836652E-01 0.18312611E+03</pdfrwt>
<pdfrwt beam="2">  1       21 0.26148378E-01 0.18312611E+03</pdfrwt>
<totfact> 0.20451402E+04</totfact>
</mgrwt>
</event>
<event>
 4    1  0.3948468E+000  0.1750198E+03  0.7546771E-02  0.1172712E+00
         21   -1    0    0  503  502  0.00000000000E+00  0.00000000000E+00  0.35646198737E+03  0.35646198737E+03  0.00000000000E+00 0.  1.
         21   -1    0    0  501  503 -0.00000000000E+00 -0.00000000000E+00 -0.91158794257E+02  0.91158794257E+02  0.00000000000E+00 0.  1.
          6    1    1    2  501    0 -0.16198939088E+02  0.20988766153E+02  0.79066120779E+02  0.19205047614E+03  0.17300000000E+03 0.  1.
         -6    1    1    2    0  502  0.16198939088E+02 -0.20988766153E+02  0.18623707233E+03  0.25557030548E+03  0.17300000000E+03 0.  1.
<mgrwt>
<rscale>  2 0.17501981E+03</rscale>
<asrwt>0</asrwt>
<pdfrwt beam="1">  1       21 0.54840305E-01 0.17501981E+03</pdfrwt>
<pdfrwt beam="2">  1       21 0.14024430E-01 0.17501981E+03</pdfrwt>
<totfact> 0.13994331E+05</totfact>
</mgrwt>
</event>
<event>
 4    1  0.3948468E+000  0.2078861E+03  0.7546771E-02  0.1143251E+00
         21   -1    0    0  501  502  0.00000000000E+00  0.00000000000E+00  0.73460689966E+03  0.73460689966E+03  0.00000000000E+00 0.  1.
         21   -1    0    0  502  503 -0.00000000000E+00 -0.00000000000E+00 -0.59162147284E+02  0.59162147284E+02  0.00000000000E+00 0. -1.
          6    1    1    2  501    0  0.10974100084E+03 -0.35278172146E+02  0.36747758540E+03  0.42220423076E+03  0.17300000000E+03 0.  1.
         -6    1    1    2    0  503 -0.10974100084E+03  0.35278172146E+02  0.30796716698E+03  0.37156481619E+03  0.17300000000E+03 0. -1.
<mgrwt>
<rscale>  2 0.20788611E+03</rscale>
<asrwt>0</asrwt>
<pdfrwt beam="1">  1       21 0.11301644E+00 0.20788611E+03</pdfrwt>
<pdfrwt beam="2">  1       21 0.91018694E-02 0.20788611E+03</pdfrwt>
<totfact> 0.58128524E+04</totfact>
</mgrwt>
</event>
<event>
 4    1  0.3948468E+000  0.3375352E+03  0.7546771E-02  0.1067851E+00
         21   -1    0    0  503  502  0.00000000000E+00  0.00000000000E+00  0.15826822798E+03  0.15826822798E+03  0.00000000000E+00 0. -1.
         21   -1    0    0  501  503 -0.00000000000E+00 -0.00000000000E+00 -0.82153971266E+03  0.82153971266E+03  0.00000000000E+00 0.  1.
          6    1    1    2  501    0  0.27110325468E+03  0.10248913716E+03 -0.15927954507E+03  0.37322911383E+03  0.17300000000E+03 0. -1.
         -6    1    1    2    0  502 -0.27110325468E+03 -0.10248913716E+03 -0.50399193962E+03  0.60657882681E+03  0.17300000000E+03 0.  1.
<mgrwt>
<rscale>  2 0.33753518E+03</rscale>
<asrwt>0</asrwt>
<pdfrwt beam="1">  1       21 0.24348957E-01 0.33753518E+03</pdfrwt>
<pdfrwt beam="2">  1       21 0.12639073E+00 0.33753518E+03</pdfrwt>
<totfact> 0.67848796E+03</totfact>
</mgrwt>
</event>
<event>
 4    1  0.3948468E+000  0.2028316E+03  0.7546771E-02  0.1147372E+00
         21   -1    0    0  501  502  0.00000000000E+00  0.00000000000E+00  0.36572412521E+03  0.36572412521E+03  0.00000000000E+00 0.  1.
         21   -1    0    0  502  503 -0.00000000000E+00 -0.00000000000E+00 -0.11784992317E+03  0.11784992317E+03  0.00000000000E+00 0.  1.
          6    1    1    2  501    0 -0.20036381414E+01  0.10586617465E+03  0.17549655742E+03  0.26821577725E+03  0.17300000000E+03 0.  1.
         -6    1    1    2    0  503  0.20036381414E+01 -0.10586617465E+03  0.72377644626E+02  0.21535827113E+03  0.17300000000E+03 0.  1.
<mgrwt>
<rscale>  2 0.20283161E+03</rscale>
<asrwt>0</asrwt>
<pdfrwt beam="1">  1       21 0.56265250E-01 0.20283161E+03</pdfrwt>
<pdfrwt beam="2">  1       21 0.18130758E-01 0.20283161E+03</pdfrwt>
<totfact> 0.81981769E+04</totfact>
</mgrwt>
</event>
<event>
 4    1  0.3948468E+000  0.2432635E+03  0.7546771E-02  0.1117638E+00
         21   -1    0    0  503  502  0.00000000000E+00  0.00000000000E+00  0.42016283596E+03  0.42016283596E+03  0.00000000000E+00 0. -1.
         21   -1    0    0  501  503 -0.00000000000E+00 -0.00000000000E+00 -0.29299315401E+03  0.29299315401E+03  0.00000000000E+00 0.  1.
          6    1    1    2  501    0 -0.16586586416E+03 -0.41672974538E+02 -0.19337281840E+03  0.31075741116E+03  0.17300000000E+03 0.  1.
         -6    1    1    2    0  502  0.16586586416E+03  0.41672974538E+02  0.32054250034E+03  0.40239857880E+03  0.17300000000E+03 0. -1.
<mgrwt>
<rscale>  2 0.24326348E+03</rscale>
<asrwt>0</asrwt>
<pdfrwt beam="1">  1       21 0.64640436E-01 0.24326348E+03</pdfrwt>
<pdfrwt beam="2">  1       21 0.45075870E-01 0.24326348E+03</pdfrwt>
<totfact> 0.10089152E+04</totfact>
</mgrwt>
</event>
<event>
 4    1  0.3948468E+000  0.2206144E+03  0.7546771E-02  0.1133426E+00
         21   -1    0    0  503  502  0.00000000000E+00  0.00000000000E+00  0.23163277749E+03  0.23163277749E+03  0.00000000000E+00 0.  1.
         21   -1    0    0  501  503 -0.00000000000E+00 -0.00000000000E+00 -0.21012829216E+03  0.21012829216E+03  0.00000000000E+00 0.  1.
          6    1    1    2  501    0  0.10476119336E+02 -0.13649894481E+03  0.93762276422E+01  0.22081355179E+03  0.17300000000E+03 0.  1.
         -6    1    1    2    0  502 -0.10476119336E+02  0.13649894481E+03  0.12128257688E+02  0.22094751785E+03  0.17300000000E+03 0.  1.
<mgrwt>
<rscale>  2 0.22061439E+03</rscale>
<asrwt>0</asrwt>
<pdfrwt beam="1">  1       21 0.35635812E-01 0.22061439E+03</pdfrwt>
<pdfrwt beam="2">  1       21 0.32327429E-01 0.22061439E+03</pdfrwt>
<totfact> 0.69057983E+04</totfact>
</mgrwt>
</event>
<event>
 4    1  0.3948468E+000  0.2101300E+03  0.7546771E-02  0.1141463E+00
         21   -1    0    0  503  502  0.00000000000E+00  0.00000000000E+00  0.70650444990E+03  0.70650444990E+03  0.00000000000E+00 0.  1.
         21   -1    0    0  501  503 -0.00000000000E+00 -0.00000000000E+00 -0.10755495813E+03  0.10755495813E+03  0.00000000000E+00 0.  1.
          6    1    1    2  501    0 -0.11860784890E+03  0.12562327668E+02  0.36026626272E+02  0.21319604053E+03  0.17300000000E+03 0.  1.
         -6    1    1    2    0  502  0.11860784890E+03 -0.12562327668E+02  0.56292286550E+03  0.60086336750E+03  0.17300000000E+03 0.  1.
<mgrwt>
<rscale>  2 0.21013004E+03</rscale>
<asrwt>0</asrwt>
<pdfrwt beam="1">  1       21 0.10869299E+00 0.21013004E+03</pdfrwt>
<pdfrwt beam="2">  1       21 0.16546917E-01 0.21013004E+03</pdfrwt>
<totfact> 0.21805557E+04</totfact>
</mgrwt>
</event>
<event>
 4    1  0.3948468E+000  0.1759447E+03  0.7546771E-02  0.1171787E+00
         21   -1    0    0  501  502  0.00000000000E+00  0.00000000000E+00  0.10339955327E+03  0.10339955327E+03  0.00000000000E+00 0. -1.
         21   -1    0    0  502  503 -0.00000000000E+00 -0.00000000000E+00 -0.51663268636E+03  0.51663268636E+03  0.00000000000E+00 0. -1.
          6    1    1    2  501    0  0.25092630250E+02 -0.19946965962E+02 -0.55830193978E+01  0.17603321178E+03  0.17300000000E+03 0. -1.
         -6    1    1    2    0  503 -0.25092630250E+02  0.19946965962E+02 -0.40765011369E+03  0.44399902786E+03  0.17300000000E+03 0. -1.
<mgrwt>
<rscale>  2 0.17594465E+03</rscale>
<asrwt>0</asrwt>
<pdfrwt beam="1">  1       21 0.15907623E-01 0.17594465E+03</pdfrwt>
<pdfrwt beam="2">  1       21 0.79481953E-01 0.17594465E+03</pdfrwt>
<totfact> 0.49586807E+04</totfact>
</mgrwt>
</event>
<event>
 4    1  0.3948468E+000  0.2024854E+03  0.7546771E-02  0.1147659E+00
         21   -1    0    0  503  502  0.00000000000E+00  0.00000000000E+00  0.97937133150E+03  0.97937133150E+03  0.00000000000E+00 0.  1.
         21   -1    0    0  501  503 -0.00000000000E+00 -0.00000000000E+00 -0.14192676418E+03  0.14192676418E+03  0.00000000000E+00 0.  1.
          6    1    1    2  501    0 -0.10088439077E+03 -0.29894291194E+02 -0.52033155695E+02  0.20906405296E+03  0.17300000000E+03 0.  1.
         -6    1    1    2    0  502  0.10088439077E+03  0.29894291194E+02  0.88947772302E+03  0.91223404272E+03  0.17300000000E+03 0.  1.
<mgrwt>
<rscale>  2 0.20248538E+03</rscale>
<asrwt>0</asrwt>
<pdfrwt beam="1">  1       21 0.15067251E+00 0.20248538E+03</pdfrwt>
<pdfrwt beam="2">  1       21 0.21834887E-01 0.20248538E+03</pdfrwt>
<totfact> 0.57370594E+03</totfact>
</mgrwt>
</event>
<event>
 4    1  0.3948468E+000  0.1997663E+03  0.7546771E-02  0.1149936E+00
         21   -1    0    0  503  502  0.00000000000E+00  0.00000000000E+00  0.49107850613E+02  0.49107850613E+02  0.00000000000E+00 0.  1.
         21   -1    0    0  501  503 -0.00000000000E+00 -0.00000000000E+00 -0.15797986355E+04  0.15797986355E+04  0.00000000000E+00 0. -1.
          6    1    1    2  501    0  0.70068827396E+02 -0.71189501401E+02 -0.13329034429E+04  0.13477901075E+04  0.17300000000E+03 0. -1.
         -6    1    1    2    0  502 -0.70068827396E+02  0.71189501401E+02 -0.19778734191E+03  0.28111637858E+03  0.17300000000E+03 0.  1.
<mgrwt>
<rscale>  2 0.19976633E+03</rscale>
<asrwt>0</asrwt>
<pdfrwt beam="1">  1       21 0.75550526E-02 0.19976633E+03</pdfrwt>
<pdfrwt beam="2">  1       21 0.24304599E+00 0.19976633E+03</pdfrwt>
<totfact> 0.96227582E+03</totfact>
</mgrwt>
</event>
<event>
 4    1  0.3948468E+000  0.1740668E+03  0.7546771E-02  0.1173672E+00
         21   -1    0    0  501  502  0.00000000000E+00  0.00000000000E+00  0.63809171916E+02  0.63809171916E+02  0.00000000000E+00 0. -1.
         21   -1    0    0  502  503 -0.00000000000E+00 -0.00000000000E+00 -0.47542086832E+03  0.47542086832E+03  0.00000000000E+00 0. -1.
          6    1    1    2  501    0  0.16991506643E+02 -0.90298910361E+01 -0.21521692482E+03  0.27679879869E+03  0.17300000000E+03 0. -1.
         -6    1    1    2    0  503 -0.16991506643E+02  0.90298910361E+01 -0.19639477158E+03  0.26243124154E+03  0.17300000000E+03 0. -1.
<mgrwt>
<rscale>  2 0.17406680E+03</rscale>
<asrwt>0</asrwt>
<pdfrwt beam="1">  1       21 0.98167956E-02 0.17406680E+03</pdfrwt>
<pdfrwt beam="2">  1       21 0.73141672E-01 0.17406680E+03</pdfrwt>
<totfact> 0.14187410E+05</totfact>
</mgrwt>
</event>
<event>
 4    1  0.3948468E+000  0.1907962E+03  0.7546771E-02  0.1157745E+00
         21   -1    0    0  503  502  0.00000000000E+00  0.00000000000E+00  0.39592318254E+03  0.39592318254E+03  0.00000000000E+00 0. -1.
         21   -1    0    0  501  503 -0.00000000000E+00 -0.00000000000E+00 -0.11585876994E+03  0.11585876994E+03  0.00000000000E+00 0. -1.
          6    1    1    2  501    0  0.52763867800E+02 -0.60746779485E+02  0.23776675940E+02  0.19227201378E+03  0.17300000000E+03 0. -1.
         -6    1    1    2    0  502 -0.52763867800E+02  0.60746779485E+02  0.25628773667E+03  0.31950993870E+03  0.17300000000E+03 0. -1.
<mgrwt>
<rscale>  2 0.19079622E+03</rscale>
<asrwt>0</asrwt>
<pdfrwt beam="1">  1       21 0.60911258E-01 0.19079622E+03</pdfrwt>
<pdfrwt beam="2">  1       21 0.17824426E-01 0.19079622E+03</pdfrwt>
<totfact> 0.71776540E+04</totfact>
</mgrwt>
</event>
<event>
 4    1  0.3948468E+000  0.2697344E+03  0.7546771E-02  0.1101432E+00
         21   -1    0    0  501  502  0.00000000000E+00  0.00000000000E+00  0.79434599890E+02  0.79434599890E+02  0.00000000000E+00 0. -1.
         21   -1    0    0  502  503 -0.00000000000E+00 -0.00000000000E+00 -0.10868536922E+04  0.10868536922E+04  0.00000000000E+00 0.  1.
          6    1    1    2  501    0  0.18076251515E+01  0.20694050599E+03 -0.27245525936E+03  0.38339080437E+03  0.17300000000E+03 0. -1.
         -6    1    1    2    0  503 -0.18076251515E+01 -0.20694050599E+03 -0.73496383299E+03  0.78289748775E+03  0.17300000000E+03 0.  1.
<mgrwt>
<rscale>  2 0.26973439E+03</rscale>
<asrwt>0</asrwt>
<pdfrwt beam="1">  1       21 0.12220708E-01 0.26973439E+03</pdfrwt>
<pdfrwt beam="2">  1       21 0.16720826E+00 0.26973439E+03</pdfrwt>
<totfact> 0.12055087E+04</totfact>
</mgrwt>
</event>
<event>
 4    1  0.3948468E+000  0.3073193E+03  0.7546771E-02  0.1081638E+00
         21   -1    0    0  503  502  0.00000000000E+00  0.00000000000E+00  0.73331583083E+02  0.73331583083E+02  0.00000000000E+00 0. -1.
         21   -1    0    0  501  503 -0.00000000000E+00 -0.00000000000E+00 -0.15411333976E+04  0.15411333976E+04  0.00000000000E+00 0.  1.
          6    1    1    2  501    0 -0.12331032658E+03  0.22206019610E+03 -0.10611077564E+04  0.11047148220E+04  0.17300000000E+03 0. -1.
         -6    1    1    2    0  502  0.12331032658E+03 -0.22206019610E+03 -0.40669405811E+03  0.50975015864E+03  0.17300000000E+03 0. -1.
<mgrwt>
<rscale>  2 0.30731932E+03</rscale>
<asrwt>0</asrwt>
<pdfrwt beam="1">  1       21 0.11281781E-01 0.30731932E+03</pdfrwt>
<pdfrwt beam="2">  1       21 0.23709746E+00 0.30731932E+03</pdfrwt>
<totfact> 0.47386313E+03</totfact>
</mgrwt>
</event>
<event>
 4    1  0.3948468E+000  0.2015797E+03  0.7546771E-02  0.1148413E+00
         21   -1    0    0  501  502  0.00000000000E+00  0.00000000000E+00  0.20845809315E+03  0.20845809315E+03  0.00000000000E+00 0. -1.
         21   -1    0    0  502  503 -0.00000000000E+00 -0.00000000000E+00 -0.26127379664E+03  0.26127379664E+03  0.00000000000E+00 0.  1.
          6    1    1    2  501    0  0.10118325121E+03 -0.21618166389E+02  0.91944701268E+02  0.22155862324E+03  0.17300000000E+03 0. -1.
         -6    1    1    2    0  503 -0.10118325121E+03  0.21618166389E+02 -0.14476040475E+03  0.24817326654E+03  0.17300000000E+03 0.  1.
<mgrwt>
<rscale>  2 0.20157975E+03</rscale>
<asrwt>0</asrwt>
<pdfrwt beam="1">  1       21 0.32070476E-01 0.20157975E+03</pdfrwt>
<pdfrwt beam="2">  1       21 0.40195969E-01 0.20157975E+03</pdfrwt>
<totfact> 0.55541019E+04</totfact>
</mgrwt>
</event>
<event>
 4    1  0.3948468E+000  0.2276410E+03  0.7546771E-02  0.1128311E+00
         21   -1    0    0  503  502  0.00000000000E+00  0.00000000000E+00  0.97601671092E+02  0.97601671092E+02  0.00000000000E+00 0.  1.
         21   -1    0    0  501  503 -0.00000000000E+00 -0.00000000000E+00 -0.70113368869E+03  0.70113368869E+03  0.00000000000E+00 0.  1.
          6    1    1    2  501    0 -0.84921384764E+02  0.12116013788E+03 -0.49853061331E+03  0.54804488229E+03  0.17300000000E+03 0.  1.
         -6    1    1    2    0  502  0.84921384764E+02 -0.12116013788E+03 -0.10500140429E+03  0.25069047749E+03  0.17300000000E+03 0.  1.
<mgrwt>
<rscale>  2 0.22764099E+03</rscale>
<asrwt>0</asrwt>
<pdfrwt beam="1">  1       21 0.15015641E-01 0.22764099E+03</pdfrwt>
<pdfrwt beam="2">  1       21 0.10786672E+00 0.22764099E+03</pdfrwt>
<totfact> 0.26282681E+04</totfact>
</mgrwt>
</event>
<event>
 4    1  0.3948468E+000  0.2311841E+03  0.7546771E-02  0.1125809E+00
         21   -1    0    0  501  502  0.00000000000E+00  0.00000000000E+00  0.15188900463E+03  0.15188900463E+03  0.00000000000E+00 0.  1.
         21   -1    0    0  502  503 -0.00000000000E+00 -0.00000000000E+00 -0.38116047592E+03  0.38116047592E+03  0.00000000000E+00 0. -1.
          6    1    1    2  501    0 -0.14763505535E+03  0.41484921018E+02 -0.18851145105E+03  0.29829964032E+03  0.17300000000E+03 0. -1.
         -6    1    1    2    0  503  0.14763505535E+03 -0.41484921018E+02 -0.40760020238E+02  0.23474984023E+03  0.17300000000E+03 0.  1.
<mgrwt>
<rscale>  2 0.23118414E+03</rscale>
<asrwt>0</asrwt>
<pdfrwt beam="1">  1       21 0.23367539E-01 0.23118414E+03</pdfrwt>
<pdfrwt beam="2">  1       21 0.58640073E-01 0.23118414E+03</pdfrwt>
<totfact> 0.46026613E+04</totfact>
</mgrwt>
</event>
<event>
 4    1  0.3948468E+000  0.2631571E+03  0.7546771E-02  0.1105261E+00
         21   -1    0    0  501  502  0.00000000000E+00  0.00000000000E+00  0.57550067904E+03  0.57550067904E+03  0.00000000000E+00 0.  1.
         21   -1    0    0  502  503 -0.00000000000E+00 -0.00000000000E+00 -0.17115422400E+03  0.17115422400E+03  0.00000000000E+00 0.  1.
          6    1    1    2  501    0  0.19235249819E+03  0.48199468490E+02  0.40560512638E+03  0.48349476819E+03  0.17300000000E+03 0.  1.
         -6    1    1    2    0  503 -0.19235249819E+03 -0.48199468490E+02 -0.12586713381E+01  0.26316013485E+03  0.17300000000E+03 0.  1.
<mgrwt>
<rscale>  2 0.26315712E+03</rscale>
<asrwt>0</asrwt>
<pdfrwt beam="1">  1       21 0.88538565E-01 0.26315712E+03</pdfrwt>
<pdfrwt beam="2">  1       21 0.26331419E-01 0.26315712E+03</pdfrwt>
<totfact> 0.14368396E+04</totfact>
</mgrwt>
</event>
<event>
 4    1  0.3948468E+000  0.2295058E+03  0.7546771E-02  0.1126988E+00
         21   -1    0    0  501  502  0.00000000000E+00  0.00000000000E+00  0.80923701730E+03  0.80923701730E+03  0.00000000000E+00 0.  1.
         21   -1    0    0  502  503 -0.00000000000E+00 -0.00000000000E+00 -0.11923649633E+03  0.11923649633E+03  0.00000000000E+00 0. -1.
          6    1    1    2  501    0 -0.14415104538E+02  0.15012030123E+03  0.65783989683E+03  0.69672536192E+03  0.17300000000E+03 0.  1.
         -6    1    1    2    0  503  0.14415104538E+02 -0.15012030123E+03  0.32160624148E+02  0.23174815172E+03  0.17300000000E+03 0. -1.
<mgrwt>
<rscale>  2 0.22950577E+03</rscale>
<asrwt>0</asrwt>
<pdfrwt beam="1">  1       21 0.12449800E+00 0.22950577E+03</pdfrwt>
<pdfrwt beam="2">  1       21 0.18344077E-01 0.22950577E+03</pdfrwt>
<totfact> 0.12748009E+04</totfact>
</mgrwt>
</event>
<event>
 4    1  0.3948468E+000  0.1761420E+03  0.7546771E-02  0.1171590E+00
         21   -1    0    0  503  502  0.00000000000E+00  0.00000000000E+00  0.56573666159E+03  0.56573666159E+03  0.00000000000E+00 0. -1.
         21   -1    0    0  501  503 -0.00000000000E+00 -0.00000000000E+00 -0.25405310731E+03  0.25405310731E+03  0.00000000000E+00 0. -1.
          6    1    1    2  501    0 -0.22453897848E+02 -0.24348310959E+02 -0.20712529956E+03  0.27189503028E+03  0.17300000000E+03 0. -1.
         -6    1    1    2    0  502  0.22453897848E+02  0.24348310959E+02  0.51880885385E+03  0.54789473862E+03  0.17300000000E+03 0. -1.
<mgrwt>
<rscale>  2 0.17614204E+03</rscale>
<asrwt>0</asrwt>
<pdfrwt beam="1">  1       21 0.87036409E-01 0.17614204E+03</pdfrwt>
<pdfrwt beam="2">  1       21 0.39085093E-01 0.17614204E+03</pdfrwt>
<totfact> 0.72525796E+03</totfact>
</mgrwt>
</event>
<event>
 4    1  0.3948468E+000  0.1967799E+03  0.7546771E-02  0.1152485E+00
         21   -1    0    0  503  502  0.00000000000E+00  0.00000000000E+00  0.76337147558E+03  0.76337147558E+03  0.00000000000E+00 0. -1.
         21   -1    0    0  501  503 -0.00000000000E+00 -0.00000000000E+00 -0.12656483458E+03  0.12656483458E+03  0.00000000000E+00 0. -1.
          6    1    1    2  501    0 -0.73613195172E+02  0.58089666804E+02 -0.26041762637E+02  0.19849555485E+03  0.17300000000E+03 0. -1.
         -6    1    1    2    0  502  0.73613195172E+02 -0.58089666804E+02  0.66284840364E+03  0.69144075531E+03  0.17300000000E+03 0. -1.
<mgrwt>
<rscale>  2 0.19677986E+03</rscale>
<asrwt>0</asrwt>
<pdfrwt beam="1">  1       21 0.11744176E+00 0.19677986E+03</pdfrwt>
<pdfrwt beam="2">  1       21 0.19471513E-01 0.19677986E+03</pdfrwt>
<totfact> 0.13476255E+04</totfact>
</mgrwt>
</event>
<event>
 4    1  0.3948468E+000  0.1756236E+03  0.7546771E-02  0.1172107E+00
         21   -1    0    0  501  502  0.00000000000E+00  0.00000000000E+00  0.25852093221E+03  0.25852093221E+03  0.00000000000E+00 0.  1.
         21   -1    0    0  502  503 -0.00000000000E+00 -0.00000000000E+00 -0.27519274944E+03  0.27519274944E+03  0.00000000000E+00 0.  1.
          6    1    1    2  501    0  0.15845636340E+02 -0.25759410395E+02  0.19250934593E+03  0.26058296123E+03  0.17300000000E+03 0.  1.
         -6    1    1    2    0  503 -0.15845636340E+02  0.25759410395E+02 -0.20918116316E+03  0.27313072042E+03  0.17300000000E+03 0.  1.
<mgrwt>
<rscale>  2 0.17562355E+03</rscale>
<asrwt>0</asrwt>
<pdfrwt beam="1">  1       21 0.39772451E-01 0.17562355E+03</pdfrwt>
<pdfrwt beam="2">  1       21 0.42337346E-01 0.17562355E+03</pdfrwt>
<totfact> 0.33007214E+04</totfact>
</mgrwt>
</event>
<event>
 4    1  0.3948468E+000  0.1965724E+03  0.7546771E-02  0.1152664E+00
         21   -1    0    0  501  502  0.00000000000E+00  0.00000000000E+00  0.41942233098E+03  0.41942233098E+03  0.00000000000E+00 0. -1.
         21   -1    0    0  502  503 -0.00000000000E+00 -0.00000000000E+00 -0.19034143889E+03  0.19034143889E+03  0.00000000000E+00 0. -1.
          6    1    1    2  501    0  0.92210466422E+02 -0.14454183982E+02  0.33354321151E+03  0.38715858185E+03  0.17300000000E+03 0. -1.
         -6    1    1    2    0  503 -0.92210466422E+02  0.14454183982E+02 -0.10446231943E+03  0.22260518802E+03  0.17300000000E+03 0. -1.
<mgrwt>
<rscale>  2 0.19657236E+03</rscale>
<asrwt>0</asrwt>
<pdfrwt beam="1">  1       21 0.64526512E-01 0.19657236E+03</pdfrwt>
<pdfrwt beam="2">  1       21 0.29283298E-01 0.19657236E+03</pdfrwt>
<totfact> 0.24678922E+04</totfact>
</mgrwt>
</event>
<event>
 4    1  0.3948468E+000  0.1763091E+03  0.7546771E-02  0.1171424E+00
         21   -1    0    0  501  502  0.00000000000E+00  0.00000000000E+00  0.26111219478E+03  0.26111219478E+03  0.00000000000E+00 0.  1.
         21   -1    0    0  502  503 -0.00000000000E+00 -0.00000000000E+00 -0.12271723558E+03  0.12271723558E+03  0.00000000000E+00 0. -1.
          6    1    1    2  501    0 -0.71966594096E+00  0.33990656323E+02  0.10238262534E+03  0.20388007408E+03  0.17300000000E+03 0.  1.
         -6    1    1    2    0  503  0.71966594096E+00 -0.33990656323E+02  0.36012333862E+02  0.17994935628E+03  0.17300000000E+03 0. -1.
<mgrwt>
<rscale>  2 0.17630905E+03</rscale>
<asrwt>0</asrwt>
<pdfrwt beam="1">  1       21 0.40171107E-01 0.17630905E+03</pdfrwt>
<pdfrwt beam="2">  1       21 0.18879575E-01 0.17630905E+03</pdfrwt>
<totfact> 0.15428228E+05</totfact>
</mgrwt>
</event>
<event>
 4    1  0.3948468E+000  0.1732478E+03  0.7546771E-02  0.1174503E+00
         21   -1    0    0  501  502  0.00000000000E+00  0.00000000000E+00  0.39716183221E+03  0.39716183221E+03  0.00000000000E+00 0. -1.
         21   -1    0    0  502  503 -0.00000000000E+00 -0.00000000000E+00 -0.10529746764E+03  0.10529746764E+03  0.00000000000E+00 0. -1.
          6    1    1    2  501    0 -0.81136780544E+01 -0.44697493813E+01  0.27941247372E+03  0.32876456759E+03  0.17300000000E+03 0. -1.
         -6    1    1    2    0  503  0.81136780544E+01  0.44697493813E+01  0.12451890848E+02  0.17369473227E+03  0.17300000000E+03 0. -1.
<mgrwt>
<rscale>  2 0.17324783E+03</rscale>
<asrwt>0</asrwt>
<pdfrwt beam="1">  1       21 0.61101820E-01 0.17324783E+03</pdfrwt>
<pdfrwt beam="2">  1       21 0.16199611E-01 0.17324783E+03</pdfrwt>
<totfact> 0.85609846E+04</totfact>
</mgrwt>
</event>
<event>
 4    1  0.3948468E+000  0.2117651E+03  0.7546771E-02  0.1140176E+00
         21   -1    0    0  501  502  0.00000000000E+00  0.00000000000E+00  0.17899474860E+03  0.17899474860E+03  0.00000000000E+00 0.  1.
         21   -1    0    0  502  503 -0.00000000000E+00 -0.00000000000E+00 -0.27749196120E+03  0.27749196120E+03  0.00000000000E+00 0.  1.
          6    1    1    2  501    0 -0.90557691363E+02  0.81943671392E+02  0.21890416072E+02  0.21289352048E+03  0.17300000000E+03 0.  1.
         -6    1    1    2    0  503  0.90557691363E+02 -0.81943671392E+02 -0.12038762867E+03  0.24359318932E+03  0.17300000000E+03 0.  1.
<mgrwt>
<rscale>  2 0.21176511E+03</rscale>
<asrwt>0</asrwt>
<pdfrwt beam="1">  1       21 0.27537654E-01 0.21176511E+03</pdfrwt>
<pdfrwt beam="2">  1       21 0.42691071E-01 0.21176511E+03</pdfrwt>
<totfact> 0.65838822E+04</totfact>
</mgrwt>
</event>
<event>
 4    1  0.3948468E+000  0.1812897E+03  0.7546771E-02  0.1166561E+00
         21   -1    0    0  503  502  0.00000000000E+00  0.00000000000E+00  0.30018892440E+03  0.30018892440E+03  0.00000000000E+00 0. -1.
         21   -1    0    0  501  503 -0.00000000000E+00 -0.00000000000E+00 -0.12485078867E+03  0.12485078867E+03  0.00000000000E+00 0. -1.
          6    1    1    2  501    0 -0.27457753231E+02 -0.46722937589E+02  0.13111487060E+02  0.18176323116E+03  0.17300000000E+03 0. -1.
         -6    1    1    2    0  502  0.27457753231E+02  0.46722937589E+02  0.16222664867E+03  0.24327648190E+03  0.17300000000E+03 0. -1.
<mgrwt>
<rscale>  2 0.18128972E+03</rscale>
<asrwt>0</asrwt>
<pdfrwt beam="1">  1       21 0.46182911E-01 0.18128972E+03</pdfrwt>
<pdfrwt beam="2">  1       21 0.19207814E-01 0.18128972E+03</pdfrwt>
<totfact> 0.11227233E+05</totfact>
</mgrwt>
</event>
<event>
 4    1  0.3948468E+000  0.1939189E+03  0.7546771E-02  0.1154973E+00
         21   -1    0    0  501  502  0.00000000000E+00  0.00000000000E+00  0.41825804875E+03  0.41825804875E+03  0.00000000000E+00 0.  1.
         21   -1    0    0  502  503 -0.00000000000E+00 -0.00000000000E+00 -0.90630458780E+02  0.90630458780E+02  0.00000000000E+00 0.  1.
          6    1    1    2  501    0 -0.75402782024E+02 -0.44609002039E+02  0.14108861977E+03  0.23981355514E+03  0.17300000000E+03 0.  1.
         -6    1    1    2    0  503  0.75402782024E+02  0.44609002039E+02  0.18653897019E+03  0.26907495238E+03  0.17300000000E+03 0.  1.
<mgrwt>
<rscale>  2 0.19391891E+03</rscale>
<asrwt>0</asrwt>
<pdfrwt beam="1">  1       21 0.64347391E-01 0.19391891E+03</pdfrwt>
<pdfrwt beam="2">  1       21 0.13943148E-01 0.19391891E+03</pdfrwt>
<totfact> 0.99746301E+04</totfact>
</mgrwt>
</event>
<event>
 4    1  0.3948468E+000  0.2614516E+03  0.7546771E-02  0.1106274E+00
         21   -1    0    0  501  502  0.00000000000E+00  0.00000000000E+00  0.11210700762E+04  0.11210700762E+04  0.00000000000E+00 0. -1.
         21   -1    0    0  502  503 -0.00000000000E+00 -0.00000000000E+00 -0.76731020484E+02  0.76731020484E+02  0.00000000000E+00 0. -1.
          6    1    1    2  501    0  0.19328996574E+03 -0.32663651805E+02  0.25077789038E+03  0.36227955409E+03  0.17300000000E+03 0. -1.
         -6    1    1    2    0  503 -0.19328996574E+03  0.32663651805E+02  0.79356116529E+03  0.83552154255E+03  0.17300000000E+03 0. -1.
<mgrwt>
<rscale>  2 0.26145157E+03</rscale>
<asrwt>0</asrwt>
<pdfrwt beam="1">  1       21 0.17247231E+00 0.26145157E+03</pdfrwt>
<pdfrwt beam="2">  1       21 0.11804773E-01 0.26145157E+03</pdfrwt>
<totfact> 0.11825294E+04</totfact>
</mgrwt>
</event>
<event>
 4    1  0.3948468E+000  0.2405357E+03  0.7546771E-02  0.1119436E+00
         21   -1    0    0  503  502  0.00000000000E+00  0.00000000000E+00  0.13706486606E+04  0.13706486606E+04  0.00000000000E+00 0.  1.
         21   -1    0    0  501  503 -0.00000000000E+00 -0.00000000000E+00 -0.34256352705E+03  0.34256352705E+03  0.00000000000E+00 0.  1.
          6    1    1    2  501    0 -0.14444889022E+03 -0.84041414647E+02 -0.28805227138E+03  0.37527530202E+03  0.17300000000E+03 0.  1.
         -6    1    1    2    0  502  0.14444889022E+03  0.84041414647E+02  0.13161374049E+04  0.13379368856E+04  0.17300000000E+03 0.  1.
<mgrwt>
<rscale>  2 0.24053574E+03</rscale>
<asrwt>0</asrwt>
<pdfrwt beam="1">  1       21 0.21086902E+00 0.24053574E+03</pdfrwt>
<pdfrwt beam="2">  1       21 0.52702082E-01 0.24053574E+03</pdfrwt>
<totfact> 0.37005437E+02</totfact>
</mgrwt>
</event>
<event>
 4    1  0.3948468E+000  0.1847447E+03  0.7546771E-02  0.1163288E+00
         21   -1    0    0  501  502  0.00000000000E+00  0.00000000000E+00  0.18973045663E+03  0.18973045663E+03  0.00000000000E+00 0.  1.
         21   -1    0    0  502  503 -0.00000000000E+00 -0.00000000000E+00 -0.33267841039E+03  0.33267841039E+03  0.00000000000E+00 0.  1.
          6    1    1    2  501    0  0.60531240883E+02 -0.23185849482E+02  0.10554238872E+03  0.21276703353E+03  0.17300000000E+03 0.  1.
         -6    1    1    2    0  503 -0.60531240883E+02  0.23185849482E+02 -0.24849034249E+03  0.30964183349E+03  0.17300000000E+03 0.  1.
<mgrwt>
<rscale>  2 0.18474473E+03</rscale>
<asrwt>0</asrwt>
<pdfrwt beam="1">  1       21 0.29189301E-01 0.18474473E+03</pdfrwt>
<pdfrwt beam="2">  1       21 0.51181294E-01 0.18474473E+03</pdfrwt>
<totfact> 0.40949251E+04</totfact>
</mgrwt>
</event>
<event>
 4    1  0.3948468E+000  0.2136953E+03  0.7546771E-02  0.1138673E+00
         21   -1    0    0  503  502  0.00000000000E+00  0.00000000000E+00  0.23817641572E+03  0.23817641572E+03  0.00000000000E+00 0.  1.
         21   -1    0    0  501  503 -0.00000000000E+00 -0.00000000000E+00 -0.53877677629E+03  0.53877677629E+03  0.00000000000E+00 0. -1.
          6    1    1    2  501    0  0.12496239633E+03  0.11003148952E+02 -0.46208441813E+03  0.50910478221E+03  0.17300000000E+03 0. -1.
         -6    1    1    2    0  502 -0.12496239633E+03 -0.11003148952E+02  0.16148405757E+03  0.26784840980E+03  0.17300000000E+03 0.  1.
<mgrwt>
<rscale>  2 0.21369527E+03</rscale>
<asrwt>0</asrwt>
<pdfrwt beam="1">  1       21 0.36642526E-01 0.21369527E+03</pdfrwt>
<pdfrwt beam="2">  1       21 0.82888733E-01 0.21369527E+03</pdfrwt>
<totfact> 0.89830595E+03</totfact>
</mgrwt>
</event>
<event>
 4    1  0.3948468E+000  0.2088475E+03  0.7546771E-02  0.1142482E+00
         21   -1    0    0  501  502  0.00000000000E+00  0.00000000000E+00  0.17571248029E+03  0.17571248029E+03  0.00000000000E+00 0. -1.
         21   -1    0    0  502  503 -0.00000000000E+00 -0.00000000000E+00 -0.26678194771E+03  0.26678194771E+03  0.00000000000E+00 0.  1.
          6    1    1    2  501    0  0.10741517743E+03  0.46371027755E+02 -0.10387684187E+03  0.23325456230E+03  0.17300000000E+03 0.  1.
         -6    1    1    2    0  503 -0.10741517743E+03 -0.46371027755E+02  0.12807374449E+02  0.20923986570E+03  0.17300000000E+03 0.  1.
<mgrwt>
<rscale>  2 0.20884753E+03</rscale>
<asrwt>0</asrwt>
<pdfrwt beam="1">  1       21 0.27032689E-01 0.20884753E+03</pdfrwt>
<pdfrwt beam="2">  1       21 0.41043377E-01 0.20884753E+03</pdfrwt>
<totfact> 0.74026015E+04</totfact>
</mgrwt>
</event>
<event>
 4    1  0.3948468E+000  0.1953522E+03  0.7546771E-02  0.1153721E+00
         21   -1    0    0  501  502  0.00000000000E+00  0.00000000000E+00  0.24735891801E+03  0.24735891801E+03  0.00000000000E+00 0. -1.
         21   -1    0    0  502  503 -0.00000000000E+00 -0.00000000000E+00 -0.15689983689E+03  0.15689983689E+03  0.00000000000E+00 0. -1.
          6    1    1    2  501    0  0.53262608302E+02 -0.73461322979E+02  0.71349725347E+02  0.20797416841E+03  0.17300000000E+03 0. -1.
         -6    1    1    2    0  503 -0.53262608302E+02  0.73461322979E+02  0.19109355770E+02  0.19628458649E+03  0.17300000000E+03 0. -1.
<mgrwt>
<rscale>  2 0.19535217E+03</rscale>
<asrwt>0</asrwt>
<pdfrwt beam="1">  1       21 0.38055218E-01 0.19535217E+03</pdfrwt>
<pdfrwt beam="2">  1       21 0.24138436E-01 0.19535217E+03</pdfrwt>
<totfact> 0.10772682E+05</totfact>
</mgrwt>
</event>
<event>
 4    1  0.3948468E+000  0.1863435E+03  0.7546771E-02  0.1161801E+00
         21   -1    0    0  501  502  0.00000000000E+00  0.00000000000E+00  0.92405016264E+03  0.92405016264E+03  0.00000000000E+00 0.  1.
         21   -1    0    0  502  503 -0.00000000000E+00 -0.00000000000E+00 -0.40818815036E+02  0.40818815036E+02  0.00000000000E+00 0.  1.
          6    1    1    2  501    0  0.12166916095E+02  0.68167873594E+02  0.30567797088E+03  0.35799848424E+03  0.17300000000E+03 0.  1.
         -6    1    1    2    0  503 -0.12166916095E+02 -0.68167873594E+02  0.57755337672E+03  0.60687049343E+03  0.17300000000E+03 0.  1.
<mgrwt>
<rscale>  2 0.18634348E+03</rscale>
<asrwt>0</asrwt>
<pdfrwt beam="1">  1       21 0.14216155E+00 0.18634348E+03</pdfrwt>
<pdfrwt beam="2">  1       21 0.62798184E-02 0.18634348E+03</pdfrwt>
<totfact> 0.62920088E+04</totfact>
</mgrwt>
</event>
<event>
 4    1  0.3948468E+000  0.2270690E+03  0.7546771E-02  0.1128720E+00
         21   -1    0    0  501  502  0.00000000000E+00  0.00000000000E+00  0.39367594780E+03  0.39367594780E+03  0.00000000000E+00 0. -1.
         21   -1    0    0  502  503 -0.00000000000E+00 -0.00000000000E+00 -0.13377630324E+03  0.13377630324E+03  0.00000000000E+00 0.  1.
          6    1    1    2  501    0 -0.14715959342E+02  0.14633781486E+03  0.16813699350E+03  0.28254267660E+03  0.17300000000E+03 0. -1.
         -6    1    1    2    0  503  0.14715959342E+02 -0.14633781486E+03  0.91762651056E+02  0.24490957443E+03  0.17300000000E+03 0.  1.
<mgrwt>
<rscale>  2 0.22706897E+03</rscale>
<asrwt>0</asrwt>
<pdfrwt beam="1">  1       21 0.60565530E-01 0.22706897E+03</pdfrwt>
<pdfrwt beam="2">  1       21 0.20580970E-01 0.22706897E+03</pdfrwt>
<totfact> 0.54689403E+04</totfact>
</mgrwt>
</event>
<event>
 4    1  0.3948468E+000  0.2244356E+03  0.7546771E-02  0.1130619E+00
         21   -1    0    0  501  502  0.00000000000E+00  0.00000000000E+00  0.71582541422E+03  0.71582541422E+03  0.00000000000E+00 0. -1.
         21   -1    0    0  502  503 -0.00000000000E+00 -0.00000000000E+00 -0.21072456851E+03  0.21072456851E+03  0.00000000000E+00 0. -1.
          6    1    1    2  501    0 -0.95505184758E+02  0.10640069658E+03  0.63064228144E+03  0.66938855360E+03  0.17300000000E+03 0. -1.
         -6    1    1    2    0  503  0.95505184758E+02 -0.10640069658E+03 -0.12554143573E+03  0.25716142913E+03  0.17300000000E+03 0. -1.
<mgrwt>
<rscale>  2 0.22443562E+03</rscale>
<asrwt>0</asrwt>
<pdfrwt beam="1">  1       21 0.11012699E+00 0.22443562E+03</pdfrwt>
<pdfrwt beam="2">  1       21 0.32419165E-01 0.22443562E+03</pdfrwt>
<totfact> 0.58228685E+03</totfact>
</mgrwt>
</event>
<event>
 4    1  0.3948468E+000  0.2732075E+03  0.7546771E-02  0.1099458E+00
         21   -1    0    0  501  502  0.00000000000E+00  0.00000000000E+00  0.21690939002E+03  0.21690939002E+03  0.00000000000E+00 0.  1.
         21   -1    0    0  502  503 -0.00000000000E+00 -0.00000000000E+00 -0.49024167784E+03  0.49024167784E+03  0.00000000000E+00 0. -1.
          6    1    1    2  501    0 -0.37407799893E+02  0.20812014536E+03 -0.32970199945E+03  0.42818891490E+03  0.17300000000E+03 0. -1.
         -6    1    1    2    0  503  0.37407799893E+02 -0.20812014536E+03  0.56369711638E+02  0.27896215297E+03  0.17300000000E+03 0.  1.
<mgrwt>
<rscale>  2 0.27320750E+03</rscale>
<asrwt>0</asrwt>
<pdfrwt beam="1">  1       21 0.33370676E-01 0.27320750E+03</pdfrwt>
<pdfrwt beam="2">  1       21 0.75421796E-01 0.27320750E+03</pdfrwt>
<totfact> 0.12969664E+04</totfact>
</mgrwt>
</event>
<event>
 4    1  0.3948468E+000  0.2419179E+03  0.7546771E-02  0.1118522E+00
         21   -1    0    0  503  502  0.00000000000E+00  0.00000000000E+00  0.11005501994E+03  0.11005501994E+03  0.00000000000E+00 0.  1.
         21   -1    0    0  501  503 -0.00000000000E+00 -0.00000000000E+00 -0.55438716525E+03  0.55438716525E+03  0.00000000000E+00 0.  1.
          6    1    1    2  501    0 -0.16272702731E+03 -0.45991363088E+02 -0.15506790557E+03  0.28735056331E+03  0.17300000000E+03 0.  1.
         -6    1    1    2    0  502  0.16272702731E+03  0.45991363088E+02 -0.28926423974E+03  0.37709162188E+03  0.17300000000E+03 0.  1.
<mgrwt>
<rscale>  2 0.24191794E+03</rscale>
<asrwt>0</asrwt>
<pdfrwt beam="1">  1       21 0.16931542E-01 0.24191794E+03</pdfrwt>
<pdfrwt beam="2">  1       21 0.85290331E-01 0.24191794E+03</pdfrwt>
<totfact> 0.36458476E+04</totfact>
</mgrwt>
</event>
<event>
 4    1  0.3948468E+000  0.1828016E+03  0.7546771E-02  0.1165119E+00
         21   -1    0    0  503  502  0.00000000000E+00  0.00000000000E+00  0.43275764271E+02  0.43275764271E+02  0.00000000000E+00 0. -1.
         21   -1    0    0  501  503 -0.00000000000E+00 -0.00000000000E+00 -0.22981650209E+04  0.22981650209E+04  0.00000000000E+00 0. -1.
          6    1    1    2  501    0 -0.56963895947E+02 -0.15573890796E+02 -0.20814230018E+04  0.20894348863E+04  0.17300000000E+03 0. -1.
         -6    1    1    2    0  502  0.56963895947E+02  0.15573890796E+02 -0.17346625481E+03  0.25200589888E+03  0.17300000000E+03 0. -1.
<mgrwt>
<rscale>  2 0.18280162E+03</rscale>
<asrwt>0</asrwt>
<pdfrwt beam="1">  1       21 0.66578101E-02 0.18280162E+03</pdfrwt>
<pdfrwt beam="2">  1       21 0.35356384E+00 0.18280162E+03</pdfrwt>
<totfact> 0.27854369E+03</totfact>
</mgrwt>
</event>
<event>
 4    1  0.3948468E+000  0.1773572E+03  0.7546771E-02  0.1170386E+00
         21   -1    0    0  503  502  0.00000000000E+00  0.00000000000E+00  0.17449158161E+03  0.17449158161E+03  0.00000000000E+00 0.  1.
         21   -1    0    0  501  503 -0.00000000000E+00 -0.00000000000E+00 -0.45196944742E+03  0.45196944742E+03  0.00000000000E+00 0.  1.
          6    1    1    2  501    0  0.27467873948E+02  0.27786250430E+02 -0.38159786145E+03  0.42079981901E+03  0.17300000000E+03 0.  1.
         -6    1    1    2    0  502 -0.27467873948E+02 -0.27786250430E+02  0.10411999564E+03  0.20566121002E+03  0.17300000000E+03 0.  1.
<mgrwt>
<rscale>  2 0.17735715E+03</rscale>
<asrwt>0</asrwt>
<pdfrwt beam="1">  1       21 0.26844859E-01 0.17735715E+03</pdfrwt>
<pdfrwt beam="2">  1       21 0.69533760E-01 0.17735715E+03</pdfrwt>
<totfact> 0.25068396E+04</totfact>
</mgrwt>
</event>
<event>
 4    1  0.3948468E+000  0.2110503E+03  0.7546771E-02  0.1140737E+00
         21   -1    0    0  503  502  0.00000000000E+00  0.00000000000E+00  0.88778639580E+02  0.88778639580E+02  0.00000000000E+00 0. -1.
         21   -1    0    0  501  503 -0.00000000000E+00 -0.00000000000E+00 -0.64060905268E+03  0.64060905268E+03  0.00000000000E+00 0.  1.
          6    1    1    2  501    0 -0.11924337028E+03  0.19855829045E+02 -0.44572475172E+03  0.49316608723E+03  0.17300000000E+03 0.  1.
         -6    1    1    2    0  502  0.11924337028E+03 -0.19855829045E+02 -0.10610566138E+03  0.23622160502E+03  0.17300000000E+03 0. -1.
<mgrwt>
<rscale>  2 0.21105031E+03</rscale>
<asrwt>0</asrwt>
<pdfrwt beam="1">  1       21 0.13658253E-01 0.21105031E+03</pdfrwt>
<pdfrwt beam="2">  1       21 0.98555235E-01 0.21105031E+03</pdfrwt>
<totfact> 0.39122638E+04</totfact>
</mgrwt>
</event>
<event>
 4    1  0.3948468E+000  0.1976112E+03  0.7546771E-02  0.1151770E+00
         21   -1    0    0  501  502  0.00000000000E+00  0.00000000000E+00  0.27701992974E+03  0.27701992974E+03  0.00000000000E+00 0. -1.
         21   -1    0    0  502  503 -0.00000000000E+00 -0.00000000000E+00 -0.17344673500E+03  0.17344673500E+03  0.00000000000E+00 0. -1.
          6    1    1    2  501    0  0.57446444343E+01  0.95332046514E+02  0.14925573882E+03  0.24764384830E+03  0.17300000000E+03 0. -1.
         -6    1    1    2    0  503 -0.57446444343E+01 -0.95332046514E+02 -0.45682544073E+02  0.20282281643E+03  0.17300000000E+03 0. -1.
<mgrwt>
<rscale>  2 0.19761123E+03</rscale>
<asrwt>0</asrwt>
<pdfrwt beam="1">  1       21 0.42618451E-01 0.19761123E+03</pdfrwt>
<pdfrwt beam="2">  1       21 0.26684113E-01 0.19761123E+03</pdfrwt>
<totfact> 0.70647536E+04</totfact>
</mgrwt>
</event>
<event>
 4    1  0.3948468E+000  0.2123982E+03  0.7546771E-02  0.1139681E+00
         21   -1    0    0  501  502  0.00000000000E+00  0.00000000000E+00  0.76675093139E+03  0.76675093139E+03  0.00000000000E+00 0.  1.
         21   -1    0    0  502  503 -0.00000000000E+00 -0.00000000000E+00 -0.90003863133E+02  0.90003863133E+02  0.00000000000E+00 0.  1.
          6    1    1    2  501    0 -0.55611976697E+02 -0.10996036935E+03  0.59045777572E+03  0.62749769696E+03  0.17300000000E+03 0.  1.
         -6    1    1    2    0  503  0.55611976697E+02  0.10996036935E+03  0.86289292543E+02  0.22925709757E+03  0.17300000000E+03 0.  1.
<mgrwt>
<rscale>  2 0.21239815E+03</rscale>
<asrwt>0</asrwt>
<pdfrwt beam="1">  1       21 0.11796168E+00 0.21239815E+03</pdfrwt>
<pdfrwt beam="2">  1       21 0.13846749E-01 0.21239815E+03</pdfrwt>
<totfact> 0.24694789E+04</totfact>
</mgrwt>
</event>
<event>
 4    1  0.3948468E+000  0.4894391E+03  0.7546771E-02  0.1016573E+00
         21   -1    0    0  501  502  0.00000000000E+00  0.00000000000E+00  0.73482412126E+02  0.73482412126E+02  0.00000000000E+00 0.  1.
         21   -1    0    0  502  503 -0.00000000000E+00 -0.00000000000E+00 -0.33203811115E+04  0.33203811115E+04  0.00000000000E+00 0. -1.
          6    1    1    2  501    0 -0.45784260118E+03  0.13419914136E+01 -0.18523355253E+04  0.19159064556E+04  0.17300000000E+03 0.  1.
         -6    1    1    2    0  503  0.45784260118E+03 -0.13419914136E+01 -0.13945631742E+04  0.14779570681E+04  0.17300000000E+03 0. -1.
<mgrwt>
<rscale>  2 0.48943912E+03</rscale>
<asrwt>0</asrwt>
<pdfrwt beam="1">  1       21 0.11304988E-01 0.48943912E+03</pdfrwt>
<pdfrwt beam="2">  1       21 0.51082778E+00 0.48943912E+03</pdfrwt>
<totfact> 0.75339679E+01</totfact>
</mgrwt>
</event>
<event>
 4    1  0.3948468E+000  0.1908348E+03  0.7546771E-02  0.1157711E+00
         21   -1    0    0  501  502  0.00000000000E+00  0.00000000000E+00  0.58978144306E+03  0.58978144306E+03  0.00000000000E+00 0. -1.
         21   -1    0    0  502  503 -0.00000000000E+00 -0.00000000000E+00 -0.73283754343E+02  0.73283754343E+02  0.00000000000E+00 0. -1.
          6    1    1    2  501    0  0.61514401360E+02 -0.52008707457E+02  0.38978407935E+03  0.43399257567E+03  0.17300000000E+03 0. -1.
         -6    1    1    2    0  503 -0.61514401360E+02  0.52008707457E+02  0.12671360936E+03  0.22907262173E+03  0.17300000000E+03 0. -1.
<mgrwt>
<rscale>  2 0.19083482E+03</rscale>
<asrwt>0</asrwt>
<pdfrwt beam="1">  1       21 0.90735604E-01 0.19083482E+03</pdfrwt>
<pdfrwt beam="2">  1       21 0.11274424E-01 0.19083482E+03</pdfrwt>
<totfact> 0.67681112E+04</totfact>
</mgrwt>
</event>
<event>
 4    1  0.3948468E+000  0.1958203E+03  0.7546771E-02  0.1153314E+00
         21   -1    0    0  501  502  0.00000000000E+00  0.00000000000E+00  0.30753350081E+03  0.30753350081E+03  0.00000000000E+00 0.  1.
         21   -1    0    0  502  503 -0.00000000000E+00 -0.00000000000E+00 -0.14443994502E+03  0.14443994502E+03  0.00000000000E+00 0.  1.
          6    1    1    2  501    0  0.64807121107E+02  0.64935649692E+02  0.16511651745E+03  0.25614266705E+03  0.17300000000E+03 0.  1.
         -6    1    1    2    0  503 -0.64807121107E+02 -0.64935649692E+02 -0.20229616581E+01  0.19583077879E+03  0.17300000000E+03 0.  1.
<mgrwt>
<rscale>  2 0.19582033E+03</rscale>
<asrwt>0</asrwt>
<pdfrwt beam="1">  1       21 0.47312846E-01 0.19582033E+03</pdfrwt>
<pdfrwt beam="2">  1       21 0.22221530E-01 0.19582033E+03</pdfrwt>
<totfact> 0.80842768E+04</totfact>
</mgrwt>
</event>
<event>
 4    1  0.3948468E+000  0.1750934E+03  0.7546771E-02  0.1172638E+00
         21   -1    0    0  503  502  0.00000000000E+00  0.00000000000E+00  0.14057763811E+03  0.14057763811E+03  0.00000000000E+00 0.  1.
         21   -1    0    0  501  503 -0.00000000000E+00 -0.00000000000E+00 -0.27531447785E+03  0.27531447785E+03  0.00000000000E+00 0.  1.
          6    1    1    2  501    0  0.16731506367E+01  0.26942741837E+02  0.27440777476E+02  0.17723066055E+03  0.17300000000E+03 0.  1.
         -6    1    1    2    0  502 -0.16731506367E+01 -0.26942741837E+02 -0.16217761722E+03  0.23866145541E+03  0.17300000000E+03 0.  1.
<mgrwt>
<rscale>  2 0.17509343E+03</rscale>
<asrwt>0</asrwt>
<pdfrwt beam="1">  1       21 0.21627329E-01 0.17509343E+03</pdfrwt>
<pdfrwt beam="2">  1       21 0.42356074E-01 0.17509343E+03</pdfrwt>
<totfact> 0.10761129E+05</totfact>
</mgrwt>
</event>
<event>
 4    1  0.3948468E+000  0.1768024E+03  0.7546771E-02  0.1170934E+00
         21   -1    0    0  501  502  0.00000000000E+00  0.00000000000E+00  0.23975494069E+03  0.23975494069E+03  0.00000000000E+00 0. -1.
         21   -1    0    0  502  503 -0.00000000000E+00 -0.00000000000E+00 -0.26906967326E+03  0.26906967326E+03  0.00000000000E+00 0. -1.
          6    1    1    2  501    0 -0.36434535928E+02  0.16164073535E+01  0.16799649359E+03  0.24388913473E+03  0.17300000000E+03 0. -1.
         -6    1    1    2    0  503  0.36434535928E+02 -0.16164073535E+01 -0.19731122616E+03  0.26493547922E+03  0.17300000000E+03 0. -1.
<mgrwt>
<rscale>  2 0.17680240E+03</rscale>
<asrwt>0</asrwt>
<pdfrwt beam="1">  1       21 0.36885375E-01 0.17680240E+03</pdfrwt>
<pdfrwt beam="2">  1       21 0.41395334E-01 0.17680240E+03</pdfrwt>
<totfact> 0.40153117E+04</totfact>
</mgrwt>
</event>
<event>
 4    1  0.3948468E+000  0.2208246E+03  0.7546771E-02  0.1133270E+00
         21   -1    0    0  501  502  0.00000000000E+00  0.00000000000E+00  0.34025797225E+03  0.34025797225E+03  0.00000000000E+00 0.  1.
         21   -1    0    0  502  503 -0.00000000000E+00 -0.00000000000E+00 -0.15897347943E+03  0.15897347943E+03  0.00000000000E+00 0.  1.
          6    1    1    2  501    0 -0.58673142418E+02  0.12406432051E+03  0.16898664534E+03  0.27806470392E+03  0.17300000000E+03 0.  1.
         -6    1    1    2    0  503  0.58673142418E+02 -0.12406432051E+03  0.12297847487E+02  0.22116674776E+03  0.17300000000E+03 0.  1.
<mgrwt>
<rscale>  2 0.22082458E+03</rscale>
<asrwt>0</asrwt>
<pdfrwt beam="1">  1       21 0.52347380E-01 0.22082458E+03</pdfrwt>
<pdfrwt beam="2">  1       21 0.24457458E-01 0.22082458E+03</pdfrwt>
<totfact> 0.53961179E+04</totfact>
</mgrwt>
</event>
<event>
 4    1  0.3948468E+000  0.2284133E+03  0.7546771E-02  0.1127762E+00
         21   -1    0    0  503  502  0.00000000000E+00  0.00000000000E+00  0.15909442211E+03  0.15909442211E+03  0.00000000000E+00 0.  1.
         21   -1    0    0  501  503 -0.00000000000E+00 -0.00000000000E+00 -0.65057094785E+03  0.65057094785E+03  0.00000000000E+00 0. -1.
          6    1    1    2  501    0  0.31792641149E+02  0.14571500959E+03 -0.53082997027E+03  0.57788674789E+03  0.17300000000E+03 0. -1.
         -6    1    1    2    0  502 -0.31792641149E+02 -0.14571500959E+03  0.39353444526E+02  0.23177862207E+03  0.17300000000E+03 0.  1.
<mgrwt>
<rscale>  2 0.22841330E+03</rscale>
<asrwt>0</asrwt>
<pdfrwt beam="1">  1       21 0.24476065E-01 0.22841330E+03</pdfrwt>
<pdfrwt beam="2">  1       21 0.10008784E+00 0.22841330E+03</pdfrwt>
<totfact> 0.12626430E+04</totfact>
</mgrwt>
</event>
<event>
 4    1  0.3948468E+000  0.1739905E+03  0.7546771E-02  0.1173749E+00
         21   -1    0    0  501  502  0.00000000000E+00  0.00000000000E+00  0.84964155292E+02  0.84964155292E+02  0.00000000000E+00 0.  1.
         21   -1    0    0  502  503 -0.00000000000E+00 -0.00000000000E+00 -0.74226874623E+03  0.74226874623E+03  0.00000000000E+00 0.  1.
          6    1    1    2  501    0 -0.11364505834E+02 -0.14646849797E+02 -0.30393271284E+02  0.17662512036E+03  0.17300000000E+03 0.  1.
         -6    1    1    2    0  503  0.11364505834E+02  0.14646849797E+02 -0.62691131965E+03  0.65060778116E+03  0.17300000000E+03 0.  1.
<mgrwt>
<rscale>  2 0.17399047E+03</rscale>
<asrwt>0</asrwt>
<pdfrwt beam="1">  1       21 0.13071409E-01 0.17399047E+03</pdfrwt>
<pdfrwt beam="2">  1       21 0.11419519E+00 0.17399047E+03</pdfrwt>
<totfact> 0.30346626E+04</totfact>
</mgrwt>
</event>
<event>
 4    1  0.3948468E+000  0.1875637E+03  0.7546771E-02  0.1160677E+00
         21   -1    0    0  503  502  0.00000000000E+00  0.00000000000E+00  0.10065465695E+03  0.10065465695E+03  0.00000000000E+00 0. -1.
         21   -1    0    0  501  503 -0.00000000000E+00 -0.00000000000E+00 -0.34954326255E+03  0.34954326255E+03  0.00000000000E+00 0. -1.
          6    1    1    2  501    0  0.66545521232E+02 -0.28685161100E+02 -0.12652714594E+03  0.22625044425E+03  0.17300000000E+03 0. -1.
         -6    1    1    2    0  502 -0.66545521232E+02  0.28685161100E+02 -0.12236145966E+03  0.22394747525E+03  0.17300000000E+03 0. -1.
<mgrwt>
<rscale>  2 0.18756371E+03</rscale>
<asrwt>0</asrwt>
<pdfrwt beam="1">  1       21 0.15485332E-01 0.18756371E+03</pdfrwt>
<pdfrwt beam="2">  1       21 0.53775886E-01 0.18756371E+03</pdfrwt>
<totfact> 0.12129848E+05</totfact>
</mgrwt>
</event>
<event>
 4    1  0.3948468E+000  0.2528850E+03  0.7546771E-02  0.1111495E+00
         21   -1    0    0  501  502  0.00000000000E+00  0.00000000000E+00  0.28631874502E+04  0.28631874502E+04  0.00000000000E+00 0.  1.
         21   -1    0    0  502  503 -0.00000000000E+00 -0.00000000000E+00 -0.10908080130E+03  0.10908080130E+03  0.00000000000E+00 0. -1.
          6    1    1    2  501    0  0.52380589034E+02 -0.17685607919E+03  0.27023306298E+04  0.27141373642E+04  0.17300000000E+03 0.  1.
         -6    1    1    2    0  503 -0.52380589034E+02  0.17685607919E+03  0.51776019137E+02  0.25813088737E+03  0.17300000000E+03 0. -1.
<mgrwt>
<rscale>  2 0.25288495E+03</rscale>
<asrwt>0</asrwt>
<pdfrwt beam="1">  1       21 0.44049032E+00 0.25288495E+03</pdfrwt>
<pdfrwt beam="2">  1       21 0.16781664E-01 0.25288495E+03</pdfrwt>
<totfact> 0.13965121E+02</totfact>
</mgrwt>
</event>
<event>
 4    1  0.3948468E+000  0.1831197E+03  0.7546771E-02  0.1164818E+00
         21   -1    0    0  503  502  0.00000000000E+00  0.00000000000E+00  0.63567095215E+03  0.63567095215E+03  0.00000000000E+00 0. -1.
         21   -1    0    0  501  503 -0.00000000000E+00 -0.00000000000E+00 -0.46962327044E+03  0.46962327044E+03  0.00000000000E+00 0. -1.
          6    1    1    2  501    0 -0.51211582704E+01 -0.59812908604E+02 -0.43766008170E+03  0.47442508092E+03  0.17300000000E+03 0. -1.
         -6    1    1    2    0  502  0.51211582704E+01  0.59812908604E+02  0.60370776341E+03  0.63086914166E+03  0.17300000000E+03 0. -1.
<mgrwt>
<rscale>  2 0.18311966E+03</rscale>
<asrwt>0</asrwt>
<pdfrwt beam="1">  1       21 0.97795531E-01 0.18311966E+03</pdfrwt>
<pdfrwt beam="2">  1       21 0.72249734E-01 0.18311966E+03</pdfrwt>
<totfact> 0.15089731E+03</totfact>
</mgrwt>
</event>
<event>
 4    1  0.3948468E+000  0.1758541E+03  0.7546771E-02  0.1171877E+00
         21   -1    0    0  501  502  0.00000000000E+00  0.00000000000E+00  0.61342819718E+03  0.61342819718E+03  0.00000000000E+00 0. -1.
         21   -1    0    0  502  503 -0.00000000000E+00 -0.00000000000E+00 -0.50862863394E+02  0.50862863394E+02  0.00000000000E+00 0. -1.
          6    1    1    2  501    0  0.18203719917E+01  0.31501856931E+02  0.25004149517E+03  0.30568845260E+03  0.17300000000E+03 0. -1.
         -6    1    1    2    0  503 -0.18203719917E+01 -0.31501856931E+02  0.31252383861E+03  0.35860260798E+03  0.17300000000E+03 0. -1.
<mgrwt>
<rscale>  2 0.17585415E+03</rscale>
<asrwt>0</asrwt>
<pdfrwt beam="1">  1       21 0.94373563E-01 0.17585415E+03</pdfrwt>
<pdfrwt beam="2">  1       21 0.78250564E-02 0.17585415E+03</pdfrwt>
<totfact> 0.11809170E+05</totfact>
</mgrwt>
</event>
<event>
 4    1  0.3948468E+000  0.3402743E+03  0.7546771E-02  0.1066679E+00
         21   -1    0    0  503  502  0.00000000000E+00  0.00000000000E+00  0.90180000764E+03  0.90180000764E+03  0.00000000000E+00 0.  1.
         21   -1    0    0  501  503 -0.00000000000E+00 -0.00000000000E+00 -0.24856131381E+03  0.24856131381E+03  0.00000000000E+00 0. -1.
          6    1    1    2  501    0 -0.22786909251E+03  0.18420983165E+03 -0.73306000060E+02  0.34808096047E+03  0.17300000000E+03 0. -1.
         -6    1    1    2    0  502  0.22786909251E+03 -0.18420983165E+03  0.72654469389E+03  0.80228036098E+03  0.17300000000E+03 0.  1.
<mgrwt>
<rscale>  2 0.34027428E+03</rscale>
<asrwt>0</asrwt>
<pdfrwt beam="1">  1       21 0.13873846E+00 0.34027428E+03</pdfrwt>
<pdfrwt beam="2">  1       21 0.38240203E-01 0.34027428E+03</pdfrwt>
<totfact> 0.21788881E+03</totfact>
</mgrwt>
</event>
<event>
 4    1  0.3948468E+000  0.3844710E+03  0.7546771E-02  0.1049294E+00
         21   -1    0    0  501  502  0.00000000000E+00  0.00000000000E+00  0.14599949235E+03  0.14599949235E+03  0.00000000000E+00 0. -1.
         21   -1    0    0  502  503 -0.00000000000E+00 -0.00000000000E+00 -0.10775925087E+04  0.10775925087E+04  0.00000000000E+00 0.  1.
          6    1    1    2  501    0  0.28704781149E+03  0.18839445753E+03 -0.61621280258E+03  0.72631682878E+03  0.17300000000E+03 0.  1.
         -6    1    1    2    0  503 -0.28704781149E+03 -0.18839445753E+03 -0.31538021374E+03  0.49727517224E+03  0.17300000000E+03 0. -1.
<mgrwt>
<rscale>  2 0.38447096E+03</rscale>
<asrwt>0</asrwt>
<pdfrwt beam="1">  1       21 0.22461459E-01 0.38447096E+03</pdfrwt>
<pdfrwt beam="2">  1       21 0.16578347E+00 0.38447096E+03</pdfrwt>
<totfact> 0.37611924E+03</totfact>
</mgrwt>
</event>
<event>
 4    1  0.3948468E+000  0.2071352E+03  0.7546771E-02  0.1143855E+00
         21   -1    0    0  501  502  0.00000000000E+00  0.00000000000E+00  0.32479796244E+02  0.32479796244E+02  0.00000000000E+00 0.  1.
         21   -1    0    0  502  503 -0.00000000000E+00 -0.00000000000E+00 -0.16162748858E+04  0.16162748858E+04  0.00000000000E+00 0.  1.
          6    1    1    2  501    0 -0.11276979297E+03  0.16091755478E+02 -0.43952609916E+03  0.48588904355E+03  0.17300000000E+03 0. -1.
         -6    1    1    2    0  503  0.11276979297E+03 -0.16091755478E+02 -0.11442689904E+04  0.11628656385E+04  0.17300000000E+03 0. -1.
<mgrwt>
<rscale>  2 0.20713515E+03</rscale>
<asrwt>0</asrwt>
<pdfrwt beam="1">  1       21 0.49968919E-02 0.20713515E+03</pdfrwt>
<pdfrwt beam="2">  1       21 0.24865767E+00 0.20713515E+03</pdfrwt>
<totfact> 0.18006683E+04</totfact>
</mgrwt>
</event>
<event>
 4    1  0.3948468E+000  0.2139733E+03  0.7546771E-02  0.1138458E+00
         21   -1    0    0  503  502  0.00000000000E+00  0.00000000000E+00  0.19158615601E+03  0.19158615601E+03  0.00000000000E+00 0.  1.
         21   -1    0    0  501  503 -0.00000000000E+00 -0.00000000000E+00 -0.23942780712E+03  0.23942780712E+03  0.00000000000E+00 0.  1.
          6    1    1    2  501    0 -0.21767272901E+02 -0.12402325806E+03 -0.33277595876E+02  0.21654556356E+03  0.17300000000E+03 0.  1.
         -6    1    1    2    0  502  0.21767272901E+02  0.12402325806E+03 -0.14564055236E+02  0.21446839957E+03  0.17300000000E+03 0.  1.
<mgrwt>
<rscale>  2 0.21397332E+03</rscale>
<asrwt>0</asrwt>
<pdfrwt beam="1">  1       21 0.29474793E-01 0.21397332E+03</pdfrwt>
<pdfrwt beam="2">  1       21 0.36835047E-01 0.21397332E+03</pdfrwt>
<totfact> 0.77685520E+04</totfact>
</mgrwt>
</event>
<event>
 4    1  0.3948468E+000  0.1891939E+03  0.7546771E-02  0.1159190E+00
         21   -1    0    0  503  502  0.00000000000E+00  0.00000000000E+00  0.25052314770E+03  0.25052314770E+03  0.00000000000E+00 0. -1.
         21   -1    0    0  501  503 -0.00000000000E+00 -0.00000000000E+00 -0.10009430951E+04  0.10009430951E+04  0.00000000000E+00 0. -1.
          6    1    1    2  501    0  0.51758941522E+02 -0.56447804913E+02 -0.95456458801E+03  0.97313303068E+03  0.17300000000E+03 0. -1.
         -6    1    1    2    0  502 -0.51758941522E+02  0.56447804913E+02  0.20414464058E+03  0.27833321215E+03  0.17300000000E+03 0. -1.
<mgrwt>
<rscale>  2 0.18919393E+03</rscale>
<asrwt>0</asrwt>
<pdfrwt beam="1">  1       21 0.38542023E-01 0.18919393E+03</pdfrwt>
<pdfrwt beam="2">  1       21 0.15399124E+00 0.18919393E+03</pdfrwt>
<totfact> 0.18164576E+03</totfact>
</mgrwt>
</event>
<event>
 4    1  0.3948468E+000  0.2652772E+03  0.7546771E-02  0.1104013E+00
         21   -1    0    0  503  502  0.00000000000E+00  0.00000000000E+00  0.11482950408E+03  0.11482950408E+03  0.00000000000E+00 0.  1.
         21   -1    0    0  501  503 -0.00000000000E+00 -0.00000000000E+00 -0.67712351520E+03  0.67712351520E+03  0.00000000000E+00 0. -1.
          6    1    1    2  501    0  0.19528938959E+03 -0.48010843669E+02 -0.40315520116E+03  0.48260346354E+03  0.17300000000E+03 0. -1.
         -6    1    1    2    0  502 -0.19528938959E+03  0.48010843669E+02 -0.15913880996E+03  0.30934955573E+03  0.17300000000E+03 0.  1.
<mgrwt>
<rscale>  2 0.26527719E+03</rscale>
<asrwt>0</asrwt>
<pdfrwt beam="1">  1       21 0.17666078E-01 0.26527719E+03</pdfrwt>
<pdfrwt beam="2">  1       21 0.10417285E+00 0.26527719E+03</pdfrwt>
<totfact> 0.20801543E+04</totfact>
</mgrwt>
</event>
<event>
 4    1  0.3948468E+000  0.2895813E+03  0.7546771E-02  0.1090568E+00
         21   -1    0    0  503  502  0.00000000000E+00  0.00000000000E+00  0.55246616079E+03  0.55246616079E+03  0.00000000000E+00 0. -1.
         21   -1    0    0  501  503 -0.00000000000E+00 -0.00000000000E+00 -0.15284103277E+03  0.15284103277E+03  0.00000000000E+00 0.  1.
          6    1    1    2  501    0  0.65413903092E+02  0.22282138115E+03  0.17053103967E+03  0.33606276513E+03  0.17300000000E+03 0.  1.
         -6    1    1    2    0  502 -0.65413903092E+02 -0.22282138115E+03  0.22909408834E+03  0.36924442843E+03  0.17300000000E+03 0. -1.
<mgrwt>
<rscale>  2 0.28958133E+03</rscale>
<asrwt>0</asrwt>
<pdfrwt beam="1">  1       21 0.84994793E-01 0.28958133E+03</pdfrwt>
<pdfrwt beam="2">  1       21 0.23514005E-01 0.28958133E+03</pdfrwt>
<totfact> 0.19404257E+04</totfact>
</mgrwt>
</event>
<event>
 4    1  0.3948468E+000  0.2449861E+03  0.7546771E-02  0.1116515E+00
         21   -1    0    0  501  502  0.00000000000E+00  0.00000000000E+00  0.73041096198E+02  0.73041096198E+02  0.00000000000E+00 0. -1.
         21   -1    0    0  502  503 -0.00000000000E+00 -0.00000000000E+00 -0.10064492970E+04  0.10064492970E+04  0.00000000000E+00 0.  1.
          6    1    1    2  501    0 -0.17005235642E+03  0.34225495766E+02 -0.23545551344E+03  0.33979035786E+03  0.17300000000E+03 0. -1.
         -6    1    1    2    0  503  0.17005235642E+03 -0.34225495766E+02 -0.69795268732E+03  0.73970003530E+03  0.17300000000E+03 0.  1.
<mgrwt>
<rscale>  2 0.24498610E+03</rscale>
<asrwt>0</asrwt>
<pdfrwt beam="1">  1       21 0.11237092E-01 0.24498610E+03</pdfrwt>
<pdfrwt beam="2">  1       21 0.15483836E+00 0.24498610E+03</pdfrwt>
<totfact> 0.17538611E+04</totfact>
</mgrwt>
</event>
<event>
 4    1  0.3948468E+000  0.2336306E+03  0.7546771E-02  0.1124110E+00
         21   -1    0    0  501  502  0.00000000000E+00  0.00000000000E+00  0.21517179155E+04  0.21517179155E+04  0.00000000000E+00 0. -1.
         21   -1    0    0  502  503 -0.00000000000E+00 -0.00000000000E+00 -0.12016892476E+03  0.12016892476E+03  0.00000000000E+00 0. -1.
          6    1    1    2  501    0 -0.12973585337E+03 -0.88446966329E+02  0.20247218834E+04  0.20381565108E+04  0.17300000000E+03 0. -1.
         -6    1    1    2    0  503  0.12973585337E+03  0.88446966329E+02  0.68271073343E+01  0.23373032943E+03  0.17300000000E+03 0. -1.
<mgrwt>
<rscale>  2 0.23363060E+03</rscale>
<asrwt>0</asrwt>
<pdfrwt beam="1">  1       21 0.33103350E+00 0.23363060E+03</pdfrwt>
<pdfrwt beam="2">  1       21 0.18487528E-01 0.23363060E+03</pdfrwt>
<totfact> 0.57063855E+02</totfact>
</mgrwt>
</event>
<event>
 4    1  0.3948468E+000  0.3120693E+03  0.7546771E-02  0.1079358E+00
         21   -1    0    0  501  502  0.00000000000E+00  0.00000000000E+00  0.11407063368E+04  0.11407063368E+04  0.00000000000E+00 0. -1.
         21   -1    0    0  502  503 -0.00000000000E+00 -0.00000000000E+00 -0.10188799496E+03  0.10188799496E+03  0.00000000000E+00 0.  1.
          6    1    1    2  501    0 -0.10320274681E+03 -0.23834313561E+03  0.26928417992E+03  0.41219076505E+03  0.17300000000E+03 0.  1.
         -6    1    1    2    0  503  0.10320274681E+03  0.23834313561E+03  0.76953416195E+03  0.83040356674E+03  0.17300000000E+03 0. -1.
<mgrwt>
<rscale>  2 0.31206931E+03</rscale>
<asrwt>0</asrwt>
<pdfrwt beam="1">  1       21 0.17549327E+00 0.31206931E+03</pdfrwt>
<pdfrwt beam="2">  1       21 0.15675077E-01 0.31206931E+03</pdfrwt>
<totfact> 0.65276002E+03</totfact>
</mgrwt>
</event>
<event>
 4    1  0.3948468E+000  0.1747792E+03  0.7546771E-02  0.1172954E+00
         21   -1    0    0  503  502  0.00000000000E+00  0.00000000000E+00  0.17895142285E+02  0.17895142285E+02  0.00000000000E+00 0. -1.
         21   -1    0    0  501  503 -0.00000000000E+00 -0.00000000000E+00 -0.17192347034E+04  0.17192347034E+04  0.00000000000E+00 0. -1.
          6    1    1    2  501    0  0.11558077389E+02  0.22026706440E+02 -0.92381387367E+03  0.94020201985E+03  0.17300000000E+03 0.  1.
         -6    1    1    2    0  502 -0.11558077389E+02 -0.22026706440E+02 -0.77752568745E+03  0.79692782583E+03  0.17300000000E+03 0.  1.
<mgrwt>
<rscale>  2 0.17477919E+03</rscale>
<asrwt>0</asrwt>
<pdfrwt beam="1">  1       21 0.27530990E-02 0.17477919E+03</pdfrwt>
<pdfrwt beam="2">  1       21 0.26449763E+00 0.17477919E+03</pdfrwt>
<totfact> 0.40512078E+04</totfact>
</mgrwt>
</event>
<event>
 4    1  0.3948468E+000  0.2445308E+03  0.7546771E-02  0.1116811E+00
         21   -1    0    0  503  502  0.00000000000E+00  0.00000000000E+00  0.23363123364E+03  0.23363123364E+03  0.00000000000E+00 0.  1.
         21   -1    0    0  501  503 -0.00000000000E+00 -0.00000000000E+00 -0.25615530420E+03  0.25615530420E+03  0.00000000000E+00 0.  1.
          6    1    1    2  501    0  0.15740267386E+03  0.71349335007E+02 -0.18379444352E+02  0.24522058094E+03  0.17300000000E+03 0.  1.
         -6    1    1    2    0  502 -0.15740267386E+03 -0.71349335007E+02 -0.41446262074E+01  0.24456595689E+03  0.17300000000E+03 0.  1.
<mgrwt>
<rscale>  2 0.24453084E+03</rscale>
<asrwt>0</asrwt>
<pdfrwt beam="1">  1       21 0.35943267E-01 0.24453084E+03</pdfrwt>
<pdfrwt beam="2">  1       21 0.39408508E-01 0.24453084E+03</pdfrwt>
<totfact> 0.45240789E+04</totfact>
</mgrwt>
</event>
<event>
 4    1  0.3948468E+000  0.2508694E+03  0.7546771E-02  0.1112757E+00
         21   -1    0    0  503  502  0.00000000000E+00  0.00000000000E+00  0.78890065977E+03  0.78890065977E+03  0.00000000000E+00 0. -1.
         21   -1    0    0  501  503 -0.00000000000E+00 -0.00000000000E+00 -0.80132159722E+02  0.80132159722E+02  0.00000000000E+00 0. -1.
          6    1    1    2  501    0  0.14612600278E+03 -0.10795216030E+03  0.32542295059E+03  0.41089606274E+03  0.17300000000E+03 0. -1.
         -6    1    1    2    0  502 -0.14612600278E+03  0.10795216030E+03  0.38334554946E+03  0.45813675676E+03  0.17300000000E+03 0. -1.
<mgrwt>
<rscale>  2 0.25086944E+03</rscale>
<asrwt>0</asrwt>
<pdfrwt beam="1">  1       21 0.12136933E+00 0.25086944E+03</pdfrwt>
<pdfrwt beam="2">  1       21 0.12328025E-01 0.25086944E+03</pdfrwt>
<totfact> 0.27811890E+04</totfact>
</mgrwt>
</event>
<event>
 4    1  0.3948468E+000  0.2376886E+03  0.7546771E-02  0.1121342E+00
         21   -1    0    0  503  502  0.00000000000E+00  0.00000000000E+00  0.39533612514E+02  0.39533612514E+02  0.00000000000E+00 0.  1.
         21   -1    0    0  501  503 -0.00000000000E+00 -0.00000000000E+00 -0.24643828254E+04  0.24643828254E+04  0.00000000000E+00 0.  1.
          6    1    1    2  501    0 -0.10372535589E+03  0.12572953909E+03 -0.20238971765E+04  0.20378065775E+04  0.17300000000E+03 0.  1.
         -6    1    1    2    0  502  0.10372535589E+03 -0.12572953909E+03 -0.40095203644E+03  0.46610986042E+03  0.17300000000E+03 0.  1.
<mgrwt>
<rscale>  2 0.23768859E+03</rscale>
<asrwt>0</asrwt>
<pdfrwt beam="1">  1       21 0.60820942E-02 0.23768859E+03</pdfrwt>
<pdfrwt beam="2">  1       21 0.37913582E+00 0.23768859E+03</pdfrwt>
<totfact> 0.21275400E+03</totfact>
</mgrwt>
</event>
<event>
 4    1  0.3948468E+000  0.1790249E+03  0.7546771E-02  0.1168750E+00
         21   -1    0    0  503  502  0.00000000000E+00  0.00000000000E+00  0.67653133510E+03  0.67653133510E+03  0.00000000000E+00 0.  1.
         21   -1    0    0  501  503 -0.00000000000E+00 -0.00000000000E+00 -0.15134929061E+03  0.15134929061E+03  0.00000000000E+00 0. -1.
          6    1    1    2  501    0  0.42892251241E+02 -0.16767610613E+02 -0.80502802278E+02  0.19629212709E+03  0.17300000000E+03 0. -1.
         -6    1    1    2    0  502 -0.42892251241E+02  0.16767610613E+02  0.60568484677E+03  0.63158849862E+03  0.17300000000E+03 0.  1.
<mgrwt>
<rscale>  2 0.17902485E+03</rscale>
<asrwt>0</asrwt>
<pdfrwt beam="1">  1       21 0.10408174E+00 0.17902485E+03</pdfrwt>
<pdfrwt beam="2">  1       21 0.23284507E-01 0.17902485E+03</pdfrwt>
<totfact> 0.13059175E+04</totfact>
</mgrwt>
</event>
<event>
 4    1  0.3948468E+000  0.2121672E+03  0.7546771E-02  0.1139861E+00
         21   -1    0    0  503  502  0.00000000000E+00  0.00000000000E+00  0.31017320111E+03  0.31017320111E+03  0.00000000000E+00 0.  1.
         21   -1    0    0  501  503 -0.00000000000E+00 -0.00000000000E+00 -0.15736647577E+03  0.15736647577E+03  0.00000000000E+00 0.  1.
          6    1    1    2  501    0  0.11390122459E+03  0.45961000798E+02  0.11211843609E+02  0.21246319209E+03  0.17300000000E+03 0.  1.
         -6    1    1    2    0  502 -0.11390122459E+03 -0.45961000798E+02  0.14159488174E+03  0.25507648479E+03  0.17300000000E+03 0.  1.
<mgrwt>
<rscale>  2 0.21216716E+03</rscale>
<asrwt>0</asrwt>
<pdfrwt beam="1">  1       21 0.47718954E-01 0.21216716E+03</pdfrwt>
<pdfrwt beam="2">  1       21 0.24210227E-01 0.21216716E+03</pdfrwt>
<totfact> 0.67021813E+04</totfact>
</mgrwt>
</event>
<event>
 4    1  0.3948468E+000  0.2338533E+03  0.7546771E-02  0.1123957E+00
         21   -1    0    0  501  502  0.00000000000E+00  0.00000000000E+00  0.43590734790E+03  0.43590734790E+03  0.00000000000E+00 0. -1.
         21   -1    0    0  502  503 -0.00000000000E+00 -0.00000000000E+00 -0.17591607243E+03  0.17591607243E+03  0.00000000000E+00 0. -1.
          6    1    1    2  501    0 -0.91751488853E+02 -0.12782819039E+03  0.29383392661E+03  0.37553396437E+03  0.17300000000E+03 0. -1.
         -6    1    1    2    0  503  0.91751488853E+02  0.12782819039E+03 -0.33842651138E+02  0.23628945597E+03  0.17300000000E+03 0. -1.
<mgrwt>
<rscale>  2 0.23385333E+03</rscale>
<asrwt>0</asrwt>
<pdfrwt beam="1">  1       21 0.67062668E-01 0.23385333E+03</pdfrwt>
<pdfrwt beam="2">  1       21 0.27064011E-01 0.23385333E+03</pdfrwt>
<totfact> 0.25904085E+04</totfact>
</mgrwt>
</event>
<event>
 4    1  0.3948468E+000  0.2799851E+03  0.7546771E-02  0.1095697E+00
         21   -1    0    0  501  502  0.00000000000E+00  0.00000000000E+00  0.35431584422E+03  0.35431584422E+03  0.00000000000E+00 0.  1.
         21   -1    0    0  502  503 -0.00000000000E+00 -0.00000000000E+00 -0.24515356665E+03  0.24515356665E+03  0.00000000000E+00 0.  1.
          6    1    1    2  501    0  0.16596410216E+03 -0.14463258608E+03 -0.39017070679E+02  0.28269064358E+03  0.17300000000E+03 0.  1.
         -6    1    1    2    0  503 -0.16596410216E+03  0.14463258608E+03  0.14817934825E+03  0.31677876730E+03  0.17300000000E+03 0.  1.
<mgrwt>
<rscale>  2 0.27998512E+03</rscale>
<asrwt>0</asrwt>
<pdfrwt beam="1">  1       21 0.54510130E-01 0.27998512E+03</pdfrwt>
<pdfrwt beam="2">  1       21 0.37715934E-01 0.27998512E+03</pdfrwt>
<totfact> 0.20612881E+04</totfact>
</mgrwt>
</event>
<event>
 4    1  0.3948468E+000  0.2358978E+03  0.7546771E-02  0.1122556E+00
         21   -1    0    0  501  502  0.00000000000E+00  0.00000000000E+00  0.46549119347E+03  0.46549119347E+03  0.00000000000E+00 0.  1.
         21   -1    0    0  502  503 -0.00000000000E+00 -0.00000000000E+00 -0.36739177447E+03  0.36739177447E+03  0.00000000000E+00 0.  1.
          6    1    1    2  501    0  0.13730492664E+03 -0.82862029509E+02  0.39109195655E+03  0.45672823133E+03  0.17300000000E+03 0.  1.
         -6    1    1    2    0  503 -0.13730492664E+03  0.82862029509E+02 -0.29299253755E+03  0.37615473661E+03  0.17300000000E+03 0.  1.
<mgrwt>
<rscale>  2 0.23589777E+03</rscale>
<asrwt>0</asrwt>
<pdfrwt beam="1">  1       21 0.71614030E-01 0.23589777E+03</pdfrwt>
<pdfrwt beam="2">  1       21 0.56521812E-01 0.23589777E+03</pdfrwt>
<totfact> 0.50263966E+03</totfact>
</mgrwt>
</event>
<event>
 4    1  0.3948468E+000  0.1948379E+03  0.7546771E-02  0.1154169E+00
         21   -1    0    0  503  502  0.00000000000E+00  0.00000000000E+00  0.88723151895E+02  0.88723151895E+02  0.00000000000E+00 0. -1.
         21   -1    0    0  501  503 -0.00000000000E+00 -0.00000000000E+00 -0.11428811640E+04  0.11428811640E+04  0.00000000000E+00 0. -1.
          6    1    1    2  501    0 -0.25993811576E+02 -0.85773703553E+02 -0.10141560451E+04  0.10327024209E+04  0.17300000000E+03 0. -1.
         -6    1    1    2    0  502  0.25993811576E+02  0.85773703553E+02 -0.40001967071E+02  0.19890189499E+03  0.17300000000E+03 0. -1.
<mgrwt>
<rscale>  2 0.19483790E+03</rscale>
<asrwt>0</asrwt>
<pdfrwt beam="1">  1       21 0.13649716E-01 0.19483790E+03</pdfrwt>
<pdfrwt beam="2">  1       21 0.17582786E+00 0.19483790E+03</pdfrwt>
<totfact> 0.90309340E+03</totfact>
</mgrwt>
</event>
<event>
 4    1  0.3948468E+000  0.4018764E+03  0.7546771E-02  0.1043132E+00
         21   -1    0    0  503  502  0.00000000000E+00  0.00000000000E+00  0.36085568787E+03  0.36085568787E+03  0.00000000000E+00 0.  1.
         21   -1    0    0  501  503 -0.00000000000E+00 -0.00000000000E+00 -0.77518931643E+03  0.77518931643E+03  0.00000000000E+00 0. -1.
          6    1    1    2  501    0  0.31000574145E+03  0.18834030965E+03 -0.57644437494E+03  0.70270388455E+03  0.17300000000E+03 0. -1.
         -6    1    1    2    0  502 -0.31000574145E+03 -0.18834030965E+03  0.16211074637E+03  0.43334111974E+03  0.17300000000E+03 0.  1.
<mgrwt>
<rscale>  2 0.40187639E+03</rscale>
<asrwt>0</asrwt>
<pdfrwt beam="1">  1       21 0.55516260E-01 0.40187639E+03</pdfrwt>
<pdfrwt beam="2">  1       21 0.11925989E+00 0.40187639E+03</pdfrwt>
<totfact> 0.14303823E+03</totfact>
</mgrwt>
</event>
<event>
 4    1  0.3948468E+000  0.2120411E+03  0.7546771E-02  0.1139960E+00
         21   -1    0    0  501  502  0.00000000000E+00  0.00000000000E+00  0.11185218452E+04  0.11185218452E+04  0.00000000000E+00 0.  1.
         21   -1    0    0  502  503 -0.00000000000E+00 -0.00000000000E+00 -0.41565315272E+02  0.41565315272E+02  0.00000000000E+00 0. -1.
          6    1    1    2  501    0  0.11160582837E+03 -0.50760056299E+02  0.43324410832E+03  0.48235039301E+03  0.17300000000E+03 0. -1.
         -6    1    1    2    0  503 -0.11160582837E+03  0.50760056299E+02  0.64371242166E+03  0.67773676751E+03  0.17300000000E+03 0. -1.
<mgrwt>
<rscale>  2 0.21204114E+03</rscale>
<asrwt>0</asrwt>
<pdfrwt beam="1">  1       21 0.17208026E+00 0.21204114E+03</pdfrwt>
<pdfrwt beam="2">  1       21 0.63946647E-02 0.21204114E+03</pdfrwt>
<totfact> 0.36032473E+04</totfact>
</mgrwt>
</event>
<event>
 4    1  0.3948468E+000  0.2481081E+03  0.7546771E-02  0.1114506E+00
         21   -1    0    0  503  502  0.00000000000E+00  0.00000000000E+00  0.10834051122E+04  0.10834051122E+04  0.00000000000E+00 0.  1.
         21   -1    0    0  501  503 -0.00000000000E+00 -0.00000000000E+00 -0.66532317203E+02  0.66532317203E+02  0.00000000000E+00 0.  1.
          6    1    1    2  501    0  0.72244350875E+02 -0.16250968316E+03  0.28874202482E+03  0.38069620467E+03  0.17300000000E+03 0.  1.
         -6    1    1    2    0  502 -0.72244350875E+02  0.16250968316E+03  0.72813077021E+03  0.76924122477E+03  0.17300000000E+03 0.  1.
<mgrwt>
<rscale>  2 0.24810813E+03</rscale>
<asrwt>0</asrwt>
<pdfrwt beam="1">  1       21 0.16667770E+00 0.24810813E+03</pdfrwt>
<pdfrwt beam="2">  1       21 0.10235742E-01 0.24810813E+03</pdfrwt>
<totfact> 0.16915818E+04</totfact>
</mgrwt>
</event>
<event>
 4    1  0.3948468E+000  0.1797127E+03  0.7546771E-02  0.1168081E+00
         21   -1    0    0  503  502  0.00000000000E+00  0.00000000000E+00  0.97107918435E+02  0.97107918435E+02  0.00000000000E+00 0. -1.
         21   -1    0    0  501  503 -0.00000000000E+00 -0.00000000000E+00 -0.64822889407E+03  0.64822889407E+03  0.00000000000E+00 0. -1.
          6    1    1    2  501    0  0.45501371746E+01 -0.48445275579E+02 -0.53561057207E+03  0.56495604554E+03  0.17300000000E+03 0. -1.
         -6    1    1    2    0  502 -0.45501371746E+01  0.48445275579E+02 -0.15510403567E+02  0.18038076697E+03  0.17300000000E+03 0. -1.
<mgrwt>
<rscale>  2 0.17971268E+03</rscale>
<asrwt>0</asrwt>
<pdfrwt beam="1">  1       21 0.14939679E-01 0.17971268E+03</pdfrwt>
<pdfrwt beam="2">  1       21 0.99727525E-01 0.17971268E+03</pdfrwt>
<totfact> 0.32887582E+04</totfact>
</mgrwt>
</event>
<event>
 4    1  0.3948468E+000  0.2446449E+03  0.7546771E-02  0.1116737E+00
         21   -1    0    0  501  502  0.00000000000E+00  0.00000000000E+00  0.63876552397E+03  0.63876552397E+03  0.00000000000E+00 0.  1.
         21   -1    0    0  502  503 -0.00000000000E+00 -0.00000000000E+00 -0.13731495253E+03  0.13731495253E+03  0.00000000000E+00 0.  1.
          6    1    1    2  501    0 -0.10133443836E+03 -0.14019086915E+03  0.32027313061E+02  0.24673244005E+03  0.17300000000E+03 0.  1.
         -6    1    1    2    0  503  0.10133443836E+03  0.14019086915E+03  0.46942325837E+03  0.52934803645E+03  0.17300000000E+03 0.  1.
<mgrwt>
<rscale>  2 0.24464494E+03</rscale>
<asrwt>0</asrwt>
<pdfrwt beam="1">  1       21 0.98271618E-01 0.24464494E+03</pdfrwt>
<pdfrwt beam="2">  1       21 0.21125378E-01 0.24464494E+03</pdfrwt>
<totfact> 0.17289462E+04</totfact>
</mgrwt>
</event>
<event>
 4    1  0.3948468E+000  0.3427317E+03  0.7546771E-02  0.1065638E+00
         21   -1    0    0  501  502  0.00000000000E+00  0.00000000000E+00  0.36270708838E+03  0.36270708838E+03  0.00000000000E+00 0.  1.
         21   -1    0    0  502  503 -0.00000000000E+00 -0.00000000000E+00 -0.61850550871E+03  0.61850550871E+03  0.00000000000E+00 0.  1.
          6    1    1    2  501    0 -0.29574676276E+03 -0.83589304390E+01  0.21072178687E+03  0.40232908279E+03  0.17300000000E+03 0.  1.
         -6    1    1    2    0  503  0.29574676276E+03  0.83589304390E+01 -0.46652020720E+03  0.57888351430E+03  0.17300000000E+03 0.  1.
<mgrwt>
<rscale>  2 0.34273170E+03</rscale>
<asrwt>0</asrwt>
<pdfrwt beam="1">  1       21 0.55801091E-01 0.34273170E+03</pdfrwt>
<pdfrwt beam="2">  1       21 0.95154692E-01 0.34273170E+03</pdfrwt>
<totfact> 0.25300261E+03</totfact>
</mgrwt>
</event>
<event>
 4    1  0.3948468E+000  0.1788880E+03  0.7546771E-02  0.1168884E+00
         21   -1    0    0  501  502  0.00000000000E+00  0.00000000000E+00  0.15943700410E+04  0.15943700410E+04  0.00000000000E+00 0. -1.
         21   -1    0    0  502  503 -0.00000000000E+00 -0.00000000000E+00 -0.80951749675E+02  0.80951749675E+02  0.00000000000E+00 0.  1.
          6    1    1    2  501    0  0.23907379365E+02  0.38734449513E+02  0.14831402027E+04  0.14938894809E+04  0.17300000000E+03 0. -1.
         -6    1    1    2    0  503 -0.23907379365E+02 -0.38734449513E+02  0.30278088620E+02  0.18143230974E+03  0.17300000000E+03 0.  1.
<mgrwt>
<rscale>  2 0.17888801E+03</rscale>
<asrwt>0</asrwt>
<pdfrwt beam="1">  1       21 0.24528768E+00 0.17888801E+03</pdfrwt>
<pdfrwt beam="2">  1       21 0.12454116E-01 0.17888801E+03</pdfrwt>
<totfact> 0.39507067E+03</totfact>
</mgrwt>
</event>
<event>
 4    1  0.3948468E+000  0.2046748E+03  0.7546771E-02  0.1145854E+00
         21   -1    0    0  503  502  0.00000000000E+00  0.00000000000E+00  0.54750173964E+03  0.54750173964E+03  0.00000000000E+00 0.  1.
         21   -1    0    0  501  503 -0.00000000000E+00 -0.00000000000E+00 -0.22428669105E+03  0.22428669105E+03  0.00000000000E+00 0.  1.
          6    1    1    2  501    0  0.13141976267E+02 -0.10858196131E+03 -0.15162226290E+03  0.25471761712E+03  0.17300000000E+03 0.  1.
         -6    1    1    2    0  502 -0.13141976267E+02  0.10858196131E+03  0.47483731149E+03  0.51707081357E+03  0.17300000000E+03 0.  1.
<mgrwt>
<rscale>  2 0.20467475E+03</rscale>
<asrwt>0</asrwt>
<pdfrwt beam="1">  1       21 0.84231037E-01 0.20467475E+03</pdfrwt>
<pdfrwt beam="2">  1       21 0.34505645E-01 0.20467475E+03</pdfrwt>
<totfact> 0.98203588E+03</totfact>
</mgrwt>
</event>
<event>
 4    1  0.3948468E+000  0.1892543E+03  0.7546771E-02  0.1159136E+00
         21   -1    0    0  503  502  0.00000000000E+00  0.00000000000E+00  0.17157264501E+03  0.17157264501E+03  0.00000000000E+00 0.  1.
         21   -1    0    0  501  503 -0.00000000000E+00 -0.00000000000E+00 -0.90094598543E+03  0.90094598543E+03  0.00000000000E+00 0. -1.
          6    1    1    2  501    0 -0.50341263822E+01  0.76569352794E+02 -0.83472948290E+03  0.85591501788E+03  0.17300000000E+03 0. -1.
         -6    1    1    2    0  502  0.50341263822E+01 -0.76569352794E+02  0.10535614248E+03  0.21660361256E+03  0.17300000000E+03 0.  1.
<mgrwt>
<rscale>  2 0.18925435E+03</rscale>
<asrwt>0</asrwt>
<pdfrwt beam="1">  1       21 0.26395791E-01 0.18925435E+03</pdfrwt>
<pdfrwt beam="2">  1       21 0.13860708E+00 0.18925435E+03</pdfrwt>
<totfact> 0.50264891E+03</totfact>
</mgrwt>
</event>
<event>
 4    1  0.3948468E+000  0.1793556E+03  0.7546771E-02  0.1168428E+00
         21   -1    0    0  503  502  0.00000000000E+00  0.00000000000E+00  0.16955140034E+04  0.16955140034E+04  0.00000000000E+00 0.  1.
         21   -1    0    0  501  503 -0.00000000000E+00 -0.00000000000E+00 -0.20374361124E+02  0.20374361124E+02  0.00000000000E+00 0.  1.
          6    1    1    2  501    0 -0.47112485325E+02 -0.44549544282E+01  0.61253863055E+03  0.63825700687E+03  0.17300000000E+03 0.  1.
         -6    1    1    2    0  502  0.47112485325E+02  0.44549544282E+01  0.10626010117E+04  0.10776313576E+04  0.17300000000E+03 0.  1.
<mgrwt>
<rscale>  2 0.17935560E+03</rscale>
<asrwt>0</asrwt>
<pdfrwt beam="1">  1       21 0.26084820E+00 0.17935560E+03</pdfrwt>
<pdfrwt beam="2">  1       21 0.31345184E-02 0.17935560E+03</pdfrwt>
<totfact> 0.34193157E+04</totfact>
</mgrwt>
</event>
<event>
 4    1  0.3948468E+000  0.1959466E+03  0.7546771E-02  0.1153205E+00
         21   -1    0    0  501  502  0.00000000000E+00  0.00000000000E+00  0.12613720187E+04  0.12613720187E+04  0.00000000000E+00 0. -1.
         21   -1    0    0  502  503 -0.00000000000E+00 -0.00000000000E+00 -0.98150581900E+02  0.98150581900E+02  0.00000000000E+00 0.  1.
          6    1    1    2  501    0  0.54416889538E+02 -0.74194926634E+02  0.11462109001E+04  0.11628389882E+04  0.17300000000E+03 0. -1.
         -6    1    1    2    0  503 -0.54416889538E+02  0.74194926634E+02  0.17010536653E+02  0.19668361234E+03  0.17300000000E+03 0.  1.
<mgrwt>
<rscale>  2 0.19594664E+03</rscale>
<asrwt>0</asrwt>
<pdfrwt beam="1">  1       21 0.19405722E+00 0.19594664E+03</pdfrwt>
<pdfrwt beam="2">  1       21 0.15100090E-01 0.19594664E+03</pdfrwt>
<totfact> 0.56688360E+03</totfact>
</mgrwt>
</event>
<event>
 4    1  0.3948468E+000  0.2098465E+03  0.7546771E-02  0.1141688E+00
         21   -1    0    0  501  502  0.00000000000E+00  0.00000000000E+00  0.13152171030E+04  0.13152171030E+04  0.00000000000E+00 0. -1.
         21   -1    0    0  502  503 -0.00000000000E+00 -0.00000000000E+00 -0.41428359488E+02  0.41428359488E+02  0.00000000000E+00 0. -1.
          6    1    1    2  501    0  0.82727763334E+02 -0.85221259746E+02  0.93398099589E+03  0.95726487799E+03  0.17300000000E+03 0. -1.
         -6    1    1    2    0  503 -0.82727763334E+02  0.85221259746E+02  0.33980774765E+03  0.39938058454E+03  0.17300000000E+03 0. -1.
<mgrwt>
<rscale>  2 0.20984648E+03</rscale>
<asrwt>0</asrwt>
<pdfrwt beam="1">  1       21 0.20234106E+00 0.20984648E+03</pdfrwt>
<pdfrwt beam="2">  1       21 0.63735948E-02 0.20984648E+03</pdfrwt>
<totfact> 0.22769955E+04</totfact>
</mgrwt>
</event>
<event>
 4    1  0.3948468E+000  0.1995211E+03  0.7546771E-02  0.1150144E+00
         21   -1    0    0  503  502  0.00000000000E+00  0.00000000000E+00  0.81487786419E+02  0.81487786419E+02  0.00000000000E+00 0.  1.
         21   -1    0    0  501  503 -0.00000000000E+00 -0.00000000000E+00 -0.12128550107E+04  0.12128550107E+04  0.00000000000E+00 0.  1.
          6    1    1    2  501    0 -0.93642240752E+02 -0.33328458880E+02 -0.10658145499E+04  0.10843289677E+04  0.17300000000E+03 0.  1.
         -6    1    1    2    0  502  0.93642240752E+02  0.33328458880E+02 -0.65552674371E+02  0.21001382941E+03  0.17300000000E+03 0.  1.
<mgrwt>
<rscale>  2 0.19952107E+03</rscale>
<asrwt>0</asrwt>
<pdfrwt beam="1">  1       21 0.12536583E-01 0.19952107E+03</pdfrwt>
<pdfrwt beam="2">  1       21 0.18659307E+00 0.19952107E+03</pdfrwt>
<totfact> 0.88631621E+03</totfact>
</mgrwt>
</event>
<event>
 4    1  0.3948468E+000  0.1957512E+03  0.7546771E-02  0.1153374E+00
         21   -1    0    0  503  502  0.00000000000E+00  0.00000000000E+00  0.35110004070E+03  0.35110004070E+03  0.00000000000E+00 0.  1.
         21   -1    0    0  501  503 -0.00000000000E+00 -0.00000000000E+00 -0.14862919370E+03  0.14862919370E+03  0.00000000000E+00 0.  1.
          6    1    1    2  501    0 -0.74587070476E+02 -0.53162959812E+02 -0.27559898096E+02  0.19768176284E+03  0.17300000000E+03 0.  1.
         -6    1    1    2    0  502  0.74587070476E+02  0.53162959812E+02  0.23003074510E+03  0.30204747155E+03  0.17300000000E+03 0.  1.
<mgrwt>
<rscale>  2 0.19575120E+03</rscale>
<asrwt>0</asrwt>
<pdfrwt beam="1">  1       21 0.54015390E-01 0.19575120E+03</pdfrwt>
<pdfrwt beam="2">  1       21 0.22866030E-01 0.19575120E+03</pdfrwt>
<totfact> 0.58070717E+04</totfact>
</mgrwt>
</event>
<event>
 4    1  0.3948468E+000  0.1918258E+03  0.7546771E-02  0.1156825E+00
         21   -1    0    0  501  502  0.00000000000E+00  0.00000000000E+00  0.18167450544E+03  0.18167450544E+03  0.00000000000E+00 0. -1.
         21   -1    0    0  502  503 -0.00000000000E+00 -0.00000000000E+00 -0.27393384304E+03  0.27393384304E+03  0.00000000000E+00 0. -1.
          6    1    1    2  501    0 -0.62780232652E+01 -0.82636145087E+02  0.70163969412E+02  0.20425505784E+03  0.17300000000E+03 0. -1.
         -6    1    1    2    0  503  0.62780232652E+01  0.82636145087E+02 -0.16242330702E+03  0.25135329064E+03  0.17300000000E+03 0. -1.
<mgrwt>
<rscale>  2 0.19182582E+03</rscale>
<asrwt>0</asrwt>
<pdfrwt beam="1">  1       21 0.27949924E-01 0.19182582E+03</pdfrwt>
<pdfrwt beam="2">  1       21 0.42143668E-01 0.19182582E+03</pdfrwt>
<totfact> 0.66271722E+04</totfact>
</mgrwt>
</event>
<event>
 4    1  0.3948468E+000  0.2054576E+03  0.7546771E-02  0.1145214E+00
         21   -1    0    0  503  502  0.00000000000E+00  0.00000000000E+00  0.62448680446E+03  0.62448680446E+03  0.00000000000E+00 0.  1.
         21   -1    0    0  501  503 -0.00000000000E+00 -0.00000000000E+00 -0.12126818586E+03  0.12126818586E+03  0.00000000000E+00 0. -1.
          6    1    1    2  501    0 -0.62820793168E+02 -0.91309201700E+02  0.35432808279E+01  0.20548814372E+03  0.17300000000E+03 0. -1.
         -6    1    1    2    0  502  0.62820793168E+02  0.91309201700E+02  0.49967533777E+03  0.54026684661E+03  0.17300000000E+03 0.  1.
<mgrwt>
<rscale>  2 0.20545759E+03</rscale>
<asrwt>0</asrwt>
<pdfrwt beam="1">  1       21 0.96074891E-01 0.20545759E+03</pdfrwt>
<pdfrwt beam="2">  1       21 0.18656644E-01 0.20545759E+03</pdfrwt>
<totfact> 0.23524094E+04</totfact>
</mgrwt>
</event>
<event>
 4    1  0.3948468E+000  0.1895151E+03  0.7546771E-02  0.1158899E+00
         21   -1    0    0  501  502  0.00000000000E+00  0.00000000000E+00  0.50918683782E+02  0.50918683782E+02  0.00000000000E+00 0.  1.
         21   -1    0    0  502  503 -0.00000000000E+00 -0.00000000000E+00 -0.79286417720E+03  0.79286417720E+03  0.00000000000E+00 0.  1.
          6    1    1    2  501    0 -0.65780779428E+02  0.40741340260E+02 -0.23081490325E+03  0.29864943883E+03  0.17300000000E+03 0.  1.
         -6    1    1    2    0  503  0.65780779428E+02 -0.40741340260E+02 -0.51113059017E+03  0.54513342216E+03  0.17300000000E+03 0.  1.
<mgrwt>
<rscale>  2 0.18951509E+03</rscale>
<asrwt>0</asrwt>
<pdfrwt beam="1">  1       21 0.78336444E-02 0.18951509E+03</pdfrwt>
<pdfrwt beam="2">  1       21 0.12197909E+00 0.18951509E+03</pdfrwt>
<totfact> 0.63212102E+04</totfact>
</mgrwt>
</event>
<event>
 4    1  0.3948468E+000  0.1787473E+03  0.7546771E-02  0.1169021E+00
         21   -1    0    0  501  502  0.00000000000E+00  0.00000000000E+00  0.86512032584E+03  0.86512032584E+03  0.00000000000E+00 0. -1.
         21   -1    0    0  502  503 -0.00000000000E+00 -0.00000000000E+00 -0.64774821116E+02  0.64774821116E+02  0.00000000000E+00 0. -1.
          6    1    1    2  501    0 -0.31351518295E+02 -0.32228478981E+02  0.70500280092E+03  0.72730979772E+03  0.17300000000E+03 0. -1.
         -6    1    1    2    0  503  0.31351518295E+02  0.32228478981E+02  0.95342703809E+02  0.20258534924E+03  0.17300000000E+03 0. -1.
<mgrwt>
<rscale>  2 0.17874729E+03</rscale>
<asrwt>0</asrwt>
<pdfrwt beam="1">  1       21 0.13309543E+00 0.17874729E+03</pdfrwt>
<pdfrwt beam="2">  1       21 0.99653577E-02 0.17874729E+03</pdfrwt>
<totfact> 0.33524764E+04</totfact>
</mgrwt>
</event>
<event>
 4    1  0.3948468E+000  0.2260137E+03  0.7546771E-02  0.1129477E+00
         21   -1    0    0  503  502  0.00000000000E+00  0.00000000000E+00  0.13921501348E+03  0.13921501348E+03  0.00000000000E+00 0.  1.
         21   -1    0    0  501  503 -0.00000000000E+00 -0.00000000000E+00 -0.45206410038E+03  0.45206410038E+03  0.00000000000E+00 0.  1.
          6    1    1    2  501    0 -0.91367205876E+02 -0.11316012135E+03 -0.28472081727E+03  0.36352183313E+03  0.17300000000E+03 0.  1.
         -6    1    1    2    0  502  0.91367205876E+02  0.11316012135E+03 -0.28128269636E+02  0.22775728073E+03  0.17300000000E+03 0.  1.
<mgrwt>
<rscale>  2 0.22601367E+03</rscale>
<asrwt>0</asrwt>
<pdfrwt beam="1">  1       21 0.21417694E-01 0.22601367E+03</pdfrwt>
<pdfrwt beam="2">  1       21 0.69548323E-01 0.22601367E+03</pdfrwt>
<totfact> 0.37519853E+04</totfact>
</mgrwt>
</event>
<event>
 4    1  0.3948468E+000  0.2270221E+03  0.7546771E-02  0.1128753E+00
         21   -1    0    0  501  502  0.00000000000E+00  0.00000000000E+00  0.32785136116E+03  0.32785136116E+03  0.00000000000E+00 0. -1.
         21   -1    0    0  502  503 -0.00000000000E+00 -0.00000000000E+00 -0.24195053985E+03  0.24195053985E+03  0.00000000000E+00 0.  1.
          6    1    1    2  501    0  0.11314207308E+02  0.14656751540E+03  0.21156512705E+03  0.31032056142E+03  0.17300000000E+03 0. -1.
         -6    1    1    2    0  503 -0.11314207308E+02 -0.14656751540E+03 -0.12566430574E+03  0.25948133959E+03  0.17300000000E+03 0.  1.
<mgrwt>
<rscale>  2 0.22702213E+03</rscale>
<asrwt>0</asrwt>
<pdfrwt beam="1">  1       21 0.50438671E-01 0.22702213E+03</pdfrwt>
<pdfrwt beam="2">  1       21 0.37223160E-01 0.22702213E+03</pdfrwt>
<totfact> 0.25560746E+04</totfact>
</mgrwt>
</event>
<event>
 4    1  0.3948468E+000  0.2322457E+03  0.7546771E-02  0.1125069E+00
         21   -1    0    0  503  502  0.00000000000E+00  0.00000000000E+00  0.11280676304E+03  0.11280676304E+03  0.00000000000E+00 0.  1.
         21   -1    0    0  501  503 -0.00000000000E+00 -0.00000000000E+00 -0.73834474640E+03  0.73834474640E+03  0.00000000000E+00 0. -1.
          6    1    1    2  501    0  0.67793058043E+02 -0.13933114969E+03 -0.56540784345E+03  0.61124798358E+03  0.17300000000E+03 0. -1.
         -6    1    1    2    0  502 -0.67793058043E+02  0.13933114969E+03 -0.60130139914E+02  0.23990352586E+03  0.17300000000E+03 0.  1.
<mgrwt>
<rscale>  2 0.23224571E+03</rscale>
<asrwt>0</asrwt>
<pdfrwt beam="1">  1       21 0.17354888E-01 0.23224571E+03</pdfrwt>
<pdfrwt beam="2">  1       21 0.11359149E+00 0.23224571E+03</pdfrwt>
<totfact> 0.17709313E+04</totfact>
</mgrwt>
</event>
<event>
 4    1  0.3948468E+000  0.1885833E+03  0.7546771E-02  0.1159745E+00
         21   -1    0    0  501  502  0.00000000000E+00  0.00000000000E+00  0.10353829493E+03  0.10353829493E+03  0.00000000000E+00 0.  1.
         21   -1    0    0  502  503 -0.00000000000E+00 -0.00000000000E+00 -0.34348538891E+03  0.34348538891E+03  0.00000000000E+00 0.  1.
          6    1    1    2  501    0  0.70833977488E+02  0.24844030130E+02 -0.11942616252E+03  0.22321802458E+03  0.17300000000E+03 0.  1.
         -6    1    1    2    0  503 -0.70833977488E+02 -0.24844030130E+02 -0.12052093146E+03  0.22380565926E+03  0.17300000000E+03 0.  1.
<mgrwt>
<rscale>  2 0.18858335E+03</rscale>
<asrwt>0</asrwt>
<pdfrwt beam="1">  1       21 0.15928968E-01 0.18858335E+03</pdfrwt>
<pdfrwt beam="2">  1       21 0.52843906E-01 0.18858335E+03</pdfrwt>
<totfact> 0.11947302E+05</totfact>
</mgrwt>
</event>
<event>
 4    1  0.3948468E+000  0.1989948E+03  0.7546771E-02  0.1150590E+00
         21   -1    0    0  503  502  0.00000000000E+00  0.00000000000E+00  0.60019333687E+02  0.60019333687E+02  0.00000000000E+00 0.  1.
         21   -1    0    0  501  503 -0.00000000000E+00 -0.00000000000E+00 -0.96284318081E+03  0.96284318081E+03  0.00000000000E+00 0. -1.
          6    1    1    2  501    0 -0.75131604724E+02 -0.63444150067E+02 -0.73834703179E+03  0.76469291716E+03  0.17300000000E+03 0. -1.
         -6    1    1    2    0  502  0.75131604724E+02  0.63444150067E+02 -0.16447681533E+03  0.25816959734E+03  0.17300000000E+03 0.  1.
<mgrwt>
<rscale>  2 0.19899477E+03</rscale>
<asrwt>0</asrwt>
<pdfrwt beam="1">  1       21 0.92337443E-02 0.19899477E+03</pdfrwt>
<pdfrwt beam="2">  1       21 0.14812971E+00 0.19899477E+03</pdfrwt>
<totfact> 0.28732450E+04</totfact>
</mgrwt>
</event>
<event>
 4    1  0.3948468E+000  0.2626426E+03  0.7546771E-02  0.1105566E+00
         21   -1    0    0  503  502  0.00000000000E+00  0.00000000000E+00  0.16461484979E+03  0.16461484979E+03  0.00000000000E+00 0.  1.
         21   -1    0    0  501  503 -0.00000000000E+00 -0.00000000000E+00 -0.50073423072E+03  0.50073423072E+03  0.00000000000E+00 0. -1.
          6    1    1    2  501    0  0.36711277639E+02  0.19417625851E+03 -0.30242791887E+03  0.40055434512E+03  0.17300000000E+03 0. -1.
         -6    1    1    2    0  502 -0.36711277639E+02 -0.19417625851E+03 -0.33691462061E+02  0.26479473539E+03  0.17300000000E+03 0.  1.
<mgrwt>
<rscale>  2 0.26264260E+03</rscale>
<asrwt>0</asrwt>
<pdfrwt beam="1">  1       21 0.25325362E-01 0.26264260E+03</pdfrwt>
<pdfrwt beam="2">  1       21 0.77036035E-01 0.26264260E+03</pdfrwt>
<totfact> 0.21321401E+04</totfact>
</mgrwt>
</event>
<event>
 4    1  0.3948468E+000  0.1988111E+03  0.7546771E-02  0.1150746E+00
         21   -1    0    0  501  502  0.00000000000E+00  0.00000000000E+00  0.71435228344E+03  0.71435228344E+03  0.00000000000E+00 0. -1.
         21   -1    0    0  502  503 -0.00000000000E+00 -0.00000000000E+00 -0.99160594810E+02  0.99160594810E+02  0.00000000000E+00 0. -1.
          6    1    1    2  501    0  0.59510660789E+02  0.77816124764E+02  0.57802176248E+03  0.61125692301E+03  0.17300000000E+03 0. -1.
         -6    1    1    2    0  503 -0.59510660789E+02 -0.77816124764E+02  0.37169926146E+02  0.20225595524E+03  0.17300000000E+03 0. -1.
<mgrwt>
<rscale>  2 0.19881114E+03</rscale>
<asrwt>0</asrwt>
<pdfrwt beam="1">  1       21 0.10990035E+00 0.19881114E+03</pdfrwt>
<pdfrwt beam="2">  1       21 0.15255477E-01 0.19881114E+03</pdfrwt>
<totfact> 0.24805738E+04</totfact>
</mgrwt>
</event>
<event>
 4    1  0.3948468E+000  0.1876309E+03  0.7546771E-02  0.1160616E+00
         21   -1    0    0  503  502  0.00000000000E+00  0.00000000000E+00  0.14222452160E+03  0.14222452160E+03  0.00000000000E+00 0. -1.
         21   -1    0    0  501  503 -0.00000000000E+00 -0.00000000000E+00 -0.29938147224E+03  0.29938147224E+03  0.00000000000E+00 0. -1.
          6    1    1    2  501    0 -0.46222822512E+02  0.56033814499E+02  0.13309413164E+02  0.18810230771E+03  0.17300000000E+03 0. -1.
         -6    1    1    2    0  502  0.46222822512E+02 -0.56033814499E+02 -0.17046636381E+03  0.25350368613E+03  0.17300000000E+03 0. -1.
<mgrwt>
<rscale>  2 0.18763085E+03</rscale>
<asrwt>0</asrwt>
<pdfrwt beam="1">  1       21 0.21880696E-01 0.18763085E+03</pdfrwt>
<pdfrwt beam="2">  1       21 0.46058688E-01 0.18763085E+03</pdfrwt>
<totfact> 0.88271005E+04</totfact>
</mgrwt>
</event>
<event>
 4    1  0.3948468E+000  0.1997114E+03  0.7546771E-02  0.1149983E+00
         21   -1    0    0  503  502  0.00000000000E+00  0.00000000000E+00  0.32716431034E+03  0.32716431034E+03  0.00000000000E+00 0.  1.
         21   -1    0    0  501  503 -0.00000000000E+00 -0.00000000000E+00 -0.12962411249E+03  0.12962411249E+03  0.00000000000E+00 0.  1.
          6    1    1    2  501    0  0.99686375128E+02  0.42721810502E+01  0.43053688756E+02  0.20429940047E+03  0.17300000000E+03 0.  1.
         -6    1    1    2    0  502 -0.99686375128E+02 -0.42721810502E+01  0.15448650910E+03  0.25248902236E+03  0.17300000000E+03 0.  1.
<mgrwt>
<rscale>  2 0.19971135E+03</rscale>
<asrwt>0</asrwt>
<pdfrwt beam="1">  1       21 0.50332970E-01 0.19971135E+03</pdfrwt>
<pdfrwt beam="2">  1       21 0.19942171E-01 0.19971135E+03</pdfrwt>
<totfact> 0.86957890E+04</totfact>
</mgrwt>
</event>
<event>
 4    1  0.3948468E+000  0.2006518E+03  0.7546771E-02  0.1149190E+00
         21   -1    0    0  501  502  0.00000000000E+00  0.00000000000E+00  0.12121441885E+03  0.12121441885E+03  0.00000000000E+00 0.  1.
         21   -1    0    0  502  503 -0.00000000000E+00 -0.00000000000E+00 -0.36405965795E+03  0.36405965795E+03  0.00000000000E+00 0.  1.
          6    1    1    2  501    0 -0.14683565125E+02 -0.10058091883E+03 -0.49586077864E+02  0.20668794700E+03  0.17300000000E+03 0.  1.
         -6    1    1    2    0  503  0.14683565125E+02  0.10058091883E+03 -0.19325916124E+03  0.27858612980E+03  0.17300000000E+03 0.  1.
<mgrwt>
<rscale>  2 0.20065176E+03</rscale>
<asrwt>0</asrwt>
<pdfrwt beam="1">  1       21 0.18648373E-01 0.20065176E+03</pdfrwt>
<pdfrwt beam="2">  1       21 0.56009176E-01 0.20065176E+03</pdfrwt>
<totfact> 0.78644413E+04</totfact>
</mgrwt>
</event>
<event>
 4    1  0.3948468E+000  0.2051344E+03  0.7546771E-02  0.1145478E+00
         21   -1    0    0  503  502  0.00000000000E+00  0.00000000000E+00  0.91912765073E+03  0.91912765073E+03  0.00000000000E+00 0.  1.
         21   -1    0    0  501  503 -0.00000000000E+00 -0.00000000000E+00 -0.11188329913E+03  0.11188329913E+03  0.00000000000E+00 0.  1.
          6    1    1    2  501    0 -0.98964419945E+02 -0.48550789221E+02  0.73866750872E+01  0.20526738299E+03  0.17300000000E+03 0.  1.
         -6    1    1    2    0  502  0.98964419945E+02  0.48550789221E+02  0.79985767652E+03  0.82574356687E+03  0.17300000000E+03 0.  1.
<mgrwt>
<rscale>  2 0.20513443E+03</rscale>
<asrwt>0</asrwt>
<pdfrwt beam="1">  1       21 0.14140425E+00 0.20513443E+03</pdfrwt>
<pdfrwt beam="2">  1       21 0.17212816E-01 0.20513443E+03</pdfrwt>
<totfact> 0.10535136E+04</totfact>
</mgrwt>
</event>
<event>
 4    1  0.3948468E+000  0.1910933E+03  0.7546771E-02  0.1157479E+00
         21   -1    0    0  501  502  0.00000000000E+00  0.00000000000E+00  0.27717771409E+03  0.27717771409E+03  0.00000000000E+00 0. -1.
         21   -1    0    0  502  503 -0.00000000000E+00 -0.00000000000E+00 -0.15302924843E+03  0.15302924843E+03  0.00000000000E+00 0. -1.
          6    1    1    2  501    0  0.62558752612E+02  0.51711220060E+02 -0.18147892952E+02  0.19195310320E+03  0.17300000000E+03 0. -1.
         -6    1    1    2    0  503 -0.62558752612E+02 -0.51711220060E+02  0.14229635862E+03  0.23825385933E+03  0.17300000000E+03 0. -1.
<mgrwt>
<rscale>  2 0.19109330E+03</rscale>
<asrwt>0</asrwt>
<pdfrwt beam="1">  1       21 0.42642725E-01 0.19109330E+03</pdfrwt>
<pdfrwt beam="2">  1       21 0.23542961E-01 0.19109330E+03</pdfrwt>
<totfact> 0.89887585E+04</totfact>
</mgrwt>
</event>
<event>
 4    1  0.3948468E+000  0.2014998E+03  0.7546771E-02  0.1148480E+00
         21   -1    0    0  501  502  0.00000000000E+00  0.00000000000E+00  0.30837083301E+03  0.30837083301E+03  0.00000000000E+00 0. -1.
         21   -1    0    0  502  503 -0.00000000000E+00 -0.00000000000E+00 -0.13381501874E+03  0.13381501874E+03  0.00000000000E+00 0. -1.
          6    1    1    2  501    0  0.39648882706E+02  0.95399924664E+02  0.59264325409E+02  0.21003437764E+03  0.17300000000E+03 0. -1.
         -6    1    1    2    0  503 -0.39648882706E+02 -0.95399924664E+02  0.11529148886E+03  0.23215147410E+03  0.17300000000E+03 0. -1.
<mgrwt>
<rscale>  2 0.20149983E+03</rscale>
<asrwt>0</asrwt>
<pdfrwt beam="1">  1       21 0.47441666E-01 0.20149983E+03</pdfrwt>
<pdfrwt beam="2">  1       21 0.20586926E-01 0.20149983E+03</pdfrwt>
<totfact> 0.92588894E+04</totfact>
</mgrwt>
</event>
<event>
 4    1  0.3948468E+000  0.1883154E+03  0.7546771E-02  0.1159990E+00
         21   -1    0    0  501  502  0.00000000000E+00  0.00000000000E+00  0.49458332240E+03  0.49458332240E+03  0.00000000000E+00 0.  1.
         21   -1    0    0  502  503 -0.00000000000E+00 -0.00000000000E+00 -0.13090664654E+03  0.13090664654E+03  0.00000000000E+00 0. -1.
          6    1    1    2  501    0  0.44392983985E+01  0.74256291649E+02  0.39216131840E+03  0.43503241703E+03  0.17300000000E+03 0.  1.
         -6    1    1    2    0  503 -0.44392983985E+01 -0.74256291649E+02 -0.28484642533E+02  0.19045755191E+03  0.17300000000E+03 0. -1.
<mgrwt>
<rscale>  2 0.18831544E+03</rscale>
<asrwt>0</asrwt>
<pdfrwt beam="1">  1       21 0.76089741E-01 0.18831544E+03</pdfrwt>
<pdfrwt beam="2">  1       21 0.20139484E-01 0.18831544E+03</pdfrwt>
<totfact> 0.35157262E+04</totfact>
</mgrwt>
</event>
<event>
 4    1  0.3948468E+000  0.1948827E+03  0.7546771E-02  0.1154130E+00
         21   -1    0    0  501  502  0.00000000000E+00  0.00000000000E+00  0.10988414996E+04  0.10988414996E+04  0.00000000000E+00 0. -1.
         21   -1    0    0  502  503 -0.00000000000E+00 -0.00000000000E+00 -0.98595762856E+02  0.98595762856E+02  0.00000000000E+00 0. -1.
          6    1    1    2  501    0 -0.29608280466E+02 -0.84697270945E+02  0.98261996940E+03  0.10017590939E+04  0.17300000000E+03 0. -1.
         -6    1    1    2    0  503  0.29608280466E+02  0.84697270945E+02  0.17625767367E+02  0.19567816857E+03  0.17300000000E+03 0. -1.
<mgrwt>
<rscale>  2 0.19488273E+03</rscale>
<asrwt>0</asrwt>
<pdfrwt beam="1">  1       21 0.16905253E+00 0.19488273E+03</pdfrwt>
<pdfrwt beam="2">  1       21 0.15168580E-01 0.19488273E+03</pdfrwt>
<totfact> 0.83139929E+03</totfact>
</mgrwt>
</event>
<event>
 4    1  0.3948468E+000  0.2677675E+03  0.7546771E-02  0.1102564E+00
         21   -1    0    0  501  502  0.00000000000E+00  0.00000000000E+00  0.44046993441E+03  0.44046993441E+03  0.00000000000E+00 0.  1.
         21   -1    0    0  502  503 -0.00000000000E+00 -0.00000000000E+00 -0.17508910110E+03  0.17508910110E+03  0.00000000000E+00 0. -1.
          6    1    1    2  501    0 -0.20390387748E+03  0.13915809268E+02  0.21429856749E+03  0.34296255923E+03  0.17300000000E+03 0.  1.
         -6    1    1    2    0  503  0.20390387748E+03 -0.13915809268E+02  0.51082265825E+02  0.27259647628E+03  0.17300000000E+03 0. -1.
<mgrwt>
<rscale>  2 0.26776751E+03</rscale>
<asrwt>0</asrwt>
<pdfrwt beam="1">  1       21 0.67764605E-01 0.26776751E+03</pdfrwt>
<pdfrwt beam="2">  1       21 0.26936785E-01 0.26776751E+03</pdfrwt>
<totfact> 0.25153512E+04</totfact>
</mgrwt>
</event>
<event>
 4    1  0.3948468E+000  0.1796139E+03  0.7546771E-02  0.1168177E+00
         21   -1    0    0  503  502  0.00000000000E+00  0.00000000000E+00  0.54503897073E+03  0.54503897073E+03  0.00000000000E+00 0.  1.
         21   -1    0    0  501  503 -0.00000000000E+00 -0.00000000000E+00 -0.14084047604E+03  0.14084047604E+03  0.00000000000E+00 0.  1.
          6    1    1    2  501    0  0.82570642397E+01 -0.47581313890E+02 -0.59015817541E+02  0.18906090887E+03  0.17300000000E+03 0.  1.
         -6    1    1    2    0  502 -0.82570642397E+01  0.47581313890E+02  0.46321431224E+03  0.49681853790E+03  0.17300000000E+03 0.  1.
<mgrwt>
<rscale>  2 0.17961392E+03</rscale>
<asrwt>0</asrwt>
<pdfrwt beam="1">  1       21 0.83852148E-01 0.17961392E+03</pdfrwt>
<pdfrwt beam="2">  1       21 0.21667766E-01 0.17961392E+03</pdfrwt>
<totfact> 0.24739825E+04</totfact>
</mgrwt>
</event>
<event>
 4    1  0.3948468E+000  0.1799702E+03  0.7546771E-02  0.1167832E+00
         21   -1    0    0  501  502  0.00000000000E+00  0.00000000000E+00  0.59942581474E+02  0.59942581474E+02  0.00000000000E+00 0. -1.
         21   -1    0    0  502  503 -0.00000000000E+00 -0.00000000000E+00 -0.68688862144E+03  0.68688862144E+03  0.00000000000E+00 0. -1.
          6    1    1    2  501    0 -0.15384535255E+01 -0.49577417303E+02 -0.14099159746E+03  0.22862177871E+03  0.17300000000E+03 0. -1.
         -6    1    1    2    0  503  0.15384535255E+01  0.49577417303E+02 -0.48595444250E+03  0.51820942421E+03  0.17300000000E+03 0. -1.
<mgrwt>
<rscale>  2 0.17997024E+03</rscale>
<asrwt>0</asrwt>
<pdfrwt beam="1">  1       21 0.92219357E-02 0.17997024E+03</pdfrwt>
<pdfrwt beam="2">  1       21 0.10567517E+00 0.17997024E+03</pdfrwt>
<totfact> 0.67734313E+04</totfact>
</mgrwt>
</event>
<event>
 4    1  0.3948468E+000  0.2147423E+03  0.7546771E-02  0.1137865E+00
         21   -1    0    0  503  502  0.00000000000E+00  0.00000000000E+00  0.23421553470E+03  0.23421553470E+03  0.00000000000E+00 0.  1.
         21   -1    0    0  501  503 -0.00000000000E+00 -0.00000000000E+00 -0.62919852978E+03  0.62919852978E+03  0.00000000000E+00 0.  1.
          6    1    1    2  501    0 -0.67452988091E+02 -0.10786725182E+03 -0.55533499880E+03  0.59540844008E+03  0.17300000000E+03 0.  1.
         -6    1    1    2    0  502  0.67452988091E+02  0.10786725182E+03  0.16035200372E+03  0.26800562441E+03  0.17300000000E+03 0.  1.
<mgrwt>
<rscale>  2 0.21474229E+03</rscale>
<asrwt>0</asrwt>
<pdfrwt beam="1">  1       21 0.36033159E-01 0.21474229E+03</pdfrwt>
<pdfrwt beam="2">  1       21 0.96799774E-01 0.21474229E+03</pdfrwt>
<totfact> 0.64770615E+03</totfact>
</mgrwt>
</event>
<event>
 4    1  0.3948468E+000  0.1965807E+03  0.7546771E-02  0.1152656E+00
         21   -1    0    0  501  502  0.00000000000E+00  0.00000000000E+00  0.18626641645E+03  0.18626641645E+03  0.00000000000E+00 0.  1.
         21   -1    0    0  502  503 -0.00000000000E+00 -0.00000000000E+00 -0.26466016365E+03  0.26466016365E+03  0.00000000000E+00 0.  1.
          6    1    1    2  501    0  0.31984433967E+02 -0.87703878029E+02  0.65614130376E+02  0.20724185953E+03  0.17300000000E+03 0.  1.
         -6    1    1    2    0  503 -0.31984433967E+02  0.87703878029E+02 -0.14400787758E+03  0.24368472057E+03  0.17300000000E+03 0.  1.
<mgrwt>
<rscale>  2 0.19658071E+03</rscale>
<asrwt>0</asrwt>
<pdfrwt beam="1">  1       21 0.28656372E-01 0.19658071E+03</pdfrwt>
<pdfrwt beam="2">  1       21 0.40716948E-01 0.19658071E+03</pdfrwt>
<totfact> 0.67572739E+04</totfact>
</mgrwt>
</event>
<event>
 4    1  0.3948468E+000  0.2199578E+03  0.7546771E-02  0.1133915E+00
         21   -1    0    0  501  502  0.00000000000E+00  0.00000000000E+00  0.41069197201E+03  0.41069197201E+03  0.00000000000E+00 0. -1.
         21   -1    0    0  502  503 -0.00000000000E+00 -0.00000000000E+00 -0.12473988085E+03  0.12473988085E+03  0.00000000000E+00 0. -1.
          6    1    1    2  501    0 -0.13189559826E+03  0.32495853745E+02  0.79851015199E+02  0.23400344865E+03  0.17300000000E+03 0. -1.
         -6    1    1    2    0  503  0.13189559826E+03 -0.32495853745E+02  0.20610107597E+03  0.30142840421E+03  0.17300000000E+03 0. -1.
<mgrwt>
<rscale>  2 0.21995779E+03</rscale>
<asrwt>0</asrwt>
<pdfrwt beam="1">  1       21 0.63183380E-01 0.21995779E+03</pdfrwt>
<pdfrwt beam="2">  1       21 0.19190751E-01 0.21995779E+03</pdfrwt>
<totfact> 0.57059823E+04</totfact>
</mgrwt>
</event>
<event>
 4    1  0.3948468E+000  0.2969812E+03  0.7546771E-02  0.1086759E+00
         21   -1    0    0  501  502  0.00000000000E+00  0.00000000000E+00  0.44191133562E+02  0.44191133562E+02  0.00000000000E+00 0. -1.
         21   -1    0    0  502  503 -0.00000000000E+00 -0.00000000000E+00 -0.24671911968E+04  0.24671911968E+04  0.00000000000E+00 0.  1.
          6    1    1    2  501    0 -0.22123374046E+03 -0.96563267437E+02 -0.66264204054E+03  0.72614895609E+03  0.17300000000E+03 0.  1.
         -6    1    1    2    0  503  0.22123374046E+03  0.96563267437E+02 -0.17603580227E+04  0.17852333743E+04  0.17300000000E+03 0. -1.
<mgrwt>
<rscale>  2 0.29698120E+03</rscale>
<asrwt>0</asrwt>
<pdfrwt beam="1">  1       21 0.67986356E-02 0.29698120E+03</pdfrwt>
<pdfrwt beam="2">  1       21 0.37956789E+00 0.29698120E+03</pdfrwt>
<totfact> 0.16413818E+03</totfact>
</mgrwt>
</event>
<event>
 4    1  0.3948468E+000  0.1947012E+03  0.7546771E-02  0.1154288E+00
         21   -1    0    0  503  502  0.00000000000E+00  0.00000000000E+00  0.67183669618E+03  0.67183669618E+03  0.00000000000E+00 0.  1.
         21   -1    0    0  501  503 -0.00000000000E+00 -0.00000000000E+00 -0.17230274557E+03  0.17230274557E+03  0.00000000000E+00 0.  1.
          6    1    1    2  501    0  0.65658223072E+02 -0.60568460407E+02 -0.96361782976E+02  0.21724210888E+03  0.17300000000E+03 0.  1.
         -6    1    1    2    0  502 -0.65658223072E+02  0.60568460407E+02  0.59589573358E+03  0.62689733287E+03  0.17300000000E+03 0.  1.
<mgrwt>
<rscale>  2 0.19470116E+03</rscale>
<asrwt>0</asrwt>
<pdfrwt beam="1">  1       21 0.10335949E+00 0.19470116E+03</pdfrwt>
<pdfrwt beam="2">  1       21 0.26508115E-01 0.19470116E+03</pdfrwt>
<totfact> 0.10258338E+04</totfact>
</mgrwt>
</event>
<event>
 4    1  0.3948468E+000  0.2291075E+03  0.7546771E-02  0.1127269E+00
         21   -1    0    0  501  502  0.00000000000E+00  0.00000000000E+00  0.10328164789E+03  0.10328164789E+03  0.00000000000E+00 0. -1.
         21   -1    0    0  502  503 -0.00000000000E+00 -0.00000000000E+00 -0.50968820875E+03  0.50968820875E+03  0.00000000000E+00 0.  1.
          6    1    1    2  501    0 -0.14749387624E+03 -0.28404625521E+02 -0.18677921442E+03  0.29559557037E+03  0.17300000000E+03 0.  1.
         -6    1    1    2    0  503  0.14749387624E+03  0.28404625521E+02 -0.21962734644E+03  0.31737428627E+03  0.17300000000E+03 0.  1.
<mgrwt>
<rscale>  2 0.22910754E+03</rscale>
<asrwt>0</asrwt>
<pdfrwt beam="1">  1       21 0.15889485E-01 0.22910754E+03</pdfrwt>
<pdfrwt beam="2">  1       21 0.78413569E-01 0.22910754E+03</pdfrwt>
<totfact> 0.49939410E+04</totfact>
</mgrwt>
</event>
<event>
 4    1  0.3948468E+000  0.2807970E+03  0.7546771E-02  0.1095254E+00
         21   -1    0    0  503  502  0.00000000000E+00  0.00000000000E+00  0.40047769597E+03  0.40047769597E+03  0.00000000000E+00 0. -1.
         21   -1    0    0  501  503 -0.00000000000E+00 -0.00000000000E+00 -0.20175853291E+03  0.20175853291E+03  0.00000000000E+00 0.  1.
          6    1    1    2  501    0 -0.14981300517E+03 -0.16270840546E+03  0.14617232070E+03  0.31656485760E+03  0.17300000000E+03 0. -1.
         -6    1    1    2    0  502  0.14981300517E+03  0.16270840546E+03  0.52546842364E+02  0.28567137128E+03  0.17300000000E+03 0.  1.
<mgrwt>
<rscale>  2 0.28079701E+03</rscale>
<asrwt>0</asrwt>
<pdfrwt beam="1">  1       21 0.61611953E-01 0.28079701E+03</pdfrwt>
<pdfrwt beam="2">  1       21 0.31039774E-01 0.28079701E+03</pdfrwt>
<totfact> 0.23355079E+04</totfact>
</mgrwt>
</event>
<event>
 4    1  0.3948468E+000  0.1750781E+03  0.7546771E-02  0.1172653E+00
         21   -1    0    0  501  502  0.00000000000E+00  0.00000000000E+00  0.31828638200E+03  0.31828638200E+03  0.00000000000E+00 0. -1.
         21   -1    0    0  502  503 -0.00000000000E+00 -0.00000000000E+00 -0.29539233895E+03  0.29539233895E+03  0.00000000000E+00 0. -1.
          6    1    1    2  501    0 -0.11314629899E+02  0.24399457060E+02  0.26335041323E+03  0.31623692779E+03  0.17300000000E+03 0. -1.
         -6    1    1    2    0  503  0.11314629899E+02 -0.24399457060E+02 -0.24045637018E+03  0.29744179316E+03  0.17300000000E+03 0. -1.
<mgrwt>
<rscale>  2 0.17507814E+03</rscale>
<asrwt>0</asrwt>
<pdfrwt beam="1">  1       21 0.48967136E-01 0.17507814E+03</pdfrwt>
<pdfrwt beam="2">  1       21 0.45444975E-01 0.17507814E+03</pdfrwt>
<totfact> 0.18680719E+04</totfact>
</mgrwt>
</event>
<event>
 4    1  0.3948468E+000  0.1763893E+03  0.7546771E-02  0.1171344E+00
         21   -1    0    0  503  502  0.00000000000E+00  0.00000000000E+00  0.58625725317E+03  0.58625725317E+03  0.00000000000E+00 0. -1.
         21   -1    0    0  501  503 -0.00000000000E+00 -0.00000000000E+00 -0.15712339347E+03  0.15712339347E+03  0.00000000000E+00 0. -1.
          6    1    1    2  501    0 -0.13253026257E+02 -0.31757814005E+02 -0.87906388300E+02  0.19708052811E+03  0.17300000000E+03 0. -1.
         -6    1    1    2    0  502  0.13253026257E+02  0.31757814005E+02  0.51704024800E+03  0.54630011853E+03  0.17300000000E+03 0. -1.
<mgrwt>
<rscale>  2 0.17638935E+03</rscale>
<asrwt>0</asrwt>
<pdfrwt beam="1">  1       21 0.90193422E-01 0.17638935E+03</pdfrwt>
<pdfrwt beam="2">  1       21 0.24172830E-01 0.17638935E+03</pdfrwt>
<totfact> 0.17058790E+04</totfact>
</mgrwt>
</event>
<event>
 4    1  0.3948468E+000  0.1790804E+03  0.7546771E-02  0.1168696E+00
         21   -1    0    0  503  502  0.00000000000E+00  0.00000000000E+00  0.12992745113E+04  0.12992745113E+04  0.00000000000E+00 0. -1.
         21   -1    0    0  501  503 -0.00000000000E+00 -0.00000000000E+00 -0.37084508732E+02  0.37084508732E+02  0.00000000000E+00 0. -1.
          6    1    1    2  501    0 -0.10185780095E+02  0.45133514696E+02  0.10174948611E+04  0.10331338619E+04  0.17300000000E+03 0. -1.
         -6    1    1    2    0  502  0.10185780095E+02 -0.45133514696E+02  0.24469514153E+03  0.30322515818E+03  0.17300000000E+03 0. -1.
<mgrwt>
<rscale>  2 0.17908038E+03</rscale>
<asrwt>0</asrwt>
<pdfrwt beam="1">  1       21 0.19988835E+00 0.17908038E+03</pdfrwt>
<pdfrwt beam="2">  1       21 0.57053100E-02 0.17908038E+03</pdfrwt>
<totfact> 0.29189042E+04</totfact>
</mgrwt>
</event>
<event>
 4    1  0.3948468E+000  0.2640509E+03  0.7546771E-02  0.1104733E+00
         21   -1    0    0  503  502  0.00000000000E+00  0.00000000000E+00  0.18170989646E+03  0.18170989646E+03  0.00000000000E+00 0.  1.
         21   -1    0    0  501  503 -0.00000000000E+00 -0.00000000000E+00 -0.39088188095E+03  0.39088188095E+03  0.00000000000E+00 0.  1.
          6    1    1    2  501    0  0.19361655849E+03  0.48026270457E+02 -0.14338111262E+03  0.30046803130E+03  0.17300000000E+03 0.  1.
         -6    1    1    2    0  502 -0.19361655849E+03 -0.48026270457E+02 -0.65790871866E+02  0.27212374611E+03  0.17300000000E+03 0.  1.
<mgrwt>
<rscale>  2 0.26405093E+03</rscale>
<asrwt>0</asrwt>
<pdfrwt beam="1">  1       21 0.27955369E-01 0.26405093E+03</pdfrwt>
<pdfrwt beam="2">  1       21 0.60135673E-01 0.26405093E+03</pdfrwt>
<totfact> 0.30439066E+04</totfact>
</mgrwt>
</event>
<event>
 4    1  0.3948468E+000  0.1908832E+03  0.7546771E-02  0.1157667E+00
         21   -1    0    0  501  502  0.00000000000E+00  0.00000000000E+00  0.99989583557E+02  0.99989583557E+02  0.00000000000E+00 0. -1.
         21   -1    0    0  502  503 -0.00000000000E+00 -0.00000000000E+00 -0.42925017471E+03  0.42925017471E+03  0.00000000000E+00 0. -1.
          6    1    1    2  501    0 -0.23653114561E+02 -0.77122851338E+02 -0.26748309373E+03  0.32860859614E+03  0.17300000000E+03 0. -1.
         -6    1    1    2    0  503  0.23653114561E+02  0.77122851338E+02 -0.61777497418E+02  0.20063116212E+03  0.17300000000E+03 0. -1.
<mgrwt>
<rscale>  2 0.19088322E+03</rscale>
<asrwt>0</asrwt>
<pdfrwt beam="1">  1       21 0.15383013E-01 0.19088322E+03</pdfrwt>
<pdfrwt beam="2">  1       21 0.66038488E-01 0.19088322E+03</pdfrwt>
<totfact> 0.78945556E+04</totfact>
</mgrwt>
</event>
<event>
 4    1  0.3948468E+000  0.2064504E+03  0.7546771E-02  0.1144408E+00
         21   -1    0    0  501  502  0.00000000000E+00  0.00000000000E+00  0.35868615015E+03  0.35868615015E+03  0.00000000000E+00 0. -1.
         21   -1    0    0  502  503 -0.00000000000E+00 -0.00000000000E+00 -0.12891884271E+03  0.12891884271E+03  0.00000000000E+00 0. -1.
          6    1    1    2  501    0  0.11224664320E+03  0.96665618695E+01  0.46672396001E+02  0.21166025578E+03  0.17300000000E+03 0. -1.
         -6    1    1    2    0  503 -0.11224664320E+03 -0.96665618695E+01  0.18309491144E+03  0.27594473708E+03  0.17300000000E+03 0. -1.
<mgrwt>
<rscale>  2 0.20645036E+03</rscale>
<asrwt>0</asrwt>
<pdfrwt beam="1">  1       21 0.55182484E-01 0.20645036E+03</pdfrwt>
<pdfrwt beam="2">  1       21 0.19833668E-01 0.20645036E+03</pdfrwt>
<totfact> 0.72177180E+04</totfact>
</mgrwt>
</event>
<event>
 4    1  0.3948468E+000  0.1906963E+03  0.7546771E-02  0.1157835E+00
         21   -1    0    0  503  502  0.00000000000E+00  0.00000000000E+00  0.13406424914E+03  0.13406424914E+03  0.00000000000E+00 0. -1.
         21   -1    0    0  501  503 -0.00000000000E+00 -0.00000000000E+00 -0.47089753923E+03  0.47089753923E+03  0.00000000000E+00 0. -1.
          6    1    1    2  501    0  0.16495577655E+02  0.78510870384E+02 -0.36537102229E+03  0.41214202016E+03  0.17300000000E+03 0. -1.
         -6    1    1    2    0  502 -0.16495577655E+02 -0.78510870384E+02  0.28537732203E+02  0.19281976820E+03  0.17300000000E+03 0. -1.
<mgrwt>
<rscale>  2 0.19069625E+03</rscale>
<asrwt>0</asrwt>
<pdfrwt beam="1">  1       21 0.20625269E-01 0.19069625E+03</pdfrwt>
<pdfrwt beam="2">  1       21 0.72445775E-01 0.19069625E+03</pdfrwt>
<totfact> 0.37463037E+04</totfact>
</mgrwt>
</event>
<event>
 4    1  0.3948468E+000  0.1739344E+03  0.7546771E-02  0.1173806E+00
         21   -1    0    0  501  502  0.00000000000E+00  0.00000000000E+00  0.32532550796E+03  0.32532550796E+03  0.00000000000E+00 0.  1.
         21   -1    0    0  502  503 -0.00000000000E+00 -0.00000000000E+00 -0.13432249539E+03  0.13432249539E+03  0.00000000000E+00 0.  1.
          6    1    1    2  501    0 -0.14901475284E+02  0.10106336349E+02  0.22298321495E+03  0.28279799531E+03  0.17300000000E+03 0. -1.
         -6    1    1    2    0  503  0.14901475284E+02 -0.10106336349E+02 -0.31980202383E+02  0.17685000804E+03  0.17300000000E+03 0. -1.
<mgrwt>
<rscale>  2 0.17393445E+03</rscale>
<asrwt>0</asrwt>
<pdfrwt beam="1">  1       21 0.50050078E-01 0.17393445E+03</pdfrwt>
<pdfrwt beam="2">  1       21 0.20664999E-01 0.17393445E+03</pdfrwt>
<totfact> 0.83196631E+04</totfact>
</mgrwt>
</event>
<event>
 4    1  0.3948468E+000  0.2249960E+03  0.7546771E-02  0.1130212E+00
         21   -1    0    0  501  502  0.00000000000E+00  0.00000000000E+00  0.27372777591E+03  0.27372777591E+03  0.00000000000E+00 0. -1.
         21   -1    0    0  502  503 -0.00000000000E+00 -0.00000000000E+00 -0.36888109569E+03  0.36888109569E+03  0.00000000000E+00 0. -1.
          6    1    1    2  501    0  0.11313220980E+03  0.88855609101E+02  0.17931205785E+03  0.28770823807E+03  0.17300000000E+03 0. -1.
         -6    1    1    2    0  503 -0.11313220980E+03 -0.88855609101E+02 -0.27446537763E+03  0.35490063353E+03  0.17300000000E+03 0. -1.
<mgrwt>
<rscale>  2 0.22499604E+03</rscale>
<asrwt>0</asrwt>
<pdfrwt beam="1">  1       21 0.42111966E-01 0.22499604E+03</pdfrwt>
<pdfrwt beam="2">  1       21 0.56750937E-01 0.22499604E+03</pdfrwt>
<totfact> 0.15530814E+04</totfact>
</mgrwt>
</event>
<event>
 4    1  0.3948468E+000  0.2406194E+03  0.7546771E-02  0.1119381E+00
         21   -1    0    0  501  502  0.00000000000E+00  0.00000000000E+00  0.19730659754E+04  0.19730659754E+04  0.00000000000E+00 0.  1.
         21   -1    0    0  502  503 -0.00000000000E+00 -0.00000000000E+00 -0.52104537689E+02  0.52104537689E+02  0.00000000000E+00 0.  1.
          6    1    1    2  501    0  0.15864120525E+03 -0.52930769565E+02  0.16297252660E+04  0.16473925279E+04  0.17300000000E+03 0.  1.
         -6    1    1    2    0  503 -0.15864120525E+03  0.52930769565E+02  0.29123617168E+03  0.37777798515E+03  0.17300000000E+03 0.  1.
<mgrwt>
<rscale>  2 0.24061941E+03</rscale>
<asrwt>0</asrwt>
<pdfrwt beam="1">  1       21 0.30354855E+00 0.24061941E+03</pdfrwt>
<pdfrwt beam="2">  1       21 0.80160842E-02 0.24061941E+03</pdfrwt>
<totfact> 0.36969360E+03</totfact>
</mgrwt>
</event>
<event>
 4    1  0.3948468E+000  0.4906833E+03  0.7546771E-02  0.1016240E+00
         21   -1    0    0  503  502  0.00000000000E+00  0.00000000000E+00  0.22209614014E+03  0.22209614014E+03  0.00000000000E+00 0.  1.
         21   -1    0    0  501  503 -0.00000000000E+00 -0.00000000000E+00 -0.15054045412E+04  0.15054045412E+04  0.00000000000E+00 0. -1.
          6    1    1    2  501    0  0.24156938876E+03 -0.39049375822E+03 -0.10986051931E+04  0.12032055166E+04  0.17300000000E+03 0. -1.
         -6    1    1    2    0  502 -0.24156938876E+03  0.39049375822E+03 -0.18470320799E+03  0.52429516480E+03  0.17300000000E+03 0.  1.
<mgrwt>
<rscale>  2 0.49068334E+03</rscale>
<asrwt>0</asrwt>
<pdfrwt beam="1">  1       21 0.34168638E-01 0.49068334E+03</pdfrwt>
<pdfrwt beam="2">  1       21 0.23160069E+00 0.49068334E+03</pdfrwt>
<totfact> 0.56591324E+02</totfact>
</mgrwt>
</event>
<event>
 4    1  0.3948468E+000  0.2389237E+03  0.7546771E-02  0.1120512E+00
         21   -1    0    0  501  502  0.00000000000E+00  0.00000000000E+00  0.19529186524E+04  0.19529186524E+04  0.00000000000E+00 0. -1.
         21   -1    0    0  502  503 -0.00000000000E+00 -0.00000000000E+00 -0.44528093195E+02  0.44528093195E+02  0.00000000000E+00 0. -1.
          6    1    1    2  501    0  0.14046273469E+03 -0.86172721145E+02  0.15395804120E+04  0.15580091023E+04  0.17300000000E+03 0. -1.
         -6    1    1    2    0  503 -0.14046273469E+03  0.86172721145E+02  0.36881014725E+03  0.43943764338E+03  0.17300000000E+03 0. -1.
<mgrwt>
<rscale>  2 0.23892367E+03</rscale>
<asrwt>0</asrwt>
<pdfrwt beam="1">  1       21 0.30044896E+00 0.23892367E+03</pdfrwt>
<pdfrwt beam="2">  1       21 0.68504774E-02 0.23892367E+03</pdfrwt>
<totfact> 0.50749260E+03</totfact>
</mgrwt>
</event>
<event>
 4    1  0.3948468E+000  0.1974579E+03  0.7546771E-02  0.1151902E+00
         21   -1    0    0  501  502  0.00000000000E+00  0.00000000000E+00  0.34415023571E+03  0.34415023571E+03  0.00000000000E+00 0. -1.
         21   -1    0    0  502  503 -0.00000000000E+00 -0.00000000000E+00 -0.11336561983E+03  0.11336561983E+03  0.00000000000E+00 0. -1.
          6    1    1    2  501    0 -0.76098492451E+02  0.57180927219E+02  0.10958243323E+03  0.22582725403E+03  0.17300000000E+03 0. -1.
         -6    1    1    2    0  503  0.76098492451E+02 -0.57180927219E+02  0.12120218265E+03  0.23168860151E+03  0.17300000000E+03 0. -1.
<mgrwt>
<rscale>  2 0.19745794E+03</rscale>
<asrwt>0</asrwt>
<pdfrwt beam="1">  1       21 0.52946189E-01 0.19745794E+03</pdfrwt>
<pdfrwt beam="2">  1       21 0.17440865E-01 0.19745794E+03</pdfrwt>
<totfact> 0.10039208E+05</totfact>
</mgrwt>
</event>
<event>
 4    1  0.3948468E+000  0.2014374E+03  0.7546771E-02  0.1148532E+00
         21   -1    0    0  503  502  0.00000000000E+00  0.00000000000E+00  0.73725373334E+03  0.73725373334E+03  0.00000000000E+00 0. -1.
         21   -1    0    0  501  503 -0.00000000000E+00 -0.00000000000E+00 -0.58428885199E+02  0.58428885199E+02  0.00000000000E+00 0. -1.
          6    1    1    2  501    0 -0.79856488854E+01  0.10287989776E+03  0.24357253996E+03  0.31607693078E+03  0.17300000000E+03 0. -1.
         -6    1    1    2    0  502  0.79856488854E+01 -0.10287989776E+03  0.43525230818E+03  0.47960568776E+03  0.17300000000E+03 0. -1.
<mgrwt>
<rscale>  2 0.20143744E+03</rscale>
<asrwt>0</asrwt>
<pdfrwt beam="1">  1       21 0.11342364E+00 0.20143744E+03</pdfrwt>
<pdfrwt beam="2">  1       21 0.89890598E-02 0.20143744E+03</pdfrwt>
<totfact> 0.59088025E+04</totfact>
</mgrwt>
</event>
<event>
 4    1  0.3948468E+000  0.1974888E+03  0.7546771E-02  0.1151875E+00
         21   -1    0    0  503  502  0.00000000000E+00  0.00000000000E+00  0.23145608185E+03  0.23145608185E+03  0.00000000000E+00 0.  1.
         21   -1    0    0  501  503 -0.00000000000E+00 -0.00000000000E+00 -0.43993098681E+03  0.43993098681E+03  0.00000000000E+00 0.  1.
          6    1    1    2  501    0 -0.81252732869E+01  0.94904284681E+02 -0.36791627498E+03  0.41756942981E+03  0.17300000000E+03 0.  1.
         -6    1    1    2    0  502  0.81252732869E+01 -0.94904284681E+02  0.15944137003E+03  0.25381763885E+03  0.17300000000E+03 0.  1.
<mgrwt>
<rscale>  2 0.19748884E+03</rscale>
<asrwt>0</asrwt>
<pdfrwt beam="1">  1       21 0.35608629E-01 0.19748884E+03</pdfrwt>
<pdfrwt beam="2">  1       21 0.67681689E-01 0.19748884E+03</pdfrwt>
<totfact> 0.15126274E+04</totfact>
</mgrwt>
</event>
<event>
 4    1  0.3948468E+000  0.2295920E+03  0.7546771E-02  0.1126927E+00
         21   -1    0    0  503  502  0.00000000000E+00  0.00000000000E+00  0.84069935665E+03  0.84069935665E+03  0.00000000000E+00 0. -1.
         21   -1    0    0  501  503 -0.00000000000E+00 -0.00000000000E+00 -0.96718748239E+02  0.96718748239E+02  0.00000000000E+00 0.  1.
          6    1    1    2  501    0 -0.92208144696E+02  0.11950382150E+03  0.94017572965E+02  0.24809637105E+03  0.17300000000E+03 0.  1.
         -6    1    1    2    0  502  0.92208144696E+02 -0.11950382150E+03  0.64996303545E+03  0.68932173384E+03  0.17300000000E+03 0. -1.
<mgrwt>
<rscale>  2 0.22959204E+03</rscale>
<asrwt>0</asrwt>
<pdfrwt beam="1">  1       21 0.12933836E+00 0.22959204E+03</pdfrwt>
<pdfrwt beam="2">  1       21 0.14879808E-01 0.22959204E+03</pdfrwt>
<totfact> 0.17026113E+04</totfact>
</mgrwt>
</event>
<event>
 4    1  0.3948468E+000  0.1899363E+03  0.7546771E-02  0.1158519E+00
         21   -1    0    0  501  502  0.00000000000E+00  0.00000000000E+00  0.86526806633E+02  0.86526806633E+02  0.00000000000E+00 0. -1.
         21   -1    0    0  502  503 -0.00000000000E+00 -0.00000000000E+00 -0.43791886890E+03  0.43791886890E+03  0.00000000000E+00 0. -1.
          6    1    1    2  501    0 -0.69351444183E+02 -0.36567273619E+02 -0.23310083717E+03  0.30068553108E+03  0.17300000000E+03 0. -1.
         -6    1    1    2    0  503  0.69351444183E+02  0.36567273619E+02 -0.11829122509E+03  0.22376014445E+03  0.17300000000E+03 0. -1.
<mgrwt>
<rscale>  2 0.18993627E+03</rscale>
<asrwt>0</asrwt>
<pdfrwt beam="1">  1       21 0.13311816E-01 0.18993627E+03</pdfrwt>
<pdfrwt beam="2">  1       21 0.67372135E-01 0.18993627E+03</pdfrwt>
<totfact> 0.98268318E+04</totfact>
</mgrwt>
</event>
<event>
 4    1  0.3948468E+000  0.2068393E+03  0.7546771E-02  0.1144094E+00
         21   -1    0    0  503  502  0.00000000000E+00  0.00000000000E+00  0.71456235826E+03  0.71456235826E+03  0.00000000000E+00 0. -1.
         21   -1    0    0  501  503 -0.00000000000E+00 -0.00000000000E+00 -0.70761983192E+02  0.70761983192E+02  0.00000000000E+00 0.  1.
          6    1    1    2  501    0 -0.11308685722E+03 -0.80536979974E+01  0.16786268099E+03  0.26638389403E+03  0.17300000000E+03 0.  1.
         -6    1    1    2    0  502  0.11308685722E+03  0.80536979974E+01  0.47593769408E+03  0.51894044743E+03  0.17300000000E+03 0. -1.
<mgrwt>
<rscale>  2 0.20683931E+03</rscale>
<asrwt>0</asrwt>
<pdfrwt beam="1">  1       21 0.10993267E+00 0.20683931E+03</pdfrwt>
<pdfrwt beam="2">  1       21 0.10886459E-01 0.20683931E+03</pdfrwt>
<totfact> 0.45317624E+04</totfact>
</mgrwt>
</event>
<event>
 4    1  0.3948468E+000  0.2534213E+03  0.7546771E-02  0.1111162E+00
         21   -1    0    0  503  502  0.00000000000E+00  0.00000000000E+00  0.15078109907E+03  0.15078109907E+03  0.00000000000E+00 0.  1.
         21   -1    0    0  501  503 -0.00000000000E+00 -0.00000000000E+00 -0.51451325179E+03  0.51451325179E+03  0.00000000000E+00 0. -1.
          6    1    1    2  501    0 -0.17929014718E+03 -0.46351082067E+02 -0.31989126220E+03  0.40810880818E+03  0.17300000000E+03 0. -1.
         -6    1    1    2    0  502  0.17929014718E+03  0.46351082067E+02 -0.43840890518E+02  0.25718554268E+03  0.17300000000E+03 0.  1.
<mgrwt>
<rscale>  2 0.25342135E+03</rscale>
<asrwt>0</asrwt>
<pdfrwt beam="1">  1       21 0.23197092E-01 0.25342135E+03</pdfrwt>
<pdfrwt beam="2">  1       21 0.79155885E-01 0.25342135E+03</pdfrwt>
<totfact> 0.23822224E+04</totfact>
</mgrwt>
</event>
<event>
 4    1  0.3948468E+000  0.2087112E+03  0.7546771E-02  0.1142591E+00
         21   -1    0    0  501  502  0.00000000000E+00  0.00000000000E+00  0.84990436737E+03  0.84990436737E+03  0.00000000000E+00 0.  1.
         21   -1    0    0  502  503 -0.00000000000E+00 -0.00000000000E+00 -0.51376171797E+02  0.51376171797E+02  0.00000000000E+00 0. -1.
          6    1    1    2  501    0  0.11649418831E+03  0.77764174114E+01  0.37722225685E+03  0.43111135411E+03  0.17300000000E+03 0.  1.
         -6    1    1    2    0  503 -0.11649418831E+03 -0.77764174114E+01  0.42130593872E+03  0.47016918506E+03  0.17300000000E+03 0. -1.
<mgrwt>
<rscale>  2 0.20871121E+03</rscale>
<asrwt>0</asrwt>
<pdfrwt beam="1">  1       21 0.13075451E+00 0.20871121E+03</pdfrwt>
<pdfrwt beam="2">  1       21 0.79040270E-02 0.20871121E+03</pdfrwt>
<totfact> 0.51757235E+04</totfact>
</mgrwt>
</event>
<event>
 4    1  0.3948468E+000  0.1833496E+03  0.7546771E-02  0.1164600E+00
         21   -1    0    0  501  502  0.00000000000E+00  0.00000000000E+00  0.85133366877E+03  0.85133366877E+03  0.00000000000E+00 0. -1.
         21   -1    0    0  502  503 -0.00000000000E+00 -0.00000000000E+00 -0.72922100440E+02  0.72922100440E+02  0.00000000000E+00 0. -1.
          6    1    1    2  501    0  0.20045065265E+02 -0.57325965255E+02  0.70212368565E+03  0.72566847864E+03  0.17300000000E+03 0. -1.
         -6    1    1    2    0  503 -0.20045065265E+02  0.57325965255E+02  0.76287882680E+02  0.19858729057E+03  0.17300000000E+03 0. -1.
<mgrwt>
<rscale>  2 0.18334959E+03</rscale>
<asrwt>0</asrwt>
<pdfrwt beam="1">  1       21 0.13097440E+00 0.18334959E+03</pdfrwt>
<pdfrwt beam="2">  1       21 0.11218785E-01 0.18334959E+03</pdfrwt>
<totfact> 0.28227185E+04</totfact>
</mgrwt>
</event>
<event>
 4    1  0.3948468E+000  0.1836567E+03  0.7546771E-02  0.1164310E+00
         21   -1    0    0  503  502  0.00000000000E+00  0.00000000000E+00  0.94182236185E+02  0.94182236185E+02  0.00000000000E+00 0. -1.
         21   -1    0    0  501  503 -0.00000000000E+00 -0.00000000000E+00 -0.41590927387E+03  0.41590927387E+03  0.00000000000E+00 0.  1.
          6    1    1    2  501    0  0.29289197348E+02  0.54248851835E+02 -0.65804695038E+02  0.19508985852E+03  0.17300000000E+03 0. -1.
         -6    1    1    2    0  502 -0.29289197348E+02 -0.54248851835E+02 -0.25592234265E+03  0.31500165154E+03  0.17300000000E+03 0.  1.
<mgrwt>
<rscale>  2 0.18365673E+03</rscale>
<asrwt>0</asrwt>
<pdfrwt beam="1">  1       21 0.14489575E-01 0.18365673E+03</pdfrwt>
<pdfrwt beam="2">  1       21 0.63986043E-01 0.18365673E+03</pdfrwt>
<totfact> 0.94549865E+04</totfact>
</mgrwt>
</event>
<event>
 4    1  0.3948468E+000  0.2434001E+03  0.7546771E-02  0.1117548E+00
         21   -1    0    0  501  502  0.00000000000E+00  0.00000000000E+00  0.16291406637E+03  0.16291406637E+03  0.00000000000E+00 0.  1.
         21   -1    0    0  502  503 -0.00000000000E+00 -0.00000000000E+00 -0.37460648694E+03  0.37460648694E+03  0.00000000000E+00 0. -1.
          6    1    1    2  501    0 -0.16275372477E+03  0.53158720752E+02 -0.59881735045E+02  0.25065802742E+03  0.17300000000E+03 0. -1.
         -6    1    1    2    0  503  0.16275372477E+03 -0.53158720752E+02 -0.15181068552E+03  0.28686252589E+03  0.17300000000E+03 0.  1.
<mgrwt>
<rscale>  2 0.24340013E+03</rscale>
<asrwt>0</asrwt>
<pdfrwt beam="1">  1       21 0.25063703E-01 0.24340013E+03</pdfrwt>
<pdfrwt beam="2">  1       21 0.57631767E-01 0.24340013E+03</pdfrwt>
<totfact> 0.41563548E+04</totfact>
</mgrwt>
</event>
<event>
 4    1  0.3948468E+000  0.2230960E+03  0.7546771E-02  0.1131596E+00
         21   -1    0    0  501  502  0.00000000000E+00  0.00000000000E+00  0.25570804291E+03  0.25570804291E+03  0.00000000000E+00 0. -1.
         21   -1    0    0  502  503 -0.00000000000E+00 -0.00000000000E+00 -0.19555806639E+03  0.19555806639E+03  0.00000000000E+00 0. -1.
          6    1    1    2  501    0  0.96527879485E+02  0.10259243769E+03  0.45507485844E+02  0.22769007676E+03  0.17300000000E+03 0. -1.
         -6    1    1    2    0  503 -0.96527879485E+02 -0.10259243769E+03  0.14642490672E+02  0.22357603253E+03  0.17300000000E+03 0. -1.
<mgrwt>
<rscale>  2 0.22309603E+03</rscale>
<asrwt>0</asrwt>
<pdfrwt beam="1">  1       21 0.39339699E-01 0.22309603E+03</pdfrwt>
<pdfrwt beam="2">  1       21 0.30085856E-01 0.22309603E+03</pdfrwt>
<totfact> 0.65135454E+04</totfact>
</mgrwt>
</event>
<event>
 4    1  0.3948468E+000  0.1879782E+03  0.7546771E-02  0.1160298E+00
         21   -1    0    0  503  502  0.00000000000E+00  0.00000000000E+00  0.97289142416E+02  0.97289142416E+02  0.00000000000E+00 0. -1.
         21   -1    0    0  501  503 -0.00000000000E+00 -0.00000000000E+00 -0.43923947039E+03  0.43923947039E+03  0.00000000000E+00 0. -1.
          6    1    1    2  501    0  0.73517712241E+02  0.14013450754E+01 -0.28258949890E+03  0.33940041642E+03  0.17300000000E+03 0. -1.
         -6    1    1    2    0  502 -0.73517712241E+02 -0.14013450754E+01 -0.59360829080E+02  0.19712819639E+03  0.17300000000E+03 0. -1.
<mgrwt>
<rscale>  2 0.18797824E+03</rscale>
<asrwt>0</asrwt>
<pdfrwt beam="1">  1       21 0.14967560E-01 0.18797824E+03</pdfrwt>
<pdfrwt beam="2">  1       21 0.67575303E-01 0.18797824E+03</pdfrwt>
<totfact> 0.79006622E+04</totfact>
</mgrwt>
</event>
<event>
 4    1  0.3948468E+000  0.1741302E+03  0.7546771E-02  0.1173608E+00
         21   -1    0    0  503  502  0.00000000000E+00  0.00000000000E+00  0.97061368149E+02  0.97061368149E+02  0.00000000000E+00 0.  1.
         21   -1    0    0  501  503 -0.00000000000E+00 -0.00000000000E+00 -0.32655254966E+03  0.32655254966E+03  0.00000000000E+00 0.  1.
          6    1    1    2  501    0 -0.17906416961E+02 -0.84659709373E+01 -0.70640860101E+02  0.18791339374E+03  0.17300000000E+03 0.  1.
         -6    1    1    2    0  502  0.17906416961E+02  0.84659709373E+01 -0.15885032141E+03  0.23570052406E+03  0.17300000000E+03 0.  1.
<mgrwt>
<rscale>  2 0.17413016E+03</rscale>
<asrwt>0</asrwt>
<pdfrwt beam="1">  1       21 0.14932518E-01 0.17413016E+03</pdfrwt>
<pdfrwt beam="2">  1       21 0.50238854E-01 0.17413016E+03</pdfrwt>
<totfact> 0.15013072E+05</totfact>
</mgrwt>
</event>
<event>
 4    1  0.3948468E+000  0.2168750E+03  0.7546771E-02  0.1136235E+00
         21   -1    0    0  501  502  0.00000000000E+00  0.00000000000E+00  0.96483363945E+02  0.96483363945E+02  0.00000000000E+00 0.  1.
         21   -1    0    0  502  503 -0.00000000000E+00 -0.00000000000E+00 -0.67895507177E+03  0.67895507177E+03  0.00000000000E+00 0.  1.
          6    1    1    2  501    0  0.11563288469E+03 -0.61112900842E+02 -0.49712843622E+03  0.54237573025E+03  0.17300000000E+03 0.  1.
         -6    1    1    2    0  503 -0.11563288469E+03  0.61112900842E+02 -0.85343271610E+02  0.23306270547E+03  0.17300000000E+03 0.  1.
<mgrwt>
<rscale>  2 0.21687497E+03</rscale>
<asrwt>0</asrwt>
<pdfrwt beam="1">  1       21 0.14843594E-01 0.21687497E+03</pdfrwt>
<pdfrwt beam="2">  1       21 0.10445463E+00 0.21687497E+03</pdfrwt>
<totfact> 0.29177096E+04</totfact>
</mgrwt>
</event>
<event>
 4    1  0.3948468E+000  0.1827632E+03  0.7546771E-02  0.1165155E+00
         21   -1    0    0  503  502  0.00000000000E+00  0.00000000000E+00  0.19259126093E+03  0.19259126093E+03  0.00000000000E+00 0. -1.
         21   -1    0    0  501  503 -0.00000000000E+00 -0.00000000000E+00 -0.24454768960E+03  0.24454768960E+03  0.00000000000E+00 0. -1.
          6    1    1    2  501    0 -0.56342854931E+02  0.17288078202E+02 -0.14384082427E+03  0.23257811092E+03  0.17300000000E+03 0. -1.
         -6    1    1    2    0  502  0.56342854931E+02 -0.17288078202E+02  0.91884395601E+02  0.20456083962E+03  0.17300000000E+03 0. -1.
<mgrwt>
<rscale>  2 0.18276322E+03</rscale>
<asrwt>0</asrwt>
<pdfrwt beam="1">  1       21 0.29629425E-01 0.18276322E+03</pdfrwt>
<pdfrwt beam="2">  1       21 0.37622722E-01 0.18276322E+03</pdfrwt>
<totfact> 0.74689810E+04</totfact>
</mgrwt>
</event>
<event>
 4    1  0.3948468E+000  0.2168573E+03  0.7546771E-02  0.1136248E+00
         21   -1    0    0  503  502  0.00000000000E+00  0.00000000000E+00  0.39023317935E+02  0.39023317935E+02  0.00000000000E+00 0.  1.
         21   -1    0    0  501  503 -0.00000000000E+00 -0.00000000000E+00 -0.12075628106E+04  0.12075628106E+04  0.00000000000E+00 0.  1.
          6    1    1    2  501    0  0.10542826910E+03 -0.77349667007E+02 -0.55613464829E+03  0.59691945683E+03  0.17300000000E+03 0.  1.
         -6    1    1    2    0  502 -0.10542826910E+03  0.77349667007E+02 -0.61240484433E+03  0.64966667166E+03  0.17300000000E+03 0.  1.
<mgrwt>
<rscale>  2 0.21685731E+03</rscale>
<asrwt>0</asrwt>
<pdfrwt beam="1">  1       21 0.60035870E-02 0.21685731E+03</pdfrwt>
<pdfrwt beam="2">  1       21 0.18577891E+00 0.21685731E+03</pdfrwt>
<totfact> 0.32248592E+04</totfact>
</mgrwt>
</event>
<event>
 4    1  0.3948468E+000  0.1836783E+03  0.7546771E-02  0.1164290E+00
         21   -1    0    0  503  502  0.00000000000E+00  0.00000000000E+00  0.33932570032E+02  0.33932570032E+02  0.00000000000E+00 0. -1.
         21   -1    0    0  501  503 -0.00000000000E+00 -0.00000000000E+00 -0.11367640873E+04  0.11367640873E+04  0.00000000000E+00 0.  1.
          6    1    1    2  501    0 -0.52721117080E+02 -0.32080978054E+02 -0.75866692834E+03  0.78058517376E+03  0.17300000000E+03 0.  1.
         -6    1    1    2    0  502  0.52721117080E+02  0.32080978054E+02 -0.34416458890E+03  0.39011148354E+03  0.17300000000E+03 0. -1.
<mgrwt>
<rscale>  2 0.18367827E+03</rscale>
<asrwt>0</asrwt>
<pdfrwt beam="1">  1       21 0.52203956E-02 0.18367827E+03</pdfrwt>
<pdfrwt beam="2">  1       21 0.17488678E+00 0.18367827E+03</pdfrwt>
<totfact> 0.49588142E+04</totfact>
</mgrwt>
</event>
<event>
 4    1  0.3948468E+000  0.1894314E+03  0.7546771E-02  0.1158975E+00
         21   -1    0    0  503  502  0.00000000000E+00  0.00000000000E+00  0.79216645436E+02  0.79216645436E+02  0.00000000000E+00 0.  1.
         21   -1    0    0  501  503 -0.00000000000E+00 -0.00000000000E+00 -0.49207653905E+03  0.49207653905E+03  0.00000000000E+00 0.  1.
          6    1    1    2  501    0  0.46415420084E+02  0.61651124145E+02 -0.28693683692E+03  0.34382699241E+03  0.17300000000E+03 0.  1.
         -6    1    1    2    0  502 -0.46415420084E+02 -0.61651124145E+02 -0.12592305670E+03  0.22746619208E+03  0.17300000000E+03 0.  1.
<mgrwt>
<rscale>  2 0.18943139E+03</rscale>
<asrwt>0</asrwt>
<pdfrwt beam="1">  1       21 0.12187176E-01 0.18943139E+03</pdfrwt>
<pdfrwt beam="2">  1       21 0.75704085E-01 0.18943139E+03</pdfrwt>
<totfact> 0.88992715E+04</totfact>
</mgrwt>
</event>
<event>
 4    1  0.3948468E+000  0.2249464E+03  0.7546771E-02  0.1130248E+00
         21   -1    0    0  501  502  0.00000000000E+00  0.00000000000E+00  0.70579006181E+02  0.70579006181E+02  0.00000000000E+00 0. -1.
         21   -1    0    0  502  503 -0.00000000000E+00 -0.00000000000E+00 -0.72256338899E+03  0.72256338899E+03  0.00000000000E+00 0. -1.
          6    1    1    2  501    0  0.27664092237E+02  0.14109067135E+03 -0.36097868282E+03  0.42533103459E+03  0.17300000000E+03 0. -1.
         -6    1    1    2    0  503 -0.27664092237E+02 -0.14109067135E+03 -0.29100569999E+03  0.36781136057E+03  0.17300000000E+03 0. -1.
<mgrwt>
<rscale>  2 0.22494639E+03</rscale>
<asrwt>0</asrwt>
<pdfrwt beam="1">  1       21 0.10858309E-01 0.22494639E+03</pdfrwt>
<pdfrwt beam="2">  1       21 0.11116359E+00 0.22494639E+03</pdfrwt>
<totfact> 0.43910228E+04</totfact>
</mgrwt>
</event>
<event>
 4    1  0.3948468E+000  0.1957958E+03  0.7546771E-02  0.1153335E+00
         21   -1    0    0  503  502  0.00000000000E+00  0.00000000000E+00  0.68283513210E+03  0.68283513210E+03  0.00000000000E+00 0. -1.
         21   -1    0    0  501  503 -0.00000000000E+00 -0.00000000000E+00 -0.57436290145E+02  0.57436290145E+02  0.00000000000E+00 0. -1.
          6    1    1    2  501    0  0.49717252465E+02  0.77040294174E+02  0.36825328722E+03  0.41706893395E+03  0.17300000000E+03 0. -1.
         -6    1    1    2    0  502 -0.49717252465E+02 -0.77040294174E+02  0.25714555474E+03  0.32320248829E+03  0.17300000000E+03 0. -1.
<mgrwt>
<rscale>  2 0.19579584E+03</rscale>
<asrwt>0</asrwt>
<pdfrwt beam="1">  1       21 0.10505155E+00 0.19579584E+03</pdfrwt>
<pdfrwt beam="2">  1       21 0.88363528E-02 0.19579584E+03</pdfrwt>
<totfact> 0.73507095E+04</totfact>
</mgrwt>
</event>
<event>
 4    1  0.3948468E+000  0.2340033E+03  0.7546771E-02  0.1123853E+00
         21   -1    0    0  501  502  0.00000000000E+00  0.00000000000E+00  0.51867060705E+03  0.51867060705E+03  0.00000000000E+00 0.  1.
         21   -1    0    0  502  503 -0.00000000000E+00 -0.00000000000E+00 -0.14545810335E+03  0.14545810335E+03  0.00000000000E+00 0.  1.
          6    1    1    2  501    0  0.14185937636E+01  0.15756435965E+03  0.36049017001E+03  0.42977983028E+03  0.17300000000E+03 0.  1.
         -6    1    1    2    0  503 -0.14185937636E+01 -0.15756435965E+03  0.12722333687E+02  0.23434888012E+03  0.17300000000E+03 0.  1.
<mgrwt>
<rscale>  2 0.23400329E+03</rscale>
<asrwt>0</asrwt>
<pdfrwt beam="1">  1       21 0.79795477E-01 0.23400329E+03</pdfrwt>
<pdfrwt beam="2">  1       21 0.22378170E-01 0.23400329E+03</pdfrwt>
<totfact> 0.25279534E+04</totfact>
</mgrwt>
</event>
<event>
 4    1  0.3948468E+000  0.1776684E+03  0.7546771E-02  0.1170079E+00
         21   -1    0    0  501  502  0.00000000000E+00  0.00000000000E+00  0.45332409041E+03  0.45332409041E+03  0.00000000000E+00 0.  1.
         21   -1    0    0  502  503 -0.00000000000E+00 -0.00000000000E+00 -0.70403731701E+02  0.70403731701E+02  0.00000000000E+00 0.  1.
          6    1    1    2  501    0  0.21633398368E+02 -0.34191221317E+02  0.16405081711E+03  0.24182372534E+03  0.17300000000E+03 0.  1.
         -6    1    1    2    0  503 -0.21633398368E+02  0.34191221317E+02  0.21886954160E+03  0.28190409678E+03  0.17300000000E+03 0.  1.
<mgrwt>
<rscale>  2 0.17766835E+03</rscale>
<asrwt>0</asrwt>
<pdfrwt beam="1">  1       21 0.69742166E-01 0.17766835E+03</pdfrwt>
<pdfrwt beam="2">  1       21 0.10831344E-01 0.17766835E+03</pdfrwt>
<totfact> 0.13228538E+05</totfact>
</mgrwt>
</event>
<event>
 4    1  0.3948468E+000  0.2263145E+03  0.7546771E-02  0.1129261E+00
         21   -1    0    0  503  502  0.00000000000E+00  0.00000000000E+00  0.53445439132E+02  0.53445439132E+02  0.00000000000E+00 0. -1.
         21   -1    0    0  501  503 -0.00000000000E+00 -0.00000000000E+00 -0.12957099194E+04  0.12957099194E+04  0.00000000000E+00 0. -1.
          6    1    1    2  501    0  0.11347258128E+03  0.91723617613E+02 -0.96535463571E+03  0.99152802351E+03  0.17300000000E+03 0. -1.
         -6    1    1    2    0  502 -0.11347258128E+03 -0.91723617613E+02 -0.27690984452E+03  0.35762733498E+03  0.17300000000E+03 0. -1.
<mgrwt>
<rscale>  2 0.22631449E+03</rscale>
<asrwt>0</asrwt>
<pdfrwt beam="1">  1       21 0.82223755E-02 0.22631449E+03</pdfrwt>
<pdfrwt beam="2">  1       21 0.19933998E+00 0.22631449E+03</pdfrwt>
<totfact> 0.15123265E+04</totfact>
</mgrwt>
</event>
<event>
 4    1  0.3948468E+000  0.2301783E+03  0.7546771E-02  0.1126514E+00
         21   -1    0    0  501  502  0.00000000000E+00  0.00000000000E+00  0.46632462603E+02  0.46632462603E+02  0.00000000000E+00 0. -1.
         21   -1    0    0  502  503 -0.00000000000E+00 -0.00000000000E+00 -0.11765026293E+04  0.11765026293E+04  0.00000000000E+00 0. -1.
          6    1    1    2  501    0 -0.96457800116E+02  0.11725586810E+03 -0.45169042727E+03  0.50695787586E+03  0.17300000000E+03 0. -1.
         -6    1    1    2    0  503  0.96457800116E+02 -0.11725586810E+03 -0.67817973939E+03  0.71617721601E+03  0.17300000000E+03 0. -1.
<mgrwt>
<rscale>  2 0.23017829E+03</rscale>
<asrwt>0</asrwt>
<pdfrwt beam="1">  1       21 0.71742253E-02 0.23017829E+03</pdfrwt>
<pdfrwt beam="2">  1       21 0.18100040E+00 0.23017829E+03</pdfrwt>
<totfact> 0.25333452E+04</totfact>
</mgrwt>
</event>
<event>
 4    1  0.3948468E+000  0.1989986E+03  0.7546771E-02  0.1150587E+00
         21   -1    0    0  503  502  0.00000000000E+00  0.00000000000E+00  0.65701455816E+03  0.65701455816E+03  0.00000000000E+00 0.  1.
         21   -1    0    0  501  503 -0.00000000000E+00 -0.00000000000E+00 -0.60646271627E+02  0.60646271627E+02  0.00000000000E+00 0. -1.
          6    1    1    2  501    0 -0.97341287717E+02  0.14003791416E+02  0.32632438596E+03  0.38221464825E+03  0.17300000000E+03 0.  1.
         -6    1    1    2    0  502  0.97341287717E+02 -0.14003791416E+02  0.27004390057E+03  0.33544618153E+03  0.17300000000E+03 0.  1.
<mgrwt>
<rscale>  2 0.19899857E+03</rscale>
<asrwt>0</asrwt>
<pdfrwt beam="1">  1       21 0.10107916E+00 0.19899857E+03</pdfrwt>
<pdfrwt beam="2">  1       21 0.93301961E-02 0.19899857E+03</pdfrwt>
<totfact> 0.73158637E+04</totfact>
</mgrwt>
</event>
<event>
 4    1  0.3948468E+000  0.2378479E+03  0.7546771E-02  0.1121235E+00
         21   -1    0    0  501  502  0.00000000000E+00  0.00000000000E+00  0.99959202318E+02  0.99959202318E+02  0.00000000000E+00 0.  1.
         21   -1    0    0  502  503 -0.00000000000E+00 -0.00000000000E+00 -0.61156987358E+03  0.61156987358E+03  0.00000000000E+00 0.  1.
          6    1    1    2  501    0 -0.14820453579E+03  0.68396031046E+02 -0.15863552205E+03  0.28589653784E+03  0.17300000000E+03 0.  1.
         -6    1    1    2    0  503  0.14820453579E+03 -0.68396031046E+02 -0.35297514921E+03  0.42563253806E+03  0.17300000000E+03 0.  1.
<mgrwt>
<rscale>  2 0.23784785E+03</rscale>
<asrwt>0</asrwt>
<pdfrwt beam="1">  1       21 0.15378339E-01 0.23784785E+03</pdfrwt>
<pdfrwt beam="2">  1       21 0.94087674E-01 0.23784785E+03</pdfrwt>
<totfact> 0.34700647E+04</totfact>
</mgrwt>
</event>
<event>
 4    1  0.3948468E+000  0.1860088E+03  0.7546771E-02  0.1162111E+00
         21   -1    0    0  503  502  0.00000000000E+00  0.00000000000E+00  0.54753674152E+03  0.54753674152E+03  0.00000000000E+00 0. -1.
         21   -1    0    0  501  503 -0.00000000000E+00 -0.00000000000E+00 -0.63310164869E+02  0.63310164869E+02  0.00000000000E+00 0.  1.
          6    1    1    2  501    0  0.65140257971E+02  0.20664626947E+02  0.22885096612E+03  0.29491023161E+03  0.17300000000E+03 0.  1.
         -6    1    1    2    0  502 -0.65140257971E+02 -0.20664626947E+02  0.25537561054E+03  0.31593667478E+03  0.17300000000E+03 0.  1.
<mgrwt>
<rscale>  2 0.18600882E+03</rscale>
<asrwt>0</asrwt>
<pdfrwt beam="1">  1       21 0.84236419E-01 0.18600882E+03</pdfrwt>
<pdfrwt beam="2">  1       21 0.97400257E-02 0.18600882E+03</pdfrwt>
<totfact> 0.10425250E+05</totfact>
</mgrwt>
</event>
<event>
 4    1  0.3948468E+000  0.2192277E+03  0.7546771E-02  0.1134460E+00
         21   -1    0    0  503  502  0.00000000000E+00  0.00000000000E+00  0.13912293171E+03  0.13912293171E+03  0.00000000000E+00 0.  1.
         21   -1    0    0  501  503 -0.00000000000E+00 -0.00000000000E+00 -0.36570805134E+03  0.36570805134E+03  0.00000000000E+00 0. -1.
          6    1    1    2  501    0  0.12918309426E+03  0.37993621351E+02 -0.53892317462E+02  0.22575466548E+03  0.17300000000E+03 0.  1.
         -6    1    1    2    0  502 -0.12918309426E+03 -0.37993621351E+02 -0.17269280217E+03  0.27907631756E+03  0.17300000000E+03 0. -1.
<mgrwt>
<rscale>  2 0.21922771E+03</rscale>
<asrwt>0</asrwt>
<pdfrwt beam="1">  1       21 0.21403528E-01 0.21922771E+03</pdfrwt>
<pdfrwt beam="2">  1       21 0.56262777E-01 0.21922771E+03</pdfrwt>
<totfact> 0.59700815E+04</totfact>
</mgrwt>
</event>
<event>
 4    1  0.3948468E+000  0.2732135E+03  0.7546771E-02  0.1099454E+00
         21   -1    0    0  503  502  0.00000000000E+00  0.00000000000E+00  0.28394467662E+03  0.28394467662E+03  0.00000000000E+00 0. -1.
         21   -1    0    0  501  503 -0.00000000000E+00 -0.00000000000E+00 -0.11305732027E+04  0.11305732027E+04  0.00000000000E+00 0.  1.
          6    1    1    2  501    0  0.17489738950E+03 -0.11885923120E+03 -0.10429125778E+04  0.10781058661E+04  0.17300000000E+03 0.  1.
         -6    1    1    2    0  502 -0.17489738950E+03  0.11885923120E+03  0.19628405167E+03  0.33641201322E+03  0.17300000000E+03 0. -1.
<mgrwt>
<rscale>  2 0.27321349E+03</rscale>
<asrwt>0</asrwt>
<pdfrwt beam="1">  1       21 0.43683796E-01 0.27321349E+03</pdfrwt>
<pdfrwt beam="2">  1       21 0.17393434E+00 0.27321349E+03</pdfrwt>
<totfact> 0.93648034E+02</totfact>
</mgrwt>
</event>
<event>
 4    1  0.3948468E+000  0.3307083E+03  0.7546771E-02  0.1070824E+00
         21   -1    0    0  501  502  0.00000000000E+00  0.00000000000E+00  0.33226517766E+03  0.33226517766E+03  0.00000000000E+00 0.  1.
         21   -1    0    0  502  503 -0.00000000000E+00 -0.00000000000E+00 -0.49521180019E+03  0.49521180019E+03  0.00000000000E+00 0.  1.
          6    1    1    2  501    0  0.86841449260E+01  0.28171545578E+03  0.15810846161E+03  0.36656008789E+03  0.17300000000E+03 0.  1.
         -6    1    1    2    0  503 -0.86841449260E+01 -0.28171545578E+03 -0.32105508414E+03  0.46091688996E+03  0.17300000000E+03 0.  1.
<mgrwt>
<rscale>  2 0.33070835E+03</rscale>
<asrwt>0</asrwt>
<pdfrwt beam="1">  1       21 0.51117720E-01 0.33070835E+03</pdfrwt>
<pdfrwt beam="2">  1       21 0.76186431E-01 0.33070835E+03</pdfrwt>
<totfact> 0.51438031E+03</totfact>
</mgrwt>
</event>
<event>
 4    1  0.3948468E+000  0.1966076E+03  0.7546771E-02  0.1152633E+00
         21   -1    0    0  501  502  0.00000000000E+00  0.00000000000E+00  0.17601847225E+03  0.17601847225E+03  0.00000000000E+00 0. -1.
         21   -1    0    0  502  503 -0.00000000000E+00 -0.00000000000E+00 -0.74513254604E+03  0.74513254604E+03  0.00000000000E+00 0. -1.
          6    1    1    2  501    0  0.85640079180E+02 -0.37300697376E+02  0.10223876314E+03  0.22160173708E+03  0.17300000000E+03 0. -1.
         -6    1    1    2    0  503 -0.85640079180E+02  0.37300697376E+02 -0.67135283693E+03  0.69954928121E+03  0.17300000000E+03 0. -1.
<mgrwt>
<rscale>  2 0.19660764E+03</rscale>
<asrwt>0</asrwt>
<pdfrwt beam="1">  1       21 0.27079766E-01 0.19660764E+03</pdfrwt>
<pdfrwt beam="2">  1       21 0.11463577E+00 0.19660764E+03</pdfrwt>
<totfact> 0.76550589E+03</totfact>
</mgrwt>
</event>
<event>
 4    1  0.3948468E+000  0.1971607E+03  0.7546771E-02  0.1152157E+00
         21   -1    0    0  501  502  0.00000000000E+00  0.00000000000E+00  0.85157501147E+03  0.85157501147E+03  0.00000000000E+00 0.  1.
         21   -1    0    0  502  503 -0.00000000000E+00 -0.00000000000E+00 -0.15809109496E+03  0.15809109496E+03  0.00000000000E+00 0. -1.
          6    1    1    2  501    0 -0.58613853851E+02 -0.74214321030E+02  0.77249843195E+03  0.79726167390E+03  0.17300000000E+03 0.  1.
         -6    1    1    2    0  503  0.58613853851E+02  0.74214321030E+02 -0.79014515430E+02  0.21240443253E+03  0.17300000000E+03 0. -1.
<mgrwt>
<rscale>  2 0.19716072E+03</rscale>
<asrwt>0</asrwt>
<pdfrwt beam="1">  1       21 0.13101154E+00 0.19716072E+03</pdfrwt>
<pdfrwt beam="2">  1       21 0.24321707E-01 0.19716072E+03</pdfrwt>
<totfact> 0.67421885E+03</totfact>
</mgrwt>
</event>
<event>
 4    1  0.3948468E+000  0.1900000E+03  0.7546771E-02  0.1158461E+00
         21   -1    0    0  503  502  0.00000000000E+00  0.00000000000E+00  0.39978010043E+03  0.39978010043E+03  0.00000000000E+00 0. -1.
         21   -1    0    0  501  503 -0.00000000000E+00 -0.00000000000E+00 -0.94616123369E+02  0.94616123369E+02  0.00000000000E+00 0. -1.
          6    1    1    2  501    0  0.63072999857E+02  0.46827494704E+02  0.99783037801E+02  0.21460818298E+03  0.17300000000E+03 0. -1.
         -6    1    1    2    0  502 -0.63072999857E+02 -0.46827494704E+02  0.20538093926E+03  0.27978804081E+03  0.17300000000E+03 0. -1.
<mgrwt>
<rscale>  2 0.19000005E+03</rscale>
<asrwt>0</asrwt>
<pdfrwt beam="1">  1       21 0.61504630E-01 0.19000005E+03</pdfrwt>
<pdfrwt beam="2">  1       21 0.14556327E-01 0.19000005E+03</pdfrwt>
<totfact> 0.10188725E+05</totfact>
</mgrwt>
</event>
<event>
 4    1  0.3948468E+000  0.2382495E+03  0.7546771E-02  0.1120964E+00
         21   -1    0    0  501  502  0.00000000000E+00  0.00000000000E+00  0.65850702234E+03  0.65850702234E+03  0.00000000000E+00 0. -1.
         21   -1    0    0  502  503 -0.00000000000E+00 -0.00000000000E+00 -0.11543175786E+03  0.11543175786E+03  0.00000000000E+00 0.  1.
          6    1    1    2  501    0  0.23420099283E+02  0.16212754974E+03  0.46627380706E+03  0.52361637349E+03  0.17300000000E+03 0.  1.
         -6    1    1    2    0  503 -0.23420099283E+02 -0.16212754974E+03  0.76801457414E+02  0.25032240670E+03  0.17300000000E+03 0.  1.
<mgrwt>
<rscale>  2 0.23824954E+03</rscale>
<asrwt>0</asrwt>
<pdfrwt beam="1">  1       21 0.10130877E+00 0.23824954E+03</pdfrwt>
<pdfrwt beam="2">  1       21 0.17758732E-01 0.23824954E+03</pdfrwt>
<totfact> 0.22325068E+04</totfact>
</mgrwt>
</event>
<event>
 4    1  0.3948468E+000  0.2188348E+03  0.7546771E-02  0.1134755E+00
         21   -1    0    0  503  502  0.00000000000E+00  0.00000000000E+00  0.29595123949E+02  0.29595123949E+02  0.00000000000E+00 0.  1.
         21   -1    0    0  501  503 -0.00000000000E+00 -0.00000000000E+00 -0.16192731947E+04  0.16192731947E+04  0.00000000000E+00 0. -1.
          6    1    1    2  501    0 -0.74955735686E+02 -0.11109140395E+03 -0.81677559644E+03  0.84558325272E+03  0.17300000000E+03 0.  1.
         -6    1    1    2    0  502  0.74955735686E+02  0.11109140395E+03 -0.77290247429E+03  0.80328506591E+03  0.17300000000E+03 0.  1.
<mgrwt>
<rscale>  2 0.21883478E+03</rscale>
<asrwt>0</asrwt>
<pdfrwt beam="1">  1       21 0.45530951E-02 0.21883478E+03</pdfrwt>
<pdfrwt beam="2">  1       21 0.24911900E+00 0.21883478E+03</pdfrwt>
<totfact> 0.20749865E+04</totfact>
</mgrwt>
</event>
<event>
 4    1  0.3948468E+000  0.1945534E+03  0.7546771E-02  0.1154417E+00
         21   -1    0    0  503  502  0.00000000000E+00  0.00000000000E+00  0.25363902019E+03  0.25363902019E+03  0.00000000000E+00 0.  1.
         21   -1    0    0  501  503 -0.00000000000E+00 -0.00000000000E+00 -0.17592839058E+03  0.17592839058E+03  0.00000000000E+00 0.  1.
          6    1    1    2  501    0 -0.88077433201E+02 -0.12820918544E+02 -0.44813030646E+02  0.19964773454E+03  0.17300000000E+03 0.  1.
         -6    1    1    2    0  502  0.88077433201E+02  0.12820918544E+02  0.12252366026E+03  0.22991967622E+03  0.17300000000E+03 0.  1.
<mgrwt>
<rscale>  2 0.19455336E+03</rscale>
<asrwt>0</asrwt>
<pdfrwt beam="1">  1       21 0.39021388E-01 0.19455336E+03</pdfrwt>
<pdfrwt beam="2">  1       21 0.27065906E-01 0.19455336E+03</pdfrwt>
<totfact> 0.82305702E+04</totfact>
</mgrwt>
</event>
<event>
 4    1  0.3948468E+000  0.1986085E+03  0.7546771E-02  0.1150918E+00
         21   -1    0    0  501  502  0.00000000000E+00  0.00000000000E+00  0.22691117942E+03  0.22691117942E+03  0.00000000000E+00 0. -1.
         21   -1    0    0  502  503 -0.00000000000E+00 -0.00000000000E+00 -0.83466602152E+03  0.83466602152E+03  0.00000000000E+00 0. -1.
          6    1    1    2  501    0  0.32529091629E+02 -0.91968451387E+02  0.16841403998E+03  0.26040089615E+03  0.17300000000E+03 0. -1.
         -6    1    1    2    0  503 -0.32529091629E+02  0.91968451387E+02 -0.77616888208E+03  0.80117630479E+03  0.17300000000E+03 0. -1.
<mgrwt>
<rscale>  2 0.19860850E+03</rscale>
<asrwt>0</asrwt>
<pdfrwt beam="1">  1       21 0.34909412E-01 0.19860850E+03</pdfrwt>
<pdfrwt beam="2">  1       21 0.12841016E+00 0.19860850E+03</pdfrwt>
<totfact> 0.35087626E+03</totfact>
</mgrwt>
</event>
<event>
 4    1  0.3948468E+000  0.1963650E+03  0.7546771E-02  0.1152843E+00
         21   -1    0    0  503  502  0.00000000000E+00  0.00000000000E+00  0.60799449836E+02  0.60799449836E+02  0.00000000000E+00 0. -1.
         21   -1    0    0  501  503 -0.00000000000E+00 -0.00000000000E+00 -0.66177691226E+03  0.66177691226E+03  0.00000000000E+00 0. -1.
          6    1    1    2  501    0  0.79823998976E+02  0.47521830488E+02 -0.37423616678E+03  0.42262501548E+03  0.17300000000E+03 0. -1.
         -6    1    1    2    0  502 -0.79823998976E+02 -0.47521830488E+02 -0.22674129565E+03  0.29995134662E+03  0.17300000000E+03 0. -1.
<mgrwt>
<rscale>  2 0.19636495E+03</rscale>
<asrwt>0</asrwt>
<pdfrwt beam="1">  1       21 0.93537621E-02 0.19636495E+03</pdfrwt>
<pdfrwt beam="2">  1       21 0.10181183E+00 0.19636495E+03</pdfrwt>
<totfact> 0.71680107E+04</totfact>
</mgrwt>
</event>
<event>
 4    1  0.3948468E+000  0.1732673E+03  0.7546771E-02  0.1174483E+00
         21   -1    0    0  503  502  0.00000000000E+00  0.00000000000E+00  0.99160706009E+03  0.99160706009E+03  0.00000000000E+00 0. -1.
         21   -1    0    0  501  503 -0.00000000000E+00 -0.00000000000E+00 -0.65814667676E+02  0.65814667676E+02  0.00000000000E+00 0. -1.
          6    1    1    2  501    0  0.27526698270E+01 -0.92193052763E+01  0.74379714925E+02  0.18855745749E+03  0.17300000000E+03 0. -1.
         -6    1    1    2    0  502 -0.27526698270E+01  0.92193052763E+01  0.85141267749E+03  0.86886427028E+03  0.17300000000E+03 0. -1.
<mgrwt>
<rscale>  2 0.17326734E+03</rscale>
<asrwt>0</asrwt>
<pdfrwt beam="1">  1       21 0.15255492E+00 0.17326734E+03</pdfrwt>
<pdfrwt beam="2">  1       21 0.10125334E-01 0.17326734E+03</pdfrwt>
<totfact> 0.22990761E+04</totfact>
</mgrwt>
</event>
<event>
 4    1  0.3948468E+000  0.1830468E+03  0.7546771E-02  0.1164887E+00
         21   -1    0    0  501  502  0.00000000000E+00  0.00000000000E+00  0.14273685782E+03  0.14273685782E+03  0.00000000000E+00 0. -1.
         21   -1    0    0  502  503 -0.00000000000E+00 -0.00000000000E+00 -0.37490004713E+03  0.37490004713E+03  0.00000000000E+00 0. -1.
          6    1    1    2  501    0  0.55463924432E+02  0.22380150706E+02  0.42170281471E+02  0.18784155743E+03  0.17300000000E+03 0. -1.
         -6    1    1    2    0  503 -0.55463924432E+02 -0.22380150706E+02 -0.27433347077E+03  0.32979534752E+03  0.17300000000E+03 0. -1.
<mgrwt>
<rscale>  2 0.18304676E+03</rscale>
<asrwt>0</asrwt>
<pdfrwt beam="1">  1       21 0.21959516E-01 0.18304676E+03</pdfrwt>
<pdfrwt beam="2">  1       21 0.57676931E-01 0.18304676E+03</pdfrwt>
<totfact> 0.54859900E+04</totfact>
</mgrwt>
</event>
<event>
 4    1  0.3948468E+000  0.2075908E+03  0.7546771E-02  0.1143488E+00
         21   -1    0    0  501  502  0.00000000000E+00  0.00000000000E+00  0.50453899477E+03  0.50453899477E+03  0.00000000000E+00 0. -1.
         21   -1    0    0  502  503 -0.00000000000E+00 -0.00000000000E+00 -0.13481141893E+03  0.13481141893E+03  0.00000000000E+00 0. -1.
          6    1    1    2  501    0 -0.88548030155E+02 -0.72967163142E+02  0.37837410800E+03  0.43157957104E+03  0.17300000000E+03 0. -1.
         -6    1    1    2    0  503  0.88548030155E+02  0.72967163142E+02 -0.86465321546E+01  0.20777084266E+03  0.17300000000E+03 0. -1.
<mgrwt>
<rscale>  2 0.20759085E+03</rscale>
<asrwt>0</asrwt>
<pdfrwt beam="1">  1       21 0.77621383E-01 0.20759085E+03</pdfrwt>
<pdfrwt beam="2">  1       21 0.20740218E-01 0.20759085E+03</pdfrwt>
<totfact> 0.31488336E+04</totfact>
</mgrwt>
</event>
<event>
 4    1  0.3948468E+000  0.2229060E+03  0.7546771E-02  0.1131735E+00
         21   -1    0    0  501  502  0.00000000000E+00  0.00000000000E+00  0.26178602688E+02  0.26178602688E+02  0.00000000000E+00 0. -1.
         21   -1    0    0  502  503 -0.00000000000E+00 -0.00000000000E+00 -0.21248133602E+04  0.21248133602E+04  0.00000000000E+00 0.  1.
          6    1    1    2  501    0 -0.11356775008E+03 -0.82827898950E+02 -0.14006988107E+04  0.14183244526E+04  0.17300000000E+03 0.  1.
         -6    1    1    2    0  503  0.11356775008E+03  0.82827898950E+02 -0.69793594685E+03  0.73266751027E+03  0.17300000000E+03 0. -1.
<mgrwt>
<rscale>  2 0.22290602E+03</rscale>
<asrwt>0</asrwt>
<pdfrwt beam="1">  1       21 0.40274766E-02 0.22290602E+03</pdfrwt>
<pdfrwt beam="2">  1       21 0.32689442E+00 0.22290602E+03</pdfrwt>
<totfact> 0.89488351E+03</totfact>
</mgrwt>
</event>
<event>
 4    1  0.3948468E+000  0.3628689E+03  0.7546771E-02  0.1057454E+00
         21   -1    0    0  503  502  0.00000000000E+00  0.00000000000E+00  0.45651047402E+03  0.45651047402E+03  0.00000000000E+00 0. -1.
         21   -1    0    0  501  503 -0.00000000000E+00 -0.00000000000E+00 -0.47006558116E+03  0.47006558116E+03  0.00000000000E+00 0.  1.
          6    1    1    2  501    0  0.62631105822E+02 -0.31276534444E+03 -0.29475983468E+03  0.46750099063E+03  0.17300000000E+03 0.  1.
         -6    1    1    2    0  502 -0.62631105822E+02  0.31276534444E+03  0.28120472755E+03  0.45907506455E+03  0.17300000000E+03 0. -1.
<mgrwt>
<rscale>  2 0.36286887E+03</rscale>
<asrwt>0</asrwt>
<pdfrwt beam="1">  1       21 0.70232381E-01 0.36286887E+03</pdfrwt>
<pdfrwt beam="2">  1       21 0.72317781E-01 0.36286887E+03</pdfrwt>
<totfact> 0.28550091E+03</totfact>
</mgrwt>
</event>
<event>
 4    1  0.3948468E+000  0.3247126E+03  0.7546771E-02  0.1073501E+00
         21   -1    0    0  503  502  0.00000000000E+00  0.00000000000E+00  0.95724338480E+03  0.95724338480E+03  0.00000000000E+00 0. -1.
         21   -1    0    0  501  503 -0.00000000000E+00 -0.00000000000E+00 -0.11134695773E+03  0.11134695773E+03  0.00000000000E+00 0. -1.
          6    1    1    2  501    0 -0.24155257676E+03  0.13100231609E+03  0.47839546060E+03  0.57818722823E+03  0.17300000000E+03 0. -1.
         -6    1    1    2    0  502  0.24155257676E+03 -0.13100231609E+03  0.36750096647E+03  0.49040311430E+03  0.17300000000E+03 0. -1.
<mgrwt>
<rscale>  2 0.32471257E+03</rscale>
<asrwt>0</asrwt>
<pdfrwt beam="1">  1       21 0.14726821E+00 0.32471257E+03</pdfrwt>
<pdfrwt beam="2">  1       21 0.17130302E-01 0.32471257E+03</pdfrwt>
<totfact> 0.89174494E+03</totfact>
</mgrwt>
</event>
<event>
 4    1  0.3948468E+000  0.2371991E+03  0.7546771E-02  0.1121673E+00
         21   -1    0    0  503  502  0.00000000000E+00  0.00000000000E+00  0.17901606488E+04  0.17901606488E+04  0.00000000000E+00 0.  1.
         21   -1    0    0  501  503 -0.00000000000E+00 -0.00000000000E+00 -0.63527052081E+02  0.63527052081E+02  0.00000000000E+00 0. -1.
          6    1    1    2  501    0 -0.11037901570E+03  0.11895745396E+03  0.20449966889E+03  0.31318288193E+03  0.17300000000E+03 0. -1.
         -6    1    1    2    0  502  0.11037901570E+03 -0.11895745396E+03  0.15221339279E+04  0.15405048190E+04  0.17300000000E+03 0.  1.
<mgrwt>
<rscale>  2 0.23719908E+03</rscale>
<asrwt>0</asrwt>
<pdfrwt beam="1">  1       21 0.27540929E+00 0.23719908E+03</pdfrwt>
<pdfrwt beam="2">  1       21 0.97733940E-02 0.23719908E+03</pdfrwt>
<totfact> 0.38167990E+03</totfact>
</mgrwt>
</event>
<event>
 4    1  0.3948468E+000  0.1786541E+03  0.7546771E-02  0.1169112E+00
         21   -1    0    0  503  502  0.00000000000E+00  0.00000000000E+00  0.12846238113E+03  0.12846238113E+03  0.00000000000E+00 0. -1.
         21   -1    0    0  501  503 -0.00000000000E+00 -0.00000000000E+00 -0.25678327105E+03  0.25678327105E+03  0.00000000000E+00 0. -1.
          6    1    1    2  501    0 -0.11700248713E+02  0.43027631058E+02 -0.29473107184E+02  0.18106887336E+03  0.17300000000E+03 0. -1.
         -6    1    1    2    0  502  0.11700248713E+02 -0.43027631058E+02 -0.98847782737E+02  0.20417677881E+03  0.17300000000E+03 0. -1.
<mgrwt>
<rscale>  2 0.17865406E+03</rscale>
<asrwt>0</asrwt>
<pdfrwt beam="1">  1       21 0.19763443E-01 0.17865406E+03</pdfrwt>
<pdfrwt beam="2">  1       21 0.39505118E-01 0.17865406E+03</pdfrwt>
<totfact> 0.14644963E+05</totfact>
</mgrwt>
</event>
<event>
 4    1  0.3948468E+000  0.1897021E+03  0.7546771E-02  0.1158730E+00
         21   -1    0    0  501  502  0.00000000000E+00  0.00000000000E+00  0.53399158829E+02  0.53399158829E+02  0.00000000000E+00 0.  1.
         21   -1    0    0  502  503 -0.00000000000E+00 -0.00000000000E+00 -0.78800331928E+03  0.78800331928E+03  0.00000000000E+00 0. -1.
          6    1    1    2  501    0  0.17784724034E+02 -0.75773244929E+02 -0.20722963958E+03  0.28094662229E+03  0.17300000000E+03 0.  1.
         -6    1    1    2    0  503 -0.17784724034E+02  0.75773244929E+02 -0.52737452087E+03  0.56045585582E+03  0.17300000000E+03 0. -1.
<mgrwt>
<rscale>  2 0.18970209E+03</rscale>
<asrwt>0</asrwt>
<pdfrwt beam="1">  1       21 0.82152556E-02 0.18970209E+03</pdfrwt>
<pdfrwt beam="2">  1       21 0.12123127E+00 0.18970209E+03</pdfrwt>
<totfact> 0.59081235E+04</totfact>
</mgrwt>
</event>
<event>
 4    1  0.3948468E+000  0.2234932E+03  0.7546771E-02  0.1131305E+00
         21   -1    0    0  501  502  0.00000000000E+00  0.00000000000E+00  0.51705823903E+03  0.51705823903E+03  0.00000000000E+00 0. -1.
         21   -1    0    0  502  503 -0.00000000000E+00 -0.00000000000E+00 -0.14872614647E+03  0.14872614647E+03  0.00000000000E+00 0.  1.
          6    1    1    2  501    0 -0.11675470716E+02  0.14101024886E+03  0.38123882058E+03  0.44191882198E+03  0.17300000000E+03 0. -1.
         -6    1    1    2    0  503  0.11675470716E+02 -0.14101024886E+03 -0.12906728022E+02  0.22386556352E+03  0.17300000000E+03 0.  1.
<mgrwt>
<rscale>  2 0.22349319E+03</rscale>
<asrwt>0</asrwt>
<pdfrwt beam="1">  1       21 0.79547420E-01 0.22349319E+03</pdfrwt>
<pdfrwt beam="2">  1       21 0.22880946E-01 0.22349319E+03</pdfrwt>
<totfact> 0.24539915E+04</totfact>
</mgrwt>
</event>
<event>
 4    1  0.3948468E+000  0.2391789E+03  0.7546771E-02  0.1120341E+00
         21   -1    0    0  501  502  0.00000000000E+00  0.00000000000E+00  0.14279810961E+03  0.14279810961E+03  0.00000000000E+00 0. -1.
         21   -1    0    0  502  503 -0.00000000000E+00 -0.00000000000E+00 -0.63417216965E+03  0.63417216965E+03  0.00000000000E+00 0.  1.
          6    1    1    2  501    0  0.16164707550E+03 -0.33878559424E+02 -0.99266193442E+01  0.23938477725E+03  0.17300000000E+03 0. -1.
         -6    1    1    2    0  503 -0.16164707550E+03  0.33878559424E+02 -0.48144744070E+03  0.53758550200E+03  0.17300000000E+03 0.  1.
<mgrwt>
<rscale>  2 0.23917887E+03</rscale>
<asrwt>0</asrwt>
<pdfrwt beam="1">  1       21 0.21968940E-01 0.23917887E+03</pdfrwt>
<pdfrwt beam="2">  1       21 0.97564949E-01 0.23917887E+03</pdfrwt>
<totfact> 0.16379788E+04</totfact>
</mgrwt>
</event>
<event>
 4    1  0.3948468E+000  0.2523305E+03  0.7546771E-02  0.1111841E+00
         21   -1    0    0  503  502  0.00000000000E+00  0.00000000000E+00  0.53229215710E+02  0.53229215710E+02  0.00000000000E+00 0.  1.
         21   -1    0    0  501  503 -0.00000000000E+00 -0.00000000000E+00 -0.11966347874E+04  0.11966347874E+04  0.00000000000E+00 0.  1.
          6    1    1    2  501    0  0.16429442496E+03  0.82152580254E+02 -0.58413954543E+03  0.63630944755E+03  0.17300000000E+03 0.  1.
         -6    1    1    2    0  502 -0.16429442496E+03 -0.82152580254E+02 -0.55926602628E+03  0.61355455557E+03  0.17300000000E+03 0.  1.
<mgrwt>
<rscale>  2 0.25233055E+03</rscale>
<asrwt>0</asrwt>
<pdfrwt beam="1">  1       21 0.81891103E-02 0.25233055E+03</pdfrwt>
<pdfrwt beam="2">  1       21 0.18409765E+00 0.25233055E+03</pdfrwt>
<totfact> 0.18907760E+04</totfact>
</mgrwt>
</event>
<event>
 4    1  0.3948468E+000  0.1843975E+03  0.7546771E-02  0.1163614E+00
         21   -1    0    0  503  502  0.00000000000E+00  0.00000000000E+00  0.12584186862E+03  0.12584186862E+03  0.00000000000E+00 0. -1.
         21   -1    0    0  501  503 -0.00000000000E+00 -0.00000000000E+00 -0.24259681488E+04  0.24259681488E+04  0.00000000000E+00 0. -1.
          6    1    1    2  501    0  0.25138258090E+01  0.63774038138E+02 -0.23528172263E+04  0.23600320650E+04  0.17300000000E+03 0. -1.
         -6    1    1    2    0  502 -0.25138258090E+01 -0.63774038138E+02  0.52690946094E+02  0.19177795249E+03  0.17300000000E+03 0. -1.
<mgrwt>
<rscale>  2 0.18439753E+03</rscale>
<asrwt>0</asrwt>
<pdfrwt beam="1">  1       21 0.19360289E-01 0.18439753E+03</pdfrwt>
<pdfrwt beam="2">  1       21 0.37322584E+00 0.18439753E+03</pdfrwt>
<totfact> 0.31614208E+02</totfact>
</mgrwt>
</event>
<event>
 4    1  0.3948468E+000  0.1756043E+03  0.7546771E-02  0.1172126E+00
         21   -1    0    0  501  502  0.00000000000E+00  0.00000000000E+00  0.35230102139E+03  0.35230102139E+03  0.00000000000E+00 0.  1.
         21   -1    0    0  502  503 -0.00000000000E+00 -0.00000000000E+00 -0.13921983709E+03  0.13921983709E+03  0.00000000000E+00 0.  1.
          6    1    1    2  501    0 -0.18248878622E+02  0.23975873773E+02  0.25628979055E+03  0.31067880654E+03  0.17300000000E+03 0.  1.
         -6    1    1    2    0  503  0.18248878622E+02 -0.23975873773E+02 -0.43208606252E+02  0.18084205194E+03  0.17300000000E+03 0.  1.
<mgrwt>
<rscale>  2 0.17560428E+03</rscale>
<asrwt>0</asrwt>
<pdfrwt beam="1">  1       21 0.54200157E-01 0.17560428E+03</pdfrwt>
<pdfrwt beam="2">  1       21 0.21418437E-01 0.17560428E+03</pdfrwt>
<totfact> 0.65806723E+04</totfact>
</mgrwt>
</event>
<event>
 4    1  0.3948468E+000  0.2013113E+03  0.7546771E-02  0.1148637E+00
         21   -1    0    0  501  502  0.00000000000E+00  0.00000000000E+00  0.15697796840E+03  0.15697796840E+03  0.00000000000E+00 0. -1.
         21   -1    0    0  502  503 -0.00000000000E+00 -0.00000000000E+00 -0.27476955781E+03  0.27476955781E+03  0.00000000000E+00 0. -1.
          6    1    1    2  501    0  0.36649306800E+02 -0.96198012607E+02 -0.58283466424E+01  0.20139562791E+03  0.17300000000E+03 0. -1.
         -6    1    1    2    0  503 -0.36649306800E+02  0.96198012607E+02 -0.11196324277E+03  0.23035189830E+03  0.17300000000E+03 0. -1.
<mgrwt>
<rscale>  2 0.20131127E+03</rscale>
<asrwt>0</asrwt>
<pdfrwt beam="1">  1       21 0.24150457E-01 0.20131127E+03</pdfrwt>
<pdfrwt beam="2">  1       21 0.42272240E-01 0.20131127E+03</pdfrwt>
<totfact> 0.86802881E+04</totfact>
</mgrwt>
</event>
<event>
 4    1  0.3948468E+000  0.2096942E+03  0.7546771E-02  0.1141808E+00
         21   -1    0    0  501  502  0.00000000000E+00  0.00000000000E+00  0.16812178966E+03  0.16812178966E+03  0.00000000000E+00 0. -1.
         21   -1    0    0  502  503 -0.00000000000E+00 -0.00000000000E+00 -0.52135118068E+03  0.52135118068E+03  0.00000000000E+00 0. -1.
          6    1    1    2  501    0 -0.34683247958E+02 -0.11331256297E+03  0.66743266328E+02  0.22005982872E+03  0.17300000000E+03 0. -1.
         -6    1    1    2    0  503  0.34683247958E+02  0.11331256297E+03 -0.41997265734E+03  0.46941314162E+03  0.17300000000E+03 0. -1.
<mgrwt>
<rscale>  2 0.20969422E+03</rscale>
<asrwt>0</asrwt>
<pdfrwt beam="1">  1       21 0.25864891E-01 0.20969422E+03</pdfrwt>
<pdfrwt beam="2">  1       21 0.80207874E-01 0.20969422E+03</pdfrwt>
<totfact> 0.19206130E+04</totfact>
</mgrwt>
</event>
<event>
 4    1  0.3948468E+000  0.2200309E+03  0.7546771E-02  0.1133860E+00
         21   -1    0    0  503  502  0.00000000000E+00  0.00000000000E+00  0.49120278770E+03  0.49120278770E+03  0.00000000000E+00 0.  1.
         21   -1    0    0  501  503 -0.00000000000E+00 -0.00000000000E+00 -0.33285695700E+03  0.33285695700E+03  0.00000000000E+00 0.  1.
          6    1    1    2  501    0 -0.12371425743E+03  0.56386147549E+02 -0.26651320891E+03  0.34560512966E+03  0.17300000000E+03 0.  1.
         -6    1    1    2    0  502  0.12371425743E+03 -0.56386147549E+02  0.42485903960E+03  0.47845461505E+03  0.17300000000E+03 0.  1.
<mgrwt>
<rscale>  2 0.22003094E+03</rscale>
<asrwt>0</asrwt>
<pdfrwt beam="1">  1       21 0.75569660E-01 0.22003094E+03</pdfrwt>
<pdfrwt beam="2">  1       21 0.51208762E-01 0.22003094E+03</pdfrwt>
<totfact> 0.55530636E+03</totfact>
</mgrwt>
</event>
<event>
 4    1  0.3948468E+000  0.1896711E+03  0.7546771E-02  0.1158758E+00
         21   -1    0    0  503  502  0.00000000000E+00  0.00000000000E+00  0.31467079932E+03  0.31467079932E+03  0.00000000000E+00 0. -1.
         21   -1    0    0  501  503 -0.00000000000E+00 -0.00000000000E+00 -0.14499921019E+03  0.14499921019E+03  0.00000000000E+00 0. -1.
          6    1    1    2  501    0 -0.63491894757E+02  0.44887722642E+02 -0.20873042279E+02  0.19081617394E+03  0.17300000000E+03 0. -1.
         -6    1    1    2    0  502  0.63491894757E+02 -0.44887722642E+02  0.19054463140E+03  0.26885383557E+03  0.17300000000E+03 0. -1.
<mgrwt>
<rscale>  2 0.18967111E+03</rscale>
<asrwt>0</asrwt>
<pdfrwt beam="1">  1       21 0.48410892E-01 0.18967111E+03</pdfrwt>
<pdfrwt beam="2">  1       21 0.22307571E-01 0.18967111E+03</pdfrwt>
<totfact> 0.76727282E+04</totfact>
</mgrwt>
</event>
<event>
 4    1  0.3948468E+000  0.1981136E+03  0.7546771E-02  0.1151340E+00
         21   -1    0    0  501  502  0.00000000000E+00  0.00000000000E+00  0.10516347783E+03  0.10516347783E+03  0.00000000000E+00 0. -1.
         21   -1    0    0  502  503 -0.00000000000E+00 -0.00000000000E+00 -0.51290980081E+03  0.51290980081E+03  0.00000000000E+00 0.  1.
          6    1    1    2  501    0  0.71623255925E+02  0.64731092558E+02 -0.42595796260E+02  0.20264107923E+03  0.17300000000E+03 0. -1.
         -6    1    1    2    0  503 -0.71623255925E+02 -0.64731092558E+02 -0.36515052672E+03  0.41543219940E+03  0.17300000000E+03 0.  1.
<mgrwt>
<rscale>  2 0.19811362E+03</rscale>
<asrwt>0</asrwt>
<pdfrwt beam="1">  1       21 0.16178997E-01 0.19811362E+03</pdfrwt>
<pdfrwt beam="2">  1       21 0.78909201E-01 0.19811362E+03</pdfrwt>
<totfact> 0.48335124E+04</totfact>
</mgrwt>
</event>
<event>
 4    1  0.3948468E+000  0.2050820E+03  0.7546771E-02  0.1145521E+00
         21   -1    0    0  503  502  0.00000000000E+00  0.00000000000E+00  0.22475017011E+03  0.22475017011E+03  0.00000000000E+00 0.  1.
         21   -1    0    0  501  503 -0.00000000000E+00 -0.00000000000E+00 -0.23765242040E+03  0.23765242040E+03  0.00000000000E+00 0.  1.
          6    1    1    2  501    0 -0.81316118653E+02 -0.74278517172E+02 -0.11304689956E+03  0.23417559815E+03  0.17300000000E+03 0.  1.
         -6    1    1    2    0  502  0.81316118653E+02  0.74278517172E+02  0.10014464927E+03  0.22822699236E+03  0.17300000000E+03 0.  1.
<mgrwt>
<rscale>  2 0.20508196E+03</rscale>
<asrwt>0</asrwt>
<pdfrwt beam="1">  1       21 0.34576949E-01 0.20508196E+03</pdfrwt>
<pdfrwt beam="2">  1       21 0.36561911E-01 0.20508196E+03</pdfrwt>
<totfact> 0.57821740E+04</totfact>
</mgrwt>
</event>
<event>
 4    1  0.3948468E+000  0.2008615E+03  0.7546771E-02  0.1149014E+00
         21   -1    0    0  501  502  0.00000000000E+00  0.00000000000E+00  0.34572929516E+03  0.34572929516E+03  0.00000000000E+00 0. -1.
         21   -1    0    0  502  503 -0.00000000000E+00 -0.00000000000E+00 -0.11692318338E+03  0.11692318338E+03  0.00000000000E+00 0. -1.
          6    1    1    2  501    0 -0.67428149815E+02 -0.76614522017E+02  0.10421371818E+03  0.22628707305E+03  0.17300000000E+03 0. -1.
         -6    1    1    2    0  503  0.67428149815E+02  0.76614522017E+02  0.12459239361E+03  0.23636540550E+03  0.17300000000E+03 0. -1.
<mgrwt>
<rscale>  2 0.20086150E+03</rscale>
<asrwt>0</asrwt>
<pdfrwt beam="1">  1       21 0.53189122E-01 0.20086150E+03</pdfrwt>
<pdfrwt beam="2">  1       21 0.17988182E-01 0.20086150E+03</pdfrwt>
<totfact> 0.93778411E+04</totfact>
</mgrwt>
</event>
<event>
 4    1  0.3948468E+000  0.3614703E+03  0.7546771E-02  0.1058003E+00
         21   -1    0    0  503  502  0.00000000000E+00  0.00000000000E+00  0.72581393072E+03  0.72581393072E+03  0.00000000000E+00 0. -1.
         21   -1    0    0  501  503 -0.00000000000E+00 -0.00000000000E+00 -0.64029268801E+03  0.64029268801E+03  0.00000000000E+00 0.  1.
          6    1    1    2  501    0  0.20406237249E+03  0.24308507886E+03 -0.53636539033E+03  0.64679876266E+03  0.17300000000E+03 0.  1.
         -6    1    1    2    0  502 -0.20406237249E+03 -0.24308507886E+03  0.62188663304E+03  0.71930785606E+03  0.17300000000E+03 0. -1.
<mgrwt>
<rscale>  2 0.36147034E+03</rscale>
<asrwt>0</asrwt>
<pdfrwt beam="1">  1       21 0.11166368E+00 0.36147034E+03</pdfrwt>
<pdfrwt beam="2">  1       21 0.98506567E-01 0.36147034E+03</pdfrwt>
<totfact> 0.46793030E+02</totfact>
</mgrwt>
</event>
<event>
 4    1  0.3948468E+000  0.1959640E+03  0.7546771E-02  0.1153190E+00
         21   -1    0    0  503  502  0.00000000000E+00  0.00000000000E+00  0.28812335587E+03  0.28812335587E+03  0.00000000000E+00 0.  1.
         21   -1    0    0  501  503 -0.00000000000E+00 -0.00000000000E+00 -0.13380144159E+03  0.13380144159E+03  0.00000000000E+00 0.  1.
          6    1    1    2  501    0 -0.33903547972E+02 -0.85577083383E+02  0.64026621489E+02  0.20615842458E+03  0.17300000000E+03 0.  1.
         -6    1    1    2    0  502  0.33903547972E+02  0.85577083383E+02  0.90295292792E+02  0.21576637288E+03  0.17300000000E+03 0.  1.
<mgrwt>
<rscale>  2 0.19596400E+03</rscale>
<asrwt>0</asrwt>
<pdfrwt beam="1">  1       21 0.44326670E-01 0.19596400E+03</pdfrwt>
<pdfrwt beam="2">  1       21 0.20584837E-01 0.19596400E+03</pdfrwt>
<totfact> 0.10676129E+05</totfact>
</mgrwt>
</event>
<event>
 4    1  0.3948468E+000  0.2184640E+03  0.7546771E-02  0.1135033E+00
         21   -1    0    0  503  502  0.00000000000E+00  0.00000000000E+00  0.63110826645E+02  0.63110826645E+02  0.00000000000E+00 0.  1.
         21   -1    0    0  501  503 -0.00000000000E+00 -0.00000000000E+00 -0.77904935181E+03  0.77904935181E+03  0.00000000000E+00 0.  1.
          6    1    1    2  501    0  0.35652340457E+02 -0.12855518505E+03 -0.43003021743E+03  0.48234066062E+03  0.17300000000E+03 0. -1.
         -6    1    1    2    0  502 -0.35652340457E+02  0.12855518505E+03 -0.28590830774E+03  0.35981951784E+03  0.17300000000E+03 0. -1.
<mgrwt>
<rscale>  2 0.21846401E+03</rscale>
<asrwt>0</asrwt>
<pdfrwt beam="1">  1       21 0.97093582E-02 0.21846401E+03</pdfrwt>
<pdfrwt beam="2">  1       21 0.11985374E+00 0.21846401E+03</pdfrwt>
<totfact> 0.44663935E+04</totfact>
</mgrwt>
</event>
<event>
 4    1  0.3948468E+000  0.1798132E+03  0.7546771E-02  0.1167984E+00
         21   -1    0    0  503  502  0.00000000000E+00  0.00000000000E+00  0.14868914908E+04  0.14868914908E+04  0.00000000000E+00 0.  1.
         21   -1    0    0  501  503 -0.00000000000E+00 -0.00000000000E+00 -0.33918763064E+02  0.33918763064E+02  0.00000000000E+00 0.  1.
          6    1    1    2  501    0  0.42443221125E+02 -0.24542806895E+02  0.27093892872E+03  0.32517791974E+03  0.17300000000E+03 0.  1.
         -6    1    1    2    0  502 -0.42443221125E+02  0.24542806895E+02  0.11820337991E+04  0.11956323342E+04  0.17300000000E+03 0.  1.
<mgrwt>
<rscale>  2 0.17981317E+03</rscale>
<asrwt>0</asrwt>
<pdfrwt beam="1">  1       21 0.22875249E+00 0.17981317E+03</pdfrwt>
<pdfrwt beam="2">  1       21 0.52182724E-02 0.17981317E+03</pdfrwt>
<totfact> 0.22499211E+04</totfact>
</mgrwt>
</event>
<event>
 4    1  0.3948468E+000  0.2370393E+03  0.7546771E-02  0.1121781E+00
         21   -1    0    0  501  502  0.00000000000E+00  0.00000000000E+00  0.21064470684E+03  0.21064470684E+03  0.00000000000E+00 0. -1.
         21   -1    0    0  502  503 -0.00000000000E+00 -0.00000000000E+00 -0.39369307755E+03  0.39369307755E+03  0.00000000000E+00 0.  1.
          6    1    1    2  501    0 -0.29318742669E+02 -0.15937078138E+03  0.80065162519E+02  0.25019605288E+03  0.17300000000E+03 0. -1.
         -6    1    1    2    0  503  0.29318742669E+02  0.15937078138E+03 -0.26311353322E+03  0.35414173151E+03  0.17300000000E+03 0.  1.
<mgrwt>
<rscale>  2 0.23703931E+03</rscale>
<asrwt>0</asrwt>
<pdfrwt beam="1">  1       21 0.32406879E-01 0.23703931E+03</pdfrwt>
<pdfrwt beam="2">  1       21 0.60568165E-01 0.23703931E+03</pdfrwt>
<totfact> 0.22705096E+04</totfact>
</mgrwt>
</event>
<event>
 4    1  0.3948468E+000  0.2001635E+03  0.7546771E-02  0.1149601E+00
         21   -1    0    0  501  502  0.00000000000E+00  0.00000000000E+00  0.69796215292E+02  0.69796215292E+02  0.00000000000E+00 0.  1.
         21   -1    0    0  502  503 -0.00000000000E+00 -0.00000000000E+00 -0.57429612047E+03  0.57429612047E+03  0.00000000000E+00 0.  1.
          6    1    1    2  501    0 -0.32176355335E+02  0.95399812283E+02 -0.24537754372E+03  0.31666319803E+03  0.17300000000E+03 0.  1.
         -6    1    1    2    0  503  0.32176355335E+02 -0.95399812283E+02 -0.25912236146E+03  0.32742913773E+03  0.17300000000E+03 0.  1.
<mgrwt>
<rscale>  2 0.20016354E+03</rscale>
<asrwt>0</asrwt>
<pdfrwt beam="1">  1       21 0.10737879E-01 0.20016354E+03</pdfrwt>
<pdfrwt beam="2">  1       21 0.88353251E-01 0.20016354E+03</pdfrwt>
<totfact> 0.78161041E+04</totfact>
</mgrwt>
</event>
<event>
 4    1  0.3948468E+000  0.1820014E+03  0.7546771E-02  0.1165880E+00
         21   -1    0    0  501  502  0.00000000000E+00  0.00000000000E+00  0.28723797418E+03  0.28723797418E+03  0.00000000000E+00 0. -1.
         21   -1    0    0  502  503 -0.00000000000E+00 -0.00000000000E+00 -0.12162592711E+03  0.12162592711E+03  0.00000000000E+00 0. -1.
          6    1    1    2  501    0  0.37545030109E+02  0.42259684170E+02  0.12935208593E+03  0.22328562947E+03  0.17300000000E+03 0. -1.
         -6    1    1    2    0  503 -0.37545030109E+02 -0.42259684170E+02  0.36259961138E+02  0.18557827183E+03  0.17300000000E+03 0. -1.
<mgrwt>
<rscale>  2 0.18200140E+03</rscale>
<asrwt>0</asrwt>
<pdfrwt beam="1">  1       21 0.44190458E-01 0.18200140E+03</pdfrwt>
<pdfrwt beam="2">  1       21 0.18711681E-01 0.18200140E+03</pdfrwt>
<totfact> 0.12898829E+05</totfact>
</mgrwt>
</event>
<event>
 4    1  0.3948468E+000  0.1799865E+03  0.7546771E-02  0.1167816E+00
         21   -1    0    0  503  502  0.00000000000E+00  0.00000000000E+00  0.11543942444E+04  0.11543942444E+04  0.00000000000E+00 0. -1.
         21   -1    0    0  501  503 -0.00000000000E+00 -0.00000000000E+00 -0.28132103412E+02  0.28132103412E+02  0.00000000000E+00 0.  1.
          6    1    1    2  501    0 -0.49620175659E+02  0.19924135957E+01  0.53371065379E+03  0.56324257076E+03  0.17300000000E+03 0.  1.
         -6    1    1    2    0  502  0.49620175659E+02 -0.19924135957E+01  0.59255148722E+03  0.61928377708E+03  0.17300000000E+03 0. -1.
<mgrwt>
<rscale>  2 0.17998648E+03</rscale>
<asrwt>0</asrwt>
<pdfrwt beam="1">  1       21 0.17759908E+00 0.17998648E+03</pdfrwt>
<pdfrwt beam="2">  1       21 0.43280168E-02 0.17998648E+03</pdfrwt>
<totfact> 0.65342888E+04</totfact>
</mgrwt>
</event>
<event>
 4    1  0.3948468E+000  0.2555869E+03  0.7546771E-02  0.1109824E+00
         21   -1    0    0  503  502  0.00000000000E+00  0.00000000000E+00  0.39612651475E+02  0.39612651475E+02  0.00000000000E+00 0. -1.
         21   -1    0    0  501  503 -0.00000000000E+00 -0.00000000000E+00 -0.17006100268E+04  0.17006100268E+04  0.00000000000E+00 0. -1.
          6    1    1    2  501    0 -0.16354826143E+03 -0.92992583748E+02 -0.98195204478E+03  0.10146696372E+04  0.17300000000E+03 0. -1.
         -6    1    1    2    0  502  0.16354826143E+03  0.92992583748E+02 -0.67904533054E+03  0.72555304105E+03  0.17300000000E+03 0. -1.
<mgrwt>
<rscale>  2 0.25558688E+03</rscale>
<asrwt>0</asrwt>
<pdfrwt beam="1">  1       21 0.60942566E-02 0.25558688E+03</pdfrwt>
<pdfrwt beam="2">  1       21 0.26163220E+00 0.25558688E+03</pdfrwt>
<totfact> 0.10339307E+04</totfact>
</mgrwt>
</event>
<event>
 4    1  0.3948468E+000  0.2060181E+03  0.7546771E-02  0.1144759E+00
         21   -1    0    0  503  502  0.00000000000E+00  0.00000000000E+00  0.30829343198E+03  0.30829343198E+03  0.00000000000E+00 0. -1.
         21   -1    0    0  501  503 -0.00000000000E+00 -0.00000000000E+00 -0.40334739094E+03  0.40334739094E+03  0.00000000000E+00 0. -1.
          6    1    1    2  501    0  0.97142080946E+02  0.55478450012E+02 -0.33630671407E+03  0.39439275885E+03  0.17300000000E+03 0. -1.
         -6    1    1    2    0  502 -0.97142080946E+02 -0.55478450012E+02  0.24125275511E+03  0.31724806407E+03  0.17300000000E+03 0. -1.
<mgrwt>
<rscale>  2 0.20601806E+03</rscale>
<asrwt>0</asrwt>
<pdfrwt beam="1">  1       21 0.47429759E-01 0.20601806E+03</pdfrwt>
<pdfrwt beam="2">  1       21 0.62053444E-01 0.20601806E+03</pdfrwt>
<totfact> 0.10154070E+04</totfact>
</mgrwt>
</event>
<event>
 4    1  0.3948468E+000  0.2495654E+03  0.7546771E-02  0.1113580E+00
         21   -1    0    0  501  502  0.00000000000E+00  0.00000000000E+00  0.18148093682E+03  0.18148093682E+03  0.00000000000E+00 0. -1.
         21   -1    0    0  502  503 -0.00000000000E+00 -0.00000000000E+00 -0.38690334002E+03  0.38690334002E+03  0.00000000000E+00 0. -1.
          6    1    1    2  501    0 -0.96965521849E+02  0.15149780475E+03 -0.71887691178E+01  0.24966893213E+03  0.17300000000E+03 0. -1.
         -6    1    1    2    0  503  0.96965521849E+02 -0.15149780475E+03 -0.19823363408E+03  0.31871534471E+03  0.17300000000E+03 0. -1.
<mgrwt>
<rscale>  2 0.24956542E+03</rscale>
<asrwt>0</asrwt>
<pdfrwt beam="1">  1       21 0.27920144E-01 0.24956542E+03</pdfrwt>
<pdfrwt beam="2">  1       21 0.59523590E-01 0.24956542E+03</pdfrwt>
<totfact> 0.31390772E+04</totfact>
</mgrwt>
</event>
<event>
 4    1  0.3948468E+000  0.1735872E+03  0.7546771E-02  0.1174158E+00
         21   -1    0    0  503  502  0.00000000000E+00  0.00000000000E+00  0.37705637841E+03  0.37705637841E+03  0.00000000000E+00 0.  1.
         21   -1    0    0  501  503 -0.00000000000E+00 -0.00000000000E+00 -0.11211758121E+03  0.11211758121E+03  0.00000000000E+00 0.  1.
          6    1    1    2  501    0  0.31598481461E+01 -0.13911935620E+02  0.13881305040E+01  0.17359278067E+03  0.17300000000E+03 0.  1.
         -6    1    1    2    0  502 -0.31598481461E+01  0.13911935620E+02  0.26355066670E+03  0.31558117896E+03  0.17300000000E+03 0.  1.
<mgrwt>
<rscale>  2 0.17358723E+03</rscale>
<asrwt>0</asrwt>
<pdfrwt beam="1">  1       21 0.58008673E-01 0.17358723E+03</pdfrwt>
<pdfrwt beam="2">  1       21 0.17248859E-01 0.17358723E+03</pdfrwt>
<totfact> 0.85263463E+04</totfact>
</mgrwt>
</event>
<event>
 4    1  0.3948468E+000  0.3026769E+03  0.7546771E-02  0.1083910E+00
         21   -1    0    0  503  502  0.00000000000E+00  0.00000000000E+00  0.50937578149E+03  0.50937578149E+03  0.00000000000E+00 0. -1.
         21   -1    0    0  501  503 -0.00000000000E+00 -0.00000000000E+00 -0.58871475211E+03  0.58871475211E+03  0.00000000000E+00 0. -1.
          6    1    1    2  501    0  0.24268200278E+02  0.24717474699E+03 -0.49722455715E+03  0.58210442476E+03  0.17300000000E+03 0. -1.
         -6    1    1    2    0  502 -0.24268200278E+02 -0.24717474699E+03  0.41788558653E+03  0.51598610885E+03  0.17300000000E+03 0. -1.
<mgrwt>
<rscale>  2 0.30267689E+03</rscale>
<asrwt>0</asrwt>
<pdfrwt beam="1">  1       21 0.78365505E-01 0.30267689E+03</pdfrwt>
<pdfrwt beam="2">  1       21 0.90571500E-01 0.30267689E+03</pdfrwt>
<totfact> 0.13709553E+03</totfact>
</mgrwt>
</event>
<event>
 4    1  0.3948468E+000  0.1777240E+03  0.7546771E-02  0.1170024E+00
         21   -1    0    0  501  502  0.00000000000E+00  0.00000000000E+00  0.54323720322E+02  0.54323720322E+02  0.00000000000E+00 0.  1.
         21   -1    0    0  502  503 -0.00000000000E+00 -0.00000000000E+00 -0.74851958786E+03  0.74851958786E+03  0.00000000000E+00 0.  1.
          6    1    1    2  501    0  0.18957157457E+02 -0.36020274857E+02 -0.15744284689E+03  0.23743227257E+03  0.17300000000E+03 0.  1.
         -6    1    1    2    0  503 -0.18957157457E+02  0.36020274857E+02 -0.53675302064E+03  0.56541103561E+03  0.17300000000E+03 0.  1.
<mgrwt>
<rscale>  2 0.17772404E+03</rscale>
<asrwt>0</asrwt>
<pdfrwt beam="1">  1       21 0.83574956E-02 0.17772404E+03</pdfrwt>
<pdfrwt beam="2">  1       21 0.11515686E+00 0.17772404E+03</pdfrwt>
<totfact> 0.65444069E+04</totfact>
</mgrwt>
</event>
<event>
 4    1  0.3948468E+000  0.2141881E+03  0.7546771E-02  0.1138292E+00
         21   -1    0    0  501  502  0.00000000000E+00  0.00000000000E+00  0.46869061329E+02  0.46869061329E+02  0.00000000000E+00 0. -1.
         21   -1    0    0  502  503 -0.00000000000E+00 -0.00000000000E+00 -0.16539373441E+04  0.16539373441E+04  0.00000000000E+00 0.  1.
          6    1    1    2  501    0  0.95619290070E+02  0.82489282587E+02 -0.26021635294E+03  0.33702979202E+03  0.17300000000E+03 0. -1.
         -6    1    1    2    0  503 -0.95619290070E+02 -0.82489282587E+02 -0.13468519298E+04  0.13637766134E+04  0.17300000000E+03 0.  1.
<mgrwt>
<rscale>  2 0.21418807E+03</rscale>
<asrwt>0</asrwt>
<pdfrwt beam="1">  1       21 0.72106263E-02 0.21418807E+03</pdfrwt>
<pdfrwt beam="2">  1       21 0.25445185E+00 0.21418807E+03</pdfrwt>
<totfact> 0.88165371E+03</totfact>
</mgrwt>
</event>
<event>
 4    1  0.3948468E+000  0.1813087E+03  0.7546771E-02  0.1166542E+00
         21   -1    0    0  501  502  0.00000000000E+00  0.00000000000E+00  0.38030938664E+03  0.38030938664E+03  0.00000000000E+00 0. -1.
         21   -1    0    0  502  503 -0.00000000000E+00 -0.00000000000E+00 -0.10238952564E+03  0.10238952564E+03  0.00000000000E+00 0. -1.
          6    1    1    2  501    0 -0.11690451719E+02 -0.52982831472E+02  0.23422456092E+03  0.29619924380E+03  0.17300000000E+03 0. -1.
         -6    1    1    2    0  503  0.11690451719E+02  0.52982831472E+02  0.43695300081E+02  0.18649966848E+03  0.17300000000E+03 0. -1.
<mgrwt>
<rscale>  2 0.18130871E+03</rscale>
<asrwt>0</asrwt>
<pdfrwt beam="1">  1       21 0.58509136E-01 0.18130871E+03</pdfrwt>
<pdfrwt beam="2">  1       21 0.15752235E-01 0.18130871E+03</pdfrwt>
<totfact> 0.98544522E+04</totfact>
</mgrwt>
</event>
<event>
 4    1  0.3948468E+000  0.2178286E+03  0.7546771E-02  0.1135512E+00
         21   -1    0    0  501  502  0.00000000000E+00  0.00000000000E+00  0.10296328535E+03  0.10296328535E+03  0.00000000000E+00 0. -1.
         21   -1    0    0  502  503 -0.00000000000E+00 -0.00000000000E+00 -0.48142582123E+03  0.48142582123E+03  0.00000000000E+00 0.  1.
          6    1    1    2  501    0  0.61847573742E+02 -0.11702638661E+03 -0.12880544804E+03  0.25306153596E+03  0.17300000000E+03 0. -1.
         -6    1    1    2    0  503 -0.61847573742E+02  0.11702638661E+03 -0.24965708784E+03  0.33132757061E+03  0.17300000000E+03 0. -1.
<mgrwt>
<rscale>  2 0.21782860E+03</rscale>
<asrwt>0</asrwt>
<pdfrwt beam="1">  1       21 0.15840506E-01 0.21782860E+03</pdfrwt>
<pdfrwt beam="2">  1       21 0.74065509E-01 0.21782860E+03</pdfrwt>
<totfact> 0.57383075E+04</totfact>
</mgrwt>
</event>
<event>
 4    1  0.3948468E+000  0.2065991E+03  0.7546771E-02  0.1144288E+00
         21   -1    0    0  503  502  0.00000000000E+00  0.00000000000E+00  0.93880543230E+02  0.93880543230E+02  0.00000000000E+00 0.  1.
         21   -1    0    0  501  503 -0.00000000000E+00 -0.00000000000E+00 -0.45741429491E+03  0.45741429491E+03  0.00000000000E+00 0.  1.
          6    1    1    2  501    0  0.10822705131E+03  0.32265822798E+02 -0.20317928491E+03  0.28976714751E+03  0.17300000000E+03 0.  1.
         -6    1    1    2    0  502 -0.10822705131E+03 -0.32265822798E+02 -0.16035446677E+03  0.26152769064E+03  0.17300000000E+03 0.  1.
<mgrwt>
<rscale>  2 0.20659908E+03</rscale>
<asrwt>0</asrwt>
<pdfrwt beam="1">  1       21 0.14443161E-01 0.20659908E+03</pdfrwt>
<pdfrwt beam="2">  1       21 0.70371429E-01 0.20659908E+03</pdfrwt>
<totfact> 0.76483901E+04</totfact>
</mgrwt>
</event>
<event>
 4    1  0.3948468E+000  0.1758810E+03  0.7546771E-02  0.1171850E+00
         21   -1    0    0  503  502  0.00000000000E+00  0.00000000000E+00  0.13730105101E+03  0.13730105101E+03  0.00000000000E+00 0. -1.
         21   -1    0    0  501  503 -0.00000000000E+00 -0.00000000000E+00 -0.22930183808E+03  0.22930183808E+03  0.00000000000E+00 0. -1.
          6    1    1    2  501    0 -0.26664375752E+01  0.31591443933E+02 -0.70211345220E+02  0.18937730122E+03  0.17300000000E+03 0. -1.
         -6    1    1    2    0  502  0.26664375752E+01 -0.31591443933E+02 -0.21789441850E+02  0.17722558787E+03  0.17300000000E+03 0. -1.
<mgrwt>
<rscale>  2 0.17588101E+03</rscale>
<asrwt>0</asrwt>
<pdfrwt beam="1">  1       21 0.21123239E-01 0.17588101E+03</pdfrwt>
<pdfrwt beam="2">  1       21 0.35277206E-01 0.17588101E+03</pdfrwt>
<totfact> 0.16228230E+05</totfact>
</mgrwt>
</event>
<event>
 4    1  0.3948468E+000  0.2269636E+03  0.7546771E-02  0.1128795E+00
         21   -1    0    0  501  502  0.00000000000E+00  0.00000000000E+00  0.11113328249E+04  0.11113328249E+04  0.00000000000E+00 0. -1.
         21   -1    0    0  502  503 -0.00000000000E+00 -0.00000000000E+00 -0.11824210749E+03  0.11824210749E+03  0.00000000000E+00 0. -1.
          6    1    1    2  501    0 -0.94287802742E+02  0.11266457720E+03  0.97591827880E+03  0.10019625660E+04  0.17300000000E+03 0. -1.
         -6    1    1    2    0  503  0.94287802742E+02 -0.11266457720E+03  0.17172438607E+02  0.22761236642E+03  0.17300000000E+03 0. -1.
<mgrwt>
<rscale>  2 0.22696365E+03</rscale>
<asrwt>0</asrwt>
<pdfrwt beam="1">  1       21 0.17097427E+00 0.22696365E+03</pdfrwt>
<pdfrwt beam="2">  1       21 0.18191094E-01 0.22696365E+03</pdfrwt>
<totfact> 0.56237796E+03</totfact>
</mgrwt>
</event>
<event>
 4    1  0.3948468E+000  0.1780094E+03  0.7546771E-02  0.1169744E+00
         21   -1    0    0  503  502  0.00000000000E+00  0.00000000000E+00  0.13836528674E+03  0.13836528674E+03  0.00000000000E+00 0.  1.
         21   -1    0    0  501  503 -0.00000000000E+00 -0.00000000000E+00 -0.22955146087E+03  0.22955146087E+03  0.00000000000E+00 0.  1.
          6    1    1    2  501    0 -0.16602288981E+02 -0.38506044841E+02 -0.54508507387E+02  0.18616801247E+03  0.17300000000E+03 0.  1.
         -6    1    1    2    0  502  0.16602288981E+02  0.38506044841E+02 -0.36677666750E+02  0.18174873515E+03  0.17300000000E+03 0.  1.
<mgrwt>
<rscale>  2 0.17800941E+03</rscale>
<asrwt>0</asrwt>
<pdfrwt beam="1">  1       21 0.21286967E-01 0.17800941E+03</pdfrwt>
<pdfrwt beam="2">  1       21 0.35315609E-01 0.17800941E+03</pdfrwt>
<totfact> 0.15949651E+05</totfact>
</mgrwt>
</event>
<event>
 4    1  0.3948468E+000  0.1792040E+03  0.7546771E-02  0.1168576E+00
         21   -1    0    0  501  502  0.00000000000E+00  0.00000000000E+00  0.29093991051E+03  0.29093991051E+03  0.00000000000E+00 0. -1.
         21   -1    0    0  502  503 -0.00000000000E+00 -0.00000000000E+00 -0.13408199087E+03  0.13408199087E+03  0.00000000000E+00 0. -1.
          6    1    1    2  501    0 -0.41875802998E+02  0.20772157128E+02 -0.10919029710E+02  0.17953632111E+03  0.17300000000E+03 0.  1.
         -6    1    1    2    0  503  0.41875802998E+02 -0.20772157128E+02  0.16777694935E+03  0.24548558027E+03  0.17300000000E+03 0.  1.
<mgrwt>
<rscale>  2 0.17920398E+03</rscale>
<asrwt>0</asrwt>
<pdfrwt beam="1">  1       21 0.44759986E-01 0.17920398E+03</pdfrwt>
<pdfrwt beam="2">  1       21 0.20627999E-01 0.17920398E+03</pdfrwt>
<totfact> 0.10489847E+05</totfact>
</mgrwt>
</event>
<event>
 4    1  0.3948468E+000  0.1801653E+03  0.7546771E-02  0.1167643E+00
         21   -1    0    0  501  502  0.00000000000E+00  0.00000000000E+00  0.12256074499E+03  0.12256074499E+03  0.00000000000E+00 0. -1.
         21   -1    0    0  502  503 -0.00000000000E+00 -0.00000000000E+00 -0.38435918529E+03  0.38435918529E+03  0.00000000000E+00 0.  1.
          6    1    1    2  501    0 -0.45273145532E+02  0.21928594215E+02  0.10436405518E+02  0.18046728100E+03  0.17300000000E+03 0. -1.
         -6    1    1    2    0  503  0.45273145532E+02 -0.21928594215E+02 -0.27223484582E+03  0.32645264929E+03  0.17300000000E+03 0.  1.
<mgrwt>
<rscale>  2 0.18016526E+03</rscale>
<asrwt>0</asrwt>
<pdfrwt beam="1">  1       21 0.18855499E-01 0.18016526E+03</pdfrwt>
<pdfrwt beam="2">  1       21 0.59132182E-01 0.18016526E+03</pdfrwt>
<totfact> 0.69242516E+04</totfact>
</mgrwt>
</event>
<event>
 4    1  0.3948468E+000  0.2654601E+03  0.7546771E-02  0.1103906E+00
         21   -1    0    0  503  502  0.00000000000E+00  0.00000000000E+00  0.14416391011E+04  0.14416391011E+04  0.00000000000E+00 0.  1.
         21   -1    0    0  501  503 -0.00000000000E+00 -0.00000000000E+00 -0.56818095852E+02  0.56818095852E+02  0.00000000000E+00 0. -1.
          6    1    1    2  501    0 -0.19355206121E+03  0.55476676892E+02  0.41238595414E+03  0.49043984060E+03  0.17300000000E+03 0.  1.
         -6    1    1    2    0  502  0.19355206121E+03 -0.55476676892E+02  0.97243505107E+03  0.10080173563E+04  0.17300000000E+03 0.  1.
<mgrwt>
<rscale>  2 0.26546010E+03</rscale>
<asrwt>0</asrwt>
<pdfrwt beam="1">  1       21 0.22179060E+00 0.26546010E+03</pdfrwt>
<pdfrwt beam="2">  1       21 0.87412466E-02 0.26546010E+03</pdfrwt>
<totfact> 0.95311695E+03</totfact>
</mgrwt>
</event>
<event>
 4    1  0.3948468E+000  0.2266353E+03  0.7546771E-02  0.1129031E+00
         21   -1    0    0  503  502  0.00000000000E+00  0.00000000000E+00  0.40517075579E+03  0.40517075579E+03  0.00000000000E+00 0. -1.
         21   -1    0    0  501  503 -0.00000000000E+00 -0.00000000000E+00 -0.20641409738E+03  0.20641409738E+03  0.00000000000E+00 0.  1.
          6    1    1    2  501    0  0.11954599167E+03  0.84518081079E+02 -0.90569128641E+02  0.24406211754E+03  0.17300000000E+03 0. -1.
         -6    1    1    2    0  502 -0.11954599167E+03 -0.84518081079E+02  0.28932578705E+03  0.36752273563E+03  0.17300000000E+03 0. -1.
<mgrwt>
<rscale>  2 0.22663528E+03</rscale>
<asrwt>0</asrwt>
<pdfrwt beam="1">  1       21 0.62333962E-01 0.22663528E+03</pdfrwt>
<pdfrwt beam="2">  1       21 0.31756015E-01 0.22663528E+03</pdfrwt>
<totfact> 0.22324380E+04</totfact>
</mgrwt>
</event>
<event>
 4    1  0.3948468E+000  0.2025076E+03  0.7546771E-02  0.1147640E+00
         21   -1    0    0  501  502  0.00000000000E+00  0.00000000000E+00  0.41112690571E+02  0.41112690571E+02  0.00000000000E+00 0.  1.
         21   -1    0    0  502  503 -0.00000000000E+00 -0.00000000000E+00 -0.14669982489E+04  0.14669982489E+04  0.00000000000E+00 0.  1.
          6    1    1    2  501    0  0.23855542185E+02  0.10252424893E+03 -0.28635123886E+03  0.35072259766E+03  0.17300000000E+03 0.  1.
         -6    1    1    2    0  503 -0.23855542185E+02 -0.10252424893E+03 -0.11395343195E+04  0.11573883419E+04  0.17300000000E+03 0.  1.
<mgrwt>
<rscale>  2 0.20250755E+03</rscale>
<asrwt>0</asrwt>
<pdfrwt beam="1">  1       21 0.63250289E-02 0.20250755E+03</pdfrwt>
<pdfrwt beam="2">  1       21 0.22569205E+00 0.20250755E+03</pdfrwt>
<totfact> 0.16590984E+04</totfact>
</mgrwt>
</event>
<event>
 4    1  0.3948468E+000  0.1740233E+03  0.7546771E-02  0.1173716E+00
         21   -1    0    0  503  502  0.00000000000E+00  0.00000000000E+00  0.33947988870E+04  0.33947988870E+04  0.00000000000E+00 0.  1.
         21   -1    0    0  501  503 -0.00000000000E+00 -0.00000000000E+00 -0.89209419401E+01  0.89209419401E+01  0.00000000000E+00 0.  1.
          6    1    1    2  501    0 -0.17445671407E+02  0.71240663447E+01  0.16847569708E+04  0.16937208018E+04  0.17300000000E+03 0.  1.
         -6    1    1    2    0  502  0.17445671407E+02 -0.71240663447E+01  0.17011209742E+04  0.17099990271E+04  0.17300000000E+03 0.  1.
<mgrwt>
<rscale>  2 0.17402329E+03</rscale>
<asrwt>0</asrwt>
<pdfrwt beam="1">  1       21 0.52227572E+00 0.17402329E+03</pdfrwt>
<pdfrwt beam="2">  1       21 0.13724553E-02 0.17402329E+03</pdfrwt>
<totfact> 0.30576875E+03</totfact>
</mgrwt>
</event>
<event>
 4    1  0.3948468E+000  0.2263100E+03  0.7546771E-02  0.1129264E+00
         21   -1    0    0  503  502  0.00000000000E+00  0.00000000000E+00  0.36843551700E+02  0.36843551700E+02  0.00000000000E+00 0.  1.
         21   -1    0    0  501  503 -0.00000000000E+00 -0.00000000000E+00 -0.14062622268E+04  0.14062622268E+04  0.00000000000E+00 0.  1.
          6    1    1    2  501    0 -0.14542945146E+03 -0.11725685620E+02 -0.60735456188E+03  0.64814796220E+03  0.17300000000E+03 0.  1.
         -6    1    1    2    0  502  0.14542945146E+03  0.11725685620E+02 -0.76206411324E+03  0.79495781633E+03  0.17300000000E+03 0.  1.
<mgrwt>
<rscale>  2 0.22631000E+03</rscale>
<asrwt>0</asrwt>
<pdfrwt beam="1">  1       21 0.56682391E-02 0.22631000E+03</pdfrwt>
<pdfrwt beam="2">  1       21 0.21634802E+00 0.22631000E+03</pdfrwt>
<totfact> 0.22453781E+04</totfact>
</mgrwt>
</event>
<event>
 4    1  0.3948468E+000  0.1957261E+03  0.7546771E-02  0.1153396E+00
         21   -1    0    0  503  502  0.00000000000E+00  0.00000000000E+00  0.10023252517E+04  0.10023252517E+04  0.00000000000E+00 0. -1.
         21   -1    0    0  501  503 -0.00000000000E+00 -0.00000000000E+00 -0.43163014158E+02  0.43163014158E+02  0.00000000000E+00 0. -1.
          6    1    1    2  501    0 -0.91253537856E+02 -0.72445100738E+01  0.30267734320E+03  0.36044731263E+03  0.17300000000E+03 0. -1.
         -6    1    1    2    0  502  0.91253537856E+02  0.72445100738E+01  0.65648489435E+03  0.68504095323E+03  0.17300000000E+03 0. -1.
<mgrwt>
<rscale>  2 0.19572606E+03</rscale>
<asrwt>0</asrwt>
<pdfrwt beam="1">  1       21 0.15420387E+00 0.19572606E+03</pdfrwt>
<pdfrwt beam="2">  1       21 0.66404645E-02 0.19572606E+03</pdfrwt>
<totfact> 0.45948215E+04</totfact>
</mgrwt>
</event>
<event>
 4    1  0.3948468E+000  0.1798584E+03  0.7546771E-02  0.1167940E+00
         21   -1    0    0  501  502  0.00000000000E+00  0.00000000000E+00  0.59408929942E+02  0.59408929942E+02  0.00000000000E+00 0. -1.
         21   -1    0    0  502  503 -0.00000000000E+00 -0.00000000000E+00 -0.55346365276E+03  0.55346365276E+03  0.00000000000E+00 0. -1.
          6    1    1    2  501    0 -0.43621634486E+02 -0.22742019663E+02 -0.28599260057E+03  0.33784732356E+03  0.17300000000E+03 0. -1.
         -6    1    1    2    0  503  0.43621634486E+02  0.22742019663E+02 -0.20806212224E+03  0.27502525914E+03  0.17300000000E+03 0. -1.
<mgrwt>
<rscale>  2 0.17985841E+03</rscale>
<asrwt>0</asrwt>
<pdfrwt beam="1">  1       21 0.91398356E-02 0.17985841E+03</pdfrwt>
<pdfrwt beam="2">  1       21 0.85148253E-01 0.17985841E+03</pdfrwt>
<totfact> 0.11402507E+05</totfact>
</mgrwt>
</event>
<event>
 4    1  0.3948468E+000  0.1784531E+03  0.7546771E-02  0.1169309E+00
         21   -1    0    0  503  502  0.00000000000E+00  0.00000000000E+00  0.25176686101E+03  0.25176686101E+03  0.00000000000E+00 0.  1.
         21   -1    0    0  501  503 -0.00000000000E+00 -0.00000000000E+00 -0.21899402071E+03  0.21899402071E+03  0.00000000000E+00 0.  1.
          6    1    1    2  501    0 -0.92813452801E+01 -0.42782873387E+02 -0.13659509391E+03  0.22473036579E+03  0.17300000000E+03 0.  1.
         -6    1    1    2    0  502  0.92813452801E+01  0.42782873387E+02  0.16936793421E+03  0.24603051592E+03  0.17300000000E+03 0.  1.
<mgrwt>
<rscale>  2 0.17845312E+03</rscale>
<asrwt>0</asrwt>
<pdfrwt beam="1">  1       21 0.38733363E-01 0.17845312E+03</pdfrwt>
<pdfrwt beam="2">  1       21 0.33691388E-01 0.17845312E+03</pdfrwt>
<totfact> 0.54897749E+04</totfact>
</mgrwt>
</event>
<event>
 4    1  0.3948468E+000  0.2140983E+03  0.7546771E-02  0.1138361E+00
         21   -1    0    0  503  502  0.00000000000E+00  0.00000000000E+00  0.34180146111E+02  0.34180146111E+02  0.00000000000E+00 0.  1.
         21   -1    0    0  501  503 -0.00000000000E+00 -0.00000000000E+00 -0.13439749184E+04  0.13439749184E+04  0.00000000000E+00 0. -1.
          6    1    1    2  501    0 -0.11853358257E+03 -0.43114865818E+02 -0.62288281101E+03  0.65865096834E+03  0.17300000000E+03 0. -1.
         -6    1    1    2    0  502  0.11853358257E+03  0.43114865818E+02 -0.68691196133E+03  0.71950409621E+03  0.17300000000E+03 0. -1.
<mgrwt>
<rscale>  2 0.21409835E+03</rscale>
<asrwt>0</asrwt>
<pdfrwt beam="1">  1       21 0.52584860E-02 0.21409835E+03</pdfrwt>
<pdfrwt beam="2">  1       21 0.20676529E+00 0.21409835E+03</pdfrwt>
<totfact> 0.29572024E+04</totfact>
</mgrwt>
</event>
<event>
 4    1  0.3948468E+000  0.1855383E+03  0.7546771E-02  0.1162548E+00
         21   -1    0    0  501  502  0.00000000000E+00  0.00000000000E+00  0.74181140053E+02  0.74181140053E+02  0.00000000000E+00 0.  1.
         21   -1    0    0  502  503 -0.00000000000E+00 -0.00000000000E+00 -0.77985983343E+03  0.77985983343E+03  0.00000000000E+00 0.  1.
          6    1    1    2  501    0 -0.66897019610E+01 -0.66713720619E+02 -0.81103686236E+02  0.20249019866E+03  0.17300000000E+03 0.  1.
         -6    1    1    2    0  503  0.66897019610E+01  0.66713720619E+02 -0.62457500714E+03  0.65155077483E+03  0.17300000000E+03 0.  1.
<mgrwt>
<rscale>  2 0.18553833E+03</rscale>
<asrwt>0</asrwt>
<pdfrwt beam="1">  1       21 0.11412482E-01 0.18553833E+03</pdfrwt>
<pdfrwt beam="2">  1       21 0.11997844E+00 0.18553833E+03</pdfrwt>
<totfact> 0.34048011E+04</totfact>
</mgrwt>
</event>
<event>
 4    1  0.3948468E+000  0.2679720E+03  0.7546771E-02  0.1102446E+00
         21   -1    0    0  503  502  0.00000000000E+00  0.00000000000E+00  0.21362957325E+03  0.21362957325E+03  0.00000000000E+00 0.  1.
         21   -1    0    0  501  503 -0.00000000000E+00 -0.00000000000E+00 -0.34534347317E+03  0.34534347317E+03  0.00000000000E+00 0.  1.
          6    1    1    2  501    0  0.14565491932E+03 -0.14375205471E+03 -0.11148787449E+03  0.29023878947E+03  0.17300000000E+03 0. -1.
         -6    1    1    2    0  502 -0.14565491932E+03  0.14375205471E+03 -0.20226025439E+02  0.26873425695E+03  0.17300000000E+03 0. -1.
<mgrwt>
<rscale>  2 0.26797203E+03</rscale>
<asrwt>0</asrwt>
<pdfrwt beam="1">  1       21 0.32866088E-01 0.26797203E+03</pdfrwt>
<pdfrwt beam="2">  1       21 0.53129765E-01 0.26797203E+03</pdfrwt>
<totfact> 0.28825870E+04</totfact>
</mgrwt>
</event>
<event>
 4    1  0.3948468E+000  0.2006975E+03  0.7546771E-02  0.1149152E+00
         21   -1    0    0  503  502  0.00000000000E+00  0.00000000000E+00  0.24465906298E+03  0.24465906298E+03  0.00000000000E+00 0. -1.
         21   -1    0    0  501  503 -0.00000000000E+00 -0.00000000000E+00 -0.19785810918E+03  0.19785810918E+03  0.00000000000E+00 0. -1.
          6    1    1    2  501    0 -0.73005022130E+02  0.70857260762E+02 -0.67265068477E+02  0.21166972881E+03  0.17300000000E+03 0. -1.
         -6    1    1    2    0  502  0.73005022130E+02 -0.70857260762E+02  0.11406602228E+03  0.23084744334E+03  0.17300000000E+03 0. -1.
<mgrwt>
<rscale>  2 0.20069750E+03</rscale>
<asrwt>0</asrwt>
<pdfrwt beam="1">  1       21 0.37639856E-01 0.20069750E+03</pdfrwt>
<pdfrwt beam="2">  1       21 0.30439709E-01 0.20069750E+03</pdfrwt>
<totfact> 0.70257499E+04</totfact>
</mgrwt>
</event>
<event>
 4    1  0.3948468E+000  0.2107893E+03  0.7546771E-02  0.1140942E+00
         21   -1    0    0  503  502  0.00000000000E+00  0.00000000000E+00  0.68590251837E+02  0.68590251837E+02  0.00000000000E+00 0.  1.
         21   -1    0    0  501  503 -0.00000000000E+00 -0.00000000000E+00 -0.13223907006E+04  0.13223907006E+04  0.00000000000E+00 0.  1.
          6    1    1    2  501    0  0.31193853435E+02 -0.11631882843E+03 -0.11236463253E+04  0.11432467760E+04  0.17300000000E+03 0.  1.
         -6    1    1    2    0  502 -0.31193853435E+02  0.11631882843E+03 -0.13015412342E+03  0.24773417645E+03  0.17300000000E+03 0.  1.
<mgrwt>
<rscale>  2 0.21078929E+03</rscale>
<asrwt>0</asrwt>
<pdfrwt beam="1">  1       21 0.10552347E-01 0.21078929E+03</pdfrwt>
<pdfrwt beam="2">  1       21 0.20344471E+00 0.21078929E+03</pdfrwt>
<totfact> 0.92745772E+03</totfact>
</mgrwt>
</event>
<event>
 4    1  0.3948468E+000  0.2471219E+03  0.7546771E-02  0.1115137E+00
         21   -1    0    0  503  502  0.00000000000E+00  0.00000000000E+00  0.69643974978E+03  0.69643974978E+03  0.00000000000E+00 0. -1.
         21   -1    0    0  501  503 -0.00000000000E+00 -0.00000000000E+00 -0.94700452886E+02  0.94700452886E+02  0.00000000000E+00 0. -1.
          6    1    1    2  501    0  0.17595778598E+03  0.13381736756E+02  0.40851396363E+03  0.47744410333E+03  0.17300000000E+03 0. -1.
         -6    1    1    2    0  502 -0.17595778598E+03 -0.13381736756E+02  0.19322533327E+03  0.31369609934E+03  0.17300000000E+03 0. -1.
<mgrwt>
<rscale>  2 0.24712186E+03</rscale>
<asrwt>0</asrwt>
<pdfrwt beam="1">  1       21 0.10714457E+00 0.24712186E+03</pdfrwt>
<pdfrwt beam="2">  1       21 0.14569301E-01 0.24712186E+03</pdfrwt>
<totfact> 0.27955790E+04</totfact>
</mgrwt>
</event>
<event>
 4    1  0.3948468E+000  0.1851534E+03  0.7546771E-02  0.1162907E+00
         21   -1    0    0  503  502  0.00000000000E+00  0.00000000000E+00  0.31408718102E+03  0.31408718102E+03  0.00000000000E+00 0. -1.
         21   -1    0    0  501  503 -0.00000000000E+00 -0.00000000000E+00 -0.14933655049E+03  0.14933655049E+03  0.00000000000E+00 0. -1.
          6    1    1    2  501    0  0.63247245024E+02 -0.18776346224E+02 -0.37829043082E+02  0.18897831008E+03  0.17300000000E+03 0.  1.
         -6    1    1    2    0  502 -0.63247245024E+02  0.18776346224E+02  0.20257967362E+03  0.27444542143E+03  0.17300000000E+03 0.  1.
<mgrwt>
<rscale>  2 0.18515336E+03</rscale>
<asrwt>0</asrwt>
<pdfrwt beam="1">  1       21 0.48321105E-01 0.18515336E+03</pdfrwt>
<pdfrwt beam="2">  1       21 0.22974854E-01 0.18515336E+03</pdfrwt>
<totfact> 0.72987043E+04</totfact>
</mgrwt>
</event>
<event>
 4    1  0.3948468E+000  0.2048482E+03  0.7546771E-02  0.1145712E+00
         21   -1    0    0  503  502  0.00000000000E+00  0.00000000000E+00  0.33506190323E+02  0.33506190323E+02  0.00000000000E+00 0. -1.
         21   -1    0    0  501  503 -0.00000000000E+00 -0.00000000000E+00 -0.15112702149E+04  0.15112702149E+04  0.00000000000E+00 0. -1.
          6    1    1    2  501    0  0.97000795957E+02 -0.51231151390E+02 -0.10585615303E+04  0.10782000273E+04  0.17300000000E+03 0. -1.
         -6    1    1    2    0  502 -0.97000795957E+02  0.51231151390E+02 -0.41920249423E+03  0.46657637795E+03  0.17300000000E+03 0. -1.
<mgrwt>
<rscale>  2 0.20484820E+03</rscale>
<asrwt>0</asrwt>
<pdfrwt beam="1">  1       21 0.51547988E-02 0.20484820E+03</pdfrwt>
<pdfrwt beam="2">  1       21 0.23250310E+00 0.20484820E+03</pdfrwt>
<totfact> 0.21362898E+04</totfact>
</mgrwt>
</event>
<event>
 4    1  0.3948468E+000  0.2224067E+03  0.7546771E-02  0.1132101E+00
         21   -1    0    0  501  502  0.00000000000E+00  0.00000000000E+00  0.93523079360E+03  0.93523079360E+03  0.00000000000E+00 0. -1.
         21   -1    0    0  502  503 -0.00000000000E+00 -0.00000000000E+00 -0.10704964705E+03  0.10704964705E+03  0.00000000000E+00 0.  1.
          6    1    1    2  501    0 -0.11224162055E+03 -0.83292032855E+02  0.78476977928E+03  0.81567662134E+03  0.17300000000E+03 0. -1.
         -6    1    1    2    0  503  0.11224162055E+03  0.83292032855E+02  0.43411367275E+02  0.22660381932E+03  0.17300000000E+03 0.  1.
<mgrwt>
<rscale>  2 0.22240671E+03</rscale>
<asrwt>0</asrwt>
<pdfrwt beam="1">  1       21 0.14388165E+00 0.22240671E+03</pdfrwt>
<pdfrwt beam="2">  1       21 0.16469177E-01 0.22240671E+03</pdfrwt>
<totfact> 0.10792045E+04</totfact>
</mgrwt>
</event>
<event>
 4    1  0.3948468E+000  0.2096853E+03  0.7546771E-02  0.1141815E+00
         21   -1    0    0  503  502  0.00000000000E+00  0.00000000000E+00  0.61166692480E+02  0.61166692480E+02  0.00000000000E+00 0.  1.
         21   -1    0    0  501  503 -0.00000000000E+00 -0.00000000000E+00 -0.89717223114E+03  0.89717223114E+03  0.00000000000E+00 0. -1.
          6    1    1    2  501    0 -0.11846101530E+03 -0.24311061833E+01 -0.63164587905E+03  0.66554071171E+03  0.17300000000E+03 0. -1.
         -6    1    1    2    0  502  0.11846101530E+03  0.24311061833E+01 -0.20435965962E+03  0.29279821192E+03  0.17300000000E+03 0.  1.
<mgrwt>
<rscale>  2 0.20968529E+03</rscale>
<asrwt>0</asrwt>
<pdfrwt beam="1">  1       21 0.94102614E-02 0.20968529E+03</pdfrwt>
<pdfrwt beam="2">  1       21 0.13802648E+00 0.20968529E+03</pdfrwt>
<totfact> 0.33189404E+04</totfact>
</mgrwt>
</event>
<event>
 4    1  0.3948468E+000  0.2014549E+03  0.7546771E-02  0.1148517E+00
         21   -1    0    0  503  502  0.00000000000E+00  0.00000000000E+00  0.82987587000E+03  0.82987587000E+03  0.00000000000E+00 0. -1.
         21   -1    0    0  501  503 -0.00000000000E+00 -0.00000000000E+00 -0.10821154650E+03  0.10821154650E+03  0.00000000000E+00 0. -1.
          6    1    1    2  501    0  0.48956040110E+02 -0.90875723289E+02  0.13590207630E+02  0.20191281458E+03  0.17300000000E+03 0.  1.
         -6    1    1    2    0  502 -0.48956040110E+02  0.90875723289E+02  0.70807411587E+03  0.73617460192E+03  0.17300000000E+03 0.  1.
<mgrwt>
<rscale>  2 0.20145494E+03</rscale>
<asrwt>0</asrwt>
<pdfrwt beam="1">  1       21 0.12767321E+00 0.20145494E+03</pdfrwt>
<pdfrwt beam="2">  1       21 0.16647931E-01 0.20145494E+03</pdfrwt>
<totfact> 0.14577799E+04</totfact>
</mgrwt>
</event>
<event>
 4    1  0.3948468E+000  0.2058957E+03  0.7546771E-02  0.1144858E+00
         21   -1    0    0  501  502  0.00000000000E+00  0.00000000000E+00  0.38480449561E+03  0.38480449561E+03  0.00000000000E+00 0.  1.
         21   -1    0    0  502  503 -0.00000000000E+00 -0.00000000000E+00 -0.11827341297E+03  0.11827341297E+03  0.00000000000E+00 0. -1.
          6    1    1    2  501    0 -0.94056837849E+02  0.60144536713E+02  0.19911547784E+03  0.28642630389E+03  0.17300000000E+03 0. -1.
         -6    1    1    2    0  503  0.94056837849E+02 -0.60144536713E+02  0.67415604797E+02  0.21665160469E+03  0.17300000000E+03 0. -1.
<mgrwt>
<rscale>  2 0.20589574E+03</rscale>
<asrwt>0</asrwt>
<pdfrwt beam="1">  1       21 0.59200691E-01 0.20589574E+03</pdfrwt>
<pdfrwt beam="2">  1       21 0.18195910E-01 0.20589574E+03</pdfrwt>
<totfact> 0.72957727E+04</totfact>
</mgrwt>
</event>
<event>
 4    1  0.3948468E+000  0.1783607E+03  0.7546771E-02  0.1169399E+00
         21   -1    0    0  501  502  0.00000000000E+00  0.00000000000E+00  0.39340000625E+02  0.39340000625E+02  0.00000000000E+00 0.  1.
         21   -1    0    0  502  503 -0.00000000000E+00 -0.00000000000E+00 -0.88796281322E+03  0.88796281322E+03  0.00000000000E+00 0.  1.
          6    1    1    2  501    0  0.32002861226E+02 -0.29314802057E+02 -0.28574800880E+03  0.33684486827E+03  0.17300000000E+03 0.  1.
         -6    1    1    2    0  503 -0.32002861226E+02  0.29314802057E+02 -0.56287480379E+03  0.59045794557E+03  0.17300000000E+03 0.  1.
<mgrwt>
<rscale>  2 0.17836070E+03</rscale>
<asrwt>0</asrwt>
<pdfrwt beam="1">  1       21 0.60523077E-02 0.17836070E+03</pdfrwt>
<pdfrwt beam="2">  1       21 0.13660967E+00 0.17836070E+03</pdfrwt>
<totfact> 0.74569835E+04</totfact>
</mgrwt>
</event>
<event>
 4    1  0.3948468E+000  0.2121825E+03  0.7546771E-02  0.1139849E+00
         21   -1    0    0  503  502  0.00000000000E+00  0.00000000000E+00  0.50616057612E+02  0.50616057612E+02  0.00000000000E+00 0. -1.
         21   -1    0    0  501  503 -0.00000000000E+00 -0.00000000000E+00 -0.16086367045E+04  0.16086367045E+04  0.00000000000E+00 0. -1.
          6    1    1    2  501    0 -0.12158170074E+03  0.17615122923E+02 -0.13337238093E+04  0.13504964280E+04  0.17300000000E+03 0. -1.
         -6    1    1    2    0  502  0.12158170074E+03 -0.17615122923E+02 -0.22429683759E+03  0.30875633413E+03  0.17300000000E+03 0. -1.
<mgrwt>
<rscale>  2 0.21218247E+03</rscale>
<asrwt>0</asrwt>
<pdfrwt beam="1">  1       21 0.77870863E-02 0.21218247E+03</pdfrwt>
<pdfrwt beam="2">  1       21 0.24748255E+00 0.21218247E+03</pdfrwt>
<totfact> 0.84962136E+03</totfact>
</mgrwt>
</event>
<event>
 4    1  0.3948468E+000  0.2516648E+03  0.7546771E-02  0.1112257E+00
         21   -1    0    0  503  502  0.00000000000E+00  0.00000000000E+00  0.39550287075E+03  0.39550287075E+03  0.00000000000E+00 0.  1.
         21   -1    0    0  501  503 -0.00000000000E+00 -0.00000000000E+00 -0.24547087488E+03  0.24547087488E+03  0.00000000000E+00 0. -1.
          6    1    1    2  501    0 -0.18271506195E+03  0.46235229021E+01 -0.11394300944E+03  0.27625745280E+03  0.17300000000E+03 0. -1.
         -6    1    1    2    0  502  0.18271506195E+03 -0.46235229021E+01  0.26397500531E+03  0.36471629283E+03  0.17300000000E+03 0.  1.
<mgrwt>
<rscale>  2 0.25166480E+03</rscale>
<asrwt>0</asrwt>
<pdfrwt beam="1">  1       21 0.60846595E-01 0.25166480E+03</pdfrwt>
<pdfrwt beam="2">  1       21 0.37764750E-01 0.25166480E+03</pdfrwt>
<totfact> 0.16444224E+04</totfact>
</mgrwt>
</event>
<event>
 4    1  0.3948468E+000  0.2368311E+03  0.7546771E-02  0.1121922E+00
         21   -1    0    0  503  502  0.00000000000E+00  0.00000000000E+00  0.23341085804E+02  0.23341085804E+02  0.00000000000E+00 0.  1.
         21   -1    0    0  501  503 -0.00000000000E+00 -0.00000000000E+00 -0.24375789527E+04  0.24375789527E+04  0.00000000000E+00 0.  1.
          6    1    1    2  501    0 -0.13177013558E+03  0.93790178746E+02 -0.10605967530E+04  0.10867172763E+04  0.17300000000E+03 0.  1.
         -6    1    1    2    0  502  0.13177013558E+03 -0.93790178746E+02 -0.13536411139E+04  0.13742027621E+04  0.17300000000E+03 0.  1.
<mgrwt>
<rscale>  2 0.23683109E+03</rscale>
<asrwt>0</asrwt>
<pdfrwt beam="1">  1       21 0.35909366E-02 0.23683109E+03</pdfrwt>
<pdfrwt beam="2">  1       21 0.37501212E+00 0.23683109E+03</pdfrwt>
<totfact> 0.55206322E+03</totfact>
</mgrwt>
</event>
<event>
 4    1  0.3948468E+000  0.2790661E+03  0.7546771E-02  0.1096200E+00
         21   -1    0    0  503  502  0.00000000000E+00  0.00000000000E+00  0.70834439823E+02  0.70834439823E+02  0.00000000000E+00 0. -1.
         21   -1    0    0  501  503 -0.00000000000E+00 -0.00000000000E+00 -0.10996066334E+04  0.10996066334E+04  0.00000000000E+00 0.  1.
          6    1    1    2  501    0  0.21687063884E+03 -0.30265700057E+02 -0.52169022414E+03  0.59164058055E+03  0.17300000000E+03 0. -1.
         -6    1    1    2    0  502 -0.21687063884E+03  0.30265700057E+02 -0.50708196943E+03  0.57880049266E+03  0.17300000000E+03 0. -1.
<mgrwt>
<rscale>  2 0.27906610E+03</rscale>
<asrwt>0</asrwt>
<pdfrwt beam="1">  1       21 0.10897607E-01 0.27906610E+03</pdfrwt>
<pdfrwt beam="2">  1       21 0.16917024E+00 0.27906610E+03</pdfrwt>
<totfact> 0.14267544E+04</totfact>
</mgrwt>
</event>
<event>
 4    1  0.3948468E+000  0.2453750E+03  0.7546771E-02  0.1116263E+00
         21   -1    0    0  501  502  0.00000000000E+00  0.00000000000E+00  0.45931633716E+03  0.45931633716E+03  0.00000000000E+00 0. -1.
         21   -1    0    0  502  503 -0.00000000000E+00 -0.00000000000E+00 -0.19352322620E+03  0.19352322620E+03  0.00000000000E+00 0. -1.
          6    1    1    2  501    0  0.69609134296E+02  0.15948177297E+03  0.31830941587E+03  0.40190764078E+03  0.17300000000E+03 0. -1.
         -6    1    1    2    0  503 -0.69609134296E+02 -0.15948177297E+03 -0.52516304912E+02  0.25093192258E+03  0.17300000000E+03 0. -1.
<mgrwt>
<rscale>  2 0.24537495E+03</rscale>
<asrwt>0</asrwt>
<pdfrwt beam="1">  1       21 0.70664051E-01 0.24537495E+03</pdfrwt>
<pdfrwt beam="2">  1       21 0.29772804E-01 0.24537495E+03</pdfrwt>
<totfact> 0.19055350E+04</totfact>
</mgrwt>
</event>
<event>
 4    1  0.3948468E+000  0.2128755E+03  0.7546771E-02  0.1139309E+00
         21   -1    0    0  501  502  0.00000000000E+00  0.00000000000E+00  0.62045220154E+03  0.62045220154E+03  0.00000000000E+00 0.  1.
         21   -1    0    0  502  503 -0.00000000000E+00 -0.00000000000E+00 -0.91554883814E+02  0.91554883814E+02  0.00000000000E+00 0.  1.
          6    1    1    2  501    0 -0.39983990952E+02 -0.11742339818E+03  0.42455521496E+03  0.47493484239E+03  0.17300000000E+03 0.  1.
         -6    1    1    2    0  503  0.39983990952E+02  0.11742339818E+03  0.10434210277E+03  0.23707224296E+03  0.17300000000E+03 0.  1.
<mgrwt>
<rscale>  2 0.21287549E+03</rscale>
<asrwt>0</asrwt>
<pdfrwt beam="1">  1       21 0.95454182E-01 0.21287549E+03</pdfrwt>
<pdfrwt beam="2">  1       21 0.14085367E-01 0.21287549E+03</pdfrwt>
<totfact> 0.39857666E+04</totfact>
</mgrwt>
</event>
<event>
 4    1  0.3948468E+000  0.2239139E+03  0.7546771E-02  0.1130998E+00
         21   -1    0    0  501  502  0.00000000000E+00  0.00000000000E+00  0.37425542033E+02  0.37425542033E+02  0.00000000000E+00 0. -1.
         21   -1    0    0  502  503 -0.00000000000E+00 -0.00000000000E+00 -0.13424065159E+04  0.13424065159E+04  0.00000000000E+00 0. -1.
          6    1    1    2  501    0 -0.54937702612E+02  0.13111164736E+03 -0.68371011426E+03  0.71944210023E+03  0.17300000000E+03 0. -1.
         -6    1    1    2    0  503  0.54937702612E+02 -0.13111164736E+03 -0.62127085962E+03  0.66038995771E+03  0.17300000000E+03 0. -1.
<mgrwt>
<rscale>  2 0.22391386E+03</rscale>
<asrwt>0</asrwt>
<pdfrwt beam="1">  1       21 0.57577747E-02 0.22391386E+03</pdfrwt>
<pdfrwt beam="2">  1       21 0.20652412E+00 0.22391386E+03</pdfrwt>
<totfact> 0.25246626E+04</totfact>
</mgrwt>
</event>
<event>
 4    1  0.3948468E+000  0.2586979E+03  0.7546771E-02  0.1107928E+00
         21   -1    0    0  501  502  0.00000000000E+00  0.00000000000E+00  0.12736471913E+03  0.12736471913E+03  0.00000000000E+00 0.  1.
         21   -1    0    0  502  503 -0.00000000000E+00 -0.00000000000E+00 -0.82450467918E+03  0.82450467918E+03  0.00000000000E+00 0.  1.
          6    1    1    2  501    0 -0.18855253851E+03  0.37993927282E+02 -0.61940068738E+02  0.26600971863E+03  0.17300000000E+03 0.  1.
         -6    1    1    2    0  503  0.18855253851E+03 -0.37993927282E+02 -0.63519989131E+03  0.68585967968E+03  0.17300000000E+03 0.  1.
<mgrwt>
<rscale>  2 0.25869789E+03</rscale>
<asrwt>0</asrwt>
<pdfrwt beam="1">  1       21 0.19594572E-01 0.25869789E+03</pdfrwt>
<pdfrwt beam="2">  1       21 0.12684687E+00 0.25869789E+03</pdfrwt>
<totfact> 0.10570493E+04</totfact>
</mgrwt>
</event>
<event>
 4    1  0.3948468E+000  0.2061377E+03  0.7546771E-02  0.1144662E+00
         21   -1    0    0  501  502  0.00000000000E+00  0.00000000000E+00  0.83825957308E+02  0.83825957308E+02  0.00000000000E+00 0.  1.
         21   -1    0    0  502  503 -0.00000000000E+00 -0.00000000000E+00 -0.52661440660E+03  0.52661440660E+03  0.00000000000E+00 0.  1.
          6    1    1    2  501    0 -0.53576828043E+02 -0.98454417050E+02 -0.16236344578E+03  0.26240167161E+03  0.17300000000E+03 0.  1.
         -6    1    1    2    0  503  0.53576828043E+02  0.98454417050E+02 -0.28042500351E+03  0.34803869229E+03  0.17300000000E+03 0.  1.
<mgrwt>
<rscale>  2 0.20613769E+03</rscale>
<asrwt>0</asrwt>
<pdfrwt beam="1">  1       21 0.12896301E-01 0.20613769E+03</pdfrwt>
<pdfrwt beam="2">  1       21 0.81017602E-01 0.20613769E+03</pdfrwt>
<totfact> 0.68497944E+04</totfact>
</mgrwt>
</event>
<event>
 4    1  0.3948468E+000  0.1903614E+03  0.7546771E-02  0.1158136E+00
         21   -1    0    0  503  502  0.00000000000E+00  0.00000000000E+00  0.33412701187E+03  0.33412701187E+03  0.00000000000E+00 0.  1.
         21   -1    0    0  501  503 -0.00000000000E+00 -0.00000000000E+00 -0.20667523468E+03  0.20667523468E+03  0.00000000000E+00 0.  1.
          6    1    1    2  501    0 -0.76101644586E+02 -0.22738003000E+02 -0.12268296199E+03  0.22646983519E+03  0.17300000000E+03 0.  1.
         -6    1    1    2    0  502  0.76101644586E+02  0.22738003000E+02  0.25013473918E+03  0.31433241136E+03  0.17300000000E+03 0.  1.
<mgrwt>
<rscale>  2 0.19036144E+03</rscale>
<asrwt>0</asrwt>
<pdfrwt beam="1">  1       21 0.51404156E-01 0.19036144E+03</pdfrwt>
<pdfrwt beam="2">  1       21 0.31796190E-01 0.19036144E+03</pdfrwt>
<totfact> 0.34244284E+04</totfact>
</mgrwt>
</event>
<event>
 4    1  0.3948468E+000  0.2150343E+03  0.7546771E-02  0.1137640E+00
         21   -1    0    0  501  502  0.00000000000E+00  0.00000000000E+00  0.22361374241E+04  0.22361374241E+04  0.00000000000E+00 0. -1.
         21   -1    0    0  502  503 -0.00000000000E+00 -0.00000000000E+00 -0.20761251887E+02  0.20761251887E+02  0.00000000000E+00 0. -1.
          6    1    1    2  501    0  0.71486756187E+02  0.10583197852E+03  0.11789706319E+04  0.11984204249E+04  0.17300000000E+03 0. -1.
         -6    1    1    2    0  503 -0.71486756187E+02 -0.10583197852E+03  0.10364055403E+04  0.10584782511E+04  0.17300000000E+03 0. -1.
<mgrwt>
<rscale>  2 0.21503433E+03</rscale>
<asrwt>0</asrwt>
<pdfrwt beam="1">  1       21 0.34402095E+00 0.21503433E+03</pdfrwt>
<pdfrwt beam="2">  1       21 0.31940405E-02 0.21503433E+03</pdfrwt>
<totfact> 0.10547832E+04</totfact>
</mgrwt>
</event>
<event>
 4    1  0.3948468E+000  0.2023133E+03  0.7546771E-02  0.1147802E+00
         21   -1    0    0  503  502  0.00000000000E+00  0.00000000000E+00  0.61017212925E+03  0.61017212925E+03  0.00000000000E+00 0. -1.
         21   -1    0    0  501  503 -0.00000000000E+00 -0.00000000000E+00 -0.94586994960E+02  0.94586994960E+02  0.00000000000E+00 0. -1.
          6    1    1    2  501    0 -0.10450432127E+03 -0.89724566759E+01  0.67766780727E+02  0.21336118371E+03  0.17300000000E+03 0. -1.
         -6    1    1    2    0  502  0.10450432127E+03  0.89724566759E+01  0.44781835357E+03  0.49139794051E+03  0.17300000000E+03 0. -1.
<mgrwt>
<rscale>  2 0.20231327E+03</rscale>
<asrwt>0</asrwt>
<pdfrwt beam="1">  1       21 0.93872633E-01 0.20231327E+03</pdfrwt>
<pdfrwt beam="2">  1       21 0.14551846E-01 0.20231327E+03</pdfrwt>
<totfact> 0.39282451E+04</totfact>
</mgrwt>
</event>
<event>
 4    1  0.3948468E+000  0.1890228E+03  0.7546771E-02  0.1159346E+00
         21   -1    0    0  503  502  0.00000000000E+00  0.00000000000E+00  0.64320381960E+02  0.64320381960E+02  0.00000000000E+00 0.  1.
         21   -1    0    0  501  503 -0.00000000000E+00 -0.00000000000E+00 -0.55889582146E+03  0.55889582146E+03  0.00000000000E+00 0.  1.
          6    1    1    2  501    0 -0.76116207269E+02 -0.26337497260E+01 -0.22297845164E+03  0.29231661523E+03  0.17300000000E+03 0. -1.
         -6    1    1    2    0  502  0.76116207269E+02  0.26337497260E+01 -0.27159698786E+03  0.33089958819E+03  0.17300000000E+03 0. -1.
<mgrwt>
<rscale>  2 0.18902279E+03</rscale>
<asrwt>0</asrwt>
<pdfrwt beam="1">  1       21 0.98954431E-02 0.18902279E+03</pdfrwt>
<pdfrwt beam="2">  1       21 0.85983975E-01 0.18902279E+03</pdfrwt>
<totfact> 0.96619110E+04</totfact>
</mgrwt>
</event>
<event>
 4    1  0.3948468E+000  0.1807502E+03  0.7546771E-02  0.1167079E+00
         21   -1    0    0  501  502  0.00000000000E+00  0.00000000000E+00  0.26391807005E+04  0.26391807005E+04  0.00000000000E+00 0.  1.
         21   -1    0    0  502  503 -0.00000000000E+00 -0.00000000000E+00 -0.23180949184E+02  0.23180949184E+02  0.00000000000E+00 0.  1.
          6    1    1    2  501    0 -0.10440515120E+01  0.52350186122E+02  0.22167006110E+04  0.22240576051E+04  0.17300000000E+03 0.  1.
         -6    1    1    2    0  503  0.10440515120E+01 -0.52350186122E+02  0.39929914027E+03  0.43830404453E+03  0.17300000000E+03 0.  1.
<mgrwt>
<rscale>  2 0.18075019E+03</rscale>
<asrwt>0</asrwt>
<pdfrwt beam="1">  1       21 0.40602756E+00 0.18075019E+03</pdfrwt>
<pdfrwt beam="2">  1       21 0.35663020E-02 0.18075019E+03</pdfrwt>
<totfact> 0.38593495E+03</totfact>
</mgrwt>
</event>
<event>
 4    1  0.3948468E+000  0.1747407E+03  0.7546771E-02  0.1172992E+00
         21   -1    0    0  501  502  0.00000000000E+00  0.00000000000E+00  0.17741373220E+04  0.17741373220E+04  0.00000000000E+00 0.  1.
         21   -1    0    0  502  503 -0.00000000000E+00 -0.00000000000E+00 -0.22993933777E+02  0.22993933777E+02  0.00000000000E+00 0.  1.
          6    1    1    2  501    0 -0.18647585734E+02 -0.16048820625E+02  0.13262071129E+04  0.13376694672E+04  0.17300000000E+03 0.  1.
         -6    1    1    2    0  503  0.18647585734E+02  0.16048820625E+02  0.42493627525E+03  0.45946178853E+03  0.17300000000E+03 0.  1.
<mgrwt>
<rscale>  2 0.17474066E+03</rscale>
<asrwt>0</asrwt>
<pdfrwt beam="1">  1       21 0.27294410E+00 0.17474066E+03</pdfrwt>
<pdfrwt beam="2">  1       21 0.35375297E-02 0.17474066E+03</pdfrwt>
<totfact> 0.23921815E+04</totfact>
</mgrwt>
</event>
<event>
 4    1  0.3948468E+000  0.2042824E+03  0.7546771E-02  0.1146175E+00
         21   -1    0    0  501  502  0.00000000000E+00  0.00000000000E+00  0.41268249534E+03  0.41268249534E+03  0.00000000000E+00 0.  1.
         21   -1    0    0  502  503 -0.00000000000E+00 -0.00000000000E+00 -0.12498667079E+03  0.12498667079E+03  0.00000000000E+00 0.  1.
          6    1    1    2  501    0 -0.10704055287E+03 -0.18564146053E+02  0.26131883721E+03  0.33169088344E+03  0.17300000000E+03 0.  1.
         -6    1    1    2    0  503  0.10704055287E+03  0.18564146053E+02  0.26376987340E+02  0.20597828269E+03  0.17300000000E+03 0.  1.
<mgrwt>
<rscale>  2 0.20428242E+03</rscale>
<asrwt>0</asrwt>
<pdfrwt beam="1">  1       21 0.63489614E-01 0.20428242E+03</pdfrwt>
<pdfrwt beam="2">  1       21 0.19228719E-01 0.20428242E+03</pdfrwt>
<totfact> 0.56658220E+04</totfact>
</mgrwt>
</event>
<event>
 4    1  0.3948468E+000  0.2260129E+03  0.7546771E-02  0.1129478E+00
         21   -1    0    0  501  502  0.00000000000E+00  0.00000000000E+00  0.77916802668E+02  0.77916802668E+02  0.00000000000E+00 0.  1.
         21   -1    0    0  502  503 -0.00000000000E+00 -0.00000000000E+00 -0.71934061013E+03  0.71934061013E+03  0.00000000000E+00 0. -1.
          6    1    1    2  501    0 -0.14240088365E+03  0.29576972818E+02 -0.20204518732E+03  0.30315683516E+03  0.17300000000E+03 0.  1.
         -6    1    1    2    0  503  0.14240088365E+03 -0.29576972818E+02 -0.43937862014E+03  0.49410057764E+03  0.17300000000E+03 0.  1.
<mgrwt>
<rscale>  2 0.22601285E+03</rscale>
<asrwt>0</asrwt>
<pdfrwt beam="1">  1       21 0.11987200E-01 0.22601285E+03</pdfrwt>
<pdfrwt beam="2">  1       21 0.11066779E+00 0.22601285E+03</pdfrwt>
<totfact> 0.37171721E+04</totfact>
</mgrwt>
</event>
<event>
 4    1  0.3948468E+000  0.3770300E+03  0.7546771E-02  0.1052037E+00
         21   -1    0    0  501  502  0.00000000000E+00  0.00000000000E+00  0.89711662022E+03  0.89711662022E+03  0.00000000000E+00 0. -1.
         21   -1    0    0  502  503 -0.00000000000E+00 -0.00000000000E+00 -0.20130775047E+03  0.20130775047E+03  0.00000000000E+00 0.  1.
          6    1    1    2  501    0 -0.13482031553E+03 -0.30666934277E+03  0.60130348155E+03  0.70973056874E+03  0.17300000000E+03 0.  1.
         -6    1    1    2    0  503  0.13482031553E+03  0.30666934277E+03  0.94505388205E+02  0.38869380195E+03  0.17300000000E+03 0. -1.
<mgrwt>
<rscale>  2 0.37702998E+03</rscale>
<asrwt>0</asrwt>
<pdfrwt beam="1">  1       21 0.13801794E+00 0.37702998E+03</pdfrwt>
<pdfrwt beam="2">  1       21 0.30970424E-01 0.37702998E+03</pdfrwt>
<totfact> 0.33158573E+03</totfact>
</mgrwt>
</event>
<event>
 4    1  0.3948468E+000  0.2047827E+03  0.7546771E-02  0.1145765E+00
         21   -1    0    0  501  502  0.00000000000E+00  0.00000000000E+00  0.23835664874E+03  0.23835664874E+03  0.00000000000E+00 0.  1.
         21   -1    0    0  502  503 -0.00000000000E+00 -0.00000000000E+00 -0.20442768179E+03  0.20442768179E+03  0.00000000000E+00 0.  1.
          6    1    1    2  501    0  0.79599816136E+02 -0.75304906771E+02 -0.65684445433E+02  0.21505907580E+03  0.17300000000E+03 0.  1.
         -6    1    1    2    0  503 -0.79599816136E+02  0.75304906771E+02  0.99613412386E+02  0.22772525473E+03  0.17300000000E+03 0.  1.
<mgrwt>
<rscale>  2 0.20478271E+03</rscale>
<asrwt>0</asrwt>
<pdfrwt beam="1">  1       21 0.36670254E-01 0.20478271E+03</pdfrwt>
<pdfrwt beam="2">  1       21 0.31450413E-01 0.20478271E+03</pdfrwt>
<totfact> 0.69313194E+04</totfact>
</mgrwt>
</event>
<event>
 4    1  0.3948468E+000  0.1851285E+03  0.7546771E-02  0.1162930E+00
         21   -1    0    0  501  502  0.00000000000E+00  0.00000000000E+00  0.24218753518E+03  0.24218753518E+03  0.00000000000E+00 0.  1.
         21   -1    0    0  502  503 -0.00000000000E+00 -0.00000000000E+00 -0.36688837489E+03  0.36688837489E+03  0.00000000000E+00 0.  1.
          6    1    1    2  501    0  0.98034800026E+01 -0.65172570918E+02  0.17633623063E+03  0.25566978401E+03  0.17300000000E+03 0.  1.
         -6    1    1    2    0  503 -0.98034800026E+01  0.65172570918E+02 -0.30103707035E+03  0.35340612607E+03  0.17300000000E+03 0.  1.
<mgrwt>
<rscale>  2 0.18512853E+03</rscale>
<asrwt>0</asrwt>
<pdfrwt beam="1">  1       21 0.37259621E-01 0.18512853E+03</pdfrwt>
<pdfrwt beam="2">  1       21 0.56444365E-01 0.18512853E+03</pdfrwt>
<totfact> 0.20601470E+04</totfact>
</mgrwt>
</event>
<event>
 4    1  0.3948468E+000  0.2048954E+03  0.7546771E-02  0.1145673E+00
         21   -1    0    0  501  502  0.00000000000E+00  0.00000000000E+00  0.39112937561E+02  0.39112937561E+02  0.00000000000E+00 0.  1.
         21   -1    0    0  502  503 -0.00000000000E+00 -0.00000000000E+00 -0.10951195381E+04  0.10951195381E+04  0.00000000000E+00 0.  1.
          6    1    1    2  501    0 -0.91169967618E+02  0.61164984080E+02 -0.60795045101E+03  0.64154958434E+03  0.17300000000E+03 0.  1.
         -6    1    1    2    0  503  0.91169967618E+02 -0.61164984080E+02 -0.44805614948E+03  0.49268289128E+03  0.17300000000E+03 0.  1.
<mgrwt>
<rscale>  2 0.20489538E+03</rscale>
<asrwt>0</asrwt>
<pdfrwt beam="1">  1       21 0.60173764E-02 0.20489538E+03</pdfrwt>
<pdfrwt beam="2">  1       21 0.16847989E+00 0.20489538E+03</pdfrwt>
<totfact> 0.42591239E+04</totfact>
</mgrwt>
</event>
<event>
 4    1  0.3948468E+000  0.2344319E+03  0.7546771E-02  0.1123559E+00
         21   -1    0    0  501  502  0.00000000000E+00  0.00000000000E+00  0.14503973663E+03  0.14503973663E+03  0.00000000000E+00 0.  1.
         21   -1    0    0  502  503 -0.00000000000E+00 -0.00000000000E+00 -0.38236706834E+03  0.38236706834E+03  0.00000000000E+00 0.  1.
          6    1    1    2  501    0 -0.70866531684E+02  0.14144704880E+03 -0.14370481894E+03  0.27497164929E+03  0.17300000000E+03 0. -1.
         -6    1    1    2    0  503  0.70866531684E+02 -0.14144704880E+03 -0.93622512767E+02  0.25243515568E+03  0.17300000000E+03 0. -1.
<mgrwt>
<rscale>  2 0.23443194E+03</rscale>
<asrwt>0</asrwt>
<pdfrwt beam="1">  1       21 0.22313806E-01 0.23443194E+03</pdfrwt>
<pdfrwt beam="2">  1       21 0.58825703E-01 0.23443194E+03</pdfrwt>
<totfact> 0.49834754E+04</totfact>
</mgrwt>
</event>
<event>
 4    1  0.3948468E+000  0.2566215E+03  0.7546771E-02  0.1109190E+00
         21   -1    0    0  503  502  0.00000000000E+00  0.00000000000E+00  0.33581376500E+03  0.33581376500E+03  0.00000000000E+00 0.  1.
         21   -1    0    0  501  503 -0.00000000000E+00 -0.00000000000E+00 -0.30296623396E+03  0.30296623396E+03  0.00000000000E+00 0. -1.
          6    1    1    2  501    0 -0.13009026175E+03  0.13784816798E+03 -0.17326223905E+03  0.30963591054E+03  0.17300000000E+03 0. -1.
         -6    1    1    2    0  502  0.13009026175E+03 -0.13784816798E+03  0.20610977009E+03  0.32914408842E+03  0.17300000000E+03 0.  1.
<mgrwt>
<rscale>  2 0.25662150E+03</rscale>
<asrwt>0</asrwt>
<pdfrwt beam="1">  1       21 0.51663656E-01 0.25662150E+03</pdfrwt>
<pdfrwt beam="2">  1       21 0.46610190E-01 0.25662150E+03</pdfrwt>
<totfact> 0.15125407E+04</totfact>
</mgrwt>
</event>
<event>
 4    1  0.3948468E+000  0.2530848E+03  0.7546771E-02  0.1111371E+00
         21   -1    0    0  501  502  0.00000000000E+00  0.00000000000E+00  0.66852667761E+03  0.66852667761E+03  0.00000000000E+00 0.  1.
         21   -1    0    0  502  503 -0.00000000000E+00 -0.00000000000E+00 -0.95819804586E+02  0.95819804586E+02  0.00000000000E+00 0.  1.
          6    1    1    2  501    0  0.12242875217E+03  0.13832617574E+03  0.28260411777E+03  0.37936396459E+03  0.17300000000E+03 0.  1.
         -6    1    1    2    0  503 -0.12242875217E+03 -0.13832617574E+03  0.29010275526E+03  0.38498251760E+03  0.17300000000E+03 0.  1.
<mgrwt>
<rscale>  2 0.25308483E+03</rscale>
<asrwt>0</asrwt>
<pdfrwt beam="1">  1       21 0.10285026E+00 0.25308483E+03</pdfrwt>
<pdfrwt beam="2">  1       21 0.14741509E-01 0.25308483E+03</pdfrwt>
<totfact> 0.30124870E+04</totfact>
</mgrwt>
</event>
<event>
 4    1  0.3948468E+000  0.2095928E+03  0.7546771E-02  0.1141889E+00
         21   -1    0    0  503  502  0.00000000000E+00  0.00000000000E+00  0.93488753856E+03  0.93488753856E+03  0.00000000000E+00 0. -1.
         21   -1    0    0  501  503 -0.00000000000E+00 -0.00000000000E+00 -0.51114054457E+02  0.51114054457E+02  0.00000000000E+00 0. -1.
          6    1    1    2  501    0 -0.75742946881E+01 -0.11807959572E+03  0.30182888308E+03  0.36746406019E+03  0.17300000000E+03 0. -1.
         -6    1    1    2    0  502  0.75742946881E+01  0.11807959572E+03  0.58194460101E+03  0.61853753283E+03  0.17300000000E+03 0. -1.
<mgrwt>
<rscale>  2 0.20959285E+03</rscale>
<asrwt>0</asrwt>
<pdfrwt beam="1">  1       21 0.14382884E+00 0.20959285E+03</pdfrwt>
<pdfrwt beam="2">  1       21 0.78637014E-02 0.20959285E+03</pdfrwt>
<totfact> 0.40851837E+04</totfact>
</mgrwt>
</event>
<event>
 4    1  0.3948468E+000  0.2156150E+03  0.7546771E-02  0.1137195E+00
         21   -1    0    0  501  502  0.00000000000E+00  0.00000000000E+00  0.53714494583E+03  0.53714494583E+03  0.00000000000E+00 0.  1.
         21   -1    0    0  502  503 -0.00000000000E+00 -0.00000000000E+00 -0.86628703834E+02  0.86628703834E+02  0.00000000000E+00 0. -1.
          6    1    1    2  501    0 -0.45099706233E+02 -0.12052733817E+03  0.23466694151E+03  0.31868228094E+03  0.17300000000E+03 0.  1.
         -6    1    1    2    0  503  0.45099706233E+02  0.12052733817E+03  0.21584930049E+03  0.30509136873E+03  0.17300000000E+03 0.  1.
<mgrwt>
<rscale>  2 0.21561499E+03</rscale>
<asrwt>0</asrwt>
<pdfrwt beam="1">  1       21 0.82637682E-01 0.21561499E+03</pdfrwt>
<pdfrwt beam="2">  1       21 0.13327493E-01 0.21561499E+03</pdfrwt>
<totfact> 0.61441926E+04</totfact>
</mgrwt>
</event>
<event>
 4    1  0.3948468E+000  0.2794421E+03  0.7546771E-02  0.1095994E+00
         21   -1    0    0  501  502  0.00000000000E+00  0.00000000000E+00  0.37702904930E+03  0.37702904930E+03  0.00000000000E+00 0.  1.
         21   -1    0    0  502  503 -0.00000000000E+00 -0.00000000000E+00 -0.32342593271E+03  0.32342593271E+03  0.00000000000E+00 0.  1.
          6    1    1    2  501    0 -0.12203840079E+03 -0.18238840669E+03  0.23682869260E+03  0.36630005706E+03  0.17300000000E+03 0.  1.
         -6    1    1    2    0  503  0.12203840079E+03  0.18238840669E+03 -0.18322557601E+03  0.33415492495E+03  0.17300000000E+03 0.  1.
<mgrwt>
<rscale>  2 0.27944213E+03</rscale>
<asrwt>0</asrwt>
<pdfrwt beam="1">  1       21 0.58004469E-01 0.27944213E+03</pdfrwt>
<pdfrwt beam="2">  1       21 0.49757836E-01 0.27944213E+03</pdfrwt>
<totfact> 0.10193483E+04</totfact>
</mgrwt>
</event>
<event>
 4    1  0.3948468E+000  0.1998743E+03  0.7546771E-02  0.1149845E+00
         21   -1    0    0  501  502  0.00000000000E+00  0.00000000000E+00  0.21364239762E+03  0.21364239762E+03  0.00000000000E+00 0.  1.
         21   -1    0    0  502  503 -0.00000000000E+00 -0.00000000000E+00 -0.20614090615E+03  0.20614090615E+03  0.00000000000E+00 0.  1.
          6    1    1    2  501    0  0.13174459680E+02  0.99232903871E+02  0.67719554976E+02  0.21103476899E+03  0.17300000000E+03 0.  1.
         -6    1    1    2    0  503 -0.13174459680E+02 -0.99232903871E+02 -0.60218063505E+02  0.20874853478E+03  0.17300000000E+03 0.  1.
<mgrwt>
<rscale>  2 0.19987430E+03</rscale>
<asrwt>0</asrwt>
<pdfrwt beam="1">  1       21 0.32868061E-01 0.19987430E+03</pdfrwt>
<pdfrwt beam="2">  1       21 0.31713986E-01 0.19987430E+03</pdfrwt>
<totfact> 0.84919875E+04</totfact>
</mgrwt>
</event>
<event>
 4    1  0.3948468E+000  0.1931660E+03  0.7546771E-02  0.1155636E+00
         21   -1    0    0  503  502  0.00000000000E+00  0.00000000000E+00  0.33099569838E+03  0.33099569838E+03  0.00000000000E+00 0.  1.
         21   -1    0    0  501  503 -0.00000000000E+00 -0.00000000000E+00 -0.23188973548E+03  0.23188973548E+03  0.00000000000E+00 0.  1.
          6    1    1    2  501    0  0.15025933409E+02  0.84606935691E+02 -0.15219732268E+03  0.24592099803E+03  0.17300000000E+03 0.  1.
         -6    1    1    2    0  502 -0.15025933409E+02 -0.84606935691E+02  0.25130328558E+03  0.31696443584E+03  0.17300000000E+03 0.  1.
<mgrwt>
<rscale>  2 0.19316602E+03</rscale>
<asrwt>0</asrwt>
<pdfrwt beam="1">  1       21 0.50922415E-01 0.19316602E+03</pdfrwt>
<pdfrwt beam="2">  1       21 0.35675344E-01 0.19316602E+03</pdfrwt>
<totfact> 0.27781285E+04</totfact>
</mgrwt>
</event>
<event>
 4    1  0.3948468E+000  0.3072586E+03  0.7546771E-02  0.1081667E+00
         21   -1    0    0  503  502  0.00000000000E+00  0.00000000000E+00  0.59019587810E+03  0.59019587810E+03  0.00000000000E+00 0.  1.
         21   -1    0    0  501  503 -0.00000000000E+00 -0.00000000000E+00 -0.16041454265E+03  0.16041454265E+03  0.00000000000E+00 0. -1.
          6    1    1    2  501    0 -0.21013779808E+03 -0.14255162857E+03  0.23486379847E+03  0.38674134098E+03  0.17300000000E+03 0.  1.
         -6    1    1    2    0  502  0.21013779808E+03  0.14255162857E+03  0.19491753698E+03  0.36386907977E+03  0.17300000000E+03 0. -1.
<mgrwt>
<rscale>  2 0.30725862E+03</rscale>
<asrwt>0</asrwt>
<pdfrwt beam="1">  1       21 0.90799365E-01 0.30725862E+03</pdfrwt>
<pdfrwt beam="2">  1       21 0.24679161E-01 0.30725862E+03</pdfrwt>
<totfact> 0.15046749E+04</totfact>
</mgrwt>
</event>
<event>
 4    1  0.3948468E+000  0.2174158E+03  0.7546771E-02  0.1135824E+00
         21   -1    0    0  503  502  0.00000000000E+00  0.00000000000E+00  0.24732383173E+03  0.24732383173E+03  0.00000000000E+00 0.  1.
         21   -1    0    0  501  503 -0.00000000000E+00 -0.00000000000E+00 -0.23803503014E+03  0.23803503014E+03  0.00000000000E+00 0.  1.
          6    1    1    2  501    0  0.12380382276E+03 -0.44869056273E+02 -0.10308845393E+03  0.24061763874E+03  0.17300000000E+03 0.  1.
         -6    1    1    2    0  502 -0.12380382276E+03  0.44869056273E+02  0.11237725552E+03  0.24474122313E+03  0.17300000000E+03 0.  1.
<mgrwt>
<rscale>  2 0.21741577E+03</rscale>
<asrwt>0</asrwt>
<pdfrwt beam="1">  1       21 0.38049820E-01 0.21741577E+03</pdfrwt>
<pdfrwt beam="2">  1       21 0.36620774E-01 0.21741577E+03</pdfrwt>
<totfact> 0.47333701E+04</totfact>
</mgrwt>
</event>
<event>
 4    1  0.3948468E+000  0.3262571E+03  0.7546771E-02  0.1072805E+00
         21   -1    0    0  503  502  0.00000000000E+00  0.00000000000E+00  0.39237491572E+03  0.39237491572E+03  0.00000000000E+00 0.  1.
         21   -1    0    0  501  503 -0.00000000000E+00 -0.00000000000E+00 -0.31582578363E+03  0.31582578363E+03  0.00000000000E+00 0. -1.
          6    1    1    2  501    0  0.26873437651E+03 -0.65547857923E+02 -0.94710580768E+02  0.33972603801E+03  0.17300000000E+03 0.  1.
         -6    1    1    2    0  502 -0.26873437651E+03  0.65547857923E+02  0.17125971286E+03  0.36847466133E+03  0.17300000000E+03 0. -1.
<mgrwt>
<rscale>  2 0.32625709E+03</rscale>
<asrwt>0</asrwt>
<pdfrwt beam="1">  1       21 0.60365372E-01 0.32625709E+03</pdfrwt>
<pdfrwt beam="2">  1       21 0.48588582E-01 0.32625709E+03</pdfrwt>
<totfact> 0.96247933E+03</totfact>
</mgrwt>
</event>
<event>
 4    1  0.3948468E+000  0.1960368E+03  0.7546771E-02  0.1153126E+00
         21   -1    0    0  501  502  0.00000000000E+00  0.00000000000E+00  0.19807975696E+03  0.19807975696E+03  0.00000000000E+00 0.  1.
         21   -1    0    0  502  503 -0.00000000000E+00 -0.00000000000E+00 -0.23093449408E+03  0.23093449408E+03  0.00000000000E+00 0.  1.
          6    1    1    2  501    0 -0.56712658694E+02 -0.72698786003E+02  0.69340641867E+02  0.20793884619E+03  0.17300000000E+03 0.  1.
         -6    1    1    2    0  503  0.56712658694E+02  0.72698786003E+02 -0.10219537898E+03  0.22107540485E+03  0.17300000000E+03 0.  1.
<mgrwt>
<rscale>  2 0.19603683E+03</rscale>
<asrwt>0</asrwt>
<pdfrwt beam="1">  1       21 0.30473809E-01 0.19603683E+03</pdfrwt>
<pdfrwt beam="2">  1       21 0.35528384E-01 0.19603683E+03</pdfrwt>
<totfact> 0.78835231E+04</totfact>
</mgrwt>
</event>
<event>
 4    1  0.3948468E+000  0.1888726E+03  0.7546771E-02  0.1159482E+00
         21   -1    0    0  501  502  0.00000000000E+00  0.00000000000E+00  0.43007018774E+03  0.43007018774E+03  0.00000000000E+00 0.  1.
         21   -1    0    0  502  503 -0.00000000000E+00 -0.00000000000E+00 -0.13589903959E+03  0.13589903959E+03  0.00000000000E+00 0.  1.
          6    1    1    2  501    0  0.24235741801E+02  0.71808768492E+02  0.32372901459E+03  0.37479773919E+03  0.17300000000E+03 0.  1.
         -6    1    1    2    0  503 -0.24235741801E+02 -0.71808768492E+02 -0.29557866436E+02  0.19117148815E+03  0.17300000000E+03 0.  1.
<mgrwt>
<rscale>  2 0.18887263E+03</rscale>
<asrwt>0</asrwt>
<pdfrwt beam="1">  1       21 0.66164644E-01 0.18887263E+03</pdfrwt>
<pdfrwt beam="2">  1       21 0.20907545E-01 0.18887263E+03</pdfrwt>
<totfact> 0.44624232E+04</totfact>
</mgrwt>
</event>
<event>
 4    1  0.3948468E+000  0.3320452E+03  0.7546771E-02  0.1070235E+00
         21   -1    0    0  501  502  0.00000000000E+00  0.00000000000E+00  0.44557143337E+03  0.44557143337E+03  0.00000000000E+00 0. -1.
         21   -1    0    0  502  503 -0.00000000000E+00 -0.00000000000E+00 -0.35267203047E+03  0.35267203047E+03  0.00000000000E+00 0.  1.
          6    1    1    2  501    0 -0.24234549709E+03  0.14694793209E+03  0.26446417352E+03  0.42449420936E+03  0.17300000000E+03 0. -1.
         -6    1    1    2    0  503  0.24234549709E+03 -0.14694793209E+03 -0.17156477062E+03  0.37374925448E+03  0.17300000000E+03 0.  1.
<mgrwt>
<rscale>  2 0.33204523E+03</rscale>
<asrwt>0</asrwt>
<pdfrwt beam="1">  1       21 0.68549451E-01 0.33204523E+03</pdfrwt>
<pdfrwt beam="2">  1       21 0.54257236E-01 0.33204523E+03</pdfrwt>
<totfact> 0.57419899E+03</totfact>
</mgrwt>
</event>
<event>
 4    1  0.3948468E+000  0.1799830E+03  0.7546771E-02  0.1167820E+00
         21   -1    0    0  503  502  0.00000000000E+00  0.00000000000E+00  0.91674707492E+03  0.91674707492E+03  0.00000000000E+00 0. -1.
         21   -1    0    0  501  503 -0.00000000000E+00 -0.00000000000E+00 -0.44793078745E+02  0.44793078745E+02  0.00000000000E+00 0. -1.
          6    1    1    2  501    0  0.47372881127E+02 -0.14855201568E+02  0.21506556995E+03  0.28044084271E+03  0.17300000000E+03 0. -1.
         -6    1    1    2    0  502 -0.47372881127E+02  0.14855201568E+02  0.65688842622E+03  0.68109931095E+03  0.17300000000E+03 0. -1.
<mgrwt>
<rscale>  2 0.17998296E+03</rscale>
<asrwt>0</asrwt>
<pdfrwt beam="1">  1       21 0.14103800E+00 0.17998296E+03</pdfrwt>
<pdfrwt beam="2">  1       21 0.68912436E-02 0.17998296E+03</pdfrwt>
<totfact> 0.54930010E+04</totfact>
</mgrwt>
</event>
<event>
 4    1  0.3948468E+000  0.1827841E+03  0.7546771E-02  0.1165136E+00
         21   -1    0    0  501  502  0.00000000000E+00  0.00000000000E+00  0.51646506494E+02  0.51646506494E+02  0.00000000000E+00 0.  1.
         21   -1    0    0  502  503 -0.00000000000E+00 -0.00000000000E+00 -0.70709735899E+03  0.70709735899E+03  0.00000000000E+00 0.  1.
          6    1    1    2  501    0  0.57095080235E+02  0.14871486232E+02 -0.43841899614E+03  0.47499602679E+03  0.17300000000E+03 0. -1.
         -6    1    1    2    0  503 -0.57095080235E+02 -0.14871486232E+02 -0.21703185636E+03  0.28374783869E+03  0.17300000000E+03 0. -1.
<mgrwt>
<rscale>  2 0.18278405E+03</rscale>
<asrwt>0</asrwt>
<pdfrwt beam="1">  1       21 0.79456175E-02 0.18278405E+03</pdfrwt>
<pdfrwt beam="2">  1       21 0.10878419E+00 0.18278405E+03</pdfrwt>
<totfact> 0.81827721E+04</totfact>
</mgrwt>
</event>
<event>
 4    1  0.3948468E+000  0.2463783E+03  0.7546771E-02  0.1115615E+00
         21   -1    0    0  501  502  0.00000000000E+00  0.00000000000E+00  0.81276263151E+03  0.81276263151E+03  0.00000000000E+00 0. -1.
         21   -1    0    0  502  503 -0.00000000000E+00 -0.00000000000E+00 -0.13785567603E+03  0.13785567603E+03  0.00000000000E+00 0. -1.
          6    1    1    2  501    0 -0.84873109839E+02  0.15352468234E+03  0.65920231056E+03  0.70373997976E+03  0.17300000000E+03 0. -1.
         -6    1    1    2    0  503  0.84873109839E+02 -0.15352468234E+03  0.15704644919E+02  0.24687832779E+03  0.17300000000E+03 0. -1.
<mgrwt>
<rscale>  2 0.24637831E+03</rscale>
<asrwt>0</asrwt>
<pdfrwt beam="1">  1       21 0.12504040E+00 0.24637831E+03</pdfrwt>
<pdfrwt beam="2">  1       21 0.21208566E-01 0.24637831E+03</pdfrwt>
<totfact> 0.95098951E+03</totfact>
</mgrwt>
</event>
<event>
 4    1  0.3948468E+000  0.1890128E+03  0.7546771E-02  0.1159355E+00
         21   -1    0    0  503  502  0.00000000000E+00  0.00000000000E+00  0.16910106198E+03  0.16910106198E+03  0.00000000000E+00 0.  1.
         21   -1    0    0  501  503 -0.00000000000E+00 -0.00000000000E+00 -0.21155909662E+03  0.21155909662E+03  0.00000000000E+00 0.  1.
          6    1    1    2  501    0  0.74843152863E+02 -0.13976633290E+02 -0.28274702515E+02  0.19111594023E+03  0.17300000000E+03 0.  1.
         -6    1    1    2    0  502 -0.74843152863E+02  0.13976633290E+02 -0.14183332122E+02  0.18954421837E+03  0.17300000000E+03 0.  1.
<mgrwt>
<rscale>  2 0.18901281E+03</rscale>
<asrwt>0</asrwt>
<pdfrwt beam="1">  1       21 0.26015548E-01 0.18901281E+03</pdfrwt>
<pdfrwt beam="2">  1       21 0.32547553E-01 0.18901281E+03</pdfrwt>
<totfact> 0.12766528E+05</totfact>
</mgrwt>
</event>
<event>
 4    1  0.3948468E+000  0.1760402E+03  0.7546771E-02  0.1171691E+00
         21   -1    0    0  503  502  0.00000000000E+00  0.00000000000E+00  0.23516067493E+02  0.23516067493E+02  0.00000000000E+00 0.  1.
         21   -1    0    0  501  503 -0.00000000000E+00 -0.00000000000E+00 -0.21796185420E+04  0.21796185420E+04  0.00000000000E+00 0.  1.
          6    1    1    2  501    0 -0.18477279341E+02  0.26828043710E+02 -0.17707133302E+04  0.17794425676E+04  0.17300000000E+03 0.  1.
         -6    1    1    2    0  502  0.18477279341E+02 -0.26828043710E+02 -0.38538914432E+03  0.42369204187E+03  0.17300000000E+03 0.  1.
<mgrwt>
<rscale>  2 0.17604021E+03</rscale>
<asrwt>0</asrwt>
<pdfrwt beam="1">  1       21 0.36178556E-02 0.17604021E+03</pdfrwt>
<pdfrwt beam="2">  1       21 0.33532601E+00 0.17604021E+03</pdfrwt>
<totfact> 0.10083896E+04</totfact>
</mgrwt>
</event>
<event>
 4    1  0.3948468E+000  0.2435852E+03  0.7546771E-02  0.1117427E+00
         21   -1    0    0  501  502  0.00000000000E+00  0.00000000000E+00  0.81747916145E+02  0.81747916145E+02  0.00000000000E+00 0. -1.
         21   -1    0    0  502  503 -0.00000000000E+00 -0.00000000000E+00 -0.13437072071E+04  0.13437072071E+04  0.00000000000E+00 0.  1.
          6    1    1    2  501    0 -0.71157285654E+02  0.15601731717E+03 -0.14766714909E+03  0.28484969629E+03  0.17300000000E+03 0. -1.
         -6    1    1    2    0  503  0.71157285654E+02 -0.15601731717E+03 -0.11142921419E+04  0.11406054270E+04  0.17300000000E+03 0.  1.
<mgrwt>
<rscale>  2 0.24358523E+03</rscale>
<asrwt>0</asrwt>
<pdfrwt beam="1">  1       21 0.12576602E-01 0.24358523E+03</pdfrwt>
<pdfrwt beam="2">  1       21 0.20672419E+00 0.24358523E+03</pdfrwt>
<totfact> 0.62928421E+03</totfact>
</mgrwt>
</event>
<event>
 4    1  0.3948468E+000  0.2319791E+03  0.7546771E-02  0.1125255E+00
         21   -1    0    0  503  502  0.00000000000E+00  0.00000000000E+00  0.13603746633E+03  0.13603746633E+03  0.00000000000E+00 0. -1.
         21   -1    0    0  501  503 -0.00000000000E+00 -0.00000000000E+00 -0.67343899807E+03  0.67343899807E+03  0.00000000000E+00 0. -1.
          6    1    1    2  501    0 -0.75279061261E+02 -0.13497538530E+03 -0.52867717338E+03  0.57733339186E+03  0.17300000000E+03 0. -1.
         -6    1    1    2    0  502  0.75279061261E+02  0.13497538530E+03 -0.87243583649E+01  0.23214307254E+03  0.17300000000E+03 0. -1.
<mgrwt>
<rscale>  2 0.23197908E+03</rscale>
<asrwt>0</asrwt>
<pdfrwt beam="1">  1       21 0.20928841E-01 0.23197908E+03</pdfrwt>
<pdfrwt beam="2">  1       21 0.10360600E+00 0.23197908E+03</pdfrwt>
<totfact> 0.15611334E+04</totfact>
</mgrwt>
</event>
<event>
 4    1  0.3948468E+000  0.1834987E+03  0.7546771E-02  0.1164459E+00
         21   -1    0    0  503  502  0.00000000000E+00  0.00000000000E+00  0.73851811238E+03  0.73851811238E+03  0.00000000000E+00 0.  1.
         21   -1    0    0  501  503 -0.00000000000E+00 -0.00000000000E+00 -0.45599709463E+02  0.45599709463E+02  0.00000000000E+00 0.  1.
          6    1    1    2  501    0  0.26071573800E+02  0.55344702832E+02  0.34195326488E+03  0.38807705221E+03  0.17300000000E+03 0.  1.
         -6    1    1    2    0  502 -0.26071573800E+02 -0.55344702832E+02  0.35096513804E+03  0.39604076963E+03  0.17300000000E+03 0.  1.
<mgrwt>
<rscale>  2 0.18349867E+03</rscale>
<asrwt>0</asrwt>
<pdfrwt beam="1">  1       21 0.11361816E+00 0.18349867E+03</pdfrwt>
<pdfrwt beam="2">  1       21 0.70153405E-02 0.18349867E+03</pdfrwt>
<totfact> 0.91349430E+04</totfact>
</mgrwt>
</event>
<event>
 4    1  0.3948468E+000  0.2980634E+03  0.7546771E-02  0.1086213E+00
         21   -1    0    0  503  502  0.00000000000E+00  0.00000000000E+00  0.34466109482E+03  0.34466109482E+03  0.00000000000E+00 0.  1.
         21   -1    0    0  501  503 -0.00000000000E+00 -0.00000000000E+00 -0.29277002971E+03  0.29277002971E+03  0.00000000000E+00 0. -1.
          6    1    1    2  501    0 -0.23001987084E+03  0.77483331787E+02 -0.84259355213E+02  0.30974416318E+03  0.17300000000E+03 0. -1.
         -6    1    1    2    0  502  0.23001987084E+03 -0.77483331787E+02  0.13615042032E+03  0.32768696135E+03  0.17300000000E+03 0.  1.
<mgrwt>
<rscale>  2 0.29806343E+03</rscale>
<asrwt>0</asrwt>
<pdfrwt beam="1">  1       21 0.53024784E-01 0.29806343E+03</pdfrwt>
<pdfrwt beam="2">  1       21 0.45041543E-01 0.29806343E+03</pdfrwt>
<totfact> 0.15081815E+04</totfact>
</mgrwt>
</event>
<event>
 4    1  0.3948468E+000  0.2141558E+03  0.7546771E-02  0.1138317E+00
         21   -1    0    0  501  502  0.00000000000E+00  0.00000000000E+00  0.26084343536E+03  0.26084343536E+03  0.00000000000E+00 0.  1.
         21   -1    0    0  502  503 -0.00000000000E+00 -0.00000000000E+00 -0.20657574282E+03  0.20657574282E+03  0.00000000000E+00 0. -1.
          6    1    1    2  501    0  0.87579000111E+02  0.90904544694E+02  0.11730483432E+03  0.24417850368E+03  0.17300000000E+03 0.  1.
         -6    1    1    2    0  503 -0.87579000111E+02 -0.90904544694E+02 -0.63037141782E+02  0.22324067450E+03  0.17300000000E+03 0. -1.
<mgrwt>
<rscale>  2 0.21415583E+03</rscale>
<asrwt>0</asrwt>
<pdfrwt beam="1">  1       21 0.40129759E-01 0.21415583E+03</pdfrwt>
<pdfrwt beam="2">  1       21 0.31780884E-01 0.21415583E+03</pdfrwt>
<totfact> 0.56402609E+04</totfact>
</mgrwt>
</event>
<event>
 4    1  0.3948468E+000  0.2883742E+03  0.7546771E-02  0.1091201E+00
         21   -1    0    0  501  502  0.00000000000E+00  0.00000000000E+00  0.18133631613E+03  0.18133631613E+03  0.00000000000E+00 0. -1.
         21   -1    0    0  502  503 -0.00000000000E+00 -0.00000000000E+00 -0.56632317801E+03  0.56632317801E+03  0.00000000000E+00 0.  1.
          6    1    1    2  501    0 -0.18371983244E+03  0.13956256140E+03 -0.35553901538E+03  0.45778562323E+03  0.17300000000E+03 0.  1.
         -6    1    1    2    0  503  0.18371983244E+03 -0.13956256140E+03 -0.29447846496E+02  0.28987387092E+03  0.17300000000E+03 0. -1.
<mgrwt>
<rscale>  2 0.28837421E+03</rscale>
<asrwt>0</asrwt>
<pdfrwt beam="1">  1       21 0.27897895E-01 0.28837421E+03</pdfrwt>
<pdfrwt beam="2">  1       21 0.87126642E-01 0.28837421E+03</pdfrwt>
<totfact> 0.13173114E+04</totfact>
</mgrwt>
</event>
<event>
 4    1  0.3948468E+000  0.2422334E+03  0.7546771E-02  0.1118314E+00
         21   -1    0    0  503  502  0.00000000000E+00  0.00000000000E+00  0.71330315011E+03  0.71330315011E+03  0.00000000000E+00 0.  1.
         21   -1    0    0  501  503 -0.00000000000E+00 -0.00000000000E+00 -0.10000205979E+03  0.10000205979E+03  0.00000000000E+00 0. -1.
          6    1    1    2  501    0  0.15712980563E+02  0.16882269511E+03  0.13536946803E+03  0.27749214947E+03  0.17300000000E+03 0. -1.
         -6    1    1    2    0  502 -0.15712980563E+02 -0.16882269511E+03  0.47793162230E+03  0.53581306044E+03  0.17300000000E+03 0. -1.
<mgrwt>
<rscale>  2 0.24223336E+03</rscale>
<asrwt>0</asrwt>
<pdfrwt beam="1">  1       21 0.10973894E+00 0.24223336E+03</pdfrwt>
<pdfrwt beam="2">  1       21 0.15384933E-01 0.24223336E+03</pdfrwt>
<totfact> 0.23929077E+04</totfact>
</mgrwt>
</event>
<event>
 4    1  0.3948468E+000  0.1856612E+03  0.7546771E-02  0.1162434E+00
         21   -1    0    0  503  502  0.00000000000E+00  0.00000000000E+00  0.27118279742E+02  0.27118279742E+02  0.00000000000E+00 0. -1.
         21   -1    0    0  501  503 -0.00000000000E+00 -0.00000000000E+00 -0.13628888383E+04  0.13628888383E+04  0.00000000000E+00 0. -1.
          6    1    1    2  501    0 -0.31187281793E+02  0.59736517815E+02 -0.84824815373E+03  0.86832887112E+03  0.17300000000E+03 0. -1.
         -6    1    1    2    0  502  0.31187281793E+02 -0.59736517815E+02 -0.48752240480E+03  0.52167824690E+03  0.17300000000E+03 0. -1.
<mgrwt>
<rscale>  2 0.18566125E+03</rscale>
<asrwt>0</asrwt>
<pdfrwt beam="1">  1       21 0.41720432E-02 0.18566125E+03</pdfrwt>
<pdfrwt beam="2">  1       21 0.20967520E+00 0.18566125E+03</pdfrwt>
<totfact> 0.42774514E+04</totfact>
</mgrwt>
</event>
<event>
 4    1  0.3948468E+000  0.1927361E+03  0.7546771E-02  0.1156016E+00
         21   -1    0    0  503  502  0.00000000000E+00  0.00000000000E+00  0.31146050252E+03  0.31146050252E+03  0.00000000000E+00 0. -1.
         21   -1    0    0  501  503 -0.00000000000E+00 -0.00000000000E+00 -0.17103318191E+03  0.17103318191E+03  0.00000000000E+00 0. -1.
          6    1    1    2  501    0 -0.78733436838E+02 -0.31925664040E+02 -0.62507830952E+02  0.20261893058E+03  0.17300000000E+03 0. -1.
         -6    1    1    2    0  502  0.78733436838E+02  0.31925664040E+02  0.20293515156E+03  0.27987475384E+03  0.17300000000E+03 0. -1.
<mgrwt>
<rscale>  2 0.19273609E+03</rscale>
<asrwt>0</asrwt>
<pdfrwt beam="1">  1       21 0.47917001E-01 0.19273609E+03</pdfrwt>
<pdfrwt beam="2">  1       21 0.26312797E-01 0.19273609E+03</pdfrwt>
<totfact> 0.57170410E+04</totfact>
</mgrwt>
</event>
<event>
 4    1  0.3948468E+000  0.1732707E+03  0.7546771E-02  0.1174479E+00
         21   -1    0    0  501  502  0.00000000000E+00  0.00000000000E+00  0.12265227827E+03  0.12265227827E+03  0.00000000000E+00 0. -1.
         21   -1    0    0  502  503 -0.00000000000E+00 -0.00000000000E+00 -0.42102253120E+03  0.42102253120E+03  0.00000000000E+00 0. -1.
          6    1    1    2  501    0  0.21835276906E+01  0.94316277090E+01  0.26693442977E+02  0.17531475492E+03  0.17300000000E+03 0. -1.
         -6    1    1    2    0  503 -0.21835276906E+01 -0.94316277090E+01 -0.32506369590E+03  0.36836005455E+03  0.17300000000E+03 0. -1.
<mgrwt>
<rscale>  2 0.17327067E+03</rscale>
<asrwt>0</asrwt>
<pdfrwt beam="1">  1       21 0.18869581E-01 0.17327067E+03</pdfrwt>
<pdfrwt beam="2">  1       21 0.64772698E-01 0.17327067E+03</pdfrwt>
<totfact> 0.57009657E+04</totfact>
</mgrwt>
</event>
<event>
 4    1  0.3948468E+000  0.2232848E+03  0.7546771E-02  0.1131458E+00
         21   -1    0    0  503  502  0.00000000000E+00  0.00000000000E+00  0.15401247277E+03  0.15401247277E+03  0.00000000000E+00 0.  1.
         21   -1    0    0  501  503 -0.00000000000E+00 -0.00000000000E+00 -0.40947485483E+03  0.40947485483E+03  0.00000000000E+00 0. -1.
          6    1    1    2  501    0 -0.13897538920E+03 -0.24757403824E+02 -0.25666996621E+03  0.34019929365E+03  0.17300000000E+03 0. -1.
         -6    1    1    2    0  502  0.13897538920E+03  0.24757403824E+02  0.12075841525E+01  0.22328803395E+03  0.17300000000E+03 0.  1.
<mgrwt>
<rscale>  2 0.22328477E+03</rscale>
<asrwt>0</asrwt>
<pdfrwt beam="1">  1       21 0.23694227E-01 0.22328477E+03</pdfrwt>
<pdfrwt beam="2">  1       21 0.62996132E-01 0.22328477E+03</pdfrwt>
<totfact> 0.38533430E+04</totfact>
</mgrwt>
</event>
<event>
 4    1  0.3948468E+000  0.1758817E+03  0.7546771E-02  0.1171849E+00
         21   -1    0    0  503  502  0.00000000000E+00  0.00000000000E+00  0.26788974466E+03  0.26788974466E+03  0.00000000000E+00 0. -1.
         21   -1    0    0  501  503 -0.00000000000E+00 -0.00000000000E+00 -0.14824714331E+03  0.14824714331E+03  0.00000000000E+00 0. -1.
          6    1    1    2  501    0 -0.27899104226E+02 -0.15067423907E+02 -0.38008225888E+02  0.17994169199E+03  0.17300000000E+03 0. -1.
         -6    1    1    2    0  502  0.27899104226E+02  0.15067423907E+02  0.15765082724E+03  0.23619519599E+03  0.17300000000E+03 0. -1.
<mgrwt>
<rscale>  2 0.17588174E+03</rscale>
<asrwt>0</asrwt>
<pdfrwt beam="1">  1       21 0.41213807E-01 0.17588174E+03</pdfrwt>
<pdfrwt beam="2">  1       21 0.22807253E-01 0.17588174E+03</pdfrwt>
<totfact> 0.10289081E+05</totfact>
</mgrwt>
</event>
<event>
 4    1  0.3948468E+000  0.1984881E+03  0.7546771E-02  0.1151021E+00
         21   -1    0    0  503  502  0.00000000000E+00  0.00000000000E+00  0.16330195230E+03  0.16330195230E+03  0.00000000000E+00 0.  1.
         21   -1    0    0  501  503 -0.00000000000E+00 -0.00000000000E+00 -0.24512565860E+03  0.24512565860E+03  0.00000000000E+00 0. -1.
          6    1    1    2  501    0 -0.49115741250E+02  0.84000900917E+02 -0.15252214047E+02  0.19907319615E+03  0.17300000000E+03 0.  1.
         -6    1    1    2    0  502  0.49115741250E+02 -0.84000900917E+02 -0.66571492247E+02  0.20935441475E+03  0.17300000000E+03 0. -1.
<mgrwt>
<rscale>  2 0.19848805E+03</rscale>
<asrwt>0</asrwt>
<pdfrwt beam="1">  1       21 0.25123377E-01 0.19848805E+03</pdfrwt>
<pdfrwt beam="2">  1       21 0.37711640E-01 0.19848805E+03</pdfrwt>
<totfact> 0.10151789E+05</totfact>
</mgrwt>
</event>
<event>
 4    1  0.3948468E+000  0.1963312E+03  0.7546771E-02  0.1152872E+00
         21   -1    0    0  503  502  0.00000000000E+00  0.00000000000E+00  0.55302704084E+02  0.55302704084E+02  0.00000000000E+00 0. -1.
         21   -1    0    0  501  503 -0.00000000000E+00 -0.00000000000E+00 -0.94328918427E+03  0.94328918427E+03  0.00000000000E+00 0.  1.
          6    1    1    2  501    0  0.91774697194E+02  0.13941400848E+02 -0.69912158529E+03  0.72616592368E+03  0.17300000000E+03 0.  1.
         -6    1    1    2    0  502 -0.91774697194E+02 -0.13941400848E+02 -0.18886489490E+03  0.27242596468E+03  0.17300000000E+03 0. -1.
<mgrwt>
<rscale>  2 0.19633124E+03</rscale>
<asrwt>0</asrwt>
<pdfrwt beam="1">  1       21 0.85081090E-02 0.19633124E+03</pdfrwt>
<pdfrwt beam="2">  1       21 0.14512140E+00 0.19633124E+03</pdfrwt>
<totfact> 0.35054751E+04</totfact>
</mgrwt>
</event>
<event>
 4    1  0.3948468E+000  0.2210966E+03  0.7546771E-02  0.1133068E+00
         21   -1    0    0  501  502  0.00000000000E+00  0.00000000000E+00  0.27582174366E+03  0.27582174366E+03  0.00000000000E+00 0. -1.
         21   -1    0    0  502  503 -0.00000000000E+00 -0.00000000000E+00 -0.19250580432E+03  0.19250580432E+03  0.00000000000E+00 0. -1.
          6    1    1    2  501    0  0.86773551360E+02 -0.10688812978E+03 -0.24306245458E+02  0.22242867412E+03  0.17300000000E+03 0. -1.
         -6    1    1    2    0  503 -0.86773551360E+02  0.10688812978E+03  0.10762218480E+03  0.24589887386E+03  0.17300000000E+03 0. -1.
<mgrwt>
<rscale>  2 0.22109663E+03</rscale>
<asrwt>0</asrwt>
<pdfrwt beam="1">  1       21 0.42434114E-01 0.22109663E+03</pdfrwt>
<pdfrwt beam="2">  1       21 0.29616278E-01 0.22109663E+03</pdfrwt>
<totfact> 0.57632237E+04</totfact>
</mgrwt>
</event>
<event>
 4    1  0.3948468E+000  0.2402048E+03  0.7546771E-02  0.1119656E+00
         21   -1    0    0  503  502  0.00000000000E+00  0.00000000000E+00  0.18140677160E+03  0.18140677160E+03  0.00000000000E+00 0. -1.
         21   -1    0    0  501  503 -0.00000000000E+00 -0.00000000000E+00 -0.48722997098E+03  0.48722997098E+03  0.00000000000E+00 0.  1.
          6    1    1    2  501    0 -0.46182606971E+02 -0.16011406160E+03 -0.34990610695E+03  0.42442034540E+03  0.17300000000E+03 0.  1.
         -6    1    1    2    0  502  0.46182606971E+02  0.16011406160E+03  0.44082907574E+02  0.24421639718E+03  0.17300000000E+03 0. -1.
<mgrwt>
<rscale>  2 0.24020480E+03</rscale>
<asrwt>0</asrwt>
<pdfrwt beam="1">  1       21 0.27908734E-01 0.24020480E+03</pdfrwt>
<pdfrwt beam="2">  1       21 0.74958457E-01 0.24020480E+03</pdfrwt>
<totfact> 0.18997112E+04</totfact>
</mgrwt>
</event>
<event>
 4    1  0.3948468E+000  0.2252092E+03  0.7546771E-02  0.1130058E+00
         21   -1    0    0  503  502  0.00000000000E+00  0.00000000000E+00  0.24691982268E+03  0.24691982268E+03  0.00000000000E+00 0.  1.
         21   -1    0    0  501  503 -0.00000000000E+00 -0.00000000000E+00 -0.20801533794E+03  0.20801533794E+03  0.00000000000E+00 0. -1.
          6    1    1    2  501    0 -0.13952298382E+03  0.36380040136E+02 -0.60170312992E+01  0.22528953593E+03  0.17300000000E+03 0. -1.
         -6    1    1    2    0  502  0.13952298382E+03 -0.36380040136E+02  0.44921516034E+02  0.22964562469E+03  0.17300000000E+03 0.  1.
<mgrwt>
<rscale>  2 0.22520917E+03</rscale>
<asrwt>0</asrwt>
<pdfrwt beam="1">  1       21 0.37987665E-01 0.22520917E+03</pdfrwt>
<pdfrwt beam="2">  1       21 0.32002360E-01 0.22520917E+03</pdfrwt>
<totfact> 0.61860214E+04</totfact>
</mgrwt>
</event>
<event>
 4    1  0.3948468E+000  0.2148899E+03  0.7546771E-02  0.1137751E+00
         21   -1    0    0  503  502  0.00000000000E+00  0.00000000000E+00  0.46058510206E+02  0.46058510206E+02  0.00000000000E+00 0. -1.
         21   -1    0    0  501  503 -0.00000000000E+00 -0.00000000000E+00 -0.10398290602E+04  0.10398290602E+04  0.00000000000E+00 0. -1.
          6    1    1    2  501    0  0.87451165458E+02  0.92741485788E+02 -0.59963660549E+03  0.63697860888E+03  0.17300000000E+03 0. -1.
         -6    1    1    2    0  502 -0.87451165458E+02 -0.92741485788E+02 -0.39413394448E+03  0.44890896150E+03  0.17300000000E+03 0. -1.
<mgrwt>
<rscale>  2 0.21488995E+03</rscale>
<asrwt>0</asrwt>
<pdfrwt beam="1">  1       21 0.70859249E-02 0.21488995E+03</pdfrwt>
<pdfrwt beam="2">  1       21 0.15997369E+00 0.21488995E+03</pdfrwt>
<totfact> 0.36796327E+04</totfact>
</mgrwt>
</event>
<event>
 4    1  0.3948468E+000  0.2199156E+03  0.7546771E-02  0.1133946E+00
         21   -1    0    0  503  502  0.00000000000E+00  0.00000000000E+00  0.19247898366E+04  0.19247898366E+04  0.00000000000E+00 0.  1.
         21   -1    0    0  501  503 -0.00000000000E+00 -0.00000000000E+00 -0.27553464269E+03  0.27553464269E+03  0.00000000000E+00 0. -1.
          6    1    1    2  501    0  0.12594749014E+03 -0.50706194074E+02 -0.22417319835E+03  0.31403265953E+03  0.17300000000E+03 0. -1.
         -6    1    1    2    0  502 -0.12594749014E+03  0.50706194074E+02  0.18734283922E+04  0.18862918197E+04  0.17300000000E+03 0.  1.
<mgrwt>
<rscale>  2 0.21991564E+03</rscale>
<asrwt>0</asrwt>
<pdfrwt beam="1">  1       21 0.29612150E+00 0.21991564E+03</pdfrwt>
<pdfrwt beam="2">  1       21 0.42389946E-01 0.21991564E+03</pdfrwt>
<totfact> 0.18489068E+02</totfact>
</mgrwt>
</event>
<event>
 4    1  0.3948468E+000  0.2096990E+03  0.7546771E-02  0.1141805E+00
         21   -1    0    0  503  502  0.00000000000E+00  0.00000000000E+00  0.85453025948E+02  0.85453025948E+02  0.00000000000E+00 0. -1.
         21   -1    0    0  501  503 -0.00000000000E+00 -0.00000000000E+00 -0.60920993948E+03  0.60920993948E+03  0.00000000000E+00 0.  1.
          6    1    1    2  501    0 -0.98715482018E+02 -0.65573927910E+02 -0.12499817832E+03  0.24412748923E+03  0.17300000000E+03 0. -1.
         -6    1    1    2    0  502  0.98715482018E+02  0.65573927910E+02 -0.39875873521E+03  0.45053547620E+03  0.17300000000E+03 0.  1.
<mgrwt>
<rscale>  2 0.20969904E+03</rscale>
<asrwt>0</asrwt>
<pdfrwt beam="1">  1       21 0.13146620E-01 0.20969904E+03</pdfrwt>
<pdfrwt beam="2">  1       21 0.93724604E-01 0.20969904E+03</pdfrwt>
<totfact> 0.47214171E+04</totfact>
</mgrwt>
</event>
<event>
 4    1  0.3948468E+000  0.2060445E+03  0.7546771E-02  0.1144737E+00
         21   -1    0    0  501  502  0.00000000000E+00  0.00000000000E+00  0.60275755742E+03  0.60275755742E+03  0.00000000000E+00 0.  1.
         21   -1    0    0  502  503 -0.00000000000E+00 -0.00000000000E+00 -0.94602296792E+02  0.94602296792E+02  0.00000000000E+00 0. -1.
          6    1    1    2  501    0 -0.77355497589E+02 -0.80879421283E+02  0.43031710252E+03  0.47710288463E+03  0.17300000000E+03 0.  1.
         -6    1    1    2    0  503  0.77355497589E+02  0.80879421283E+02  0.77838158105E+02  0.22025696959E+03  0.17300000000E+03 0. -1.
<mgrwt>
<rscale>  2 0.20604454E+03</rscale>
<asrwt>0</asrwt>
<pdfrwt beam="1">  1       21 0.92731930E-01 0.20604454E+03</pdfrwt>
<pdfrwt beam="2">  1       21 0.14554200E-01 0.20604454E+03</pdfrwt>
<totfact> 0.40329182E+04</totfact>
</mgrwt>
</event>
<event>
 4    1  0.3948468E+000  0.3036241E+03  0.7546771E-02  0.1083443E+00
         21   -1    0    0  503  502  0.00000000000E+00  0.00000000000E+00  0.30255244758E+03  0.30255244758E+03  0.00000000000E+00 0.  1.
         21   -1    0    0  501  503 -0.00000000000E+00 -0.00000000000E+00 -0.30518704030E+03  0.30518704030E+03  0.00000000000E+00 0.  1.
          6    1    1    2  501    0  0.18138031543E+03  0.17134700334E+03  0.10826607588E+02  0.30381709927E+03  0.17300000000E+03 0.  1.
         -6    1    1    2    0  502 -0.18138031543E+03 -0.17134700334E+03 -0.13461200305E+02  0.30392238860E+03  0.17300000000E+03 0.  1.
<mgrwt>
<rscale>  2 0.30362413E+03</rscale>
<asrwt>0</asrwt>
<pdfrwt beam="1">  1       21 0.46546531E-01 0.30362413E+03</pdfrwt>
<pdfrwt beam="2">  1       21 0.46951852E-01 0.30362413E+03</pdfrwt>
<totfact> 0.18158694E+04</totfact>
</mgrwt>
</event>
<event>
 4    1  0.3948468E+000  0.1751122E+03  0.7546771E-02  0.1172619E+00
         21   -1    0    0  501  502  0.00000000000E+00  0.00000000000E+00  0.40031904455E+03  0.40031904455E+03  0.00000000000E+00 0. -1.
         21   -1    0    0  502  503 -0.00000000000E+00 -0.00000000000E+00 -0.93382901555E+02  0.93382901555E+02  0.00000000000E+00 0. -1.
          6    1    1    2  501    0 -0.24727114529E+02 -0.11128260695E+02  0.25811830302E+03  0.31191237028E+03  0.17300000000E+03 0. -1.
         -6    1    1    2    0  503  0.24727114529E+02  0.11128260695E+02  0.48817839974E+02  0.18178957583E+03  0.17300000000E+03 0. -1.
<mgrwt>
<rscale>  2 0.17511216E+03</rscale>
<asrwt>0</asrwt>
<pdfrwt beam="1">  1       21 0.61587544E-01 0.17511216E+03</pdfrwt>
<pdfrwt beam="2">  1       21 0.14366600E-01 0.17511216E+03</pdfrwt>
<totfact> 0.10463055E+05</totfact>
</mgrwt>
</event>
<event>
 4    1  0.3948468E+000  0.2056222E+03  0.7546771E-02  0.1145080E+00
         21   -1    0    0  501  502  0.00000000000E+00  0.00000000000E+00  0.50871719857E+02  0.50871719857E+02  0.00000000000E+00 0.  1.
         21   -1    0    0  502  503 -0.00000000000E+00 -0.00000000000E+00 -0.85631768589E+03  0.85631768589E+03  0.00000000000E+00 0.  1.
          6    1    1    2  501    0  0.15811053445E+01  0.11112594423E+03 -0.48053302733E+03  0.52267816650E+03  0.17300000000E+03 0.  1.
         -6    1    1    2    0  503 -0.15811053445E+01 -0.11112594423E+03 -0.32491293870E+03  0.38451123925E+03  0.17300000000E+03 0.  1.
<mgrwt>
<rscale>  2 0.20562217E+03</rscale>
<asrwt>0</asrwt>
<pdfrwt beam="1">  1       21 0.78264188E-02 0.20562217E+03</pdfrwt>
<pdfrwt beam="2">  1       21 0.13174118E+00 0.20562217E+03</pdfrwt>
<totfact> 0.51744582E+04</totfact>
</mgrwt>
</event>
<event>
 4    1  0.3948468E+000  0.2109836E+03  0.7546771E-02  0.1140789E+00
         21   -1    0    0  503  502  0.00000000000E+00  0.00000000000E+00  0.33365478260E+03  0.33365478260E+03  0.00000000000E+00 0.  1.
         21   -1    0    0  501  503 -0.00000000000E+00 -0.00000000000E+00 -0.13914913880E+03  0.13914913880E+03  0.00000000000E+00 0. -1.
          6    1    1    2  501    0 -0.47114235891E+02 -0.11119943761E+03  0.14524828016E+03  0.25614669437E+03  0.17300000000E+03 0. -1.
         -6    1    1    2    0  502  0.47114235891E+02  0.11119943761E+03  0.49257363646E+02  0.21665722703E+03  0.17300000000E+03 0. -1.
<mgrwt>
<rscale>  2 0.21098357E+03</rscale>
<asrwt>0</asrwt>
<pdfrwt beam="1">  1       21 0.51331505E-01 0.21098357E+03</pdfrwt>
<pdfrwt beam="2">  1       21 0.21407560E-01 0.21098357E+03</pdfrwt>
<totfact> 0.72706857E+04</totfact>
</mgrwt>
</event>
<event>
 4    1  0.3948468E+000  0.2400861E+03  0.7546771E-02  0.1119735E+00
         21   -1    0    0  501  502  0.00000000000E+00  0.00000000000E+00  0.18263019338E+04  0.18263019338E+04  0.00000000000E+00 0. -1.
         21   -1    0    0  502  503 -0.00000000000E+00 -0.00000000000E+00 -0.35996710865E+02  0.35996710865E+02  0.00000000000E+00 0. -1.
          6    1    1    2  501    0 -0.10681421891E+03 -0.12768350509E+03  0.12219894094E+04  0.12453511439E+04  0.17300000000E+03 0. -1.
         -6    1    1    2    0  503  0.10681421891E+03  0.12768350509E+03  0.56831581352E+03  0.61694750079E+03  0.17300000000E+03 0. -1.
<mgrwt>
<rscale>  2 0.24008614E+03</rscale>
<asrwt>0</asrwt>
<pdfrwt beam="1">  1       21 0.28096946E+00 0.24008614E+03</pdfrwt>
<pdfrwt beam="2">  1       21 0.55379570E-02 0.24008614E+03</pdfrwt>
<totfact> 0.94986646E+03</totfact>
</mgrwt>
</event>
<event>
 4    1  0.3948468E+000  0.1871635E+03  0.7546771E-02  0.1161045E+00
         21   -1    0    0  501  502  0.00000000000E+00  0.00000000000E+00  0.11162951324E+03  0.11162951324E+03  0.00000000000E+00 0. -1.
         21   -1    0    0  502  503 -0.00000000000E+00 -0.00000000000E+00 -0.31402316177E+03  0.31402316177E+03  0.00000000000E+00 0.  1.
          6    1    1    2  501    0  0.65910927661E+02 -0.27512408765E+02 -0.10677368884E+03  0.21547808160E+03  0.17300000000E+03 0. -1.
         -6    1    1    2    0  503 -0.65910927661E+02  0.27512408765E+02 -0.95619959693E+02  0.21017459340E+03  0.17300000000E+03 0. -1.
<mgrwt>
<rscale>  2 0.18716352E+03</rscale>
<asrwt>0</asrwt>
<pdfrwt beam="1">  1       21 0.17173771E-01 0.18716352E+03</pdfrwt>
<pdfrwt beam="2">  1       21 0.48311256E-01 0.18716352E+03</pdfrwt>
<totfact> 0.12555150E+05</totfact>
</mgrwt>
</event>
<event>
 4    1  0.3948468E+000  0.1765980E+03  0.7546771E-02  0.1171137E+00
         21   -1    0    0  503  502  0.00000000000E+00  0.00000000000E+00  0.91037725812E+03  0.91037725812E+03  0.00000000000E+00 0. -1.
         21   -1    0    0  501  503 -0.00000000000E+00 -0.00000000000E+00 -0.81742705598E+02  0.81742705598E+02  0.00000000000E+00 0. -1.
          6    1    1    2  501    0  0.11637591263E+02 -0.33502688855E+02  0.36231111748E+02  0.18027633552E+03  0.17300000000E+03 0. -1.
         -6    1    1    2    0  502 -0.11637591263E+02  0.33502688855E+02  0.79240344078E+03  0.81184362820E+03  0.17300000000E+03 0. -1.
<mgrwt>
<rscale>  2 0.17659803E+03</rscale>
<asrwt>0</asrwt>
<pdfrwt beam="1">  1       21 0.14005803E+00 0.17659803E+03</pdfrwt>
<pdfrwt beam="2">  1       21 0.12575801E-01 0.17659803E+03</pdfrwt>
<totfact> 0.19494838E+04</totfact>
</mgrwt>
</event>
<event>
 4    1  0.3948468E+000  0.2042993E+03  0.7546771E-02  0.1146162E+00
         21   -1    0    0  501  502  0.00000000000E+00  0.00000000000E+00  0.47083458564E+03  0.47083458564E+03  0.00000000000E+00 0. -1.
         21   -1    0    0  502  503 -0.00000000000E+00 -0.00000000000E+00 -0.88711441226E+02  0.88711441226E+02  0.00000000000E+00 0.  1.
          6    1    1    2  501    0  0.93676811574E+02 -0.55080465099E+02  0.18353717652E+03  0.27463448040E+03  0.17300000000E+03 0.  1.
         -6    1    1    2    0  503 -0.93676811574E+02  0.55080465099E+02  0.19858596789E+03  0.28491154646E+03  0.17300000000E+03 0.  1.
<mgrwt>
<rscale>  2 0.20429930E+03</rscale>
<asrwt>0</asrwt>
<pdfrwt beam="1">  1       21 0.72436089E-01 0.20429930E+03</pdfrwt>
<pdfrwt beam="2">  1       21 0.13647914E-01 0.20429930E+03</pdfrwt>
<totfact> 0.79577316E+04</totfact>
</mgrwt>
</event>
<event>
 4    1  0.3948468E+000  0.1784625E+03  0.7546771E-02  0.1169299E+00
         21   -1    0    0  501  502  0.00000000000E+00  0.00000000000E+00  0.16638670775E+04  0.16638670775E+04  0.00000000000E+00 0. -1.
         21   -1    0    0  502  503 -0.00000000000E+00 -0.00000000000E+00 -0.23574360143E+02  0.23574360143E+02  0.00000000000E+00 0. -1.
          6    1    1    2  501    0  0.90840273024E+01  0.42864393065E+02  0.11860121707E+04  0.11993638918E+04  0.17300000000E+03 0. -1.
         -6    1    1    2    0  503 -0.90840273024E+01 -0.42864393065E+02  0.45428054658E+03  0.48807754583E+03  0.17300000000E+03 0. -1.
<mgrwt>
<rscale>  2 0.17846253E+03</rscale>
<asrwt>0</asrwt>
<pdfrwt beam="1">  1       21 0.25597946E+00 0.17846253E+03</pdfrwt>
<pdfrwt beam="2">  1       21 0.36268259E-02 0.17846253E+03</pdfrwt>
<totfact> 0.28664271E+04</totfact>
</mgrwt>
</event>
<event>
 4    1  0.3948468E+000  0.2934664E+03  0.7546771E-02  0.1088553E+00
         21   -1    0    0  501  502  0.00000000000E+00  0.00000000000E+00  0.94645587316E+02  0.94645587316E+02  0.00000000000E+00 0. -1.
         21   -1    0    0  502  503 -0.00000000000E+00 -0.00000000000E+00 -0.96218815534E+03  0.96218815534E+03  0.00000000000E+00 0.  1.
          6    1    1    2  501    0  0.18521853467E+03  0.14794473276E+03 -0.31064536409E+03  0.42734423099E+03  0.17300000000E+03 0. -1.
         -6    1    1    2    0  503 -0.18521853467E+03 -0.14794473276E+03 -0.55689720394E+03  0.62948951166E+03  0.17300000000E+03 0.  1.
<mgrwt>
<rscale>  2 0.29346644E+03</rscale>
<asrwt>0</asrwt>
<pdfrwt beam="1">  1       21 0.14560859E-01 0.29346644E+03</pdfrwt>
<pdfrwt beam="2">  1       21 0.14802895E+00 0.29346644E+03</pdfrwt>
<totfact> 0.12055583E+04</totfact>
</mgrwt>
</event>
<event>
 4    1  0.3948468E+000  0.2168434E+03  0.7546771E-02  0.1136259E+00
         21   -1    0    0  503  502  0.00000000000E+00  0.00000000000E+00  0.10217555530E+03  0.10217555530E+03  0.00000000000E+00 0. -1.
         21   -1    0    0  501  503 -0.00000000000E+00 -0.00000000000E+00 -0.22306279924E+04  0.22306279924E+04  0.00000000000E+00 0.  1.
          6    1    1    2  501    0 -0.13046750431E+03  0.83832898537E+01 -0.21033658318E+04  0.21145138618E+04  0.17300000000E+03 0.  1.
         -6    1    1    2    0  502  0.13046750431E+03 -0.83832898537E+01 -0.25086605336E+02  0.21828968596E+03  0.17300000000E+03 0. -1.
<mgrwt>
<rscale>  2 0.21684337E+03</rscale>
<asrwt>0</asrwt>
<pdfrwt beam="1">  1       21 0.15719316E-01 0.21684337E+03</pdfrwt>
<pdfrwt beam="2">  1       21 0.34317354E+00 0.21684337E+03</pdfrwt>
<totfact> 0.66758437E+02</totfact>
</mgrwt>
</event>
<event>
 4    1  0.3948468E+000  0.2037775E+03  0.7546771E-02  0.1146591E+00
         21   -1    0    0  501  502  0.00000000000E+00  0.00000000000E+00  0.99332379913E+02  0.99332379913E+02  0.00000000000E+00 0.  1.
         21   -1    0    0  502  503 -0.00000000000E+00 -0.00000000000E+00 -0.74215573119E+03  0.74215573119E+03  0.00000000000E+00 0.  1.
          6    1    1    2  501    0 -0.67048696812E+02 -0.84265822187E+02 -0.43364702862E+02  0.20834047611E+03  0.17300000000E+03 0.  1.
         -6    1    1    2    0  503  0.67048696812E+02  0.84265822187E+02 -0.59945864841E+03  0.63314763498E+03  0.17300000000E+03 0.  1.
<mgrwt>
<rscale>  2 0.20377747E+03</rscale>
<asrwt>0</asrwt>
<pdfrwt beam="1">  1       21 0.15281905E-01 0.20377747E+03</pdfrwt>
<pdfrwt beam="2">  1       21 0.11417780E+00 0.20377747E+03</pdfrwt>
<totfact> 0.22467684E+04</totfact>
</mgrwt>
</event>
<event>
 4    1  0.3948468E+000  0.2086045E+03  0.7546771E-02  0.1142676E+00
         21   -1    0    0  503  502  0.00000000000E+00  0.00000000000E+00  0.72760241354E+02  0.72760241354E+02  0.00000000000E+00 0.  1.
         21   -1    0    0  501  503 -0.00000000000E+00 -0.00000000000E+00 -0.10974750036E+04  0.10974750036E+04  0.00000000000E+00 0. -1.
          6    1    1    2  501    0  0.71089059201E+02 -0.92375315977E+02 -0.90706134943E+03  0.93073956883E+03  0.17300000000E+03 0. -1.
         -6    1    1    2    0  502 -0.71089059201E+02  0.92375315977E+02 -0.11765341282E+03  0.23949567614E+03  0.17300000000E+03 0.  1.
<mgrwt>
<rscale>  2 0.20860454E+03</rscale>
<asrwt>0</asrwt>
<pdfrwt beam="1">  1       21 0.11193884E-01 0.20860454E+03</pdfrwt>
<pdfrwt beam="2">  1       21 0.16884230E+00 0.20860454E+03</pdfrwt>
<totfact> 0.14276715E+04</totfact>
</mgrwt>
</event>
<event>
 4    1  0.3948468E+000  0.1878888E+03  0.7546771E-02  0.1160379E+00
         21   -1    0    0  503  502  0.00000000000E+00  0.00000000000E+00  0.52627998636E+02  0.52627998636E+02  0.00000000000E+00 0.  1.
         21   -1    0    0  501  503 -0.00000000000E+00 -0.00000000000E+00 -0.16300505313E+04  0.16300505313E+04  0.00000000000E+00 0.  1.
          6    1    1    2  501    0  0.63236328673E+02  0.37072388900E+02 -0.14341269486E+04  0.14463824874E+04  0.17300000000E+03 0.  1.
         -6    1    1    2    0  502 -0.63236328673E+02 -0.37072388900E+02 -0.14329558405E+03  0.23629604248E+03  0.17300000000E+03 0.  1.
<mgrwt>
<rscale>  2 0.18788878E+03</rscale>
<asrwt>0</asrwt>
<pdfrwt beam="1">  1       21 0.80966155E-02 0.18788878E+03</pdfrwt>
<pdfrwt beam="2">  1       21 0.25077699E+00 0.18788878E+03</pdfrwt>
<totfact> 0.77693522E+03</totfact>
</mgrwt>
</event>
<event>
 4    1  0.3948468E+000  0.2218479E+03  0.7546771E-02  0.1132513E+00
         21   -1    0    0  501  502  0.00000000000E+00  0.00000000000E+00  0.12937670342E+03  0.12937670342E+03  0.00000000000E+00 0. -1.
         21   -1    0    0  502  503 -0.00000000000E+00 -0.00000000000E+00 -0.81642254463E+03  0.81642254463E+03  0.00000000000E+00 0. -1.
          6    1    1    2  501    0 -0.73720596550E+02  0.11769783310E+03  0.20659563416E+01  0.22185755441E+03  0.17300000000E+03 0. -1.
         -6    1    1    2    0  503  0.73720596550E+02 -0.11769783310E+03 -0.68911179755E+03  0.72394169364E+03  0.17300000000E+03 0. -1.
<mgrwt>
<rscale>  2 0.22184794E+03</rscale>
<asrwt>0</asrwt>
<pdfrwt beam="1">  1       21 0.19904108E-01 0.22184794E+03</pdfrwt>
<pdfrwt beam="2">  1       21 0.12560347E+00 0.22184794E+03</pdfrwt>
<totfact> 0.10757683E+04</totfact>
</mgrwt>
</event>
<event>
 4    1  0.3948468E+000  0.1772781E+03  0.7546771E-02  0.1170464E+00
         21   -1    0    0  501  502  0.00000000000E+00  0.00000000000E+00  0.80596274130E+03  0.80596274130E+03  0.00000000000E+00 0. -1.
         21   -1    0    0  502  503 -0.00000000000E+00 -0.00000000000E+00 -0.80224243160E+02  0.80224243160E+02  0.00000000000E+00 0. -1.
          6    1    1    2  501    0 -0.32072191515E+02  0.21677479046E+02  0.68052127750E+03  0.70323306783E+03  0.17300000000E+03 0. -1.
         -6    1    1    2    0  503  0.32072191515E+02 -0.21677479046E+02  0.45217220641E+02  0.18295391663E+03  0.17300000000E+03 0. -1.
<mgrwt>
<rscale>  2 0.17727814E+03</rscale>
<asrwt>0</asrwt>
<pdfrwt beam="1">  1       21 0.12399426E+00 0.17727814E+03</pdfrwt>
<pdfrwt beam="2">  1       21 0.12342192E-01 0.17727814E+03</pdfrwt>
<totfact> 0.27415147E+04</totfact>
</mgrwt>
</event>
<event>
 4    1  0.3948468E+000  0.1936559E+03  0.7546771E-02  0.1155205E+00
         21   -1    0    0  501  502  0.00000000000E+00  0.00000000000E+00  0.63360677455E+03  0.63360677455E+03  0.00000000000E+00 0. -1.
         21   -1    0    0  502  503 -0.00000000000E+00 -0.00000000000E+00 -0.72915702537E+02  0.72915702537E+02  0.00000000000E+00 0. -1.
          6    1    1    2  501    0 -0.16511391128E+02 -0.85445837650E+02  0.12707208965E+03  0.23162455219E+03  0.17300000000E+03 0. -1.
         -6    1    1    2    0  503  0.16511391128E+02  0.85445837650E+02  0.43361898236E+03  0.47489792490E+03  0.17300000000E+03 0. -1.
<mgrwt>
<rscale>  2 0.19365592E+03</rscale>
<asrwt>0</asrwt>
<pdfrwt beam="1">  1       21 0.97477962E-01 0.19365592E+03</pdfrwt>
<pdfrwt beam="2">  1       21 0.11217801E-01 0.19365592E+03</pdfrwt>
<totfact> 0.57687477E+04</totfact>
</mgrwt>
</event>
<event>
 4    1  0.3948468E+000  0.1980033E+03  0.7546771E-02  0.1151435E+00
         21   -1    0    0  501  502  0.00000000000E+00  0.00000000000E+00  0.25562196631E+03  0.25562196631E+03  0.00000000000E+00 0. -1.
         21   -1    0    0  502  503 -0.00000000000E+00 -0.00000000000E+00 -0.15341005576E+03  0.15341005576E+03  0.00000000000E+00 0. -1.
          6    1    1    2  501    0 -0.21008382272E+02  0.93994481017E+02  0.47895150649E+02  0.20371367171E+03  0.17300000000E+03 0. -1.
         -6    1    1    2    0  503  0.21008382272E+02 -0.93994481017E+02  0.54316759894E+02  0.20531835036E+03  0.17300000000E+03 0. -1.
<mgrwt>
<rscale>  2 0.19800332E+03</rscale>
<asrwt>0</asrwt>
<pdfrwt beam="1">  1       21 0.39326456E-01 0.19800332E+03</pdfrwt>
<pdfrwt beam="2">  1       21 0.23601547E-01 0.19800332E+03</pdfrwt>
<totfact> 0.10512976E+05</totfact>
</mgrwt>
</event>
<event>
 4    1  0.3948468E+000  0.2827040E+03  0.7546771E-02  0.1094221E+00
         21   -1    0    0  501  502  0.00000000000E+00  0.00000000000E+00  0.46062453595E+03  0.46062453595E+03  0.00000000000E+00 0. -1.
         21   -1    0    0  502  503 -0.00000000000E+00 -0.00000000000E+00 -0.19180565442E+03  0.19180565442E+03  0.00000000000E+00 0. -1.
          6    1    1    2  501    0  0.14046780345E+03 -0.17395792160E+03  0.23516834121E+03  0.36773048691E+03  0.17300000000E+03 0. -1.
         -6    1    1    2    0  503 -0.14046780345E+03  0.17395792160E+03  0.33650540317E+02  0.28469970347E+03  0.17300000000E+03 0. -1.
<mgrwt>
<rscale>  2 0.28270402E+03</rscale>
<asrwt>0</asrwt>
<pdfrwt beam="1">  1       21 0.70865313E-01 0.28270402E+03</pdfrwt>
<pdfrwt beam="2">  1       21 0.29508562E-01 0.28270402E+03</pdfrwt>
<totfact> 0.18938200E+04</totfact>
</mgrwt>
</event>
<event>
 4    1  0.3948468E+000  0.1813201E+03  0.7546771E-02  0.1166532E+00
         21   -1    0    0  503  502  0.00000000000E+00  0.00000000000E+00  0.56343558241E+03  0.56343558241E+03  0.00000000000E+00 0.  1.
         21   -1    0    0  501  503 -0.00000000000E+00 -0.00000000000E+00 -0.10574226612E+03  0.10574226612E+03  0.00000000000E+00 0.  1.
          6    1    1    2  501    0  0.40735645561E+02  0.35896865529E+02  0.48524278553E+01  0.18138501545E+03  0.17300000000E+03 0.  1.
         -6    1    1    2    0  502 -0.40735645561E+02 -0.35896865529E+02  0.45284088843E+03  0.48779283309E+03  0.17300000000E+03 0.  1.
<mgrwt>
<rscale>  2 0.18132010E+03</rscale>
<asrwt>0</asrwt>
<pdfrwt beam="1">  1       21 0.86682396E-01 0.18132010E+03</pdfrwt>
<pdfrwt beam="2">  1       21 0.16268041E-01 0.18132010E+03</pdfrwt>
<totfact> 0.38977098E+04</totfact>
</mgrwt>
</event>
<event>
 4    1  0.3948468E+000  0.2769022E+03  0.7546771E-02  0.1097393E+00
         21   -1    0    0  503  502  0.00000000000E+00  0.00000000000E+00  0.79438959664E+03  0.79438959664E+03  0.00000000000E+00 0. -1.
         21   -1    0    0  501  503 -0.00000000000E+00 -0.00000000000E+00 -0.20125376037E+03  0.20125376037E+03  0.00000000000E+00 0.  1.
          6    1    1    2  501    0  0.92672472423E+02 -0.19533981227E+03 -0.62555932818E+02  0.28388038702E+03  0.17300000000E+03 0.  1.
         -6    1    1    2    0  502 -0.92672472423E+02  0.19533981227E+03  0.65569176909E+03  0.71176297000E+03  0.17300000000E+03 0. -1.
<mgrwt>
<rscale>  2 0.27690220E+03</rscale>
<asrwt>0</asrwt>
<pdfrwt beam="1">  1       21 0.12221378E+00 0.27690220E+03</pdfrwt>
<pdfrwt beam="2">  1       21 0.30962117E-01 0.27690220E+03</pdfrwt>
<totfact> 0.47690479E+03</totfact>
</mgrwt>
</event>
<event>
 4    1  0.3948468E+000  0.1968876E+03  0.7546771E-02  0.1152392E+00
         21   -1    0    0  501  502  0.00000000000E+00  0.00000000000E+00  0.36110997714E+02  0.36110997714E+02  0.00000000000E+00 0.  1.
         21   -1    0    0  502  503 -0.00000000000E+00 -0.00000000000E+00 -0.11026220903E+04  0.11026220903E+04  0.00000000000E+00 0.  1.
          6    1    1    2  501    0 -0.86050416569E+02 -0.37829336078E+02 -0.44070537290E+03  0.48268619057E+03  0.17300000000E+03 0.  1.
         -6    1    1    2    0  503  0.86050416569E+02  0.37829336078E+02 -0.62580571969E+03  0.65604689745E+03  0.17300000000E+03 0.  1.
<mgrwt>
<rscale>  2 0.19688761E+03</rscale>
<asrwt>0</asrwt>
<pdfrwt beam="1">  1       21 0.55555387E-02 0.19688761E+03</pdfrwt>
<pdfrwt beam="2">  1       21 0.16963415E+00 0.19688761E+03</pdfrwt>
<totfact> 0.48147023E+04</totfact>
</mgrwt>
</event>
<event>
 4    1  0.3948468E+000  0.1747185E+03  0.7546771E-02  0.1173015E+00
         21   -1    0    0  501  502  0.00000000000E+00  0.00000000000E+00  0.16158059541E+03  0.16158059541E+03  0.00000000000E+00 0. -1.
         21   -1    0    0  502  503 -0.00000000000E+00 -0.00000000000E+00 -0.24103124993E+03  0.24103124993E+03  0.00000000000E+00 0. -1.
          6    1    1    2  501    0 -0.20928737831E+01  0.24354903077E+02  0.53872691682E+02  0.18283546793E+03  0.17300000000E+03 0. -1.
         -6    1    1    2    0  503  0.20928737831E+01 -0.24354903077E+02 -0.13332334620E+03  0.21977637741E+03  0.17300000000E+03 0. -1.
<mgrwt>
<rscale>  2 0.17471846E+03</rscale>
<asrwt>0</asrwt>
<pdfrwt beam="1">  1       21 0.24858553E-01 0.17471846E+03</pdfrwt>
<pdfrwt beam="2">  1       21 0.37081731E-01 0.17471846E+03</pdfrwt>
<totfact> 0.10810735E+05</totfact>
</mgrwt>
</event>
<event>
 4    1  0.3948468E+000  0.1786041E+03  0.7546771E-02  0.1169161E+00
         21   -1    0    0  501  502  0.00000000000E+00  0.00000000000E+00  0.10456985089E+03  0.10456985089E+03  0.00000000000E+00 0.  1.
         21   -1    0    0  502  503 -0.00000000000E+00 -0.00000000000E+00 -0.30962287162E+03  0.30962287162E+03  0.00000000000E+00 0. -1.
          6    1    1    2  501    0  0.15834820542E+01 -0.44361307035E+02 -0.77368936727E+02  0.19464168451E+03  0.17300000000E+03 0. -1.
         -6    1    1    2    0  503 -0.15834820542E+01  0.44361307035E+02 -0.12768408400E+03  0.21955103800E+03  0.17300000000E+03 0.  1.
<mgrwt>
<rscale>  2 0.17860412E+03</rscale>
<asrwt>0</asrwt>
<pdfrwt beam="1">  1       21 0.16087669E-01 0.17860412E+03</pdfrwt>
<pdfrwt beam="2">  1       21 0.47634288E-01 0.17860412E+03</pdfrwt>
<totfact> 0.14615055E+05</totfact>
</mgrwt>
</event>
<event>
 4    1  0.3948468E+000  0.1920244E+03  0.7546771E-02  0.1156648E+00
         21   -1    0    0  503  502  0.00000000000E+00  0.00000000000E+00  0.90263615829E+02  0.90263615829E+02  0.00000000000E+00 0. -1.
         21   -1    0    0  501  503 -0.00000000000E+00 -0.00000000000E+00 -0.44868397520E+03  0.44868397520E+03  0.00000000000E+00 0. -1.
          6    1    1    2  501    0 -0.62897098933E+02  0.54665695432E+02 -0.98573799787E+02  0.21584757890E+03  0.17300000000E+03 0. -1.
         -6    1    1    2    0  502  0.62897098933E+02 -0.54665695432E+02 -0.25984655958E+03  0.32310001213E+03  0.17300000000E+03 0. -1.
<mgrwt>
<rscale>  2 0.19202443E+03</rscale>
<asrwt>0</asrwt>
<pdfrwt beam="1">  1       21 0.13886710E-01 0.19202443E+03</pdfrwt>
<pdfrwt beam="2">  1       21 0.69028305E-01 0.19202443E+03</pdfrwt>
<totfact> 0.86248941E+04</totfact>
</mgrwt>
</event>
<event>
 4    1  0.3948468E+000  0.1981328E+03  0.7546771E-02  0.1151324E+00
         21   -1    0    0  501  502  0.00000000000E+00  0.00000000000E+00  0.37033667558E+03  0.37033667558E+03  0.00000000000E+00 0. -1.
         21   -1    0    0  502  503 -0.00000000000E+00 -0.00000000000E+00 -0.12328017832E+03  0.12328017832E+03  0.00000000000E+00 0.  1.
          6    1    1    2  501    0  0.96046218687E+02 -0.10134826992E+02  0.31131472911E+02  0.20056360449E+03  0.17300000000E+03 0.  1.
         -6    1    1    2    0  503 -0.96046218687E+02  0.10134826992E+02  0.21592502435E+03  0.29305324940E+03  0.17300000000E+03 0. -1.
<mgrwt>
<rscale>  2 0.19813276E+03</rscale>
<asrwt>0</asrwt>
<pdfrwt beam="1">  1       21 0.56974873E-01 0.19813276E+03</pdfrwt>
<pdfrwt beam="2">  1       21 0.18966181E-01 0.19813276E+03</pdfrwt>
<totfact> 0.73574782E+04</totfact>
</mgrwt>
</event>
<event>
 4    1  0.3948468E+000  0.2095503E+03  0.7546771E-02  0.1141923E+00
         21   -1    0    0  501  502  0.00000000000E+00  0.00000000000E+00  0.27311167636E+02  0.27311167636E+02  0.00000000000E+00 0. -1.
         21   -1    0    0  502  503 -0.00000000000E+00 -0.00000000000E+00 -0.18145082672E+04  0.18145082672E+04  0.00000000000E+00 0.  1.
          6    1    1    2  501    0  0.17890629750E+01 -0.11823333431E+03 -0.58278489689E+03  0.61931378003E+03  0.17300000000E+03 0. -1.
         -6    1    1    2    0  503 -0.17890629750E+01  0.11823333431E+03 -0.12044122027E+04  0.12225056548E+04  0.17300000000E+03 0.  1.
<mgrwt>
<rscale>  2 0.20955029E+03</rscale>
<asrwt>0</asrwt>
<pdfrwt beam="1">  1       21 0.42017176E-02 0.20955029E+03</pdfrwt>
<pdfrwt beam="2">  1       21 0.27915515E+00 0.20955029E+03</pdfrwt>
<totfact> 0.15980275E+04</totfact>
</mgrwt>
</event>
<event>
 4    1  0.3948468E+000  0.1971149E+03  0.7546771E-02  0.1152196E+00
         21   -1    0    0  503  502  0.00000000000E+00  0.00000000000E+00  0.44187893876E+02  0.44187893876E+02  0.00000000000E+00 0. -1.
         21   -1    0    0  501  503 -0.00000000000E+00 -0.00000000000E+00 -0.11078645739E+04  0.11078645739E+04  0.00000000000E+00 0. -1.
          6    1    1    2  501    0 -0.39881177250E+01  0.94389442366E+02 -0.79347973899E+03  0.81759670260E+03  0.17300000000E+03 0. -1.
         -6    1    1    2    0  502  0.39881177250E+01 -0.94389442366E+02 -0.27019694101E+03  0.33445576516E+03  0.17300000000E+03 0. -1.
<mgrwt>
<rscale>  2 0.19711487E+03</rscale>
<asrwt>0</asrwt>
<pdfrwt beam="1">  1       21 0.67981376E-02 0.19711487E+03</pdfrwt>
<pdfrwt beam="2">  1       21 0.17044070E+00 0.19711487E+03</pdfrwt>
<totfact> 0.33610755E+04</totfact>
</mgrwt>
</event>
<event>
 4    1  0.3948468E+000  0.1790312E+03  0.7546771E-02  0.1168744E+00
         21   -1    0    0  503  502  0.00000000000E+00  0.00000000000E+00  0.63413357508E+03  0.63413357508E+03  0.00000000000E+00 0.  1.
         21   -1    0    0  501  503 -0.00000000000E+00 -0.00000000000E+00 -0.11724929899E+03  0.11724929899E+03  0.00000000000E+00 0.  1.
          6    1    1    2  501    0  0.11395141923E+02 -0.44646500310E+02 -0.24927756892E+02  0.18075827039E+03  0.17300000000E+03 0.  1.
         -6    1    1    2    0  502 -0.11395141923E+02  0.44646500310E+02  0.54181203298E+03  0.57062460369E+03  0.17300000000E+03 0.  1.
<mgrwt>
<rscale>  2 0.17903117E+03</rscale>
<asrwt>0</asrwt>
<pdfrwt beam="1">  1       21 0.97559010E-01 0.17903117E+03</pdfrwt>
<pdfrwt beam="2">  1       21 0.18038354E-01 0.17903117E+03</pdfrwt>
<totfact> 0.24535238E+04</totfact>
</mgrwt>
</event>
<event>
 4    1  0.3948468E+000  0.1935426E+03  0.7546771E-02  0.1155304E+00
         21   -1    0    0  503  502  0.00000000000E+00  0.00000000000E+00  0.19460533685E+03  0.19460533685E+03  0.00000000000E+00 0. -1.
         21   -1    0    0  501  503 -0.00000000000E+00 -0.00000000000E+00 -0.30408681478E+03  0.30408681478E+03  0.00000000000E+00 0.  1.
          6    1    1    2  501    0  0.85458386650E+02 -0.15052695247E+02 -0.20579683603E+03  0.28250850819E+03  0.17300000000E+03 0.  1.
         -6    1    1    2    0  502 -0.85458386650E+02  0.15052695247E+02  0.96315358094E+02  0.21618364343E+03  0.17300000000E+03 0. -1.
<mgrwt>
<rscale>  2 0.19354255E+03</rscale>
<asrwt>0</asrwt>
<pdfrwt beam="1">  1       21 0.29939283E-01 0.19354255E+03</pdfrwt>
<pdfrwt beam="2">  1       21 0.46782587E-01 0.19354255E+03</pdfrwt>
<totfact> 0.46780759E+04</totfact>
</mgrwt>
</event>
<event>
 4    1  0.3948468E+000  0.2037079E+03  0.7546771E-02  0.1146648E+00
         21   -1    0    0  503  502  0.00000000000E+00  0.00000000000E+00  0.60758040929E+03  0.60758040929E+03  0.00000000000E+00 0. -1.
         21   -1    0    0  501  503 -0.00000000000E+00 -0.00000000000E+00 -0.12341864087E+03  0.12341864087E+03  0.00000000000E+00 0.  1.
          6    1    1    2  501    0  0.83285245686E+02  0.68054973741E+02 -0.21783950828E+01  0.20371955479E+03  0.17300000000E+03 0.  1.
         -6    1    1    2    0  502 -0.83285245686E+02 -0.68054973741E+02  0.48634016350E+03  0.52727949537E+03  0.17300000000E+03 0. -1.
<mgrwt>
<rscale>  2 0.20370791E+03</rscale>
<asrwt>0</asrwt>
<pdfrwt beam="1">  1       21 0.93473907E-01 0.20370791E+03</pdfrwt>
<pdfrwt beam="2">  1       21 0.18987484E-01 0.20370791E+03</pdfrwt>
<totfact> 0.24305233E+04</totfact>
</mgrwt>
</event>
<event>
 4    1  0.3948468E+000  0.1733273E+03  0.7546771E-02  0.1174422E+00
         21   -1    0    0  503  502  0.00000000000E+00  0.00000000000E+00  0.74236476254E+02  0.74236476254E+02  0.00000000000E+00 0.  1.
         21   -1    0    0  501  503 -0.00000000000E+00 -0.00000000000E+00 -0.18471952119E+04  0.18471952119E+04  0.00000000000E+00 0.  1.
          6    1    1    2  501    0 -0.45828929738E+01  0.96092654379E+01 -0.17354606211E+04  0.17440945812E+04  0.17300000000E+03 0.  1.
         -6    1    1    2    0  502  0.45828929738E+01 -0.96092654379E+01 -0.37498114521E+02  0.17733710690E+03  0.17300000000E+03 0.  1.
<mgrwt>
<rscale>  2 0.17332727E+03</rscale>
<asrwt>0</asrwt>
<pdfrwt beam="1">  1       21 0.11420997E-01 0.17332727E+03</pdfrwt>
<pdfrwt beam="2">  1       21 0.28418387E+00 0.17332727E+03</pdfrwt>
<totfact> 0.27645659E+03</totfact>
</mgrwt>
</event>
<event>
 4    1  0.3948468E+000  0.2192642E+03  0.7546771E-02  0.1134433E+00
         21   -1    0    0  501  502  0.00000000000E+00  0.00000000000E+00  0.39688543088E+03  0.39688543088E+03  0.00000000000E+00 0.  1.
         21   -1    0    0  502  503 -0.00000000000E+00 -0.00000000000E+00 -0.34035644926E+03  0.34035644926E+03  0.00000000000E+00 0.  1.
          6    1    1    2  501    0 -0.13439648272E+03  0.92410322313E+01  0.32410272148E+03  0.39130472182E+03  0.17300000000E+03 0.  1.
         -6    1    1    2    0  503  0.13439648272E+03 -0.92410322313E+01 -0.26757373987E+03  0.34593715833E+03  0.17300000000E+03 0.  1.
<mgrwt>
<rscale>  2 0.21926425E+03</rscale>
<asrwt>0</asrwt>
<pdfrwt beam="1">  1       21 0.61059297E-01 0.21926425E+03</pdfrwt>
<pdfrwt beam="2">  1       21 0.52362531E-01 0.21926425E+03</pdfrwt>
<totfact> 0.84767615E+03</totfact>
</mgrwt>
</event>
<event>
 4    1  0.3948468E+000  0.2340685E+03  0.7546771E-02  0.1123809E+00
         21   -1    0    0  503  502  0.00000000000E+00  0.00000000000E+00  0.48659657298E+03  0.48659657298E+03  0.00000000000E+00 0. -1.
         21   -1    0    0  501  503 -0.00000000000E+00 -0.00000000000E+00 -0.12612190129E+03  0.12612190129E+03  0.00000000000E+00 0.  1.
          6    1    1    2  501    0 -0.15763430505E+03  0.32365805869E+01  0.79904172889E+02  0.24733120796E+03  0.17300000000E+03 0.  1.
         -6    1    1    2    0  502  0.15763430505E+03 -0.32365805869E+01  0.28057049880E+03  0.36538726631E+03  0.17300000000E+03 0. -1.
<mgrwt>
<rscale>  2 0.23406847E+03</rscale>
<asrwt>0</asrwt>
<pdfrwt beam="1">  1       21 0.74861010E-01 0.23406847E+03</pdfrwt>
<pdfrwt beam="2">  1       21 0.19403370E-01 0.23406847E+03</pdfrwt>
<totfact> 0.38197292E+04</totfact>
</mgrwt>
</event>
<event>
 4    1  0.3948468E+000  0.1741285E+03  0.7546771E-02  0.1173610E+00
         21   -1    0    0  501  502  0.00000000000E+00  0.00000000000E+00  0.44586341615E+03  0.44586341615E+03  0.00000000000E+00 0. -1.
         21   -1    0    0  502  503 -0.00000000000E+00 -0.00000000000E+00 -0.11450720882E+03  0.11450720882E+03  0.00000000000E+00 0. -1.
          6    1    1    2  501    0 -0.10988943157E+02 -0.16461643153E+02  0.34423138134E+03  0.38576675138E+03  0.17300000000E+03 0. -1.
         -6    1    1    2    0  503  0.10988943157E+02  0.16461643153E+02 -0.12875174018E+02  0.17460387359E+03  0.17300000000E+03 0. -1.
<mgrwt>
<rscale>  2 0.17412852E+03</rscale>
<asrwt>0</asrwt>
<pdfrwt beam="1">  1       21 0.68594371E-01 0.17412852E+03</pdfrwt>
<pdfrwt beam="2">  1       21 0.17616494E-01 0.17412852E+03</pdfrwt>
<totfact> 0.57095325E+04</totfact>
</mgrwt>
</event>
<event>
 4    1  0.3948468E+000  0.2087844E+03  0.7546771E-02  0.1142532E+00
         21   -1    0    0  503  502  0.00000000000E+00  0.00000000000E+00  0.18827400458E+04  0.18827400458E+04  0.00000000000E+00 0.  1.
         21   -1    0    0  501  503 -0.00000000000E+00 -0.00000000000E+00 -0.14174135929E+03  0.14174135929E+03  0.00000000000E+00 0. -1.
          6    1    1    2  501    0  0.14006646076E+01 -0.11687593459E+03 -0.55384830470E+02  0.21600561426E+03  0.17300000000E+03 0. -1.
         -6    1    1    2    0  502 -0.14006646076E+01  0.11687593459E+03  0.17963835170E+04  0.18084757908E+04  0.17300000000E+03 0.  1.
<mgrwt>
<rscale>  2 0.20878445E+03</rscale>
<asrwt>0</asrwt>
<pdfrwt beam="1">  1       21 0.28965230E+00 0.20878445E+03</pdfrwt>
<pdfrwt beam="2">  1       21 0.21806364E-01 0.20878445E+03</pdfrwt>
<totfact> 0.75232721E+02</totfact>
</mgrwt>
</event>
<event>
 4    1  0.3948468E+000  0.2312489E+03  0.7546771E-02  0.1125764E+00
         21   -1    0    0  503  502  0.00000000000E+00  0.00000000000E+00  0.92447588517E+02  0.92447588517E+02  0.00000000000E+00 0. -1.
         21   -1    0    0  501  503 -0.00000000000E+00 -0.00000000000E+00 -0.57889961699E+03  0.57889961699E+03  0.00000000000E+00 0. -1.
          6    1    1    2  501    0  0.75319468433E+02  0.13369378883E+03 -0.25260963855E+03  0.34247289088E+03  0.17300000000E+03 0. -1.
         -6    1    1    2    0  502 -0.75319468433E+02 -0.13369378883E+03 -0.23384238993E+03  0.32887431464E+03  0.17300000000E+03 0. -1.
<mgrwt>
<rscale>  2 0.23124890E+03</rscale>
<asrwt>0</asrwt>
<pdfrwt beam="1">  1       21 0.14222706E-01 0.23124890E+03</pdfrwt>
<pdfrwt beam="2">  1       21 0.89061479E-01 0.23124890E+03</pdfrwt>
<totfact> 0.45639067E+04</totfact>
</mgrwt>
</event>
<event>
 4    1  0.3948468E+000  0.2300470E+03  0.7546771E-02  0.1126607E+00
         21   -1    0    0  503  502  0.00000000000E+00  0.00000000000E+00  0.97537317446E+02  0.97537317446E+02  0.00000000000E+00 0. -1.
         21   -1    0    0  501  503 -0.00000000000E+00 -0.00000000000E+00 -0.61496172821E+03  0.61496172821E+03  0.00000000000E+00 0.  1.
          6    1    1    2  501    0 -0.20793368693E+02  0.15020073238E+03 -0.38093439443E+03  0.44500858087E+03  0.17300000000E+03 0.  1.
         -6    1    1    2    0  502  0.20793368693E+02 -0.15020073238E+03 -0.13649001633E+03  0.26749046478E+03  0.17300000000E+03 0. -1.
<mgrwt>
<rscale>  2 0.23004700E+03</rscale>
<asrwt>0</asrwt>
<pdfrwt beam="1">  1       21 0.15005741E-01 0.23004700E+03</pdfrwt>
<pdfrwt beam="2">  1       21 0.94609495E-01 0.23004700E+03</pdfrwt>
<totfact> 0.35958029E+04</totfact>
</mgrwt>
</event>
<event>
 4    1  0.3948468E+000  0.2036705E+03  0.7546771E-02  0.1146679E+00
         21   -1    0    0  503  502  0.00000000000E+00  0.00000000000E+00  0.18422211741E+03  0.18422211741E+03  0.00000000000E+00 0. -1.
         21   -1    0    0  501  503 -0.00000000000E+00 -0.00000000000E+00 -0.39963587024E+03  0.39963587024E+03  0.00000000000E+00 0. -1.
          6    1    1    2  501    0  0.65204406118E+02  0.85446227078E+02  0.85177781470E+02  0.22076441460E+03  0.17300000000E+03 0. -1.
         -6    1    1    2    0  502 -0.65204406118E+02 -0.85446227078E+02 -0.30059153430E+03  0.36309357305E+03  0.17300000000E+03 0. -1.
<mgrwt>
<rscale>  2 0.20367050E+03</rscale>
<asrwt>0</asrwt>
<pdfrwt beam="1">  1       21 0.28341865E-01 0.20367050E+03</pdfrwt>
<pdfrwt beam="2">  1       21 0.61482441E-01 0.20367050E+03</pdfrwt>
<totfact> 0.29080612E+04</totfact>
</mgrwt>
</event>
<event>
 4    1  0.3948468E+000  0.2566090E+03  0.7546771E-02  0.1109198E+00
         21   -1    0    0  501  502  0.00000000000E+00  0.00000000000E+00  0.15877874638E+04  0.15877874638E+04  0.00000000000E+00 0. -1.
         21   -1    0    0  502  503 -0.00000000000E+00 -0.00000000000E+00 -0.46654107515E+02  0.46654107515E+02  0.00000000000E+00 0.  1.
          6    1    1    2  501    0  0.12614887066E+03 -0.14144138854E+03  0.10429379721E+04  0.10740427448E+04  0.17300000000E+03 0. -1.
         -6    1    1    2    0  503 -0.12614887066E+03  0.14144138854E+03  0.49819538417E+03  0.56039882653E+03  0.17300000000E+03 0.  1.
<mgrwt>
<rscale>  2 0.25660905E+03</rscale>
<asrwt>0</asrwt>
<pdfrwt beam="1">  1       21 0.24427495E+00 0.25660905E+03</pdfrwt>
<pdfrwt beam="2">  1       21 0.71775562E-02 0.25660905E+03</pdfrwt>
<totfact> 0.98734668E+03</totfact>
</mgrwt>
</event>
<event>
 4    1  0.3948468E+000  0.1944564E+03  0.7546771E-02  0.1154502E+00
         21   -1    0    0  501  502  0.00000000000E+00  0.00000000000E+00  0.92635363438E+03  0.92635363438E+03  0.00000000000E+00 0. -1.
         21   -1    0    0  502  503 -0.00000000000E+00 -0.00000000000E+00 -0.47556892962E+02  0.47556892962E+02  0.00000000000E+00 0.  1.
          6    1    1    2  501    0 -0.87898558306E+02  0.12575931145E+02  0.62268366728E+03  0.65234060129E+03  0.17300000000E+03 0. -1.
         -6    1    1    2    0  503  0.87898558306E+02 -0.12575931145E+02  0.25611307414E+03  0.32156992606E+03  0.17300000000E+03 0.  1.
<mgrwt>
<rscale>  2 0.19445645E+03</rscale>
<asrwt>0</asrwt>
<pdfrwt beam="1">  1       21 0.14251593E+00 0.19445645E+03</pdfrwt>
<pdfrwt beam="2">  1       21 0.73164458E-02 0.19445645E+03</pdfrwt>
<totfact> 0.47834840E+04</totfact>
</mgrwt>
</event>
<event>
 4    1  0.3948468E+000  0.1860179E+03  0.7546771E-02  0.1162103E+00
         21   -1    0    0  503  502  0.00000000000E+00  0.00000000000E+00  0.11921658929E+03  0.11921658929E+03  0.00000000000E+00 0. -1.
         21   -1    0    0  501  503 -0.00000000000E+00 -0.00000000000E+00 -0.44072301631E+03  0.44072301631E+03  0.00000000000E+00 0.  1.
          6    1    1    2  501    0 -0.53483778447E+01  0.68154545303E+02 -0.32434340085E+03  0.37390010546E+03  0.17300000000E+03 0.  1.
         -6    1    1    2    0  502  0.53483778447E+01 -0.68154545303E+02  0.28369738255E+01  0.18603950014E+03  0.17300000000E+03 0. -1.
<mgrwt>
<rscale>  2 0.18601787E+03</rscale>
<asrwt>0</asrwt>
<pdfrwt beam="1">  1       21 0.18341014E-01 0.18601787E+03</pdfrwt>
<pdfrwt beam="2">  1       21 0.67803541E-01 0.18601787E+03</pdfrwt>
<totfact> 0.54060743E+04</totfact>
</mgrwt>
</event>
<event>
 4    1  0.3948468E+000  0.2041213E+03  0.7546771E-02  0.1146308E+00
         21   -1    0    0  501  502  0.00000000000E+00  0.00000000000E+00  0.38692844304E+03  0.38692844304E+03  0.00000000000E+00 0. -1.
         21   -1    0    0  502  503 -0.00000000000E+00 -0.00000000000E+00 -0.13578047387E+03  0.13578047387E+03  0.00000000000E+00 0. -1.
          6    1    1    2  501    0  0.56466970866E+02 -0.92455365051E+02  0.24446442411E+03  0.31847820644E+03  0.17300000000E+03 0. -1.
         -6    1    1    2    0  503 -0.56466970866E+02  0.92455365051E+02  0.66835450664E+01  0.20423071047E+03  0.17300000000E+03 0. -1.
<mgrwt>
<rscale>  2 0.20412132E+03</rscale>
<asrwt>0</asrwt>
<pdfrwt beam="1">  1       21 0.59527452E-01 0.20412132E+03</pdfrwt>
<pdfrwt beam="2">  1       21 0.20889304E-01 0.20412132E+03</pdfrwt>
<totfact> 0.55772556E+04</totfact>
</mgrwt>
</event>
<event>
 4    1  0.3948468E+000  0.2165324E+03  0.7546771E-02  0.1136495E+00
         21   -1    0    0  503  502  0.00000000000E+00  0.00000000000E+00  0.32289529414E+03  0.32289529414E+03  0.00000000000E+00 0.  1.
         21   -1    0    0  501  503 -0.00000000000E+00 -0.00000000000E+00 -0.15655605048E+03  0.15655605048E+03  0.00000000000E+00 0.  1.
          6    1    1    2  501    0 -0.91033847868E+01 -0.12990147550E+03  0.18621648721E+02  0.21733161471E+03  0.17300000000E+03 0.  1.
         -6    1    1    2    0  502  0.91033847868E+01  0.12990147550E+03  0.14771759494E+03  0.26211972991E+03  0.17300000000E+03 0.  1.
<mgrwt>
<rscale>  2 0.21653236E+03</rscale>
<asrwt>0</asrwt>
<pdfrwt beam="1">  1       21 0.49676199E-01 0.21653236E+03</pdfrwt>
<pdfrwt beam="2">  1       21 0.24085546E-01 0.21653236E+03</pdfrwt>
<totfact> 0.62132524E+04</totfact>
</mgrwt>
</event>
<event>
 4    1  0.3948468E+000  0.2403376E+03  0.7546771E-02  0.1119568E+00
         21   -1    0    0  503  502  0.00000000000E+00  0.00000000000E+00  0.37676090806E+03  0.37676090806E+03  0.00000000000E+00 0.  1.
         21   -1    0    0  501  503 -0.00000000000E+00 -0.00000000000E+00 -0.21717899986E+03  0.21717899986E+03  0.00000000000E+00 0.  1.
          6    1    1    2  501    0  0.97970652774E+02  0.13503679297E+03 -0.81251324411E+02  0.25370053603E+03  0.17300000000E+03 0.  1.
         -6    1    1    2    0  502 -0.97970652774E+02 -0.13503679297E+03  0.24083323261E+03  0.34023937190E+03  0.17300000000E+03 0.  1.
<mgrwt>
<rscale>  2 0.24033765E+03</rscale>
<asrwt>0</asrwt>
<pdfrwt beam="1">  1       21 0.57963216E-01 0.24033765E+03</pdfrwt>
<pdfrwt beam="2">  1       21 0.33412154E-01 0.24033765E+03</pdfrwt>
<totfact> 0.23457659E+04</totfact>
</mgrwt>
</event>
<event>
 4    1  0.3948468E+000  0.1773510E+03  0.7546771E-02  0.1170392E+00
         21   -1    0    0  503  502  0.00000000000E+00  0.00000000000E+00  0.50664094678E+03  0.50664094678E+03  0.00000000000E+00 0. -1.
         21   -1    0    0  501  503 -0.00000000000E+00 -0.00000000000E+00 -0.83068033756E+02  0.83068033756E+02  0.00000000000E+00 0. -1.
          6    1    1    2  501    0 -0.39042936483E+02 -0.15373362268E+00  0.63584444345E+02  0.18840476662E+03  0.17300000000E+03 0. -1.
         -6    1    1    2    0  502  0.39042936483E+02  0.15373362268E+00  0.35998846868E+03  0.40130421392E+03  0.17300000000E+03 0. -1.
<mgrwt>
<rscale>  2 0.17735099E+03</rscale>
<asrwt>0</asrwt>
<pdfrwt beam="1">  1       21 0.77944759E-01 0.17735099E+03</pdfrwt>
<pdfrwt beam="2">  1       21 0.12779698E-01 0.17735099E+03</pdfrwt>
<totfact> 0.76953367E+04</totfact>
</mgrwt>
</event>
<event>
 4    1  0.3948468E+000  0.1809619E+03  0.7546771E-02  0.1166875E+00
         21   -1    0    0  503  502  0.00000000000E+00  0.00000000000E+00  0.15967329109E+04  0.15967329109E+04  0.00000000000E+00 0. -1.
         21   -1    0    0  501  503 -0.00000000000E+00 -0.00000000000E+00 -0.53740325173E+02  0.53740325173E+02  0.00000000000E+00 0. -1.
          6    1    1    2  501    0 -0.29575559896E+02 -0.44085084494E+02  0.12255868983E+03  0.21855855250E+03  0.17300000000E+03 0. -1.
         -6    1    1    2    0  502  0.29575559896E+02  0.44085084494E+02  0.14204338959E+04  0.14319146835E+04  0.17300000000E+03 0. -1.
<mgrwt>
<rscale>  2 0.18096190E+03</rscale>
<asrwt>0</asrwt>
<pdfrwt beam="1">  1       21 0.24565118E+00 0.18096190E+03</pdfrwt>
<pdfrwt beam="2">  1       21 0.82677436E-02 0.18096190E+03</pdfrwt>
<totfact> 0.80860231E+03</totfact>
</mgrwt>
</event>
<event>
 4    1  0.3948468E+000  0.2298239E+03  0.7546771E-02  0.1126764E+00
         21   -1    0    0  503  502  0.00000000000E+00  0.00000000000E+00  0.27877744578E+03  0.27877744578E+03  0.00000000000E+00 0. -1.
         21   -1    0    0  501  503 -0.00000000000E+00 -0.00000000000E+00 -0.55422120099E+03  0.55422120099E+03  0.00000000000E+00 0. -1.
          6    1    1    2  501    0  0.10342874951E+03  0.11041975211E+03 -0.47561013118E+03  0.52822724727E+03  0.17300000000E+03 0. -1.
         -6    1    1    2    0  502 -0.10342874951E+03 -0.11041975211E+03  0.20016637597E+03  0.30477139950E+03  0.17300000000E+03 0. -1.
<mgrwt>
<rscale>  2 0.22982391E+03</rscale>
<asrwt>0</asrwt>
<pdfrwt beam="1">  1       21 0.42888838E-01 0.22982391E+03</pdfrwt>
<pdfrwt beam="2">  1       21 0.85264801E-01 0.22982391E+03</pdfrwt>
<totfact> 0.60566087E+03</totfact>
</mgrwt>
</event>
<event>
 4    1  0.3948468E+000  0.1802202E+03  0.7546771E-02  0.1167590E+00
         21   -1    0    0  503  502  0.00000000000E+00  0.00000000000E+00  0.33164952035E+03  0.33164952035E+03  0.00000000000E+00 0.  1.
         21   -1    0    0  501  503 -0.00000000000E+00 -0.00000000000E+00 -0.28097953034E+03  0.28097953034E+03  0.00000000000E+00 0.  1.
          6    1    1    2  501    0 -0.46741899509E+02 -0.19118376602E+02 -0.22190083627E+03  0.28586587525E+03  0.17300000000E+03 0.  1.
         -6    1    1    2    0  502  0.46741899509E+02  0.19118376602E+02  0.27257082628E+03  0.32676317545E+03  0.17300000000E+03 0.  1.
<mgrwt>
<rscale>  2 0.18022019E+03</rscale>
<asrwt>0</asrwt>
<pdfrwt beam="1">  1       21 0.51023003E-01 0.18022019E+03</pdfrwt>
<pdfrwt beam="2">  1       21 0.43227620E-01 0.18022019E+03</pdfrwt>
<totfact> 0.18934597E+04</totfact>
</mgrwt>
</event>
<event>
 4    1  0.3948468E+000  0.2266843E+03  0.7546771E-02  0.1128996E+00
         21   -1    0    0  501  502  0.00000000000E+00  0.00000000000E+00  0.95209909990E+02  0.95209909990E+02  0.00000000000E+00 0. -1.
         21   -1    0    0  502  503 -0.00000000000E+00 -0.00000000000E+00 -0.54243371725E+03  0.54243371725E+03  0.00000000000E+00 0. -1.
          6    1    1    2  501    0 -0.47955306545E+00  0.14648047888E+03 -0.20102072794E+03  0.30297705148E+03  0.17300000000E+03 0. -1.
         -6    1    1    2    0  503  0.47955306545E+00 -0.14648047888E+03 -0.24620307931E+03  0.33466657575E+03  0.17300000000E+03 0. -1.
<mgrwt>
<rscale>  2 0.22668428E+03</rscale>
<asrwt>0</asrwt>
<pdfrwt beam="1">  1       21 0.14647678E-01 0.22668428E+03</pdfrwt>
<pdfrwt beam="2">  1       21 0.83451342E-01 0.22668428E+03</pdfrwt>
<totfact> 0.50358172E+04</totfact>
</mgrwt>
</event>
<event>
 4    1  0.3948468E+000  0.2161360E+03  0.7546771E-02  0.1136797E+00
         21   -1    0    0  503  502  0.00000000000E+00  0.00000000000E+00  0.70491953617E+03  0.70491953617E+03  0.00000000000E+00 0.  1.
         21   -1    0    0  501  503 -0.00000000000E+00 -0.00000000000E+00 -0.67438472312E+02  0.67438472312E+02  0.00000000000E+00 0.  1.
          6    1    1    2  501    0 -0.92129305709E+02 -0.91093073917E+02  0.36958136925E+03  0.42814150182E+03  0.17300000000E+03 0.  1.
         -6    1    1    2    0  502  0.92129305709E+02  0.91093073917E+02  0.26789969461E+03  0.34421650666E+03  0.17300000000E+03 0.  1.
<mgrwt>
<rscale>  2 0.21613597E+03</rscale>
<asrwt>0</asrwt>
<pdfrwt beam="1">  1       21 0.10844915E+00 0.21613597E+03</pdfrwt>
<pdfrwt beam="2">  1       21 0.10375150E-01 0.21613597E+03</pdfrwt>
<totfact> 0.50778689E+04</totfact>
</mgrwt>
</event>
<event>
 4    1  0.3948468E+000  0.1800143E+03  0.7546771E-02  0.1167789E+00
         21   -1    0    0  503  502  0.00000000000E+00  0.00000000000E+00  0.17164606553E+04  0.17164606553E+04  0.00000000000E+00 0. -1.
         21   -1    0    0  501  503 -0.00000000000E+00 -0.00000000000E+00 -0.33374965732E+03  0.33374965732E+03  0.00000000000E+00 0. -1.
          6    1    1    2  501    0 -0.15680131717E+02 -0.47226033414E+02 -0.30433429923E+03  0.35358808019E+03  0.17300000000E+03 0. -1.
         -6    1    1    2    0  502  0.15680131717E+02  0.47226033414E+02  0.16870452972E+04  0.16966222325E+04  0.17300000000E+03 0. -1.
<mgrwt>
<rscale>  2 0.18001435E+03</rscale>
<asrwt>0</asrwt>
<pdfrwt beam="1">  1       21 0.26407087E+00 0.18001435E+03</pdfrwt>
<pdfrwt beam="2">  1       21 0.51346102E-01 0.18001435E+03</pdfrwt>
<totfact> 0.20222761E+02</totfact>
</mgrwt>
</event>
<event>
 4    1  0.3948468E+000  0.2504383E+03  0.7546771E-02  0.1113028E+00
         21   -1    0    0  503  502  0.00000000000E+00  0.00000000000E+00  0.16469489418E+03  0.16469489418E+03  0.00000000000E+00 0. -1.
         21   -1    0    0  501  503 -0.00000000000E+00 -0.00000000000E+00 -0.38166088242E+03  0.38166088242E+03  0.00000000000E+00 0.  1.
          6    1    1    2  501    0  0.18002903717E+03  0.19490199877E+02 -0.12129570076E+03  0.27826600428E+03  0.17300000000E+03 0. -1.
         -6    1    1    2    0  502 -0.18002903717E+03 -0.19490199877E+02 -0.95670287481E+02  0.26808977232E+03  0.17300000000E+03 0.  1.
<mgrwt>
<rscale>  2 0.25043826E+03</rscale>
<asrwt>0</asrwt>
<pdfrwt beam="1">  1       21 0.25337676E-01 0.25043826E+03</pdfrwt>
<pdfrwt beam="2">  1       21 0.58717059E-01 0.25043826E+03</pdfrwt>
<totfact> 0.38988286E+04</totfact>
</mgrwt>
</event>
<event>
 4    1  0.3948468E+000  0.1835167E+03  0.7546771E-02  0.1164442E+00
         21   -1    0    0  503  502  0.00000000000E+00  0.00000000000E+00  0.66160325513E+02  0.66160325513E+02  0.00000000000E+00 0.  1.
         21   -1    0    0  501  503 -0.00000000000E+00 -0.00000000000E+00 -0.10897911485E+04  0.10897911485E+04  0.00000000000E+00 0.  1.
          6    1    1    2  501    0 -0.35266185102E+02  0.50056731372E+02 -0.93373752142E+03  0.95160082970E+03  0.17300000000E+03 0.  1.
         -6    1    1    2    0  502  0.35266185102E+02 -0.50056731372E+02 -0.89893301570E+02  0.20435064432E+03  0.17300000000E+03 0.  1.
<mgrwt>
<rscale>  2 0.18351670E+03</rscale>
<asrwt>0</asrwt>
<pdfrwt beam="1">  1       21 0.10178512E-01 0.18351670E+03</pdfrwt>
<pdfrwt beam="2">  1       21 0.16766017E+00 0.18351670E+03</pdfrwt>
<totfact> 0.17547328E+04</totfact>
</mgrwt>
</event>
<event>
 4    1  0.3948468E+000  0.2399024E+03  0.7546771E-02  0.1119858E+00
         21   -1    0    0  503  502  0.00000000000E+00  0.00000000000E+00  0.69624364555E+02  0.69624364555E+02  0.00000000000E+00 0.  1.
         21   -1    0    0  501  503 -0.00000000000E+00 -0.00000000000E+00 -0.17841702684E+04  0.17841702684E+04  0.00000000000E+00 0. -1.
          6    1    1    2  501    0  0.16213848741E+03  0.36541251175E+02 -0.15363099227E+04  0.15549280789E+04  0.17300000000E+03 0. -1.
         -6    1    1    2    0  502 -0.16213848741E+03 -0.36541251175E+02 -0.17823598120E+03  0.29886655405E+03  0.17300000000E+03 0.  1.
<mgrwt>
<rscale>  2 0.23990238E+03</rscale>
<asrwt>0</asrwt>
<pdfrwt beam="1">  1       21 0.10711439E-01 0.23990238E+03</pdfrwt>
<pdfrwt beam="2">  1       21 0.27448778E+00 0.23990238E+03</pdfrwt>
<totfact> 0.32753162E+03</totfact>
</mgrwt>
</event>
<event>
 4    1  0.3948468E+000  0.1838185E+03  0.7546771E-02  0.1164158E+00
         21   -1    0    0  503  502  0.00000000000E+00  0.00000000000E+00  0.19928033964E+03  0.19928033964E+03  0.00000000000E+00 0. -1.
         21   -1    0    0  501  503 -0.00000000000E+00 -0.00000000000E+00 -0.53200898337E+03  0.53200898337E+03  0.00000000000E+00 0. -1.
          6    1    1    2  501    0 -0.44287104401E+02  0.43576304967E+02 -0.46816860510E+03  0.50296230949E+03  0.17300000000E+03 0. -1.
         -6    1    1    2    0  502  0.44287104401E+02 -0.43576304967E+02  0.13543996136E+03  0.22832701352E+03  0.17300000000E+03 0. -1.
<mgrwt>
<rscale>  2 0.18381850E+03</rscale>
<asrwt>0</asrwt>
<pdfrwt beam="1">  1       21 0.30658514E-01 0.18381850E+03</pdfrwt>
<pdfrwt beam="2">  1       21 0.81847536E-01 0.18381850E+03</pdfrwt>
<totfact> 0.13417490E+04</totfact>
</mgrwt>
</event>
<event>
 4    1  0.3948468E+000  0.2045222E+03  0.7546771E-02  0.1145979E+00
         21   -1    0    0  501  502  0.00000000000E+00  0.00000000000E+00  0.28205905736E+02  0.28205905736E+02  0.00000000000E+00 0.  1.
         21   -1    0    0  502  503 -0.00000000000E+00 -0.00000000000E+00 -0.18073745325E+04  0.18073745325E+04  0.00000000000E+00 0. -1.
          6    1    1    2  501    0  0.54037287251E+02  0.94764359019E+02 -0.50076859498E+03  0.54092374497E+03  0.17300000000E+03 0.  1.
         -6    1    1    2    0  503 -0.54037287251E+02 -0.94764359019E+02 -0.12784000318E+04  0.12946566933E+04  0.17300000000E+03 0. -1.
<mgrwt>
<rscale>  2 0.20452216E+03</rscale>
<asrwt>0</asrwt>
<pdfrwt beam="1">  1       21 0.43393702E-02 0.20452216E+03</pdfrwt>
<pdfrwt beam="2">  1       21 0.27805761E+00 0.20452216E+03</pdfrwt>
<totfact> 0.15430169E+04</totfact>
</mgrwt>
</event>
<event>
 4    1  0.3948468E+000  0.4233532E+03  0.7546771E-02  0.1035980E+00
         21   -1    0    0  503  502  0.00000000000E+00  0.00000000000E+00  0.14115084134E+04  0.14115084134E+04  0.00000000000E+00 0. -1.
         21   -1    0    0  501  503 -0.00000000000E+00 -0.00000000000E+00 -0.46539001916E+03  0.46539001916E+03  0.00000000000E+00 0. -1.
          6    1    1    2  501    0 -0.38322224925E+03  0.49392813095E+02 -0.32719194509E+03  0.53505374612E+03  0.17300000000E+03 0. -1.
         -6    1    1    2    0  502  0.38322224925E+03 -0.49392813095E+02  0.12733103394E+04  0.13418446865E+04  0.17300000000E+03 0. -1.
<mgrwt>
<rscale>  2 0.42335321E+03</rscale>
<asrwt>0</asrwt>
<pdfrwt beam="1">  1       21 0.21715514E+00 0.42335321E+03</pdfrwt>
<pdfrwt beam="2">  1       21 0.71598465E-01 0.42335321E+03</pdfrwt>
<totfact> 0.14989081E+02</totfact>
</mgrwt>
</event>
<event>
 4    1  0.3948468E+000  0.2120678E+03  0.7546771E-02  0.1139939E+00
         21   -1    0    0  503  502  0.00000000000E+00  0.00000000000E+00  0.63414028667E+03  0.63414028667E+03  0.00000000000E+00 0.  1.
         21   -1    0    0  501  503 -0.00000000000E+00 -0.00000000000E+00 -0.84887210611E+02  0.84887210611E+02  0.00000000000E+00 0.  1.
          6    1    1    2  501    0  0.12214822737E+03  0.11115855738E+02  0.12879182290E+03  0.24811304953E+03  0.17300000000E+03 0.  1.
         -6    1    1    2    0  502 -0.12214822737E+03 -0.11115855738E+02  0.42046125315E+03  0.47091444775E+03  0.17300000000E+03 0.  1.
<mgrwt>
<rscale>  2 0.21206780E+03</rscale>
<asrwt>0</asrwt>
<pdfrwt beam="1">  1       21 0.97560041E-01 0.21206780E+03</pdfrwt>
<pdfrwt beam="2">  1       21 0.13059571E-01 0.21206780E+03</pdfrwt>
<totfact> 0.43433340E+04</totfact>
</mgrwt>
</event>
<event>
 4    1  0.3948468E+000  0.1965473E+03  0.7546771E-02  0.1152685E+00
         21   -1    0    0  501  502  0.00000000000E+00  0.00000000000E+00  0.45015107787E+03  0.45015107787E+03  0.00000000000E+00 0.  1.
         21   -1    0    0  502  503 -0.00000000000E+00 -0.00000000000E+00 -0.11812020329E+03  0.11812020329E+03  0.00000000000E+00 0.  1.
          6    1    1    2  501    0 -0.71366272804E+02  0.60072346611E+02  0.31460324657E+03  0.37095287366E+03  0.17300000000E+03 0.  1.
         -6    1    1    2    0  503  0.71366272804E+02 -0.60072346611E+02  0.17427628004E+02  0.19731840750E+03  0.17300000000E+03 0.  1.
<mgrwt>
<rscale>  2 0.19654728E+03</rscale>
<asrwt>0</asrwt>
<pdfrwt beam="1">  1       21 0.69254011E-01 0.19654728E+03</pdfrwt>
<pdfrwt beam="2">  1       21 0.18172339E-01 0.19654728E+03</pdfrwt>
<totfact> 0.52235066E+04</totfact>
</mgrwt>
</event>
<event>
 4    1  0.3948468E+000  0.1873906E+03  0.7546771E-02  0.1160836E+00
         21   -1    0    0  503  502  0.00000000000E+00  0.00000000000E+00  0.55258018707E+02  0.55258018707E+02  0.00000000000E+00 0. -1.
         21   -1    0    0  501  503 -0.00000000000E+00 -0.00000000000E+00 -0.17139600449E+04  0.17139600449E+04  0.00000000000E+00 0. -1.
          6    1    1    2  501    0  0.29726606137E+02  0.65594078742E+02 -0.15310607217E+04  0.15424857172E+04  0.17300000000E+03 0. -1.
         -6    1    1    2    0  502 -0.29726606137E+02 -0.65594078742E+02 -0.12764130445E+03  0.22673234634E+03  0.17300000000E+03 0. -1.
<mgrwt>
<rscale>  2 0.18739065E+03</rscale>
<asrwt>0</asrwt>
<pdfrwt beam="1">  1       21 0.85012335E-02 0.18739065E+03</pdfrwt>
<pdfrwt beam="2">  1       21 0.26368616E+00 0.18739065E+03</pdfrwt>
<totfact> 0.60032324E+03</totfact>
</mgrwt>
</event>
<event>
 4    1  0.3948468E+000  0.2511751E+03  0.7546771E-02  0.1112564E+00
         21   -1    0    0  501  502  0.00000000000E+00  0.00000000000E+00  0.38689779728E+03  0.38689779728E+03  0.00000000000E+00 0. -1.
         21   -1    0    0  502  503 -0.00000000000E+00 -0.00000000000E+00 -0.20399037427E+03  0.20399037427E+03  0.00000000000E+00 0.  1.
          6    1    1    2  501    0  0.18700903885E+01  0.18208903585E+03  0.22378869879E+03  0.33640793082E+03  0.17300000000E+03 0. -1.
         -6    1    1    2    0  503 -0.18700903885E+01 -0.18208903585E+03 -0.40881275782E+02  0.25448024073E+03  0.17300000000E+03 0.  1.
<mgrwt>
<rscale>  2 0.25117507E+03</rscale>
<asrwt>0</asrwt>
<pdfrwt beam="1">  1       21 0.59522738E-01 0.25117507E+03</pdfrwt>
<pdfrwt beam="2">  1       21 0.31383134E-01 0.25117507E+03</pdfrwt>
<totfact> 0.24949422E+04</totfact>
</mgrwt>
</event>
<event>
 4    1  0.3948468E+000  0.2073397E+03  0.7546771E-02  0.1143690E+00
         21   -1    0    0  501  502  0.00000000000E+00  0.00000000000E+00  0.35411135194E+02  0.35411135194E+02  0.00000000000E+00 0.  1.
         21   -1    0    0  502  503 -0.00000000000E+00 -0.00000000000E+00 -0.13661282569E+04  0.13661282569E+04  0.00000000000E+00 0. -1.
          6    1    1    2  501    0 -0.10500509281E+03  0.45107358797E+02 -0.43152366789E+03  0.47875089481E+03  0.17300000000E+03 0.  1.
         -6    1    1    2    0  503  0.10500509281E+03 -0.45107358797E+02 -0.89919345383E+03  0.92278849730E+03  0.17300000000E+03 0. -1.
<mgrwt>
<rscale>  2 0.20733968E+03</rscale>
<asrwt>0</asrwt>
<pdfrwt beam="1">  1       21 0.54478666E-02 0.20733968E+03</pdfrwt>
<pdfrwt beam="2">  1       21 0.21017359E+00 0.20733968E+03</pdfrwt>
<totfact> 0.26622334E+04</totfact>
</mgrwt>
</event>
<event>
 4    1  0.3948468E+000  0.1870795E+03  0.7546771E-02  0.1161122E+00
         21   -1    0    0  501  502  0.00000000000E+00  0.00000000000E+00  0.11962496640E+03  0.11962496640E+03  0.00000000000E+00 0.  1.
         21   -1    0    0  502  503 -0.00000000000E+00 -0.00000000000E+00 -0.43557268751E+03  0.43557268751E+03  0.00000000000E+00 0.  1.
          6    1    1    2  501    0 -0.64418508781E+02  0.30331571424E+02  0.10852287539E+01  0.18708267215E+03  0.17300000000E+03 0.  1.
         -6    1    1    2    0  503  0.64418508781E+02 -0.30331571424E+02 -0.31703294986E+03  0.36811498176E+03  0.17300000000E+03 0.  1.
<mgrwt>
<rscale>  2 0.18707952E+03</rscale>
<asrwt>0</asrwt>
<pdfrwt beam="1">  1       21 0.18403841E-01 0.18707952E+03</pdfrwt>
<pdfrwt beam="2">  1       21 0.67011183E-01 0.18707952E+03</pdfrwt>
<totfact> 0.55092526E+04</totfact>
</mgrwt>
</event>
<event>
 4    1  0.3948468E+000  0.1995418E+03  0.7546771E-02  0.1150126E+00
         21   -1    0    0  501  502  0.00000000000E+00  0.00000000000E+00  0.11226503179E+03  0.11226503179E+03  0.00000000000E+00 0. -1.
         21   -1    0    0  502  503 -0.00000000000E+00 -0.00000000000E+00 -0.36434597657E+03  0.36434597657E+03  0.00000000000E+00 0. -1.
          6    1    1    2  501    0 -0.30878720879E+02  0.94522228824E+02 -0.87203728171E+02  0.21776463751E+03  0.17300000000E+03 0. -1.
         -6    1    1    2    0  503  0.30878720879E+02 -0.94522228824E+02 -0.16487721661E+03  0.25884637085E+03  0.17300000000E+03 0. -1.
<mgrwt>
<rscale>  2 0.19954184E+03</rscale>
<asrwt>0</asrwt>
<pdfrwt beam="1">  1       21 0.17271543E-01 0.19954184E+03</pdfrwt>
<pdfrwt beam="2">  1       21 0.56053228E-01 0.19954184E+03</pdfrwt>
<totfact> 0.90526650E+04</totfact>
</mgrwt>
</event>
<event>
 4    1  0.3948468E+000  0.2551364E+03  0.7546771E-02  0.1110101E+00
         21   -1    0    0  501  502  0.00000000000E+00  0.00000000000E+00  0.34119910023E+03  0.34119910023E+03  0.00000000000E+00 0. -1.
         21   -1    0    0  502  503 -0.00000000000E+00 -0.00000000000E+00 -0.21582744209E+03  0.21582744209E+03  0.00000000000E+00 0.  1.
          6    1    1    2  501    0  0.13824308635E+03  0.12670611311E+03  0.15756226340E+03  0.29986739881E+03  0.17300000000E+03 0.  1.
         -6    1    1    2    0  503 -0.13824308635E+03 -0.12670611311E+03 -0.32190605262E+02  0.25715914351E+03  0.17300000000E+03 0.  1.
<mgrwt>
<rscale>  2 0.25513641E+03</rscale>
<asrwt>0</asrwt>
<pdfrwt beam="1">  1       21 0.52492169E-01 0.25513641E+03</pdfrwt>
<pdfrwt beam="2">  1       21 0.33204222E-01 0.25513641E+03</pdfrwt>
<totfact> 0.29136597E+04</totfact>
</mgrwt>
</event>
<event>
 4    1  0.3948468E+000  0.1919766E+03  0.7546771E-02  0.1156691E+00
         21   -1    0    0  503  502  0.00000000000E+00  0.00000000000E+00  0.36782378150E+03  0.36782378150E+03  0.00000000000E+00 0. -1.
         21   -1    0    0  501  503 -0.00000000000E+00 -0.00000000000E+00 -0.25318153116E+03  0.25318153116E+03  0.00000000000E+00 0. -1.
          6    1    1    2  501    0  0.67051994114E+02  0.49295485307E+02 -0.18404281792E+03  0.26594505751E+03  0.17300000000E+03 0. -1.
         -6    1    1    2    0  502 -0.67051994114E+02 -0.49295485307E+02  0.29868506826E+03  0.35506025515E+03  0.17300000000E+03 0. -1.
<mgrwt>
<rscale>  2 0.19197660E+03</rscale>
<asrwt>0</asrwt>
<pdfrwt beam="1">  1       21 0.56588274E-01 0.19197660E+03</pdfrwt>
<pdfrwt beam="2">  1       21 0.38951005E-01 0.19197660E+03</pdfrwt>
<totfact> 0.18670074E+04</totfact>
</mgrwt>
</event>
<event>
 4    1  0.3948468E+000  0.2300683E+03  0.7546771E-02  0.1126592E+00
         21   -1    0    0  503  502  0.00000000000E+00  0.00000000000E+00  0.30389631839E+03  0.30389631839E+03  0.00000000000E+00 0.  1.
         21   -1    0    0  501  503 -0.00000000000E+00 -0.00000000000E+00 -0.30701666027E+03  0.30701666027E+03  0.00000000000E+00 0.  1.
          6    1    1    2  501    0  0.53109966518E+02  0.14206255689E+03  0.19936480843E+03  0.30443023085E+03  0.17300000000E+03 0.  1.
         -6    1    1    2    0  502 -0.53109966518E+02 -0.14206255689E+03 -0.20248515032E+03  0.30648274782E+03  0.17300000000E+03 0.  1.
<mgrwt>
<rscale>  2 0.23006833E+03</rscale>
<asrwt>0</asrwt>
<pdfrwt beam="1">  1       21 0.46753280E-01 0.23006833E+03</pdfrwt>
<pdfrwt beam="2">  1       21 0.47233332E-01 0.23006833E+03</pdfrwt>
<totfact> 0.18380422E+04</totfact>
</mgrwt>
</event>
<event>
 4    1  0.3948468E+000  0.2177357E+03  0.7546771E-02  0.1135582E+00
         21   -1    0    0  503  502  0.00000000000E+00  0.00000000000E+00  0.97213378871E+03  0.97213378871E+03  0.00000000000E+00 0.  1.
         21   -1    0    0  501  503 -0.00000000000E+00 -0.00000000000E+00 -0.51611174596E+02  0.51611174596E+02  0.00000000000E+00 0. -1.
          6    1    1    2  501    0  0.55842131713E+02  0.11983951469E+03  0.34011654353E+03  0.40384169688E+03  0.17300000000E+03 0.  1.
         -6    1    1    2    0  502 -0.55842131713E+02 -0.11983951469E+03  0.58040607059E+03  0.61990326643E+03  0.17300000000E+03 0.  1.
<mgrwt>
<rscale>  2 0.21773574E+03</rscale>
<asrwt>0</asrwt>
<pdfrwt beam="1">  1       21 0.14955903E+00 0.21773574E+03</pdfrwt>
<pdfrwt beam="2">  1       21 0.79401814E-02 0.21773574E+03</pdfrwt>
<totfact> 0.36085313E+04</totfact>
</mgrwt>
</event>
<event>
 4    1  0.3948468E+000  0.2452494E+03  0.7546771E-02  0.1116344E+00
         21   -1    0    0  503  502  0.00000000000E+00  0.00000000000E+00  0.24718411482E+03  0.24718411482E+03  0.00000000000E+00 0. -1.
         21   -1    0    0  501  503 -0.00000000000E+00 -0.00000000000E+00 -0.36050092644E+03  0.36050092644E+03  0.00000000000E+00 0.  1.
          6    1    1    2  501    0 -0.13038184756E+03 -0.11497327546E+03 -0.22988139060E+03  0.33614391856E+03  0.17300000000E+03 0.  1.
         -6    1    1    2    0  502  0.13038184756E+03  0.11497327546E+03  0.11656457898E+03  0.27154112270E+03  0.17300000000E+03 0. -1.
<mgrwt>
<rscale>  2 0.24524942E+03</rscale>
<asrwt>0</asrwt>
<pdfrwt beam="1">  1       21 0.38028326E-01 0.24524942E+03</pdfrwt>
<pdfrwt beam="2">  1       21 0.55461681E-01 0.24524942E+03</pdfrwt>
<totfact> 0.19851037E+04</totfact>
</mgrwt>
</event>
<event>
 4    1  0.3948468E+000  0.2598763E+03  0.7546771E-02  0.1107218E+00
         21   -1    0    0  501  502  0.00000000000E+00  0.00000000000E+00  0.11882664968E+03  0.11882664968E+03  0.00000000000E+00 0.  1.
         21   -1    0    0  502  503 -0.00000000000E+00 -0.00000000000E+00 -0.68253944187E+03  0.68253944187E+03  0.00000000000E+00 0.  1.
          6    1    1    2  501    0  0.19062349072E+03  0.35627975745E+02 -0.11797056852E+03  0.28539923424E+03  0.17300000000E+03 0.  1.
         -6    1    1    2    0  503 -0.19062349072E+03 -0.35627975745E+02 -0.44574222368E+03  0.51596685731E+03  0.17300000000E+03 0.  1.
<mgrwt>
<rscale>  2 0.25987625E+03</rscale>
<asrwt>0</asrwt>
<pdfrwt beam="1">  1       21 0.18281024E-01 0.25987625E+03</pdfrwt>
<pdfrwt beam="2">  1       21 0.10500607E+00 0.25987625E+03</pdfrwt>
<totfact> 0.19194007E+04</totfact>
</mgrwt>
</event>
<event>
 4    1  0.3948468E+000  0.1867276E+03  0.7546771E-02  0.1161446E+00
         21   -1    0    0  503  502  0.00000000000E+00  0.00000000000E+00  0.10275235049E+04  0.10275235049E+04  0.00000000000E+00 0. -1.
         21   -1    0    0  501  503 -0.00000000000E+00 -0.00000000000E+00 -0.32462230454E+03  0.32462230454E+03  0.00000000000E+00 0. -1.
          6    1    1    2  501    0 -0.24672814177E+02  0.65798526814E+02 -0.28831178981E+03  0.34349800878E+03  0.17300000000E+03 0. -1.
         -6    1    1    2    0  502  0.24672814177E+02 -0.65798526814E+02  0.99121299013E+03  0.10086478006E+04  0.17300000000E+03 0. -1.
<mgrwt>
<rscale>  2 0.18672759E+03</rscale>
<asrwt>0</asrwt>
<pdfrwt beam="1">  1       21 0.15808054E+00 0.18672759E+03</pdfrwt>
<pdfrwt beam="2">  1       21 0.49941894E-01 0.18672759E+03</pdfrwt>
<totfact> 0.99950471E+02</totfact>
</mgrwt>
</event>
<event>
 4    1  0.3948468E+000  0.2338625E+03  0.7546771E-02  0.1123950E+00
         21   -1    0    0  503  502  0.00000000000E+00  0.00000000000E+00  0.89408113166E+02  0.89408113166E+02  0.00000000000E+00 0.  1.
         21   -1    0    0  501  503 -0.00000000000E+00 -0.00000000000E+00 -0.10633067573E+04  0.10633067573E+04  0.00000000000E+00 0.  1.
          6    1    1    2  501    0  0.33829684976E+02 -0.15368228286E+03 -0.86256075395E+03  0.89370170969E+03  0.17300000000E+03 0.  1.
         -6    1    1    2    0  502 -0.33829684976E+02  0.15368228286E+03 -0.11133789014E+03  0.25901316073E+03  0.17300000000E+03 0.  1.
<mgrwt>
<rscale>  2 0.23386255E+03</rscale>
<asrwt>0</asrwt>
<pdfrwt beam="1">  1       21 0.13755094E-01 0.23386255E+03</pdfrwt>
<pdfrwt beam="2">  1       21 0.16358566E+00 0.23386255E+03</pdfrwt>
<totfact> 0.10562350E+04</totfact>
</mgrwt>
</event>
<event>
 4    1  0.3948468E+000  0.2159299E+03  0.7546771E-02  0.1136954E+00
         21   -1    0    0  503  502  0.00000000000E+00  0.00000000000E+00  0.10114386508E+03  0.10114386508E+03  0.00000000000E+00 0. -1.
         21   -1    0    0  501  503 -0.00000000000E+00 -0.00000000000E+00 -0.47479833810E+03  0.47479833810E+03  0.00000000000E+00 0. -1.
          6    1    1    2  501    0 -0.61697522514E+01  0.12906835069E+03 -0.13770715022E+03  0.25610342484E+03  0.17300000000E+03 0. -1.
         -6    1    1    2    0  502  0.61697522514E+01 -0.12906835069E+03 -0.23594732280E+03  0.31983877834E+03  0.17300000000E+03 0. -1.
<mgrwt>
<rscale>  2 0.21592986E+03</rscale>
<asrwt>0</asrwt>
<pdfrwt beam="1">  1       21 0.15560595E-01 0.21592986E+03</pdfrwt>
<pdfrwt beam="2">  1       21 0.73045898E-01 0.21592986E+03</pdfrwt>
<totfact> 0.61203479E+04</totfact>
</mgrwt>
</event>
<event>
 4    1  0.3948468E+000  0.2246099E+03  0.7546771E-02  0.1130492E+00
         21   -1    0    0  501  502  0.00000000000E+00  0.00000000000E+00  0.72665892821E+03  0.72665892821E+03  0.00000000000E+00 0.  1.
         21   -1    0    0  502  503 -0.00000000000E+00 -0.00000000000E+00 -0.11866323225E+03  0.11866323225E+03  0.00000000000E+00 0.  1.
          6    1    1    2  501    0  0.10657722449E+03 -0.95717745178E+02  0.57625389579E+03  0.61848051217E+03  0.17300000000E+03 0.  1.
         -6    1    1    2    0  503 -0.10657722449E+03  0.95717745178E+02  0.31741800164E+02  0.22684164829E+03  0.17300000000E+03 0.  1.
<mgrwt>
<rscale>  2 0.22460987E+03</rscale>
<asrwt>0</asrwt>
<pdfrwt beam="1">  1       21 0.11179368E+00 0.22460987E+03</pdfrwt>
<pdfrwt beam="2">  1       21 0.18255882E-01 0.22460987E+03</pdfrwt>
<totfact> 0.16837264E+04</totfact>
</mgrwt>
</event>
<event>
 4    1  0.3948468E+000  0.1900555E+03  0.7546771E-02  0.1158411E+00
         21   -1    0    0  503  502  0.00000000000E+00  0.00000000000E+00  0.71325233981E+03  0.71325233981E+03  0.00000000000E+00 0. -1.
         21   -1    0    0  501  503 -0.00000000000E+00 -0.00000000000E+00 -0.66034260475E+02  0.66034260475E+02  0.00000000000E+00 0. -1.
          6    1    1    2  501    0 -0.31253770509E+02  0.72217001827E+02  0.51172364270E+03  0.54587744048E+03  0.17300000000E+03 0. -1.
         -6    1    1    2    0  502  0.31253770509E+02 -0.72217001827E+02  0.13549443664E+03  0.23340915981E+03  0.17300000000E+03 0. -1.
<mgrwt>
<rscale>  2 0.19005550E+03</rscale>
<asrwt>0</asrwt>
<pdfrwt beam="1">  1       21 0.10973112E+00 0.19005550E+03</pdfrwt>
<pdfrwt beam="2">  1       21 0.10159118E-01 0.19005550E+03</pdfrwt>
<totfact> 0.51912473E+04</totfact>
</mgrwt>
</event>
<event>
 4    1  0.3948468E+000  0.1753277E+03  0.7546771E-02  0.1172403E+00
         21   -1    0    0  503  502  0.00000000000E+00  0.00000000000E+00  0.13330824341E+03  0.13330824341E+03  0.00000000000E+00 0. -1.
         21   -1    0    0  501  503 -0.00000000000E+00 -0.00000000000E+00 -0.77606296586E+03  0.77606296586E+03  0.00000000000E+00 0. -1.
          6    1    1    2  501    0 -0.15580213446E+02  0.23834067527E+02 -0.70257356800E+03  0.72411975824E+03  0.17300000000E+03 0. -1.
         -6    1    1    2    0  502  0.15580213446E+02 -0.23834067527E+02  0.59818845544E+02  0.18525145103E+03  0.17300000000E+03 0. -1.
<mgrwt>
<rscale>  2 0.17532771E+03</rscale>
<asrwt>0</asrwt>
<pdfrwt beam="1">  1       21 0.20508961E-01 0.17532771E+03</pdfrwt>
<pdfrwt beam="2">  1       21 0.11939430E+00 0.17532771E+03</pdfrwt>
<totfact> 0.11923749E+04</totfact>
</mgrwt>
</event>
<event>
 4    1  0.3948468E+000  0.1731355E+03  0.7546771E-02  0.1174617E+00
         21   -1    0    0  501  502  0.00000000000E+00  0.00000000000E+00  0.16397551710E+04  0.16397551710E+04  0.00000000000E+00 0. -1.
         21   -1    0    0  502  503 -0.00000000000E+00 -0.00000000000E+00 -0.23555704475E+02  0.23555704475E+02  0.00000000000E+00 0. -1.
          6    1    1    2  501    0 -0.62782073752E+01 -0.27356972219E+01  0.12016553427E+04  0.12140640274E+04  0.17300000000E+03 0. -1.
         -6    1    1    2    0  503  0.62782073752E+01  0.27356972219E+01  0.41454412378E+03  0.44924684805E+03  0.17300000000E+03 0. -1.
<mgrwt>
<rscale>  2 0.17313550E+03</rscale>
<asrwt>0</asrwt>
<pdfrwt beam="1">  1       21 0.25226994E+00 0.17313550E+03</pdfrwt>
<pdfrwt beam="2">  1       21 0.36239558E-02 0.17313550E+03</pdfrwt>
<totfact> 0.30310817E+04</totfact>
</mgrwt>
</event>
<event>
 4    1  0.3948468E+000  0.2048974E+03  0.7546771E-02  0.1145672E+00
         21   -1    0    0  501  502  0.00000000000E+00  0.00000000000E+00  0.33734779423E+03  0.33734779423E+03  0.00000000000E+00 0.  1.
         21   -1    0    0  502  503 -0.00000000000E+00 -0.00000000000E+00 -0.21153364946E+03  0.21153364946E+03  0.00000000000E+00 0.  1.
          6    1    1    2  501    0  0.61714184187E+02 -0.90803664054E+02  0.23899396789E+03  0.31480321254E+03  0.17300000000E+03 0.  1.
         -6    1    1    2    0  503 -0.61714184187E+02  0.90803664054E+02 -0.11317982313E+03  0.23407823115E+03  0.17300000000E+03 0.  1.
<mgrwt>
<rscale>  2 0.20489740E+03</rscale>
<asrwt>0</asrwt>
<pdfrwt beam="1">  1       21 0.51899661E-01 0.20489740E+03</pdfrwt>
<pdfrwt beam="2">  1       21 0.32543638E-01 0.20489740E+03</pdfrwt>
<totfact> 0.31813716E+04</totfact>
</mgrwt>
</event>
<event>
 4    1  0.3948468E+000  0.1836624E+03  0.7546771E-02  0.1164305E+00
         21   -1    0    0  503  502  0.00000000000E+00  0.00000000000E+00  0.18571145751E+03  0.18571145751E+03  0.00000000000E+00 0.  1.
         21   -1    0    0  501  503 -0.00000000000E+00 -0.00000000000E+00 -0.18644178818E+03  0.18644178818E+03  0.00000000000E+00 0. -1.
          6    1    1    2  501    0 -0.42868192567E+02  0.44330583945E+02  0.29509523865E+02  0.18601799538E+03  0.17300000000E+03 0. -1.
         -6    1    1    2    0  502  0.42868192567E+02 -0.44330583945E+02 -0.30239854531E+02  0.18613525031E+03  0.17300000000E+03 0.  1.
<mgrwt>
<rscale>  2 0.18366241E+03</rscale>
<asrwt>0</asrwt>
<pdfrwt beam="1">  1       21 0.28570994E-01 0.18366241E+03</pdfrwt>
<pdfrwt beam="2">  1       21 0.28683352E-01 0.18366241E+03</pdfrwt>
<totfact> 0.13664317E+05</totfact>
</mgrwt>
</event>
<event>
 4    1  0.3948468E+000  0.2612103E+03  0.7546771E-02  0.1106418E+00
         21   -1    0    0  503  502  0.00000000000E+00  0.00000000000E+00  0.11465799138E+03  0.11465799138E+03  0.00000000000E+00 0. -1.
         21   -1    0    0  501  503 -0.00000000000E+00 -0.00000000000E+00 -0.71479680930E+03  0.71479680930E+03  0.00000000000E+00 0. -1.
          6    1    1    2  501    0  0.18759665721E+03 -0.55761038888E+02 -0.46979489756E+03  0.53752957596E+03  0.17300000000E+03 0. -1.
         -6    1    1    2    0  502 -0.18759665721E+03  0.55761038888E+02 -0.13034392036E+03  0.29192522472E+03  0.17300000000E+03 0. -1.
<mgrwt>
<rscale>  2 0.26121026E+03</rscale>
<asrwt>0</asrwt>
<pdfrwt beam="1">  1       21 0.17639691E-01 0.26121026E+03</pdfrwt>
<pdfrwt beam="2">  1       21 0.10996874E+00 0.26121026E+03</pdfrwt>
<totfact> 0.18321493E+04</totfact>
</mgrwt>
</event>
<event>
 4    1  0.3948468E+000  0.2982612E+03  0.7546771E-02  0.1086113E+00
         21   -1    0    0  503  502  0.00000000000E+00  0.00000000000E+00  0.17933007408E+03  0.17933007408E+03  0.00000000000E+00 0.  1.
         21   -1    0    0  501  503 -0.00000000000E+00 -0.00000000000E+00 -0.49976519835E+03  0.49976519835E+03  0.00000000000E+00 0. -1.
          6    1    1    2  501    0  0.68908098271E+01  0.24286463841E+03 -0.18942665353E+03  0.35333011890E+03  0.17300000000E+03 0.  1.
         -6    1    1    2    0  502 -0.68908098271E+01 -0.24286463841E+03 -0.13100847074E+03  0.32576515353E+03  0.17300000000E+03 0. -1.
<mgrwt>
<rscale>  2 0.29826115E+03</rscale>
<asrwt>0</asrwt>
<pdfrwt beam="1">  1       21 0.27589242E-01 0.29826115E+03</pdfrwt>
<pdfrwt beam="2">  1       21 0.76886954E-01 0.29826115E+03</pdfrwt>
<totfact> 0.17863273E+04</totfact>
</mgrwt>
</event>
<event>
 4    1  0.3948468E+000  0.1899402E+03  0.7546771E-02  0.1158515E+00
         21   -1    0    0  501  502  0.00000000000E+00  0.00000000000E+00  0.76302035106E+02  0.76302035106E+02  0.00000000000E+00 0.  1.
         21   -1    0    0  502  503 -0.00000000000E+00 -0.00000000000E+00 -0.66240646322E+03  0.66240646322E+03  0.00000000000E+00 0.  1.
          6    1    1    2  501    0  0.21868139143E+02 -0.75299947660E+02 -0.95454489717E+02  0.21257670906E+03  0.17300000000E+03 0.  1.
         -6    1    1    2    0  503 -0.21868139143E+02  0.75299947660E+02 -0.49064993839E+03  0.52613178926E+03  0.17300000000E+03 0.  1.
<mgrwt>
<rscale>  2 0.18994025E+03</rscale>
<asrwt>0</asrwt>
<pdfrwt beam="1">  1       21 0.11738775E-01 0.18994025E+03</pdfrwt>
<pdfrwt beam="2">  1       21 0.10190869E+00 0.18994025E+03</pdfrwt>
<totfact> 0.47968368E+04</totfact>
</mgrwt>
</event>
<event>
 4    1  0.3948468E+000  0.3750670E+03  0.7546771E-02  0.1052772E+00
         21   -1    0    0  501  502  0.00000000000E+00  0.00000000000E+00  0.70674963712E+03  0.70674963712E+03  0.00000000000E+00 0. -1.
         21   -1    0    0  502  503 -0.00000000000E+00 -0.00000000000E+00 -0.20200200497E+03  0.20200200497E+03  0.00000000000E+00 0.  1.
          6    1    1    2  501    0  0.31760932155E+03 -0.99350794917E+02  0.19740273250E+03  0.42384324978E+03  0.17300000000E+03 0.  1.
         -6    1    1    2    0  503 -0.31760932155E+03  0.99350794917E+02  0.30734489966E+03  0.48490839231E+03  0.17300000000E+03 0. -1.
<mgrwt>
<rscale>  2 0.37506701E+03</rscale>
<asrwt>0</asrwt>
<pdfrwt beam="1">  1       21 0.10873071E+00 0.37506701E+03</pdfrwt>
<pdfrwt beam="2">  1       21 0.31077232E-01 0.37506701E+03</pdfrwt>
<totfact> 0.60406537E+03</totfact>
</mgrwt>
</event>
<event>
 4    1  0.3948468E+000  0.1813532E+03  0.7546771E-02  0.1166500E+00
         21   -1    0    0  503  502  0.00000000000E+00  0.00000000000E+00  0.51558172618E+03  0.51558172618E+03  0.00000000000E+00 0. -1.
         21   -1    0    0  501  503 -0.00000000000E+00 -0.00000000000E+00 -0.83311358604E+02  0.83311358604E+02  0.00000000000E+00 0. -1.
          6    1    1    2  501    0  0.38082495700E+01 -0.54272385804E+02  0.36108625549E+03  0.40406964564E+03  0.17300000000E+03 0. -1.
         -6    1    1    2    0  502 -0.38082495700E+01  0.54272385804E+02  0.71184112087E+02  0.19482343914E+03  0.17300000000E+03 0. -1.
<mgrwt>
<rscale>  2 0.18135323E+03</rscale>
<asrwt>0</asrwt>
<pdfrwt beam="1">  1       21 0.79320264E-01 0.18135323E+03</pdfrwt>
<pdfrwt beam="2">  1       21 0.12817132E-01 0.18135323E+03</pdfrwt>
<totfact> 0.73468900E+04</totfact>
</mgrwt>
</event>
<event>
 4    1  0.3948468E+000  0.2256203E+03  0.7546771E-02  0.1129761E+00
         21   -1    0    0  501  502  0.00000000000E+00  0.00000000000E+00  0.12349832703E+03  0.12349832703E+03  0.00000000000E+00 0. -1.
         21   -1    0    0  502  503 -0.00000000000E+00 -0.00000000000E+00 -0.55002570459E+03  0.55002570459E+03  0.00000000000E+00 0.  1.
          6    1    1    2  501    0 -0.14082060665E+03 -0.33838647823E+02 -0.44679818483E+02  0.23000170330E+03  0.17300000000E+03 0. -1.
         -6    1    1    2    0  503  0.14082060665E+03  0.33838647823E+02 -0.38184755908E+03  0.44352232832E+03  0.17300000000E+03 0.  1.
<mgrwt>
<rscale>  2 0.22562025E+03</rscale>
<asrwt>0</asrwt>
<pdfrwt beam="1">  1       21 0.18999742E-01 0.22562025E+03</pdfrwt>
<pdfrwt beam="2">  1       21 0.84619340E-01 0.22562025E+03</pdfrwt>
<totfact> 0.30206910E+04</totfact>
</mgrwt>
</event>
<event>
 4    1  0.3948468E+000  0.1960031E+03  0.7546771E-02  0.1153156E+00
         21   -1    0    0  501  502  0.00000000000E+00  0.00000000000E+00  0.41138570240E+02  0.41138570240E+02  0.00000000000E+00 0. -1.
         21   -1    0    0  502  503 -0.00000000000E+00 -0.00000000000E+00 -0.98294175340E+03  0.98294175340E+03  0.00000000000E+00 0. -1.
          6    1    1    2  501    0 -0.90974535540E+02 -0.14554462874E+02 -0.58533434653E+03  0.61727910683E+03  0.17300000000E+03 0. -1.
         -6    1    1    2    0  503  0.90974535540E+02  0.14554462874E+02 -0.35646883663E+03  0.40680121681E+03  0.17300000000E+03 0. -1.
<mgrwt>
<rscale>  2 0.19600306E+03</rscale>
<asrwt>0</asrwt>
<pdfrwt beam="1">  1       21 0.63290115E-02 0.19600306E+03</pdfrwt>
<pdfrwt beam="2">  1       21 0.15122179E+00 0.19600306E+03</pdfrwt>
<totfact> 0.52545825E+04</totfact>
</mgrwt>
</event>
<event>
 4    1  0.3948468E+000  0.1813253E+03  0.7546771E-02  0.1166527E+00
         21   -1    0    0  501  502  0.00000000000E+00  0.00000000000E+00  0.73168897325E+03  0.73168897325E+03  0.00000000000E+00 0.  1.
         21   -1    0    0  502  503 -0.00000000000E+00 -0.00000000000E+00 -0.45172288185E+02  0.45172288185E+02  0.00000000000E+00 0.  1.
          6    1    1    2  501    0 -0.37299586239E+02 -0.39479048235E+02  0.37137745617E+03  0.41327965028E+03  0.17300000000E+03 0.  1.
         -6    1    1    2    0  503  0.37299586239E+02  0.39479048235E+02  0.31513922890E+03  0.36358161116E+03  0.17300000000E+03 0.  1.
<mgrwt>
<rscale>  2 0.18132527E+03</rscale>
<asrwt>0</asrwt>
<pdfrwt beam="1">  1       21 0.11256753E+00 0.18132527E+03</pdfrwt>
<pdfrwt beam="2">  1       21 0.69495833E-02 0.18132527E+03</pdfrwt>
<totfact> 0.95052615E+04</totfact>
</mgrwt>
</event>
<event>
 4    1  0.3948468E+000  0.1818927E+03  0.7546771E-02  0.1165984E+00
         21   -1    0    0  503  502  0.00000000000E+00  0.00000000000E+00  0.27599947654E+03  0.27599947654E+03  0.00000000000E+00 0.  1.
         21   -1    0    0  501  503 -0.00000000000E+00 -0.00000000000E+00 -0.16487967308E+03  0.16487967308E+03  0.00000000000E+00 0.  1.
          6    1    1    2  501    0  0.53728867882E+01 -0.55920514713E+02 -0.59611047663E+02  0.19141172608E+03  0.17300000000E+03 0.  1.
         -6    1    1    2    0  502 -0.53728867882E+01  0.55920514713E+02  0.17073085113E+03  0.24946742353E+03  0.17300000000E+03 0.  1.
<mgrwt>
<rscale>  2 0.18189275E+03</rscale>
<asrwt>0</asrwt>
<pdfrwt beam="1">  1       21 0.42461458E-01 0.18189275E+03</pdfrwt>
<pdfrwt beam="2">  1       21 0.25366103E-01 0.18189275E+03</pdfrwt>
<totfact> 0.78957236E+04</totfact>
</mgrwt>
</event>
<event>
 4    1  0.3948468E+000  0.1776111E+03  0.7546771E-02  0.1170135E+00
         21   -1    0    0  503  502  0.00000000000E+00  0.00000000000E+00  0.10673409733E+04  0.10673409733E+04  0.00000000000E+00 0. -1.
         21   -1    0    0  501  503 -0.00000000000E+00 -0.00000000000E+00 -0.29836001025E+02  0.29836001025E+02  0.00000000000E+00 0. -1.
          6    1    1    2  501    0  0.29030300126E+02 -0.27820159905E+02  0.46555402171E+03  0.49828331976E+03  0.17300000000E+03 0. -1.
         -6    1    1    2    0  502 -0.29030300126E+02  0.27820159905E+02  0.57195095056E+03  0.59889365455E+03  0.17300000000E+03 0. -1.
<mgrwt>
<rscale>  2 0.17761115E+03</rscale>
<asrwt>0</asrwt>
<pdfrwt beam="1">  1       21 0.16420627E+00 0.17761115E+03</pdfrwt>
<pdfrwt beam="2">  1       21 0.45901548E-02 0.17761115E+03</pdfrwt>
<totfact> 0.73529837E+04</totfact>
</mgrwt>
</event>
<event>
 4    1  0.3948468E+000  0.2045524E+03  0.7546771E-02  0.1145954E+00
         21   -1    0    0  503  502  0.00000000000E+00  0.00000000000E+00  0.91572745223E+02  0.91572745223E+02  0.00000000000E+00 0.  1.
         21   -1    0    0  501  503 -0.00000000000E+00 -0.00000000000E+00 -0.46499670678E+03  0.46499670678E+03  0.00000000000E+00 0.  1.
          6    1    1    2  501    0  0.64016707104E+01  0.10895742787E+03 -0.22338091365E+03  0.30288733064E+03  0.17300000000E+03 0.  1.
         -6    1    1    2    0  502 -0.64016707104E+01 -0.10895742787E+03 -0.15004304791E+03  0.25368212137E+03  0.17300000000E+03 0.  1.
<mgrwt>
<rscale>  2 0.20455244E+03</rscale>
<asrwt>0</asrwt>
<pdfrwt beam="1">  1       21 0.14088115E-01 0.20455244E+03</pdfrwt>
<pdfrwt beam="2">  1       21 0.71537951E-01 0.20455244E+03</pdfrwt>
<totfact> 0.77229675E+04</totfact>
</mgrwt>
</event>
<event>
 4    1  0.3948468E+000  0.1845777E+03  0.7546771E-02  0.1163445E+00
         21   -1    0    0  503  502  0.00000000000E+00  0.00000000000E+00  0.85943594348E+03  0.85943594348E+03  0.00000000000E+00 0.  1.
         21   -1    0    0  501  503 -0.00000000000E+00 -0.00000000000E+00 -0.52834396495E+02  0.52834396495E+02  0.00000000000E+00 0.  1.
          6    1    1    2  501    0  0.87743284998E+01 -0.63741106255E+02  0.17536464833E+03  0.25460101601E+03  0.17300000000E+03 0.  1.
         -6    1    1    2    0  502 -0.87743284998E+01  0.63741106255E+02  0.63123689865E+03  0.65766932397E+03  0.17300000000E+03 0.  1.
<mgrwt>
<rscale>  2 0.18457767E+03</rscale>
<asrwt>0</asrwt>
<pdfrwt beam="1">  1       21 0.13222090E+00 0.18457767E+03</pdfrwt>
<pdfrwt beam="2">  1       21 0.81283693E-02 0.18457767E+03</pdfrwt>
<totfact> 0.48547652E+04</totfact>
</mgrwt>
</event>
<event>
 4    1  0.3948468E+000  0.2829685E+03  0.7546771E-02  0.1094079E+00
         21   -1    0    0  501  502  0.00000000000E+00  0.00000000000E+00  0.10814643160E+03  0.10814643160E+03  0.00000000000E+00 0.  1.
         21   -1    0    0  502  503 -0.00000000000E+00 -0.00000000000E+00 -0.96361868144E+03  0.96361868144E+03  0.00000000000E+00 0.  1.
          6    1    1    2  501    0  0.21046038566E+03  0.76476258743E+02 -0.16981547465E+03  0.33001285962E+03  0.17300000000E+03 0.  1.
         -6    1    1    2    0  503 -0.21046038566E+03 -0.76476258743E+02 -0.68565677519E+03  0.74175225342E+03  0.17300000000E+03 0.  1.
<mgrwt>
<rscale>  2 0.28296854E+03</rscale>
<asrwt>0</asrwt>
<pdfrwt beam="1">  1       21 0.16637912E-01 0.28296854E+03</pdfrwt>
<pdfrwt beam="2">  1       21 0.14824903E+00 0.28296854E+03</pdfrwt>
<totfact> 0.94411179E+03</totfact>
</mgrwt>
</event>
<event>
 4    1  0.3948468E+000  0.2524773E+03  0.7546771E-02  0.1111749E+00
         21   -1    0    0  503  502  0.00000000000E+00  0.00000000000E+00  0.15961601145E+03  0.15961601145E+03  0.00000000000E+00 0. -1.
         21   -1    0    0  501  503 -0.00000000000E+00 -0.00000000000E+00 -0.99670202431E+03  0.99670202431E+03  0.00000000000E+00 0. -1.
          6    1    1    2  501    0 -0.17991499311E+03  0.38031185622E+02 -0.86612743774E+03  0.90217598851E+03  0.17300000000E+03 0. -1.
         -6    1    1    2    0  502  0.17991499311E+03 -0.38031185622E+02  0.29041424877E+02  0.25414204726E+03  0.17300000000E+03 0. -1.
<mgrwt>
<rscale>  2 0.25247728E+03</rscale>
<asrwt>0</asrwt>
<pdfrwt beam="1">  1       21 0.24556310E-01 0.25247728E+03</pdfrwt>
<pdfrwt beam="2">  1       21 0.15333877E+00 0.25247728E+03</pdfrwt>
<totfact> 0.42199714E+03</totfact>
</mgrwt>
</event>
<event>
 4    1  0.3948468E+000  0.1887350E+03  0.7546771E-02  0.1159607E+00
         21   -1    0    0  503  502  0.00000000000E+00  0.00000000000E+00  0.14709529200E+03  0.14709529200E+03  0.00000000000E+00 0.  1.
         21   -1    0    0  501  503 -0.00000000000E+00 -0.00000000000E+00 -0.24349477248E+03  0.24349477248E+03  0.00000000000E+00 0.  1.
          6    1    1    2  501    0 -0.83113420238E+01 -0.74985533011E+02 -0.62647613706E+02  0.19886083594E+03  0.17300000000E+03 0.  1.
         -6    1    1    2    0  502  0.83113420238E+01  0.74985533011E+02 -0.33751866771E+02  0.19172922854E+03  0.17300000000E+03 0.  1.
<mgrwt>
<rscale>  2 0.18873502E+03</rscale>
<asrwt>0</asrwt>
<pdfrwt beam="1">  1       21 0.22630045E-01 0.18873502E+03</pdfrwt>
<pdfrwt beam="2">  1       21 0.37460734E-01 0.18873502E+03</pdfrwt>
<totfact> 0.12594972E+05</totfact>
</mgrwt>
</event>
<event>
 4    1  0.3948468E+000  0.2041684E+03  0.7546771E-02  0.1146269E+00
         21   -1    0    0  501  502  0.00000000000E+00  0.00000000000E+00  0.10946421965E+04  0.10946421965E+04  0.00000000000E+00 0. -1.
         21   -1    0    0  502  503 -0.00000000000E+00 -0.00000000000E+00 -0.40211383641E+02  0.40211383641E+02  0.00000000000E+00 0.  1.
          6    1    1    2  501    0 -0.60823188168E+02  0.89756811822E+02  0.39660000053E+03  0.44606760240E+03  0.17300000000E+03 0.  1.
         -6    1    1    2    0  503  0.60823188168E+02 -0.89756811822E+02  0.65783081234E+03  0.68878597775E+03  0.17300000000E+03 0. -1.
<mgrwt>
<rscale>  2 0.20416842E+03</rscale>
<asrwt>0</asrwt>
<pdfrwt beam="1">  1       21 0.16840647E+00 0.20416842E+03</pdfrwt>
<pdfrwt beam="2">  1       21 0.61863675E-02 0.20416842E+03</pdfrwt>
<totfact> 0.40681366E+04</totfact>
</mgrwt>
</event>
<event>
 4    1  0.3948468E+000  0.1995696E+03  0.7546771E-02  0.1150103E+00
         21   -1    0    0  501  502  0.00000000000E+00  0.00000000000E+00  0.19079418619E+03  0.19079418619E+03  0.00000000000E+00 0. -1.
         21   -1    0    0  502  503 -0.00000000000E+00 -0.00000000000E+00 -0.15693360687E+04  0.15693360687E+04  0.00000000000E+00 0. -1.
          6    1    1    2  501    0 -0.54111653818E+02  0.83492169753E+02  0.13017455449E+03  0.23827175268E+03  0.17300000000E+03 0. -1.
         -6    1    1    2    0  503  0.54111653818E+02 -0.83492169753E+02 -0.15087164370E+04  0.15218585022E+04  0.17300000000E+03 0. -1.
<mgrwt>
<rscale>  2 0.19956957E+03</rscale>
<asrwt>0</asrwt>
<pdfrwt beam="1">  1       21 0.29352952E-01 0.19956957E+03</pdfrwt>
<pdfrwt beam="2">  1       21 0.24143631E+00 0.19956957E+03</pdfrwt>
<totfact> 0.82358706E+02</totfact>
</mgrwt>
</event>
<event>
 4    1  0.3948468E+000  0.2355754E+03  0.7546771E-02  0.1122776E+00
         21   -1    0    0  503  502  0.00000000000E+00  0.00000000000E+00  0.43627982876E+03  0.43627982876E+03  0.00000000000E+00 0. -1.
         21   -1    0    0  501  503 -0.00000000000E+00 -0.00000000000E+00 -0.13790936117E+03  0.13790936117E+03  0.00000000000E+00 0. -1.
          6    1    1    2  501    0 -0.90217219032E+02  0.13201378861E+03  0.69190061037E+02  0.24552607100E+03  0.17300000000E+03 0. -1.
         -6    1    1    2    0  502  0.90217219032E+02 -0.13201378861E+03  0.22918040655E+03  0.32866311892E+03  0.17300000000E+03 0. -1.
<mgrwt>
<rscale>  2 0.23557544E+03</rscale>
<asrwt>0</asrwt>
<pdfrwt beam="1">  1       21 0.67119973E-01 0.23557544E+03</pdfrwt>
<pdfrwt beam="2">  1       21 0.21216825E-01 0.23557544E+03</pdfrwt>
<totfact> 0.41127272E+04</totfact>
</mgrwt>
</event>
<event>
 4    1  0.3948468E+000  0.1735717E+03  0.7546771E-02  0.1174174E+00
         21   -1    0    0  501  502  0.00000000000E+00  0.00000000000E+00  0.43919554569E+02  0.43919554569E+02  0.00000000000E+00 0.  1.
         21   -1    0    0  502  503 -0.00000000000E+00 -0.00000000000E+00 -0.15102639629E+04  0.15102639629E+04  0.00000000000E+00 0.  1.
          6    1    1    2  501    0 -0.13702349117E+02  0.32201594722E+01 -0.15907005787E+03  0.23543663077E+03  0.17300000000E+03 0.  1.
         -6    1    1    2    0  503  0.13702349117E+02 -0.32201594722E+01 -0.13072743504E+04  0.13187468867E+04  0.17300000000E+03 0.  1.
<mgrwt>
<rscale>  2 0.17357167E+03</rscale>
<asrwt>0</asrwt>
<pdfrwt beam="1">  1       21 0.67568551E-02 0.17357167E+03</pdfrwt>
<pdfrwt beam="2">  1       21 0.23234828E+00 0.17357167E+03</pdfrwt>
<totfact> 0.13847932E+04</totfact>
</mgrwt>
</event>
<event>
 4    1  0.3948468E+000  0.2126493E+03  0.7546771E-02  0.1139485E+00
         21   -1    0    0  501  502  0.00000000000E+00  0.00000000000E+00  0.60021085207E+03  0.60021085207E+03  0.00000000000E+00 0.  1.
         21   -1    0    0  502  503 -0.00000000000E+00 -0.00000000000E+00 -0.13630841050E+03  0.13630841050E+03  0.00000000000E+00 0.  1.
          6    1    1    2  501    0  0.69876228853E+02 -0.10201984774E+03  0.47824083995E+03  0.52338708208E+03  0.17300000000E+03 0.  1.
         -6    1    1    2    0  503 -0.69876228853E+02  0.10201984774E+03 -0.14338398374E+02  0.21313218049E+03  0.17300000000E+03 0.  1.
<mgrwt>
<rscale>  2 0.21264933E+03</rscale>
<asrwt>0</asrwt>
<pdfrwt beam="1">  1       21 0.92340130E-01 0.21264933E+03</pdfrwt>
<pdfrwt beam="2">  1       21 0.20970525E-01 0.21264933E+03</pdfrwt>
<totfact> 0.20658372E+04</totfact>
</mgrwt>
</event>
<event>
 4    1  0.3948468E+000  0.2958749E+03  0.7546771E-02  0.1087321E+00
         21   -1    0    0  503  502  0.00000000000E+00  0.00000000000E+00  0.41622141306E+03  0.41622141306E+03  0.00000000000E+00 0.  1.
         21   -1    0    0  501  503 -0.00000000000E+00 -0.00000000000E+00 -0.21042000446E+03  0.21042000446E+03  0.00000000000E+00 0. -1.
          6    1    1    2  501    0  0.11439369621E+03 -0.21101427221E+03  0.96257610463E+02  0.31113898564E+03  0.17300000000E+03 0.  1.
         -6    1    1    2    0  502 -0.11439369621E+03  0.21101427221E+03  0.10954379814E+03  0.31550243188E+03  0.17300000000E+03 0. -1.
<mgrwt>
<rscale>  2 0.29587487E+03</rscale>
<asrwt>0</asrwt>
<pdfrwt beam="1">  1       21 0.64034063E-01 0.29587487E+03</pdfrwt>
<pdfrwt beam="2">  1       21 0.32372308E-01 0.29587487E+03</pdfrwt>
<totfact> 0.19631399E+04</totfact>
</mgrwt>
</event>
<event>
 4    1  0.3948468E+000  0.2361504E+03  0.7546771E-02  0.1122384E+00
         21   -1    0    0  501  502  0.00000000000E+00  0.00000000000E+00  0.19458633895E+04  0.19458633895E+04  0.00000000000E+00 0.  1.
         21   -1    0    0  502  503 -0.00000000000E+00 -0.00000000000E+00 -0.60728708377E+02  0.60728708377E+02  0.00000000000E+00 0. -1.
          6    1    1    2  501    0 -0.13228964364E+03  0.91309649532E+02  0.16716517890E+04  0.16882495981E+04  0.17300000000E+03 0.  1.
         -6    1    1    2    0  503  0.13228964364E+03 -0.91309649532E+02  0.21348289209E+03  0.31834249972E+03  0.17300000000E+03 0. -1.
<mgrwt>
<rscale>  2 0.23615038E+03</rscale>
<asrwt>0</asrwt>
<pdfrwt beam="1">  1       21 0.29936355E+00 0.23615038E+03</pdfrwt>
<pdfrwt beam="2">  1       21 0.93428797E-02 0.23615038E+03</pdfrwt>
<totfact> 0.30001594E+03</totfact>
</mgrwt>
</event>
<event>
 4    1  0.3948468E+000  0.2186418E+03  0.7546771E-02  0.1134900E+00
         21   -1    0    0  501  502  0.00000000000E+00  0.00000000000E+00  0.24680807746E+03  0.24680807746E+03  0.00000000000E+00 0.  1.
         21   -1    0    0  502  503 -0.00000000000E+00 -0.00000000000E+00 -0.21334102785E+03  0.21334102785E+03  0.00000000000E+00 0.  1.
          6    1    1    2  501    0 -0.10022522521E+03  0.88487969902E+02  0.86560916249E+02  0.23515316032E+03  0.17300000000E+03 0.  1.
         -6    1    1    2    0  503  0.10022522521E+03 -0.88487969902E+02 -0.53093866634E+02  0.22499594499E+03  0.17300000000E+03 0.  1.
<mgrwt>
<rscale>  2 0.21864175E+03</rscale>
<asrwt>0</asrwt>
<pdfrwt beam="1">  1       21 0.37970474E-01 0.21864175E+03</pdfrwt>
<pdfrwt beam="2">  1       21 0.32821696E-01 0.21864175E+03</pdfrwt>
<totfact> 0.59067431E+04</totfact>
</mgrwt>
</event>
<event>
 4    1  0.3948468E+000  0.2051687E+03  0.7546771E-02  0.1145450E+00
         21   -1    0    0  503  502  0.00000000000E+00  0.00000000000E+00  0.40901207574E+02  0.40901207574E+02  0.00000000000E+00 0. -1.
         21   -1    0    0  501  503 -0.00000000000E+00 -0.00000000000E+00 -0.17317744675E+04  0.17317744675E+04  0.00000000000E+00 0. -1.
          6    1    1    2  501    0  0.10999616205E+03  0.81257233083E+01 -0.14099964018E+04  0.14248452674E+04  0.17300000000E+03 0. -1.
         -6    1    1    2    0  502 -0.10999616205E+03 -0.81257233083E+01 -0.28087685812E+03  0.34783040763E+03  0.17300000000E+03 0. -1.
<mgrwt>
<rscale>  2 0.20516867E+03</rscale>
<asrwt>0</asrwt>
<pdfrwt beam="1">  1       21 0.62924936E-02 0.20516867E+03</pdfrwt>
<pdfrwt beam="2">  1       21 0.26642684E+00 0.20516867E+03</pdfrwt>
<totfact> 0.95715354E+03</totfact>
</mgrwt>
</event>
<event>
 4    1  0.3948468E+000  0.2014333E+03  0.7546771E-02  0.1148535E+00
         21   -1    0    0  503  502  0.00000000000E+00  0.00000000000E+00  0.13185139982E+03  0.13185139982E+03  0.00000000000E+00 0.  1.
         21   -1    0    0  501  503 -0.00000000000E+00 -0.00000000000E+00 -0.46025702951E+03  0.46025702951E+03  0.00000000000E+00 0. -1.
          6    1    1    2  501    0  0.89793986552E+02  0.50827484123E+02 -0.33462895672E+03  0.39057897004E+03  0.17300000000E+03 0. -1.
         -6    1    1    2    0  502 -0.89793986552E+02 -0.50827484123E+02  0.62233270236E+01  0.20152945929E+03  0.17300000000E+03 0.  1.
<mgrwt>
<rscale>  2 0.20143335E+03</rscale>
<asrwt>0</asrwt>
<pdfrwt beam="1">  1       21 0.20284830E-01 0.20143335E+03</pdfrwt>
<pdfrwt beam="2">  1       21 0.70808775E-01 0.20143335E+03</pdfrwt>
<totfact> 0.40426821E+04</totfact>
</mgrwt>
</event>
<event>
 4    1  0.3948468E+000  0.1832652E+03  0.7546771E-02  0.1164680E+00
         21   -1    0    0  501  502  0.00000000000E+00  0.00000000000E+00  0.11256816698E+03  0.11256816698E+03  0.00000000000E+00 0. -1.
         21   -1    0    0  502  503 -0.00000000000E+00 -0.00000000000E+00 -0.66055160030E+03  0.66055160030E+03  0.00000000000E+00 0. -1.
          6    1    1    2  501    0  0.57236918552E+02 -0.19521321684E+02  0.12248697212E+02  0.18367410658E+03  0.17300000000E+03 0. -1.
         -6    1    1    2    0  503 -0.57236918552E+02  0.19521321684E+02 -0.56023213052E+03  0.58944566070E+03  0.17300000000E+03 0. -1.
<mgrwt>
<rscale>  2 0.18326524E+03</rscale>
<asrwt>0</asrwt>
<pdfrwt beam="1">  1       21 0.17318179E-01 0.18326524E+03</pdfrwt>
<pdfrwt beam="2">  1       21 0.10162332E+00 0.18326524E+03</pdfrwt>
<totfact> 0.23953710E+04</totfact>
</mgrwt>
</event>
<event>
 4    1  0.3948468E+000  0.3273194E+03  0.7546771E-02  0.1072329E+00
         21   -1    0    0  503  502  0.00000000000E+00  0.00000000000E+00  0.18624996197E+03  0.18624996197E+03  0.00000000000E+00 0. -1.
         21   -1    0    0  501  503 -0.00000000000E+00 -0.00000000000E+00 -0.63380620395E+03  0.63380620395E+03  0.00000000000E+00 0.  1.
          6    1    1    2  501    0 -0.15106679438E+03 -0.23321201671E+03 -0.99135377345E+02  0.34200269610E+03  0.17300000000E+03 0. -1.
         -6    1    1    2    0  502  0.15106679438E+03  0.23321201671E+03 -0.34842086463E+03  0.47805346983E+03  0.17300000000E+03 0.  1.
<mgrwt>
<rscale>  2 0.32731945E+03</rscale>
<asrwt>0</asrwt>
<pdfrwt beam="1">  1       21 0.28653841E-01 0.32731945E+03</pdfrwt>
<pdfrwt beam="2">  1       21 0.97508646E-01 0.32731945E+03</pdfrwt>
<totfact> 0.94248670E+03</totfact>
</mgrwt>
</event>
<event>
 4    1  0.3948468E+000  0.2119732E+03  0.7546771E-02  0.1140013E+00
         21   -1    0    0  501  502  0.00000000000E+00  0.00000000000E+00  0.10949490010E+04  0.10949490010E+04  0.00000000000E+00 0. -1.
         21   -1    0    0  502  503 -0.00000000000E+00 -0.00000000000E+00 -0.39068612509E+03  0.39068612509E+03  0.00000000000E+00 0.  1.
          6    1    1    2  501    0 -0.12166456328E+03 -0.14190383789E+02  0.10548555254E+04  0.10759427551E+04  0.17300000000E+03 0. -1.
         -6    1    1    2    0  503  0.12166456328E+03  0.14190383789E+02 -0.35059264946E+03  0.40969237094E+03  0.17300000000E+03 0.  1.
<mgrwt>
<rscale>  2 0.21197319E+03</rscale>
<asrwt>0</asrwt>
<pdfrwt beam="1">  1       21 0.16845369E+00 0.21197319E+03</pdfrwt>
<pdfrwt beam="2">  1       21 0.60105558E-01 0.21197319E+03</pdfrwt>
<totfact> 0.55279271E+02</totfact>
</mgrwt>
</event>
<event>
 4    1  0.3948468E+000  0.1833422E+03  0.7546771E-02  0.1164607E+00
         21   -1    0    0  501  502  0.00000000000E+00  0.00000000000E+00  0.56768009127E+03  0.56768009127E+03  0.00000000000E+00 0.  1.
         21   -1    0    0  502  503 -0.00000000000E+00 -0.00000000000E+00 -0.67318259187E+02  0.67318259187E+02  0.00000000000E+00 0.  1.
          6    1    1    2  501    0  0.58383701262E+02 -0.16634534790E+02  0.36034610124E+03  0.40430641474E+03  0.17300000000E+03 0.  1.
         -6    1    1    2    0  503 -0.58383701262E+02  0.16634534790E+02  0.14001573084E+03  0.23069193571E+03  0.17300000000E+03 0.  1.
<mgrwt>
<rscale>  2 0.18334221E+03</rscale>
<asrwt>0</asrwt>
<pdfrwt beam="1">  1       21 0.87335395E-01 0.18334221E+03</pdfrwt>
<pdfrwt beam="2">  1       21 0.10356656E-01 0.18334221E+03</pdfrwt>
<totfact> 0.86213545E+04</totfact>
</mgrwt>
</event>
<event>
 4    1  0.3948468E+000  0.1937074E+03  0.7546771E-02  0.1155159E+00
         21   -1    0    0  501  502  0.00000000000E+00  0.00000000000E+00  0.33414901329E+03  0.33414901329E+03  0.00000000000E+00 0.  1.
         21   -1    0    0  502  503 -0.00000000000E+00 -0.00000000000E+00 -0.14821028956E+03  0.14821028956E+03  0.00000000000E+00 0. -1.
          6    1    1    2  501    0  0.15492101692E+02  0.85752880898E+02  0.21169755722E+03  0.28694671549E+03  0.17300000000E+03 0.  1.
         -6    1    1    2    0  503 -0.15492101692E+02 -0.85752880898E+02 -0.25758833491E+02  0.19541258736E+03  0.17300000000E+03 0. -1.
<mgrwt>
<rscale>  2 0.19370741E+03</rscale>
<asrwt>0</asrwt>
<pdfrwt beam="1">  1       21 0.51407540E-01 0.19370741E+03</pdfrwt>
<pdfrwt beam="2">  1       21 0.22801583E-01 0.19370741E+03</pdfrwt>
<totfact> 0.64845883E+04</totfact>
</mgrwt>
</event>
<event>
 4    1  0.3948468E+000  0.2097546E+03  0.7546771E-02  0.1141760E+00
         21   -1    0    0  501  502  0.00000000000E+00  0.00000000000E+00  0.67520363960E+02  0.67520363960E+02  0.00000000000E+00 0. -1.
         21   -1    0    0  502  503 -0.00000000000E+00 -0.00000000000E+00 -0.69750622178E+03  0.69750622178E+03  0.00000000000E+00 0. -1.
          6    1    1    2  501    0  0.11413412517E+03 -0.32270832035E+02 -0.21687311887E+03  0.30171336533E+03  0.17300000000E+03 0. -1.
         -6    1    1    2    0  503 -0.11413412517E+03  0.32270832035E+02 -0.41311273895E+03  0.46331322041E+03  0.17300000000E+03 0. -1.
<mgrwt>
<rscale>  2 0.20975463E+03</rscale>
<asrwt>0</asrwt>
<pdfrwt beam="1">  1       21 0.10387748E-01 0.20975463E+03</pdfrwt>
<pdfrwt beam="2">  1       21 0.10730865E+00 0.20975463E+03</pdfrwt>
<totfact> 0.52145413E+04</totfact>
</mgrwt>
</event>
<event>
 4    1  0.3948468E+000  0.1915478E+03  0.7546771E-02  0.1157073E+00
         21   -1    0    0  501  502  0.00000000000E+00  0.00000000000E+00  0.20088885131E+03  0.20088885131E+03  0.00000000000E+00 0. -1.
         21   -1    0    0  502  503 -0.00000000000E+00 -0.00000000000E+00 -0.45441763038E+03  0.45441763038E+03  0.00000000000E+00 0. -1.
          6    1    1    2  501    0  0.81450051540E+02 -0.11289090392E+02  0.12662760018E+03  0.22961947562E+03  0.17300000000E+03 0. -1.
         -6    1    1    2    0  503 -0.81450051540E+02  0.11289090392E+02 -0.38015637924E+03  0.42568700607E+03  0.17300000000E+03 0. -1.
<mgrwt>
<rscale>  2 0.19154779E+03</rscale>
<asrwt>0</asrwt>
<pdfrwt beam="1">  1       21 0.30905977E-01 0.19154779E+03</pdfrwt>
<pdfrwt beam="2">  1       21 0.69910404E-01 0.19154779E+03</pdfrwt>
<totfact> 0.18696757E+04</totfact>
</mgrwt>
</event>
<event>
 4    1  0.3948468E+000  0.1754442E+03  0.7546771E-02  0.1172286E+00
         21   -1    0    0  501  502  0.00000000000E+00  0.00000000000E+00  0.97235997655E+02  0.97235997655E+02  0.00000000000E+00 0. -1.
         21   -1    0    0  502  503 -0.00000000000E+00 -0.00000000000E+00 -0.43981450743E+03  0.43981450743E+03  0.00000000000E+00 0. -1.
          6    1    1    2  501    0 -0.26916816557E+02  0.11276894015E+02 -0.29135610713E+02  0.17784703305E+03  0.17300000000E+03 0. -1.
         -6    1    1    2    0  503  0.26916816557E+02 -0.11276894015E+02 -0.31344289907E+03  0.35920347204E+03  0.17300000000E+03 0. -1.
<mgrwt>
<rscale>  2 0.17544425E+03</rscale>
<asrwt>0</asrwt>
<pdfrwt beam="1">  1       21 0.14959384E-01 0.17544425E+03</pdfrwt>
<pdfrwt beam="2">  1       21 0.67663770E-01 0.17544425E+03</pdfrwt>
<totfact> 0.79277141E+04</totfact>
</mgrwt>
</event>
<event>
 4    1  0.3948468E+000  0.1938237E+03  0.7546771E-02  0.1155057E+00
         21   -1    0    0  501  502  0.00000000000E+00  0.00000000000E+00  0.29606429413E+03  0.29606429413E+03  0.00000000000E+00 0. -1.
         21   -1    0    0  502  503 -0.00000000000E+00 -0.00000000000E+00 -0.23784454313E+03  0.23784454313E+03  0.00000000000E+00 0.  1.
          6    1    1    2  501    0 -0.58057359739E+02 -0.65329766759E+02  0.21144184237E+03  0.28683669248E+03  0.17300000000E+03 0. -1.
         -6    1    1    2    0  503  0.58057359739E+02  0.65329766759E+02 -0.15322209137E+03  0.24707214479E+03  0.17300000000E+03 0.  1.
<mgrwt>
<rscale>  2 0.19382372E+03</rscale>
<asrwt>0</asrwt>
<pdfrwt beam="1">  1       21 0.45548353E-01 0.19382372E+03</pdfrwt>
<pdfrwt beam="2">  1       21 0.36591468E-01 0.19382372E+03</pdfrwt>
<totfact> 0.33273726E+04</totfact>
</mgrwt>
</event>
<event>
 4    1  0.3948468E+000  0.2169903E+03  0.7546771E-02  0.1136147E+00
         21   -1    0    0  501  502  0.00000000000E+00  0.00000000000E+00  0.25444146803E+03  0.25444146803E+03  0.00000000000E+00 0.  1.
         21   -1    0    0  502  503 -0.00000000000E+00 -0.00000000000E+00 -0.18740582467E+03  0.18740582467E+03  0.00000000000E+00 0.  1.
          6    1    1    2  501    0 -0.40834806928E+01 -0.13091638115E+03  0.87558948366E+01  0.21716684683E+03  0.17300000000E+03 0.  1.
         -6    1    1    2    0  503  0.40834806928E+01  0.13091638115E+03  0.58279748524E+02  0.22468044587E+03  0.17300000000E+03 0.  1.
<mgrwt>
<rscale>  2 0.21699026E+03</rscale>
<asrwt>0</asrwt>
<pdfrwt beam="1">  1       21 0.39144841E-01 0.21699026E+03</pdfrwt>
<pdfrwt beam="2">  1       21 0.28831665E-01 0.21699026E+03</pdfrwt>
<totfact> 0.71672355E+04</totfact>
</mgrwt>
</event>
<event>
 4    1  0.3948468E+000  0.1907763E+03  0.7546771E-02  0.1157763E+00
         21   -1    0    0  503  502  0.00000000000E+00  0.00000000000E+00  0.13850557041E+04  0.13850557041E+04  0.00000000000E+00 0.  1.
         21   -1    0    0  501  503 -0.00000000000E+00 -0.00000000000E+00 -0.45883570385E+02  0.45883570385E+02  0.00000000000E+00 0.  1.
          6    1    1    2  501    0  0.77208396525E+02  0.22482802163E+02  0.20189465966E+03  0.27777160849E+03  0.17300000000E+03 0.  1.
         -6    1    1    2    0  502 -0.77208396525E+02 -0.22482802163E+02  0.11372774741E+04  0.11531676660E+04  0.17300000000E+03 0.  1.
<mgrwt>
<rscale>  2 0.19077634E+03</rscale>
<asrwt>0</asrwt>
<pdfrwt beam="1">  1       21 0.21308546E+00 0.19077634E+03</pdfrwt>
<pdfrwt beam="2">  1       21 0.70590119E-02 0.19077634E+03</pdfrwt>
<totfact> 0.16574479E+04</totfact>
</mgrwt>
</event>
<event>
 4    1  0.3948468E+000  0.1970849E+03  0.7546771E-02  0.1152222E+00
         21   -1    0    0  503  502  0.00000000000E+00  0.00000000000E+00  0.12820209512E+03  0.12820209512E+03  0.00000000000E+00 0.  1.
         21   -1    0    0  501  503 -0.00000000000E+00 -0.00000000000E+00 -0.84471689534E+03  0.84471689534E+03  0.00000000000E+00 0.  1.
          6    1    1    2  501    0  0.75693875974E+02 -0.56425960621E+02 -0.74782783136E+03  0.77336208677E+03  0.17300000000E+03 0.  1.
         -6    1    1    2    0  502 -0.75693875974E+02  0.56425960621E+02  0.31313031146E+02  0.19955690369E+03  0.17300000000E+03 0.  1.
<mgrwt>
<rscale>  2 0.19708488E+03</rscale>
<asrwt>0</asrwt>
<pdfrwt beam="1">  1       21 0.19723399E-01 0.19708488E+03</pdfrwt>
<pdfrwt beam="2">  1       21 0.12995645E+00 0.19708488E+03</pdfrwt>
<totfact> 0.10216084E+04</totfact>
</mgrwt>
</event>
<event>
 4    1  0.3948468E+000  0.1966333E+03  0.7546771E-02  0.1152611E+00
         21   -1    0    0  503  502  0.00000000000E+00  0.00000000000E+00  0.22435590994E+03  0.22435590994E+03  0.00000000000E+00 0. -1.
         21   -1    0    0  501  503 -0.00000000000E+00 -0.00000000000E+00 -0.18958780896E+03  0.18958780896E+03  0.00000000000E+00 0. -1.
          6    1    1    2  501    0  0.84602168433E+02  0.39725526492E+02  0.79818018065E+02  0.21221583439E+03  0.17300000000E+03 0. -1.
         -6    1    1    2    0  502 -0.84602168433E+02 -0.39725526492E+02 -0.45049917080E+02  0.20172788451E+03  0.17300000000E+03 0. -1.
<mgrwt>
<rscale>  2 0.19663327E+03</rscale>
<asrwt>0</asrwt>
<pdfrwt beam="1">  1       21 0.34516294E-01 0.19663327E+03</pdfrwt>
<pdfrwt beam="2">  1       21 0.29167355E-01 0.19663327E+03</pdfrwt>
<totfact> 0.90910236E+04</totfact>
</mgrwt>
</event>
<event>
 4    1  0.3948468E+000  0.3050624E+03  0.7546771E-02  0.1082737E+00
         21   -1    0    0  503  502  0.00000000000E+00  0.00000000000E+00  0.40946254440E+03  0.40946254440E+03  0.00000000000E+00 0. -1.
         21   -1    0    0  501  503 -0.00000000000E+00 -0.00000000000E+00 -0.23228050992E+03  0.23228050992E+03  0.00000000000E+00 0.  1.
          6    1    1    2  501    0  0.25049016823E+03  0.19716969538E+02  0.41516521197E+02  0.30787449521E+03  0.17300000000E+03 0. -1.
         -6    1    1    2    0  502 -0.25049016823E+03 -0.19716969538E+02  0.13566551328E+03  0.33386855911E+03  0.17300000000E+03 0. -1.
<mgrwt>
<rscale>  2 0.30506243E+03</rscale>
<asrwt>0</asrwt>
<pdfrwt beam="1">  1       21 0.62994238E-01 0.30506243E+03</pdfrwt>
<pdfrwt beam="2">  1       21 0.35735463E-01 0.30506243E+03</pdfrwt>
<totfact> 0.16638632E+04</totfact>
</mgrwt>
</event>
<event>
 4    1  0.3948468E+000  0.1912693E+03  0.7546771E-02  0.1157321E+00
         21   -1    0    0  501  502  0.00000000000E+00  0.00000000000E+00  0.31722393173E+03  0.31722393173E+03  0.00000000000E+00 0.  1.
         21   -1    0    0  502  503 -0.00000000000E+00 -0.00000000000E+00 -0.11808339653E+03  0.11808339653E+03  0.00000000000E+00 0. -1.
          6    1    1    2  501    0 -0.26313905771E+02 -0.77217295664E+02  0.13283464881E+03  0.23287115818E+03  0.17300000000E+03 0.  1.
         -6    1    1    2    0  503  0.26313905771E+02  0.77217295664E+02  0.66305886401E+02  0.20243617008E+03  0.17300000000E+03 0. -1.
<mgrwt>
<rscale>  2 0.19126927E+03</rscale>
<asrwt>0</asrwt>
<pdfrwt beam="1">  1       21 0.48803681E-01 0.19126927E+03</pdfrwt>
<pdfrwt beam="2">  1       21 0.18166677E-01 0.19126927E+03</pdfrwt>
<totfact> 0.11066956E+05</totfact>
</mgrwt>
</event>
<event>
 4    1  0.3948468E+000  0.1950967E+03  0.7546771E-02  0.1153943E+00
         21   -1    0    0  501  502  0.00000000000E+00  0.00000000000E+00  0.30437034635E+03  0.30437034635E+03  0.00000000000E+00 0.  1.
         21   -1    0    0  502  503 -0.00000000000E+00 -0.00000000000E+00 -0.17396827011E+03  0.17396827011E+03  0.00000000000E+00 0.  1.
          6    1    1    2  501    0 -0.84655763690E+02  0.31098823867E+02  0.19202114879E+03  0.27374231817E+03  0.17300000000E+03 0.  1.
         -6    1    1    2    0  503  0.84655763690E+02 -0.31098823867E+02 -0.61619072550E+02  0.20459629829E+03  0.17300000000E+03 0.  1.
<mgrwt>
<rscale>  2 0.19509673E+03</rscale>
<asrwt>0</asrwt>
<pdfrwt beam="1">  1       21 0.46826207E-01 0.19509673E+03</pdfrwt>
<pdfrwt beam="2">  1       21 0.26764349E-01 0.19509673E+03</pdfrwt>
<totfact> 0.57965710E+04</totfact>
</mgrwt>
</event>
<event>
 4    1  0.3948468E+000  0.2705433E+03  0.7546771E-02  0.1100969E+00
         21   -1    0    0  501  502  0.00000000000E+00  0.00000000000E+00  0.62984204780E+03  0.62984204780E+03  0.00000000000E+00 0.  1.
         21   -1    0    0  502  503 -0.00000000000E+00 -0.00000000000E+00 -0.17076396883E+03  0.17076396883E+03  0.00000000000E+00 0. -1.
          6    1    1    2  501    0  0.16141975309E+03 -0.13118053560E+03  0.45579792624E+03  0.53004284654E+03  0.17300000000E+03 0.  1.
         -6    1    1    2    0  503 -0.16141975309E+03  0.13118053560E+03  0.32801527338E+01  0.27056317009E+03  0.17300000000E+03 0. -1.
<mgrwt>
<rscale>  2 0.27054329E+03</rscale>
<asrwt>0</asrwt>
<pdfrwt beam="1">  1       21 0.96898776E-01 0.27054329E+03</pdfrwt>
<pdfrwt beam="2">  1       21 0.26271380E-01 0.27054329E+03</pdfrwt>
<totfact> 0.11630963E+04</totfact>
</mgrwt>
</event>
<event>
 4    1  0.3948468E+000  0.1969158E+03  0.7546771E-02  0.1152368E+00
         21   -1    0    0  501  502  0.00000000000E+00  0.00000000000E+00  0.11867915828E+03  0.11867915828E+03  0.00000000000E+00 0.  1.
         21   -1    0    0  502  503 -0.00000000000E+00 -0.00000000000E+00 -0.65040504400E+03  0.65040504400E+03  0.00000000000E+00 0.  1.
          6    1    1    2  501    0 -0.93858289412E+02  0.61209718619E+01  0.54107402153E+01  0.19699015432E+03  0.17300000000E+03 0.  1.
         -6    1    1    2    0  503  0.93858289412E+02 -0.61209718619E+01 -0.53713662594E+03  0.57209404796E+03  0.17300000000E+03 0.  1.
<mgrwt>
<rscale>  2 0.19691583E+03</rscale>
<asrwt>0</asrwt>
<pdfrwt beam="1">  1       21 0.18258332E-01 0.19691583E+03</pdfrwt>
<pdfrwt beam="2">  1       21 0.10006231E+00 0.19691583E+03</pdfrwt>
<totfact> 0.22358571E+04</totfact>
</mgrwt>
</event>
<event>
 4    1  0.3948468E+000  0.2215037E+03  0.7546771E-02  0.1132767E+00
         21   -1    0    0  501  502  0.00000000000E+00  0.00000000000E+00  0.45295384506E+02  0.45295384506E+02  0.00000000000E+00 0.  1.
         21   -1    0    0  502  503 -0.00000000000E+00 -0.00000000000E+00 -0.12415600808E+04  0.12415600808E+04  0.00000000000E+00 0.  1.
          6    1    1    2  501    0 -0.43911579986E+02 -0.13117414808E+03 -0.82792761491E+03  0.85704610116E+03  0.17300000000E+03 0.  1.
         -6    1    1    2    0  503  0.43911579986E+02  0.13117414808E+03 -0.36833708134E+03  0.42980936411E+03  0.17300000000E+03 0.  1.
<mgrwt>
<rscale>  2 0.22150369E+03</rscale>
<asrwt>0</asrwt>
<pdfrwt beam="1">  1       21 0.69685202E-02 0.22150369E+03</pdfrwt>
<pdfrwt beam="2">  1       21 0.19100926E+00 0.22150369E+03</pdfrwt>
<totfact> 0.22948535E+04</totfact>
</mgrwt>
</event>
<event>
 4    1  0.3948468E+000  0.1812968E+03  0.7546771E-02  0.1166554E+00
         21   -1    0    0  501  502  0.00000000000E+00  0.00000000000E+00  0.56770755505E+03  0.56770755505E+03  0.00000000000E+00 0. -1.
         21   -1    0    0  502  503 -0.00000000000E+00 -0.00000000000E+00 -0.17673225639E+03  0.17673225639E+03  0.00000000000E+00 0. -1.
          6    1    1    2  501    0 -0.38474037748E+02 -0.38200700007E+02  0.50070864124E+03  0.53252012964E+03  0.17300000000E+03 0. -1.
         -6    1    1    2    0  503  0.38474037748E+02  0.38200700007E+02 -0.10973334258E+03  0.21191968180E+03  0.17300000000E+03 0. -1.
<mgrwt>
<rscale>  2 0.18129684E+03</rscale>
<asrwt>0</asrwt>
<pdfrwt beam="1">  1       21 0.87339624E-01 0.18129684E+03</pdfrwt>
<pdfrwt beam="2">  1       21 0.27189578E-01 0.18129684E+03</pdfrwt>
<totfact> 0.14625305E+04</totfact>
</mgrwt>
</event>
<event>
 4    1  0.3948468E+000  0.2152854E+03  0.7546771E-02  0.1137448E+00
         21   -1    0    0  501  502  0.00000000000E+00  0.00000000000E+00  0.81351406676E+03  0.81351406676E+03  0.00000000000E+00 0. -1.
         21   -1    0    0  502  503 -0.00000000000E+00 -0.00000000000E+00 -0.64611558497E+02  0.64611558497E+02  0.00000000000E+00 0. -1.
          6    1    1    2  501    0  0.12386499943E+02  0.12753572902E+03  0.52542326778E+03  0.56781810281E+03  0.17300000000E+03 0. -1.
         -6    1    1    2    0  503 -0.12386499943E+02 -0.12753572902E+03  0.22347924049E+03  0.31030752245E+03  0.17300000000E+03 0. -1.
<mgrwt>
<rscale>  2 0.21528536E+03</rscale>
<asrwt>0</asrwt>
<pdfrwt beam="1">  1       21 0.12515600E+00 0.21528536E+03</pdfrwt>
<pdfrwt beam="2">  1       21 0.99402403E-02 0.21528536E+03</pdfrwt>
<totfact> 0.38511003E+04</totfact>
</mgrwt>
</event>
<event>
 4    1  0.3948468E+000  0.1991988E+03  0.7546771E-02  0.1150417E+00
         21   -1    0    0  501  502  0.00000000000E+00  0.00000000000E+00  0.10396193084E+03  0.10396193084E+03  0.00000000000E+00 0. -1.
         21   -1    0    0  502  503 -0.00000000000E+00 -0.00000000000E+00 -0.42340982769E+03  0.42340982769E+03  0.00000000000E+00 0. -1.
          6    1    1    2  501    0 -0.65809460012E+02  0.73622422481E+02 -0.76942716222E+02  0.21354233233E+03  0.17300000000E+03 0. -1.
         -6    1    1    2    0  503  0.65809460012E+02 -0.73622422481E+02 -0.24250518062E+03  0.31382942620E+03  0.17300000000E+03 0. -1.
<mgrwt>
<rscale>  2 0.19919876E+03</rscale>
<asrwt>0</asrwt>
<pdfrwt beam="1">  1       21 0.15994143E-01 0.19919876E+03</pdfrwt>
<pdfrwt beam="2">  1       21 0.65139974E-01 0.19919876E+03</pdfrwt>
<totfact> 0.75471142E+04</totfact>
</mgrwt>
</event>
<event>
 4    1  0.3948468E+000  0.2295322E+03  0.7546771E-02  0.1126969E+00
         21   -1    0    0  503  502  0.00000000000E+00  0.00000000000E+00  0.32120909820E+03  0.32120909820E+03  0.00000000000E+00 0.  1.
         21   -1    0    0  501  503 -0.00000000000E+00 -0.00000000000E+00 -0.18917214141E+03  0.18917214141E+03  0.00000000000E+00 0.  1.
          6    1    1    2  501    0 -0.86255154578E+02 -0.12375811898E+03 -0.27031298646E+02  0.23111839998E+03  0.17300000000E+03 0.  1.
         -6    1    1    2    0  502  0.86255154578E+02  0.12375811898E+03  0.15906825544E+03  0.27926283962E+03  0.17300000000E+03 0.  1.
<mgrwt>
<rscale>  2 0.22953218E+03</rscale>
<asrwt>0</asrwt>
<pdfrwt beam="1">  1       21 0.49416784E-01 0.22953218E+03</pdfrwt>
<pdfrwt beam="2">  1       21 0.29103406E-01 0.22953218E+03</pdfrwt>
<totfact> 0.43363249E+04</totfact>
</mgrwt>
</event>
<event>
 4    1  0.3948468E+000  0.2740049E+03  0.7546771E-02  0.1099009E+00
         21   -1    0    0  501  502  0.00000000000E+00  0.00000000000E+00  0.19592276646E+04  0.19592276646E+04  0.00000000000E+00 0.  1.
         21   -1    0    0  502  503 -0.00000000000E+00 -0.00000000000E+00 -0.55334260360E+02  0.55334260360E+02  0.00000000000E+00 0. -1.
          6    1    1    2  501    0 -0.85036281132E+02 -0.19472678955E+03  0.15104850856E+04  0.15351364388E+04  0.17300000000E+03 0.  1.
         -6    1    1    2    0  503  0.85036281132E+02  0.19472678955E+03  0.39340831863E+03  0.47942548623E+03  0.17300000000E+03 0. -1.
<mgrwt>
<rscale>  2 0.27400491E+03</rscale>
<asrwt>0</asrwt>
<pdfrwt beam="1">  1       21 0.30141959E+00 0.27400491E+03</pdfrwt>
<pdfrwt beam="2">  1       21 0.85129647E-02 0.27400491E+03</pdfrwt>
<totfact> 0.33216397E+03</totfact>
</mgrwt>
</event>
<event>
 4    1  0.3948468E+000  0.1853278E+03  0.7546771E-02  0.1162744E+00
         21   -1    0    0  501  502  0.00000000000E+00  0.00000000000E+00  0.58843951251E+02  0.58843951251E+02  0.00000000000E+00 0.  1.
         21   -1    0    0  502  503 -0.00000000000E+00 -0.00000000000E+00 -0.58430241339E+03  0.58430241339E+03  0.00000000000E+00 0.  1.
          6    1    1    2  501    0 -0.45462331184E+02  0.48482785996E+02 -0.25228645909E+03  0.31304130963E+03  0.17300000000E+03 0.  1.
         -6    1    1    2    0  503  0.45462331184E+02 -0.48482785996E+02 -0.27317200305E+03  0.33010505501E+03  0.17300000000E+03 0.  1.
<mgrwt>
<rscale>  2 0.18532783E+03</rscale>
<asrwt>0</asrwt>
<pdfrwt beam="1">  1       21 0.90529159E-02 0.18532783E+03</pdfrwt>
<pdfrwt beam="2">  1       21 0.89892675E-01 0.18532783E+03</pdfrwt>
<totfact> 0.10215112E+05</totfact>
</mgrwt>
</event>
<event>
 4    1  0.3948468E+000  0.2098951E+03  0.7546771E-02  0.1141649E+00
         21   -1    0    0  501  502  0.00000000000E+00  0.00000000000E+00  0.99788798501E+03  0.99788798501E+03  0.00000000000E+00 0. -1.
         21   -1    0    0  502  503 -0.00000000000E+00 -0.00000000000E+00 -0.62084205853E+02  0.62084205853E+02  0.00000000000E+00 0. -1.
          6    1    1    2  501    0  0.59709621841E+02  0.10277028505E+03  0.75275731770E+03  0.78147268013E+03  0.17300000000E+03 0. -1.
         -6    1    1    2    0  503 -0.59709621841E+02 -0.10277028505E+03  0.18304646146E+03  0.27849951074E+03  0.17300000000E+03 0. -1.
<mgrwt>
<rscale>  2 0.20989514E+03</rscale>
<asrwt>0</asrwt>
<pdfrwt beam="1">  1       21 0.15352122E+00 0.20989514E+03</pdfrwt>
<pdfrwt beam="2">  1       21 0.95514171E-02 0.20989514E+03</pdfrwt>
<totfact> 0.24461745E+04</totfact>
</mgrwt>
</event>
<event>
 4    1  0.3948468E+000  0.2683081E+03  0.7546771E-02  0.1102252E+00
         21   -1    0    0  503  502  0.00000000000E+00  0.00000000000E+00  0.10000922271E+04  0.10000922271E+04  0.00000000000E+00 0. -1.
         21   -1    0    0  501  503 -0.00000000000E+00 -0.00000000000E+00 -0.13032253443E+03  0.13032253443E+03  0.00000000000E+00 0.  1.
          6    1    1    2  501    0  0.19066326746E+03  0.75549610924E+02  0.56720061551E+02  0.27423783592E+03  0.17300000000E+03 0.  1.
         -6    1    1    2    0  502 -0.19066326746E+03 -0.75549610924E+02  0.81304963116E+03  0.85617692564E+03  0.17300000000E+03 0. -1.
<mgrwt>
<rscale>  2 0.26830808E+03</rscale>
<asrwt>0</asrwt>
<pdfrwt beam="1">  1       21 0.15386034E+00 0.26830808E+03</pdfrwt>
<pdfrwt beam="2">  1       21 0.20049621E-01 0.26830808E+03</pdfrwt>
<totfact> 0.60849420E+03</totfact>
</mgrwt>
</event>
<event>
 4    1  0.3948468E+000  0.1941690E+03  0.7546771E-02  0.1154754E+00
         21   -1    0    0  503  502  0.00000000000E+00  0.00000000000E+00  0.79422405994E+03  0.79422405994E+03  0.00000000000E+00 0. -1.
         21   -1    0    0  501  503 -0.00000000000E+00 -0.00000000000E+00 -0.48943710821E+02  0.48943710821E+02  0.00000000000E+00 0. -1.
          6    1    1    2  501    0 -0.87642312188E+02 -0.95619433475E+01  0.29947898863E+03  0.35691633512E+03  0.17300000000E+03 0. -1.
         -6    1    1    2    0  502  0.87642312188E+02  0.95619433475E+01  0.44580136049E+03  0.48625143564E+03  0.17300000000E+03 0. -1.
<mgrwt>
<rscale>  2 0.19416901E+03</rscale>
<asrwt>0</asrwt>
<pdfrwt beam="1">  1       21 0.12218831E+00 0.19416901E+03</pdfrwt>
<pdfrwt beam="2">  1       21 0.75298023E-02 0.19416901E+03</pdfrwt>
<totfact> 0.67266487E+04</totfact>
</mgrwt>
</event>
<event>
 4    1  0.3948468E+000  0.2304599E+03  0.7546771E-02  0.1126316E+00
         21   -1    0    0  503  502  0.00000000000E+00  0.00000000000E+00  0.17348935932E+04  0.17348935932E+04  0.00000000000E+00 0. -1.
         21   -1    0    0  501  503 -0.00000000000E+00 -0.00000000000E+00 -0.31062208249E+02  0.31062208249E+02  0.00000000000E+00 0.  1.
          6    1    1    2  501    0 -0.13149456362E+03 -0.76759000976E+02  0.95799933218E+03  0.98532963264E+03  0.17300000000E+03 0. -1.
         -6    1    1    2    0  502  0.13149456362E+03  0.76759000976E+02  0.74583205276E+03  0.78062616880E+03  0.17300000000E+03 0.  1.
<mgrwt>
<rscale>  2 0.23045990E+03</rscale>
<asrwt>0</asrwt>
<pdfrwt beam="1">  1       21 0.26690663E+00 0.23045990E+03</pdfrwt>
<pdfrwt beam="2">  1       21 0.47788026E-02 0.23045990E+03</pdfrwt>
<totfact> 0.14876837E+04</totfact>
</mgrwt>
</event>
<event>
 4    1  0.3948468E+000  0.2103243E+03  0.7546771E-02  0.1141309E+00
         21   -1    0    0  501  502  0.00000000000E+00  0.00000000000E+00  0.26913751747E+03  0.26913751747E+03  0.00000000000E+00 0.  1.
         21   -1    0    0  502  503 -0.00000000000E+00 -0.00000000000E+00 -0.26744240364E+03  0.26744240364E+03  0.00000000000E+00 0.  1.
          6    1    1    2  501    0  0.28749527793E+02  0.11610669798E+03  0.16740913949E+03  0.26881614656E+03  0.17300000000E+03 0.  1.
         -6    1    1    2    0  503 -0.28749527793E+02 -0.11610669798E+03 -0.16571402566E+03  0.26776377455E+03  0.17300000000E+03 0.  1.
<mgrwt>
<rscale>  2 0.21032428E+03</rscale>
<asrwt>0</asrwt>
<pdfrwt beam="1">  1       21 0.41405772E-01 0.21032428E+03</pdfrwt>
<pdfrwt beam="2">  1       21 0.41144985E-01 0.21032428E+03</pdfrwt>
<totfact> 0.31650370E+04</totfact>
</mgrwt>
</event>
<event>
 4    1  0.3948468E+000  0.1769750E+03  0.7546771E-02  0.1170763E+00
         21   -1    0    0  503  502  0.00000000000E+00  0.00000000000E+00  0.23426321056E+02  0.23426321056E+02  0.00000000000E+00 0.  1.
         21   -1    0    0  501  503 -0.00000000000E+00 -0.00000000000E+00 -0.14135973073E+04  0.14135973073E+04  0.00000000000E+00 0. -1.
          6    1    1    2  501    0 -0.36080515996E+02  0.94520769921E+01 -0.86237940904E+03  0.88035128814E+03  0.17300000000E+03 0. -1.
         -6    1    1    2    0  502  0.36080515996E+02 -0.94520769921E+01 -0.52779157722E+03  0.55667234023E+03  0.17300000000E+03 0.  1.
<mgrwt>
<rscale>  2 0.17697499E+03</rscale>
<asrwt>0</asrwt>
<pdfrwt beam="1">  1       21 0.36040487E-02 0.17697499E+03</pdfrwt>
<pdfrwt beam="2">  1       21 0.21747655E+00 0.17697499E+03</pdfrwt>
<totfact> 0.49177086E+04</totfact>
</mgrwt>
</event>
<event>
 4    1  0.3948468E+000  0.3153232E+03  0.7546771E-02  0.1077822E+00
         21   -1    0    0  503  502  0.00000000000E+00  0.00000000000E+00  0.45895086131E+02  0.45895086131E+02  0.00000000000E+00 0.  1.
         21   -1    0    0  501  503 -0.00000000000E+00 -0.00000000000E+00 -0.25894718060E+04  0.25894718060E+04  0.00000000000E+00 0. -1.
          6    1    1    2  501    0  0.77341559154E+02 -0.25202781052E+03 -0.18043801004E+04  0.18317249468E+04  0.17300000000E+03 0. -1.
         -6    1    1    2    0  502 -0.77341559154E+02  0.25202781052E+03 -0.73919661946E+03  0.80364194531E+03  0.17300000000E+03 0.  1.
<mgrwt>
<rscale>  2 0.31532322E+03</rscale>
<asrwt>0</asrwt>
<pdfrwt beam="1">  1       21 0.70607838E-02 0.31532322E+03</pdfrwt>
<pdfrwt beam="2">  1       21 0.39838021E+00 0.31532322E+03</pdfrwt>
<totfact> 0.11525391E+03</totfact>
</mgrwt>
</event>
<event>
 4    1  0.3948468E+000  0.1862530E+03  0.7546771E-02  0.1161885E+00
         21   -1    0    0  501  502  0.00000000000E+00  0.00000000000E+00  0.40114783999E+03  0.40114783999E+03  0.00000000000E+00 0. -1.
         21   -1    0    0  502  503 -0.00000000000E+00 -0.00000000000E+00 -0.23583519455E+03  0.23583519455E+03  0.00000000000E+00 0. -1.
          6    1    1    2  501    0  0.53830001847E+02 -0.43168296694E+02  0.33611530880E+03  0.38427031078E+03  0.17300000000E+03 0. -1.
         -6    1    1    2    0  503 -0.53830001847E+02  0.43168296694E+02 -0.17080266336E+03  0.25271272375E+03  0.17300000000E+03 0. -1.
<mgrwt>
<rscale>  2 0.18625298E+03</rscale>
<asrwt>0</asrwt>
<pdfrwt beam="1">  1       21 0.61715052E-01 0.18625298E+03</pdfrwt>
<pdfrwt beam="2">  1       21 0.36282338E-01 0.18625298E+03</pdfrwt>
<totfact> 0.17935000E+04</totfact>
</mgrwt>
</event>
<event>
 4    1  0.3948468E+000  0.1770932E+03  0.7546771E-02  0.1170646E+00
         21   -1    0    0  501  502  0.00000000000E+00  0.00000000000E+00  0.24596688095E+02  0.24596688095E+02  0.00000000000E+00 0. -1.
         21   -1    0    0  502  503 -0.00000000000E+00 -0.00000000000E+00 -0.18549769442E+04  0.18549769442E+04  0.00000000000E+00 0. -1.
          6    1    1    2  501    0  0.18851519112E+02  0.32827258513E+02 -0.38972159912E+03  0.42807117807E+03  0.17300000000E+03 0. -1.
         -6    1    1    2    0  503 -0.18851519112E+02 -0.32827258513E+02 -0.14406586570E+04  0.14515024542E+04  0.17300000000E+03 0. -1.
<mgrwt>
<rscale>  2 0.17709322E+03</rscale>
<asrwt>0</asrwt>
<pdfrwt beam="1">  1       21 0.37841048E-02 0.17709322E+03</pdfrwt>
<pdfrwt beam="2">  1       21 0.28538115E+00 0.17709322E+03</pdfrwt>
<totfact> 0.18098604E+04</totfact>
</mgrwt>
</event>
<event>
 4    1  0.3948468E+000  0.1882713E+03  0.7546771E-02  0.1160030E+00
         21   -1    0    0  501  502  0.00000000000E+00  0.00000000000E+00  0.10816912099E+04  0.10816912099E+04  0.00000000000E+00 0.  1.
         21   -1    0    0  502  503 -0.00000000000E+00 -0.00000000000E+00 -0.43333933490E+02  0.43333933490E+02  0.00000000000E+00 0.  1.
          6    1    1    2  501    0  0.46569859946E+02 -0.57864805769E+02  0.79692523215E+03  0.81886257286E+03  0.17300000000E+03 0.  1.
         -6    1    1    2    0  503 -0.46569859946E+02  0.57864805769E+02  0.24143204431E+03  0.30616257058E+03  0.17300000000E+03 0.  1.
<mgrwt>
<rscale>  2 0.18827131E+03</rscale>
<asrwt>0</asrwt>
<pdfrwt beam="1">  1       21 0.16641401E+00 0.18827131E+03</pdfrwt>
<pdfrwt beam="2">  1       21 0.66667598E-02 0.18827131E+03</pdfrwt>
<totfact> 0.37324877E+04</totfact>
</mgrwt>
</event>
<event>
 4    1  0.3948468E+000  0.2491848E+03  0.7546771E-02  0.1113821E+00
         21   -1    0    0  501  502  0.00000000000E+00  0.00000000000E+00  0.36898304765E+03  0.36898304765E+03  0.00000000000E+00 0. -1.
         21   -1    0    0  502  503 -0.00000000000E+00 -0.00000000000E+00 -0.34403828856E+03  0.34403828856E+03  0.00000000000E+00 0. -1.
          6    1    1    2  501    0  0.11581304780E+03 -0.13693578398E+03  0.26728740132E+03  0.36542526716E+03  0.17300000000E+03 0. -1.
         -6    1    1    2    0  503 -0.11581304780E+03  0.13693578398E+03 -0.24234264223E+03  0.34759606905E+03  0.17300000000E+03 0. -1.
<mgrwt>
<rscale>  2 0.24918481E+03</rscale>
<asrwt>0</asrwt>
<pdfrwt beam="1">  1       21 0.56766623E-01 0.24918481E+03</pdfrwt>
<pdfrwt beam="2">  1       21 0.52928967E-01 0.24918481E+03</pdfrwt>
<totfact> 0.95207973E+03</totfact>
</mgrwt>
</event>
<event>
 4    1  0.3948468E+000  0.2802164E+03  0.7546771E-02  0.1095571E+00
         21   -1    0    0  501  502  0.00000000000E+00  0.00000000000E+00  0.84090026986E+02  0.84090026986E+02  0.00000000000E+00 0.  1.
         21   -1    0    0  502  503 -0.00000000000E+00 -0.00000000000E+00 -0.93445346234E+03  0.93445346234E+03  0.00000000000E+00 0. -1.
          6    1    1    2  501    0  0.15533217186E+03 -0.15641010940E+03 -0.41146413605E+03  0.49781918524E+03  0.17300000000E+03 0.  1.
         -6    1    1    2    0  503 -0.15533217186E+03  0.15641010940E+03 -0.43889929931E+03  0.52072430409E+03  0.17300000000E+03 0. -1.
<mgrwt>
<rscale>  2 0.28021636E+03</rscale>
<asrwt>0</asrwt>
<pdfrwt beam="1">  1       21 0.12936927E-01 0.28021636E+03</pdfrwt>
<pdfrwt beam="2">  1       21 0.14376207E+00 0.28021636E+03</pdfrwt>
<totfact> 0.16269617E+04</totfact>
</mgrwt>
</event>
<event>
 4    1  0.3948468E+000  0.2485979E+03  0.7546771E-02  0.1114194E+00
         21   -1    0    0  501  502  0.00000000000E+00  0.00000000000E+00  0.14871160981E+03  0.14871160981E+03  0.00000000000E+00 0.  1.
         21   -1    0    0  502  503 -0.00000000000E+00 -0.00000000000E+00 -0.62859904785E+03  0.62859904785E+03  0.00000000000E+00 0. -1.
          6    1    1    2  501    0  0.41420814366E+02  0.17365547372E+03 -0.13692184125E+02  0.24897466401E+03  0.17300000000E+03 0.  1.
         -6    1    1    2    0  503 -0.41420814366E+02 -0.17365547372E+03 -0.46619525391E+03  0.52833599365E+03  0.17300000000E+03 0. -1.
<mgrwt>
<rscale>  2 0.24859788E+03</rscale>
<asrwt>0</asrwt>
<pdfrwt beam="1">  1       21 0.22878709E-01 0.24859788E+03</pdfrwt>
<pdfrwt beam="2">  1       21 0.96707545E-01 0.24859788E+03</pdfrwt>
<totfact> 0.15408711E+04</totfact>
</mgrwt>
</event>
<event>
 4    1  0.3948468E+000  0.2853395E+03  0.7546771E-02  0.1092808E+00
         21   -1    0    0  501  502  0.00000000000E+00  0.00000000000E+00  0.59996061716E+02  0.59996061716E+02  0.00000000000E+00 0. -1.
         21   -1    0    0  502  503 -0.00000000000E+00 -0.00000000000E+00 -0.13652664184E+04  0.13652664184E+04  0.00000000000E+00 0.  1.
          6    1    1    2  501    0  0.22130364512E+03  0.50142966048E+02 -0.59740556593E+03  0.66205138063E+03  0.17300000000E+03 0.  1.
         -6    1    1    2    0  503 -0.22130364512E+03 -0.50142966048E+02 -0.70786479073E+03  0.76321109947E+03  0.17300000000E+03 0. -1.
<mgrwt>
<rscale>  2 0.28533948E+03</rscale>
<asrwt>0</asrwt>
<pdfrwt beam="1">  1       21 0.92301642E-02 0.28533948E+03</pdfrwt>
<pdfrwt beam="2">  1       21 0.21004097E+00 0.28533948E+03</pdfrwt>
<totfact> 0.10138821E+04</totfact>
</mgrwt>
</event>
<event>
 4    1  0.3948468E+000  0.2686139E+03  0.7546771E-02  0.1102076E+00
         21   -1    0    0  503  502  0.00000000000E+00  0.00000000000E+00  0.12313280086E+04  0.12313280086E+04  0.00000000000E+00 0. -1.
         21   -1    0    0  501  503 -0.00000000000E+00 -0.00000000000E+00 -0.77226901509E+02  0.77226901509E+02  0.00000000000E+00 0.  1.
          6    1    1    2  501    0  0.16175437970E+02  0.20484818957E+03  0.25570622428E+03  0.37086264128E+03  0.17300000000E+03 0.  1.
         -6    1    1    2    0  502 -0.16175437970E+02 -0.20484818957E+03  0.89839488285E+03  0.93769226887E+03  0.17300000000E+03 0. -1.
<mgrwt>
<rscale>  2 0.26861390E+03</rscale>
<asrwt>0</asrwt>
<pdfrwt beam="1">  1       21 0.18943506E+00 0.26861390E+03</pdfrwt>
<pdfrwt beam="2">  1       21 0.11881063E-01 0.26861390E+03</pdfrwt>
<totfact> 0.88957067E+03</totfact>
</mgrwt>
</event>
<event>
 4    1  0.3948468E+000  0.3041576E+03  0.7546771E-02  0.1083181E+00
         21   -1    0    0  501  502  0.00000000000E+00  0.00000000000E+00  0.10296383627E+04  0.10296383627E+04  0.00000000000E+00 0. -1.
         21   -1    0    0  502  503 -0.00000000000E+00 -0.00000000000E+00 -0.14570140020E+03  0.14570140020E+03  0.00000000000E+00 0. -1.
          6    1    1    2  501    0  0.12119037118E+02 -0.24987190580E+03  0.80581900813E+03  0.86131069553E+03  0.17300000000E+03 0. -1.
         -6    1    1    2    0  503 -0.12119037118E+02  0.24987190580E+03  0.78117954393E+02  0.31402906739E+03  0.17300000000E+03 0. -1.
<mgrwt>
<rscale>  2 0.30415759E+03</rscale>
<asrwt>0</asrwt>
<pdfrwt beam="1">  1       21 0.15840590E+00 0.30415759E+03</pdfrwt>
<pdfrwt beam="2">  1       21 0.22415601E-01 0.30415759E+03</pdfrwt>
<totfact> 0.44577363E+03</totfact>
</mgrwt>
</event>
<event>
 4    1  0.3948468E+000  0.1843287E+03  0.7546771E-02  0.1163678E+00
         21   -1    0    0  503  502  0.00000000000E+00  0.00000000000E+00  0.19008204120E+04  0.19008204120E+04  0.00000000000E+00 0.  1.
         21   -1    0    0  501  503 -0.00000000000E+00 -0.00000000000E+00 -0.26233329506E+02  0.26233329506E+02  0.00000000000E+00 0.  1.
          6    1    1    2  501    0 -0.27896348693E+02  0.57182811989E+02  0.39341988408E+03  0.43446091360E+03  0.17300000000E+03 0.  1.
         -6    1    1    2    0  502  0.27896348693E+02 -0.57182811989E+02  0.14811671984E+04  0.14925928279E+04  0.17300000000E+03 0.  1.
<mgrwt>
<rscale>  2 0.18432873E+03</rscale>
<asrwt>0</asrwt>
<pdfrwt beam="1">  1       21 0.29243380E+00 0.18432873E+03</pdfrwt>
<pdfrwt beam="2">  1       21 0.40358983E-02 0.18432873E+03</pdfrwt>
<totfact> 0.14693070E+04</totfact>
</mgrwt>
</event>
<event>
 4    1  0.3948468E+000  0.1734420E+03  0.7546771E-02  0.1174305E+00
         21   -1    0    0  503  502  0.00000000000E+00  0.00000000000E+00  0.25784680681E+03  0.25784680681E+03  0.00000000000E+00 0. -1.
         21   -1    0    0  501  503 -0.00000000000E+00 -0.00000000000E+00 -0.12468594296E+03  0.12468594296E+03  0.00000000000E+00 0. -1.
          6    1    1    2  501    0 -0.10610473642E+01 -0.12328543409E+02  0.11508675748E+03  0.20815158071E+03  0.17300000000E+03 0.  1.
         -6    1    1    2    0  502  0.10610473642E+01  0.12328543409E+02  0.18074106374E+02  0.17438116907E+03  0.17300000000E+03 0.  1.
<mgrwt>
<rscale>  2 0.17344198E+03</rscale>
<asrwt>0</asrwt>
<pdfrwt beam="1">  1       21 0.39668740E-01 0.17344198E+03</pdfrwt>
<pdfrwt beam="2">  1       21 0.19182453E-01 0.17344198E+03</pdfrwt>
<totfact> 0.15378838E+05</totfact>
</mgrwt>
</event>
<event>
 4    1  0.3948468E+000  0.1789911E+03  0.7546771E-02  0.1168783E+00
         21   -1    0    0  503  502  0.00000000000E+00  0.00000000000E+00  0.53212640061E+03  0.53212640061E+03  0.00000000000E+00 0. -1.
         21   -1    0    0  501  503 -0.00000000000E+00 -0.00000000000E+00 -0.61118700252E+02  0.61118700252E+02  0.00000000000E+00 0. -1.
          6    1    1    2  501    0  0.36094387899E+02 -0.28390176806E+02  0.27172903173E+03  0.32538357927E+03  0.17300000000E+03 0. -1.
         -6    1    1    2    0  502 -0.36094387899E+02  0.28390176806E+02  0.19927866863E+03  0.26786152159E+03  0.17300000000E+03 0. -1.
<mgrwt>
<rscale>  2 0.17899108E+03</rscale>
<asrwt>0</asrwt>
<pdfrwt beam="1">  1       21 0.81865597E-01 0.17899108E+03</pdfrwt>
<pdfrwt beam="2">  1       21 0.94028773E-02 0.17899108E+03</pdfrwt>
<totfact> 0.11867540E+05</totfact>
</mgrwt>
</event>
<event>
 4    1  0.3948468E+000  0.3357879E+03  0.7546771E-02  0.1068604E+00
         21   -1    0    0  503  502  0.00000000000E+00  0.00000000000E+00  0.42789480906E+03  0.42789480906E+03  0.00000000000E+00 0.  1.
         21   -1    0    0  501  503 -0.00000000000E+00 -0.00000000000E+00 -0.26453352153E+03  0.26453352153E+03  0.00000000000E+00 0.  1.
          6    1    1    2  501    0 -0.26248891806E+03  0.11800044846E+03  0.10324118667E+03  0.35130084054E+03  0.17300000000E+03 0.  1.
         -6    1    1    2    0  502  0.26248891806E+03 -0.11800044846E+03  0.60120100856E+02  0.34112749005E+03  0.17300000000E+03 0.  1.
<mgrwt>
<rscale>  2 0.33578794E+03</rscale>
<asrwt>0</asrwt>
<pdfrwt beam="1">  1       21 0.65829971E-01 0.33578794E+03</pdfrwt>
<pdfrwt beam="2">  1       21 0.40697465E-01 0.33578794E+03</pdfrwt>
<totfact> 0.11454783E+04</totfact>
</mgrwt>
</event>
<event>
 4    1  0.3948468E+000  0.2096871E+03  0.7546771E-02  0.1141814E+00
         21   -1    0    0  503  502  0.00000000000E+00  0.00000000000E+00  0.11790276532E+03  0.11790276532E+03  0.00000000000E+00 0. -1.
         21   -1    0    0  501  503 -0.00000000000E+00 -0.00000000000E+00 -0.42667788938E+03  0.42667788938E+03  0.00000000000E+00 0. -1.
          6    1    1    2  501    0 -0.39826926745E+02 -0.11159525327E+03 -0.25103493313E+03  0.32708901281E+03  0.17300000000E+03 0. -1.
         -6    1    1    2    0  502  0.39826926745E+02  0.11159525327E+03 -0.57740190927E+02  0.21749164190E+03  0.17300000000E+03 0. -1.
<mgrwt>
<rscale>  2 0.20968711E+03</rscale>
<asrwt>0</asrwt>
<pdfrwt beam="1">  1       21 0.18138887E-01 0.20968711E+03</pdfrwt>
<pdfrwt beam="2">  1       21 0.65642752E-01 0.20968711E+03</pdfrwt>
<totfact> 0.58576844E+04</totfact>
</mgrwt>
</event>
<event>
 4    1  0.3948468E+000  0.1733815E+03  0.7546771E-02  0.1174367E+00
         21   -1    0    0  503  502  0.00000000000E+00  0.00000000000E+00  0.90335165504E+02  0.90335165504E+02  0.00000000000E+00 0.  1.
         21   -1    0    0  501  503 -0.00000000000E+00 -0.00000000000E+00 -0.10726327945E+04  0.10726327945E+04  0.00000000000E+00 0.  1.
          6    1    1    2  501    0 -0.49104221307E+01  0.10393885956E+02 -0.97408172152E+03  0.98939190684E+03  0.17300000000E+03 0.  1.
         -6    1    1    2    0  502  0.49104221307E+01 -0.10393885956E+02 -0.82159075133E+01  0.17357605321E+03  0.17300000000E+03 0.  1.
<mgrwt>
<rscale>  2 0.17338150E+03</rscale>
<asrwt>0</asrwt>
<pdfrwt beam="1">  1       21 0.13897717E-01 0.17338150E+03</pdfrwt>
<pdfrwt beam="2">  1       21 0.16502044E+00 0.17338150E+03</pdfrwt>
<totfact> 0.10591224E+04</totfact>
</mgrwt>
</event>
<event>
 4    1  0.3948468E+000  0.2093294E+03  0.7546771E-02  0.1142098E+00
         21   -1    0    0  503  502  0.00000000000E+00  0.00000000000E+00  0.20829351129E+03  0.20829351129E+03  0.00000000000E+00 0. -1.
         21   -1    0    0  501  503 -0.00000000000E+00 -0.00000000000E+00 -0.41970718346E+03  0.41970718346E+03  0.00000000000E+00 0. -1.
          6    1    1    2  501    0 -0.63478213246E+02  0.99299080400E+02 -0.32746503852E+03  0.38865427101E+03  0.17300000000E+03 0. -1.
         -6    1    1    2    0  502  0.63478213246E+02 -0.99299080400E+02  0.11605136635E+03  0.23934642374E+03  0.17300000000E+03 0. -1.
<mgrwt>
<rscale>  2 0.20932938E+03</rscale>
<asrwt>0</asrwt>
<pdfrwt beam="1">  1       21 0.32045156E-01 0.20932938E+03</pdfrwt>
<pdfrwt beam="2">  1       21 0.64570336E-01 0.20932938E+03</pdfrwt>
<totfact> 0.20506052E+04</totfact>
</mgrwt>
</event>
<event>
 4    1  0.3948468E+000  0.2593493E+03  0.7546771E-02  0.1107535E+00
         21   -1    0    0  503  502  0.00000000000E+00  0.00000000000E+00  0.10522519397E+04  0.10522519397E+04  0.00000000000E+00 0. -1.
         21   -1    0    0  501  503 -0.00000000000E+00 -0.00000000000E+00 -0.21846189008E+03  0.21846189008E+03  0.00000000000E+00 0. -1.
          6    1    1    2  501    0  0.16559839519E+03 -0.99550044187E+02 -0.11748501584E+03  0.28471875374E+03  0.17300000000E+03 0. -1.
         -6    1    1    2    0  502 -0.16559839519E+03  0.99550044187E+02  0.95127506542E+03  0.98599507599E+03  0.17300000000E+03 0. -1.
<mgrwt>
<rscale>  2 0.25934926E+03</rscale>
<asrwt>0</asrwt>
<pdfrwt beam="1">  1       21 0.16188491E+00 0.25934926E+03</pdfrwt>
<pdfrwt beam="2">  1       21 0.33609522E-01 0.25934926E+03</pdfrwt>
<totfact> 0.19641741E+03</totfact>
</mgrwt>
</event>
<event>
 4    1  0.3948468E+000  0.2344102E+03  0.7546771E-02  0.1123574E+00
         21   -1    0    0  501  502  0.00000000000E+00  0.00000000000E+00  0.52559863067E+03  0.52559863067E+03  0.00000000000E+00 0. -1.
         21   -1    0    0  502  503 -0.00000000000E+00 -0.00000000000E+00 -0.11357862625E+03  0.11357862625E+03  0.00000000000E+00 0. -1.
          6    1    1    2  501    0 -0.45122472440E+02  0.15160183379E+03  0.29614624822E+03  0.37769134735E+03  0.17300000000E+03 0. -1.
         -6    1    1    2    0  503  0.45122472440E+02 -0.15160183379E+03  0.11587375620E+03  0.26148590957E+03  0.17300000000E+03 0. -1.
<mgrwt>
<rscale>  2 0.23441022E+03</rscale>
<asrwt>0</asrwt>
<pdfrwt beam="1">  1       21 0.80861326E-01 0.23441022E+03</pdfrwt>
<pdfrwt beam="2">  1       21 0.17473635E-01 0.23441022E+03</pdfrwt>
<totfact> 0.38992072E+04</totfact>
</mgrwt>
</event>
<event>
 4    1  0.3948468E+000  0.2017323E+03  0.7546771E-02  0.1148286E+00
         21   -1    0    0  501  502  0.00000000000E+00  0.00000000000E+00  0.11378611687E+04  0.11378611687E+04  0.00000000000E+00 0.  1.
         21   -1    0    0  502  503 -0.00000000000E+00 -0.00000000000E+00 -0.66660396688E+02  0.66660396688E+02  0.00000000000E+00 0.  1.
          6    1    1    2  501    0 -0.60813212183E+02 -0.84075399553E+02  0.94561145384E+03  0.96689034602E+03  0.17300000000E+03 0.  1.
         -6    1    1    2    0  503  0.60813212183E+02  0.84075399553E+02  0.12558931819E+03  0.23763121939E+03  0.17300000000E+03 0.  1.
<mgrwt>
<rscale>  2 0.20173230E+03</rscale>
<asrwt>0</asrwt>
<pdfrwt beam="1">  1       21 0.17505555E+00 0.20173230E+03</pdfrwt>
<pdfrwt beam="2">  1       21 0.10255446E-01 0.20173230E+03</pdfrwt>
<totfact> 0.15165909E+04</totfact>
</mgrwt>
</event>
<event>
 4    1  0.3948468E+000  0.2639395E+03  0.7546771E-02  0.1104799E+00
         21   -1    0    0  503  502  0.00000000000E+00  0.00000000000E+00  0.40052553823E+02  0.40052553823E+02  0.00000000000E+00 0.  1.
         21   -1    0    0  501  503 -0.00000000000E+00 -0.00000000000E+00 -0.20661680012E+04  0.20661680012E+04  0.00000000000E+00 0. -1.
          6    1    1    2  501    0  0.19920559965E+03 -0.72226614677E+01 -0.59419976255E+03  0.65018258634E+03  0.17300000000E+03 0.  1.
         -6    1    1    2    0  502 -0.19920559965E+03  0.72226614677E+01 -0.14319156848E+04  0.14560379686E+04  0.17300000000E+03 0. -1.
<mgrwt>
<rscale>  2 0.26393946E+03</rscale>
<asrwt>0</asrwt>
<pdfrwt beam="1">  1       21 0.61619309E-02 0.26393946E+03</pdfrwt>
<pdfrwt beam="2">  1       21 0.31787202E+00 0.26393946E+03</pdfrwt>
<totfact> 0.47129345E+03</totfact>
</mgrwt>
</event>
<event>
 4    1  0.3948468E+000  0.1907576E+03  0.7546771E-02  0.1157780E+00
         21   -1    0    0  501  502  0.00000000000E+00  0.00000000000E+00  0.93504522924E+02  0.93504522924E+02  0.00000000000E+00 0. -1.
         21   -1    0    0  502  503 -0.00000000000E+00 -0.00000000000E+00 -0.55795719220E+03  0.55795719220E+03  0.00000000000E+00 0.  1.
          6    1    1    2  501    0  0.64048664010E+02 -0.48551393101E+02 -0.53067740425E+02  0.19800165203E+03  0.17300000000E+03 0. -1.
         -6    1    1    2    0  503 -0.64048664010E+02  0.48551393101E+02 -0.41138492885E+03  0.45346006309E+03  0.17300000000E+03 0.  1.
<mgrwt>
<rscale>  2 0.19075762E+03</rscale>
<asrwt>0</asrwt>
<pdfrwt beam="1">  1       21 0.14385311E-01 0.19075762E+03</pdfrwt>
<pdfrwt beam="2">  1       21 0.85839570E-01 0.19075762E+03</pdfrwt>
<totfact> 0.49638801E+04</totfact>
</mgrwt>
</event>
<event>
 4    1  0.3948468E+000  0.1783134E+03  0.7546771E-02  0.1169445E+00
         21   -1    0    0  501  502  0.00000000000E+00  0.00000000000E+00  0.69518411550E+02  0.69518411550E+02  0.00000000000E+00 0. -1.
         21   -1    0    0  502  503 -0.00000000000E+00 -0.00000000000E+00 -0.47151083418E+03  0.47151083418E+03  0.00000000000E+00 0. -1.
          6    1    1    2  501    0  0.38183024613E+02  0.20217362276E+02 -0.15415031515E+03  0.23570745590E+03  0.17300000000E+03 0. -1.
         -6    1    1    2    0  503 -0.38183024613E+02 -0.20217362276E+02 -0.24784210748E+03  0.30532178983E+03  0.17300000000E+03 0. -1.
<mgrwt>
<rscale>  2 0.17831345E+03</rscale>
<asrwt>0</asrwt>
<pdfrwt beam="1">  1       21 0.10695140E-01 0.17831345E+03</pdfrwt>
<pdfrwt beam="2">  1       21 0.72540130E-01 0.17831345E+03</pdfrwt>
<totfact> 0.12400997E+05</totfact>
</mgrwt>
</event>
<event>
 4    1  0.3948468E+000  0.2245771E+03  0.7546771E-02  0.1130516E+00
         21   -1    0    0  501  502  0.00000000000E+00  0.00000000000E+00  0.79763369000E+02  0.79763369000E+02  0.00000000000E+00 0. -1.
         21   -1    0    0  502  503 -0.00000000000E+00 -0.00000000000E+00 -0.78910993374E+03  0.78910993374E+03  0.00000000000E+00 0. -1.
          6    1    1    2  501    0 -0.77588256976E+02 -0.12035747150E+03 -0.16101496756E+03  0.27633435969E+03  0.17300000000E+03 0. -1.
         -6    1    1    2    0  503  0.77588256976E+02  0.12035747150E+03 -0.54833159718E+03  0.59253894305E+03  0.17300000000E+03 0. -1.
<mgrwt>
<rscale>  2 0.22457707E+03</rscale>
<asrwt>0</asrwt>
<pdfrwt beam="1">  1       21 0.12271288E-01 0.22457707E+03</pdfrwt>
<pdfrwt beam="2">  1       21 0.12140153E+00 0.22457707E+03</pdfrwt>
<totfact> 0.28401225E+04</totfact>
</mgrwt>
</event>
<event>
 4    1  0.3948468E+000  0.1772475E+03  0.7546771E-02  0.1170494E+00
         21   -1    0    0  501  502  0.00000000000E+00  0.00000000000E+00  0.15259325352E+03  0.15259325352E+03  0.00000000000E+00 0. -1.
         21   -1    0    0  502  503 -0.00000000000E+00 -0.00000000000E+00 -0.20780010195E+03  0.20780010195E+03  0.00000000000E+00 0. -1.
          6    1    1    2  501    0 -0.26988743621E+02  0.27555116732E+02 -0.44901942214E+02  0.18284655084E+03  0.17300000000E+03 0. -1.
         -6    1    1    2    0  503  0.26988743621E+02 -0.27555116732E+02 -0.10304906220E+02  0.17754680463E+03  0.17300000000E+03 0. -1.
<mgrwt>
<rscale>  2 0.17724750E+03</rscale>
<asrwt>0</asrwt>
<pdfrwt beam="1">  1       21 0.23475885E-01 0.17724750E+03</pdfrwt>
<pdfrwt beam="2">  1       21 0.31969247E-01 0.17724750E+03</pdfrwt>
<totfact> 0.16143096E+05</totfact>
</mgrwt>
</event>
<event>
 4    1  0.3948468E+000  0.1822061E+03  0.7546771E-02  0.1165685E+00
         21   -1    0    0  501  502  0.00000000000E+00  0.00000000000E+00  0.66249678090E+03  0.66249678090E+03  0.00000000000E+00 0.  1.
         21   -1    0    0  502  503 -0.00000000000E+00 -0.00000000000E+00 -0.17192169226E+03  0.17192169226E+03  0.00000000000E+00 0. -1.
          6    1    1    2  501    0  0.55690185147E+02 -0.12987678817E+02  0.59646723922E+03  0.62367639364E+03  0.17300000000E+03 0.  1.
         -6    1    1    2    0  503 -0.55690185147E+02  0.12987678817E+02 -0.10589215059E+03  0.21074207952E+03  0.17300000000E+03 0. -1.
<mgrwt>
<rscale>  2 0.18220614E+03</rscale>
<asrwt>0</asrwt>
<pdfrwt beam="1">  1       21 0.10192258E+00 0.18220614E+03</pdfrwt>
<pdfrwt beam="2">  1       21 0.26449491E-01 0.18220614E+03</pdfrwt>
<totfact> 0.10746100E+04</totfact>
</mgrwt>
</event>
<event>
 4    1  0.3948468E+000  0.1797135E+03  0.7546771E-02  0.1168081E+00
         21   -1    0    0  503  502  0.00000000000E+00  0.00000000000E+00  0.48479636104E+02  0.48479636104E+02  0.00000000000E+00 0. -1.
         21   -1    0    0  501  503 -0.00000000000E+00 -0.00000000000E+00 -0.90583638346E+03  0.90583638346E+03  0.00000000000E+00 0. -1.
          6    1    1    2  501    0 -0.22328127569E+02  0.43236488959E+02 -0.67410255367E+03  0.69764689645E+03  0.17300000000E+03 0. -1.
         -6    1    1    2    0  502  0.22328127569E+02 -0.43236488959E+02 -0.18325419369E+03  0.25666912312E+03  0.17300000000E+03 0. -1.
<mgrwt>
<rscale>  2 0.17971349E+03</rscale>
<asrwt>0</asrwt>
<pdfrwt beam="1">  1       21 0.74584061E-02 0.17971349E+03</pdfrwt>
<pdfrwt beam="2">  1       21 0.13935943E+00 0.17971349E+03</pdfrwt>
<totfact> 0.49427710E+04</totfact>
</mgrwt>
</event>
<event>
 4    1  0.3948468E+000  0.2191062E+03  0.7546771E-02  0.1134551E+00
         21   -1    0    0  503  502  0.00000000000E+00  0.00000000000E+00  0.15600084404E+04  0.15600084404E+04  0.00000000000E+00 0.  1.
         21   -1    0    0  501  503 -0.00000000000E+00 -0.00000000000E+00 -0.76800129271E+02  0.76800129271E+02  0.00000000000E+00 0.  1.
          6    1    1    2  501    0  0.11070625853E+03 -0.76306418231E+02  0.10804143796E+03  0.24429592190E+03  0.17300000000E+03 0.  1.
         -6    1    1    2    0  502 -0.11070625853E+03  0.76306418231E+02  0.13751668732E+04  0.13925126478E+04  0.17300000000E+03 0.  1.
<mgrwt>
<rscale>  2 0.21910624E+03</rscale>
<asrwt>0</asrwt>
<pdfrwt beam="1">  1       21 0.24000128E+00 0.21910624E+03</pdfrwt>
<pdfrwt beam="2">  1       21 0.11815406E-01 0.21910624E+03</pdfrwt>
<totfact> 0.44787960E+03</totfact>
</mgrwt>
</event>
<event>
 4    1  0.3948468E+000  0.1856764E+03  0.7546771E-02  0.1162420E+00
         21   -1    0    0  503  502  0.00000000000E+00  0.00000000000E+00  0.65236128771E+03  0.65236128771E+03  0.00000000000E+00 0.  1.
         21   -1    0    0  501  503 -0.00000000000E+00 -0.00000000000E+00 -0.81968096185E+02  0.81968096185E+02  0.00000000000E+00 0.  1.
          6    1    1    2  501    0 -0.27468862436E+02 -0.61580735232E+02  0.66350951619E+02  0.19717549071E+03  0.17300000000E+03 0.  1.
         -6    1    1    2    0  502  0.27468862436E+02  0.61580735232E+02  0.50404223990E+03  0.53715389318E+03  0.17300000000E+03 0.  1.
<mgrwt>
<rscale>  2 0.18567640E+03</rscale>
<asrwt>0</asrwt>
<pdfrwt beam="1">  1       21 0.10036327E+00 0.18567640E+03</pdfrwt>
<pdfrwt beam="2">  1       21 0.12610477E-01 0.18567640E+03</pdfrwt>
<totfact> 0.43854782E+04</totfact>
</mgrwt>
</event>
<event>
 4    1  0.3948468E+000  0.3021247E+03  0.7546771E-02  0.1084183E+00
         21   -1    0    0  503  502  0.00000000000E+00  0.00000000000E+00  0.53684546954E+03  0.53684546954E+03  0.00000000000E+00 0. -1.
         21   -1    0    0  501  503 -0.00000000000E+00 -0.00000000000E+00 -0.29161390155E+03  0.29161390155E+03  0.00000000000E+00 0.  1.
          6    1    1    2  501    0  0.10837697238E+03 -0.22272133572E+03 -0.14485522804E+03  0.33505581418E+03  0.17300000000E+03 0.  1.
         -6    1    1    2    0  502 -0.10837697238E+03  0.22272133572E+03  0.39008679603E+03  0.49340355690E+03  0.17300000000E+03 0. -1.
<mgrwt>
<rscale>  2 0.30212474E+03</rscale>
<asrwt>0</asrwt>
<pdfrwt beam="1">  1       21 0.82591611E-01 0.30212474E+03</pdfrwt>
<pdfrwt beam="2">  1       21 0.44863677E-01 0.30212474E+03</pdfrwt>
<totfact> 0.57003150E+03</totfact>
</mgrwt>
</event>
<event>
 4    1  0.3948468E+000  0.5293146E+03  0.7546771E-02  0.1006398E+00
         21   -1    0    0  501  502  0.00000000000E+00  0.00000000000E+00  0.17361309751E+03  0.17361309751E+03  0.00000000000E+00 0. -1.
         21   -1    0    0  502  503 -0.00000000000E+00 -0.00000000000E+00 -0.16519649317E+04  0.16519649317E+04  0.00000000000E+00 0.  1.
          6    1    1    2  501    0  0.12768080824E+03  0.48367614092E+03 -0.87794559889E+03  0.10251646076E+04  0.17300000000E+03 0.  1.
         -6    1    1    2    0  503 -0.12768080824E+03 -0.48367614092E+03 -0.60040623532E+03  0.80041342162E+03  0.17300000000E+03 0. -1.
<mgrwt>
<rscale>  2 0.52931465E+03</rscale>
<asrwt>0</asrwt>
<pdfrwt beam="1">  1       21 0.26709706E-01 0.52931465E+03</pdfrwt>
<pdfrwt beam="2">  1       21 0.25414846E+00 0.52931465E+03</pdfrwt>
<totfact> 0.65790078E+02</totfact>
</mgrwt>
</event>
<event>
 4    1  0.3948468E+000  0.3617876E+03  0.7546771E-02  0.1057878E+00
         21   -1    0    0  501  502  0.00000000000E+00  0.00000000000E+00  0.89600083503E+03  0.89600083503E+03  0.00000000000E+00 0.  1.
         21   -1    0    0  502  503 -0.00000000000E+00 -0.00000000000E+00 -0.17286481458E+03  0.17286481458E+03  0.00000000000E+00 0. -1.
          6    1    1    2  501    0 -0.14713453394E+03  0.28162509025E+03  0.57192738917E+03  0.67675047175E+03  0.17300000000E+03 0.  1.
         -6    1    1    2    0  503  0.14713453394E+03 -0.28162509025E+03  0.15120863128E+03  0.39211517786E+03  0.17300000000E+03 0. -1.
<mgrwt>
<rscale>  2 0.36178759E+03</rscale>
<asrwt>0</asrwt>
<pdfrwt beam="1">  1       21 0.13784628E+00 0.36178759E+03</pdfrwt>
<pdfrwt beam="2">  1       21 0.26594588E-01 0.36178759E+03</pdfrwt>
<totfact> 0.45204615E+03</totfact>
</mgrwt>
</event>
<event>
 4    1  0.3948468E+000  0.1994839E+03  0.7546771E-02  0.1150175E+00
         21   -1    0    0  501  502  0.00000000000E+00  0.00000000000E+00  0.16134119296E+03  0.16134119296E+03  0.00000000000E+00 0. -1.
         21   -1    0    0  502  503 -0.00000000000E+00 -0.00000000000E+00 -0.33437695107E+03  0.33437695107E+03  0.00000000000E+00 0. -1.
          6    1    1    2  501    0  0.42343695406E+02 -0.89843498458E+02  0.40442419890E+02  0.20354221204E+03  0.17300000000E+03 0. -1.
         -6    1    1    2    0  503 -0.42343695406E+02  0.89843498458E+02 -0.21347817800E+03  0.29217593200E+03  0.17300000000E+03 0. -1.
<mgrwt>
<rscale>  2 0.19948394E+03</rscale>
<asrwt>0</asrwt>
<pdfrwt beam="1">  1       21 0.24821722E-01 0.19948394E+03</pdfrwt>
<pdfrwt beam="2">  1       21 0.51442607E-01 0.19948394E+03</pdfrwt>
<totfact> 0.54953503E+04</totfact>
</mgrwt>
</event>
<event>
 4    1  0.3948468E+000  0.1731190E+03  0.7546771E-02  0.1174634E+00
         21   -1    0    0  501  502  0.00000000000E+00  0.00000000000E+00  0.56086369023E+03  0.56086369023E+03  0.00000000000E+00 0. -1.
         21   -1    0    0  502  503 -0.00000000000E+00 -0.00000000000E+00 -0.91226246163E+02  0.91226246163E+02  0.00000000000E+00 0. -1.
          6    1    1    2  501    0 -0.53951841822E+01 -0.34779368883E+01  0.44466852596E+03  0.47717952810E+03  0.17300000000E+03 0. -1.
         -6    1    1    2    0  503  0.53951841822E+01  0.34779368883E+01  0.24968918105E+02  0.17491040829E+03  0.17300000000E+03 0. -1.
<mgrwt>
<rscale>  2 0.17311905E+03</rscale>
<asrwt>0</asrwt>
<pdfrwt beam="1">  1       21 0.86286720E-01 0.17311905E+03</pdfrwt>
<pdfrwt beam="2">  1       21 0.14034807E-01 0.17311905E+03</pdfrwt>
<totfact> 0.51739426E+04</totfact>
</mgrwt>
</event>
<event>
 4    1  0.3948468E+000  0.4837289E+03  0.7546771E-02  0.1018115E+00
         21   -1    0    0  503  502  0.00000000000E+00  0.00000000000E+00  0.54917198060E+03  0.54917198060E+03  0.00000000000E+00 0.  1.
         21   -1    0    0  501  503 -0.00000000000E+00 -0.00000000000E+00 -0.11253048438E+04  0.11253048438E+04  0.00000000000E+00 0. -1.
          6    1    1    2  501    0  0.31755571057E+03 -0.32128338059E+03 -0.94803172219E+03  0.10643109443E+04  0.17300000000E+03 0. -1.
         -6    1    1    2    0  502 -0.31755571057E+03  0.32128338059E+03  0.37189885894E+03  0.61016588010E+03  0.17300000000E+03 0.  1.
<mgrwt>
<rscale>  2 0.48372889E+03</rscale>
<asrwt>0</asrwt>
<pdfrwt beam="1">  1       21 0.84487998E-01 0.48372889E+03</pdfrwt>
<pdfrwt beam="2">  1       21 0.17312382E+00 0.48372889E+03</pdfrwt>
<totfact> 0.19710389E+02</totfact>
</mgrwt>
</event>
<event>
 4    1  0.3948468E+000  0.1813253E+03  0.7546771E-02  0.1166527E+00
         21   -1    0    0  503  502  0.00000000000E+00  0.00000000000E+00  0.81857491364E+03  0.81857491364E+03  0.00000000000E+00 0. -1.
         21   -1    0    0  501  503 -0.00000000000E+00 -0.00000000000E+00 -0.40226794785E+02  0.40226794785E+02  0.00000000000E+00 0.  1.
          6    1    1    2  501    0  0.54081427142E+02 -0.50077127116E+01  0.37248056623E+03  0.41427122779E+03  0.17300000000E+03 0.  1.
         -6    1    1    2    0  502 -0.54081427142E+02  0.50077127116E+01  0.40586755262E+03  0.44453048064E+03  0.17300000000E+03 0.  1.
<mgrwt>
<rscale>  2 0.18132534E+03</rscale>
<asrwt>0</asrwt>
<pdfrwt beam="1">  1       21 0.12593459E+00 0.18132534E+03</pdfrwt>
<pdfrwt beam="2">  1       21 0.61887383E-02 0.18132534E+03</pdfrwt>
<totfact> 0.88002581E+04</totfact>
</mgrwt>
</event>
<event>
 4    1  0.3948468E+000  0.1740911E+03  0.7546771E-02  0.1173647E+00
         21   -1    0    0  503  502  0.00000000000E+00  0.00000000000E+00  0.16276747561E+03  0.16276747561E+03  0.00000000000E+00 0.  1.
         21   -1    0    0  501  503 -0.00000000000E+00 -0.00000000000E+00 -0.42883507833E+03  0.42883507833E+03  0.00000000000E+00 0.  1.
          6    1    1    2  501    0  0.17131497603E+02 -0.92310695517E+01 -0.35553353977E+03  0.39586841091E+03  0.17300000000E+03 0.  1.
         -6    1    1    2    0  502 -0.17131497603E+02  0.92310695517E+01  0.89465937046E+02  0.19573414303E+03  0.17300000000E+03 0.  1.
<mgrwt>
<rscale>  2 0.17409107E+03</rscale>
<asrwt>0</asrwt>
<pdfrwt beam="1">  1       21 0.25041150E-01 0.17409107E+03</pdfrwt>
<pdfrwt beam="2">  1       21 0.65974627E-01 0.17409107E+03</pdfrwt>
<totfact> 0.32180982E+04</totfact>
</mgrwt>
</event>
<event>
 4    1  0.3948468E+000  0.2037065E+03  0.7546771E-02  0.1146649E+00
         21   -1    0    0  503  502  0.00000000000E+00  0.00000000000E+00  0.55184533908E+03  0.55184533908E+03  0.00000000000E+00 0. -1.
         21   -1    0    0  501  503 -0.00000000000E+00 -0.00000000000E+00 -0.75700567977E+02  0.75700567977E+02  0.00000000000E+00 0.  1.
          6    1    1    2  501    0 -0.10700685516E+03 -0.10811634021E+02  0.26369860428E+03  0.33321661480E+03  0.17300000000E+03 0. -1.
         -6    1    1    2    0  502  0.10700685516E+03  0.10811634021E+02  0.21244616682E+03  0.29432929225E+03  0.17300000000E+03 0.  1.
<mgrwt>
<rscale>  2 0.20370655E+03</rscale>
<asrwt>0</asrwt>
<pdfrwt beam="1">  1       21 0.84899280E-01 0.20370655E+03</pdfrwt>
<pdfrwt beam="2">  1       21 0.11646242E-01 0.20370655E+03</pdfrwt>
<totfact> 0.74005666E+04</totfact>
</mgrwt>
</event>
<event>
 4    1  0.3948468E+000  0.1996869E+03  0.7546771E-02  0.1150003E+00
         21   -1    0    0  503  502  0.00000000000E+00  0.00000000000E+00  0.10212162481E+04  0.10212162481E+04  0.00000000000E+00 0. -1.
         21   -1    0    0  501  503 -0.00000000000E+00 -0.00000000000E+00 -0.39235798492E+02  0.39235798492E+02  0.00000000000E+00 0. -1.
          6    1    1    2  501    0  0.47187013954E+02 -0.87859163326E+02  0.52782650465E+03  0.56433648285E+03  0.17300000000E+03 0. -1.
         -6    1    1    2    0  502 -0.47187013954E+02  0.87859163326E+02  0.45415394498E+03  0.49611556377E+03  0.17300000000E+03 0. -1.
<mgrwt>
<rscale>  2 0.19968687E+03</rscale>
<asrwt>0</asrwt>
<pdfrwt beam="1">  1       21 0.15711017E+00 0.19968687E+03</pdfrwt>
<pdfrwt beam="2">  1       21 0.60362775E-02 0.19968687E+03</pdfrwt>
<totfact> 0.51378023E+04</totfact>
</mgrwt>
</event>
<event>
 4    1  0.3948468E+000  0.3445979E+03  0.7546771E-02  0.1064854E+00
         21   -1    0    0  501  502  0.00000000000E+00  0.00000000000E+00  0.11370638481E+04  0.11370638481E+04  0.00000000000E+00 0. -1.
         21   -1    0    0  502  503 -0.00000000000E+00 -0.00000000000E+00 -0.13144205158E+03  0.13144205158E+03  0.00000000000E+00 0.  1.
          6    1    1    2  501    0 -0.75156161997E+02  0.28839252769E+03  0.79031561832E+03  0.86217543185E+03  0.17300000000E+03 0. -1.
         -6    1    1    2    0  503  0.75156161997E+02 -0.28839252769E+03  0.21530617820E+03  0.40633046783E+03  0.17300000000E+03 0.  1.
<mgrwt>
<rscale>  2 0.34459788E+03</rscale>
<asrwt>0</asrwt>
<pdfrwt beam="1">  1       21 0.17493289E+00 0.34459788E+03</pdfrwt>
<pdfrwt beam="2">  1       21 0.20221855E-01 0.34459788E+03</pdfrwt>
<totfact> 0.40225557E+03</totfact>
</mgrwt>
</event>
<event>
 4    1  0.3948468E+000  0.1787692E+03  0.7546771E-02  0.1169000E+00
         21   -1    0    0  501  502  0.00000000000E+00  0.00000000000E+00  0.22855637127E+03  0.22855637127E+03  0.00000000000E+00 0.  1.
         21   -1    0    0  502  503 -0.00000000000E+00 -0.00000000000E+00 -0.77629062072E+03  0.77629062072E+03  0.00000000000E+00 0.  1.
          6    1    1    2  501    0 -0.32113430803E+02 -0.31593862326E+02  0.18106271669E+03  0.25444479155E+03  0.17300000000E+03 0.  1.
         -6    1    1    2    0  503  0.32113430803E+02  0.31593862326E+02 -0.72879696614E+03  0.75040220044E+03  0.17300000000E+03 0.  1.
<mgrwt>
<rscale>  2 0.17876925E+03</rscale>
<asrwt>0</asrwt>
<pdfrwt beam="1">  1       21 0.35162519E-01 0.17876925E+03</pdfrwt>
<pdfrwt beam="2">  1       21 0.11942932E+00 0.17876925E+03</pdfrwt>
<totfact> 0.42160584E+03</totfact>
</mgrwt>
</event>
<event>
 4    1  0.3948468E+000  0.2210678E+03  0.7546771E-02  0.1133089E+00
         21   -1    0    0  501  502  0.00000000000E+00  0.00000000000E+00  0.33057685973E+02  0.33057685973E+02  0.00000000000E+00 0.  1.
         21   -1    0    0  502  503 -0.00000000000E+00 -0.00000000000E+00 -0.16445176297E+04  0.16445176297E+04  0.00000000000E+00 0.  1.
          6    1    1    2  501    0 -0.13193962695E+03 -0.39164961586E+02 -0.53910497393E+03  0.58267068941E+03  0.17300000000E+03 0.  1.
         -6    1    1    2    0  503  0.13193962695E+03  0.39164961586E+02 -0.10723549698E+04  0.10949046263E+04  0.17300000000E+03 0.  1.
<mgrwt>
<rscale>  2 0.22106777E+03</rscale>
<asrwt>0</asrwt>
<pdfrwt beam="1">  1       21 0.50857988E-02 0.22106777E+03</pdfrwt>
<pdfrwt beam="2">  1       21 0.25300267E+00 0.22106777E+03</pdfrwt>
<totfact> 0.16281318E+04</totfact>
</mgrwt>
</event>
<event>
 4    1  0.3948468E+000  0.2188675E+03  0.7546771E-02  0.1134730E+00
         21   -1    0    0  503  502  0.00000000000E+00  0.00000000000E+00  0.18246867415E+03  0.18246867415E+03  0.00000000000E+00 0. -1.
         21   -1    0    0  501  503 -0.00000000000E+00 -0.00000000000E+00 -0.55401535703E+03  0.55401535703E+03  0.00000000000E+00 0.  1.
          6    1    1    2  501    0  0.10072085558E+03 -0.88483220945E+02 -0.45287892833E+03  0.50299333481E+03  0.17300000000E+03 0.  1.
         -6    1    1    2    0  502 -0.10072085558E+03  0.88483220945E+02  0.81332245448E+02  0.23349069636E+03  0.17300000000E+03 0. -1.
<mgrwt>
<rscale>  2 0.21886747E+03</rscale>
<asrwt>0</asrwt>
<pdfrwt beam="1">  1       21 0.28072104E-01 0.21886747E+03</pdfrwt>
<pdfrwt beam="2">  1       21 0.85233131E-01 0.21886747E+03</pdfrwt>
<totfact> 0.14197712E+04</totfact>
</mgrwt>
</event>
<event>
 4    1  0.3948468E+000  0.2604458E+03  0.7546771E-02  0.1106876E+00
         21   -1    0    0  503  502  0.00000000000E+00  0.00000000000E+00  0.22519162153E+03  0.22519162153E+03  0.00000000000E+00 0. -1.
         21   -1    0    0  501  503 -0.00000000000E+00 -0.00000000000E+00 -0.30762264235E+03  0.30762264235E+03  0.00000000000E+00 0. -1.
          6    1    1    2  501    0 -0.81617237843E+02  0.17675298949E+03 -0.27784143498E+01  0.26046057743E+03  0.17300000000E+03 0. -1.
         -6    1    1    2    0  502  0.81617237843E+02 -0.17675298949E+03 -0.79652606464E+02  0.27235368645E+03  0.17300000000E+03 0. -1.
<mgrwt>
<rscale>  2 0.26044576E+03</rscale>
<asrwt>0</asrwt>
<pdfrwt beam="1">  1       21 0.34644865E-01 0.26044576E+03</pdfrwt>
<pdfrwt beam="2">  1       21 0.47326560E-01 0.26044576E+03</pdfrwt>
<totfact> 0.33202932E+04</totfact>
</mgrwt>
</event>
<event>
 4    1  0.3948468E+000  0.1800231E+03  0.7546771E-02  0.1167781E+00
         21   -1    0    0  503  502  0.00000000000E+00  0.00000000000E+00  0.12151473477E+04  0.12151473477E+04  0.00000000000E+00 0.  1.
         21   -1    0    0  501  503 -0.00000000000E+00 -0.00000000000E+00 -0.41990400006E+02  0.41990400006E+02  0.00000000000E+00 0.  1.
          6    1    1    2  501    0  0.40490120461E+02  0.28980633249E+02  0.20690621339E+03  0.27425992798E+03  0.17300000000E+03 0.  1.
         -6    1    1    2    0  502 -0.40490120461E+02 -0.28980633249E+02  0.96625073435E+03  0.98287781977E+03  0.17300000000E+03 0.  1.
<mgrwt>
<rscale>  2 0.18002313E+03</rscale>
<asrwt>0</asrwt>
<pdfrwt beam="1">  1       21 0.18694572E+00 0.18002313E+03</pdfrwt>
<pdfrwt beam="2">  1       21 0.64600625E-02 0.18002313E+03</pdfrwt>
<totfact> 0.28635801E+04</totfact>
</mgrwt>
</event>
<event>
 4    1  0.3948468E+000  0.2329637E+03  0.7546771E-02  0.1124571E+00
         21   -1    0    0  503  502  0.00000000000E+00  0.00000000000E+00  0.11516241640E+03  0.11516241640E+03  0.00000000000E+00 0. -1.
         21   -1    0    0  501  503 -0.00000000000E+00 -0.00000000000E+00 -0.55279979474E+03  0.55279979474E+03  0.00000000000E+00 0.  1.
          6    1    1    2  501    0 -0.11897293061E+03 -0.10093813814E+03 -0.90553649087E+02  0.24994405237E+03  0.17300000000E+03 0. -1.
         -6    1    1    2    0  502  0.11897293061E+03  0.10093813814E+03 -0.34708372925E+03  0.41801815877E+03  0.17300000000E+03 0.  1.
<mgrwt>
<rscale>  2 0.23296366E+03</rscale>
<asrwt>0</asrwt>
<pdfrwt beam="1">  1       21 0.17717295E-01 0.23296366E+03</pdfrwt>
<pdfrwt beam="2">  1       21 0.85046122E-01 0.23296366E+03</pdfrwt>
<totfact> 0.33881938E+04</totfact>
</mgrwt>
</event>
<event>
 4    1  0.3948468E+000  0.1884794E+03  0.7546771E-02  0.1159840E+00
         21   -1    0    0  501  502  0.00000000000E+00  0.00000000000E+00  0.68201602783E+02  0.68201602783E+02  0.00000000000E+00 0.  1.
         21   -1    0    0  502  503 -0.00000000000E+00 -0.00000000000E+00 -0.12187848959E+04  0.12187848959E+04  0.00000000000E+00 0.  1.
          6    1    1    2  501    0  0.11196113518E+02 -0.73960234381E+02 -0.88346179913E+02  0.20815743257E+03  0.17300000000E+03 0.  1.
         -6    1    1    2    0  503 -0.11196113518E+02  0.73960234381E+02 -0.10622371132E+04  0.10788290661E+04  0.17300000000E+03 0.  1.
<mgrwt>
<rscale>  2 0.18847936E+03</rscale>
<asrwt>0</asrwt>
<pdfrwt beam="1">  1       21 0.10492555E-01 0.18847936E+03</pdfrwt>
<pdfrwt beam="2">  1       21 0.18750536E+00 0.18847936E+03</pdfrwt>
<totfact> 0.12114319E+04</totfact>
</mgrwt>
</event>
<event>
 4    1  0.3948468E+000  0.2742913E+03  0.7546771E-02  0.1098848E+00
         21   -1    0    0  501  502  0.00000000000E+00  0.00000000000E+00  0.13779344340E+03  0.13779344340E+03  0.00000000000E+00 0. -1.
         21   -1    0    0  502  503 -0.00000000000E+00 -0.00000000000E+00 -0.69361066603E+03  0.69361066603E+03  0.00000000000E+00 0.  1.
          6    1    1    2  501    0 -0.16706152816E+03  0.13189828622E+03 -0.86139830634E+02  0.28749918699E+03  0.17300000000E+03 0. -1.
         -6    1    1    2    0  503  0.16706152816E+03 -0.13189828622E+03 -0.46967739199E+03  0.54390492243E+03  0.17300000000E+03 0.  1.
<mgrwt>
<rscale>  2 0.27429129E+03</rscale>
<asrwt>0</asrwt>
<pdfrwt beam="1">  1       21 0.21198991E-01 0.27429129E+03</pdfrwt>
<pdfrwt beam="2">  1       21 0.10670933E+00 0.27429129E+03</pdfrwt>
<totfact> 0.13876398E+04</totfact>
</mgrwt>
</event>
<event>
 4    1  0.3948468E+000  0.2720620E+03  0.7546771E-02  0.1100105E+00
         21   -1    0    0  503  502  0.00000000000E+00  0.00000000000E+00  0.10599374671E+03  0.10599374671E+03  0.00000000000E+00 0. -1.
         21   -1    0    0  501  503 -0.00000000000E+00 -0.00000000000E+00 -0.19921217736E+04  0.19921217736E+04  0.00000000000E+00 0. -1.
          6    1    1    2  501    0 -0.20831728550E+03 -0.26318384920E+02 -0.97639140524E+02  0.28905215893E+03  0.17300000000E+03 0. -1.
         -6    1    1    2    0  502  0.20831728550E+03  0.26318384920E+02 -0.17884888864E+04  0.18090633614E+04  0.17300000000E+03 0. -1.
<mgrwt>
<rscale>  2 0.27206203E+03</rscale>
<asrwt>0</asrwt>
<pdfrwt beam="1">  1       21 0.16306731E-01 0.27206203E+03</pdfrwt>
<pdfrwt beam="2">  1       21 0.30648026E+00 0.27206203E+03</pdfrwt>
<totfact> 0.96296364E+02</totfact>
</mgrwt>
</event>
<event>
 4    1  0.3948468E+000  0.1919805E+03  0.7546771E-02  0.1156687E+00
         21   -1    0    0  503  502  0.00000000000E+00  0.00000000000E+00  0.18913292154E+03  0.18913292154E+03  0.00000000000E+00 0. -1.
         21   -1    0    0  501  503 -0.00000000000E+00 -0.00000000000E+00 -0.21528265852E+03  0.21528265852E+03  0.00000000000E+00 0.  1.
          6    1    1    2  501    0 -0.40787116651E+02 -0.72553016766E+02  0.49188423624E+02  0.19818181083E+03  0.17300000000E+03 0. -1.
         -6    1    1    2    0  502  0.40787116651E+02  0.72553016766E+02 -0.75338160598E+02  0.20623376923E+03  0.17300000000E+03 0. -1.
<mgrwt>
<rscale>  2 0.19198054E+03</rscale>
<asrwt>0</asrwt>
<pdfrwt beam="1">  1       21 0.29097373E-01 0.19198054E+03</pdfrwt>
<pdfrwt beam="2">  1       21 0.33120409E-01 0.19198054E+03</pdfrwt>
<totfact> 0.99291549E+04</totfact>
</mgrwt>
</event>
<event>
 4    1  0.3948468E+000  0.1978531E+03  0.7546771E-02  0.1151563E+00
         21   -1    0    0  503  502  0.00000000000E+00  0.00000000000E+00  0.13257383517E+03  0.13257383517E+03  0.00000000000E+00 0.  1.
         21   -1    0    0  501  503 -0.00000000000E+00 -0.00000000000E+00 -0.29577723763E+03  0.29577723763E+03  0.00000000000E+00 0.  1.
          6    1    1    2  501    0 -0.75935062438E+02 -0.58742842751E+02 -0.72783842319E+02  0.21081589832E+03  0.17300000000E+03 0.  1.
         -6    1    1    2    0  502  0.75935062438E+02  0.58742842751E+02 -0.90419560141E+02  0.21753517448E+03  0.17300000000E+03 0.  1.
<mgrwt>
<rscale>  2 0.19785312E+03</rscale>
<asrwt>0</asrwt>
<pdfrwt beam="1">  1       21 0.20395975E-01 0.19785312E+03</pdfrwt>
<pdfrwt beam="2">  1       21 0.45504191E-01 0.19785312E+03</pdfrwt>
<totfact> 0.10284578E+05</totfact>
</mgrwt>
</event>
<event>
 4    1  0.3948468E+000  0.2923175E+03  0.7546771E-02  0.1089145E+00
         21   -1    0    0  501  502  0.00000000000E+00  0.00000000000E+00  0.30919544541E+03  0.30919544541E+03  0.00000000000E+00 0. -1.
         21   -1    0    0  502  503 -0.00000000000E+00 -0.00000000000E+00 -0.46311924971E+03  0.46311924971E+03  0.00000000000E+00 0.  1.
          6    1    1    2  501    0 -0.23427517197E+03  0.25212043182E+02 -0.32218309816E+03  0.43503040361E+03  0.17300000000E+03 0.  1.
         -6    1    1    2    0  503  0.23427517197E+03 -0.25212043182E+02  0.16825929387E+03  0.33728429151E+03  0.17300000000E+03 0. -1.
<mgrwt>
<rscale>  2 0.29231747E+03</rscale>
<asrwt>0</asrwt>
<pdfrwt beam="1">  1       21 0.47568530E-01 0.29231747E+03</pdfrwt>
<pdfrwt beam="2">  1       21 0.71249115E-01 0.29231747E+03</pdfrwt>
<totfact> 0.70884711E+03</totfact>
</mgrwt>
</event>
<event>
 4    1  0.3948468E+000  0.1760606E+03  0.7546771E-02  0.1171671E+00
         21   -1    0    0  501  502  0.00000000000E+00  0.00000000000E+00  0.91710931663E+02  0.91710931663E+02  0.00000000000E+00 0.  1.
         21   -1    0    0  502  503 -0.00000000000E+00 -0.00000000000E+00 -0.88723487494E+03  0.88723487494E+03  0.00000000000E+00 0.  1.
          6    1    1    2  501    0  0.32562622827E+02  0.28307535535E+01 -0.12645111218E+02  0.17651412524E+03  0.17300000000E+03 0.  1.
         -6    1    1    2    0  503 -0.32562622827E+02 -0.28307535535E+01 -0.78287883206E+03  0.80243168137E+03  0.17300000000E+03 0.  1.
<mgrwt>
<rscale>  2 0.17606061E+03</rscale>
<asrwt>0</asrwt>
<pdfrwt beam="1">  1       21 0.14109374E-01 0.17606061E+03</pdfrwt>
<pdfrwt beam="2">  1       21 0.13649767E+00 0.17606061E+03</pdfrwt>
<totfact> 0.16936848E+04</totfact>
</mgrwt>
</event>
<event>
 4    1  0.3948468E+000  0.1997549E+03  0.7546771E-02  0.1149946E+00
         21   -1    0    0  503  502  0.00000000000E+00  0.00000000000E+00  0.71561507498E+02  0.71561507498E+02  0.00000000000E+00 0. -1.
         21   -1    0    0  501  503 -0.00000000000E+00 -0.00000000000E+00 -0.60113489245E+03  0.60113489245E+03  0.00000000000E+00 0.  1.
          6    1    1    2  501    0  0.97246499250E+02 -0.22718461994E+02 -0.35531193938E+03  0.40761327799E+03  0.17300000000E+03 0. -1.
         -6    1    1    2    0  502 -0.97246499250E+02  0.22718461994E+02 -0.17426144558E+03  0.26508312196E+03  0.17300000000E+03 0. -1.
<mgrwt>
<rscale>  2 0.19975488E+03</rscale>
<asrwt>0</asrwt>
<pdfrwt beam="1">  1       21 0.11009463E-01 0.19975488E+03</pdfrwt>
<pdfrwt beam="2">  1       21 0.92482291E-01 0.19975488E+03</pdfrwt>
<totfact> 0.67263954E+04</totfact>
</mgrwt>
</event>
<event>
 4    1  0.3948468E+000  0.1731707E+03  0.7546771E-02  0.1174581E+00
         21   -1    0    0  503  502  0.00000000000E+00  0.00000000000E+00  0.36472105194E+03  0.36472105194E+03  0.00000000000E+00 0. -1.
         21   -1    0    0  501  503 -0.00000000000E+00 -0.00000000000E+00 -0.24032390011E+03  0.24032390011E+03  0.00000000000E+00 0. -1.
          6    1    1    2  501    0  0.11716216841E-01  0.76862097776E+01 -0.18317498806E+03  0.25207370789E+03  0.17300000000E+03 0. -1.
         -6    1    1    2    0  502 -0.11716216841E-01 -0.76862097776E+01  0.30757213990E+03  0.35297124416E+03  0.17300000000E+03 0. -1.
<mgrwt>
<rscale>  2 0.17317066E+03</rscale>
<asrwt>0</asrwt>
<pdfrwt beam="1">  1       21 0.56110931E-01 0.17317066E+03</pdfrwt>
<pdfrwt beam="2">  1       21 0.36972908E-01 0.17317066E+03</pdfrwt>
<totfact> 0.21340343E+04</totfact>
</mgrwt>
</event>
<event>
 4    1  0.3948468E+000  0.2223153E+03  0.7546771E-02  0.1132169E+00
         21   -1    0    0  503  502  0.00000000000E+00  0.00000000000E+00  0.10500062365E+03  0.10500062365E+03  0.00000000000E+00 0. -1.
         21   -1    0    0  501  503 -0.00000000000E+00 -0.00000000000E+00 -0.47086242716E+03  0.47086242716E+03  0.00000000000E+00 0. -1.
          6    1    1    2  501    0 -0.10628587480E+03  0.90545089285E+02 -0.18823033482E+03  0.29129840254E+03  0.17300000000E+03 0. -1.
         -6    1    1    2    0  502  0.10628587480E+03 -0.90545089285E+02 -0.17763146869E+03  0.28456464827E+03  0.17300000000E+03 0. -1.
<mgrwt>
<rscale>  2 0.22231532E+03</rscale>
<asrwt>0</asrwt>
<pdfrwt beam="1">  1       21 0.16153942E-01 0.22231532E+03</pdfrwt>
<pdfrwt beam="2">  1       21 0.72440373E-01 0.22231532E+03</pdfrwt>
<totfact> 0.58049000E+04</totfact>
</mgrwt>
</event>
<event>
 4    1  0.3948468E+000  0.2298591E+03  0.7546771E-02  0.1126739E+00
         21   -1    0    0  501  502  0.00000000000E+00  0.00000000000E+00  0.67857582431E+03  0.67857582431E+03  0.00000000000E+00 0. -1.
         21   -1    0    0  502  503 -0.00000000000E+00 -0.00000000000E+00 -0.78430285746E+02  0.78430285746E+02  0.00000000000E+00 0. -1.
          6    1    1    2  501    0 -0.13980673458E+03 -0.57968019207E+02  0.26785149494E+03  0.35295840778E+03  0.17300000000E+03 0.  1.
         -6    1    1    2    0  503  0.13980673458E+03  0.57968019207E+02  0.33229404362E+03  0.40404770227E+03  0.17300000000E+03 0.  1.
<mgrwt>
<rscale>  2 0.22985912E+03</rscale>
<asrwt>0</asrwt>
<pdfrwt beam="1">  1       21 0.10439628E+00 0.22985912E+03</pdfrwt>
<pdfrwt beam="2">  1       21 0.12066198E-01 0.22985912E+03</pdfrwt>
<totfact> 0.42234858E+04</totfact>
</mgrwt>
</event>
<event>
 4    1  0.3948468E+000  0.2351502E+03  0.7546771E-02  0.1123066E+00
         21   -1    0    0  503  502  0.00000000000E+00  0.00000000000E+00  0.77463593042E+03  0.77463593042E+03  0.00000000000E+00 0. -1.
         21   -1    0    0  501  503 -0.00000000000E+00 -0.00000000000E+00 -0.75902569235E+02  0.75902569235E+02  0.00000000000E+00 0. -1.
          6    1    1    2  501    0  0.34410132214E+02 -0.15550745020E+03  0.24559055914E+03  0.34001521585E+03  0.17300000000E+03 0. -1.
         -6    1    1    2    0  502 -0.34410132214E+02  0.15550745020E+03  0.45314280205E+03  0.51052328381E+03  0.17300000000E+03 0. -1.
<mgrwt>
<rscale>  2 0.23515022E+03</rscale>
<asrwt>0</asrwt>
<pdfrwt beam="1">  1       21 0.11917475E+00 0.23515022E+03</pdfrwt>
<pdfrwt beam="2">  1       21 0.11677319E-01 0.23515022E+03</pdfrwt>
<totfact> 0.32338639E+04</totfact>
</mgrwt>
</event>
<event>
 4    1  0.3948468E+000  0.1793076E+03  0.7546771E-02  0.1168475E+00
         21   -1    0    0  501  502  0.00000000000E+00  0.00000000000E+00  0.49635571518E+03  0.49635571518E+03  0.00000000000E+00 0. -1.
         21   -1    0    0  502  503 -0.00000000000E+00 -0.00000000000E+00 -0.23729467334E+03  0.23729467334E+03  0.00000000000E+00 0. -1.
          6    1    1    2  501    0 -0.39226026660E+02  0.26144823408E+02  0.44230766058E+03  0.47727067747E+03  0.17300000000E+03 0. -1.
         -6    1    1    2    0  503  0.39226026660E+02 -0.26144823408E+02 -0.18324661875E+03  0.25637971106E+03  0.17300000000E+03 0. -1.
<mgrwt>
<rscale>  2 0.17930765E+03</rscale>
<asrwt>0</asrwt>
<pdfrwt beam="1">  1       21 0.76362418E-01 0.17930765E+03</pdfrwt>
<pdfrwt beam="2">  1       21 0.36506873E-01 0.17930765E+03</pdfrwt>
<totfact> 0.11152296E+04</totfact>
</mgrwt>
</event>
<event>
 4    1  0.3948468E+000  0.1888792E+03  0.7546771E-02  0.1159476E+00
         21   -1    0    0  503  502  0.00000000000E+00  0.00000000000E+00  0.54337614574E+03  0.54337614574E+03  0.00000000000E+00 0. -1.
         21   -1    0    0  501  503 -0.00000000000E+00 -0.00000000000E+00 -0.16751123420E+03  0.16751123420E+03  0.00000000000E+00 0. -1.
          6    1    1    2  501    0 -0.57792456852E+02 -0.49054790122E+02 -0.89235313906E+02  0.20889777823E+03  0.17300000000E+03 0. -1.
         -6    1    1    2    0  502  0.57792456852E+02  0.49054790122E+02  0.46510022545E+03  0.50198960170E+03  0.17300000000E+03 0. -1.
<mgrwt>
<rscale>  2 0.18887917E+03</rscale>
<asrwt>0</asrwt>
<pdfrwt beam="1">  1       21 0.83596330E-01 0.18887917E+03</pdfrwt>
<pdfrwt beam="2">  1       21 0.25770959E-01 0.18887917E+03</pdfrwt>
<totfact> 0.17831150E+04</totfact>
</mgrwt>
</event>
<event>
 4    1  0.3948468E+000  0.1733862E+03  0.7546771E-02  0.1174362E+00
         21   -1    0    0  503  502  0.00000000000E+00  0.00000000000E+00  0.14818037277E+04  0.14818037277E+04  0.00000000000E+00 0. -1.
         21   -1    0    0  501  503 -0.00000000000E+00 -0.00000000000E+00 -0.12587006776E+03  0.12587006776E+03  0.00000000000E+00 0. -1.
          6    1    1    2  501    0 -0.85484113668E+01  0.77908823019E+01 -0.58243438069E+02  0.18290727504E+03  0.17300000000E+03 0. -1.
         -6    1    1    2    0  502  0.85484113668E+01 -0.77908823019E+01  0.14141770980E+04  0.14247665204E+04  0.17300000000E+03 0. -1.
<mgrwt>
<rscale>  2 0.17338620E+03</rscale>
<asrwt>0</asrwt>
<pdfrwt beam="1">  1       21 0.22796979E+00 0.17338620E+03</pdfrwt>
<pdfrwt beam="2">  1       21 0.19364627E-01 0.17338620E+03</pdfrwt>
<totfact> 0.22541892E+03</totfact>
</mgrwt>
</event>
<event>
 4    1  0.3948468E+000  0.2538359E+03  0.7546771E-02  0.1110904E+00
         21   -1    0    0  503  502  0.00000000000E+00  0.00000000000E+00  0.32899905341E+03  0.32899905341E+03  0.00000000000E+00 0. -1.
         21   -1    0    0  501  503 -0.00000000000E+00 -0.00000000000E+00 -0.20271257839E+03  0.20271257839E+03  0.00000000000E+00 0. -1.
          6    1    1    2  501    0  0.15507855300E+03 -0.10224626910E+03  0.11207864884E+03  0.27747843281E+03  0.17300000000E+03 0. -1.
         -6    1    1    2    0  502 -0.15507855300E+03  0.10224626910E+03  0.14207826173E+02  0.25423319900E+03  0.17300000000E+03 0. -1.
<mgrwt>
<rscale>  2 0.25383589E+03</rscale>
<asrwt>0</asrwt>
<pdfrwt beam="1">  1       21 0.50615239E-01 0.25383589E+03</pdfrwt>
<pdfrwt beam="2">  1       21 0.31186551E-01 0.25383589E+03</pdfrwt>
<totfact> 0.35635925E+04</totfact>
</mgrwt>
</event>
<event>
 4    1  0.3948468E+000  0.1934156E+03  0.7546771E-02  0.1155416E+00
         21   -1    0    0  501  502  0.00000000000E+00  0.00000000000E+00  0.75225844776E+02  0.75225844776E+02  0.00000000000E+00 0. -1.
         21   -1    0    0  502  503 -0.00000000000E+00 -0.00000000000E+00 -0.50102801351E+03  0.50102801351E+03  0.00000000000E+00 0.  1.
          6    1    1    2  501    0  0.41432708820E+02 -0.75920635795E+02 -0.23776368922E+03  0.30649826135E+03  0.17300000000E+03 0.  1.
         -6    1    1    2    0  503 -0.41432708820E+02  0.75920635795E+02 -0.18803847951E+03  0.26975559693E+03  0.17300000000E+03 0. -1.
<mgrwt>
<rscale>  2 0.19341565E+03</rscale>
<asrwt>0</asrwt>
<pdfrwt beam="1">  1       21 0.11573207E-01 0.19341565E+03</pdfrwt>
<pdfrwt beam="2">  1       21 0.77081233E-01 0.19341565E+03</pdfrwt>
<totfact> 0.93597079E+04</totfact>
</mgrwt>
</event>
<event>
 4    1  0.3948468E+000  0.2894002E+03  0.7546771E-02  0.1090663E+00
         21   -1    0    0  501  502  0.00000000000E+00  0.00000000000E+00  0.10145429363E+03  0.10145429363E+03  0.00000000000E+00 0.  1.
         21   -1    0    0  502  503 -0.00000000000E+00 -0.00000000000E+00 -0.99658329729E+03  0.99658329729E+03  0.00000000000E+00 0. -1.
          6    1    1    2  501    0 -0.13500304772E+02 -0.23160573320E+03 -0.67502697841E+03  0.73444802094E+03  0.17300000000E+03 0. -1.
         -6    1    1    2    0  503  0.13500304772E+02  0.23160573320E+03 -0.22010202525E+03  0.36358956998E+03  0.17300000000E+03 0.  1.
<mgrwt>
<rscale>  2 0.28940020E+03</rscale>
<asrwt>0</asrwt>
<pdfrwt beam="1">  1       21 0.15608353E-01 0.28940020E+03</pdfrwt>
<pdfrwt beam="2">  1       21 0.15332051E+00 0.28940020E+03</pdfrwt>
<totfact> 0.96773423E+03</totfact>
</mgrwt>
</event>
<event>
 4    1  0.3948468E+000  0.2689524E+03  0.7546771E-02  0.1101881E+00
         21   -1    0    0  501  502  0.00000000000E+00  0.00000000000E+00  0.14701418607E+04  0.14701418607E+04  0.00000000000E+00 0.  1.
         21   -1    0    0  502  503 -0.00000000000E+00 -0.00000000000E+00 -0.87024238798E+02  0.87024238798E+02  0.00000000000E+00 0. -1.
          6    1    1    2  501    0  0.44601931910E+02  0.20103992449E+03  0.12048369030E+04  0.12344907235E+04  0.17300000000E+03 0.  1.
         -6    1    1    2    0  503 -0.44601931910E+02 -0.20103992449E+03  0.17828071898E+03  0.32267537608E+03  0.17300000000E+03 0.  1.
<mgrwt>
<rscale>  2 0.26895238E+03</rscale>
<asrwt>0</asrwt>
<pdfrwt beam="1">  1       21 0.22617565E+00 0.26895238E+03</pdfrwt>
<pdfrwt beam="2">  1       21 0.13388346E-01 0.26895238E+03</pdfrwt>
<totfact> 0.41643638E+03</totfact>
</mgrwt>
</event>
<event>
 4    1  0.3948468E+000  0.1898926E+03  0.7546771E-02  0.1158558E+00
         21   -1    0    0  501  502  0.00000000000E+00  0.00000000000E+00  0.10005591267E+03  0.10005591267E+03  0.00000000000E+00 0. -1.
         21   -1    0    0  502  503 -0.00000000000E+00 -0.00000000000E+00 -0.64762611682E+03  0.64762611682E+03  0.00000000000E+00 0. -1.
          6    1    1    2  501    0  0.78197219707E+02 -0.39212614131E+01 -0.24816799591E+02  0.19150732363E+03  0.17300000000E+03 0.  1.
         -6    1    1    2    0  503 -0.78197219707E+02  0.39212614131E+01 -0.52275340456E+03  0.55617470586E+03  0.17300000000E+03 0.  1.
<mgrwt>
<rscale>  2 0.18989255E+03</rscale>
<asrwt>0</asrwt>
<pdfrwt beam="1">  1       21 0.15393217E-01 0.18989255E+03</pdfrwt>
<pdfrwt beam="2">  1       21 0.99634787E-01 0.18989255E+03</pdfrwt>
<totfact> 0.31037019E+04</totfact>
</mgrwt>
</event>
<event>
 4    1  0.3948468E+000  0.2487895E+03  0.7546771E-02  0.1114072E+00
         21   -1    0    0  503  502  0.00000000000E+00  0.00000000000E+00  0.39805523840E+03  0.39805523840E+03  0.00000000000E+00 0. -1.
         21   -1    0    0  501  503 -0.00000000000E+00 -0.00000000000E+00 -0.31656519438E+03  0.31656519438E+03  0.00000000000E+00 0.  1.
          6    1    1    2  501    0 -0.10506517910E+03  0.14466693164E+03 -0.21412535723E+03  0.32824667794E+03  0.17300000000E+03 0.  1.
         -6    1    1    2    0  502  0.10506517910E+03 -0.14466693164E+03  0.29561540125E+03  0.38637375484E+03  0.17300000000E+03 0. -1.
<mgrwt>
<rscale>  2 0.24878950E+03</rscale>
<asrwt>0</asrwt>
<pdfrwt beam="1">  1       21 0.61239267E-01 0.24878950E+03</pdfrwt>
<pdfrwt beam="2">  1       21 0.48702338E-01 0.24878950E+03</pdfrwt>
<totfact> 0.96341323E+03</totfact>
</mgrwt>
</event>
<event>
 4    1  0.3948468E+000  0.1881069E+03  0.7546771E-02  0.1160180E+00
         21   -1    0    0  503  502  0.00000000000E+00  0.00000000000E+00  0.21908041408E+03  0.21908041408E+03  0.00000000000E+00 0. -1.
         21   -1    0    0  501  503 -0.00000000000E+00 -0.00000000000E+00 -0.23034658039E+03  0.23034658039E+03  0.00000000000E+00 0. -1.
          6    1    1    2  501    0 -0.13699593623E+02 -0.72577785190E+02 -0.12847319371E+03  0.22779283411E+03  0.17300000000E+03 0. -1.
         -6    1    1    2    0  502  0.13699593623E+02  0.72577785190E+02  0.11720702740E+03  0.22163416036E+03  0.17300000000E+03 0. -1.
<mgrwt>
<rscale>  2 0.18810692E+03</rscale>
<asrwt>0</asrwt>
<pdfrwt beam="1">  1       21 0.33704679E-01 0.18810692E+03</pdfrwt>
<pdfrwt beam="2">  1       21 0.35437935E-01 0.18810692E+03</pdfrwt>
<totfact> 0.65229377E+04</totfact>
</mgrwt>
</event>
<event>
 4    1  0.3948468E+000  0.2129631E+03  0.7546771E-02  0.1139241E+00
         21   -1    0    0  501  502  0.00000000000E+00  0.00000000000E+00  0.20846602999E+04  0.20846602999E+04  0.00000000000E+00 0.  1.
         21   -1    0    0  502  503 -0.00000000000E+00 -0.00000000000E+00 -0.36392616604E+02  0.36392616604E+02  0.00000000000E+00 0.  1.
          6    1    1    2  501    0 -0.89585947224E+02 -0.86015358427E+02  0.16967067709E+04  0.17100196344E+04  0.17300000000E+03 0.  1.
         -6    1    1    2    0  503  0.89585947224E+02  0.86015358427E+02  0.35156091242E+03  0.41103328207E+03  0.17300000000E+03 0.  1.
<mgrwt>
<rscale>  2 0.21296310E+03</rscale>
<asrwt>0</asrwt>
<pdfrwt beam="1">  1       21 0.32071688E+00 0.21296310E+03</pdfrwt>
<pdfrwt beam="2">  1       21 0.55988657E-02 0.21296310E+03</pdfrwt>
<totfact> 0.56212427E+03</totfact>
</mgrwt>
</event>
<event>
 4    1  0.3948468E+000  0.2073105E+03  0.7546771E-02  0.1143714E+00
         21   -1    0    0  501  502  0.00000000000E+00  0.00000000000E+00  0.23217450203E+03  0.23217450203E+03  0.00000000000E+00 0.  1.
         21   -1    0    0  502  503 -0.00000000000E+00 -0.00000000000E+00 -0.25340033589E+03  0.25340033589E+03  0.00000000000E+00 0.  1.
          6    1    1    2  501    0  0.11037635223E+03 -0.29423125764E+02  0.11542593440E+03  0.23727790836E+03  0.17300000000E+03 0.  1.
         -6    1    1    2    0  503 -0.11037635223E+03  0.29423125764E+02 -0.13665176825E+03  0.24829692956E+03  0.17300000000E+03 0.  1.
<mgrwt>
<rscale>  2 0.20731054E+03</rscale>
<asrwt>0</asrwt>
<pdfrwt beam="1">  1       21 0.35719154E-01 0.20731054E+03</pdfrwt>
<pdfrwt beam="2">  1       21 0.38984667E-01 0.20731054E+03</pdfrwt>
<totfact> 0.47602508E+04</totfact>
</mgrwt>
</event>
<event>
 4    1  0.3948468E+000  0.1824640E+03  0.7546771E-02  0.1165440E+00
         21   -1    0    0  501  502  0.00000000000E+00  0.00000000000E+00  0.16173773916E+03  0.16173773916E+03  0.00000000000E+00 0. -1.
         21   -1    0    0  502  503 -0.00000000000E+00 -0.00000000000E+00 -0.46309205706E+03  0.46309205706E+03  0.00000000000E+00 0. -1.
          6    1    1    2  501    0 -0.57829438927E+02 -0.44553847351E+01  0.82170721039E+02  0.20011277285E+03  0.17300000000E+03 0. -1.
         -6    1    1    2    0  503  0.57829438927E+02  0.44553847351E+01 -0.38352503894E+03  0.42471702338E+03  0.17300000000E+03 0. -1.
<mgrwt>
<rscale>  2 0.18246395E+03</rscale>
<asrwt>0</asrwt>
<pdfrwt beam="1">  1       21 0.24882729E-01 0.18246395E+03</pdfrwt>
<pdfrwt beam="2">  1       21 0.71244932E-01 0.18246395E+03</pdfrwt>
<totfact> 0.27392289E+04</totfact>
</mgrwt>
</event>
<event>
 4    1  0.3948468E+000  0.1958415E+03  0.7546771E-02  0.1153296E+00
         21   -1    0    0  501  502  0.00000000000E+00  0.00000000000E+00  0.70329935436E+03  0.70329935436E+03  0.00000000000E+00 0. -1.
         21   -1    0    0  502  503 -0.00000000000E+00 -0.00000000000E+00 -0.29540846652E+03  0.29540846652E+03  0.00000000000E+00 0. -1.
          6    1    1    2  501    0  0.66723589372E+02 -0.63030699078E+02  0.65485780294E+03  0.68351492192E+03  0.17300000000E+03 0. -1.
         -6    1    1    2    0  503 -0.66723589372E+02  0.63030699078E+02 -0.24696691510E+03  0.31519289896E+03  0.17300000000E+03 0. -1.
<mgrwt>
<rscale>  2 0.19584153E+03</rscale>
<asrwt>0</asrwt>
<pdfrwt beam="1">  1       21 0.10819990E+00 0.19584153E+03</pdfrwt>
<pdfrwt beam="2">  1       21 0.45447457E-01 0.19584153E+03</pdfrwt>
<totfact> 0.31473573E+03</totfact>
</mgrwt>
</event>
<event>
 4    1  0.3948468E+000  0.2301303E+03  0.7546771E-02  0.1126548E+00
         21   -1    0    0  501  502  0.00000000000E+00  0.00000000000E+00  0.13648346526E+03  0.13648346526E+03  0.00000000000E+00 0.  1.
         21   -1    0    0  502  503 -0.00000000000E+00 -0.00000000000E+00 -0.40675218861E+03  0.40675218861E+03  0.00000000000E+00 0.  1.
          6    1    1    2  501    0  0.12301182401E+03 -0.88876504313E+02 -0.76863788251E+02  0.24262725282E+03  0.17300000000E+03 0.  1.
         -6    1    1    2    0  503 -0.12301182401E+03  0.88876504313E+02 -0.19340493509E+03  0.30060840105E+03  0.17300000000E+03 0.  1.
<mgrwt>
<rscale>  2 0.23013027E+03</rscale>
<asrwt>0</asrwt>
<pdfrwt beam="1">  1       21 0.20997456E-01 0.23013027E+03</pdfrwt>
<pdfrwt beam="2">  1       21 0.62577261E-01 0.23013027E+03</pdfrwt>
<totfact> 0.49001914E+04</totfact>
</mgrwt>
</event>
<event>
 4    1  0.3948468E+000  0.1849263E+03  0.7546771E-02  0.1163119E+00
         21   -1    0    0  501  502  0.00000000000E+00  0.00000000000E+00  0.37277128011E+03  0.37277128011E+03  0.00000000000E+00 0.  1.
         21   -1    0    0  502  503 -0.00000000000E+00 -0.00000000000E+00 -0.10427285617E+03  0.10427285617E+03  0.00000000000E+00 0.  1.
          6    1    1    2  501    0  0.24512444078E+02  0.60563068334E+02  0.21694464667E+03  0.28506617632E+03  0.17300000000E+03 0. -1.
         -6    1    1    2    0  503 -0.24512444078E+02 -0.60563068334E+02  0.51553777276E+02  0.19197795996E+03  0.17300000000E+03 0. -1.
<mgrwt>
<rscale>  2 0.18492632E+03</rscale>
<asrwt>0</asrwt>
<pdfrwt beam="1">  1       21 0.57349427E-01 0.18492632E+03</pdfrwt>
<pdfrwt beam="2">  1       21 0.16041978E-01 0.18492632E+03</pdfrwt>
<totfact> 0.99334898E+04</totfact>
</mgrwt>
</event>
<event>
 4    1  0.3948468E+000  0.2984701E+03  0.7546771E-02  0.1086008E+00
         21   -1    0    0  501  502  0.00000000000E+00  0.00000000000E+00  0.32931381026E+03  0.32931381026E+03  0.00000000000E+00 0. -1.
         21   -1    0    0  502  503 -0.00000000000E+00 -0.00000000000E+00 -0.36243472925E+03  0.36243472925E+03  0.00000000000E+00 0. -1.
          6    1    1    2  501    0  0.21995567970E+03  0.10380226803E+03  0.15762307542E+03  0.33753436238E+03  0.17300000000E+03 0. -1.
         -6    1    1    2    0  503 -0.21995567970E+03 -0.10380226803E+03 -0.19074399441E+03  0.35421417713E+03  0.17300000000E+03 0. -1.
<mgrwt>
<rscale>  2 0.29847012E+03</rscale>
<asrwt>0</asrwt>
<pdfrwt beam="1">  1       21 0.50663663E-01 0.29847012E+03</pdfrwt>
<pdfrwt beam="2">  1       21 0.55759189E-01 0.29847012E+03</pdfrwt>
<totfact> 0.10588109E+04</totfact>
</mgrwt>
</event>
<event>
 4    1  0.3948468E+000  0.1777411E+03  0.7546771E-02  0.1170007E+00
         21   -1    0    0  503  502  0.00000000000E+00  0.00000000000E+00  0.67020596903E+03  0.67020596903E+03  0.00000000000E+00 0.  1.
         21   -1    0    0  501  503 -0.00000000000E+00 -0.00000000000E+00 -0.47387239810E+02  0.47387239810E+02  0.00000000000E+00 0.  1.
          6    1    1    2  501    0  0.35920563737E+02  0.19303547129E+02  0.28536835980E+03  0.33619490568E+03  0.17300000000E+03 0. -1.
         -6    1    1    2    0  502 -0.35920563737E+02 -0.19303547129E+02  0.33745036942E+03  0.38139830316E+03  0.17300000000E+03 0. -1.
<mgrwt>
<rscale>  2 0.17774114E+03</rscale>
<asrwt>0</asrwt>
<pdfrwt beam="1">  1       21 0.10310860E+00 0.17774114E+03</pdfrwt>
<pdfrwt beam="2">  1       21 0.72903451E-02 0.17774114E+03</pdfrwt>
<totfact> 0.10825830E+05</totfact>
</mgrwt>
</event>
<event>
 4    1  0.3948468E+000  0.3220290E+03  0.7546771E-02  0.1074719E+00
         21   -1    0    0  501  502  0.00000000000E+00  0.00000000000E+00  0.73856854253E+03  0.73856854253E+03  0.00000000000E+00 0. -1.
         21   -1    0    0  502  503 -0.00000000000E+00 -0.00000000000E+00 -0.33805577926E+03  0.33805577926E+03  0.00000000000E+00 0.  1.
          6    1    1    2  501    0 -0.27093113653E+03 -0.19235250445E+02 -0.21135121759E+03  0.38519087837E+03  0.17300000000E+03 0.  1.
         -6    1    1    2    0  503  0.27093113653E+03  0.19235250445E+02  0.61186398086E+03  0.69143344342E+03  0.17300000000E+03 0. -1.
<mgrwt>
<rscale>  2 0.32202900E+03</rscale>
<asrwt>0</asrwt>
<pdfrwt beam="1">  1       21 0.11362593E+00 0.32202900E+03</pdfrwt>
<pdfrwt beam="2">  1       21 0.52008582E-01 0.32202900E+03</pdfrwt>
<totfact> 0.19312667E+03</totfact>
</mgrwt>
</event>
<event>
 4    1  0.3948468E+000  0.1816070E+03  0.7546771E-02  0.1166257E+00
         21   -1    0    0  501  502  0.00000000000E+00  0.00000000000E+00  0.11216022064E+04  0.11216022064E+04  0.00000000000E+00 0. -1.
         21   -1    0    0  502  503 -0.00000000000E+00 -0.00000000000E+00 -0.81830863879E+02  0.81830863879E+02  0.00000000000E+00 0. -1.
          6    1    1    2  501    0 -0.32394422433E+02  0.44751554828E+02  0.10015059284E+04  0.10178385063E+04  0.17300000000E+03 0. -1.
         -6    1    1    2    0  503  0.32394422433E+02 -0.44751554828E+02  0.38265414119E+02  0.18559456399E+03  0.17300000000E+03 0. -1.
<mgrwt>
<rscale>  2 0.18160699E+03</rscale>
<asrwt>0</asrwt>
<pdfrwt beam="1">  1       21 0.17255417E+00 0.18160699E+03</pdfrwt>
<pdfrwt beam="2">  1       21 0.12589364E-01 0.18160699E+03</pdfrwt>
<totfact> 0.11123981E+04</totfact>
</mgrwt>
</event>
<event>
 4    1  0.3948468E+000  0.1755134E+03  0.7546771E-02  0.1172217E+00
         21   -1    0    0  501  502  0.00000000000E+00  0.00000000000E+00  0.20258492778E+04  0.20258492778E+04  0.00000000000E+00 0.  1.
         21   -1    0    0  502  503 -0.00000000000E+00 -0.00000000000E+00 -0.17508651273E+02  0.17508651273E+02  0.00000000000E+00 0.  1.
          6    1    1    2  501    0 -0.20348588654E+02 -0.21491529860E+02  0.13746867342E+04  0.13858457952E+04  0.17300000000E+03 0.  1.
         -6    1    1    2    0  503  0.20348588654E+02  0.21491529860E+02  0.63365389230E+03  0.65751213384E+03  0.17300000000E+03 0.  1.
<mgrwt>
<rscale>  2 0.17551339E+03</rscale>
<asrwt>0</asrwt>
<pdfrwt beam="1">  1       21 0.31166894E+00 0.17551339E+03</pdfrwt>
<pdfrwt beam="2">  1       21 0.26936403E-02 0.17551339E+03</pdfrwt>
<totfact> 0.22506284E+04</totfact>
</mgrwt>
</event>
<event>
 4    1  0.3948468E+000  0.1934568E+03  0.7546771E-02  0.1155380E+00
         21   -1    0    0  503  502  0.00000000000E+00  0.00000000000E+00  0.19718726306E+03  0.19718726306E+03  0.00000000000E+00 0. -1.
         21   -1    0    0  501  503 -0.00000000000E+00 -0.00000000000E+00 -0.25554022981E+03  0.25554022981E+03  0.00000000000E+00 0. -1.
          6    1    1    2  501    0  0.85176209226E+02 -0.15541887757E+02 -0.14399263505E+03  0.24116263359E+03  0.17300000000E+03 0. -1.
         -6    1    1    2    0  502 -0.85176209226E+02  0.15541887757E+02  0.85639668302E+02  0.21156485928E+03  0.17300000000E+03 0. -1.
<mgrwt>
<rscale>  2 0.19345681E+03</rscale>
<asrwt>0</asrwt>
<pdfrwt beam="1">  1       21 0.30336502E-01 0.19345681E+03</pdfrwt>
<pdfrwt beam="2">  1       21 0.39313882E-01 0.19345681E+03</pdfrwt>
<totfact> 0.65019376E+04</totfact>
</mgrwt>
</event>
<event>
 4    1  0.3948468E+000  0.1900521E+03  0.7546771E-02  0.1158414E+00
         21   -1    0    0  503  502  0.00000000000E+00  0.00000000000E+00  0.80327639059E+02  0.80327639059E+02  0.00000000000E+00 0.  1.
         21   -1    0    0  501  503 -0.00000000000E+00 -0.00000000000E+00 -0.17175081639E+04  0.17175081639E+04  0.00000000000E+00 0.  1.
          6    1    1    2  501    0  0.77445693889E+02  0.13891664814E+02 -0.15909238342E+04  0.16022354572E+04  0.17300000000E+03 0.  1.
         -6    1    1    2    0  502 -0.77445693889E+02 -0.13891664814E+02 -0.46256690618E+02  0.19560034581E+03  0.17300000000E+03 0.  1.
<mgrwt>
<rscale>  2 0.19005213E+03</rscale>
<asrwt>0</asrwt>
<pdfrwt beam="1">  1       21 0.12358097E-01 0.19005213E+03</pdfrwt>
<pdfrwt beam="2">  1       21 0.26423206E+00 0.19005213E+03</pdfrwt>
<totfact> 0.30658193E+03</totfact>
</mgrwt>
</event>
<event>
 4    1  0.3948468E+000  0.1967488E+03  0.7546771E-02  0.1152511E+00
         21   -1    0    0  503  502  0.00000000000E+00  0.00000000000E+00  0.50875585854E+02  0.50875585854E+02  0.00000000000E+00 0.  1.
         21   -1    0    0  501  503 -0.00000000000E+00 -0.00000000000E+00 -0.98711543215E+03  0.98711543215E+03  0.00000000000E+00 0.  1.
          6    1    1    2  501    0  0.47193310264E+02  0.80956110931E+02 -0.71658314742E+03  0.74310262252E+03  0.17300000000E+03 0.  1.
         -6    1    1    2    0  502 -0.47193310264E+02 -0.80956110931E+02 -0.21965669888E+03  0.29488839549E+03  0.17300000000E+03 0.  1.
<mgrwt>
<rscale>  2 0.19674883E+03</rscale>
<asrwt>0</asrwt>
<pdfrwt beam="1">  1       21 0.78270142E-02 0.19674883E+03</pdfrwt>
<pdfrwt beam="2">  1       21 0.15186389E+00 0.19674883E+03</pdfrwt>
<totfact> 0.35975807E+04</totfact>
</mgrwt>
</event>
<event>
 4    1  0.3948468E+000  0.2662797E+03  0.7546771E-02  0.1103428E+00
         21   -1    0    0  503  502  0.00000000000E+00  0.00000000000E+00  0.22865951513E+03  0.22865951513E+03  0.00000000000E+00 0. -1.
         21   -1    0    0  501  503 -0.00000000000E+00 -0.00000000000E+00 -0.54572160977E+03  0.54572160977E+03  0.00000000000E+00 0.  1.
          6    1    1    2  501    0  0.15624916582E+03 -0.12869371681E+03 -0.41295417373E+03  0.49136139873E+03  0.17300000000E+03 0.  1.
         -6    1    1    2    0  502 -0.15624916582E+03  0.12869371681E+03  0.95892079091E+02  0.28301972617E+03  0.17300000000E+03 0.  1.
<mgrwt>
<rscale>  2 0.26627969E+03</rscale>
<asrwt>0</asrwt>
<pdfrwt beam="1">  1       21 0.35178388E-01 0.26627969E+03</pdfrwt>
<pdfrwt beam="2">  1       21 0.83957169E-01 0.26627969E+03</pdfrwt>
<totfact> 0.91755493E+03</totfact>
</mgrwt>
</event>
<event>
 4    1  0.3948468E+000  0.1738561E+03  0.7546771E-02  0.1173885E+00
         21   -1    0    0  503  502  0.00000000000E+00  0.00000000000E+00  0.81298478623E+03  0.81298478623E+03  0.00000000000E+00 0. -1.
         21   -1    0    0  501  503 -0.00000000000E+00 -0.00000000000E+00 -0.38695633461E+02  0.38695633461E+02  0.00000000000E+00 0. -1.
          6    1    1    2  501    0 -0.14506084244E+02  0.93017012985E+01  0.30283860527E+03  0.34919502999E+03  0.17300000000E+03 0.  1.
         -6    1    1    2    0  502  0.14506084244E+02 -0.93017012985E+01  0.47145054750E+03  0.50248538970E+03  0.17300000000E+03 0.  1.
<mgrwt>
<rscale>  2 0.17385611E+03</rscale>
<asrwt>0</asrwt>
<pdfrwt beam="1">  1       21 0.12507457E+00 0.17385611E+03</pdfrwt>
<pdfrwt beam="2">  1       21 0.59531750E-02 0.17385611E+03</pdfrwt>
<totfact> 0.95994828E+04</totfact>
</mgrwt>
</event>
<event>
 4    1  0.3948468E+000  0.2097799E+03  0.7546771E-02  0.1141740E+00
         21   -1    0    0  503  502  0.00000000000E+00  0.00000000000E+00  0.25680354141E+04  0.25680354141E+04  0.00000000000E+00 0. -1.
         21   -1    0    0  501  503 -0.00000000000E+00 -0.00000000000E+00 -0.17894965791E+02  0.17894965791E+02  0.00000000000E+00 0. -1.
          6    1    1    2  501    0  0.98280792608E+02  0.66479262523E+02  0.15412268310E+04  0.15554381219E+04  0.17300000000E+03 0. -1.
         -6    1    1    2    0  502 -0.98280792608E+02 -0.66479262523E+02  0.10089136174E+04  0.10304922580E+04  0.17300000000E+03 0. -1.
<mgrwt>
<rscale>  2 0.20977990E+03</rscale>
<asrwt>0</asrwt>
<pdfrwt beam="1">  1       21 0.39508208E+00 0.20977990E+03</pdfrwt>
<pdfrwt beam="2">  1       21 0.27530737E-02 0.20977990E+03</pdfrwt>
<totfact> 0.66692696E+03</totfact>
</mgrwt>
</event>
<event>
 4    1  0.3948468E+000  0.1802045E+03  0.7546771E-02  0.1167605E+00
         21   -1    0    0  503  502  0.00000000000E+00  0.00000000000E+00  0.82041982081E+03  0.82041982081E+03  0.00000000000E+00 0.  1.
         21   -1    0    0  501  503 -0.00000000000E+00 -0.00000000000E+00 -0.69565933139E+02  0.69565933139E+02  0.00000000000E+00 0.  1.
          6    1    1    2  501    0  0.50350707559E+02  0.30774382063E+01  0.83280398201E+02  0.19851772994E+03  0.17300000000E+03 0.  1.
         -6    1    1    2    0  502 -0.50350707559E+02 -0.30774382063E+01  0.66757348947E+03  0.69146802400E+03  0.17300000000E+03 0.  1.
<mgrwt>
<rscale>  2 0.18020451E+03</rscale>
<asrwt>0</asrwt>
<pdfrwt beam="1">  1       21 0.12621843E+00 0.18020451E+03</pdfrwt>
<pdfrwt beam="2">  1       21 0.10702452E-01 0.18020451E+03</pdfrwt>
<totfact> 0.33741671E+04</totfact>
</mgrwt>
</event>
<event>
 4    1  0.3948468E+000  0.2003339E+03  0.7546771E-02  0.1149458E+00
         21   -1    0    0  503  502  0.00000000000E+00  0.00000000000E+00  0.14757616406E+03  0.14757616406E+03  0.00000000000E+00 0.  1.
         21   -1    0    0  501  503 -0.00000000000E+00 -0.00000000000E+00 -0.64308406455E+03  0.64308406455E+03  0.00000000000E+00 0.  1.
          6    1    1    2  501    0 -0.97754087652E+02  0.25471616627E+02 -0.54807801697E+03  0.58354363813E+03  0.17300000000E+03 0.  1.
         -6    1    1    2    0  502  0.97754087652E+02 -0.25471616627E+02  0.52570116489E+02  0.20711659048E+03  0.17300000000E+03 0.  1.
<mgrwt>
<rscale>  2 0.20033388E+03</rscale>
<asrwt>0</asrwt>
<pdfrwt beam="1">  1       21 0.22704026E-01 0.20033388E+03</pdfrwt>
<pdfrwt beam="2">  1       21 0.98936008E-01 0.20033388E+03</pdfrwt>
<totfact> 0.15238157E+04</totfact>
</mgrwt>
</event>
<event>
 4    1  0.3948468E+000  0.1935260E+03  0.7546771E-02  0.1155319E+00
         21   -1    0    0  501  502  0.00000000000E+00  0.00000000000E+00  0.18520180483E+02  0.18520180483E+02  0.00000000000E+00 0.  1.
         21   -1    0    0  502  503 -0.00000000000E+00 -0.00000000000E+00 -0.21435545454E+04  0.21435545454E+04  0.00000000000E+00 0.  1.
          6    1    1    2  501    0 -0.35917162168E+02  0.78951082187E+02 -0.80534530212E+03  0.82827131519E+03  0.17300000000E+03 0.  1.
         -6    1    1    2    0  503  0.35917162168E+02 -0.78951082187E+02 -0.13196890628E+04  0.13338034107E+04  0.17300000000E+03 0.  1.
<mgrwt>
<rscale>  2 0.19352601E+03</rscale>
<asrwt>0</asrwt>
<pdfrwt beam="1">  1       21 0.28492599E-02 0.19352601E+03</pdfrwt>
<pdfrwt beam="2">  1       21 0.32977746E+00 0.19352601E+03</pdfrwt>
<totfact> 0.15810053E+04</totfact>
</mgrwt>
</event>
<event>
 4    1  0.3948468E+000  0.2706018E+03  0.7546771E-02  0.1100936E+00
         21   -1    0    0  503  502  0.00000000000E+00  0.00000000000E+00  0.84323136126E+02  0.84323136126E+02  0.00000000000E+00 0.  1.
         21   -1    0    0  501  503 -0.00000000000E+00 -0.00000000000E+00 -0.87207163252E+03  0.87207163252E+03  0.00000000000E+00 0.  1.
          6    1    1    2  501    0 -0.19371324275E+03 -0.75970371468E+02 -0.36280100367E+03  0.45260345339E+03  0.17300000000E+03 0.  1.
         -6    1    1    2    0  502  0.19371324275E+03  0.75970371468E+02 -0.42494749273E+03  0.50379131526E+03  0.17300000000E+03 0.  1.
<mgrwt>
<rscale>  2 0.27060177E+03</rscale>
<asrwt>0</asrwt>
<pdfrwt beam="1">  1       21 0.12972791E-01 0.27060177E+03</pdfrwt>
<pdfrwt beam="2">  1       21 0.13416486E+00 0.27060177E+03</pdfrwt>
<totfact> 0.19476317E+04</totfact>
</mgrwt>
</event>
<event>
 4    1  0.3948468E+000  0.3459330E+03  0.7546771E-02  0.1064297E+00
         21   -1    0    0  503  502  0.00000000000E+00  0.00000000000E+00  0.18431256032E+04  0.18431256032E+04  0.00000000000E+00 0. -1.
         21   -1    0    0  501  503 -0.00000000000E+00 -0.00000000000E+00 -0.65726915999E+02  0.65726915999E+02  0.00000000000E+00 0.  1.
          6    1    1    2  501    0 -0.12764533890E+03  0.27101162597E+03  0.99395440033E+03  0.10524328881E+04  0.17300000000E+03 0. -1.
         -6    1    1    2    0  502  0.12764533890E+03 -0.27101162597E+03  0.78344428689E+03  0.85641963115E+03  0.17300000000E+03 0.  1.
<mgrwt>
<rscale>  2 0.34593299E+03</rscale>
<asrwt>0</asrwt>
<pdfrwt beam="1">  1       21 0.28355775E+00 0.34593299E+03</pdfrwt>
<pdfrwt beam="2">  1       21 0.10111835E-01 0.34593299E+03</pdfrwt>
<totfact> 0.29594097E+03</totfact>
</mgrwt>
</event>
<event>
 4    1  0.3948468E+000  0.2054713E+03  0.7546771E-02  0.1145203E+00
         21   -1    0    0  503  502  0.00000000000E+00  0.00000000000E+00  0.39566157392E+03  0.39566157392E+03  0.00000000000E+00 0.  1.
         21   -1    0    0  501  503 -0.00000000000E+00 -0.00000000000E+00 -0.12956535681E+03  0.12956535681E+03  0.00000000000E+00 0.  1.
          6    1    1    2  501    0 -0.52627288585E+02 -0.97569667608E+02  0.22734683212E+02  0.20672527025E+03  0.17300000000E+03 0.  1.
         -6    1    1    2    0  502  0.52627288585E+02  0.97569667608E+02  0.24336153390E+03  0.31850166047E+03  0.17300000000E+03 0.  1.
<mgrwt>
<rscale>  2 0.20547134E+03</rscale>
<asrwt>0</asrwt>
<pdfrwt beam="1">  1       21 0.60871011E-01 0.20547134E+03</pdfrwt>
<pdfrwt beam="2">  1       21 0.19933132E-01 0.20547134E+03</pdfrwt>
<totfact> 0.57999433E+04</totfact>
</mgrwt>
</event>
