<event>
 4    1  0.8114601E-008  0.6808511E+03  0.7818608E-02  0.1008846E+00
          1   -1    0    0  501    0  0.00000000000E+00  0.00000000000E+00  0.15396483584E+04  0.15396483584E+04  0.50400000000E-02 0. -1.
         -1   -1    0    0    0  501 -0.00000000000E+00 -0.00000000000E+00 -0.90497012861E+03  0.90497012863E+03  0.50400000000E-02 0.  1.
    8880023    1    1    2    0    0  0.88346460195E+02  0.14813163111E+03  0.14475594088E+04  0.15996832579E+04  0.65864270000E+03 0. -1.
    8880022    1    1    2    0    0 -0.88346460195E+02 -0.14813163111E+03 -0.81288117906E+03  0.84493522914E+03  0.15294330000E+03 0.  0.
<mgrwt>
<rscale>  0 0.51935767E+03</rscale>
<asrwt>0</asrwt>
<pdfrwt beam="1">  1        1 0.23686898E+00 0.68085115E+03</pdfrwt>
<pdfrwt beam="2">  1       -1 0.13922618E+00 0.68085115E+03</pdfrwt>
<totfact> 0.27676293E+00</totfact>
</mgrwt>
</event>
<event>
 4    1  0.8114601E-008  0.7846110E+03  0.7818608E-02  0.9745115E-01
          1   -1    0    0  501    0  0.00000000000E+00  0.00000000000E+00  0.83383594056E+03  0.83383594058E+03  0.50400000000E-02 0. -1.
         -1   -1    0    0    0  501 -0.00000000000E+00 -0.00000000000E+00 -0.71404937946E+03  0.71404937947E+03  0.50400000000E-02 0.  1.
    8880023    1    1    2    0    0 -0.42318921471E+03  0.52106236908E+02  0.52176504220E+03  0.94225959104E+03  0.65864270000E+03 0.  0.
    8880022    1    1    2    0    0  0.42318921471E+03 -0.52106236908E+02 -0.40197848110E+03  0.60562572902E+03  0.15294330000E+03 0.  0.
<mgrwt>
<rscale>  0 0.68393030E+03</rscale>
<asrwt>0</asrwt>
<pdfrwt beam="1">  1        1 0.12828245E+00 0.78461097E+03</pdfrwt>
<pdfrwt beam="2">  1       -1 0.10985375E+00 0.78461097E+03</pdfrwt>
<totfact> 0.16214897E+01</totfact>
</mgrwt>
</event>
<event>
 4    1  0.8986261E-008  0.1008504E+04  0.7818608E-02  0.9370515E-01
         -1   -1    0    0    0  501 -0.00000000000E+00  0.00000000000E+00  0.90795617965E+03  0.90795617966E+03  0.50400000000E-02 0.  1.
          1   -1    0    0  501    0  0.00000000000E+00 -0.00000000000E+00 -0.19476616460E+04  0.19476616460E+04  0.50400000000E-02 0. -1.
    8880023    1    1    2    0    0  0.50070416555E+03 -0.57668522901E+03 -0.16033714637E+04  0.18941702066E+04  0.65864270000E+03 0. -1.
    8880022    1    1    2    0    0 -0.50070416555E+03  0.57668522901E+03  0.56366599730E+03  0.96144761910E+03  0.15294330000E+03 0.  0.
<mgrwt>
<rscale>  0 0.94542405E+03</rscale>
<asrwt>0</asrwt>
<pdfrwt beam="1">  1        1 0.29964025E+00 0.10085042E+04</pdfrwt>
<pdfrwt beam="2">  1       -1 0.13968557E+00 0.10085042E+04</pdfrwt>
<totfact> 0.13758256E+00</totfact>
</mgrwt>
</event>
<event>
 4    1  0.8114601E-008  0.1055685E+04  0.7818608E-02  0.9312078E-01
          1   -1    0    0  501    0  0.00000000000E+00  0.00000000000E+00  0.12547255897E+04  0.12547255897E+04  0.50400000000E-02 0. -1.
         -1   -1    0    0    0  501 -0.00000000000E+00 -0.00000000000E+00 -0.10440695726E+04  0.10440695727E+04  0.50400000000E-02 0.  1.
    8880023    1    1    2    0    0 -0.70750806271E+03  0.42437433259E+03 -0.52849470120E+03  0.11805837914E+04  0.65864270000E+03 0.  0.
    8880022    1    1    2    0    0  0.70750806271E+03 -0.42437433259E+03  0.73915071828E+03  0.11182113710E+04  0.15294330000E+03 0.  0.
<mgrwt>
<rscale>  0 0.99678505E+03</rscale>
<asrwt>0</asrwt>
<pdfrwt beam="1">  1        1 0.19303471E+00 0.10556853E+04</pdfrwt>
<pdfrwt beam="2">  1       -1 0.16062609E+00 0.10556853E+04</pdfrwt>
<totfact> 0.28095916E+00</totfact>
</mgrwt>
</event>
<event>
 4    1  0.8114601E-008  0.9989699E+03  0.7818608E-02  0.9382907E-01
          1   -1    0    0  501    0  0.00000000000E+00  0.00000000000E+00  0.29071891861E+04  0.29071891861E+04  0.50400000000E-02 0. -1.
         -1   -1    0    0    0  501 -0.00000000000E+00 -0.00000000000E+00 -0.37200992151E+03  0.37200992154E+03  0.50400000000E-02 0.  1.
    8880023    1    1    2    0    0  0.67402763567E+03  0.33138703021E+03  0.22492398848E+04  0.24611015588E+04  0.65864270000E+03 0. -1.
    8880022    1    1    2    0    0 -0.67402763567E+03 -0.33138703021E+03  0.28593937986E+03  0.81809754884E+03  0.15294330000E+03 0.  0.
<mgrwt>
<rscale>  0 0.93495851E+03</rscale>
<asrwt>0</asrwt>
<pdfrwt beam="1">  1        1 0.44725987E+00 0.99896988E+03</pdfrwt>
<pdfrwt beam="2">  1       -1 0.57232296E-01 0.99896988E+03</pdfrwt>
<totfact> 0.22149928E+00</totfact>
</mgrwt>
</event>
<event>
 4    1  0.8114601E-008  0.7864112E+03  0.7818608E-02  0.9740987E-01
          1   -1    0    0  501    0  0.00000000000E+00  0.00000000000E+00  0.76366308124E+03  0.76366308126E+03  0.50400000000E-02 0. -1.
         -1   -1    0    0    0  501 -0.00000000000E+00 -0.00000000000E+00 -0.68293369774E+03  0.68293369776E+03  0.50400000000E-02 0.  1.
    8880023    1    1    2    0    0  0.36215193137E+03 -0.23125381696E+03  0.40731223430E+03  0.88563300059E+03  0.65864270000E+03 0.  0.
    8880022    1    1    2    0    0 -0.36215193137E+03  0.23125381696E+03 -0.32658285081E+03  0.56096377843E+03  0.15294330000E+03 0.  0.
<mgrwt>
<rscale>  0 0.68628016E+03</rscale>
<asrwt>0</asrwt>
<pdfrwt beam="1">  1        1 0.11748663E+00 0.78641119E+03</pdfrwt>
<pdfrwt beam="2">  1       -1 0.10506672E+00 0.78641119E+03</pdfrwt>
<totfact> 0.20704690E+01</totfact>
</mgrwt>
</event>
<event>
 4    1  0.8114601E-008  0.9141808E+03  0.7818608E-02  0.9503640E-01
         -1   -1    0    0    0  501 -0.00000000000E+00  0.00000000000E+00  0.19569828007E+04  0.19569828007E+04  0.50400000000E-02 0.  1.
          1   -1    0    0  501    0  0.00000000000E+00 -0.00000000000E+00 -0.67204033291E+03  0.67204033293E+03  0.50400000000E-02 0. -1.
    8880023    1    1    2    0    0  0.60459466900E+03  0.19073975928E+03 -0.26137172820E+03  0.95081110433E+03  0.65864270000E+03 0.  0.
    8880022    1    1    2    0    0 -0.60459466900E+03 -0.19073975928E+03  0.15463141959E+04  0.16782120293E+04  0.15294330000E+03 0.  0.
<mgrwt>
<rscale>  0 0.84016005E+03</rscale>
<asrwt>0</asrwt>
<pdfrwt beam="1">  1        1 0.10339082E+00 0.91418082E+03</pdfrwt>
<pdfrwt beam="2">  1       -1 0.30107427E+00 0.91418082E+03</pdfrwt>
<totfact> 0.96724777E-01</totfact>
</mgrwt>
</event>
<event>
 4    1  0.8114601E-008  0.9290589E+03  0.7818608E-02  0.9480906E-01
          1   -1    0    0  501    0  0.00000000000E+00  0.00000000000E+00  0.31584061387E+04  0.31584061387E+04  0.50400000000E-02 0. -1.
         -1   -1    0    0    0  501 -0.00000000000E+00 -0.00000000000E+00 -0.38932768795E+03  0.38932768798E+03  0.50400000000E-02 0.  1.
    8880023    1    1    2    0    0  0.33501297168E+03  0.56312220684E+03  0.27186262865E+04  0.28729913684E+04  0.65864270000E+03 0.  0.
    8880022    1    1    2    0    0 -0.33501297168E+03 -0.56312220684E+03  0.50452164178E+02  0.67474245821E+03  0.15294330000E+03 0.  0.
<mgrwt>
<rscale>  0 0.85706270E+03</rscale>
<asrwt>0</asrwt>
<pdfrwt beam="1">  1        1 0.48590864E+00 0.92905894E+03</pdfrwt>
<pdfrwt beam="2">  1       -1 0.59896567E-01 0.92905894E+03</pdfrwt>
<totfact> 0.13471851E+00</totfact>
</mgrwt>
</event>
<event>
 4    1  0.8114601E-008  0.8314485E+03  0.7818608E-02  0.9646521E-01
          1   -1    0    0  501    0  0.00000000000E+00  0.00000000000E+00  0.11898968120E+04  0.11898968120E+04  0.50400000000E-02 0. -1.
         -1   -1    0    0    0  501 -0.00000000000E+00 -0.00000000000E+00 -0.15524218182E+04  0.15524218182E+04  0.50400000000E-02 0.  1.
    8880023    1    1    2    0    0 -0.47314276895E+03  0.18339114774E+03  0.98813307660E+03  0.12913998514E+04  0.65864270000E+03 0. -1.
    8880022    1    1    2    0    0  0.47314276895E+03 -0.18339114774E+03 -0.13506580828E+04  0.14509187788E+04  0.15294330000E+03 0.  0.
<mgrwt>
<rscale>  0 0.74292192E+03</rscale>
<asrwt>0</asrwt>
<pdfrwt beam="1">  1        1 0.18306105E+00 0.83144849E+03</pdfrwt>
<pdfrwt beam="2">  1       -1 0.23883412E+00 0.83144849E+03</pdfrwt>
<totfact> 0.92961805E-01</totfact>
</mgrwt>
</event>
<event>
 4    1  0.8114601E-008  0.7000072E+03  0.7818608E-02  0.9997171E-01
          1   -1    0    0  501    0  0.00000000000E+00  0.00000000000E+00  0.21076558586E+04  0.21076558586E+04  0.50400000000E-02 0. -1.
         -1   -1    0    0    0  501 -0.00000000000E+00 -0.00000000000E+00 -0.37545680102E+03  0.37545680106E+03  0.50400000000E-02 0.  1.
    8880023    1    1    2    0    0 -0.12363392482E+03 -0.20227342200E+03  0.19846811227E+04  0.21045116416E+04  0.65864270000E+03 0. -1.
    8880022    1    1    2    0    0  0.12363392482E+03  0.20227342200E+03 -0.25248206515E+03  0.37860101802E+03  0.15294330000E+03 0.  0.
<mgrwt>
<rscale>  0 0.55774444E+03</rscale>
<asrwt>0</asrwt>
<pdfrwt beam="1">  1        1 0.32425475E+00 0.70000721E+03</pdfrwt>
<pdfrwt beam="2">  1       -1 0.57762584E-01 0.70000721E+03</pdfrwt>
<totfact> 0.80877610E+00</totfact>
</mgrwt>
</event>
<event>
 4    1  0.8114601E-008  0.1329532E+04  0.7818608E-02  0.9040467E-01
          1   -1    0    0  501    0  0.00000000000E+00  0.00000000000E+00  0.10706635820E+04  0.10706635821E+04  0.50400000000E-02 0. -1.
         -1   -1    0    0    0  501 -0.00000000000E+00 -0.00000000000E+00 -0.14912722222E+04  0.14912722222E+04  0.50400000000E-02 0.  1.
    8880023    1    1    2    0    0 -0.54555130729E+03  0.10179488974E+04 -0.19057001873E+02  0.13296689672E+04  0.65864270000E+03 0.  0.
    8880022    1    1    2    0    0  0.54555130729E+03 -0.10179488974E+04 -0.40155163831E+03  0.12322668371E+04  0.15294330000E+03 0.  0.
<mgrwt>
<rscale>  0 0.12863412E+04</rscale>
<asrwt>0</asrwt>
<pdfrwt beam="1">  1        1 0.16471747E+00 0.13295324E+04</pdfrwt>
<pdfrwt beam="2">  1       -1 0.22942650E+00 0.13295324E+04</pdfrwt>
<totfact> 0.12290287E+00</totfact>
</mgrwt>
</event>
<event>
 4    1  0.8114601E-008  0.9286707E+03  0.7818608E-02  0.9481490E-01
          1   -1    0    0  501    0  0.00000000000E+00  0.00000000000E+00  0.20709575931E+04  0.20709575931E+04  0.50400000000E-02 0. -1.
         -1   -1    0    0    0  501 -0.00000000000E+00 -0.00000000000E+00 -0.77818568518E+03  0.77818568520E+03  0.50400000000E-02 0.  1.
    8880023    1    1    2    0    0 -0.56063123262E+03 -0.33810016487E+03  0.17875492176E+04  0.20143886199E+04  0.65864270000E+03 0.  0.
    8880022    1    1    2    0    0  0.56063123262E+03  0.33810016487E+03 -0.49477730969E+03  0.83475465837E+03  0.15294330000E+03 0.  1.
<mgrwt>
<rscale>  0 0.85662335E+03</rscale>
<asrwt>0</asrwt>
<pdfrwt beam="1">  1        1 0.31860886E+00 0.92867072E+03</pdfrwt>
<pdfrwt beam="2">  1       -1 0.11972087E+00 0.92867072E+03</pdfrwt>
<totfact> 0.16989474E+00</totfact>
</mgrwt>
</event>
<event>
 4    1  0.8114601E-008  0.1104642E+04  0.7818608E-02  0.9255905E-01
          1   -1    0    0  501    0  0.00000000000E+00  0.00000000000E+00  0.13008624349E+04  0.13008624349E+04  0.50400000000E-02 0. -1.
         -1   -1    0    0    0  501 -0.00000000000E+00 -0.00000000000E+00 -0.15188401514E+04  0.15188401514E+04  0.50400000000E-02 0.  1.
    8880023    1    1    2    0    0 -0.47094399542E+03 -0.75142285691E+03  0.87120785451E+03  0.14068538974E+04  0.65864270000E+03 0. -1.
    8880022    1    1    2    0    0  0.47094399542E+03  0.75142285691E+03 -0.10891855709E+04  0.14128486889E+04  0.15294330000E+03 0.  0.
<mgrwt>
<rscale>  0 0.10494568E+04</rscale>
<asrwt>0</asrwt>
<pdfrwt beam="1">  1        1 0.20013268E+00 0.11046424E+04</pdfrwt>
<pdfrwt beam="2">  1       -1 0.23366771E+00 0.11046424E+04</pdfrwt>
<totfact> 0.80049806E-01</totfact>
</mgrwt>
</event>
<event>
 4    1  0.8114601E-008  0.1151560E+04  0.7818608E-02  0.9205711E-01
          1   -1    0    0  501    0  0.00000000000E+00  0.00000000000E+00  0.13127342049E+04  0.13127342049E+04  0.50400000000E-02 0. -1.
         -1   -1    0    0    0  501 -0.00000000000E+00 -0.00000000000E+00 -0.11086423139E+04  0.11086423139E+04  0.50400000000E-02 0.  1.
    8880023    1    1    2    0    0 -0.63898113656E+03  0.69568967002E+03  0.69588291577E+03  0.13454903376E+04  0.65864270000E+03 0. -1.
    8880022    1    1    2    0    0  0.63898113656E+03 -0.69568967002E+03 -0.49179102477E+03  0.10758861812E+04  0.15294330000E+03 0.  0.
<mgrwt>
<rscale>  0 0.10994679E+04</rscale>
<asrwt>0</asrwt>
<pdfrwt beam="1">  1        1 0.20195911E+00 0.11515603E+04</pdfrwt>
<pdfrwt beam="2">  1       -1 0.17056036E+00 0.11515603E+04</pdfrwt>
<totfact> 0.21282437E+00</totfact>
</mgrwt>
</event>
<event>
 4    1  0.8338785E-008  0.9113171E+03  0.7818608E-02  0.9508103E-01
          1   -1    0    0  501    0  0.00000000000E+00  0.00000000000E+00  0.13313791827E+04  0.13313791827E+04  0.50400000000E-02 0. -1.
         -1   -1    0    0    0  501 -0.00000000000E+00 -0.00000000000E+00 -0.12613464592E+04  0.12613464592E+04  0.50400000000E-02 0.  1.
    8880023    1    1    2    0    0  0.32939487781E+03 -0.53683110813E+03  0.10672451424E+04  0.14033926836E+04  0.65864270000E+03 0.  0.
    8880022    1    1    2    0    0 -0.32939487781E+03  0.53683110813E+03 -0.99721241897E+03  0.11893329583E+04  0.15294330000E+03 0.  0.
<mgrwt>
<rscale>  0 0.83689056E+03</rscale>
<asrwt>0</asrwt>
<pdfrwt beam="1">  1        1 0.20482757E+00 0.91131709E+03</pdfrwt>
<pdfrwt beam="2">  1       -1 0.19405330E+00 0.91131709E+03</pdfrwt>
<totfact> 0.14490665E+00</totfact>
</mgrwt>
</event>
<event>
 4    1  0.8114601E-008  0.9281282E+03  0.7818608E-02  0.9482307E-01
          1   -1    0    0  501    0  0.00000000000E+00  0.00000000000E+00  0.13040466518E+04  0.13040466518E+04  0.50400000000E-02 0. -1.
         -1   -1    0    0    0  501 -0.00000000000E+00 -0.00000000000E+00 -0.58794891287E+03  0.58794891289E+03  0.50400000000E-02 0.  1.
    8880023    1    1    2    0    0 -0.53912960034E+03 -0.37006890858E+03  0.25171413264E+02  0.92846945527E+03  0.65864270000E+03 0.  0.
    8880022    1    1    2    0    0  0.53912960034E+03  0.37006890858E+03  0.69092632569E+03  0.96352610946E+03  0.15294330000E+03 0.  0.
<mgrwt>
<rscale>  0 0.85600923E+03</rscale>
<asrwt>0</asrwt>
<pdfrwt beam="1">  1        1 0.20062256E+00 0.92812819E+03</pdfrwt>
<pdfrwt beam="2">  1       -1 0.90453680E-01 0.92812819E+03</pdfrwt>
<totfact> 0.10864608E+01</totfact>
</mgrwt>
</event>
<event>
 4    1  0.8114601E-008  0.7534663E+03  0.7818608E-02  0.9822326E-01
         -1   -1    0    0    0  501 -0.00000000000E+00  0.00000000000E+00  0.47769254189E+03  0.47769254192E+03  0.50400000000E-02 0.  1.
          1   -1    0    0  501    0  0.00000000000E+00 -0.00000000000E+00 -0.73541716571E+03  0.73541716573E+03  0.50400000000E-02 0. -1.
    8880023    1    1    2    0    0  0.36379338857E+03  0.39441691540E+02 -0.30669821765E+03  0.81349571577E+03  0.65864270000E+03 0. -1.
    8880022    1    1    2    0    0 -0.36379338857E+03 -0.39441691540E+02  0.48973593836E+02  0.39961399188E+03  0.15294330000E+03 0.  1.
<mgrwt>
<rscale>  0 0.64178052E+03</rscale>
<asrwt>0</asrwt>
<pdfrwt beam="1">  1        1 0.11314110E+00 0.75346631E+03</pdfrwt>
<pdfrwt beam="2">  1       -1 0.73491160E-01 0.75346631E+03</pdfrwt>
<totfact> 0.48163586E+01</totfact>
</mgrwt>
</event>
<event>
 4    1  0.8114601E-008  0.1046267E+04  0.7818608E-02  0.9323383E-01
          1   -1    0    0  501    0  0.00000000000E+00  0.00000000000E+00  0.88803107031E+03  0.88803107032E+03  0.50400000000E-02 0. -1.
         -1   -1    0    0    0  501 -0.00000000000E+00 -0.00000000000E+00 -0.17592306604E+04  0.17592306604E+04  0.50400000000E-02 0.  1.
    8880023    1    1    2    0    0 -0.72716764319E+03 -0.36344353304E+03  0.40875095498E+03  0.11232771397E+04  0.65864270000E+03 0. -1.
    8880022    1    1    2    0    0  0.72716764319E+03  0.36344353304E+03 -0.12799505451E+04  0.15239845911E+04  0.15294330000E+03 0.  0.
<mgrwt>
<rscale>  0 0.98658413E+03</rscale>
<asrwt>0</asrwt>
<pdfrwt beam="1">  1        1 0.13662016E+00 0.10462668E+04</pdfrwt>
<pdfrwt beam="2">  1       -1 0.27065087E+00 0.10462668E+04</pdfrwt>
<totfact> 0.95595121E-01</totfact>
</mgrwt>
</event>
<event>
 4    1  0.8114601E-008  0.1161018E+04  0.7818608E-02  0.9195980E-01
          1   -1    0    0  501    0  0.00000000000E+00  0.00000000000E+00  0.19096540165E+04  0.19096540165E+04  0.50400000000E-02 0. -1.
         -1   -1    0    0    0  501 -0.00000000000E+00 -0.00000000000E+00 -0.69223305531E+03  0.69223305532E+03  0.50400000000E-02 0.  1.
    8880023    1    1    2    0    0  0.72615242892E+03  0.62197646775E+03  0.11454363042E+04  0.16309465380E+04  0.65864270000E+03 0.  0.
    8880022    1    1    2    0    0 -0.72615242892E+03 -0.62197646775E+03  0.71984656986E+02  0.97094053387E+03  0.15294330000E+03 0.  0.
<mgrwt>
<rscale>  0 0.11095020E+04</rscale>
<asrwt>0</asrwt>
<pdfrwt beam="1">  1        1 0.29379292E+00 0.11610178E+04</pdfrwt>
<pdfrwt beam="2">  1       -1 0.10649740E+00 0.11610178E+04</pdfrwt>
<totfact> 0.27972420E+00</totfact>
</mgrwt>
</event>
<event>
 4    1  0.8114601E-008  0.1241030E+04  0.7818608E-02  0.9118234E-01
          1   -1    0    0  501    0  0.00000000000E+00  0.00000000000E+00  0.10299481970E+04  0.10299481970E+04  0.50400000000E-02 0. -1.
         -1   -1    0    0    0  501 -0.00000000000E+00 -0.00000000000E+00 -0.48937017596E+04  0.48937017596E+04  0.50400000000E-02 0.  1.
    8880023    1    1    2    0    0 -0.93254376569E+03 -0.48652685063E+03  0.56899487371E+03  0.13652514874E+04  0.65864270000E+03 0.  0.
    8880022    1    1    2    0    0  0.93254376569E+03  0.48652685063E+03 -0.44327484363E+04  0.45583984692E+04  0.15294330000E+03 0.  0.
<mgrwt>
<rscale>  0 0.11938755E+04</rscale>
<asrwt>0</asrwt>
<pdfrwt beam="1">  1        1 0.15845357E+00 0.12410304E+04</pdfrwt>
<pdfrwt beam="2">  1       -1 0.75287718E+00 0.12410304E+04</pdfrwt>
<totfact> 0.17610677E-03</totfact>
</mgrwt>
</event>
<event>
 4    1  0.8114601E-008  0.1091592E+04  0.7818608E-02  0.9270476E-01
         -1   -1    0    0    0  501 -0.00000000000E+00  0.00000000000E+00  0.25560309081E+04  0.25560309081E+04  0.50400000000E-02 0.  1.
          1   -1    0    0  501    0  0.00000000000E+00 -0.00000000000E+00 -0.10034495530E+04  0.10034495530E+04  0.50400000000E-02 0. -1.
    8880023    1    1    2    0    0 -0.75071709792E+03 -0.44066529326E+03  0.22053545306E+04  0.24607236484E+04  0.65864270000E+03 0.  0.
    8880022    1    1    2    0    0  0.75071709792E+03  0.44066529326E+03 -0.65277317551E+03  0.10987568127E+04  0.15294330000E+03 0.  0.
<mgrwt>
<rscale>  0 0.10354693E+04</rscale>
<asrwt>0</asrwt>
<pdfrwt beam="1">  1        1 0.15437686E+00 0.10915916E+04</pdfrwt>
<pdfrwt beam="2">  1       -1 0.39323552E+00 0.10915916E+04</pdfrwt>
<totfact> 0.12070679E-01</totfact>
</mgrwt>
</event>
<event>
 4    1  0.8114601E-008  0.8221802E+03  0.7818608E-02  0.9664743E-01
         -1   -1    0    0    0  501 -0.00000000000E+00  0.00000000000E+00  0.14267291407E+04  0.14267291407E+04  0.50400000000E-02 0.  1.
          1   -1    0    0  501    0  0.00000000000E+00 -0.00000000000E+00 -0.10369004638E+04  0.10369004638E+04  0.50400000000E-02 0. -1.
    8880023    1    1    2    0    0 -0.30885679918E+03 -0.38311558416E+03 -0.81225602416E+03  0.11557422413E+04  0.65864270000E+03 0. -1.
    8880022    1    1    2    0    0  0.30885679918E+03  0.38311558416E+03  0.12020847011E+04  0.13078873632E+04  0.15294330000E+03 0.  0.
<mgrwt>
<rscale>  0 0.73155325E+03</rscale>
<asrwt>0</asrwt>
<pdfrwt beam="1">  1        1 0.15952315E+00 0.82218020E+03</pdfrwt>
<pdfrwt beam="2">  1       -1 0.21949679E+00 0.82218020E+03</pdfrwt>
<totfact> 0.16230361E+00</totfact>
</mgrwt>
</event>
<event>
 4    1  0.8114601E-008  0.9150424E+03  0.7818608E-02  0.9502303E-01
          1   -1    0    0  501    0  0.00000000000E+00  0.00000000000E+00  0.99991577920E+03  0.99991577922E+03  0.50400000000E-02 0. -1.
         -1   -1    0    0    0  501 -0.00000000000E+00 -0.00000000000E+00 -0.91019864184E+03  0.91019864186E+03  0.50400000000E-02 0.  1.
    8880023    1    1    2    0    0  0.55604615516E+03 -0.30709132506E+03  0.58865164406E+03  0.10880318805E+04  0.65864270000E+03 0.  0.
    8880022    1    1    2    0    0 -0.55604615516E+03  0.30709132506E+03 -0.49893450670E+03  0.82208254061E+03  0.15294330000E+03 0.  0.
<mgrwt>
<rscale>  0 0.84114266E+03</rscale>
<asrwt>0</asrwt>
<pdfrwt beam="1">  1        1 0.15383320E+00 0.91504241E+03</pdfrwt>
<pdfrwt beam="2">  1       -1 0.14003056E+00 0.91504241E+03</pdfrwt>
<totfact> 0.64179168E+00</totfact>
</mgrwt>
</event>
<event>
 4    1  0.8114601E-008  0.7345782E+03  0.7818608E-02  0.9876031E-01
          1   -1    0    0  501    0  0.00000000000E+00  0.00000000000E+00  0.89277658675E+03  0.89277658676E+03  0.50400000000E-02 0. -1.
         -1   -1    0    0    0  501 -0.00000000000E+00 -0.00000000000E+00 -0.35515123058E+03  0.35515123061E+03  0.50400000000E-02 0.  1.
    8880023    1    1    2    0    0  0.51089465840E+02 -0.32122399140E+03  0.49543036828E+03  0.88603410896E+03  0.65864270000E+03 0. -1.
    8880022    1    1    2    0    0 -0.51089465840E+02  0.32122399140E+03  0.42194987894E+02  0.36189370841E+03  0.15294330000E+03 0. -1.
<mgrwt>
<rscale>  0 0.61437105E+03</rscale>
<asrwt>0</asrwt>
<pdfrwt beam="1">  1        1 0.13735024E+00 0.73457824E+03</pdfrwt>
<pdfrwt beam="2">  1       -1 0.54638652E-01 0.73457824E+03</pdfrwt>
<totfact> 0.63884210E+01</totfact>
</mgrwt>
</event>
<event>
 4    1  0.8114601E-008  0.1260960E+04  0.7818608E-02  0.9100029E-01
          1   -1    0    0  501    0  0.00000000000E+00  0.00000000000E+00  0.12652764657E+04  0.12652764657E+04  0.50400000000E-02 0. -1.
         -1   -1    0    0    0  501 -0.00000000000E+00 -0.00000000000E+00 -0.16287473510E+04  0.16287473510E+04  0.50400000000E-02 0.  1.
    8880023    1    1    2    0    0 -0.95998450166E+03  0.48439577176E+03  0.64109945882E+03  0.14145770497E+04  0.65864270000E+03 0. -1.
    8880022    1    1    2    0    0  0.95998450166E+03 -0.48439577176E+03 -0.10045703442E+04  0.14794467670E+04  0.15294330000E+03 0.  0.
<mgrwt>
<rscale>  0 0.12147666E+04</rscale>
<asrwt>0</asrwt>
<pdfrwt beam="1">  1        1 0.19465792E+00 0.12609598E+04</pdfrwt>
<pdfrwt beam="2">  1       -1 0.25057652E+00 0.12609598E+04</pdfrwt>
<totfact> 0.64468326E-01</totfact>
</mgrwt>
</event>
<event>
 4    1  0.8114601E-008  0.8571835E+03  0.7818608E-02  0.9598593E-01
          1   -1    0    0  501    0  0.00000000000E+00  0.00000000000E+00  0.82061039095E+03  0.82061039097E+03  0.50400000000E-02 0. -1.
         -1   -1    0    0    0  501 -0.00000000000E+00 -0.00000000000E+00 -0.94716443350E+03  0.94716443352E+03  0.50400000000E-02 0.  1.
    8880023    1    1    2    0    0  0.37389527729E+03  0.40144200640E+03  0.44080443780E+03  0.96388387347E+03  0.65864270000E+03 0.  0.
    8880022    1    1    2    0    0 -0.37389527729E+03 -0.40144200640E+03 -0.56735848035E+03  0.80389095102E+03  0.15294330000E+03 0.  0.
<mgrwt>
<rscale>  0 0.77389361E+03</rscale>
<asrwt>0</asrwt>
<pdfrwt beam="1">  1        1 0.12624775E+00 0.85718351E+03</pdfrwt>
<pdfrwt beam="2">  1       -1 0.14571761E+00 0.85718351E+03</pdfrwt>
<totfact> 0.81470776E+00</totfact>
</mgrwt>
</event>
<event>
 4    1  0.8114601E-008  0.7469271E+03  0.7818608E-02  0.9840210E-01
          1   -1    0    0  501    0  0.00000000000E+00  0.00000000000E+00  0.10434563948E+04  0.10434563948E+04  0.50400000000E-02 0. -1.
         -1   -1    0    0    0  501 -0.00000000000E+00 -0.00000000000E+00 -0.96091144917E+03  0.96091144918E+03  0.50400000000E-02 0.  1.
    8880023    1    1    2    0    0 -0.14917737207E+03  0.31911762273E+03  0.85888397329E+03  0.11382362810E+04  0.65864270000E+03 0. -1.
    8880022    1    1    2    0    0  0.14917737207E+03 -0.31911762273E+03 -0.77633902769E+03  0.86613156299E+03  0.15294330000E+03 0.  0.
<mgrwt>
<rscale>  0 0.63248599E+03</rscale>
<asrwt>0</asrwt>
<pdfrwt beam="1">  1        1 0.16053175E+00 0.74692714E+03</pdfrwt>
<pdfrwt beam="2">  1       -1 0.14783253E+00 0.74692714E+03</pdfrwt>
<totfact> 0.52682008E+00</totfact>
</mgrwt>
</event>
<event>
 4    1  0.8114601E-008  0.1060369E+04  0.7818608E-02  0.9306519E-01
          1   -1    0    0  501    0  0.00000000000E+00  0.00000000000E+00  0.16459193744E+04  0.16459193744E+04  0.50400000000E-02 0. -1.
         -1   -1    0    0    0  501 -0.00000000000E+00 -0.00000000000E+00 -0.15251730550E+04  0.15251730551E+04  0.50400000000E-02 0.  1.
    8880023    1    1    2    0    0 -0.73945967798E+03  0.37917221122E+03  0.13268221939E+04  0.16984815341E+04  0.65864270000E+03 0. -1.
    8880022    1    1    2    0    0  0.73945967798E+03 -0.37917221122E+03 -0.12060758745E+04  0.14726108954E+04  0.15294330000E+03 0.  0.
<mgrwt>
<rscale>  0 0.10018490E+04</rscale>
<asrwt>0</asrwt>
<pdfrwt beam="1">  1        1 0.25321836E+00 0.10603690E+04</pdfrwt>
<pdfrwt beam="2">  1       -1 0.23464201E+00 0.10603690E+04</pdfrwt>
<totfact> 0.45690809E-01</totfact>
</mgrwt>
</event>
<event>
 4    1  0.8114601E-008  0.7640213E+03  0.7818608E-02  0.9794806E-01
          1   -1    0    0  501    0  0.00000000000E+00  0.00000000000E+00  0.29782805278E+04  0.29782805278E+04  0.50400000000E-02 0. -1.
         -1   -1    0    0    0  501 -0.00000000000E+00 -0.00000000000E+00 -0.61566435035E+03  0.61566435037E+03  0.50400000000E-02 0.  1.
    8880023    1    1    2    0    0 -0.17207099098E+03 -0.34685726869E+03  0.28513521486E+04  0.29519379520E+04  0.65864270000E+03 0. -1.
    8880022    1    1    2    0    0  0.17207099098E+03  0.34685726869E+03 -0.48873597115E+03  0.64200692620E+03  0.15294330000E+03 0.  0.
<mgrwt>
<rscale>  0 0.65642042E+03</rscale>
<asrwt>0</asrwt>
<pdfrwt beam="1">  1        1 0.45819700E+00 0.76402133E+03</pdfrwt>
<pdfrwt beam="2">  1       -1 0.94717594E-01 0.76402133E+03</pdfrwt>
<totfact> 0.71939067E-01</totfact>
</mgrwt>
</event>
<event>
 4    1  0.8114601E-008  0.1173067E+04  0.7818608E-02  0.9183758E-01
         -1   -1    0    0    0  501 -0.00000000000E+00  0.00000000000E+00  0.11415576938E+04  0.11415576939E+04  0.50400000000E-02 0.  1.
          1   -1    0    0  501    0  0.00000000000E+00 -0.00000000000E+00 -0.14570778936E+04  0.14570778936E+04  0.50400000000E-02 0. -1.
    8880023    1    1    2    0    0  0.41518416563E+03 -0.87743852586E+03 -0.87900688125E+03  0.14658579609E+04  0.65864270000E+03 0.  0.
    8880022    1    1    2    0    0 -0.41518416563E+03  0.87743852586E+03  0.56348668146E+03  0.11327776266E+04  0.15294330000E+03 0.  0.
<mgrwt>
<rscale>  0 0.11222655E+04</rscale>
<asrwt>0</asrwt>
<pdfrwt beam="1">  1        1 0.22416583E+00 0.11730671E+04</pdfrwt>
<pdfrwt beam="2">  1       -1 0.17562426E+00 0.11730671E+04</pdfrwt>
<totfact> 0.15422485E+00</totfact>
</mgrwt>
</event>
<event>
 4    1  0.8114601E-008  0.1265869E+04  0.7818608E-02  0.9095609E-01
          1   -1    0    0  501    0  0.00000000000E+00  0.00000000000E+00  0.16051363412E+04  0.16051363412E+04  0.50400000000E-02 0. -1.
         -1   -1    0    0    0  501 -0.00000000000E+00 -0.00000000000E+00 -0.10817528394E+04  0.10817528394E+04  0.50400000000E-02 0.  1.
    8880023    1    1    2    0    0  0.10584244116E+04  0.21989028468E+03 -0.32186372218E+03  0.13061471718E+04  0.65864270000E+03 0.  0.
    8880022    1    1    2    0    0 -0.10584244116E+04 -0.21989028468E+03  0.84524722396E+03  0.13807420088E+04  0.15294330000E+03 0.  0.
<mgrwt>
<rscale>  0 0.12199059E+04</rscale>
<asrwt>0</asrwt>
<pdfrwt beam="1">  1        1 0.24694405E+00 0.12658689E+04</pdfrwt>
<pdfrwt beam="2">  1       -1 0.16642351E+00 0.12658689E+04</pdfrwt>
<totfact> 0.14084177E+00</totfact>
</mgrwt>
</event>
<event>
 4    1  0.8114601E-008  0.8205026E+03  0.7818608E-02  0.9668102E-01
         -1   -1    0    0    0  501 -0.00000000000E+00  0.00000000000E+00  0.14297314846E+04  0.14297314846E+04  0.50400000000E-02 0.  1.
          1   -1    0    0  501    0  0.00000000000E+00 -0.00000000000E+00 -0.16647178774E+04  0.16647178774E+04  0.50400000000E-02 0. -1.
    8880023    1    1    2    0    0 -0.48305313901E+03  0.77935464464E+02 -0.15109470302E+04  0.17193561022E+04  0.65864270000E+03 0.  0.
    8880022    1    1    2    0    0  0.48305313901E+03 -0.77935464464E+02  0.12759606375E+04  0.13750932598E+04  0.15294330000E+03 0.  0.
<mgrwt>
<rscale>  0 0.72948162E+03</rscale>
<asrwt>0</asrwt>
<pdfrwt beam="1">  1        1 0.25611044E+00 0.82050258E+03</pdfrwt>
<pdfrwt beam="2">  1       -1 0.21995869E+00 0.82050258E+03</pdfrwt>
<totfact> 0.57916138E-01</totfact>
</mgrwt>
</event>
<event>
 4    1  0.8114601E-008  0.1450106E+04  0.7818608E-02  0.8945695E-01
          1   -1    0    0  501    0  0.00000000000E+00  0.00000000000E+00  0.17009522616E+04  0.17009522616E+04  0.50400000000E-02 0. -1.
         -1   -1    0    0    0  501 -0.00000000000E+00 -0.00000000000E+00 -0.13377134884E+04  0.13377134884E+04  0.50400000000E-02 0.  1.
    8880023    1    1    2    0    0 -0.53687175324E+03 -0.11750605256E+04  0.81267183070E+03  0.16623008840E+04  0.65864270000E+03 0.  0.
    8880022    1    1    2    0    0  0.53687175324E+03  0.11750605256E+04 -0.44943305751E+03  0.13763648660E+04  0.15294330000E+03 0.  0.
<mgrwt>
<rscale>  0 0.14112777E+04</rscale>
<asrwt>0</asrwt>
<pdfrwt beam="1">  1        1 0.26168496E+00 0.14501065E+04</pdfrwt>
<pdfrwt beam="2">  1       -1 0.20580208E+00 0.14501065E+04</pdfrwt>
<totfact> 0.62157981E-01</totfact>
</mgrwt>
</event>
<event>
 4    1  0.8114601E-008  0.8335694E+03  0.7818608E-02  0.9642427E-01
          1   -1    0    0  501    0  0.00000000000E+00  0.00000000000E+00  0.12834938272E+04  0.12834938272E+04  0.50400000000E-02 0. -1.
         -1   -1    0    0    0  501 -0.00000000000E+00 -0.00000000000E+00 -0.80502614785E+03  0.80502614787E+03  0.50400000000E-02 0.  1.
    8880023    1    1    2    0    0 -0.47479590694E+03 -0.18867059488E+03  0.10275050315E+04  0.13231041314E+04  0.65864270000E+03 0. -1.
    8880022    1    1    2    0    0  0.47479590694E+03  0.18867059488E+03 -0.54903735215E+03  0.76541584363E+03  0.15294330000E+03 0.  0.
<mgrwt>
<rscale>  0 0.74550614E+03</rscale>
<asrwt>0</asrwt>
<pdfrwt beam="1">  1        1 0.19746059E+00 0.83356940E+03</pdfrwt>
<pdfrwt beam="2">  1       -1 0.12385018E+00 0.83356940E+03</pdfrwt>
<totfact> 0.54594126E+00</totfact>
</mgrwt>
</event>
<event>
 4    1  0.8114601E-008  0.8346936E+03  0.7818608E-02  0.9640268E-01
          1   -1    0    0  501    0  0.00000000000E+00  0.00000000000E+00  0.12294748516E+04  0.12294748516E+04  0.50400000000E-02 0. -1.
         -1   -1    0    0    0  501 -0.00000000000E+00 -0.00000000000E+00 -0.11500405569E+04  0.11500405569E+04  0.50400000000E-02 0.  1.
    8880023    1    1    2    0    0  0.37530409525E+03 -0.34935656641E+03  0.10074437545E+04  0.13083028316E+04  0.65864270000E+03 0.  0.
    8880022    1    1    2    0    0 -0.37530409525E+03  0.34935656641E+03 -0.92800945982E+03  0.10712125769E+04  0.15294330000E+03 0.  0.
<mgrwt>
<rscale>  0 0.74687340E+03</rscale>
<asrwt>0</asrwt>
<pdfrwt beam="1">  1        1 0.18914998E+00 0.83469358E+03</pdfrwt>
<pdfrwt beam="2">  1       -1 0.17692932E+00 0.83469358E+03</pdfrwt>
<totfact> 0.22912143E+00</totfact>
</mgrwt>
</event>
<event>
 4    1  0.8114601E-008  0.7863924E+03  0.7818608E-02  0.9741030E-01
          1   -1    0    0  501    0  0.00000000000E+00  0.00000000000E+00  0.11121239334E+04  0.11121239334E+04  0.50400000000E-02 0. -1.
         -1   -1    0    0    0  501 -0.00000000000E+00 -0.00000000000E+00 -0.42863631293E+03  0.42863631296E+03  0.50400000000E-02 0.  1.
    8880023    1    1    2    0    0  0.21284660311E+03  0.37322793724E+03  0.74171173686E+03  0.10809945774E+04  0.65864270000E+03 0.  0.
    8880022    1    1    2    0    0 -0.21284660311E+03 -0.37322793724E+03 -0.58224116382E+02  0.45976566894E+03  0.15294330000E+03 0.  0.
<mgrwt>
<rscale>  0 0.68625565E+03</rscale>
<asrwt>0</asrwt>
<pdfrwt beam="1">  1        1 0.17109599E+00 0.78639238E+03</pdfrwt>
<pdfrwt beam="2">  1       -1 0.65944049E-01 0.78639238E+03</pdfrwt>
<totfact> 0.29628729E+01</totfact>
</mgrwt>
</event>
<event>
 4    1  0.8114601E-008  0.8252704E+03  0.7818608E-02  0.9658606E-01
         -1   -1    0    0    0  501 -0.00000000000E+00  0.00000000000E+00  0.58563200677E+03  0.58563200679E+03  0.50400000000E-02 0.  1.
          1   -1    0    0  501    0  0.00000000000E+00 -0.00000000000E+00 -0.21167043615E+04  0.21167043615E+04  0.50400000000E-02 0. -1.
    8880023    1    1    2    0    0  0.34434685699E+03  0.35872863078E+03 -0.18953576563E+04  0.20672328945E+04  0.65864270000E+03 0. -1.
    8880022    1    1    2    0    0 -0.34434685699E+03 -0.35872863078E+03  0.36428530159E+03  0.63510347380E+03  0.15294330000E+03 0.  0.
<mgrwt>
<rscale>  0 0.73535784E+03</rscale>
<asrwt>0</asrwt>
<pdfrwt beam="1">  1        1 0.32564682E+00 0.82527038E+03</pdfrwt>
<pdfrwt beam="2">  1       -1 0.90097233E-01 0.82527038E+03</pdfrwt>
<totfact> 0.31121992E+00</totfact>
</mgrwt>
</event>
<event>
 4    1  0.8222878E-008  0.9364450E+03  0.7818608E-02  0.9469891E-01
          1   -1    0    0  501    0  0.00000000000E+00  0.00000000000E+00  0.19898665973E+04  0.19898665973E+04  0.50400000000E-02 0. -1.
         -1   -1    0    0    0  501 -0.00000000000E+00 -0.00000000000E+00 -0.96965767148E+03  0.96965767149E+03  0.50400000000E-02 0.  1.
    8880023    1    1    2    0    0 -0.62924664286E+03  0.21718145100E+03  0.17345528953E+04  0.19711933120E+04  0.65864270000E+03 0.  0.
    8880022    1    1    2    0    0  0.62924664286E+03 -0.21718145100E+03 -0.71434396957E+03  0.98833095676E+03  0.15294330000E+03 0.  0.
<mgrwt>
<rscale>  0 0.86540506E+03</rscale>
<asrwt>0</asrwt>
<pdfrwt beam="1">  1        1 0.30613332E+00 0.93644505E+03</pdfrwt>
<pdfrwt beam="2">  1       -1 0.14917810E+00 0.93644505E+03</pdfrwt>
<totfact> 0.10949777E+00</totfact>
</mgrwt>
</event>
<event>
 4    1  0.8114601E-008  0.6724785E+03  0.7818608E-02  0.1013945E+00
          1   -1    0    0  501    0  0.00000000000E+00  0.00000000000E+00  0.20144736417E+04  0.20144736417E+04  0.50400000000E-02 0. -1.
         -1   -1    0    0    0  501 -0.00000000000E+00 -0.00000000000E+00 -0.81174481636E+03  0.81174481638E+03  0.50400000000E-02 0.  1.
    8880023    1    1    2    0    0 -0.35483650169E+02  0.13098888198E+03  0.19441234430E+04  0.20571444637E+04  0.65864270000E+03 0. -1.
    8880022    1    1    2    0    0  0.35483650169E+02 -0.13098888198E+03 -0.74139461770E+03  0.76907399436E+03  0.15294330000E+03 0.  0.
<mgrwt>
<rscale>  0 0.49936411E+03</rscale>
<asrwt>0</asrwt>
<pdfrwt beam="1">  1        1 0.30991902E+00 0.67247854E+03</pdfrwt>
<pdfrwt beam="2">  1       -1 0.12488382E+00 0.67247854E+03</pdfrwt>
<totfact> 0.17538722E+00</totfact>
</mgrwt>
</event>
<event>
 4    1  0.8114601E-008  0.7142841E+03  0.7818608E-02  0.9942424E-01
          1   -1    0    0  501    0  0.00000000000E+00  0.00000000000E+00  0.83779105455E+03  0.83779105456E+03  0.50400000000E-02 0. -1.
         -1   -1    0    0    0  501 -0.00000000000E+00 -0.00000000000E+00 -0.35832886215E+03  0.35832886218E+03  0.50400000000E-02 0.  1.
    8880023    1    1    2    0    0 -0.19456312552E+03  0.19630765953E+03  0.13172576897E+03  0.72632870759E+03  0.65864270000E+03 0.  1.
    8880022    1    1    2    0    0  0.19456312552E+03 -0.19630765953E+03  0.34773642343E+03  0.46979120915E+03  0.15294330000E+03 0. -1.
<mgrwt>
<rscale>  0 0.58248584E+03</rscale>
<asrwt>0</asrwt>
<pdfrwt beam="1">  1        1 0.12889093E+00 0.71428406E+03</pdfrwt>
<pdfrwt beam="2">  1       -1 0.55127518E-01 0.71428406E+03</pdfrwt>
<totfact> 0.69877481E+01</totfact>
</mgrwt>
</event>
<event>
 4    1  0.8114601E-008  0.1222520E+04  0.7818608E-02  0.9135536E-01
         -1   -1    0    0    0  501 -0.00000000000E+00  0.00000000000E+00  0.12578739106E+04  0.12578739106E+04  0.50400000000E-02 0.  1.
          1   -1    0    0  501    0  0.00000000000E+00 -0.00000000000E+00 -0.18234181471E+04  0.18234181471E+04  0.50400000000E-02 0. -1.
    8880023    1    1    2    0    0  0.97610524469E+03  0.32857915186E+03 -0.13172068237E+04  0.17971059319E+04  0.65864270000E+03 0.  0.
    8880022    1    1    2    0    0 -0.97610524469E+03 -0.32857915186E+03  0.75166258715E+03  0.12841861258E+04  0.15294330000E+03 0.  0.
<mgrwt>
<rscale>  0 0.11744313E+04</rscale>
<asrwt>0</asrwt>
<pdfrwt beam="1">  1        1 0.28052587E+00 0.12225203E+04</pdfrwt>
<pdfrwt beam="2">  1       -1 0.19351906E+00 0.12225203E+04</pdfrwt>
<totfact> 0.64112245E-01</totfact>
</mgrwt>
</event>
<event>
 4    1  0.8114601E-008  0.9303737E+03  0.7818608E-02  0.9478933E-01
         -1   -1    0    0    0  501 -0.00000000000E+00  0.00000000000E+00  0.21962355708E+03  0.21962355714E+03  0.50400000000E-02 0.  1.
          1   -1    0    0  501    0  0.00000000000E+00 -0.00000000000E+00 -0.30883762180E+04  0.30883762180E+04  0.50400000000E-02 0. -1.
    8880023    1    1    2    0    0 -0.65286171390E+03  0.74543066300E+02 -0.12842405110E+04  0.15858338446E+04  0.65864270000E+03 0.  0.
    8880022    1    1    2    0    0  0.65286171390E+03 -0.74543066300E+02 -0.15845121499E+04  0.17221659306E+04  0.15294330000E+03 0.  0.
<mgrwt>
<rscale>  0 0.85854999E+03</rscale>
<asrwt>0</asrwt>
<pdfrwt beam="1">  1        1 0.47513477E+00 0.93037374E+03</pdfrwt>
<pdfrwt beam="2">  1       -1 0.33788242E-01 0.93037374E+03</pdfrwt>
<totfact> 0.44181100E+00</totfact>
</mgrwt>
</event>
<event>
 4    1  0.8114601E-008  0.9198924E+03  0.7818608E-02  0.9494824E-01
         -1   -1    0    0    0  501 -0.00000000000E+00  0.00000000000E+00  0.19583818357E+04  0.19583818357E+04  0.50400000000E-02 0.  1.
          1   -1    0    0  501    0  0.00000000000E+00 -0.00000000000E+00 -0.10776641829E+04  0.10776641829E+04  0.50400000000E-02 0. -1.
    8880023    1    1    2    0    0 -0.52863293641E+03 -0.36460795623E+03 -0.80707112583E+03  0.12237506901E+04  0.65864270000E+03 0.  0.
    8880022    1    1    2    0    0  0.52863293641E+03  0.36460795623E+03  0.16877887787E+04  0.18122953285E+04  0.15294330000E+03 0.  0.
<mgrwt>
<rscale>  0 0.84666497E+03</rscale>
<asrwt>0</asrwt>
<pdfrwt beam="1">  1        1 0.16579449E+00 0.91989236E+03</pdfrwt>
<pdfrwt beam="2">  1       -1 0.30128951E+00 0.91989236E+03</pdfrwt>
<totfact> 0.43921634E-01</totfact>
</mgrwt>
</event>
<event>
 4    1  0.8114601E-008  0.7704426E+03  0.7818608E-02  0.9778786E-01
         -1   -1    0    0    0  501 -0.00000000000E+00  0.00000000000E+00  0.32146295979E+03  0.32146295983E+03  0.50400000000E-02 0.  1.
          1   -1    0    0  501    0  0.00000000000E+00 -0.00000000000E+00 -0.21280450905E+04  0.21280450905E+04  0.50400000000E-02 0. -1.
    8880023    1    1    2    0    0  0.77110484248E+01 -0.39963993064E+03 -0.18647091671E+04  0.20176030379E+04  0.65864270000E+03 0. -1.
    8880022    1    1    2    0    0 -0.77110484248E+01  0.39963993064E+03  0.58127036344E+02  0.43190501247E+03  0.15294330000E+03 0.  0.
<mgrwt>
<rscale>  0 0.66513526E+03</rscale>
<asrwt>0</asrwt>
<pdfrwt beam="1">  1        1 0.32739154E+00 0.77044256E+03</pdfrwt>
<pdfrwt beam="2">  1       -1 0.49455841E-01 0.77044256E+03</pdfrwt>
<totfact> 0.10437545E+01</totfact>
</mgrwt>
</event>
<event>
 4    1  0.8114601E-008  0.7006820E+03  0.7818608E-02  0.9994384E-01
         -1   -1    0    0    0  501 -0.00000000000E+00  0.00000000000E+00  0.29560719461E+03  0.29560719466E+03  0.50400000000E-02 0.  1.
          1   -1    0    0  501    0  0.00000000000E+00 -0.00000000000E+00 -0.25054497156E+04  0.25054497156E+04  0.50400000000E-02 0. -1.
    8880023    1    1    2    0    0  0.20850646945E+03 -0.11691922929E+03 -0.23726045159E+04  0.24739053032E+04  0.65864270000E+03 0. -1.
    8880022    1    1    2    0    0 -0.20850646945E+03  0.11691922929E+03  0.16276199495E+03  0.32715160705E+03  0.15294330000E+03 0.  0.
<mgrwt>
<rscale>  0 0.55897187E+03</rscale>
<asrwt>0</asrwt>
<pdfrwt beam="1">  1        1 0.38545379E+00 0.70068200E+03</pdfrwt>
<pdfrwt beam="2">  1       -1 0.45478032E-01 0.70068200E+03</pdfrwt>
<totfact> 0.68738336E+00</totfact>
</mgrwt>
</event>
<event>
 4    1  0.8114601E-008  0.8892580E+03  0.7818608E-02  0.9543501E-01
          1   -1    0    0  501    0  0.00000000000E+00  0.00000000000E+00  0.12723992934E+04  0.12723992934E+04  0.50400000000E-02 0. -1.
         -1   -1    0    0    0  501 -0.00000000000E+00 -0.00000000000E+00 -0.97127014612E+03  0.97127014613E+03  0.50400000000E-02 0.  1.
    8880023    1    1    2    0    0 -0.12459235432E+03  0.58433415700E+03  0.98213527327E+03  0.13249036052E+04  0.65864270000E+03 0.  0.
    8880022    1    1    2    0    0  0.12459235432E+03 -0.58433415700E+03 -0.68100612596E+03  0.91876583437E+03  0.15294330000E+03 0.  0.
<mgrwt>
<rscale>  0 0.81151284E+03</rscale>
<asrwt>0</asrwt>
<pdfrwt beam="1">  1        1 0.19575374E+00 0.88925804E+03</pdfrwt>
<pdfrwt beam="2">  1       -1 0.14942618E+00 0.88925804E+03</pdfrwt>
<totfact> 0.34004336E+00</totfact>
</mgrwt>
</event>
<event>
 4    1  0.8114601E-008  0.8689964E+03  0.7818608E-02  0.9577757E-01
          1   -1    0    0  501    0  0.00000000000E+00  0.00000000000E+00  0.36897507825E+04  0.36897507825E+04  0.50400000000E-02 0. -1.
         -1   -1    0    0    0  501 -0.00000000000E+00 -0.00000000000E+00 -0.76556818475E+03  0.76556818477E+03  0.50400000000E-02 0.  1.
    8880023    1    1    2    0    0 -0.35236269598E+03 -0.44405532747E+03  0.35159198413E+04  0.36217188102E+04  0.65864270000E+03 0.  0.
    8880022    1    1    2    0    0  0.35236269598E+03  0.44405532747E+03 -0.59173724359E+03  0.83360015705E+03  0.15294330000E+03 0.  1.
<mgrwt>
<rscale>  0 0.78786057E+03</rscale>
<asrwt>0</asrwt>
<pdfrwt beam="1">  1        1 0.56765395E+00 0.86899644E+03</pdfrwt>
<pdfrwt beam="2">  1       -1 0.11777972E+00 0.86899644E+03</pdfrwt>
<totfact> 0.12255473E-01</totfact>
</mgrwt>
</event>
<event>
 4    1  0.8114601E-008  0.1074584E+04  0.7818608E-02  0.9289896E-01
          1   -1    0    0  501    0  0.00000000000E+00  0.00000000000E+00  0.31621926687E+04  0.31621926687E+04  0.50400000000E-02 0. -1.
         -1   -1    0    0    0  501 -0.00000000000E+00 -0.00000000000E+00 -0.49548936986E+03  0.49548936988E+03  0.50400000000E-02 0.  1.
    8880023    1    1    2    0    0  0.28227545720E+03  0.80077489241E+03  0.25748313081E+04  0.27900692345E+04  0.65864270000E+03 0.  0.
    8880022    1    1    2    0    0 -0.28227545720E+03 -0.80077489241E+03  0.91871990723E+02  0.86761280404E+03  0.15294330000E+03 0.  1.
<mgrwt>
<rscale>  0 0.10171840E+04</rscale>
<asrwt>0</asrwt>
<pdfrwt beam="1">  1        1 0.48649115E+00 0.10745837E+04</pdfrwt>
<pdfrwt beam="2">  1       -1 0.76229138E-01 0.10745837E+04</pdfrwt>
<totfact> 0.79906948E-01</totfact>
</mgrwt>
</event>
<event>
 4    1  0.8114601E-008  0.1241788E+04  0.7818608E-02  0.9117535E-01
         -1   -1    0    0    0  501 -0.00000000000E+00  0.00000000000E+00  0.17370237235E+04  0.17370237235E+04  0.50400000000E-02 0.  1.
          1   -1    0    0  501    0  0.00000000000E+00 -0.00000000000E+00 -0.17100577748E+04  0.17100577748E+04  0.50400000000E-02 0. -1.
    8880023    1    1    2    0    0 -0.34282667850E+02  0.10521649970E+04 -0.12655933594E+04  0.17730660562E+04  0.65864270000E+03 0.  0.
    8880022    1    1    2    0    0  0.34282667850E+02 -0.10521649970E+04  0.12925593081E+04  0.16740154421E+04  0.15294330000E+03 0.  0.
<mgrwt>
<rscale>  0 0.11946701E+04</rscale>
<asrwt>0</asrwt>
<pdfrwt beam="1">  1        1 0.26308581E+00 0.12417877E+04</pdfrwt>
<pdfrwt beam="2">  1       -1 0.26723442E+00 0.12417877E+04</pdfrwt>
<totfact> 0.24663856E-01</totfact>
</mgrwt>
</event>
<event>
 4    1  0.8114601E-008  0.8664692E+03  0.7818608E-02  0.9582158E-01
         -1   -1    0    0    0  501 -0.00000000000E+00  0.00000000000E+00  0.64089848569E+03  0.64089848571E+03  0.50400000000E-02 0.  1.
          1   -1    0    0  501    0  0.00000000000E+00 -0.00000000000E+00 -0.13071411349E+04  0.13071411349E+04  0.50400000000E-02 0. -1.
    8880023    1    1    2    0    0 -0.23472753095E+03 -0.51172420769E+03 -0.96139033603E+03  0.12942334654E+04  0.65864270000E+03 0.  0.
    8880022    1    1    2    0    0  0.23472753095E+03  0.51172420769E+03  0.29514768682E+03  0.65380615520E+03  0.15294330000E+03 0.  0.
<mgrwt>
<rscale>  0 0.78488426E+03</rscale>
<asrwt>0</asrwt>
<pdfrwt beam="1">  1        1 0.20109863E+00 0.86646921E+03</pdfrwt>
<pdfrwt beam="2">  1       -1 0.98599768E-01 0.86646921E+03</pdfrwt>
<totfact> 0.89754086E+00</totfact>
</mgrwt>
</event>
<event>
 4    1  0.8114601E-008  0.7490105E+03  0.7818608E-02  0.9834437E-01
         -1   -1    0    0    0  501 -0.00000000000E+00  0.00000000000E+00  0.26716810237E+03  0.26716810242E+03  0.50400000000E-02 0.  1.
          1   -1    0    0  501    0  0.00000000000E+00 -0.00000000000E+00 -0.36457360844E+04  0.36457360844E+04  0.50400000000E-02 0. -1.
    8880023    1    1    2    0    0 -0.95771875579E+02 -0.34356115010E+03 -0.34394731384E+04  0.35200841172E+04  0.65864270000E+03 0.  0.
    8880022    1    1    2    0    0  0.95771875579E+02  0.34356115010E+03  0.60905156390E+02  0.39282006962E+03  0.15294330000E+03 0.  0.
<mgrwt>
<rscale>  0 0.63546757E+03</rscale>
<asrwt>0</asrwt>
<pdfrwt beam="1">  1        1 0.56088244E+00 0.74901050E+03</pdfrwt>
<pdfrwt beam="2">  1       -1 0.41102788E-01 0.74901050E+03</pdfrwt>
<totfact> 0.12110294E+00</totfact>
</mgrwt>
</event>
<event>
 4    1  0.8114601E-008  0.1030420E+04  0.7818608E-02  0.9342798E-01
          1   -1    0    0  501    0  0.00000000000E+00  0.00000000000E+00  0.87233330762E+03  0.87233330764E+03  0.50400000000E-02 0. -1.
         -1   -1    0    0    0  501 -0.00000000000E+00 -0.00000000000E+00 -0.23322723828E+04  0.23322723828E+04  0.50400000000E-02 0.  1.
    8880023    1    1    2    0    0 -0.79243560039E+03 -0.65637533313E+00  0.45510478061E+03  0.11264480366E+04  0.65864270000E+03 0.  0.
    8880022    1    1    2    0    0  0.79243560039E+03  0.65637533313E+00 -0.19150438558E+04  0.20781576539E+04  0.15294330000E+03 0.  0.
<mgrwt>
<rscale>  0 0.96936451E+03</rscale>
<asrwt>0</asrwt>
<pdfrwt beam="1">  1        1 0.13420512E+00 0.10304197E+04</pdfrwt>
<pdfrwt beam="2">  1       -1 0.35881113E+00 0.10304197E+04</pdfrwt>
<totfact> 0.26466054E-01</totfact>
</mgrwt>
</event>
<event>
 4    1  0.8114601E-008  0.6973453E+03  0.7818608E-02  0.1000840E+00
          1   -1    0    0  501    0  0.00000000000E+00  0.00000000000E+00  0.64470193038E+03  0.64470193040E+03  0.50400000000E-02 0. -1.
         -1   -1    0    0    0  501 -0.00000000000E+00 -0.00000000000E+00 -0.13998185939E+04  0.13998185939E+04  0.50400000000E-02 0.  1.
    8880023    1    1    2    0    0 -0.14315837180E+03 -0.17884623643E+03  0.43569577650E+03  0.82226596161E+03  0.65864270000E+03 0. -1.
    8880022    1    1    2    0    0  0.14315837180E+03  0.17884623643E+03 -0.11908124400E+04  0.12222545627E+04  0.15294330000E+03 0.  0.
<mgrwt>
<rscale>  0 0.55283569E+03</rscale>
<asrwt>0</asrwt>
<pdfrwt beam="1">  1        1 0.99184912E-01 0.69734532E+03</pdfrwt>
<pdfrwt beam="2">  1       -1 0.21535671E+00 0.69734532E+03</pdfrwt>
<totfact> 0.38196146E+00</totfact>
</mgrwt>
</event>
<event>
 4    1  0.8114601E-008  0.8103549E+03  0.7818608E-02  0.9688838E-01
         -1   -1    0    0    0  501 -0.00000000000E+00  0.00000000000E+00  0.86861717572E+03  0.86861717574E+03  0.50400000000E-02 0.  1.
          1   -1    0    0  501    0  0.00000000000E+00 -0.00000000000E+00 -0.13556944788E+04  0.13556944788E+04  0.50400000000E-02 0. -1.
    8880023    1    1    2    0    0  0.38203182491E+03 -0.27733822180E+03 -0.11434373503E+04  0.14014720778E+04  0.65864270000E+03 0. -1.
    8880022    1    1    2    0    0 -0.38203182491E+03  0.27733822180E+03  0.65636004721E+03  0.82283957677E+03  0.15294330000E+03 0.  0.
<mgrwt>
<rscale>  0 0.71685264E+03</rscale>
<asrwt>0</asrwt>
<pdfrwt beam="1">  1        1 0.20856838E+00 0.81035487E+03</pdfrwt>
<pdfrwt beam="2">  1       -1 0.13363341E+00 0.81035487E+03</pdfrwt>
<totfact> 0.40248954E+00</totfact>
</mgrwt>
</event>
<event>
 4    1  0.8114601E-008  0.6724867E+03  0.7818608E-02  0.1013940E+00
         -1   -1    0    0    0  501 -0.00000000000E+00  0.00000000000E+00  0.35651768006E+03  0.35651768010E+03  0.50400000000E-02 0.  1.
          1   -1    0    0  501    0  0.00000000000E+00 -0.00000000000E+00 -0.12899345106E+04  0.12899345106E+04  0.50400000000E-02 0. -1.
    8880023    1    1    2    0    0  0.37192166238E+02 -0.13055633595E+03 -0.11602465120E+04  0.13410482426E+04  0.65864270000E+03 0. -1.
    8880022    1    1    2    0    0 -0.37192166238E+02  0.13055633595E+03  0.22682968149E+03  0.30540394809E+03  0.15294330000E+03 0.  0.
<mgrwt>
<rscale>  0 0.49938515E+03</rscale>
<asrwt>0</asrwt>
<pdfrwt beam="1">  1        1 0.19845146E+00 0.67248674E+03</pdfrwt>
<pdfrwt beam="2">  1       -1 0.54848875E-01 0.67248674E+03</pdfrwt>
<totfact> 0.32104013E+01</totfact>
</mgrwt>
</event>
<event>
 4    1  0.8114601E-008  0.1100133E+04  0.7818608E-02  0.9260908E-01
          1   -1    0    0  501    0  0.00000000000E+00  0.00000000000E+00  0.18672543347E+04  0.18672543347E+04  0.50400000000E-02 0. -1.
         -1   -1    0    0    0  501 -0.00000000000E+00 -0.00000000000E+00 -0.65953890605E+03  0.65953890607E+03  0.50400000000E-02 0.  1.
    8880023    1    1    2    0    0 -0.20899783163E+03  0.85603936227E+03  0.12060464508E+04  0.16324342961E+04  0.65864270000E+03 0. -1.
    8880022    1    1    2    0    0  0.20899783163E+03 -0.85603936227E+03  0.16689778509E+01  0.89435894465E+03  0.15294330000E+03 0.  0.
<mgrwt>
<rscale>  0 0.10446284E+04</rscale>
<asrwt>0</asrwt>
<pdfrwt beam="1">  1        1 0.28726990E+00 0.11001335E+04</pdfrwt>
<pdfrwt beam="2">  1       -1 0.10146752E+00 0.11001335E+04</pdfrwt>
<totfact> 0.33689346E+00</totfact>
</mgrwt>
</event>
<event>
 4    1  0.8114601E-008  0.6955802E+03  0.7818608E-02  0.1001605E+00
          1   -1    0    0  501    0  0.00000000000E+00  0.00000000000E+00  0.12655515196E+04  0.12655515196E+04  0.50400000000E-02 0. -1.
         -1   -1    0    0    0  501 -0.00000000000E+00 -0.00000000000E+00 -0.15405737533E+04  0.15405737533E+04  0.50400000000E-02 0.  1.
    8880023    1    1    2    0    0 -0.14636136164E+03 -0.16911528321E+03  0.11562948199E+04  0.13493885815E+04  0.65864270000E+03 0. -1.
    8880022    1    1    2    0    0  0.14636136164E+03  0.16911528321E+03 -0.14313170536E+04  0.14567366914E+04  0.15294330000E+03 0.  0.
<mgrwt>
<rscale>  0 0.54951841E+03</rscale>
<asrwt>0</asrwt>
<pdfrwt beam="1">  1        1 0.19470023E+00 0.69558021E+03</pdfrwt>
<pdfrwt beam="2">  1       -1 0.23701135E+00 0.69558021E+03</pdfrwt>
<totfact> 0.86640578E-01</totfact>
</mgrwt>
</event>
<event>
 4    1  0.8114601E-008  0.9886268E+03  0.7818608E-02  0.9396591E-01
          1   -1    0    0  501    0  0.00000000000E+00  0.00000000000E+00  0.10099626570E+04  0.10099626570E+04  0.50400000000E-02 0. -1.
         -1   -1    0    0    0  501 -0.00000000000E+00 -0.00000000000E+00 -0.12528212644E+04  0.12528212644E+04  0.50400000000E-02 0.  1.
    8880023    1    1    2    0    0 -0.18532930234E+03 -0.71360055452E+03 -0.84352114030E+03  0.12995810179E+04  0.65864270000E+03 0.  0.
    8880022    1    1    2    0    0  0.18532930234E+03  0.71360055452E+03  0.60066253291E+03  0.96320290343E+03  0.15294330000E+03 0.  0.
<mgrwt>
<rscale>  0 0.92356772E+03</rscale>
<asrwt>0</asrwt>
<pdfrwt beam="1">  1        1 0.15537887E+00 0.98862678E+03</pdfrwt>
<pdfrwt beam="2">  1       -1 0.19274173E+00 0.98862678E+03</pdfrwt>
<totfact> 0.25260136E+00</totfact>
</mgrwt>
</event>
<event>
 4    1  0.8114601E-008  0.8905828E+03  0.7818608E-02  0.9541321E-01
         -1   -1    0    0    0  501 -0.00000000000E+00  0.00000000000E+00  0.10997122172E+04  0.10997122172E+04  0.50400000000E-02 0.  1.
          1   -1    0    0  501    0  0.00000000000E+00 -0.00000000000E+00 -0.12984155772E+04  0.12984155772E+04  0.50400000000E-02 0. -1.
    8880023    1    1    2    0    0 -0.46621828347E+03  0.37678648520E+03 -0.10301712382E+04  0.13617600852E+04  0.65864270000E+03 0.  0.
    8880022    1    1    2    0    0  0.46621828347E+03 -0.37678648520E+03  0.83146787824E+03  0.10363677093E+04  0.15294330000E+03 0.  0.
<mgrwt>
<rscale>  0 0.81304721E+03</rscale>
<asrwt>0</asrwt>
<pdfrwt beam="1">  1        1 0.19975624E+00 0.89058281E+03</pdfrwt>
<pdfrwt beam="2">  1       -1 0.16918650E+00 0.89058281E+03</pdfrwt>
<totfact> 0.23081053E+00</totfact>
</mgrwt>
</event>
<event>
 4    1  0.8114601E-008  0.7121742E+03  0.7818608E-02  0.9950014E-01
         -1   -1    0    0    0  501 -0.00000000000E+00  0.00000000000E+00  0.53819983479E+03  0.53819983481E+03  0.50400000000E-02 0.  1.
          1   -1    0    0  501    0  0.00000000000E+00 -0.00000000000E+00 -0.10778205765E+04  0.10778205765E+04  0.50400000000E-02 0. -1.
    8880023    1    1    2    0    0  0.14572045029E+03  0.22835819749E+03 -0.89496513107E+03  0.11437459106E+04  0.65864270000E+03 0. -1.
    8880022    1    1    2    0    0 -0.14572045029E+03 -0.22835819749E+03  0.35534438932E+03  0.47227450072E+03  0.15294330000E+03 0.  0.
<mgrwt>
<rscale>  0 0.57897429E+03</rscale>
<asrwt>0</asrwt>
<pdfrwt beam="1">  1        1 0.16581855E+00 0.71217422E+03</pdfrwt>
<pdfrwt beam="2">  1       -1 0.82799975E-01 0.71217422E+03</pdfrwt>
<totfact> 0.19761737E+01</totfact>
</mgrwt>
</event>
<event>
 4    1  0.8114601E-008  0.8944434E+03  0.7818608E-02  0.9535011E-01
          1   -1    0    0  501    0  0.00000000000E+00  0.00000000000E+00  0.44747217629E+04  0.44747217629E+04  0.50400000000E-02 0. -1.
         -1   -1    0    0    0  501 -0.00000000000E+00 -0.00000000000E+00 -0.30618019672E+03  0.30618019676E+03  0.50400000000E-02 0.  1.
    8880023    1    1    2    0    0 -0.51304405941E+03 -0.32094328477E+03  0.40474164299E+04  0.41450704171E+04  0.65864270000E+03 0. -1.
    8880022    1    1    2    0    0  0.51304405941E+03  0.32094328477E+03  0.12112513628E+03  0.63583154262E+03  0.15294330000E+03 0.  0.
<mgrwt>
<rscale>  0 0.81751075E+03</rscale>
<asrwt>0</asrwt>
<pdfrwt beam="1">  1        1 0.68841868E+00 0.89444341E+03</pdfrwt>
<pdfrwt beam="2">  1       -1 0.47104650E-01 0.89444341E+03</pdfrwt>
<totfact> 0.16848573E-01</totfact>
</mgrwt>
</event>
<event>
 4    1  0.8114601E-008  0.8904364E+03  0.7818608E-02  0.9541562E-01
         -1   -1    0    0    0  501 -0.00000000000E+00  0.00000000000E+00  0.46614210013E+03  0.46614210016E+03  0.50400000000E-02 0.  1.
          1   -1    0    0  501    0  0.00000000000E+00 -0.00000000000E+00 -0.14968082911E+04  0.14968082911E+04  0.50400000000E-02 0. -1.
    8880023    1    1    2    0    0 -0.28548735416E+03 -0.52684318984E+03 -0.10067833397E+04  0.13440571697E+04  0.65864270000E+03 0.  0.
    8880022    1    1    2    0    0  0.28548735416E+03  0.52684318984E+03 -0.23882851246E+02  0.61889322154E+03  0.15294330000E+03 0.  0.
<mgrwt>
<rscale>  0 0.81287770E+03</rscale>
<asrwt>0</asrwt>
<pdfrwt beam="1">  1        1 0.23027820E+00 0.89043640E+03</pdfrwt>
<pdfrwt beam="2">  1       -1 0.71714170E-01 0.89043640E+03</pdfrwt>
<totfact> 0.13139886E+01</totfact>
</mgrwt>
</event>
<event>
 4    1  0.8114601E-008  0.7435106E+03  0.7818608E-02  0.9849836E-01
          1   -1    0    0  501    0  0.00000000000E+00  0.00000000000E+00  0.14994757439E+04  0.14994757439E+04  0.50400000000E-02 0. -1.
         -1   -1    0    0    0  501 -0.00000000000E+00 -0.00000000000E+00 -0.35941928651E+03  0.35941928654E+03  0.50400000000E-02 0.  1.
    8880023    1    1    2    0    0  0.33844251699E+03 -0.66742047418E+02  0.12599418127E+04  0.14629632312E+04  0.65864270000E+03 0. -1.
    8880022    1    1    2    0    0 -0.33844251699E+03  0.66742047418E+02 -0.11988535533E+03  0.39593179923E+03  0.15294330000E+03 0.  0.
<mgrwt>
<rscale>  0 0.62755259E+03</rscale>
<asrwt>0</asrwt>
<pdfrwt beam="1">  1        1 0.23068858E+00 0.74351062E+03</pdfrwt>
<pdfrwt beam="2">  1       -1 0.55295273E-01 0.74351062E+03</pdfrwt>
<totfact> 0.22399862E+01</totfact>
</mgrwt>
</event>
<event>
 4    1  0.8114601E-008  0.8661196E+03  0.7818608E-02  0.9582769E-01
         -1   -1    0    0    0  501 -0.00000000000E+00  0.00000000000E+00  0.78132017857E+03  0.78132017858E+03  0.50400000000E-02 0.  1.
          1   -1    0    0  501    0  0.00000000000E+00 -0.00000000000E+00 -0.16147511182E+04  0.16147511182E+04  0.50400000000E-02 0. -1.
    8880023    1    1    2    0    0 -0.40586769065E+03  0.38938975647E+03 -0.13588021169E+04  0.16113678549E+04  0.65864270000E+03 0. -1.
    8880022    1    1    2    0    0  0.40586769065E+03 -0.38938975647E+03  0.52537117726E+03  0.78470344186E+03  0.15294330000E+03 0.  0.
<mgrwt>
<rscale>  0 0.78447205E+03</rscale>
<asrwt>0</asrwt>
<pdfrwt beam="1">  1        1 0.24842325E+00 0.86611961E+03</pdfrwt>
<pdfrwt beam="2">  1       -1 0.12020310E+00 0.86611961E+03</pdfrwt>
<totfact> 0.34469624E+00</totfact>
</mgrwt>
</event>
<event>
 4    1  0.8114601E-008  0.7272902E+03  0.7818608E-02  0.9898649E-01
          1   -1    0    0  501    0  0.00000000000E+00  0.00000000000E+00  0.27014647838E+04  0.27014647838E+04  0.50400000000E-02 0. -1.
         -1   -1    0    0    0  501 -0.00000000000E+00 -0.00000000000E+00 -0.12112620960E+04  0.12112620960E+04  0.50400000000E-02 0.  1.
    8880023    1    1    2    0    0  0.27844457620E+03  0.13270052205E+03  0.26265426162E+04  0.27253765118E+04  0.65864270000E+03 0. -1.
    8880022    1    1    2    0    0 -0.27844457620E+03 -0.13270052205E+03 -0.11363399283E+04  0.11873503680E+04  0.15294330000E+03 0.  0.
<mgrwt>
<rscale>  0 0.60326824E+03</rscale>
<asrwt>0</asrwt>
<pdfrwt beam="1">  1        1 0.41560997E+00 0.72729019E+03</pdfrwt>
<pdfrwt beam="2">  1       -1 0.18634802E+00 0.72729019E+03</pdfrwt>
<totfact> 0.19987339E-01</totfact>
</mgrwt>
</event>
<event>
 4    1  0.8114601E-008  0.6909557E+03  0.7818608E-02  0.1003702E+00
          1   -1    0    0  501    0  0.00000000000E+00  0.00000000000E+00  0.50072185721E+03  0.50072185724E+03  0.50400000000E-02 0. -1.
         -1   -1    0    0    0  501 -0.00000000000E+00 -0.00000000000E+00 -0.11229679977E+04  0.11229679977E+04  0.50400000000E-02 0.  1.
    8880023    1    1    2    0    0 -0.66904629117E+02  0.19782162866E+03  0.23374183075E+03  0.72942105527E+03  0.65864270000E+03 0.  0.
    8880022    1    1    2    0    0  0.66904629117E+02 -0.19782162866E+03 -0.85598797123E+03  0.89426879968E+03  0.15294330000E+03 0.  0.
<mgrwt>
<rscale>  0 0.54056517E+03</rscale>
<asrwt>0</asrwt>
<pdfrwt beam="1">  1        1 0.77034132E-01 0.69095574E+03</pdfrwt>
<pdfrwt beam="2">  1       -1 0.17276431E+00 0.69095574E+03</pdfrwt>
<totfact> 0.10782831E+01</totfact>
</mgrwt>
</event>
<event>
 4    1  0.8114601E-008  0.1400153E+04  0.7818608E-02  0.8983564E-01
          1   -1    0    0  501    0  0.00000000000E+00  0.00000000000E+00  0.31491046982E+04  0.31491046982E+04  0.50400000000E-02 0. -1.
         -1   -1    0    0    0  501 -0.00000000000E+00 -0.00000000000E+00 -0.65528056819E+03  0.65528056821E+03  0.50400000000E-02 0.  1.
    8880023    1    1    2    0    0  0.24255509272E+03 -0.12115222108E+04  0.56757264620E+03  0.15108169827E+04  0.65864270000E+03 0.  0.
    8880022    1    1    2    0    0 -0.24255509272E+03  0.12115222108E+04  0.19262514838E+04  0.22935682837E+04  0.15294330000E+03 0.  0.
<mgrwt>
<rscale>  0 0.13596387E+04</rscale>
<asrwt>0</asrwt>
<pdfrwt beam="1">  1        1 0.48447765E+00 0.14001533E+04</pdfrwt>
<pdfrwt beam="2">  1       -1 0.10081239E+00 0.14001533E+04</pdfrwt>
<totfact> 0.42178015E-01</totfact>
</mgrwt>
</event>
<event>
 4    1  0.8114601E-008  0.7913387E+03  0.7818608E-02  0.9729846E-01
         -1   -1    0    0    0  501 -0.00000000000E+00  0.00000000000E+00  0.57063535173E+03  0.57063535176E+03  0.50400000000E-02 0.  1.
          1   -1    0    0  501    0  0.00000000000E+00 -0.00000000000E+00 -0.75118930373E+03  0.75118930375E+03  0.50400000000E-02 0. -1.
    8880023    1    1    2    0    0 -0.39170081763E+03 -0.19742650533E+03  0.69276045986E+02  0.79436523863E+03  0.65864270000E+03 0.  0.
    8880022    1    1    2    0    0  0.39170081763E+03  0.19742650533E+03 -0.24982999799E+03  0.52745941687E+03  0.15294330000E+03 0.  0.
<mgrwt>
<rscale>  0 0.69267233E+03</rscale>
<asrwt>0</asrwt>
<pdfrwt beam="1">  1        1 0.11556759E+00 0.79133871E+03</pdfrwt>
<pdfrwt beam="2">  1       -1 0.87790054E-01 0.79133871E+03</pdfrwt>
<totfact> 0.31818087E+01</totfact>
</mgrwt>
</event>
<event>
 4    1  0.8114601E-008  0.1129291E+04  0.7818608E-02  0.9229124E-01
          1   -1    0    0  501    0  0.00000000000E+00  0.00000000000E+00  0.24679457161E+04  0.24679457161E+04  0.50400000000E-02 0. -1.
         -1   -1    0    0    0  501 -0.00000000000E+00 -0.00000000000E+00 -0.99066500565E+03  0.99066500567E+03  0.50400000000E-02 0.  1.
    8880023    1    1    2    0    0 -0.90953357043E+03 -0.11932040220E+03  0.20684381164E+04  0.23566364000E+04  0.65864270000E+03 0.  0.
    8880022    1    1    2    0    0  0.90953357043E+03  0.11932040220E+03 -0.59115740599E+03  0.11019743217E+04  0.15294330000E+03 0.  0.
<mgrwt>
<rscale>  0 0.10757813E+04</rscale>
<asrwt>0</asrwt>
<pdfrwt beam="1">  1        1 0.37968396E+00 0.11292913E+04</pdfrwt>
<pdfrwt beam="2">  1       -1 0.15241000E+00 0.11292913E+04</pdfrwt>
<totfact> 0.47495063E-01</totfact>
</mgrwt>
</event>
<event>
 4    1  0.8114601E-008  0.6854827E+03  0.7818608E-02  0.1006378E+00
         -1   -1    0    0    0  501 -0.00000000000E+00  0.00000000000E+00  0.14795782387E+04  0.14795782387E+04  0.50400000000E-02 0.  1.
          1   -1    0    0  501    0  0.00000000000E+00 -0.00000000000E+00 -0.29084954866E+03  0.29084954870E+03  0.50400000000E-02 0. -1.
    8880023    1    1    2    0    0 -0.39683817322E+02  0.18574584528E+03  0.14769492936E+03  0.70121346451E+03  0.65864270000E+03 0. -1.
    8880022    1    1    2    0    0  0.39683817322E+02 -0.18574584528E+03  0.10410337607E+04  0.10692143229E+04  0.15294330000E+03 0.  0.
<mgrwt>
<rscale>  0 0.52939858E+03</rscale>
<asrwt>0</asrwt>
<pdfrwt beam="1">  1        1 0.44746085E-01 0.68548270E+03</pdfrwt>
<pdfrwt beam="2">  1       -1 0.22762742E+00 0.68548270E+03</pdfrwt>
<totfact> 0.93110641E+00</totfact>
</mgrwt>
</event>
<event>
 4    1  0.8114601E-008  0.8326622E+03  0.7818608E-02  0.9644175E-01
          1   -1    0    0  501    0  0.00000000000E+00  0.00000000000E+00  0.43630138970E+03  0.43630138973E+03  0.50400000000E-02 0. -1.
         -1   -1    0    0    0  501 -0.00000000000E+00 -0.00000000000E+00 -0.17637373303E+04  0.17637373303E+04  0.50400000000E-02 0.  1.
    8880023    1    1    2    0    0 -0.18419463185E+03  0.47496151047E+03 -0.71032661641E+02  0.83568651067E+03  0.65864270000E+03 0. -1.
    8880022    1    1    2    0    0  0.18419463185E+03 -0.47496151047E+03 -0.12564032790E+04  0.13643522094E+04  0.15294330000E+03 0.  0.
<mgrwt>
<rscale>  0 0.74440149E+03</rscale>
<asrwt>0</asrwt>
<pdfrwt beam="1">  1        1 0.67123292E-01 0.83266218E+03</pdfrwt>
<pdfrwt beam="2">  1       -1 0.27134420E+00 0.83266218E+03</pdfrwt>
<totfact> 0.27929430E+00</totfact>
</mgrwt>
</event>
<event>
 4    1  0.8114601E-008  0.7712243E+03  0.7818608E-02  0.9776870E-01
          1   -1    0    0  501    0  0.00000000000E+00  0.00000000000E+00  0.20152582069E+04  0.20152582069E+04  0.50400000000E-02 0. -1.
         -1   -1    0    0    0  501 -0.00000000000E+00 -0.00000000000E+00 -0.33018213496E+03  0.33018213499E+03  0.50400000000E-02 0.  1.
    8880023    1    1    2    0    0 -0.38265210616E+03  0.12064005711E+03  0.17488478406E+04  0.19113491658E+04  0.65864270000E+03 0. -1.
    8880022    1    1    2    0    0  0.38265210616E+03 -0.12064005711E+03 -0.63771768606E+02  0.43409117616E+03  0.15294330000E+03 0.  0.
<mgrwt>
<rscale>  0 0.66618722E+03</rscale>
<asrwt>0</asrwt>
<pdfrwt beam="1">  1        1 0.31003973E+00 0.77122426E+03</pdfrwt>
<pdfrwt beam="2">  1       -1 0.50797251E-01 0.77122426E+03</pdfrwt>
<totfact> 0.11803768E+01</totfact>
</mgrwt>
</event>
<event>
 4    1  0.8114601E-008  0.7532622E+03  0.7818608E-02  0.9822874E-01
          1   -1    0    0  501    0  0.00000000000E+00  0.00000000000E+00  0.13761780844E+04  0.13761780844E+04  0.50400000000E-02 0. -1.
         -1   -1    0    0    0  501 -0.00000000000E+00 -0.00000000000E+00 -0.61309479947E+03  0.61309479949E+03  0.50400000000E-02 0.  1.
    8880023    1    1    2    0    0 -0.10391671511E+03 -0.35042127017E+03  0.11890222591E+04  0.14075432104E+04  0.65864270000E+03 0.  0.
    8880022    1    1    2    0    0  0.10391671511E+03  0.35042127017E+03 -0.42593897418E+03  0.58172967348E+03  0.15294330000E+03 0.  0.
<mgrwt>
<rscale>  0 0.64149318E+03</rscale>
<asrwt>0</asrwt>
<pdfrwt beam="1">  1        1 0.21171970E+00 0.75326221E+03</pdfrwt>
<pdfrwt beam="2">  1       -1 0.94322277E-01 0.75326221E+03</pdfrwt>
<totfact> 0.90090290E+00</totfact>
</mgrwt>
</event>
<event>
 4    1  0.8114601E-008  0.6732564E+03  0.7818608E-02  0.1013429E+00
         -1   -1    0    0    0  501 -0.00000000000E+00  0.00000000000E+00  0.81426810200E+03  0.81426810202E+03  0.50400000000E-02 0.  1.
          1   -1    0    0  501    0  0.00000000000E+00 -0.00000000000E+00 -0.76357282011E+03  0.76357282013E+03  0.50400000000E-02 0. -1.
    8880023    1    1    2    0    0 -0.55375698283E+02 -0.12805297967E+03 -0.59578848141E+03  0.89902066406E+03  0.65864270000E+03 0. -1.
    8880022    1    1    2    0    0  0.55375698283E+02  0.12805297967E+03  0.64648376330E+03  0.67882025809E+03  0.15294330000E+03 0.  0.
<mgrwt>
<rscale>  0 0.50134472E+03</rscale>
<asrwt>0</asrwt>
<pdfrwt beam="1">  1        1 0.11747274E+00 0.67325644E+03</pdfrwt>
<pdfrwt beam="2">  1       -1 0.12527202E+00 0.67325644E+03</pdfrwt>
<totfact> 0.13779923E+01</totfact>
</mgrwt>
</event>
<event>
 4    1  0.8114601E-008  0.1050804E+04  0.7818608E-02  0.9317915E-01
         -1   -1    0    0    0  501 -0.00000000000E+00  0.00000000000E+00  0.17830083900E+04  0.17830083900E+04  0.50400000000E-02 0.  1.
          1   -1    0    0  501    0  0.00000000000E+00 -0.00000000000E+00 -0.13207394042E+04  0.13207394042E+04  0.50400000000E-02 0. -1.
    8880023    1    1    2    0    0 -0.12908918588E+03 -0.80852668196E+03 -0.98088720838E+03  0.14374732468E+04  0.65864270000E+03 0.  0.
    8880022    1    1    2    0    0  0.12908918588E+03  0.80852668196E+03  0.14431561943E+04  0.16662745474E+04  0.15294330000E+03 0.  0.
<mgrwt>
<rscale>  0 0.99150155E+03</rscale>
<asrwt>0</asrwt>
<pdfrwt beam="1">  1        1 0.20319068E+00 0.10508043E+04</pdfrwt>
<pdfrwt beam="2">  1       -1 0.27430898E+00 0.10508043E+04</pdfrwt>
<totfact> 0.42528717E-01</totfact>
</mgrwt>
</event>
<event>
 4    1  0.8114601E-008  0.7472417E+03  0.7818608E-02  0.9839333E-01
         -1   -1    0    0    0  501 -0.00000000000E+00  0.00000000000E+00  0.87972671231E+03  0.87972671232E+03  0.50400000000E-02 0.  1.
          1   -1    0    0  501    0  0.00000000000E+00 -0.00000000000E+00 -0.10472368420E+04  0.10472368420E+04  0.50400000000E-02 0. -1.
    8880023    1    1    2    0    0  0.28787087271E+03 -0.20418198187E+03 -0.85725671012E+03  0.11372155444E+04  0.65864270000E+03 0.  0.
    8880022    1    1    2    0    0 -0.28787087271E+03  0.20418198187E+03  0.68974658040E+03  0.78974800998E+03  0.15294330000E+03 0.  0.
<mgrwt>
<rscale>  0 0.63293741E+03</rscale>
<asrwt>0</asrwt>
<pdfrwt beam="1">  1        1 0.16111336E+00 0.74724168E+03</pdfrwt>
<pdfrwt beam="2">  1       -1 0.13534257E+00 0.74724168E+03</pdfrwt>
<totfact> 0.65916651E+00</totfact>
</mgrwt>
</event>
<event>
 4    1  0.8114601E-008  0.7061391E+03  0.7818608E-02  0.9972628E-01
         -1   -1    0    0    0  501 -0.00000000000E+00  0.00000000000E+00  0.72191971559E+03  0.72191971561E+03  0.50400000000E-02 0.  1.
          1   -1    0    0  501    0  0.00000000000E+00 -0.00000000000E+00 -0.11393640560E+04  0.11393640561E+04  0.50400000000E-02 0. -1.
    8880023    1    1    2    0    0 -0.18156273465E+03 -0.17848566374E+03 -0.99014428733E+03  0.12161488703E+04  0.65864270000E+03 0. -1.
    8880022    1    1    2    0    0  0.18156273465E+03  0.17848566374E+03  0.57269994687E+03  0.64513490135E+03  0.15294330000E+03 0.  0.
<mgrwt>
<rscale>  0 0.56866925E+03</rscale>
<asrwt>0</asrwt>
<pdfrwt beam="1">  1        1 0.17528678E+00 0.70613906E+03</pdfrwt>
<pdfrwt beam="2">  1       -1 0.11106457E+00 0.70613906E+03</pdfrwt>
<totfact> 0.92002920E+00</totfact>
</mgrwt>
</event>
<event>
 4    1  0.8114601E-008  0.1293777E+04  0.7818608E-02  0.9070953E-01
          1   -1    0    0  501    0  0.00000000000E+00  0.00000000000E+00  0.30011602473E+04  0.30011602473E+04  0.50400000000E-02 0. -1.
         -1   -1    0    0    0  501 -0.00000000000E+00 -0.00000000000E+00 -0.61718720923E+03  0.61718720925E+03  0.50400000000E-02 0.  1.
    8880023    1    1    2    0    0 -0.99267582448E+03 -0.50462178204E+03  0.20874382326E+04  0.24558617666E+04  0.65864270000E+03 0.  0.
    8880022    1    1    2    0    0  0.99267582448E+03  0.50462178204E+03  0.29653480542E+03  0.11624856899E+04  0.15294330000E+03 0.  0.
<mgrwt>
<rscale>  0 0.12490760E+04</rscale>
<asrwt>0</asrwt>
<pdfrwt beam="1">  1        1 0.46171696E+00 0.12937769E+04</pdfrwt>
<pdfrwt beam="2">  1       -1 0.94951878E-01 0.12937769E+04</pdfrwt>
<totfact> 0.62926410E-01</totfact>
</mgrwt>
</event>
<event>
 4    1  0.8114601E-008  0.9994587E+03  0.7818608E-02  0.9382266E-01
          1   -1    0    0  501    0  0.00000000000E+00  0.00000000000E+00  0.12404082758E+04  0.12404082758E+04  0.50400000000E-02 0. -1.
         -1   -1    0    0    0  501 -0.00000000000E+00 -0.00000000000E+00 -0.72383257871E+03  0.72383257873E+03  0.50400000000E-02 0.  1.
    8880023    1    1    2    0    0 -0.75108173395E+03  0.31364682137E+02  0.64061339569E+03  0.11871407850E+04  0.65864270000E+03 0.  1.
    8880022    1    1    2    0    0  0.75108173395E+03 -0.31364682137E+02 -0.12403769865E+03  0.77710006952E+03  0.15294330000E+03 0.  0.
<mgrwt>
<rscale>  0 0.93549587E+03</rscale>
<asrwt>0</asrwt>
<pdfrwt beam="1">  1        1 0.19083204E+00 0.99945871E+03</pdfrwt>
<pdfrwt beam="2">  1       -1 0.11135886E+00 0.99945871E+03</pdfrwt>
<totfact> 0.74290447E+00</totfact>
</mgrwt>
</event>
<event>
 4    1  0.8114601E-008  0.9611498E+03  0.7818608E-02  0.9434250E-01
         -1   -1    0    0    0  501 -0.00000000000E+00  0.00000000000E+00  0.59789736069E+03  0.59789736071E+03  0.50400000000E-02 0.  1.
          1   -1    0    0  501    0  0.00000000000E+00 -0.00000000000E+00 -0.16175836370E+04  0.16175836370E+04  0.50400000000E-02 0. -1.
    8880023    1    1    2    0    0  0.56876812090E+03  0.40804604554E+03  0.97947243266E+01  0.96119971573E+03  0.65864270000E+03 0.  1.
    8880022    1    1    2    0    0 -0.56876812090E+03 -0.40804604554E+03 -0.10294810006E+04  0.12542812820E+04  0.15294330000E+03 0.  0.
<mgrwt>
<rscale>  0 0.89309834E+03</rscale>
<asrwt>0</asrwt>
<pdfrwt beam="1">  1        1 0.24885902E+00 0.96114981E+03</pdfrwt>
<pdfrwt beam="2">  1       -1 0.91984210E-01 0.96114981E+03</pdfrwt>
<totfact> 0.63186054E+00</totfact>
</mgrwt>
</event>
<event>
 4    1  0.8114601E-008  0.8843237E+03  0.7818608E-02  0.9551681E-01
          1   -1    0    0  501    0  0.00000000000E+00  0.00000000000E+00  0.25286419149E+04  0.25286419149E+04  0.50400000000E-02 0. -1.
         -1   -1    0    0    0  501 -0.00000000000E+00 -0.00000000000E+00 -0.62785680979E+03  0.62785680981E+03  0.50400000000E-02 0.  1.
    8880023    1    1    2    0    0  0.42935178897E+03 -0.40481507278E+03  0.22752566072E+04  0.24410696501E+04  0.65864270000E+03 0. -1.
    8880022    1    1    2    0    0 -0.42935178897E+03  0.40481507278E+03 -0.37447150211E+03  0.71542907457E+03  0.15294330000E+03 0.  0.
<mgrwt>
<rscale>  0 0.80578532E+03</rscale>
<asrwt>0</asrwt>
<pdfrwt beam="1">  1        1 0.38902183E+00 0.88432370E+03</pdfrwt>
<pdfrwt beam="2">  1       -1 0.96593355E-01 0.88432370E+03</pdfrwt>
<totfact> 0.13865001E+00</totfact>
</mgrwt>
</event>
<event>
 4    1  0.8114601E-008  0.6966145E+03  0.7818608E-02  0.1001155E+00
          1   -1    0    0  501    0  0.00000000000E+00  0.00000000000E+00  0.35936015227E+04  0.35936015227E+04  0.50400000000E-02 0. -1.
         -1   -1    0    0    0  501 -0.00000000000E+00 -0.00000000000E+00 -0.14465383043E+03  0.14465383051E+03  0.50400000000E-02 0.  1.
    8880023    1    1    2    0    0  0.22446524134E+03  0.32816448132E+02  0.33867906417E+04  0.34576903593E+04  0.65864270000E+03 0. -1.
    8880022    1    1    2    0    0 -0.22446524134E+03 -0.32816448132E+02  0.62157050526E+02  0.28056499387E+03  0.15294330000E+03 0.  0.
<mgrwt>
<rscale>  0 0.55146848E+03</rscale>
<asrwt>0</asrwt>
<pdfrwt beam="1">  1        1 0.55286179E+00 0.69661451E+03</pdfrwt>
<pdfrwt beam="2">  1       -1 0.22254435E-01 0.69661451E+03</pdfrwt>
<totfact> 0.39351359E+00</totfact>
</mgrwt>
</event>
<event>
 4    1  0.8114601E-008  0.6901871E+03  0.7818608E-02  0.1004064E+00
          1   -1    0    0  501    0  0.00000000000E+00  0.00000000000E+00  0.19850397223E+04  0.19850397224E+04  0.50400000000E-02 0. -1.
         -1   -1    0    0    0  501 -0.00000000000E+00 -0.00000000000E+00 -0.38159361528E+03  0.38159361531E+03  0.50400000000E-02 0.  1.
    8880023    1    1    2    0    0  0.86852163693E+02 -0.18709558485E+03  0.18719326332E+04  0.19951165494E+04  0.65864270000E+03 0. -1.
    8880022    1    1    2    0    0 -0.86852163693E+02  0.18709558485E+03 -0.26848652614E+03  0.37151678824E+03  0.15294330000E+03 0.  0.
<mgrwt>
<rscale>  0 0.53903693E+03</rscale>
<asrwt>0</asrwt>
<pdfrwt beam="1">  1        1 0.30539073E+00 0.69018712E+03</pdfrwt>
<pdfrwt beam="2">  1       -1 0.58706710E-01 0.69018712E+03</pdfrwt>
<totfact> 0.94768452E+00</totfact>
</mgrwt>
</event>
<event>
 4    1  0.8114601E-008  0.1381606E+04  0.7818608E-02  0.8998109E-01
          1   -1    0    0  501    0  0.00000000000E+00  0.00000000000E+00  0.24136630369E+04  0.24136630369E+04  0.50400000000E-02 0. -1.
         -1   -1    0    0    0  501 -0.00000000000E+00 -0.00000000000E+00 -0.13689865652E+04  0.13689865653E+04  0.50400000000E-02 0.  1.
    8880023    1    1    2    0    0 -0.27419589089E+03  0.11831487562E+04  0.18562313642E+04  0.23139640121E+04  0.65864270000E+03 0.  0.
    8880022    1    1    2    0    0  0.27419589089E+03 -0.11831487562E+04 -0.81155489249E+03  0.14686855900E+04  0.15294330000E+03 0.  0.
<mgrwt>
<rscale>  0 0.13404239E+04</rscale>
<asrwt>0</asrwt>
<pdfrwt beam="1">  1        1 0.37133277E+00 0.13816058E+04</pdfrwt>
<pdfrwt beam="2">  1       -1 0.21061332E+00 0.13816058E+04</pdfrwt>
<totfact> 0.18989999E-01</totfact>
</mgrwt>
</event>
<event>
 4    1  0.8114601E-008  0.8422634E+03  0.7818608E-02  0.9625927E-01
         -1   -1    0    0    0  501 -0.00000000000E+00  0.00000000000E+00  0.17013274112E+04  0.17013274112E+04  0.50400000000E-02 0.  1.
          1   -1    0    0  501    0  0.00000000000E+00 -0.00000000000E+00 -0.50148495331E+03  0.50148495334E+03  0.50400000000E-02 0. -1.
    8880023    1    1    2    0    0 -0.52481225581E+03  0.13022773694E+02 -0.44697857853E+02  0.84344863580E+03  0.65864270000E+03 0.  0.
    8880022    1    1    2    0    0  0.52481225581E+03 -0.13022773694E+02  0.12445403157E+04  0.13593637287E+04  0.15294330000E+03 0.  0.
<mgrwt>
<rscale>  0 0.75603672E+03</rscale>
<asrwt>0</asrwt>
<pdfrwt beam="1">  1        1 0.77151530E-01 0.84226344E+03</pdfrwt>
<pdfrwt beam="2">  1       -1 0.26174268E+00 0.84226344E+03</pdfrwt>
<totfact> 0.26592771E+00</totfact>
</mgrwt>
</event>
<event>
 4    1  0.8114601E-008  0.9182085E+03  0.7818608E-02  0.9497411E-01
          1   -1    0    0  501    0  0.00000000000E+00  0.00000000000E+00  0.28791646886E+04  0.28791646886E+04  0.50400000000E-02 0. -1.
         -1   -1    0    0    0  501 -0.00000000000E+00 -0.00000000000E+00 -0.40151377080E+03  0.40151377083E+03  0.50400000000E-02 0.  1.
    8880023    1    1    2    0    0 -0.27740774633E+03  0.57649079775E+03  0.24565545487E+04  0.26225497430E+04  0.65864270000E+03 0.  0.
    8880022    1    1    2    0    0  0.27740774633E+03 -0.57649079775E+03  0.21096369136E+02  0.65812871645E+03  0.15294330000E+03 0.  0.
<mgrwt>
<rscale>  0 0.84474940E+03</rscale>
<asrwt>0</asrwt>
<pdfrwt beam="1">  1        1 0.44294840E+00 0.91820853E+03</pdfrwt>
<pdfrwt beam="2">  1       -1 0.61771351E-01 0.91820853E+03</pdfrwt>
<totfact> 0.20200038E+00</totfact>
</mgrwt>
</event>
<event>
 4    1  0.8114601E-008  0.1318435E+04  0.7818608E-02  0.9049802E-01
         -1   -1    0    0    0  501 -0.00000000000E+00  0.00000000000E+00  0.14913505315E+04  0.14913505315E+04  0.50400000000E-02 0.  1.
          1   -1    0    0  501    0  0.00000000000E+00 -0.00000000000E+00 -0.13340073020E+04  0.13340073021E+04  0.50400000000E-02 0. -1.
    8880023    1    1    2    0    0 -0.11044885717E+04  0.29080067236E+03 -0.59781459524E+03  0.14476368787E+04  0.65864270000E+03 0. -1.
    8880022    1    1    2    0    0  0.11044885717E+04 -0.29080067236E+03  0.75515782465E+03  0.13777209548E+04  0.15294330000E+03 0.  0.
<mgrwt>
<rscale>  0 0.12747872E+04</rscale>
<asrwt>0</asrwt>
<pdfrwt beam="1">  1        1 0.20523189E+00 0.13184348E+04</pdfrwt>
<pdfrwt beam="2">  1       -1 0.22943854E+00 0.13184348E+04</pdfrwt>
<totfact> 0.78705899E-01</totfact>
</mgrwt>
</event>
<event>
 4    1  0.8114601E-008  0.8618410E+03  0.7818608E-02  0.9590297E-01
         -1   -1    0    0    0  501 -0.00000000000E+00  0.00000000000E+00  0.40334239680E+03  0.40334239683E+03  0.50400000000E-02 0.  1.
          1   -1    0    0  501    0  0.00000000000E+00 -0.00000000000E+00 -0.18386280176E+04  0.18386280176E+04  0.50400000000E-02 0. -1.
    8880023    1    1    2    0    0  0.19070904585E+03 -0.52210134552E+03 -0.14250335299E+04  0.16653799935E+04  0.65864270000E+03 0. -1.
    8880022    1    1    2    0    0 -0.19070904585E+03  0.52210134552E+03 -0.10252090945E+02  0.57659042096E+03  0.15294330000E+03 0.  0.
<mgrwt>
<rscale>  0 0.77941734E+03</rscale>
<asrwt>0</asrwt>
<pdfrwt beam="1">  1        1 0.28286585E+00 0.86184103E+03</pdfrwt>
<pdfrwt beam="2">  1       -1 0.62052677E-01 0.86184103E+03</pdfrwt>
<totfact> 0.10369976E+01</totfact>
</mgrwt>
</event>
<event>
 4    1  0.8114601E-008  0.7000526E+03  0.7818608E-02  0.9996983E-01
         -1   -1    0    0    0  501 -0.00000000000E+00  0.00000000000E+00  0.92052900940E+03  0.92052900942E+03  0.50400000000E-02 0.  1.
          1   -1    0    0  501    0  0.00000000000E+00 -0.00000000000E+00 -0.38933137825E+03  0.38933137828E+03  0.50400000000E-02 0. -1.
    8880023    1    1    2    0    0 -0.12194823666E+03  0.20345030274E+03  0.69257329600E+03  0.98474939691E+03  0.65864270000E+03 0.  0.
    8880022    1    1    2    0    0  0.12194823666E+03 -0.20345030274E+03 -0.16137566485E+03  0.32511099079E+03  0.15294330000E+03 0.  0.
<mgrwt>
<rscale>  0 0.55782716E+03</rscale>
<asrwt>0</asrwt>
<pdfrwt beam="1">  1        1 0.59897135E-01 0.70005257E+03</pdfrwt>
<pdfrwt beam="2">  1       -1 0.14161985E+00 0.70005257E+03</pdfrwt>
<totfact> 0.26037839E+01</totfact>
</mgrwt>
</event>
<event>
 4    1  0.8114601E-008  0.1031351E+04  0.7818608E-02  0.9341643E-01
         -1   -1    0    0    0  501 -0.00000000000E+00  0.00000000000E+00  0.11693493127E+04  0.11693493127E+04  0.50400000000E-02 0.  1.
          1   -1    0    0  501    0  0.00000000000E+00 -0.00000000000E+00 -0.88160108605E+03  0.88160108607E+03  0.50400000000E-02 0. -1.
    8880023    1    1    2    0    0  0.76449061841E+03 -0.21314179641E+03 -0.27343419586E+03  0.10669825663E+04  0.65864270000E+03 0. -1.
    8880022    1    1    2    0    0 -0.76449061841E+03  0.21314179641E+03  0.56118242248E+03  0.98396783247E+03  0.15294330000E+03 0.  0.
<mgrwt>
<rscale>  0 0.97037882E+03</rscale>
<asrwt>0</asrwt>
<pdfrwt beam="1">  1        1 0.13563094E+00 0.10313513E+04</pdfrwt>
<pdfrwt beam="2">  1       -1 0.17989989E+00 0.10313513E+04</pdfrwt>
<totfact> 0.39262412E+00</totfact>
</mgrwt>
</event>
<event>
 4    1  0.8114601E-008  0.8988071E+03  0.7818608E-02  0.9527949E-01
         -1   -1    0    0    0  501 -0.00000000000E+00  0.00000000000E+00  0.60841921153E+03  0.60841921155E+03  0.50400000000E-02 0.  1.
          1   -1    0    0  501    0  0.00000000000E+00 -0.00000000000E+00 -0.13460996533E+04  0.13460996533E+04  0.50400000000E-02 0. -1.
    8880023    1    1    2    0    0  0.60893531926E+03 -0.56936865269E+02 -0.93203577610E+03  0.12948146292E+04  0.65864270000E+03 0. -1.
    8880022    1    1    2    0    0 -0.60893531926E+03  0.56936865269E+02  0.19435533430E+03  0.65970423574E+03  0.15294330000E+03 0.  0.
<mgrwt>
<rscale>  0 0.82254229E+03</rscale>
<asrwt>0</asrwt>
<pdfrwt beam="1">  1        1 0.20709225E+00 0.89880712E+03</pdfrwt>
<pdfrwt beam="2">  1       -1 0.93602956E-01 0.89880712E+03</pdfrwt>
<totfact> 0.94341125E+00</totfact>
</mgrwt>
</event>
<event>
 4    1  0.8114601E-008  0.1192292E+04  0.7818608E-02  0.9164652E-01
         -1   -1    0    0    0  501 -0.00000000000E+00  0.00000000000E+00  0.67296724951E+03  0.67296724953E+03  0.50400000000E-02 0.  1.
          1   -1    0    0  501    0  0.00000000000E+00 -0.00000000000E+00 -0.33742134284E+04  0.33742134284E+04  0.50400000000E-02 0. -1.
    8880023    1    1    2    0    0 -0.60780563208E+03 -0.78633441074E+03 -0.27935996627E+04  0.30373934177E+04  0.65864270000E+03 0.  0.
    8880022    1    1    2    0    0  0.60780563208E+03  0.78633441074E+03  0.92353483877E+02  0.10097872602E+04  0.15294330000E+03 0.  0.
<mgrwt>
<rscale>  0 0.11425847E+04</rscale>
<asrwt>0</asrwt>
<pdfrwt beam="1">  1        1 0.51910975E+00 0.11922918E+04</pdfrwt>
<pdfrwt beam="2">  1       -1 0.10353343E+00 0.11922918E+04</pdfrwt>
<totfact> 0.27637153E-01</totfact>
</mgrwt>
</event>
<event>
 4    1  0.8114601E-008  0.7590411E+03  0.7818608E-02  0.9807596E-01
          1   -1    0    0  501    0  0.00000000000E+00  0.00000000000E+00  0.62708297174E+03  0.62708297176E+03  0.50400000000E-02 0. -1.
         -1   -1    0    0    0  501 -0.00000000000E+00 -0.00000000000E+00 -0.90462744940E+03  0.90462744941E+03  0.50400000000E-02 0.  1.
    8880023    1    1    2    0    0 -0.33519393428E+03 -0.17314228839E+03  0.30750444951E+03  0.81896423508E+03  0.65864270000E+03 0. -1.
    8880022    1    1    2    0    0  0.33519393428E+03  0.17314228839E+03 -0.58504892717E+03  0.71274618610E+03  0.15294330000E+03 0.  0.
<mgrwt>
<rscale>  0 0.64956474E+03</rscale>
<asrwt>0</asrwt>
<pdfrwt beam="1">  1        1 0.96474303E-01 0.75904113E+03</pdfrwt>
<pdfrwt beam="2">  1       -1 0.13917345E+00 0.75904113E+03</pdfrwt>
<totfact> 0.14044773E+01</totfact>
</mgrwt>
</event>
<event>
 4    1  0.8114601E-008  0.1280962E+04  0.7818608E-02  0.9082177E-01
          1   -1    0    0  501    0  0.00000000000E+00  0.00000000000E+00  0.12545904784E+04  0.12545904784E+04  0.50400000000E-02 0. -1.
         -1   -1    0    0    0  501 -0.00000000000E+00 -0.00000000000E+00 -0.14826078705E+04  0.14826078705E+04  0.50400000000E-02 0.  1.
    8880023    1    1    2    0    0 -0.55858714577E+02 -0.10972391749E+04 -0.77838268212E+03  0.14989142100E+04  0.65864270000E+03 0.  1.
    8880022    1    1    2    0    0  0.55858714577E+02  0.10972391749E+04  0.55036529000E+03  0.12382841388E+04  0.15294330000E+03 0.  0.
<mgrwt>
<rscale>  0 0.12356915E+04</rscale>
<asrwt>0</asrwt>
<pdfrwt beam="1">  1        1 0.19301392E+00 0.12809622E+04</pdfrwt>
<pdfrwt beam="2">  1       -1 0.22809352E+00 0.12809622E+04</pdfrwt>
<totfact> 0.92020185E-01</totfact>
</mgrwt>
</event>
<event>
 4    1  0.8114601E-008  0.8776142E+03  0.7818608E-02  0.9562968E-01
         -1   -1    0    0    0  501 -0.00000000000E+00  0.00000000000E+00  0.90654315599E+03  0.90654315600E+03  0.50400000000E-02 0.  1.
          1   -1    0    0  501    0  0.00000000000E+00 -0.00000000000E+00 -0.87374624922E+03  0.87374624923E+03  0.50400000000E-02 0. -1.
    8880023    1    1    2    0    0  0.56204340457E+03  0.14319080423E+03 -0.47184867528E+03  0.99641746957E+03  0.65864270000E+03 0.  0.
    8880022    1    1    2    0    0 -0.56204340457E+03 -0.14319080423E+03  0.50464558205E+03  0.78387193567E+03  0.15294330000E+03 0.  0.
<mgrwt>
<rscale>  0 0.79796447E+03</rscale>
<asrwt>0</asrwt>
<pdfrwt beam="1">  1        1 0.13442250E+00 0.87761415E+03</pdfrwt>
<pdfrwt beam="2">  1       -1 0.13946818E+00 0.87761415E+03</pdfrwt>
<totfact> 0.82270349E+00</totfact>
</mgrwt>
</event>
<event>
 4    1  0.1518283E-007  0.1086711E+04  0.7818608E-02  0.9275998E-01
          1   -1    0    0  501    0  0.00000000000E+00  0.00000000000E+00  0.18540147498E+04  0.18540147499E+04  0.50400000000E-02 0. -1.
         -1   -1    0    0    0  501 -0.00000000000E+00 -0.00000000000E+00 -0.22343960056E+04  0.22343960056E+04  0.50400000000E-02 0.  1.
    8880023    1    1    2    0    0  0.15475085338E+03 -0.85040177275E+03  0.15931387720E+04  0.19284792856E+04  0.65864270000E+03 0. -1.
    8880022    1    1    2    0    0 -0.15475085338E+03  0.85040177275E+03 -0.19735200277E+04  0.21599314699E+04  0.15294330000E+03 0.  0.
<mgrwt>
<rscale>  0 0.10302290E+04</rscale>
<asrwt>0</asrwt>
<pdfrwt beam="1">  1        1 0.28523304E+00 0.10867112E+04</pdfrwt>
<pdfrwt beam="2">  1       -1 0.34375323E+00 0.10867112E+04</pdfrwt>
<totfact> 0.64554447E-02</totfact>
</mgrwt>
</event>
<event>
 4    1  0.8114601E-008  0.2019247E+04  0.7818608E-02  0.8610067E-01
         -1   -1    0    0    0  501 -0.00000000000E+00  0.00000000000E+00  0.22871980869E+04  0.22871980869E+04  0.50400000000E-02 0.  1.
          1   -1    0    0  501    0  0.00000000000E+00 -0.00000000000E+00 -0.19858734835E+04  0.19858734835E+04  0.50400000000E-02 0. -1.
    8880023    1    1    2    0    0 -0.51377308174E+03  0.18383645091E+04 -0.66789271274E+03  0.21268374949E+04  0.65864270000E+03 0. -1.
    8880022    1    1    2    0    0  0.51377308174E+03 -0.18383645091E+04  0.96921731616E+03  0.21462340755E+04  0.15294330000E+03 0.  0.
<mgrwt>
<rscale>  0 0.19926452E+04</rscale>
<asrwt>0</asrwt>
<pdfrwt beam="1">  1        1 0.30551900E+00 0.20192467E+04</pdfrwt>
<pdfrwt beam="2">  1       -1 0.35187663E+00 0.20192467E+04</pdfrwt>
<totfact> 0.40850459E-02</totfact>
</mgrwt>
</event>
<event>
 4    1  0.8114601E-008  0.1063297E+04  0.7818608E-02  0.9303065E-01
          1   -1    0    0  501    0  0.00000000000E+00  0.00000000000E+00  0.42285113705E+03  0.42285113708E+03  0.50400000000E-02 0. -1.
         -1   -1    0    0    0  501 -0.00000000000E+00 -0.00000000000E+00 -0.32293765316E+04  0.32293765316E+04  0.50400000000E-02 0.  1.
    8880023    1    1    2    0    0 -0.50717022892E+03 -0.66299978597E+03 -0.46290353663E+03  0.11596897205E+04  0.65864270000E+03 0.  0.
    8880022    1    1    2    0    0  0.50717022892E+03  0.66299978597E+03 -0.23436218579E+04  0.24925379482E+04  0.15294330000E+03 0.  0.
<mgrwt>
<rscale>  0 0.10050120E+04</rscale>
<asrwt>0</asrwt>
<pdfrwt beam="1">  1        1 0.65054023E-01 0.10632970E+04</pdfrwt>
<pdfrwt beam="2">  1       -1 0.49682714E+00 0.10632970E+04</pdfrwt>
<totfact> 0.87927458E-02</totfact>
</mgrwt>
</event>
<event>
 4    1  0.8114601E-008  0.9324441E+03  0.7818608E-02  0.9475836E-01
         -1   -1    0    0    0  501 -0.00000000000E+00  0.00000000000E+00  0.11574425400E+04  0.11574425400E+04  0.50400000000E-02 0.  1.
          1   -1    0    0  501    0  0.00000000000E+00 -0.00000000000E+00 -0.15493436517E+04  0.15493436517E+04  0.50400000000E-02 0. -1.
    8880023    1    1    2    0    0 -0.65907895135E+03  0.35451129066E+02 -0.12838255150E+04  0.15867135866E+04  0.65864270000E+03 0.  0.
    8880022    1    1    2    0    0  0.65907895135E+03 -0.35451129066E+02  0.89192440325E+03  0.11200726051E+04  0.15294330000E+03 0.  0.
<mgrwt>
<rscale>  0 0.86089000E+03</rscale>
<asrwt>0</asrwt>
<pdfrwt beam="1">  1        1 0.23836056E+00 0.93244413E+03</pdfrwt>
<pdfrwt beam="2">  1       -1 0.17806808E+00 0.93244413E+03</pdfrwt>
<totfact> 0.13216985E+00</totfact>
</mgrwt>
</event>
<event>
 4    1  0.8114601E-008  0.1206595E+04  0.7818608E-02  0.9150738E-01
          1   -1    0    0  501    0  0.00000000000E+00  0.00000000000E+00  0.22173797725E+04  0.22173797725E+04  0.50400000000E-02 0. -1.
         -1   -1    0    0    0  501 -0.00000000000E+00 -0.00000000000E+00 -0.10818817799E+04  0.10818817800E+04  0.50400000000E-02 0.  1.
    8880023    1    1    2    0    0  0.33411205687E+03  0.95416532031E+03  0.17355129858E+04  0.21137355215E+04  0.65864270000E+03 0.  0.
    8880022    1    1    2    0    0 -0.33411205687E+03 -0.95416532031E+03 -0.60001499317E+03  0.11855260310E+04  0.15294330000E+03 0.  0.
<mgrwt>
<rscale>  0 0.11576689E+04</rscale>
<asrwt>0</asrwt>
<pdfrwt beam="1">  1        1 0.34113535E+00 0.12065954E+04</pdfrwt>
<pdfrwt beam="2">  1       -1 0.16644335E+00 0.12065954E+04</pdfrwt>
<totfact> 0.54466921E-01</totfact>
</mgrwt>
</event>
<event>
 4    1  0.8114601E-008  0.7654484E+03  0.7818608E-02  0.9791201E-01
          1   -1    0    0  501    0  0.00000000000E+00  0.00000000000E+00  0.20596142436E+04  0.20596142436E+04  0.50400000000E-02 0. -1.
         -1   -1    0    0    0  501 -0.00000000000E+00 -0.00000000000E+00 -0.32533945035E+03  0.32533945039E+03  0.50400000000E-02 0.  1.
    8880023    1    1    2    0    0  0.37318721888E+03  0.11327984786E+03  0.18045500474E+04  0.19601816508E+04  0.65864270000E+03 0. -1.
    8880022    1    1    2    0    0 -0.37318721888E+03 -0.11327984786E+03 -0.70275254219E+02  0.42477204314E+03  0.15294330000E+03 0.  0.
<mgrwt>
<rscale>  0 0.65836890E+03</rscale>
<asrwt>0</asrwt>
<pdfrwt beam="1">  1        1 0.31686374E+00 0.76544839E+03</pdfrwt>
<pdfrwt beam="2">  1       -1 0.50052222E-01 0.76544839E+03</pdfrwt>
<totfact> 0.11347504E+01</totfact>
</mgrwt>
</event>
<event>
 4    1  0.8114601E-008  0.8624652E+03  0.7818608E-02  0.9589193E-01
          1   -1    0    0  501    0  0.00000000000E+00  0.00000000000E+00  0.52502817487E+03  0.52502817489E+03  0.50400000000E-02 0. -1.
         -1   -1    0    0    0  501 -0.00000000000E+00 -0.00000000000E+00 -0.10649864098E+04  0.10649864098E+04  0.50400000000E-02 0.  1.
    8880023    1    1    2    0    0 -0.54344741564E+03 -0.12124739994E+03 -0.10864838285E+03  0.86928171666E+03  0.65864270000E+03 0.  0.
    8880022    1    1    2    0    0  0.54344741564E+03  0.12124739994E+03 -0.43130985210E+03  0.72073286805E+03  0.15294330000E+03 0.  0.
<mgrwt>
<rscale>  0 0.78015589E+03</rscale>
<asrwt>0</asrwt>
<pdfrwt beam="1">  1        1 0.80773565E-01 0.86246521E+03</pdfrwt>
<pdfrwt beam="2">  1       -1 0.16384406E+00 0.86246521E+03</pdfrwt>
<totfact> 0.11507790E+01</totfact>
</mgrwt>
</event>
<event>
 4    1  0.8114601E-008  0.6633604E+03  0.7818608E-02  0.1020950E+00
          1   -1    0    0  501    0  0.00000000000E+00  0.00000000000E+00  0.20588093332E+04  0.20588093332E+04  0.50400000000E-02 0. -1.
         -1   -1    0    0    0  501 -0.00000000000E+00 -0.00000000000E+00 -0.62882845461E+03  0.62882845463E+03  0.50400000000E-02 0.  1.
    8880023    1    1    2    0    0  0.77621471571E+02  0.14552109702E+02  0.19921575916E+04  0.20996997244E+04  0.65864270000E+03 0. -1.
    8880022    1    1    2    0    0 -0.77621471571E+02 -0.14552109702E+02 -0.56217671301E+03  0.58793806341E+03  0.15294330000E+03 0.  0.
<mgrwt>
<rscale>  0 0.47345194E+03</rscale>
<asrwt>0</asrwt>
<pdfrwt beam="1">  1        1 0.31673990E+00 0.66336043E+03</pdfrwt>
<pdfrwt beam="2">  1       -1 0.96742839E-01 0.66336043E+03</pdfrwt>
<totfact> 0.29952626E+00</totfact>
</mgrwt>
</event>
<event>
 4    1  0.8114601E-008  0.7608392E+03  0.7818608E-02  0.9802940E-01
         -1   -1    0    0    0  501 -0.00000000000E+00  0.00000000000E+00  0.70004282302E+03  0.70004282303E+03  0.50400000000E-02 0.  1.
          1   -1    0    0  501    0  0.00000000000E+00 -0.00000000000E+00 -0.91759955998E+03  0.91759955999E+03  0.50400000000E-02 0. -1.
    8880023    1    1    2    0    0  0.21755092082E+03 -0.31263030757E+03 -0.66497874867E+03  0.10104815955E+04  0.65864270000E+03 0.  0.
    8880022    1    1    2    0    0 -0.21755092082E+03  0.31263030757E+03  0.44742201170E+03  0.60716078755E+03  0.15294330000E+03 0.  0.
<mgrwt>
<rscale>  0 0.65205022E+03</rscale>
<asrwt>0</asrwt>
<pdfrwt beam="1">  1        1 0.14116916E+00 0.76083922E+03</pdfrwt>
<pdfrwt beam="2">  1       -1 0.10769890E+00 0.76083922E+03</pdfrwt>
<totfact> 0.14526144E+01</totfact>
</mgrwt>
</event>
<event>
 4    1  0.8114601E-008  0.7028389E+03  0.7818608E-02  0.9985622E-01
         -1   -1    0    0    0  501 -0.00000000000E+00  0.00000000000E+00  0.62792380044E+03  0.62792380046E+03  0.50400000000E-02 0.  1.
          1   -1    0    0  501    0  0.00000000000E+00 -0.00000000000E+00 -0.12048186691E+04  0.12048186691E+04  0.50400000000E-02 0. -1.
    8880023    1    1    2    0    0  0.30539280334E+02 -0.24339199679E+03 -0.10587659835E+04  0.12708138833E+04  0.65864270000E+03 0. -1.
    8880022    1    1    2    0    0 -0.30539280334E+02  0.24339199679E+03  0.48187111487E+03  0.56192858631E+03  0.15294330000E+03 0.  0.
<mgrwt>
<rscale>  0 0.56285201E+03</rscale>
<asrwt>0</asrwt>
<pdfrwt beam="1">  1        1 0.18535672E+00 0.70283890E+03</pdfrwt>
<pdfrwt beam="2">  1       -1 0.96603662E-01 0.70283890E+03</pdfrwt>
<totfact> 0.11378416E+01</totfact>
</mgrwt>
</event>
<event>
 4    1  0.8114601E-008  0.1167794E+04  0.7818608E-02  0.9189083E-01
         -1   -1    0    0    0  501 -0.00000000000E+00  0.00000000000E+00  0.14439038124E+04  0.14439038124E+04  0.50400000000E-02 0.  1.
          1   -1    0    0  501    0  0.00000000000E+00 -0.00000000000E+00 -0.17493587872E+04  0.17493587872E+04  0.50400000000E-02 0. -1.
    8880023    1    1    2    0    0  0.21375238190E+03  0.94034114158E+03 -0.13354546261E+04  0.17740295398E+04  0.65864270000E+03 0. -1.
    8880022    1    1    2    0    0 -0.21375238190E+03 -0.94034114158E+03  0.10299996513E+04  0.14192330598E+04  0.15294330000E+03 0.  0.
<mgrwt>
<rscale>  0 0.11166821E+04</rscale>
<asrwt>0</asrwt>
<pdfrwt beam="1">  1        1 0.26913212E+00 0.11677935E+04</pdfrwt>
<pdfrwt beam="2">  1       -1 0.22213905E+00 0.11677935E+04</pdfrwt>
<totfact> 0.46267993E-01</totfact>
</mgrwt>
</event>
<event>
 4    1  0.8114601E-008  0.7766554E+03  0.7818608E-02  0.9763753E-01
         -1   -1    0    0    0  501 -0.00000000000E+00  0.00000000000E+00  0.17887360837E+04  0.17887360837E+04  0.50400000000E-02 0.  1.
          1   -1    0    0  501    0  0.00000000000E+00 -0.00000000000E+00 -0.35506602380E+03  0.35506602384E+03  0.50400000000E-02 0. -1.
    8880023    1    1    2    0    0  0.35385861176E+03  0.21016051777E+03  0.15516059386E+03  0.79200276294E+03  0.65864270000E+03 0.  0.
    8880022    1    1    2    0    0 -0.35385861176E+03 -0.21016051777E+03  0.12785094660E+04  0.13517993446E+04  0.15294330000E+03 0.  0.
<mgrwt>
<rscale>  0 0.67344573E+03</rscale>
<asrwt>0</asrwt>
<pdfrwt beam="1">  1        1 0.54625542E-01 0.77665537E+03</pdfrwt>
<pdfrwt beam="2">  1       -1 0.27519017E+00 0.77665537E+03</pdfrwt>
<totfact> 0.34966120E+00</totfact>
</mgrwt>
</event>
<event>
 4    1  0.8114601E-008  0.7077886E+03  0.7818608E-02  0.9966306E-01
          1   -1    0    0  501    0  0.00000000000E+00  0.00000000000E+00  0.13140648729E+04  0.13140648729E+04  0.50400000000E-02 0. -1.
         -1   -1    0    0    0  501 -0.00000000000E+00 -0.00000000000E+00 -0.50828323416E+03  0.50828323418E+03  0.50400000000E-02 0.  1.
    8880023    1    1    2    0    0  0.10464211646E+03  0.23707484382E+03  0.11591880703E+04  0.13581905767E+04  0.65864270000E+03 0. -1.
    8880022    1    1    2    0    0 -0.10464211646E+03 -0.23707484382E+03 -0.35340643157E+03  0.46415753037E+03  0.15294330000E+03 0.  0.
<mgrwt>
<rscale>  0 0.57152651E+03</rscale>
<asrwt>0</asrwt>
<pdfrwt beam="1">  1        1 0.20216383E+00 0.70778857E+03</pdfrwt>
<pdfrwt beam="2">  1       -1 0.78197420E-01 0.70778857E+03</pdfrwt>
<totfact> 0.15051445E+01</totfact>
</mgrwt>
</event>
<event>
 4    1  0.8114601E-008  0.1348596E+04  0.7818608E-02  0.9024690E-01
         -1   -1    0    0    0  501 -0.00000000000E+00  0.00000000000E+00  0.13772562920E+04  0.13772562920E+04  0.50400000000E-02 0.  1.
          1   -1    0    0  501    0  0.00000000000E+00 -0.00000000000E+00 -0.15628128992E+04  0.15628128992E+04  0.50400000000E-02 0. -1.
    8880023    1    1    2    0    0  0.67164370354E+02  0.11749002152E+04  0.64168815373E+03  0.14934776400E+04  0.65864270000E+03 0.  0.
    8880022    1    1    2    0    0 -0.67164370354E+02 -0.11749002152E+04 -0.82724476094E+03  0.14465915512E+04  0.15294330000E+03 0.  0.
<mgrwt>
<rscale>  0 0.13061651E+04</rscale>
<asrwt>0</asrwt>
<pdfrwt beam="1">  1        1 0.24043275E+00 0.13485962E+04</pdfrwt>
<pdfrwt beam="2">  1       -1 0.21188558E+00 0.13485962E+04</pdfrwt>
<totfact> 0.71104320E-01</totfact>
</mgrwt>
</event>
<event>
 4    1  0.8114601E-008  0.1514089E+04  0.7818608E-02  0.8899750E-01
          1   -1    0    0  501    0  0.00000000000E+00  0.00000000000E+00  0.26367661212E+04  0.26367661212E+04  0.50400000000E-02 0. -1.
         -1   -1    0    0    0  501 -0.00000000000E+00 -0.00000000000E+00 -0.12485775867E+04  0.12485775867E+04  0.50400000000E-02 0.  1.
    8880023    1    1    2    0    0  0.12409471294E+04 -0.56454139830E+03  0.18925619348E+04  0.24236867891E+04  0.65864270000E+03 0.  0.
    8880022    1    1    2    0    0 -0.12409471294E+04  0.56454139830E+03 -0.50437340035E+03  0.14616569188E+04  0.15294330000E+03 0.  0.
<mgrwt>
<rscale>  0 0.14772109E+04</rscale>
<asrwt>0</asrwt>
<pdfrwt beam="1">  1        1 0.40565633E+00 0.15140895E+04</pdfrwt>
<pdfrwt beam="2">  1       -1 0.19208886E+00 0.15140895E+04</pdfrwt>
<totfact> 0.17550000E-01</totfact>
</mgrwt>
</event>
<event>
 4    1  0.8114601E-008  0.6724445E+03  0.7818608E-02  0.1013968E+00
          1   -1    0    0  501    0  0.00000000000E+00  0.00000000000E+00  0.15158578677E+04  0.15158578677E+04  0.50400000000E-02 0. -1.
         -1   -1    0    0    0  501 -0.00000000000E+00 -0.00000000000E+00 -0.13048019123E+03  0.13048019133E+03  0.50400000000E-02 0.  1.
    8880023    1    1    2    0    0  0.10409172040E+03 -0.86812224988E+02  0.93432271986E+03  0.11511475143E+04  0.65864270000E+03 0. -1.
    8880022    1    1    2    0    0 -0.10409172040E+03  0.86812224988E+02  0.45105495660E+03  0.49519054469E+03  0.15294330000E+03 0.  0.
<mgrwt>
<rscale>  0 0.49927687E+03</rscale>
<asrwt>0</asrwt>
<pdfrwt beam="1">  1        1 0.23320890E+00 0.67244454E+03</pdfrwt>
<pdfrwt beam="2">  1       -1 0.20073876E-01 0.67244454E+03</pdfrwt>
<totfact> 0.13324914E+02</totfact>
</mgrwt>
</event>
<event>
 4    1  0.8114601E-008  0.9413724E+03  0.7818608E-02  0.9462638E-01
          1   -1    0    0  501    0  0.00000000000E+00  0.00000000000E+00  0.78771600581E+03  0.78771600583E+03  0.50400000000E-02 0. -1.
         -1   -1    0    0    0  501 -0.00000000000E+00 -0.00000000000E+00 -0.11374883798E+04  0.11374883798E+04  0.50400000000E-02 0.  1.
    8880023    1    1    2    0    0  0.30652443512E+03 -0.59867728271E+03  0.28937658536E+03  0.98484553742E+03  0.65864270000E+03 0.  0.
    8880022    1    1    2    0    0 -0.30652443512E+03  0.59867728271E+03 -0.63914895932E+03  0.94035884819E+03  0.15294330000E+03 0.  0.
<mgrwt>
<rscale>  0 0.87095348E+03</rscale>
<asrwt>0</asrwt>
<pdfrwt beam="1">  1        1 0.12118708E+00 0.94137236E+03</pdfrwt>
<pdfrwt beam="2">  1       -1 0.17499821E+00 0.94137236E+03</pdfrwt>
<totfact> 0.51759954E+00</totfact>
</mgrwt>
</event>
<event>
 4    1  0.8114601E-008  0.1867235E+04  0.7818608E-02  0.8686229E-01
          1   -1    0    0  501    0  0.00000000000E+00  0.00000000000E+00  0.36762365181E+04  0.36762365181E+04  0.50400000000E-02 0. -1.
         -1   -1    0    0    0  501 -0.00000000000E+00 -0.00000000000E+00 -0.99251839443E+03  0.99251839444E+03  0.50400000000E-02 0.  1.
    8880023    1    1    2    0    0 -0.17295232519E+04  0.24800118871E+03  0.63596736663E+03  0.19725668471E+04  0.65864270000E+03 0.  0.
    8880022    1    1    2    0    0  0.17295232519E+04 -0.24800118871E+03  0.20477507571E+04  0.26961880655E+04  0.15294330000E+03 0.  0.
<mgrwt>
<rscale>  0 0.18382309E+04</rscale>
<asrwt>0</asrwt>
<pdfrwt beam="1">  1        1 0.56557486E+00 0.18672347E+04</pdfrwt>
<pdfrwt beam="2">  1       -1 0.15269513E+00 0.18672347E+04</pdfrwt>
<totfact> 0.54892107E-02</totfact>
</mgrwt>
</event>
<event>
 4    1  0.8114601E-008  0.1220247E+04  0.7818608E-02  0.9137688E-01
          1   -1    0    0  501    0  0.00000000000E+00  0.00000000000E+00  0.92924293738E+03  0.92924293740E+03  0.50400000000E-02 0. -1.
         -1   -1    0    0    0  501 -0.00000000000E+00 -0.00000000000E+00 -0.17391125680E+04  0.17391125680E+04  0.50400000000E-02 0.  1.
    8880023    1    1    2    0    0  0.48435923068E+03 -0.90586336799E+03  0.18021832692E+03  0.12334833430E+04  0.65864270000E+03 0.  0.
    8880022    1    1    2    0    0 -0.48435923068E+03  0.90586336799E+03 -0.99008795758E+03  0.14348721624E+04  0.15294330000E+03 0.  0.
<mgrwt>
<rscale>  0 0.11720403E+04</rscale>
<asrwt>0</asrwt>
<pdfrwt beam="1">  1        1 0.14296045E+00 0.12202469E+04</pdfrwt>
<pdfrwt beam="2">  1       -1 0.26755578E+00 0.12202469E+04</pdfrwt>
<totfact> 0.90578387E-01</totfact>
</mgrwt>
</event>
<event>
 4    1  0.8114601E-008  0.1042151E+04  0.7818608E-02  0.9328377E-01
         -1   -1    0    0    0  501 -0.00000000000E+00  0.00000000000E+00  0.59247260896E+03  0.59247260898E+03  0.50400000000E-02 0.  1.
          1   -1    0    0  501    0  0.00000000000E+00 -0.00000000000E+00 -0.18439460944E+04  0.18439460944E+04  0.50400000000E-02 0. -1.
    8880023    1    1    2    0    0  0.76771170708E+03  0.25077421471E+03 -0.12327305653E+04  0.16142192617E+04  0.65864270000E+03 0.  0.
    8880022    1    1    2    0    0 -0.76771170708E+03 -0.25077421471E+03 -0.18742920218E+02  0.82219944176E+03  0.15294330000E+03 0.  0.
<mgrwt>
<rscale>  0 0.98211905E+03</rscale>
<asrwt>0</asrwt>
<pdfrwt beam="1">  1        1 0.28368401E+00 0.10421512E+04</pdfrwt>
<pdfrwt beam="2">  1       -1 0.91149633E-01 0.10421512E+04</pdfrwt>
<totfact> 0.44842974E+00</totfact>
</mgrwt>
</event>
<event>
 4    1  0.8114601E-008  0.1105643E+04  0.7818608E-02  0.9254799E-01
         -1   -1    0    0    0  501 -0.00000000000E+00  0.00000000000E+00  0.21687503243E+04  0.21687503244E+04  0.50400000000E-02 0.  1.
          1   -1    0    0  501    0  0.00000000000E+00 -0.00000000000E+00 -0.66977650726E+03  0.66977650728E+03  0.50400000000E-02 0. -1.
    8880023    1    1    2    0    0 -0.81621545163E+02  0.88429353912E+03  0.19011054742E+02  0.11058068396E+04  0.65864270000E+03 0. -1.
    8880022    1    1    2    0    0  0.81621545163E+02 -0.88429353912E+03  0.14799627623E+04  0.17327199921E+04  0.15294330000E+03 0.  0.
<mgrwt>
<rscale>  0 0.10505283E+04</rscale>
<asrwt>0</asrwt>
<pdfrwt beam="1">  1        1 0.10304254E+00 0.11056434E+04</pdfrwt>
<pdfrwt beam="2">  1       -1 0.33365389E+00 0.11056434E+04</pdfrwt>
<totfact> 0.58200373E-01</totfact>
</mgrwt>
</event>
<event>
 4    1  0.8114601E-008  0.1126907E+04  0.7818608E-02  0.9231674E-01
         -1   -1    0    0    0  501 -0.00000000000E+00  0.00000000000E+00  0.90294636210E+03  0.90294636212E+03  0.50400000000E-02 0.  1.
          1   -1    0    0  501    0  0.00000000000E+00 -0.00000000000E+00 -0.14300609217E+04  0.14300609217E+04  0.50400000000E-02 0. -1.
    8880023    1    1    2    0    0 -0.91154864128E+03  0.72025975635E+02 -0.78183029426E+03  0.13715602363E+04  0.65864270000E+03 0. -1.
    8880022    1    1    2    0    0  0.91154864128E+03 -0.72025975635E+02  0.25471573469E+03  0.96144704747E+03  0.15294330000E+03 0.  0.
<mgrwt>
<rscale>  0 0.10732397E+04</rscale>
<asrwt>0</asrwt>
<pdfrwt beam="1">  1        1 0.22000937E+00 0.11269068E+04</pdfrwt>
<pdfrwt beam="2">  1       -1 0.13891483E+00 0.11269068E+04</pdfrwt>
<totfact> 0.30979070E+00</totfact>
</mgrwt>
</event>
<event>
 4    1  0.1013325E-007  0.8361590E+03  0.7818608E-02  0.9637466E-01
         -1   -1    0    0    0  501 -0.00000000000E+00  0.00000000000E+00  0.22426153312E+04  0.22426153312E+04  0.50400000000E-02 0.  1.
          1   -1    0    0  501    0  0.00000000000E+00 -0.00000000000E+00 -0.19703577401E+04  0.19703577401E+04  0.50400000000E-02 0. -1.
    8880023    1    1    2    0    0 -0.31338427252E+03  0.40883005128E+03 -0.18465737675E+04  0.20270660073E+04  0.65864270000E+03 0. -1.
    8880022    1    1    2    0    0  0.31338427252E+03 -0.40883005128E+03  0.21188313586E+04  0.21859070640E+04  0.15294330000E+03 0.  0.
<mgrwt>
<rscale>  0 0.74865316E+03</rscale>
<asrwt>0</asrwt>
<pdfrwt beam="1">  1        1 0.30313196E+00 0.83615903E+03</pdfrwt>
<pdfrwt beam="2">  1       -1 0.34501774E+00 0.83615903E+03</pdfrwt>
<totfact> 0.55917295E-02</totfact>
</mgrwt>
</event>
<event>
 4    1  0.8114601E-008  0.7141720E+03  0.7818608E-02  0.9942823E-01
         -1   -1    0    0    0  501 -0.00000000000E+00  0.00000000000E+00  0.84689237106E+03  0.84689237108E+03  0.50400000000E-02 0.  1.
          1   -1    0    0  501    0  0.00000000000E+00 -0.00000000000E+00 -0.90293550075E+03  0.90293550076E+03  0.50400000000E-02 0. -1.
    8880023    1    1    2    0    0  0.27073975299E+03  0.54143225765E+02 -0.72033819720E+03  0.10143612903E+04  0.65864270000E+03 0. -1.
    8880022    1    1    2    0    0 -0.27073975299E+03 -0.54143225765E+02  0.66429506752E+03  0.73546658149E+03  0.15294330000E+03 0.  0.
<mgrwt>
<rscale>  0 0.58230051E+03</rscale>
<asrwt>0</asrwt>
<pdfrwt beam="1">  1        1 0.13891315E+00 0.71417204E+03</pdfrwt>
<pdfrwt beam="2">  1       -1 0.13029113E+00 0.71417204E+03</pdfrwt>
<totfact> 0.94660559E+00</totfact>
</mgrwt>
</event>
<event>
 4    1  0.8114601E-008  0.8653921E+03  0.7818608E-02  0.9584043E-01
         -1   -1    0    0    0  501 -0.00000000000E+00  0.00000000000E+00  0.67417954195E+03  0.67417954197E+03  0.50400000000E-02 0.  1.
          1   -1    0    0  501    0  0.00000000000E+00 -0.00000000000E+00 -0.83184680477E+03  0.83184680479E+03  0.50400000000E-02 0. -1.
    8880023    1    1    2    0    0  0.21670768863E+03 -0.51781369687E+03 -0.28375574115E+03  0.91072541080E+03  0.65864270000E+03 0. -1.
    8880022    1    1    2    0    0 -0.21670768863E+03  0.51781369687E+03  0.12608847834E+03  0.59530093596E+03  0.15294330000E+03 0.  1.
<mgrwt>
<rscale>  0 0.78361384E+03</rscale>
<asrwt>0</asrwt>
<pdfrwt beam="1">  1        1 0.12797643E+00 0.86539208E+03</pdfrwt>
<pdfrwt beam="2">  1       -1 0.10371993E+00 0.86539208E+03</pdfrwt>
<totfact> 0.18455299E+01</totfact>
</mgrwt>
</event>
<event>
 4    1  0.8114601E-008  0.6815934E+03  0.7818608E-02  0.1008436E+00
         -1   -1    0    0    0  501 -0.00000000000E+00  0.00000000000E+00  0.43357466934E+03  0.43357466937E+03  0.50400000000E-02 0.  1.
          1   -1    0    0  501    0  0.00000000000E+00 -0.00000000000E+00 -0.10452599627E+04  0.10452599628E+04  0.50400000000E-02 0. -1.
    8880023    1    1    2    0    0  0.15017222915E+03 -0.90596266918E+02 -0.88681848336E+03  0.11184885385E+04  0.65864270000E+03 0. -1.
    8880022    1    1    2    0    0 -0.15017222915E+03  0.90596266918E+02  0.27513318995E+03  0.36034609366E+03  0.15294330000E+03 0.  0.
<mgrwt>
<rscale>  0 0.52100859E+03</rscale>
<asrwt>0</asrwt>
<pdfrwt beam="1">  1        1 0.16080922E+00 0.68159342E+03</pdfrwt>
<pdfrwt beam="2">  1       -1 0.66703796E-01 0.68159342E+03</pdfrwt>
<totfact> 0.32894123E+01</totfact>
</mgrwt>
</event>
<event>
 4    1  0.1340347E-007  0.1275265E+04  0.7818608E-02  0.9087220E-01
          1   -1    0    0  501    0  0.00000000000E+00  0.00000000000E+00  0.25251861172E+04  0.25251861172E+04  0.50400000000E-02 0. -1.
         -1   -1    0    0    0  501 -0.00000000000E+00 -0.00000000000E+00 -0.15923565732E+04  0.15923565732E+04  0.50400000000E-02 0.  1.
    8880023    1    1    2    0    0  0.10866397420E+04  0.10819041710E+03  0.21346145916E+04  0.24865399164E+04  0.65864270000E+03 0. -1.
    8880022    1    1    2    0    0 -0.10866397420E+04 -0.10819041710E+03 -0.12017850475E+04  0.16310027740E+04  0.15294330000E+03 0.  0.
<mgrwt>
<rscale>  0 0.12297359E+04</rscale>
<asrwt>0</asrwt>
<pdfrwt beam="1">  1        1 0.38849017E+00 0.12752652E+04</pdfrwt>
<pdfrwt beam="2">  1       -1 0.24497793E+00 0.12752652E+04</pdfrwt>
<totfact> 0.95380913E-02</totfact>
</mgrwt>
</event>
<event>
 4    1  0.8114601E-008  0.1665966E+04  0.7818608E-02  0.8800544E-01
          1   -1    0    0  501    0  0.00000000000E+00  0.00000000000E+00  0.18855348243E+04  0.18855348243E+04  0.50400000000E-02 0. -1.
         -1   -1    0    0    0  501 -0.00000000000E+00 -0.00000000000E+00 -0.15458833202E+04  0.15458833202E+04  0.50400000000E-02 0.  1.
    8880023    1    1    2    0    0 -0.11050216795E+04 -0.10585648338E+04 -0.41718904389E+03  0.17174077339E+04  0.65864270000E+03 0.  1.
    8880022    1    1    2    0    0  0.11050216795E+04  0.10585648338E+04  0.75684054805E+03  0.17140104107E+04  0.15294330000E+03 0. -1.
<mgrwt>
<rscale>  0 0.16329731E+04</rscale>
<asrwt>0</asrwt>
<pdfrwt beam="1">  1        1 0.29008228E+00 0.16659660E+04</pdfrwt>
<pdfrwt beam="2">  1       -1 0.23782820E+00 0.16659660E+04</pdfrwt>
<totfact> 0.27682777E-01</totfact>
</mgrwt>
</event>
<event>
 4    1  0.8114601E-008  0.1345954E+04  0.7818608E-02  0.9026858E-01
         -1   -1    0    0    0  501 -0.00000000000E+00  0.00000000000E+00  0.11402941398E+04  0.11402941398E+04  0.50400000000E-02 0.  1.
          1   -1    0    0  501    0  0.00000000000E+00 -0.00000000000E+00 -0.20607603816E+04  0.20607603816E+04  0.50400000000E-02 0. -1.
    8880023    1    1    2    0    0 -0.92865680941E+03  0.71789920697E+03 -0.13833184193E+04  0.19300680808E+04  0.65864270000E+03 0.  0.
    8880022    1    1    2    0    0  0.92865680941E+03 -0.71789920697E+03  0.46285217750E+03  0.12709864406E+04  0.15294330000E+03 0.  0.
<mgrwt>
<rscale>  0 0.13034196E+04</rscale>
<asrwt>0</asrwt>
<pdfrwt beam="1">  1        1 0.31704006E+00 0.13459543E+04</pdfrwt>
<pdfrwt beam="2">  1       -1 0.17542987E+00 0.13459543E+04</pdfrwt>
<totfact> 0.58668153E-01</totfact>
</mgrwt>
</event>
<event>
 4    1  0.8114601E-008  0.1228627E+04  0.7818608E-02  0.9129785E-01
         -1   -1    0    0    0  501 -0.00000000000E+00  0.00000000000E+00  0.10788250089E+04  0.10788250089E+04  0.50400000000E-02 0.  1.
          1   -1    0    0  501    0  0.00000000000E+00 -0.00000000000E+00 -0.18238334404E+04  0.18238334405E+04  0.50400000000E-02 0. -1.
    8880023    1    1    2    0    0  0.44779579657E+03  0.93551804759E+03 -0.12379700745E+04  0.17441603150E+04  0.65864270000E+03 0.  0.
    8880022    1    1    2    0    0 -0.44779579657E+03 -0.93551804759E+03  0.49296164301E+03  0.11584981344E+04  0.15294330000E+03 0.  0.
<mgrwt>
<rscale>  0 0.11808511E+04</rscale>
<asrwt>0</asrwt>
<pdfrwt beam="1">  1        1 0.28058976E+00 0.12286274E+04</pdfrwt>
<pdfrwt beam="2">  1       -1 0.16597308E+00 0.12286274E+04</pdfrwt>
<totfact> 0.10113830E+00</totfact>
</mgrwt>
</event>
<event>
 4    1  0.8114601E-008  0.1115989E+04  0.7818608E-02  0.9243459E-01
          1   -1    0    0  501    0  0.00000000000E+00  0.00000000000E+00  0.61017829089E+03  0.61017829091E+03  0.50400000000E-02 0. -1.
         -1   -1    0    0    0  501 -0.00000000000E+00 -0.00000000000E+00 -0.22578518250E+04  0.22578518250E+04  0.50400000000E-02 0.  1.
    8880023    1    1    2    0    0 -0.88768975437E+03 -0.15371749382E+03 -0.16746975053E+03  0.11284850427E+04  0.65864270000E+03 0.  0.
    8880022    1    1    2    0    0  0.88768975437E+03  0.15371749382E+03 -0.14802037836E+04  0.17395450732E+04  0.15294330000E+03 0.  0.
<mgrwt>
<rscale>  0 0.10615899E+04</rscale>
<asrwt>0</asrwt>
<pdfrwt beam="1">  1        1 0.93873584E-01 0.11159894E+04</pdfrwt>
<pdfrwt beam="2">  1       -1 0.34736182E+00 0.11159894E+04</pdfrwt>
<totfact> 0.54261195E-01</totfact>
</mgrwt>
</event>
<event>
 4    1  0.8114601E-008  0.7812446E+03  0.7818608E-02  0.9752922E-01
          1   -1    0    0  501    0  0.00000000000E+00  0.00000000000E+00  0.15604779631E+04  0.15604779631E+04  0.50400000000E-02 0. -1.
         -1   -1    0    0    0  501 -0.00000000000E+00 -0.00000000000E+00 -0.12386531135E+04  0.12386531135E+04  0.50400000000E-02 0.  1.
    8880023    1    1    2    0    0 -0.36590996834E+03  0.20650126305E+03  0.14159462335E+04  0.16171724766E+04  0.65864270000E+03 0.  0.
    8880022    1    1    2    0    0  0.36590996834E+03 -0.20650126305E+03 -0.10941213839E+04  0.11819586001E+04  0.15294330000E+03 0.  1.
<mgrwt>
<rscale>  0 0.67951417E+03</rscale>
<asrwt>0</asrwt>
<pdfrwt beam="1">  1        1 0.24007353E+00 0.78124457E+03</pdfrwt>
<pdfrwt beam="2">  1       -1 0.19056202E+00 0.78124457E+03</pdfrwt>
<totfact> 0.10881947E+00</totfact>
</mgrwt>
</event>
<event>
 4    1  0.8114601E-008  0.8212434E+03  0.7818608E-02  0.9666616E-01
          1   -1    0    0  501    0  0.00000000000E+00  0.00000000000E+00  0.11340907847E+04  0.11340907847E+04  0.50400000000E-02 0. -1.
         -1   -1    0    0    0  501 -0.00000000000E+00 -0.00000000000E+00 -0.11399665968E+04  0.11399665968E+04  0.50400000000E-02 0.  1.
    8880023    1    1    2    0    0 -0.47606105212E+03  0.11830606923E+03  0.90882836033E+03  0.12249120973E+04  0.65864270000E+03 0. -1.
    8880022    1    1    2    0    0  0.47606105212E+03 -0.11830606923E+03 -0.91470417237E+03  0.10491452842E+04  0.15294330000E+03 0.  0.
<mgrwt>
<rscale>  0 0.73039693E+03</rscale>
<asrwt>0</asrwt>
<pdfrwt beam="1">  1        1 0.17447550E+00 0.82124336E+03</pdfrwt>
<pdfrwt beam="2">  1       -1 0.17537948E+00 0.82124336E+03</pdfrwt>
<totfact> 0.27657691E+00</totfact>
</mgrwt>
</event>
<event>
 4    1  0.8114601E-008  0.1514557E+04  0.7818608E-02  0.8899424E-01
         -1   -1    0    0    0  501 -0.00000000000E+00  0.00000000000E+00  0.13015360945E+04  0.13015360945E+04  0.50400000000E-02 0.  1.
          1   -1    0    0  501    0  0.00000000000E+00 -0.00000000000E+00 -0.22465595176E+04  0.22465595176E+04  0.50400000000E-02 0. -1.
    8880023    1    1    2    0    0 -0.13597975253E+04  0.10499732701E+03 -0.14393349078E+04  0.20893943935E+04  0.65864270000E+03 0. -1.
    8880022    1    1    2    0    0  0.13597975253E+04 -0.10499732701E+03  0.49431148459E+03  0.14587012186E+04  0.15294330000E+03 0.  0.
<mgrwt>
<rscale>  0 0.14776923E+04</rscale>
<asrwt>0</asrwt>
<pdfrwt beam="1">  1        1 0.34562454E+00 0.15145573E+04</pdfrwt>
<pdfrwt beam="2">  1       -1 0.20023632E+00 0.15145573E+04</pdfrwt>
<totfact> 0.28645963E-01</totfact>
</mgrwt>
</event>
<event>
 4    1  0.8114601E-008  0.1310884E+04  0.7818608E-02  0.9056218E-01
         -1   -1    0    0    0  501 -0.00000000000E+00  0.00000000000E+00  0.20565013177E+04  0.20565013177E+04  0.50400000000E-02 0.  1.
          1   -1    0    0  501    0  0.00000000000E+00 -0.00000000000E+00 -0.12389413129E+04  0.12389413129E+04  0.50400000000E-02 0. -1.
    8880023    1    1    2    0    0 -0.69242714422E+03  0.89730177147E+03 -0.62686998831E+03  0.14530595334E+04  0.65864270000E+03 0.  0.
    8880022    1    1    2    0    0  0.69242714422E+03 -0.89730177147E+03  0.14444299931E+04  0.18423830972E+04  0.15294330000E+03 0.  0.
<mgrwt>
<rscale>  0 0.12669194E+04</rscale>
<asrwt>0</asrwt>
<pdfrwt beam="1">  1        1 0.19060636E+00 0.13108837E+04</pdfrwt>
<pdfrwt beam="2">  1       -1 0.31638481E+00 0.13108837E+04</pdfrwt>
<totfact> 0.25105059E-01</totfact>
</mgrwt>
</event>
<event>
 4    1  0.8114601E-008  0.1547484E+04  0.7818608E-02  0.8876813E-01
         -1   -1    0    0    0  501 -0.00000000000E+00  0.00000000000E+00  0.24854843115E+04  0.24854843115E+04  0.50400000000E-02 0.  1.
          1   -1    0    0  501    0  0.00000000000E+00 -0.00000000000E+00 -0.14376714239E+04  0.14376714239E+04  0.50400000000E-02 0. -1.
    8880023    1    1    2    0    0 -0.20781072485E+03  0.13848149536E+04 -0.68304788524E+03  0.16915266397E+04  0.65864270000E+03 0. -1.
    8880022    1    1    2    0    0  0.20781072485E+03 -0.13848149536E+04  0.17308607729E+04  0.22316290957E+04  0.15294330000E+03 0.  0.
<mgrwt>
<rscale>  0 0.15115424E+04</rscale>
<asrwt>0</asrwt>
<pdfrwt beam="1">  1        1 0.22118022E+00 0.15474844E+04</pdfrwt>
<pdfrwt beam="2">  1       -1 0.38238220E+00 0.15474844E+04</pdfrwt>
<totfact> 0.64179755E-02</totfact>
</mgrwt>
</event>
<event>
 4    1  0.8114601E-008  0.1244375E+04  0.7818608E-02  0.9115149E-01
         -1   -1    0    0    0  501 -0.00000000000E+00  0.00000000000E+00  0.15725291646E+04  0.15725291647E+04  0.50400000000E-02 0.  1.
          1   -1    0    0  501    0  0.00000000000E+00 -0.00000000000E+00 -0.12374196325E+04  0.12374196326E+04  0.50400000000E-02 0. -1.
    8880023    1    1    2    0    0 -0.95481266773E+03 -0.45054684686E+03 -0.60897671877E+03  0.13853961679E+04  0.65864270000E+03 0.  0.
    8880022    1    1    2    0    0  0.95481266773E+03  0.45054684686E+03  0.94408625087E+03  0.14245526293E+04  0.15294330000E+03 0.  0.
<mgrwt>
<rscale>  0 0.11973849E+04</rscale>
<asrwt>0</asrwt>
<pdfrwt beam="1">  1        1 0.19037225E+00 0.12443753E+04</pdfrwt>
<pdfrwt beam="2">  1       -1 0.24192756E+00 0.12443753E+04</pdfrwt>
<totfact> 0.77082884E-01</totfact>
</mgrwt>
</event>
<event>
 4    1  0.8114601E-008  0.1108017E+04  0.7818608E-02  0.9252183E-01
         -1   -1    0    0    0  501 -0.00000000000E+00  0.00000000000E+00  0.14209805626E+04  0.14209805626E+04  0.50400000000E-02 0.  1.
          1   -1    0    0  501    0  0.00000000000E+00 -0.00000000000E+00 -0.15611316680E+04  0.15611316680E+04  0.50400000000E-02 0. -1.
    8880023    1    1    2    0    0  0.77791503369E+03  0.43444130692E+03 -0.11702439206E+04  0.16115744130E+04  0.65864270000E+03 0. -1.
    8880022    1    1    2    0    0 -0.77791503369E+03 -0.43444130692E+03  0.10300928152E+04  0.13705378177E+04  0.15294330000E+03 0.  0.
<mgrwt>
<rscale>  0 0.10530677E+04</rscale>
<asrwt>0</asrwt>
<pdfrwt beam="1">  1        1 0.24017410E+00 0.11080168E+04</pdfrwt>
<pdfrwt beam="2">  1       -1 0.21861240E+00 0.11080168E+04</pdfrwt>
<totfact> 0.66234560E-01</totfact>
</mgrwt>
</event>
<event>
 4    1  0.8114601E-008  0.1543403E+04  0.7818608E-02  0.8879581E-01
         -1   -1    0    0    0  501 -0.00000000000E+00  0.00000000000E+00  0.57411598948E+03  0.57411598950E+03  0.50400000000E-02 0.  1.
          1   -1    0    0  501    0  0.00000000000E+00 -0.00000000000E+00 -0.44681185825E+04  0.44681185825E+04  0.50400000000E-02 0. -1.
    8880023    1    1    2    0    0 -0.39051675887E+03 -0.13400663993E+04 -0.10387859048E+04  0.18604213651E+04  0.65864270000E+03 0.  0.
    8880022    1    1    2    0    0  0.39051675887E+03  0.13400663993E+04 -0.28552166883E+04  0.31818132069E+04  0.15294330000E+03 0.  0.
<mgrwt>
<rscale>  0 0.15073489E+04</rscale>
<asrwt>0</asrwt>
<pdfrwt beam="1">  1        1 0.68740284E+00 0.15434026E+04</pdfrwt>
<pdfrwt beam="2">  1       -1 0.88325540E-01 0.15434026E+04</pdfrwt>
<totfact> 0.42570591E-02</totfact>
</mgrwt>
</event>
<event>
 4    1  0.8114601E-008  0.1435349E+04  0.7818608E-02  0.8956691E-01
          1   -1    0    0  501    0  0.00000000000E+00  0.00000000000E+00  0.17883292256E+04  0.17883292257E+04  0.50400000000E-02 0. -1.
         -1   -1    0    0    0  501 -0.00000000000E+00 -0.00000000000E+00 -0.24791223068E+04  0.24791223069E+04  0.50400000000E-02 0.  1.
    8880023    1    1    2    0    0 -0.11794575012E+04 -0.48507454306E+03  0.12745810463E+04  0.19195792141E+04  0.65864270000E+03 0.  0.
    8880022    1    1    2    0    0  0.11794575012E+04  0.48507454306E+03 -0.19653741275E+04  0.23478723184E+04  0.15294330000E+03 0.  0.
<mgrwt>
<rscale>  0 0.13960385E+04</rscale>
<asrwt>0</asrwt>
<pdfrwt beam="1">  1        1 0.27512757E+00 0.14353493E+04</pdfrwt>
<pdfrwt beam="2">  1       -1 0.38140343E+00 0.14353493E+04</pdfrwt>
<totfact> 0.37891342E-02</totfact>
</mgrwt>
</event>
<event>
 4    1  0.8114601E-008  0.1563064E+04  0.7818608E-02  0.8866341E-01
          1   -1    0    0  501    0  0.00000000000E+00  0.00000000000E+00  0.17681391225E+04  0.17681391225E+04  0.50400000000E-02 0. -1.
         -1   -1    0    0    0  501 -0.00000000000E+00 -0.00000000000E+00 -0.21001598882E+04  0.21001598882E+04  0.50400000000E-02 0.  1.
    8880023    1    1    2    0    0 -0.12244465782E+03  0.14122207834E+04  0.10497385262E+04  0.18828492810E+04  0.65864270000E+03 0.  0.
    8880022    1    1    2    0    0  0.12244465782E+03 -0.14122207834E+04 -0.13817592920E+04  0.19854497297E+04  0.15294330000E+03 0.  0.
<mgrwt>
<rscale>  0 0.15275422E+04</rscale>
<asrwt>0</asrwt>
<pdfrwt beam="1">  1        1 0.27202140E+00 0.15630644E+04</pdfrwt>
<pdfrwt beam="2">  1       -1 0.32310152E+00 0.15630644E+04</pdfrwt>
<totfact> 0.93728339E-02</totfact>
</mgrwt>
</event>
<event>
 4    1  0.8114601E-008  0.7622361E+03  0.7818608E-02  0.9799353E-01
         -1   -1    0    0    0  501 -0.00000000000E+00  0.00000000000E+00  0.11125908746E+04  0.11125908746E+04  0.50400000000E-02 0.  1.
          1   -1    0    0  501    0  0.00000000000E+00 -0.00000000000E+00 -0.78900570067E+03  0.78900570069E+03  0.50400000000E-02 0. -1.
    8880023    1    1    2    0    0 -0.34973522528E+03  0.15773054086E+03 -0.54687280559E+03  0.93812244567E+03  0.65864270000E+03 0. -1.
    8880022    1    1    2    0    0  0.34973522528E+03 -0.15773054086E+03  0.87045797949E+03  0.96347412959E+03  0.15294330000E+03 0.  0.
<mgrwt>
<rscale>  0 0.65397302E+03</rscale>
<asrwt>0</asrwt>
<pdfrwt beam="1">  1        1 0.12138549E+00 0.76223609E+03</pdfrwt>
<pdfrwt beam="2">  1       -1 0.17116783E+00 0.76223609E+03</pdfrwt>
<totfact> 0.56339111E+00</totfact>
</mgrwt>
</event>
<event>
 4    1  0.8114601E-008  0.7623257E+03  0.7818608E-02  0.9799123E-01
         -1   -1    0    0    0  501 -0.00000000000E+00  0.00000000000E+00  0.25809721004E+03  0.25809721009E+03  0.50400000000E-02 0.  1.
          1   -1    0    0  501    0  0.00000000000E+00 -0.00000000000E+00 -0.30608398888E+04  0.30608398888E+04  0.50400000000E-02 0. -1.
    8880023    1    1    2    0    0  0.27540563618E+03  0.26736124001E+03 -0.28039692281E+04  0.29057501502E+04  0.65864270000E+03 0. -1.
    8880022    1    1    2    0    0 -0.27540563618E+03 -0.26736124001E+03  0.12265493567E+01  0.41318694865E+03  0.15294330000E+03 0.  0.
<mgrwt>
<rscale>  0 0.65409616E+03</rscale>
<asrwt>0</asrwt>
<pdfrwt beam="1">  1        1 0.47089842E+00 0.76232572E+03</pdfrwt>
<pdfrwt beam="2">  1       -1 0.39707265E-01 0.76232572E+03</pdfrwt>
<totfact> 0.35602501E+00</totfact>
</mgrwt>
</event>
<event>
 4    1  0.8114601E-008  0.1810003E+04  0.7818608E-02  0.8717023E-01
         -1   -1    0    0    0  501 -0.00000000000E+00  0.00000000000E+00  0.18119564743E+04  0.18119564743E+04  0.50400000000E-02 0.  1.
          1   -1    0    0  501    0  0.00000000000E+00 -0.00000000000E+00 -0.20512627652E+04  0.20512627652E+04  0.50400000000E-02 0. -1.
    8880023    1    1    2    0    0 -0.14854951815E+04 -0.79724888906E+03  0.68403044467E+03  0.19349443354E+04  0.65864270000E+03 0.  0.
    8880022    1    1    2    0    0  0.14854951815E+04  0.79724888906E+03 -0.92333673561E+03  0.19282749041E+04  0.15294330000E+03 0.  0.
<mgrwt>
<rscale>  0 0.17799723E+04</rscale>
<asrwt>0</asrwt>
<pdfrwt beam="1">  1        1 0.31557889E+00 0.18100033E+04</pdfrwt>
<pdfrwt beam="2">  1       -1 0.27876253E+00 0.18100033E+04</pdfrwt>
<totfact> 0.11346879E-01</totfact>
</mgrwt>
</event>
<event>
 4    1  0.8114601E-008  0.1442725E+04  0.7818608E-02  0.8951176E-01
         -1   -1    0    0    0  501 -0.00000000000E+00  0.00000000000E+00  0.25326504640E+04  0.25326504640E+04  0.50400000000E-02 0.  1.
          1   -1    0    0  501    0  0.00000000000E+00 -0.00000000000E+00 -0.12985549987E+04  0.12985549987E+04  0.50400000000E-02 0. -1.
    8880023    1    1    2    0    0  0.30069647507E+03  0.12478887476E+04 -0.62054029396E+03  0.15705174813E+04  0.65864270000E+03 0. -1.
    8880022    1    1    2    0    0 -0.30069647507E+03 -0.12478887476E+04  0.18546357593E+04  0.22606879814E+04  0.15294330000E+03 0.  0.
<mgrwt>
<rscale>  0 0.14036566E+04</rscale>
<asrwt>0</asrwt>
<pdfrwt beam="1">  1        1 0.19977770E+00 0.14427248E+04</pdfrwt>
<pdfrwt beam="2">  1       -1 0.38963853E+00 0.14427248E+04</pdfrwt>
<totfact> 0.72957465E-02</totfact>
</mgrwt>
</event>
<event>
 4    1  0.8114601E-008  0.9665952E+03  0.7818608E-02  0.9426629E-01
          1   -1    0    0  501    0  0.00000000000E+00  0.00000000000E+00  0.21206323063E+04  0.21206323063E+04  0.50400000000E-02 0. -1.
         -1   -1    0    0    0  501 -0.00000000000E+00 -0.00000000000E+00 -0.43708076919E+03  0.43708076922E+03  0.50400000000E-02 0.  1.
    8880023    1    1    2    0    0 -0.17642562644E+03 -0.68510584523E+03  0.15424442570E+04  0.18202858328E+04  0.65864270000E+03 0.  0.
    8880022    1    1    2    0    0  0.17642562644E+03  0.68510584523E+03  0.14110728013E+03  0.73742724276E+03  0.15294330000E+03 0.  0.
<mgrwt>
<rscale>  0 0.89916261E+03</rscale>
<asrwt>0</asrwt>
<pdfrwt beam="1">  1        1 0.32625112E+00 0.96659517E+03</pdfrwt>
<pdfrwt beam="2">  1       -1 0.67243196E-01 0.96659517E+03</pdfrwt>
<totfact> 0.56236692E+00</totfact>
</mgrwt>
</event>
<event>
 4    1  0.8114601E-008  0.1419764E+04  0.7818608E-02  0.8968476E-01
          1   -1    0    0  501    0  0.00000000000E+00  0.00000000000E+00  0.23867140329E+04  0.23867140329E+04  0.50400000000E-02 0. -1.
         -1   -1    0    0    0  501 -0.00000000000E+00 -0.00000000000E+00 -0.10946878555E+04  0.10946878555E+04  0.50400000000E-02 0.  1.
    8880023    1    1    2    0    0  0.57749554440E+03  0.11173264935E+04  0.16383339189E+04  0.21679178566E+04  0.65864270000E+03 0.  0.
    8880022    1    1    2    0    0 -0.57749554440E+03 -0.11173264935E+04 -0.34630774150E+03  0.13134840318E+04  0.15294330000E+03 0.  0.
<mgrwt>
<rscale>  0 0.13799299E+04</rscale>
<asrwt>0</asrwt>
<pdfrwt beam="1">  1        1 0.36718677E+00 0.14197640E+04</pdfrwt>
<pdfrwt beam="2">  1       -1 0.16841352E+00 0.14197640E+04</pdfrwt>
<totfact> 0.39246434E-01</totfact>
</mgrwt>
</event>
<event>
 4    1  0.8114601E-008  0.7233638E+03  0.7818608E-02  0.9911364E-01
         -1   -1    0    0    0  501 -0.00000000000E+00  0.00000000000E+00  0.18919493926E+04  0.18919493926E+04  0.50400000000E-02 0.  1.
          1   -1    0    0  501    0  0.00000000000E+00 -0.00000000000E+00 -0.15315500495E+03  0.15315500504E+03  0.50400000000E-02 0. -1.
    8880023    1    1    2    0    0  0.10428822119E+03  0.28030158686E+03  0.10068364510E+04  0.12397479010E+04  0.65864270000E+03 0. -1.
    8880022    1    1    2    0    0 -0.10428822119E+03 -0.28030158686E+03  0.73195793663E+03  0.80535649664E+03  0.15294330000E+03 0. -1.
<mgrwt>
<rscale>  0 0.59713684E+03</rscale>
<asrwt>0</asrwt>
<pdfrwt beam="1">  1        1 0.23562308E-01 0.72336382E+03</pdfrwt>
<pdfrwt beam="2">  1       -1 0.29106914E+00 0.72336382E+03</pdfrwt>
<totfact> 0.83222060E+00</totfact>
</mgrwt>
</event>
<event>
 4    1  0.8114601E-008  0.7381392E+03  0.7818608E-02  0.9865401E-01
          1   -1    0    0  501    0  0.00000000000E+00  0.00000000000E+00  0.76089912753E+03  0.76089912755E+03  0.50400000000E-02 0. -1.
         -1   -1    0    0    0  501 -0.00000000000E+00 -0.00000000000E+00 -0.46107155490E+03  0.46107155493E+03  0.50400000000E-02 0.  1.
    8880023    1    1    2    0    0  0.33276877971E+03 -0.17441232246E+02  0.40312842376E+03  0.84104814942E+03  0.65864270000E+03 0.  0.
    8880022    1    1    2    0    0 -0.33276877971E+03  0.17441232246E+02 -0.10330085113E+03  0.38092253306E+03  0.15294330000E+03 0.  0.
<mgrwt>
<rscale>  0 0.61967802E+03</rscale>
<asrwt>0</asrwt>
<pdfrwt beam="1">  1        1 0.11706140E+00 0.73813919E+03</pdfrwt>
<pdfrwt beam="2">  1       -1 0.70934086E-01 0.73813919E+03</pdfrwt>
<totfact> 0.49218755E+01</totfact>
</mgrwt>
</event>
<event>
 4    1  0.8114601E-008  0.1016008E+04  0.7818608E-02  0.9360907E-01
         -1   -1    0    0    0  501 -0.00000000000E+00  0.00000000000E+00  0.10073211876E+04  0.10073211876E+04  0.50400000000E-02 0.  1.
          1   -1    0    0  501    0  0.00000000000E+00 -0.00000000000E+00 -0.11098365449E+04  0.11098365449E+04  0.50400000000E-02 0. -1.
    8880023    1    1    2    0    0  0.77327889346E+03 -0.22412564011E+02 -0.60461585021E+03  0.11822999208E+04  0.65864270000E+03 0. -1.
    8880022    1    1    2    0    0 -0.77327889346E+03  0.22412564011E+02  0.50210049297E+03  0.93485781173E+03  0.15294330000E+03 0.  0.
<mgrwt>
<rscale>  0 0.95363899E+03</rscale>
<asrwt>0</asrwt>
<pdfrwt beam="1">  1        1 0.17074408E+00 0.10160083E+04</pdfrwt>
<pdfrwt beam="2">  1       -1 0.15497249E+00 0.10160083E+04</pdfrwt>
<totfact> 0.39841476E+00</totfact>
</mgrwt>
</event>
<event>
 4    1  0.8114601E-008  0.7334820E+03  0.7818608E-02  0.9879357E-01
          1   -1    0    0  501    0  0.00000000000E+00  0.00000000000E+00  0.95736816643E+03  0.95736816644E+03  0.50400000000E-02 0. -1.
         -1   -1    0    0    0  501 -0.00000000000E+00 -0.00000000000E+00 -0.78836799218E+03  0.78836799220E+03  0.50400000000E-02 0.  1.
    8880023    1    1    2    0    0 -0.20933195270E+03  0.24569432832E+03  0.75934570747E+03  0.10557469768E+04  0.65864270000E+03 0. -1.
    8880022    1    1    2    0    0  0.20933195270E+03 -0.24569432832E+03 -0.59034553322E+03  0.68998918180E+03  0.15294330000E+03 0.  0.
<mgrwt>
<rscale>  0 0.61272234E+03</rscale>
<asrwt>0</asrwt>
<pdfrwt beam="1">  1        1 0.14728741E+00 0.73348195E+03</pdfrwt>
<pdfrwt beam="2">  1       -1 0.12128738E+00 0.73348195E+03</pdfrwt>
<totfact> 0.10200682E+01</totfact>
</mgrwt>
</event>
<event>
 4    1  0.8114601E-008  0.7398934E+03  0.7818608E-02  0.9860258E-01
          1   -1    0    0  501    0  0.00000000000E+00  0.00000000000E+00  0.19237726851E+04  0.19237726851E+04  0.50400000000E-02 0. -1.
         -1   -1    0    0    0  501 -0.00000000000E+00 -0.00000000000E+00 -0.23178940518E+03  0.23178940524E+03  0.50400000000E-02 0.  1.
    8880023    1    1    2    0    0 -0.33675292002E+03 -0.15150660562E+02  0.16164909292E+04  0.17777753519E+04  0.65864270000E+03 0.  0.
    8880022    1    1    2    0    0  0.33675292002E+03  0.15150660562E+02  0.75492350739E+02  0.37778673838E+03  0.15294330000E+03 0.  0.
<mgrwt>
<rscale>  0 0.62226639E+03</rscale>
<asrwt>0</asrwt>
<pdfrwt beam="1">  1        1 0.29596502E+00 0.73989342E+03</pdfrwt>
<pdfrwt beam="2">  1       -1 0.35659910E-01 0.73989342E+03</pdfrwt>
<totfact> 0.26174882E+01</totfact>
</mgrwt>
</event>
<event>
 4    1  0.8114601E-008  0.1164973E+04  0.7818608E-02  0.9191947E-01
          1   -1    0    0  501    0  0.00000000000E+00  0.00000000000E+00  0.20442428048E+04  0.20442428048E+04  0.50400000000E-02 0. -1.
         -1   -1    0    0    0  501 -0.00000000000E+00 -0.00000000000E+00 -0.61803950820E+03  0.61803950822E+03  0.50400000000E-02 0.  1.
    8880023    1    1    2    0    0  0.20855590359E+03  0.93800600082E+03  0.11809204590E+04  0.16588351814E+04  0.65864270000E+03 0.  0.
    8880022    1    1    2    0    0 -0.20855590359E+03 -0.93800600082E+03  0.24528283768E+03  0.10034471316E+04  0.15294330000E+03 0.  0.
<mgrwt>
<rscale>  0 0.11136937E+04</rscale>
<asrwt>0</asrwt>
<pdfrwt beam="1">  1        1 0.31449889E+00 0.11649725E+04</pdfrwt>
<pdfrwt beam="2">  1       -1 0.95083002E-01 0.11649725E+04</pdfrwt>
<totfact> 0.29446739E+00</totfact>
</mgrwt>
</event>
<event>
 4    1  0.8114601E-008  0.7136946E+03  0.7818608E-02  0.9944529E-01
          1   -1    0    0  501    0  0.00000000000E+00  0.00000000000E+00  0.37910790736E+03  0.37910790739E+03  0.50400000000E-02 0. -1.
         -1   -1    0    0    0  501 -0.00000000000E+00 -0.00000000000E+00 -0.11304650403E+04  0.11304650403E+04  0.50400000000E-02 0.  1.
    8880023    1    1    2    0    0 -0.20908545565E+03 -0.17841820825E+03 -0.20598679087E+02  0.71399180432E+03  0.65864270000E+03 0. -1.
    8880022    1    1    2    0    0  0.20908545565E+03  0.17841820825E+03 -0.73075845382E+03  0.79558114335E+03  0.15294330000E+03 0.  0.
<mgrwt>
<rscale>  0 0.58150920E+03</rscale>
<asrwt>0</asrwt>
<pdfrwt beam="1">  1        1 0.58324294E-01 0.71369461E+03</pdfrwt>
<pdfrwt beam="2">  1       -1 0.17391770E+00 0.71369461E+03</pdfrwt>
<totfact> 0.15316778E+01</totfact>
</mgrwt>
</event>
<event>
 4    1  0.8114601E-008  0.8585198E+03  0.7818608E-02  0.9596202E-01
         -1   -1    0    0    0  501 -0.00000000000E+00  0.00000000000E+00  0.96541350226E+03  0.96541350228E+03  0.50400000000E-02 0.  1.
          1   -1    0    0  501    0  0.00000000000E+00 -0.00000000000E+00 -0.12047841821E+04  0.12047841821E+04  0.50400000000E-02 0. -1.
    8880023    1    1    2    0    0 -0.35406604538E+03  0.42176204945E+03 -0.93535540176E+03  0.12696243242E+04  0.65864270000E+03 0. -1.
    8880022    1    1    2    0    0  0.35406604538E+03 -0.42176204945E+03  0.69598472192E+03  0.90057336015E+03  0.15294330000E+03 0.  0.
<mgrwt>
<rscale>  0 0.77548072E+03</rscale>
<asrwt>0</asrwt>
<pdfrwt beam="1">  1        1 0.18535141E+00 0.85851977E+03</pdfrwt>
<pdfrwt beam="2">  1       -1 0.14852516E+00 0.85851977E+03</pdfrwt>
<totfact> 0.38831779E+00</totfact>
</mgrwt>
</event>
<event>
 4    1  0.8114601E-008  0.1059163E+04  0.7818608E-02  0.9307946E-01
         -1   -1    0    0    0  501 -0.00000000000E+00  0.00000000000E+00  0.70148437718E+03  0.70148437719E+03  0.50400000000E-02 0.  1.
          1   -1    0    0  501    0  0.00000000000E+00 -0.00000000000E+00 -0.28550307080E+04  0.28550307080E+04  0.50400000000E-02 0. -1.
    8880023    1    1    2    0    0 -0.40273908392E+03  0.72513288725E+03 -0.24446576139E+04  0.26642405164E+04  0.65864270000E+03 0.  0.
    8880022    1    1    2    0    0  0.40273908392E+03 -0.72513288725E+03  0.29111128309E+03  0.89227456876E+03  0.15294330000E+03 0.  0.
<mgrwt>
<rscale>  0 0.10005459E+04</rscale>
<asrwt>0</asrwt>
<pdfrwt beam="1">  1        1 0.43923549E+00 0.10591632E+04</pdfrwt>
<pdfrwt beam="2">  1       -1 0.10792068E+00 0.10591632E+04</pdfrwt>
<totfact> 0.61668020E-01</totfact>
</mgrwt>
</event>
<event>
 4    1  0.8114601E-008  0.1273690E+04  0.7818608E-02  0.9088620E-01
         -1   -1    0    0    0  501 -0.00000000000E+00  0.00000000000E+00  0.64615650320E+03  0.64615650321E+03  0.50400000000E-02 0.  1.
          1   -1    0    0  501    0  0.00000000000E+00 -0.00000000000E+00 -0.24310991648E+04  0.24310991648E+04  0.50400000000E-02 0. -1.
    8880023    1    1    2    0    0 -0.34238589878E+03  0.10350112998E+04 -0.14425712055E+04  0.19243955892E+04  0.65864270000E+03 0.  0.
    8880022    1    1    2    0    0  0.34238589878E+03 -0.10350112998E+04 -0.34237145616E+03  0.11528600789E+04  0.15294330000E+03 0.  0.
<mgrwt>
<rscale>  0 0.12280888E+04</rscale>
<asrwt>0</asrwt>
<pdfrwt beam="1">  1        1 0.37401525E+00 0.12736902E+04</pdfrwt>
<pdfrwt beam="2">  1       -1 0.99408694E-01 0.12736902E+04</pdfrwt>
<totfact> 0.14325929E+00</totfact>
</mgrwt>
</event>
<event>
 4    1  0.8114601E-008  0.1105099E+04  0.7818608E-02  0.9255400E-01
          1   -1    0    0  501    0  0.00000000000E+00  0.00000000000E+00  0.33810072721E+04  0.33810072721E+04  0.50400000000E-02 0. -1.
         -1   -1    0    0    0  501 -0.00000000000E+00 -0.00000000000E+00 -0.68877857355E+03  0.68877857357E+03  0.50400000000E-02 0.  1.
    8880023    1    1    2    0    0  0.68681790118E+03 -0.56188567757E+03  0.29358518134E+04  0.31369524097E+04  0.65864270000E+03 0.  0.
    8880022    1    1    2    0    0 -0.68681790118E+03  0.56188567757E+03 -0.24362311492E+03  0.93283343593E+03  0.15294330000E+03 0.  0.
<mgrwt>
<rscale>  0 0.10499460E+04</rscale>
<asrwt>0</asrwt>
<pdfrwt beam="1">  1        1 0.52015497E+00 0.11050993E+04</pdfrwt>
<pdfrwt beam="2">  1       -1 0.10596593E+00 0.11050993E+04</pdfrwt>
<totfact> 0.26235413E-01</totfact>
</mgrwt>
</event>
<event>
 4    1  0.8114601E-008  0.8101991E+03  0.7818608E-02  0.9689162E-01
          1   -1    0    0  501    0  0.00000000000E+00  0.00000000000E+00  0.95332824902E+03  0.95332824903E+03  0.50400000000E-02 0. -1.
         -1   -1    0    0    0  501 -0.00000000000E+00 -0.00000000000E+00 -0.45105437260E+03  0.45105437263E+03  0.50400000000E-02 0.  1.
    8880023    1    1    2    0    0  0.45525691203E+03 -0.12390919896E+03  0.24980426229E+03  0.84783531494E+03  0.65864270000E+03 0.  1.
    8880022    1    1    2    0    0 -0.45525691203E+03  0.12390919896E+03  0.25246961414E+03  0.55654730672E+03  0.15294330000E+03 0. -1.
<mgrwt>
<rscale>  0 0.71665739E+03</rscale>
<asrwt>0</asrwt>
<pdfrwt beam="1">  1        1 0.14666588E+00 0.81019908E+03</pdfrwt>
<pdfrwt beam="2">  1       -1 0.69392981E-01 0.81019908E+03</pdfrwt>
<totfact> 0.35278658E+01</totfact>
</mgrwt>
</event>
<event>
 4    1  0.8114601E-008  0.1122706E+04  0.7818608E-02  0.9236188E-01
         -1   -1    0    0    0  501 -0.00000000000E+00  0.00000000000E+00  0.15878132792E+04  0.15878132792E+04  0.50400000000E-02 0.  1.
          1   -1    0    0  501    0  0.00000000000E+00 -0.00000000000E+00 -0.11152002957E+04  0.11152002958E+04  0.50400000000E-02 0. -1.
    8880023    1    1    2    0    0 -0.55840981601E+03  0.71752091167E+03 -0.61265175820E+03  0.12789879454E+04  0.65864270000E+03 0. -1.
    8880022    1    1    2    0    0  0.55840981601E+03 -0.71752091167E+03  0.10852647417E+04  0.14240256296E+04  0.15294330000E+03 0.  0.
<mgrwt>
<rscale>  0 0.10687594E+04</rscale>
<asrwt>0</asrwt>
<pdfrwt beam="1">  1        1 0.17156928E+00 0.11227057E+04</pdfrwt>
<pdfrwt beam="2">  1       -1 0.24427896E+00 0.11227057E+04</pdfrwt>
<totfact> 0.93008983E-01</totfact>
</mgrwt>
</event>
<event>
 4    1  0.8114601E-008  0.9795082E+03  0.7818608E-02  0.9408872E-01
          1   -1    0    0  501    0  0.00000000000E+00  0.00000000000E+00  0.19873307581E+04  0.19873307581E+04  0.50400000000E-02 0. -1.
         -1   -1    0    0    0  501 -0.00000000000E+00 -0.00000000000E+00 -0.46531652287E+03  0.46531652289E+03  0.50400000000E-02 0.  1.
    8880023    1    1    2    0    0  0.62238505308E+03  0.37183721400E+03  0.13893293702E+04  0.16999036364E+04  0.65864270000E+03 0.  0.
    8880022    1    1    2    0    0 -0.62238505308E+03 -0.37183721400E+03  0.13268486505E+03  0.75274364457E+03  0.15294330000E+03 0.  0.
<mgrwt>
<rscale>  0 0.91349115E+03</rscale>
<asrwt>0</asrwt>
<pdfrwt beam="1">  1        1 0.30574319E+00 0.97950818E+03</pdfrwt>
<pdfrwt beam="2">  1       -1 0.71587157E-01 0.97950818E+03</pdfrwt>
<totfact> 0.60709039E+00</totfact>
</mgrwt>
</event>
<event>
 4    1  0.8114601E-008  0.7903071E+03  0.7818608E-02  0.9732160E-01
         -1   -1    0    0    0  501 -0.00000000000E+00  0.00000000000E+00  0.95171602061E+03  0.95171602062E+03  0.50400000000E-02 0.  1.
          1   -1    0    0  501    0  0.00000000000E+00 -0.00000000000E+00 -0.70837345877E+03  0.70837345879E+03  0.50400000000E-02 0. -1.
    8880023    1    1    2    0    0 -0.30297617454E+03 -0.31461173029E+03 -0.38549920251E+03  0.87931504285E+03  0.65864270000E+03 0. -1.
    8880022    1    1    2    0    0  0.30297617454E+03  0.31461173029E+03  0.62884176435E+03  0.78077443656E+03  0.15294330000E+03 0.  0.
<mgrwt>
<rscale>  0 0.69133878E+03</rscale>
<asrwt>0</asrwt>
<pdfrwt beam="1">  1        1 0.10898053E+00 0.79030710E+03</pdfrwt>
<pdfrwt beam="2">  1       -1 0.14641785E+00 0.79030710E+03</pdfrwt>
<totfact> 0.10213511E+01</totfact>
</mgrwt>
</event>
<event>
 4    1  0.8114601E-008  0.1635713E+04  0.7818608E-02  0.8819310E-01
          1   -1    0    0  501    0  0.00000000000E+00  0.00000000000E+00  0.27871884329E+04  0.27871884329E+04  0.50400000000E-02 0. -1.
         -1   -1    0    0    0  501 -0.00000000000E+00 -0.00000000000E+00 -0.15084574362E+04  0.15084574362E+04  0.50400000000E-02 0.  1.
    8880023    1    1    2    0    0  0.71867780686E+03 -0.13134876207E+04 -0.72537574903E+03  0.17893372246E+04  0.65864270000E+03 0.  0.
    8880022    1    1    2    0    0 -0.71867780686E+03  0.13134876207E+04  0.20041067458E+04  0.25063086444E+04  0.15294330000E+03 0.  0.
<mgrwt>
<rscale>  0 0.16020174E+04</rscale>
<asrwt>0</asrwt>
<pdfrwt beam="1">  1        1 0.42879822E+00 0.16357132E+04</pdfrwt>
<pdfrwt beam="2">  1       -1 0.23207038E+00 0.16357132E+04</pdfrwt>
<totfact> 0.72278148E-02</totfact>
</mgrwt>
</event>
<event>
 4    1  0.8114601E-008  0.1154521E+04  0.7818608E-02  0.9202652E-01
         -1   -1    0    0    0  501 -0.00000000000E+00  0.00000000000E+00  0.74786100402E+03  0.74786100404E+03  0.50400000000E-02 0.  1.
          1   -1    0    0  501    0  0.00000000000E+00 -0.00000000000E+00 -0.15743133460E+04  0.15743133460E+04  0.50400000000E-02 0. -1.
    8880023    1    1    2    0    0  0.34988887776E+03  0.88129748020E+03 -0.70827426623E+03  0.13544630367E+04  0.65864270000E+03 0. -1.
    8880022    1    1    2    0    0 -0.34988887776E+03 -0.88129748020E+03 -0.11817807578E+03  0.96771131335E+03  0.15294330000E+03 0.  0.
<mgrwt>
<rscale>  0 0.11026102E+04</rscale>
<asrwt>0</asrwt>
<pdfrwt beam="1">  1        1 0.24220205E+00 0.11545205E+04</pdfrwt>
<pdfrwt beam="2">  1       -1 0.11505554E+00 0.11545205E+04</pdfrwt>
<totfact> 0.39371554E+00</totfact>
</mgrwt>
</event>
<event>
 4    1  0.8114601E-008  0.1181569E+04  0.7818608E-02  0.9175250E-01
         -1   -1    0    0    0  501 -0.00000000000E+00  0.00000000000E+00  0.94555978723E+03  0.94555978725E+03  0.50400000000E-02 0.  1.
          1   -1    0    0  501    0  0.00000000000E+00 -0.00000000000E+00 -0.19325345501E+04  0.19325345501E+04  0.50400000000E-02 0. -1.
    8880023    1    1    2    0    0  0.63973755313E+03 -0.74365996024E+03 -0.13742962623E+04  0.18124002583E+04  0.65864270000E+03 0.  0.
    8880022    1    1    2    0    0 -0.63973755313E+03  0.74365996024E+03  0.38732149940E+03  0.10656940791E+04  0.15294330000E+03 0.  0.
<mgrwt>
<rscale>  0 0.11312577E+04</rscale>
<asrwt>0</asrwt>
<pdfrwt beam="1">  1        1 0.29731301E+00 0.11815687E+04</pdfrwt>
<pdfrwt beam="2">  1       -1 0.14547074E+00 0.11815687E+04</pdfrwt>
<totfact> 0.12355308E+00</totfact>
</mgrwt>
</event>
<event>
 4    1  0.8114601E-008  0.2085214E+04  0.7818608E-02  0.8579283E-01
         -1   -1    0    0    0  501 -0.00000000000E+00  0.00000000000E+00  0.17268261240E+04  0.17268261240E+04  0.50400000000E-02 0.  1.
          1   -1    0    0  501    0  0.00000000000E+00 -0.00000000000E+00 -0.28291994924E+04  0.28291994924E+04  0.50400000000E-02 0. -1.
    8880023    1    1    2    0    0  0.71392142375E+03  0.18451625235E+04  0.32667275580E+03  0.21106477283E+04  0.65864270000E+03 0.  0.
    8880022    1    1    2    0    0 -0.71392142375E+03 -0.18451625235E+04 -0.14290461242E+04  0.24453778881E+04  0.15294330000E+03 0.  0.
<mgrwt>
<rscale>  0 0.20595311E+04</rscale>
<asrwt>0</asrwt>
<pdfrwt beam="1">  1        1 0.43526146E+00 0.20852143E+04</pdfrwt>
<pdfrwt beam="2">  1       -1 0.26566556E+00 0.20852143E+04</pdfrwt>
<totfact> 0.38571232E-02</totfact>
</mgrwt>
</event>
<event>
 4    1  0.8114601E-008  0.1245889E+04  0.7818608E-02  0.9113756E-01
         -1   -1    0    0    0  501 -0.00000000000E+00  0.00000000000E+00  0.14270824121E+04  0.14270824121E+04  0.50400000000E-02 0.  1.
          1   -1    0    0  501    0  0.00000000000E+00 -0.00000000000E+00 -0.10921939362E+04  0.10921939362E+04  0.50400000000E-02 0. -1.
    8880023    1    1    2    0    0 -0.78228383480E+03 -0.71166147600E+03 -0.29302254360E+03  0.12798837728E+04  0.65864270000E+03 0.  0.
    8880022    1    1    2    0    0  0.78228383480E+03  0.71166147600E+03  0.62791101952E+03  0.12393925754E+04  0.15294330000E+03 0.  0.
<mgrwt>
<rscale>  0 0.11989730E+04</rscale>
<asrwt>0</asrwt>
<pdfrwt beam="1">  1        1 0.16802984E+00 0.12458893E+04</pdfrwt>
<pdfrwt beam="2">  1       -1 0.21955114E+00 0.12458893E+04</pdfrwt>
<totfact> 0.13895506E+00</totfact>
</mgrwt>
</event>
<event>
 4    1  0.8114601E-008  0.6889312E+03  0.7818608E-02  0.1004665E+00
         -1   -1    0    0    0  501 -0.00000000000E+00  0.00000000000E+00  0.73802957761E+03  0.73802957763E+03  0.50400000000E-02 0.  1.
          1   -1    0    0  501    0  0.00000000000E+00 -0.00000000000E+00 -0.72567275342E+03  0.72567275344E+03  0.50400000000E-02 0. -1.
    8880023    1    1    2    0    0 -0.17157800269E+03 -0.10666312743E+03 -0.52726719634E+03  0.86754650386E+03  0.65864270000E+03 0.  0.
    8880022    1    1    2    0    0  0.17157800269E+03  0.10666312743E+03  0.53962402053E+03  0.59615582720E+03  0.15294330000E+03 0.  0.
<mgrwt>
<rscale>  0 0.53651304E+03</rscale>
<asrwt>0</asrwt>
<pdfrwt beam="1">  1        1 0.11164196E+00 0.68893123E+03</pdfrwt>
<pdfrwt beam="2">  1       -1 0.11354301E+00 0.68893123E+03</pdfrwt>
<totfact> 0.18882666E+01</totfact>
</mgrwt>
</event>
<event>
 4    1  0.8114601E-008  0.1054076E+04  0.7818608E-02  0.9313998E-01
          1   -1    0    0  501    0  0.00000000000E+00  0.00000000000E+00  0.28588208266E+04  0.28588208266E+04  0.50400000000E-02 0. -1.
         -1   -1    0    0    0  501 -0.00000000000E+00 -0.00000000000E+00 -0.40181804394E+03  0.40181804397E+03  0.50400000000E-02 0.  1.
    8880023    1    1    2    0    0  0.80693430865E+03  0.16162586974E+03  0.21018654607E+04  0.23513643957E+04  0.65864270000E+03 0.  0.
    8880022    1    1    2    0    0 -0.80693430865E+03 -0.16162586974E+03  0.35513732201E+03  0.90927447492E+03  0.15294330000E+03 0.  0.
<mgrwt>
<rscale>  0 0.99504370E+03</rscale>
<asrwt>0</asrwt>
<pdfrwt beam="1">  1        1 0.43981859E+00 0.10540759E+04</pdfrwt>
<pdfrwt beam="2">  1       -1 0.61818161E-01 0.10540759E+04</pdfrwt>
<totfact> 0.20420191E+00</totfact>
</mgrwt>
</event>
<event>
 4    1  0.8114601E-008  0.6692215E+03  0.7818608E-02  0.1016227E+00
          1   -1    0    0  501    0  0.00000000000E+00  0.00000000000E+00  0.11023312108E+04  0.11023312108E+04  0.50400000000E-02 0. -1.
         -1   -1    0    0    0  501 -0.00000000000E+00 -0.00000000000E+00 -0.34225965446E+03  0.34225965449E+03  0.50400000000E-02 0.  1.
    8880023    1    1    2    0    0 -0.60427856177E+02  0.10195944770E+03  0.95747821298E+03  0.11681703597E+04  0.65864270000E+03 0. -1.
    8880022    1    1    2    0    0  0.60427856177E+02 -0.10195944770E+03 -0.19740665666E+03  0.27642050554E+03  0.15294330000E+03 0.  0.
<mgrwt>
<rscale>  0 0.49073025E+03</rscale>
<asrwt>0</asrwt>
<pdfrwt beam="1">  1        1 0.16958942E+00 0.66922153E+03</pdfrwt>
<pdfrwt beam="2">  1       -1 0.52655330E-01 0.66922153E+03</pdfrwt>
<totfact> 0.47469220E+01</totfact>
</mgrwt>
</event>
<event>
 4    1  0.8114601E-008  0.1346851E+04  0.7818608E-02  0.9026121E-01
         -1   -1    0    0    0  501 -0.00000000000E+00  0.00000000000E+00  0.62852058936E+03  0.62852058938E+03  0.50400000000E-02 0.  1.
          1   -1    0    0  501    0  0.00000000000E+00 -0.00000000000E+00 -0.30998548024E+04  0.30998548024E+04  0.50400000000E-02 0. -1.
    8880023    1    1    2    0    0  0.11700137520E+04  0.10613754699E+03 -0.20851152816E+04  0.24822798599E+04  0.65864270000E+03 0.  0.
    8880022    1    1    2    0    0 -0.11700137520E+04 -0.10613754699E+03 -0.38621893140E+03  0.12460955319E+04  0.15294330000E+03 0.  0.
<mgrwt>
<rscale>  0 0.13043515E+04</rscale>
<asrwt>0</asrwt>
<pdfrwt beam="1">  1        1 0.47690073E+00 0.13468510E+04</pdfrwt>
<pdfrwt beam="2">  1       -1 0.96695477E-01 0.13468510E+04</pdfrwt>
<totfact> 0.50802632E-01</totfact>
</mgrwt>
</event>
<event>
 4    1  0.8114601E-008  0.8016954E+03  0.7818608E-02  0.9707142E-01
         -1   -1    0    0    0  501 -0.00000000000E+00  0.00000000000E+00  0.10188954355E+04  0.10188954355E+04  0.50400000000E-02 0.  1.
          1   -1    0    0  501    0  0.00000000000E+00 -0.00000000000E+00 -0.17890641957E+04  0.17890641957E+04  0.50400000000E-02 0. -1.
    8880023    1    1    2    0    0 -0.38998525842E+03 -0.23836264793E+03 -0.16332618475E+04  0.18194119166E+04  0.65864270000E+03 0. -1.
    8880022    1    1    2    0    0  0.38998525842E+03  0.23836264793E+03  0.86309308727E+03  0.98854771459E+03  0.15294330000E+03 0.  0.
<mgrwt>
<rscale>  0 0.70593133E+03</rscale>
<asrwt>0</asrwt>
<pdfrwt beam="1">  1        1 0.27524065E+00 0.80169537E+03</pdfrwt>
<pdfrwt beam="2">  1       -1 0.15675314E+00 0.80169537E+03</pdfrwt>
<totfact> 0.13372281E+00</totfact>
</mgrwt>
</event>
<event>
 4    1  0.8114601E-008  0.7821976E+03  0.7818608E-02  0.9750700E-01
          1   -1    0    0  501    0  0.00000000000E+00  0.00000000000E+00  0.91153116695E+03  0.91153116696E+03  0.50400000000E-02 0. -1.
         -1   -1    0    0    0  501 -0.00000000000E+00 -0.00000000000E+00 -0.67768374250E+03  0.67768374251E+03  0.50400000000E-02 0.  1.
    8880023    1    1    2    0    0  0.54648491224E+02 -0.41837352355E+03  0.61925033373E+03  0.99764925945E+03  0.65864270000E+03 0. -1.
    8880022    1    1    2    0    0 -0.54648491224E+02  0.41837352355E+03 -0.38540290928E+03  0.59156565003E+03  0.15294330000E+03 0.  0.
<mgrwt>
<rscale>  0 0.68076732E+03</rscale>
<asrwt>0</asrwt>
<pdfrwt beam="1">  1        1 0.14023556E+00 0.78219759E+03</pdfrwt>
<pdfrwt beam="2">  1       -1 0.10425904E+00 0.78219759E+03</pdfrwt>
<totfact> 0.15804125E+01</totfact>
</mgrwt>
</event>
<event>
 4    1  0.8114601E-008  0.1226742E+04  0.7818608E-02  0.9131556E-01
          1   -1    0    0  501    0  0.00000000000E+00  0.00000000000E+00  0.36718146472E+04  0.36718146472E+04  0.50400000000E-02 0. -1.
         -1   -1    0    0    0  501 -0.00000000000E+00 -0.00000000000E+00 -0.84610959833E+03  0.84610959835E+03  0.50400000000E-02 0.  1.
    8880023    1    1    2    0    0 -0.31926857269E+03 -0.98445598891E+03  0.31839599795E+04  0.34121103987E+04  0.65864270000E+03 0.  0.
    8880022    1    1    2    0    0  0.31926857269E+03  0.98445598891E+03 -0.35825493061E+03  0.11058138469E+04  0.15294330000E+03 0.  0.
<mgrwt>
<rscale>  0 0.11788697E+04</rscale>
<asrwt>0</asrwt>
<pdfrwt beam="1">  1        1 0.56489456E+00 0.12267421E+04</pdfrwt>
<pdfrwt beam="2">  1       -1 0.13017071E+00 0.12267421E+04</pdfrwt>
<totfact> 0.92032508E-02</totfact>
</mgrwt>
</event>
<event>
 4    1  0.8114601E-008  0.1195522E+04  0.7818608E-02  0.9161488E-01
         -1   -1    0    0    0  501 -0.00000000000E+00  0.00000000000E+00  0.24940954434E+04  0.24940954434E+04  0.50400000000E-02 0.  1.
          1   -1    0    0  501    0  0.00000000000E+00 -0.00000000000E+00 -0.11054692551E+04  0.11054692551E+04  0.50400000000E-02 0. -1.
    8880023    1    1    2    0    0  0.25024779677E+03 -0.96583552925E+03 -0.62358194639E+03  0.13483793530E+04  0.65864270000E+03 0.  0.
    8880022    1    1    2    0    0 -0.25024779677E+03  0.96583552925E+03  0.20122081347E+04  0.22511853455E+04  0.15294330000E+03 0.  0.
<mgrwt>
<rscale>  0 0.11459934E+04</rscale>
<asrwt>0</asrwt>
<pdfrwt beam="1">  1        1 0.17007220E+00 0.11955218E+04</pdfrwt>
<pdfrwt beam="2">  1       -1 0.38370698E+00 0.11955218E+04</pdfrwt>
<totfact> 0.11498531E-01</totfact>
</mgrwt>
</event>
<event>
 4    1  0.8114601E-008  0.7426856E+03  0.7818608E-02  0.9852192E-01
         -1   -1    0    0    0  501 -0.00000000000E+00  0.00000000000E+00  0.21077183962E+03  0.21077183968E+03  0.50400000000E-02 0.  1.
          1   -1    0    0  501    0  0.00000000000E+00 -0.00000000000E+00 -0.23596121181E+04  0.23596121181E+04  0.50400000000E-02 0. -1.
    8880023    1    1    2    0    0 -0.34277762337E+03 -0.16590080860E+02 -0.20521751846E+04  0.21824309667E+04  0.65864270000E+03 0. -1.
    8880022    1    1    2    0    0  0.34277762337E+03  0.16590080860E+02 -0.96665093819E+02  0.38795299103E+03  0.15294330000E+03 0.  0.
<mgrwt>
<rscale>  0 0.62635280E+03</rscale>
<asrwt>0</asrwt>
<pdfrwt beam="1">  1        1 0.36301723E+00 0.74268562E+03</pdfrwt>
<pdfrwt beam="2">  1       -1 0.32426438E-01 0.74268562E+03</pdfrwt>
<totfact> 0.15798244E+01</totfact>
</mgrwt>
</event>
<event>
 4    1  0.8114601E-008  0.8427063E+03  0.7818608E-02  0.9625098E-01
         -1   -1    0    0    0  501 -0.00000000000E+00  0.00000000000E+00  0.46919925566E+03  0.46919925568E+03  0.50400000000E-02 0.  1.
          1   -1    0    0  501    0  0.00000000000E+00 -0.00000000000E+00 -0.18208797097E+04  0.18208797097E+04  0.50400000000E-02 0. -1.
    8880023    1    1    2    0    0 -0.19661287374E+03  0.48753161522E+03 -0.15020729492E+04  0.17223173485E+04  0.65864270000E+03 0.  0.
    8880022    1    1    2    0    0  0.19661287374E+03 -0.48753161522E+03  0.15039249520E+03  0.56776161686E+03  0.15294330000E+03 0.  0.
<mgrwt>
<rscale>  0 0.75657054E+03</rscale>
<asrwt>0</asrwt>
<pdfrwt beam="1">  1        1 0.28013534E+00 0.84270630E+03</pdfrwt>
<pdfrwt beam="2">  1       -1 0.72184501E-01 0.84270630E+03</pdfrwt>
<totfact> 0.78633433E+00</totfact>
</mgrwt>
</event>
<event>
 4    1  0.8114601E-008  0.1034277E+04  0.7818608E-02  0.9338026E-01
          1   -1    0    0  501    0  0.00000000000E+00  0.00000000000E+00  0.35262015217E+03  0.35262015221E+03  0.50400000000E-02 0. -1.
         -1   -1    0    0    0  501 -0.00000000000E+00 -0.00000000000E+00 -0.28311853696E+04  0.28311853696E+04  0.50400000000E-02 0.  1.
    8880023    1    1    2    0    0 -0.54229897111E+03 -0.58466292633E+03 -0.76131027237E+03  0.12842594943E+04  0.65864270000E+03 0. -1.
    8880022    1    1    2    0    0  0.54229897111E+03  0.58466292633E+03 -0.17172549451E+04  0.18995460276E+04  0.15294330000E+03 0.  0.
<mgrwt>
<rscale>  0 0.97356272E+03</rscale>
<asrwt>0</asrwt>
<pdfrwt beam="1">  1        1 0.54249256E-01 0.10342771E+04</pdfrwt>
<pdfrwt beam="2">  1       -1 0.43556696E+00 0.10342771E+04</pdfrwt>
<totfact> 0.29514437E-01</totfact>
</mgrwt>
</event>
<event>
 4    1  0.8114601E-008  0.9077785E+03  0.7818608E-02  0.9513658E-01
         -1   -1    0    0    0  501 -0.00000000000E+00  0.00000000000E+00  0.47309766859E+03  0.47309766861E+03  0.50400000000E-02 0.  1.
          1   -1    0    0  501    0  0.00000000000E+00 -0.00000000000E+00 -0.16329828398E+04  0.16329828398E+04  0.50400000000E-02 0. -1.
    8880023    1    1    2    0    0  0.62408221030E+03  0.27803288583E+02 -0.11470510615E+04  0.14628014123E+04  0.65864270000E+03 0. -1.
    8880022    1    1    2    0    0 -0.62408221030E+03 -0.27803288583E+02 -0.12834109752E+02  0.64327909609E+03  0.15294330000E+03 0.  0.
<mgrwt>
<rscale>  0 0.83284306E+03</rscale>
<asrwt>0</asrwt>
<pdfrwt beam="1">  1        1 0.25122813E+00 0.90777852E+03</pdfrwt>
<pdfrwt beam="2">  1       -1 0.72784257E-01 0.90777852E+03</pdfrwt>
<totfact> 0.10263276E+01</totfact>
</mgrwt>
</event>
<event>
 4    1  0.8114601E-008  0.1038425E+04  0.7818608E-02  0.9332927E-01
         -1   -1    0    0    0  501 -0.00000000000E+00  0.00000000000E+00  0.20795960903E+04  0.20795960903E+04  0.50400000000E-02 0.  1.
          1   -1    0    0  501    0  0.00000000000E+00 -0.00000000000E+00 -0.13874889557E+04  0.13874889557E+04  0.50400000000E-02 0. -1.
    8880023    1    1    2    0    0 -0.47878289162E+03 -0.64442443411E+03 -0.10906460391E+04  0.15059332314E+04  0.65864270000E+03 0. -1.
    8880022    1    1    2    0    0  0.47878289162E+03  0.64442443411E+03  0.17827531737E+04  0.19611518146E+04  0.15294330000E+03 0.  0.
<mgrwt>
<rscale>  0 0.97807203E+03</rscale>
<asrwt>0</asrwt>
<pdfrwt beam="1">  1        1 0.21345984E+00 0.10384248E+04</pdfrwt>
<pdfrwt beam="2">  1       -1 0.31993786E+00 0.10384248E+04</pdfrwt>
<totfact> 0.19431909E-01</totfact>
</mgrwt>
</event>
<event>
 4    1  0.8114601E-008  0.9009941E+03  0.7818608E-02  0.9524438E-01
         -1   -1    0    0    0  501 -0.00000000000E+00  0.00000000000E+00  0.12117141487E+04  0.12117141487E+04  0.50400000000E-02 0.  1.
          1   -1    0    0  501    0  0.00000000000E+00 -0.00000000000E+00 -0.50158965746E+03  0.50158965748E+03  0.50400000000E-02 0. -1.
    8880023    1    1    2    0    0 -0.59052700244E+03  0.17104988827E+03  0.26545074766E+03  0.93928404148E+03  0.65864270000E+03 0.  0.
    8880022    1    1    2    0    0  0.59052700244E+03 -0.17104988827E+03  0.44467374354E+03  0.77401976466E+03  0.15294330000E+03 0.  0.
<mgrwt>
<rscale>  0 0.82505867E+03</rscale>
<asrwt>0</asrwt>
<pdfrwt beam="1">  1        1 0.77167640E-01 0.90099412E+03</pdfrwt>
<pdfrwt beam="2">  1       -1 0.18641756E+00 0.90099412E+03</pdfrwt>
<totfact> 0.83797210E+00</totfact>
</mgrwt>
</event>
<event>
 4    1  0.8114601E-008  0.1616370E+04  0.7818608E-02  0.8831553E-01
         -1   -1    0    0    0  501 -0.00000000000E+00  0.00000000000E+00  0.76334819300E+03  0.76334819302E+03  0.50400000000E-02 0.  1.
          1   -1    0    0  501    0  0.00000000000E+00 -0.00000000000E+00 -0.42673208484E+04  0.42673208484E+04  0.50400000000E-02 0. -1.
    8880023    1    1    2    0    0 -0.99737885736E+03  0.10881534437E+04 -0.51983373926E+03  0.16979045394E+04  0.65864270000E+03 0.  0.
    8880022    1    1    2    0    0  0.99737885736E+03 -0.10881534437E+04 -0.29841389162E+04  0.33327645020E+04  0.15294330000E+03 0.  0.
<mgrwt>
<rscale>  0 0.15822080E+04</rscale>
<asrwt>0</asrwt>
<pdfrwt beam="1">  1        1 0.65651088E+00 0.16163702E+04</pdfrwt>
<pdfrwt beam="2">  1       -1 0.11743819E+00 0.16163702E+04</pdfrwt>
<totfact> 0.34081975E-02</totfact>
</mgrwt>
</event>
<event>
 4    1  0.8114601E-008  0.8243695E+03  0.7818608E-02  0.9660388E-01
         -1   -1    0    0    0  501 -0.00000000000E+00  0.00000000000E+00  0.54838052907E+03  0.54838052909E+03  0.50400000000E-02 0.  1.
          1   -1    0    0  501    0  0.00000000000E+00 -0.00000000000E+00 -0.20485444351E+04  0.20485444352E+04  0.50400000000E-02 0. -1.
    8880023    1    1    2    0    0 -0.27174642678E+03 -0.41464296000E+03 -0.18126295134E+04  0.19912837226E+04  0.65864270000E+03 0. -1.
    8880022    1    1    2    0    0  0.27174642678E+03  0.41464296000E+03  0.31246560736E+03  0.60564124161E+03  0.15294330000E+03 0.  0.
<mgrwt>
<rscale>  0 0.73425022E+03</rscale>
<asrwt>0</asrwt>
<pdfrwt beam="1">  1        1 0.31516068E+00 0.82436952E+03</pdfrwt>
<pdfrwt beam="2">  1       -1 0.84366236E-01 0.82436952E+03</pdfrwt>
<totfact> 0.39914694E+00</totfact>
</mgrwt>
</event>
<event>
 4    1  0.8114601E-008  0.7937312E+03  0.7818608E-02  0.9724518E-01
         -1   -1    0    0    0  501 -0.00000000000E+00  0.00000000000E+00  0.14429671590E+04  0.14429671590E+04  0.50400000000E-02 0.  1.
          1   -1    0    0  501    0  0.00000000000E+00 -0.00000000000E+00 -0.76867840919E+03  0.76867840921E+03  0.50400000000E-02 0. -1.
    8880023    1    1    2    0    0 -0.27333816867E+03  0.34854735708E+03 -0.50629684590E+03  0.94145935494E+03  0.65864270000E+03 0. -1.
    8880022    1    1    2    0    0  0.27333816867E+03 -0.34854735708E+03  0.11805855957E+04  0.12701862132E+04  0.15294330000E+03 0.  0.
<mgrwt>
<rscale>  0 0.69575578E+03</rscale>
<asrwt>0</asrwt>
<pdfrwt beam="1">  1        1 0.11825822E+00 0.79373120E+03</pdfrwt>
<pdfrwt beam="2">  1       -1 0.22199494E+00 0.79373120E+03</pdfrwt>
<totfact> 0.26021114E+00</totfact>
</mgrwt>
</event>
<event>
 4    1  0.8114601E-008  0.7255021E+03  0.7818608E-02  0.9904390E-01
          1   -1    0    0  501    0  0.00000000000E+00  0.00000000000E+00  0.27240268476E+04  0.27240268476E+04  0.50400000000E-02 0. -1.
         -1   -1    0    0    0  501 -0.00000000000E+00 -0.00000000000E+00 -0.15876320776E+03  0.15876320784E+03  0.50400000000E-02 0.  1.
    8880023    1    1    2    0    0  0.31415631877E+02 -0.30258238469E+03  0.23942657516E+04  0.25017717196E+04  0.65864270000E+03 0.  0.
    8880022    1    1    2    0    0 -0.31415631877E+02  0.30258238469E+03  0.17099788822E+03  0.38101833583E+03  0.15294330000E+03 0.  0.
<mgrwt>
<rscale>  0 0.60048985E+03</rscale>
<asrwt>0</asrwt>
<pdfrwt beam="1">  1        1 0.41908103E+00 0.72550207E+03</pdfrwt>
<pdfrwt beam="2">  1       -1 0.24425110E-01 0.72550207E+03</pdfrwt>
<totfact> 0.14554619E+01</totfact>
</mgrwt>
</event>
<event>
 4    1  0.8114601E-008  0.7892339E+03  0.7818608E-02  0.9734577E-01
          1   -1    0    0  501    0  0.00000000000E+00  0.00000000000E+00  0.10067010796E+04  0.10067010796E+04  0.50400000000E-02 0. -1.
         -1   -1    0    0    0  501 -0.00000000000E+00 -0.00000000000E+00 -0.48255679723E+03  0.48255679726E+03  0.50400000000E-02 0.  1.
    8880023    1    1    2    0    0 -0.43090797851E+03 -0.58295192743E+02  0.63754069766E+03  0.10145680671E+04  0.65864270000E+03 0.  0.
    8880022    1    1    2    0    0  0.43090797851E+03  0.58295192743E+02 -0.11339641529E+03  0.47468980972E+03  0.15294330000E+03 0.  0.
<mgrwt>
<rscale>  0 0.68994893E+03</rscale>
<asrwt>0</asrwt>
<pdfrwt beam="1">  1        1 0.15487709E+00 0.78923395E+03</pdfrwt>
<pdfrwt beam="2">  1       -1 0.74239507E-01 0.78923395E+03</pdfrwt>
<totfact> 0.27934349E+01</totfact>
</mgrwt>
</event>
<event>
 4    1  0.8114601E-008  0.6772712E+03  0.7818608E-02  0.1010911E+00
          1   -1    0    0  501    0  0.00000000000E+00  0.00000000000E+00  0.14439949284E+04  0.14439949284E+04  0.50400000000E-02 0. -1.
         -1   -1    0    0    0  501 -0.00000000000E+00 -0.00000000000E+00 -0.60220482940E+03  0.60220482942E+03  0.50400000000E-02 0.  1.
    8880023    1    1    2    0    0 -0.13953468612E+03 -0.73594739659E+02  0.13401430606E+04  0.15015591042E+04  0.65864270000E+03 0. -1.
    8880022    1    1    2    0    0  0.13953468612E+03  0.73594739659E+02 -0.49835296154E+03  0.54464065366E+03  0.15294330000E+03 0.  0.
<mgrwt>
<rscale>  0 0.51114059E+03</rscale>
<asrwt>0</asrwt>
<pdfrwt beam="1">  1        1 0.22215306E+00 0.67727123E+03</pdfrwt>
<pdfrwt beam="2">  1       -1 0.92646898E-01 0.67727123E+03</pdfrwt>
<totfact> 0.85169681E+00</totfact>
</mgrwt>
</event>
<event>
 4    1  0.8114601E-008  0.9517437E+03  0.7818608E-02  0.9447610E-01
          1   -1    0    0  501    0  0.00000000000E+00  0.00000000000E+00  0.93638145061E+03  0.93638145062E+03  0.50400000000E-02 0. -1.
         -1   -1    0    0    0  501 -0.00000000000E+00 -0.00000000000E+00 -0.18099532999E+04  0.18099532999E+04  0.50400000000E-02 0.  1.
    8880023    1    1    2    0    0  0.68604287727E+03 -0.36756347711E+02  0.59177152302E+03  0.11207183412E+04  0.65864270000E+03 0.  0.
    8880022    1    1    2    0    0 -0.68604287727E+03  0.36756347711E+02 -0.14653433723E+04  0.16256164094E+04  0.15294330000E+03 0.  0.
<mgrwt>
<rscale>  0 0.88259047E+03</rscale>
<asrwt>0</asrwt>
<pdfrwt beam="1">  1        1 0.14405869E+00 0.95174370E+03</pdfrwt>
<pdfrwt beam="2">  1       -1 0.27845435E+00 0.95174370E+03</pdfrwt>
<totfact> 0.78871375E-01</totfact>
</mgrwt>
</event>
<event>
 4    1  0.8114601E-008  0.8682718E+03  0.7818608E-02  0.9579015E-01
         -1   -1    0    0    0  501 -0.00000000000E+00  0.00000000000E+00  0.49888482356E+03  0.49888482359E+03  0.50400000000E-02 0.  1.
          1   -1    0    0  501    0  0.00000000000E+00 -0.00000000000E+00 -0.14551937931E+04  0.14551937931E+04  0.50400000000E-02 0. -1.
    8880023    1    1    2    0    0  0.29832147176E+03 -0.48071824415E+03 -0.43549412991E+02  0.86936326608E+03  0.65864270000E+03 0.  1.
    8880022    1    1    2    0    0 -0.29832147176E+03  0.48071824415E+03 -0.91275955656E+03  0.10847153506E+04  0.15294330000E+03 0.  0.
<mgrwt>
<rscale>  0 0.78700781E+03</rscale>
<asrwt>0</asrwt>
<pdfrwt beam="1">  1        1 0.22387597E+00 0.86827181E+03</pdfrwt>
<pdfrwt beam="2">  1       -1 0.76751512E-01 0.86827181E+03</pdfrwt>
<totfact> 0.12217846E+01</totfact>
</mgrwt>
</event>
<event>
 4    1  0.8114601E-008  0.7238044E+03  0.7818608E-02  0.9909917E-01
         -1   -1    0    0    0  501 -0.00000000000E+00  0.00000000000E+00  0.17937641272E+04  0.17937641272E+04  0.50400000000E-02 0.  1.
          1   -1    0    0  501    0  0.00000000000E+00 -0.00000000000E+00 -0.58609415370E+03  0.58609415372E+03  0.50400000000E-02 0. -1.
    8880023    1    1    2    0    0 -0.12880969031E+03 -0.27109157611E+03 -0.33733730903E+03  0.79855447233E+03  0.65864270000E+03 0. -1.
    8880022    1    1    2    0    0  0.12880969031E+03  0.27109157611E+03  0.15450072825E+04  0.15813038085E+04  0.15294330000E+03 0.  0.
<mgrwt>
<rscale>  0 0.59783049E+03</rscale>
<asrwt>0</asrwt>
<pdfrwt beam="1">  1        1 0.90168331E-01 0.72380438E+03</pdfrwt>
<pdfrwt beam="2">  1       -1 0.27596371E+00 0.72380438E+03</pdfrwt>
<totfact> 0.17657442E+00</totfact>
</mgrwt>
</event>
<event>
 4    1  0.8114601E-008  0.1800904E+04  0.7818608E-02  0.8722037E-01
          1   -1    0    0  501    0  0.00000000000E+00  0.00000000000E+00  0.27681970138E+04  0.27681970138E+04  0.50400000000E-02 0. -1.
         -1   -1    0    0    0  501 -0.00000000000E+00 -0.00000000000E+00 -0.13401110545E+04  0.13401110545E+04  0.50400000000E-02 0.  1.
    8880023    1    1    2    0    0 -0.15443419292E+04 -0.65149922804E+03  0.16096838579E+04  0.24154369308E+04  0.65864270000E+03 0.  0.
    8880022    1    1    2    0    0  0.15443419292E+04  0.65149922804E+03 -0.18159789858E+03  0.16928711375E+04  0.15294330000E+03 0.  0.
<mgrwt>
<rscale>  0 0.17707021E+04</rscale>
<asrwt>0</asrwt>
<pdfrwt beam="1">  1        1 0.42587645E+00 0.18009035E+04</pdfrwt>
<pdfrwt beam="2">  1       -1 0.20617094E+00 0.18009035E+04</pdfrwt>
<totfact> 0.10944352E-01</totfact>
</mgrwt>
</event>
<event>
 4    1  0.8114601E-008  0.8855199E+03  0.7818608E-02  0.9549688E-01
         -1   -1    0    0    0  501 -0.00000000000E+00  0.00000000000E+00  0.68592888918E+03  0.68592888920E+03  0.50400000000E-02 0.  1.
          1   -1    0    0  501    0  0.00000000000E+00 -0.00000000000E+00 -0.18531627492E+04  0.18531627492E+04  0.50400000000E-02 0. -1.
    8880023    1    1    2    0    0  0.50521853787E+02 -0.58973120905E+03 -0.15731600132E+04  0.18052639669E+04  0.65864270000E+03 0. -1.
    8880022    1    1    2    0    0 -0.50521853787E+02  0.58973120905E+03  0.40592615320E+03  0.73382767153E+03  0.15294330000E+03 0.  0.
<mgrwt>
<rscale>  0 0.80717568E+03</rscale>
<asrwt>0</asrwt>
<pdfrwt beam="1">  1        1 0.28510196E+00 0.88551994E+03</pdfrwt>
<pdfrwt beam="2">  1       -1 0.10552752E+00 0.88551994E+03</pdfrwt>
<totfact> 0.32362764E+00</totfact>
</mgrwt>
</event>
<event>
 4    1  0.8114601E-008  0.7128653E+03  0.7818608E-02  0.9947511E-01
          1   -1    0    0  501    0  0.00000000000E+00  0.00000000000E+00  0.60040409383E+03  0.60040409385E+03  0.50400000000E-02 0. -1.
         -1   -1    0    0    0  501 -0.00000000000E+00 -0.00000000000E+00 -0.74645552288E+03  0.74645552289E+03  0.50400000000E-02 0.  1.
    8880023    1    1    2    0    0  0.56124233577E+02 -0.26686465336E+03  0.32342028207E+03  0.78280109729E+03  0.65864270000E+03 0. -1.
    8880022    1    1    2    0    0 -0.56124233577E+02  0.26686465336E+03 -0.46947171112E+03  0.56405851945E+03  0.15294330000E+03 0.  0.
<mgrwt>
<rscale>  0 0.58012931E+03</rscale>
<asrwt>0</asrwt>
<pdfrwt beam="1">  1        1 0.92369861E-01 0.71286526E+03</pdfrwt>
<pdfrwt beam="2">  1       -1 0.11483931E+00 0.71286526E+03</pdfrwt>
<totfact> 0.24260315E+01</totfact>
</mgrwt>
</event>
<event>
 4    1  0.8114601E-008  0.1519415E+04  0.7818608E-02  0.8896047E-01
         -1   -1    0    0    0  501 -0.00000000000E+00  0.00000000000E+00  0.11240154629E+04  0.11240154629E+04  0.50400000000E-02 0.  1.
          1   -1    0    0  501    0  0.00000000000E+00 -0.00000000000E+00 -0.31056363573E+04  0.31056363573E+04  0.50400000000E-02 0. -1.
    8880023    1    1    2    0    0  0.21112002747E+03  0.13528637742E+04 -0.23546248575E+04  0.28022991424E+04  0.65864270000E+03 0.  0.
    8880022    1    1    2    0    0 -0.21112002747E+03 -0.13528637742E+04  0.37300396306E+03  0.14273526778E+04  0.15294330000E+03 0.  0.
<mgrwt>
<rscale>  0 0.14826894E+04</rscale>
<asrwt>0</asrwt>
<pdfrwt beam="1">  1        1 0.47779021E+00 0.15194151E+04</pdfrwt>
<pdfrwt beam="2">  1       -1 0.17292546E+00 0.15194151E+04</pdfrwt>
<totfact> 0.11097021E-01</totfact>
</mgrwt>
</event>
<event>
 4    1  0.8114601E-008  0.1328628E+04  0.7818608E-02  0.9041224E-01
         -1   -1    0    0    0  501 -0.00000000000E+00  0.00000000000E+00  0.15007579628E+04  0.15007579628E+04  0.50400000000E-02 0.  1.
          1   -1    0    0  501    0  0.00000000000E+00 -0.00000000000E+00 -0.12440704346E+04  0.12440704346E+04  0.50400000000E-02 0. -1.
    8880023    1    1    2    0    0  0.91976452935E+03 -0.69676087842E+03 -0.42620981817E+03  0.13953162819E+04  0.65864270000E+03 0.  0.
    8880022    1    1    2    0    0 -0.91976452935E+03  0.69676087842E+03  0.68289734639E+03  0.13495121155E+04  0.15294330000E+03 0.  0.
<mgrwt>
<rscale>  0 0.12854002E+04</rscale>
<asrwt>0</asrwt>
<pdfrwt beam="1">  1        1 0.19139545E+00 0.13286281E+04</pdfrwt>
<pdfrwt beam="2">  1       -1 0.23088584E+00 0.13286281E+04</pdfrwt>
<totfact> 0.89263247E-01</totfact>
</mgrwt>
</event>
<event>
 4    1  0.8114601E-008  0.9779032E+03  0.7818608E-02  0.9411056E-01
          1   -1    0    0  501    0  0.00000000000E+00  0.00000000000E+00  0.14658153890E+04  0.14658153890E+04  0.50400000000E-02 0. -1.
         -1   -1    0    0    0  501 -0.00000000000E+00 -0.00000000000E+00 -0.97828614029E+03  0.97828614031E+03  0.50400000000E-02 0.  1.
    8880023    1    1    2    0    0 -0.67424412795E+03 -0.26053673090E+03  0.11090538067E+04  0.14786125540E+04  0.65864270000E+03 0.  0.
    8880022    1    1    2    0    0  0.67424412795E+03  0.26053673090E+03 -0.62152455805E+03  0.96548897534E+03  0.15294330000E+03 0.  0.
<mgrwt>
<rscale>  0 0.91171412E+03</rscale>
<asrwt>0</asrwt>
<pdfrwt beam="1">  1        1 0.22551006E+00 0.97790324E+03</pdfrwt>
<pdfrwt beam="2">  1       -1 0.15050556E+00 0.97790324E+03</pdfrwt>
<totfact> 0.24088254E+00</totfact>
</mgrwt>
</event>
<event>
 4    1  0.8114601E-008  0.1061343E+04  0.7818608E-02  0.9305369E-01
          1   -1    0    0  501    0  0.00000000000E+00  0.00000000000E+00  0.18908374888E+04  0.18908374888E+04  0.50400000000E-02 0. -1.
         -1   -1    0    0    0  501 -0.00000000000E+00 -0.00000000000E+00 -0.13012886457E+04  0.13012886457E+04  0.50400000000E-02 0.  1.
    8880023    1    1    2    0    0 -0.68959476916E+03  0.46593672536E+03  0.15712165762E+04  0.18960932765E+04  0.65864270000E+03 0. -1.
    8880022    1    1    2    0    0  0.68959476916E+03 -0.46593672536E+03 -0.98166773309E+03  0.12960328580E+04  0.15294330000E+03 0.  0.
<mgrwt>
<rscale>  0 0.10029010E+04</rscale>
<asrwt>0</asrwt>
<pdfrwt beam="1">  1        1 0.29089807E+00 0.10613426E+04</pdfrwt>
<pdfrwt beam="2">  1       -1 0.20019825E+00 0.10613426E+04</pdfrwt>
<totfact> 0.53094264E-01</totfact>
</mgrwt>
</event>
<event>
 4    1  0.8114601E-008  0.9127906E+03  0.7818608E-02  0.9505803E-01
         -1   -1    0    0    0  501 -0.00000000000E+00  0.00000000000E+00  0.58232065717E+03  0.58232065719E+03  0.50400000000E-02 0.  1.
          1   -1    0    0  501    0  0.00000000000E+00 -0.00000000000E+00 -0.12574118774E+04  0.12574118774E+04  0.50400000000E-02 0. -1.
    8880023    1    1    2    0    0 -0.58395536857E+03  0.24160438447E+03 -0.75508159708E+03  0.11846244027E+04  0.65864270000E+03 0. -1.
    8880022    1    1    2    0    0  0.58395536857E+03 -0.24160438447E+03  0.79990376812E+02  0.65510813189E+03  0.15294330000E+03 0.  0.
<mgrwt>
<rscale>  0 0.83857358E+03</rscale>
<asrwt>0</asrwt>
<pdfrwt beam="1">  1        1 0.19344798E+00 0.91279064E+03</pdfrwt>
<pdfrwt beam="2">  1       -1 0.89587793E-01 0.91279064E+03</pdfrwt>
<totfact> 0.12003268E+01</totfact>
</mgrwt>
</event>
<event>
 4    1  0.8114601E-008  0.7167076E+03  0.7818608E-02  0.9933888E-01
          1   -1    0    0  501    0  0.00000000000E+00  0.00000000000E+00  0.23887881348E+04  0.23887881348E+04  0.50400000000E-02 0. -1.
         -1   -1    0    0    0  501 -0.00000000000E+00 -0.00000000000E+00 -0.49710943492E+03  0.49710943495E+03  0.50400000000E-02 0.  1.
    8880023    1    1    2    0    0  0.16564723138E+03  0.22895550860E+03  0.22752829957E+04  0.23854941934E+04  0.65864270000E+03 0. -1.
    8880022    1    1    2    0    0 -0.16564723138E+03 -0.22895550860E+03 -0.38360429585E+03  0.50040337628E+03  0.15294330000E+03 0.  0.
<mgrwt>
<rscale>  0 0.58646683E+03</rscale>
<asrwt>0</asrwt>
<pdfrwt beam="1">  1        1 0.36750587E+00 0.71670764E+03</pdfrwt>
<pdfrwt beam="2">  1       -1 0.76478375E-01 0.71670764E+03</pdfrwt>
<totfact> 0.29604683E+00</totfact>
</mgrwt>
</event>
<event>
 4    1  0.8114601E-008  0.7715956E+03  0.7818608E-02  0.9775963E-01
          1   -1    0    0  501    0  0.00000000000E+00  0.00000000000E+00  0.25833799413E+04  0.25833799413E+04  0.50400000000E-02 0. -1.
         -1   -1    0    0    0  501 -0.00000000000E+00 -0.00000000000E+00 -0.31514893142E+03  0.31514893146E+03  0.50400000000E-02 0.  1.
    8880023    1    1    2    0    0 -0.13602291683E+02  0.40170205986E+03  0.23387435157E+04  0.24627385176E+04  0.65864270000E+03 0. -1.
    8880022    1    1    2    0    0  0.13602291683E+02 -0.40170205986E+03 -0.70512505811E+02  0.43579035525E+03  0.15294330000E+03 0.  0.
<mgrwt>
<rscale>  0 0.66668629E+03</rscale>
<asrwt>0</asrwt>
<pdfrwt beam="1">  1        1 0.39744306E+00 0.77159560E+03</pdfrwt>
<pdfrwt beam="2">  1       -1 0.48484452E-01 0.77159560E+03</pdfrwt>
<totfact> 0.53247629E+00</totfact>
</mgrwt>
</event>
<event>
 4    1  0.8114601E-008  0.1176843E+04  0.7818608E-02  0.9179968E-01
          1   -1    0    0  501    0  0.00000000000E+00  0.00000000000E+00  0.25132843987E+04  0.25132843987E+04  0.50400000000E-02 0. -1.
         -1   -1    0    0    0  501 -0.00000000000E+00 -0.00000000000E+00 -0.11501902949E+04  0.11501902949E+04  0.50400000000E-02 0.  1.
    8880023    1    1    2    0    0  0.93297622913E+03 -0.28408409218E+03  0.21164714919E+04  0.24216544340E+04  0.65864270000E+03 0. -1.
    8880022    1    1    2    0    0 -0.93297622913E+03  0.28408409218E+03 -0.75337738803E+03  0.12418202597E+04  0.15294330000E+03 0.  0.
<mgrwt>
<rscale>  0 0.11262603E+04</rscale>
<asrwt>0</asrwt>
<pdfrwt beam="1">  1        1 0.38665913E+00 0.11768426E+04</pdfrwt>
<pdfrwt beam="2">  1       -1 0.17695236E+00 0.11768426E+04</pdfrwt>
<totfact> 0.28732031E-01</totfact>
</mgrwt>
</event>
<event>
 4    1  0.8114601E-008  0.7710871E+03  0.7818608E-02  0.9777206E-01
         -1   -1    0    0    0  501 -0.00000000000E+00  0.00000000000E+00  0.18506590901E+04  0.18506590901E+04  0.50400000000E-02 0.  1.
          1   -1    0    0  501    0  0.00000000000E+00 -0.00000000000E+00 -0.25691892509E+03  0.25691892514E+03  0.50400000000E-02 0. -1.
    8880023    1    1    2    0    0  0.20408319927E+03  0.34513059428E+03  0.14716332524E+04  0.16614089549E+04  0.65864270000E+03 0.  1.
    8880022    1    1    2    0    0 -0.20408319927E+03 -0.34513059428E+03  0.12210691258E+03  0.44616906039E+03  0.15294330000E+03 0.  0.
<mgrwt>
<rscale>  0 0.66600275E+03</rscale>
<asrwt>0</asrwt>
<pdfrwt beam="1">  1        1 0.39525990E-01 0.77108708E+03</pdfrwt>
<pdfrwt beam="2">  1       -1 0.28471677E+00 0.77108708E+03</pdfrwt>
<totfact> 0.46327314E+00</totfact>
</mgrwt>
</event>
<event>
 4    1  0.8114601E-008  0.1042899E+04  0.7818608E-02  0.9327466E-01
         -1   -1    0    0    0  501 -0.00000000000E+00  0.00000000000E+00  0.10302870057E+04  0.10302870057E+04  0.50400000000E-02 0.  1.
          1   -1    0    0  501    0  0.00000000000E+00 -0.00000000000E+00 -0.15387809597E+04  0.15387809597E+04  0.50400000000E-02 0. -1.
    8880023    1    1    2    0    0 -0.57403558966E+03 -0.56948418285E+03 -0.11300787600E+04  0.15377637344E+04  0.65864270000E+03 0. -1.
    8880022    1    1    2    0    0  0.57403558966E+03  0.56948418285E+03  0.62158480602E+03  0.10313042310E+04  0.15294330000E+03 0.  0.
<mgrwt>
<rscale>  0 0.98293119E+03</rscale>
<asrwt>0</asrwt>
<pdfrwt beam="1">  1        1 0.23673553E+00 0.10428995E+04</pdfrwt>
<pdfrwt beam="2">  1       -1 0.15850569E+00 0.10428995E+04</pdfrwt>
<totfact> 0.18448334E+00</totfact>
</mgrwt>
</event>
<event>
 4    1  0.8114601E-008  0.7017157E+03  0.7818608E-02  0.9990157E-01
         -1   -1    0    0    0  501 -0.00000000000E+00  0.00000000000E+00  0.17362557140E+04  0.17362557140E+04  0.50400000000E-02 0.  1.
          1   -1    0    0  501    0  0.00000000000E+00 -0.00000000000E+00 -0.77348902557E+03  0.77348902559E+03  0.50400000000E-02 0. -1.
    8880023    1    1    2    0    0  0.23574679979E+03  0.54937984819E+02 -0.59859503095E+03  0.92234535459E+03  0.65864270000E+03 0. -1.
    8880022    1    1    2    0    0 -0.23574679979E+03 -0.54937984819E+02  0.15613617194E+04  0.15873993850E+04  0.15294330000E+03 0.  0.
<mgrwt>
<rscale>  0 0.56083954E+03</rscale>
<asrwt>0</asrwt>
<pdfrwt beam="1">  1        1 0.11899831E+00 0.70171571E+03</pdfrwt>
<pdfrwt beam="2">  1       -1 0.26711626E+00 0.70171571E+03</pdfrwt>
<totfact> 0.13350541E+00</totfact>
</mgrwt>
</event>
<event>
 4    1  0.8114601E-008  0.6817627E+03  0.7818608E-02  0.1008344E+00
          1   -1    0    0  501    0  0.00000000000E+00  0.00000000000E+00  0.12945577945E+04  0.12945577945E+04  0.50400000000E-02 0. -1.
         -1   -1    0    0    0  501 -0.00000000000E+00 -0.00000000000E+00 -0.47164661752E+03  0.47164661755E+03  0.50400000000E-02 0.  1.
    8880023    1    1    2    0    0  0.17008079859E+03 -0.45416240377E+02  0.11664008809E+04  0.13510334319E+04  0.65864270000E+03 0. -1.
    8880022    1    1    2    0    0 -0.17008079859E+03  0.45416240377E+02 -0.34348970399E+03  0.41517098008E+03  0.15294330000E+03 0.  0.
<mgrwt>
<rscale>  0 0.52138264E+03</rscale>
<asrwt>0</asrwt>
<pdfrwt beam="1">  1        1 0.19916273E+00 0.68176266E+03</pdfrwt>
<pdfrwt beam="2">  1       -1 0.72561019E-01 0.68176266E+03</pdfrwt>
<totfact> 0.18225247E+01</totfact>
</mgrwt>
</event>
<event>
 4    1  0.8114601E-008  0.1085679E+04  0.7818608E-02  0.9277170E-01
          1   -1    0    0  501    0  0.00000000000E+00  0.00000000000E+00  0.23580690107E+04  0.23580690107E+04  0.50400000000E-02 0. -1.
         -1   -1    0    0    0  501 -0.00000000000E+00 -0.00000000000E+00 -0.42599170927E+03  0.42599170930E+03  0.50400000000E-02 0.  1.
    8880023    1    1    2    0    0 -0.12924271304E+03 -0.85333790041E+03  0.13476800015E+04  0.17305897388E+04  0.65864270000E+03 0. -1.
    8880022    1    1    2    0    0  0.12924271304E+03  0.85333790041E+03  0.58439729991E+03  0.10534709812E+04  0.15294330000E+03 0.  1.
<mgrwt>
<rscale>  0 0.10291203E+04</rscale>
<asrwt>0</asrwt>
<pdfrwt beam="1">  1        1 0.36277986E+00 0.10856793E+04</pdfrwt>
<pdfrwt beam="2">  1       -1 0.65537184E-01 0.10856793E+04</pdfrwt>
<totfact> 0.40286718E+00</totfact>
</mgrwt>
</event>
<event>
 4    1  0.8114601E-008  0.8652709E+03  0.7818608E-02  0.9584255E-01
          1   -1    0    0  501    0  0.00000000000E+00  0.00000000000E+00  0.19403670181E+04  0.19403670182E+04  0.50400000000E-02 0. -1.
         -1   -1    0    0    0  501 -0.00000000000E+00 -0.00000000000E+00 -0.10565100593E+04  0.10565100593E+04  0.50400000000E-02 0.  1.
    8880023    1    1    2    0    0  0.51929484945E+03  0.21264161325E+03  0.17507801844E+04  0.19529273045E+04  0.65864270000E+03 0.  0.
    8880022    1    1    2    0    0 -0.51929484945E+03 -0.21264161325E+03 -0.86692322554E+03  0.10439497729E+04  0.15294330000E+03 0.  0.
<mgrwt>
<rscale>  0 0.78347089E+03</rscale>
<asrwt>0</asrwt>
<pdfrwt beam="1">  1        1 0.29851800E+00 0.86527094E+03</pdfrwt>
<pdfrwt beam="2">  1       -1 0.16254001E+00 0.86527094E+03</pdfrwt>
<totfact> 0.94567773E-01</totfact>
</mgrwt>
</event>
<event>
 4    1  0.8114601E-008  0.8509627E+03  0.7818608E-02  0.9609846E-01
         -1   -1    0    0    0  501 -0.00000000000E+00  0.00000000000E+00  0.11622526460E+04  0.11622526461E+04  0.50400000000E-02 0.  1.
          1   -1    0    0  501    0  0.00000000000E+00 -0.00000000000E+00 -0.16900634414E+04  0.16900634414E+04  0.50400000000E-02 0. -1.
    8880023    1    1    2    0    0  0.24855794430E+03 -0.47806506184E+03 -0.15033124099E+04  0.17274506254E+04  0.65864270000E+03 0. -1.
    8880022    1    1    2    0    0 -0.24855794430E+03  0.47806506184E+03  0.97550161450E+03  0.11248654621E+04  0.15294330000E+03 0.  0.
<mgrwt>
<rscale>  0 0.76647937E+03</rscale>
<asrwt>0</asrwt>
<pdfrwt beam="1">  1        1 0.26000976E+00 0.85096267E+03</pdfrwt>
<pdfrwt beam="2">  1       -1 0.17880810E+00 0.85096267E+03</pdfrwt>
<totfact> 0.10619601E+00</totfact>
</mgrwt>
</event>
<event>
 4    1  0.8114601E-008  0.1071391E+04  0.7818608E-02  0.9293598E-01
         -1   -1    0    0    0  501 -0.00000000000E+00  0.00000000000E+00  0.57255210012E+03  0.57255210015E+03  0.50400000000E-02 0.  1.
          1   -1    0    0  501    0  0.00000000000E+00 -0.00000000000E+00 -0.28222541760E+04  0.28222541760E+04  0.50400000000E-02 0. -1.
    8880023    1    1    2    0    0 -0.77028156454E+03  0.34746956047E+03 -0.22971779859E+04  0.25347397675E+04  0.65864270000E+03 0. -1.
    8880022    1    1    2    0    0  0.77028156454E+03 -0.34746956047E+03  0.47475910021E+02  0.86006650858E+03  0.15294330000E+03 0.  0.
<mgrwt>
<rscale>  0 0.10137442E+04</rscale>
<asrwt>0</asrwt>
<pdfrwt beam="1">  1        1 0.43419294E+00 0.10713911E+04</pdfrwt>
<pdfrwt beam="2">  1       -1 0.88084940E-01 0.10713911E+04</pdfrwt>
<totfact> 0.10309537E+00</totfact>
</mgrwt>
</event>
<event>
 4    1  0.8114601E-008  0.6900490E+03  0.7818608E-02  0.1004129E+00
         -1   -1    0    0    0  501 -0.00000000000E+00  0.00000000000E+00  0.52117213253E+03  0.52117213256E+03  0.50400000000E-02 0.  1.
          1   -1    0    0  501    0  0.00000000000E+00 -0.00000000000E+00 -0.20285273333E+04  0.20285273333E+04  0.50400000000E-02 0. -1.
    8880023    1    1    2    0    0  0.20463564072E+03 -0.21948337416E+02 -0.19331727225E+04  0.20526384135E+04  0.65864270000E+03 0. -1.
    8880022    1    1    2    0    0 -0.20463564072E+03  0.21948337416E+02  0.42581752176E+03  0.49706105241E+03  0.15294330000E+03 0.  0.
<mgrwt>
<rscale>  0 0.53876108E+03</rscale>
<asrwt>0</asrwt>
<pdfrwt beam="1">  1        1 0.31208112E+00 0.69004904E+03</pdfrwt>
<pdfrwt beam="2">  1       -1 0.80180329E-01 0.69004904E+03</pdfrwt>
<totfact> 0.47008196E+00</totfact>
</mgrwt>
</event>
<event>
 4    1  0.8489599E-008  0.1585487E+04  0.7818608E-02  0.8851516E-01
         -1   -1    0    0    0  501 -0.00000000000E+00  0.00000000000E+00  0.17425960505E+04  0.17425960506E+04  0.50400000000E-02 0.  1.
          1   -1    0    0  501    0  0.00000000000E+00 -0.00000000000E+00 -0.26546809618E+04  0.26546809618E+04  0.50400000000E-02 0. -1.
    8880023    1    1    2    0    0 -0.89499287599E+03  0.11309051417E+04 -0.20230911802E+04  0.25703437158E+04  0.65864270000E+03 0. -1.
    8880022    1    1    2    0    0  0.89499287599E+03 -0.11309051417E+04  0.11110062689E+04  0.18269332966E+04  0.15294330000E+03 0.  0.
<mgrwt>
<rscale>  0 0.15505507E+04</rscale>
<asrwt>0</asrwt>
<pdfrwt beam="1">  1        1 0.40841245E+00 0.15854870E+04</pdfrwt>
<pdfrwt beam="2">  1       -1 0.26809170E+00 0.15854870E+04</pdfrwt>
<totfact> 0.52387783E-02</totfact>
</mgrwt>
</event>
<event>
 4    1  0.8114601E-008  0.1831903E+04  0.7818608E-02  0.8705091E-01
         -1   -1    0    0    0  501 -0.00000000000E+00  0.00000000000E+00  0.11102534382E+04  0.11102534382E+04  0.50400000000E-02 0.  1.
          1   -1    0    0  501    0  0.00000000000E+00 -0.00000000000E+00 -0.41725935830E+04  0.41725935830E+04  0.50400000000E-02 0. -1.
    8880023    1    1    2    0    0  0.14539008789E+04  0.89901635533E+03 -0.69958015584E+02  0.18332382559E+04  0.65864270000E+03 0.  0.
    8880022    1    1    2    0    0 -0.14539008789E+04 -0.89901635533E+03 -0.29923821293E+04  0.34496087653E+04  0.15294330000E+03 0.  0.
<mgrwt>
<rscale>  0 0.18022739E+04</rscale>
<asrwt>0</asrwt>
<pdfrwt beam="1">  1        1 0.64193747E+00 0.18319029E+04</pdfrwt>
<pdfrwt beam="2">  1       -1 0.17080822E+00 0.18319029E+04</pdfrwt>
<totfact> 0.14961752E-02</totfact>
</mgrwt>
</event>
<event>
 4    1  0.8114601E-008  0.9151399E+03  0.7818608E-02  0.9502151E-01
          1   -1    0    0  501    0  0.00000000000E+00  0.00000000000E+00  0.10171902978E+04  0.10171902978E+04  0.50400000000E-02 0. -1.
         -1   -1    0    0    0  501 -0.00000000000E+00 -0.00000000000E+00 -0.87041511719E+03  0.87041511720E+03  0.50400000000E-02 0.  1.
    8880023    1    1    2    0    0 -0.62553161409E+03  0.11127040130E+03  0.59823387663E+03  0.10933274349E+04  0.65864270000E+03 0. -1.
    8880022    1    1    2    0    0  0.62553161409E+03 -0.11127040130E+03 -0.45145869606E+03  0.79427798011E+03  0.15294330000E+03 0.  0.
<mgrwt>
<rscale>  0 0.84125386E+03</rscale>
<asrwt>0</asrwt>
<pdfrwt beam="1">  1        1 0.15649081E+00 0.91513994E+03</pdfrwt>
<pdfrwt beam="2">  1       -1 0.13391002E+00 0.91513994E+03</pdfrwt>
<totfact> 0.69844253E+00</totfact>
</mgrwt>
</event>
<event>
 4    1  0.8114601E-008  0.6980460E+03  0.7818608E-02  0.1000541E+00
          1   -1    0    0  501    0  0.00000000000E+00  0.00000000000E+00  0.18733997870E+04  0.18733997870E+04  0.50400000000E-02 0. -1.
         -1   -1    0    0    0  501 -0.00000000000E+00 -0.00000000000E+00 -0.10593028765E+04  0.10593028765E+04  0.50400000000E-02 0.  1.
    8880023    1    1    2    0    0  0.14840084954E+03 -0.17729980995E+03  0.17883608759E+04  0.19197663565E+04  0.65864270000E+03 0.  0.
    8880022    1    1    2    0    0 -0.14840084954E+03  0.17729980995E+03 -0.97426396545E+03  0.10129363070E+04  0.15294330000E+03 0.  0.
<mgrwt>
<rscale>  0 0.55413847E+03</rscale>
<asrwt>0</asrwt>
<pdfrwt beam="1">  1        1 0.28821535E+00 0.69804602E+03</pdfrwt>
<pdfrwt beam="2">  1       -1 0.16296967E+00 0.69804602E+03</pdfrwt>
<totfact> 0.10771200E+00</totfact>
</mgrwt>
</event>
<event>
 4    1  0.8114601E-008  0.8475409E+03  0.7818608E-02  0.9616122E-01
         -1   -1    0    0    0  501 -0.00000000000E+00  0.00000000000E+00  0.67219402596E+03  0.67219402598E+03  0.50400000000E-02 0.  1.
          1   -1    0    0  501    0  0.00000000000E+00 -0.00000000000E+00 -0.17894934081E+04  0.17894934081E+04  0.50400000000E-02 0. -1.
    8880023    1    1    2    0    0 -0.24960129980E+03  0.47139634327E+03 -0.15442540761E+04  0.17615465305E+04  0.65864270000E+03 0. -1.
    8880022    1    1    2    0    0  0.24960129980E+03 -0.47139634327E+03  0.42695469390E+03  0.70014090365E+03  0.15294330000E+03 0.  0.
<mgrwt>
<rscale>  0 0.76238252E+03</rscale>
<asrwt>0</asrwt>
<pdfrwt beam="1">  1        1 0.27530668E+00 0.84754087E+03</pdfrwt>
<pdfrwt beam="2">  1       -1 0.10341447E+00 0.84754087E+03</pdfrwt>
<totfact> 0.37654286E+00</totfact>
</mgrwt>
</event>
<event>
 4    1  0.8114601E-008  0.7321835E+03  0.7818608E-02  0.9883330E-01
         -1   -1    0    0    0  501 -0.00000000000E+00  0.00000000000E+00  0.96057307364E+03  0.96057307365E+03  0.50400000000E-02 0.  1.
          1   -1    0    0  501    0  0.00000000000E+00 -0.00000000000E+00 -0.80757269683E+03  0.80757269684E+03  0.50400000000E-02 0. -1.
    8880023    1    1    2    0    0 -0.19993957344E+03 -0.24961295784E+03 -0.59299803014E+03  0.94219919962E+03  0.65864270000E+03 0.  0.
    8880022    1    1    2    0    0  0.19993957344E+03  0.24961295784E+03  0.74599840696E+03  0.82594657088E+03  0.15294330000E+03 0.  0.
<mgrwt>
<rscale>  0 0.61076013E+03</rscale>
<asrwt>0</asrwt>
<pdfrwt beam="1">  1        1 0.12424195E+00 0.73218349E+03</pdfrwt>
<pdfrwt beam="2">  1       -1 0.14778047E+00 0.73218349E+03</pdfrwt>
<totfact> 0.81853494E+00</totfact>
</mgrwt>
</event>
<event>
 4    1  0.8114601E-008  0.7930411E+03  0.7818608E-02  0.9726050E-01
         -1   -1    0    0    0  501 -0.00000000000E+00  0.00000000000E+00  0.22043694985E+04  0.22043694985E+04  0.50400000000E-02 0.  1.
          1   -1    0    0  501    0  0.00000000000E+00 -0.00000000000E+00 -0.10436581238E+04  0.10436581238E+04  0.50400000000E-02 0. -1.
    8880023    1    1    2    0    0 -0.37706688121E+03  0.23005330608E+03 -0.86241041961E+03  0.11716082514E+04  0.65864270000E+03 0. -1.
    8880022    1    1    2    0    0  0.37706688121E+03 -0.23005330608E+03  0.20231217943E+04  0.20764193710E+04  0.15294330000E+03 0.  0.
<mgrwt>
<rscale>  0 0.69486767E+03</rscale>
<asrwt>0</asrwt>
<pdfrwt beam="1">  1        1 0.16056279E+00 0.79304109E+03</pdfrwt>
<pdfrwt beam="2">  1       -1 0.33913377E+00 0.79304109E+03</pdfrwt>
<totfact> 0.27233511E-01</totfact>
</mgrwt>
</event>
<event>
 4    1  0.8114601E-008  0.9310333E+03  0.7818608E-02  0.9477945E-01
         -1   -1    0    0    0  501 -0.00000000000E+00  0.00000000000E+00  0.75157196061E+03  0.75157196063E+03  0.50400000000E-02 0.  1.
          1   -1    0    0  501    0  0.00000000000E+00 -0.00000000000E+00 -0.17818654394E+04  0.17818654394E+04  0.50400000000E-02 0. -1.
    8880023    1    1    2    0    0 -0.19088576823E+03  0.62974231320E+03 -0.14608582261E+04  0.17323191740E+04  0.65864270000E+03 0. -1.
    8880022    1    1    2    0    0  0.19088576823E+03 -0.62974231320E+03  0.43056474727E+03  0.80111822608E+03  0.15294330000E+03 0.  0.
<mgrwt>
<rscale>  0 0.85929569E+03</rscale>
<asrwt>0</asrwt>
<pdfrwt beam="1">  1        1 0.27413314E+00 0.93103328E+03</pdfrwt>
<pdfrwt beam="2">  1       -1 0.11562646E+00 0.93103328E+03</pdfrwt>
<totfact> 0.28912787E+00</totfact>
</mgrwt>
</event>
<event>
 4    1  0.8114601E-008  0.1251757E+04  0.7818608E-02  0.9108383E-01
         -1   -1    0    0    0  501 -0.00000000000E+00  0.00000000000E+00  0.19975651110E+04  0.19975651110E+04  0.50400000000E-02 0.  1.
          1   -1    0    0  501    0  0.00000000000E+00 -0.00000000000E+00 -0.77094250847E+03  0.77094250848E+03  0.50400000000E-02 0. -1.
    8880023    1    1    2    0    0 -0.58522305356E+03 -0.88915621014E+03  0.17419083920E+03  0.12638185958E+04  0.65864270000E+03 0.  1.
    8880022    1    1    2    0    0  0.58522305356E+03  0.88915621014E+03  0.10524317634E+04  0.15046890237E+04  0.15294330000E+03 0.  0.
<mgrwt>
<rscale>  0 0.12051249E+04</rscale>
<asrwt>0</asrwt>
<pdfrwt beam="1">  1        1 0.11860654E+00 0.12517568E+04</pdfrwt>
<pdfrwt beam="2">  1       -1 0.30731771E+00 0.12517568E+04</pdfrwt>
<totfact> 0.68153191E-01</totfact>
</mgrwt>
</event>
<event>
 4    1  0.8114601E-008  0.1170018E+04  0.7818608E-02  0.9186832E-01
          1   -1    0    0  501    0  0.00000000000E+00  0.00000000000E+00  0.25302281530E+04  0.25302281530E+04  0.50400000000E-02 0. -1.
         -1   -1    0    0    0  501 -0.00000000000E+00 -0.00000000000E+00 -0.81013406674E+03  0.81013406675E+03  0.50400000000E-02 0.  1.
    8880023    1    1    2    0    0  0.18352448695E+03 -0.94944794754E+03  0.20043808899E+04  0.23208803503E+04  0.65864270000E+03 0.  0.
    8880022    1    1    2    0    0 -0.18352448695E+03  0.94944794754E+03 -0.28428680363E+03  0.10194818695E+04  0.15294330000E+03 0.  0.
<mgrwt>
<rscale>  0 0.11190381E+04</rscale>
<asrwt>0</asrwt>
<pdfrwt beam="1">  1        1 0.38926587E+00 0.11700183E+04</pdfrwt>
<pdfrwt beam="2">  1       -1 0.12463601E+00 0.11700183E+04</pdfrwt>
<totfact> 0.72234504E-01</totfact>
</mgrwt>
</event>
<event>
 4    1  0.8114601E-008  0.7451447E+03  0.7818608E-02  0.9845207E-01
          1   -1    0    0  501    0  0.00000000000E+00  0.00000000000E+00  0.76156222534E+03  0.76156222536E+03  0.50400000000E-02 0. -1.
         -1   -1    0    0    0  501 -0.00000000000E+00 -0.00000000000E+00 -0.44688960485E+03  0.44688960487E+03  0.50400000000E-02 0.  1.
    8880023    1    1    2    0    0 -0.15852205985E+03  0.31032425128E+03  0.35570425044E+03  0.82569128882E+03  0.65864270000E+03 0. -1.
    8880022    1    1    2    0    0  0.15852205985E+03 -0.31032425128E+03 -0.41031629942E+02  0.38276054141E+03  0.15294330000E+03 0.  1.
<mgrwt>
<rscale>  0 0.62991911E+03</rscale>
<asrwt>0</asrwt>
<pdfrwt beam="1">  1        1 0.11716342E+00 0.74514468E+03</pdfrwt>
<pdfrwt beam="2">  1       -1 0.68752248E-01 0.74514468E+03</pdfrwt>
<totfact> 0.52360672E+01</totfact>
</mgrwt>
</event>
<event>
 4    1  0.8114601E-008  0.8264640E+03  0.7818608E-02  0.9656252E-01
          1   -1    0    0  501    0  0.00000000000E+00  0.00000000000E+00  0.26297142238E+04  0.26297142238E+04  0.50400000000E-02 0. -1.
         -1   -1    0    0    0  501 -0.00000000000E+00 -0.00000000000E+00 -0.35569545907E+03  0.35569545911E+03  0.50400000000E-02 0.  1.
    8880023    1    1    2    0    0  0.32489692016E+03  0.37904433855E+03  0.23184854433E+04  0.24613852962E+04  0.65864270000E+03 0.  0.
    8880022    1    1    2    0    0 -0.32489692016E+03 -0.37904433855E+03 -0.44466678593E+02  0.52402438668E+03  0.15294330000E+03 0.  0.
<mgrwt>
<rscale>  0 0.73682362E+03</rscale>
<asrwt>0</asrwt>
<pdfrwt beam="1">  1        1 0.40457142E+00 0.82646405E+03</pdfrwt>
<pdfrwt beam="2">  1       -1 0.54722378E-01 0.82646405E+03</pdfrwt>
<totfact> 0.38901524E+00</totfact>
</mgrwt>
</event>
<event>
 4    1  0.8114601E-008  0.6631167E+03  0.7818608E-02  0.1021169E+00
         -1   -1    0    0    0  501 -0.00000000000E+00  0.00000000000E+00  0.83467839426E+03  0.83467839428E+03  0.50400000000E-02 0.  1.
          1   -1    0    0  501    0  0.00000000000E+00 -0.00000000000E+00 -0.52945404493E+03  0.52945404495E+03  0.50400000000E-02 0. -1.
    8880023    1    1    2    0    0 -0.75573474690E+02  0.14221576015E+02 -0.30532912041E+03  0.73003402752E+03  0.65864270000E+03 0. -1.
    8880022    1    1    2    0    0  0.75573474690E+02 -0.14221576015E+02  0.61055346974E+03  0.63409841171E+03  0.15294330000E+03 0.  0.
<mgrwt>
<rscale>  0 0.47267288E+03</rscale>
<asrwt>0</asrwt>
<pdfrwt beam="1">  1        1 0.81454468E-01 0.66311674E+03</pdfrwt>
<pdfrwt beam="2">  1       -1 0.12841206E+00 0.66311674E+03</pdfrwt>
<totfact> 0.22173527E+01</totfact>
</mgrwt>
</event>
<event>
 4    1  0.8114601E-008  0.7952888E+03  0.7818608E-02  0.9721077E-01
         -1   -1    0    0    0  501 -0.00000000000E+00  0.00000000000E+00  0.34824467236E+03  0.34824467240E+03  0.50400000000E-02 0.  1.
          1   -1    0    0  501    0  0.00000000000E+00 -0.00000000000E+00 -0.12349057109E+04  0.12349057109E+04  0.50400000000E-02 0. -1.
    8880023    1    1    2    0    0 -0.71219849560E+02  0.44000200488E+03 -0.74837900412E+03  0.10920418359E+04  0.65864270000E+03 0.  1.
    8880022    1    1    2    0    0  0.71219849560E+02 -0.44000200488E+03 -0.13828203439E+03  0.49110854739E+03  0.15294330000E+03 0.  0.
<mgrwt>
<rscale>  0 0.69775639E+03</rscale>
<asrwt>0</asrwt>
<pdfrwt beam="1">  1        1 0.18998549E+00 0.79528878E+03</pdfrwt>
<pdfrwt beam="2">  1       -1 0.53576104E-01 0.79528878E+03</pdfrwt>
<totfact> 0.36239144E+01</totfact>
</mgrwt>
</event>
<event>
 4    1  0.8114601E-008  0.9967960E+03  0.7818608E-02  0.9385762E-01
         -1   -1    0    0    0  501 -0.00000000000E+00  0.00000000000E+00  0.13402300828E+04  0.13402300828E+04  0.50400000000E-02 0.  1.
          1   -1    0    0  501    0  0.00000000000E+00 -0.00000000000E+00 -0.82862454783E+03  0.82862454785E+03  0.50400000000E-02 0. -1.
    8880023    1    1    2    0    0  0.71955916033E+03 -0.20500407929E+03 -0.31316328010E+03  0.10448318066E+04  0.65864270000E+03 0.  0.
    8880022    1    1    2    0    0 -0.71955916033E+03  0.20500407929E+03  0.82476881504E+03  0.11240228241E+04  0.15294330000E+03 0.  0.
<mgrwt>
<rscale>  0 0.93256774E+03</rscale>
<asrwt>0</asrwt>
<pdfrwt beam="1">  1        1 0.12748070E+00 0.99679600E+03</pdfrwt>
<pdfrwt beam="2">  1       -1 0.20618924E+00 0.99679600E+03</pdfrwt>
<totfact> 0.28638266E+00</totfact>
</mgrwt>
</event>
<event>
 4    1  0.8114601E-008  0.9878920E+03  0.7818608E-02  0.9397573E-01
          1   -1    0    0  501    0  0.00000000000E+00  0.00000000000E+00  0.18578227695E+04  0.18578227695E+04  0.50400000000E-02 0. -1.
         -1   -1    0    0    0  501 -0.00000000000E+00 -0.00000000000E+00 -0.77253195807E+03  0.77253195809E+03  0.50400000000E-02 0.  1.
    8880023    1    1    2    0    0  0.66574476718E+02  0.73327227262E+03  0.14812627054E+04  0.17804689819E+04  0.65864270000E+03 0. -1.
    8880022    1    1    2    0    0 -0.66574476718E+02 -0.73327227262E+03 -0.39597189405E+03  0.84988574564E+03  0.15294330000E+03 0.  0.
<mgrwt>
<rscale>  0 0.92275696E+03</rscale>
<asrwt>0</asrwt>
<pdfrwt beam="1">  1        1 0.28581889E+00 0.98789199E+03</pdfrwt>
<pdfrwt beam="2">  1       -1 0.11885107E+00 0.98789199E+03</pdfrwt>
<totfact> 0.23846504E+00</totfact>
</mgrwt>
</event>
<event>
 4    1  0.8114601E-008  0.7939798E+03  0.7818608E-02  0.9723967E-01
         -1   -1    0    0    0  501 -0.00000000000E+00  0.00000000000E+00  0.98925954924E+03  0.98925954925E+03  0.50400000000E-02 0.  1.
          1   -1    0    0  501    0  0.00000000000E+00 -0.00000000000E+00 -0.85195898794E+03  0.85195898796E+03  0.50400000000E-02 0. -1.
    8880023    1    1    2    0    0 -0.39190811654E+03  0.20736865317E+03 -0.58064723043E+03  0.98364380880E+03  0.65864270000E+03 0. -1.
    8880022    1    1    2    0    0  0.39190811654E+03 -0.20736865317E+03  0.71794779173E+03  0.85757472840E+03  0.15294330000E+03 0.  0.
<mgrwt>
<rscale>  0 0.69607546E+03</rscale>
<asrwt>0</asrwt>
<pdfrwt beam="1">  1        1 0.13107061E+00 0.79397981E+03</pdfrwt>
<pdfrwt beam="2">  1       -1 0.15219378E+00 0.79397981E+03</pdfrwt>
<totfact> 0.68758924E+00</totfact>
</mgrwt>
</event>
<event>
 4    1  0.8114601E-008  0.7334924E+03  0.7818608E-02  0.9879325E-01
          1   -1    0    0  501    0  0.00000000000E+00  0.00000000000E+00  0.87841974861E+03  0.87841974863E+03  0.50400000000E-02 0. -1.
         -1   -1    0    0    0  501 -0.00000000000E+00 -0.00000000000E+00 -0.34012639643E+03  0.34012639646E+03  0.50400000000E-02 0.  1.
    8880023    1    1    2    0    0 -0.16216886491E+03  0.27910963513E+03  0.40032271811E+03  0.83562516361E+03  0.65864270000E+03 0.  0.
    8880022    1    1    2    0    0  0.16216886491E+03 -0.27910963513E+03  0.13797063408E+03  0.38292098148E+03  0.15294330000E+03 0.  1.
<mgrwt>
<rscale>  0 0.61273812E+03</rscale>
<asrwt>0</asrwt>
<pdfrwt beam="1">  1        1 0.13514150E+00 0.73349242E+03</pdfrwt>
<pdfrwt beam="2">  1       -1 0.52327138E-01 0.73349242E+03</pdfrwt>
<totfact> 0.71324692E+01</totfact>
</mgrwt>
</event>
<event>
 4    1  0.8114601E-008  0.8364622E+03  0.7818608E-02  0.9636888E-01
          1   -1    0    0  501    0  0.00000000000E+00  0.00000000000E+00  0.20562152434E+04  0.20562152434E+04  0.50400000000E-02 0. -1.
         -1   -1    0    0    0  501 -0.00000000000E+00 -0.00000000000E+00 -0.76099678788E+03  0.76099678790E+03  0.50400000000E-02 0.  1.
    8880023    1    1    2    0    0  0.76435656305E+02 -0.50991797955E+03  0.18587121071E+04  0.20382540712E+04  0.65864270000E+03 0. -1.
    8880022    1    1    2    0    0 -0.76435656305E+02  0.50991797955E+03 -0.56349365151E+03  0.77895796018E+03  0.15294330000E+03 0.  1.
<mgrwt>
<rscale>  0 0.74902097E+03</rscale>
<asrwt>0</asrwt>
<pdfrwt beam="1">  1        1 0.31634080E+00 0.83646217E+03</pdfrwt>
<pdfrwt beam="2">  1       -1 0.11707643E+00 0.83646217E+03</pdfrwt>
<totfact> 0.18638159E+00</totfact>
</mgrwt>
</event>
<event>
 4    1  0.8114601E-008  0.8737268E+03  0.7818608E-02  0.9569598E-01
          1   -1    0    0  501    0  0.00000000000E+00  0.00000000000E+00  0.15770853366E+04  0.15770853366E+04  0.50400000000E-02 0. -1.
         -1   -1    0    0    0  501 -0.00000000000E+00 -0.00000000000E+00 -0.76581096705E+03  0.76581096706E+03  0.50400000000E-02 0.  1.
    8880023    1    1    2    0    0  0.14186658359E+03  0.55629324599E+03  0.13049445572E+04  0.15704390490E+04  0.65864270000E+03 0.  0.
    8880022    1    1    2    0    0 -0.14186658359E+03 -0.55629324599E+03 -0.49367018764E+03  0.77245725465E+03  0.15294330000E+03 0.  0.
<mgrwt>
<rscale>  0 0.79341516E+03</rscale>
<asrwt>0</asrwt>
<pdfrwt beam="1">  1        1 0.24262851E+00 0.87372679E+03</pdfrwt>
<pdfrwt beam="2">  1       -1 0.11781707E+00 0.87372679E+03</pdfrwt>
<totfact> 0.38354279E+00</totfact>
</mgrwt>
</event>
<event>
 4    1  0.8114601E-008  0.7277012E+03  0.7818608E-02  0.9897340E-01
          1   -1    0    0  501    0  0.00000000000E+00  0.00000000000E+00  0.36692039863E+04  0.36692039863E+04  0.50400000000E-02 0. -1.
         -1   -1    0    0    0  501 -0.00000000000E+00 -0.00000000000E+00 -0.41102945533E+03  0.41102945536E+03  0.50400000000E-02 0.  1.
    8880023    1    1    2    0    0 -0.30074681953E+03  0.72733631834E+02  0.35527222067E+04  0.36264837122E+04  0.65864270000E+03 0. -1.
    8880022    1    1    2    0    0  0.30074681953E+03 -0.72733631834E+02 -0.29454767575E+03  0.45374972944E+03  0.15294330000E+03 0.  0.
<mgrwt>
<rscale>  0 0.60390369E+03</rscale>
<asrwt>0</asrwt>
<pdfrwt beam="1">  1        1 0.56449294E+00 0.72770120E+03</pdfrwt>
<pdfrwt beam="2">  1       -1 0.63235299E-01 0.72770120E+03</pdfrwt>
<totfact> 0.51323209E-01</totfact>
</mgrwt>
</event>
<event>
 4    1  0.8114601E-008  0.6924458E+03  0.7818608E-02  0.1003011E+00
         -1   -1    0    0    0  501 -0.00000000000E+00  0.00000000000E+00  0.20667197291E+04  0.20667197291E+04  0.50400000000E-02 0.  1.
          1   -1    0    0  501    0  0.00000000000E+00 -0.00000000000E+00 -0.12651288875E+04  0.12651288875E+04  0.50400000000E-02 0. -1.
    8880023    1    1    2    0    0 -0.12538499427E+03 -0.17305959884E+03 -0.11609604068E+04  0.13517804164E+04  0.65864270000E+03 0. -1.
    8880022    1    1    2    0    0  0.12538499427E+03  0.17305959884E+03  0.19625512484E+04  0.19800682002E+04  0.15294330000E+03 0.  0.
<mgrwt>
<rscale>  0 0.54349403E+03</rscale>
<asrwt>0</asrwt>
<pdfrwt beam="1">  1        1 0.19463522E+00 0.69244583E+03</pdfrwt>
<pdfrwt beam="2">  1       -1 0.31795687E+00 0.69244583E+03</pdfrwt>
<totfact> 0.26291101E-01</totfact>
</mgrwt>
</event>
<event>
 4    1  0.8114601E-008  0.1061007E+04  0.7818608E-02  0.9305765E-01
         -1   -1    0    0    0  501 -0.00000000000E+00  0.00000000000E+00  0.63935702465E+03  0.63935702467E+03  0.50400000000E-02 0.  1.
          1   -1    0    0  501    0  0.00000000000E+00 -0.00000000000E+00 -0.23660375997E+04  0.23660375997E+04  0.50400000000E-02 0. -1.
    8880023    1    1    2    0    0  0.56187957753E+03  0.61336474288E+03 -0.18676259836E+04  0.21479669430E+04  0.65864270000E+03 0.  0.
    8880022    1    1    2    0    0 -0.56187957753E+03 -0.61336474288E+03  0.14094540859E+03  0.85742768131E+03  0.15294330000E+03 0.  0.
<mgrwt>
<rscale>  0 0.10025381E+04</rscale>
<asrwt>0</asrwt>
<pdfrwt beam="1">  1        1 0.36400578E+00 0.10610067E+04</pdfrwt>
<pdfrwt beam="2">  1       -1 0.98362621E-01 0.10610067E+04</pdfrwt>
<totfact> 0.16716426E+00</totfact>
</mgrwt>
</event>
<event>
 4    1  0.1261813E-007  0.7260482E+03  0.7818608E-02  0.9902628E-01
         -1   -1    0    0    0  501 -0.00000000000E+00  0.00000000000E+00  0.71105531141E+03  0.71105531142E+03  0.50400000000E-02 0.  1.
          1   -1    0    0  501    0  0.00000000000E+00 -0.00000000000E+00 -0.16062792102E+04  0.16062792102E+04  0.50400000000E-02 0. -1.
    8880023    1    1    2    0    0  0.13991261607E+03  0.27158830060E+03 -0.14752100404E+04  0.16441990801E+04  0.65864270000E+03 0.  0.
    8880022    1    1    2    0    0 -0.13991261607E+03 -0.27158830060E+03  0.57998614166E+03  0.67313544157E+03  0.15294330000E+03 0.  1.
<mgrwt>
<rscale>  0 0.60134081E+03</rscale>
<asrwt>0</asrwt>
<pdfrwt beam="1">  1        1 0.24711988E+00 0.72604817E+03</pdfrwt>
<pdfrwt beam="2">  1       -1 0.10939312E+00 0.72604817E+03</pdfrwt>
<totfact> 0.44788239E+00</totfact>
</mgrwt>
</event>
<event>
 4    1  0.8114601E-008  0.8833921E+03  0.7818608E-02  0.9553236E-01
         -1   -1    0    0    0  501 -0.00000000000E+00  0.00000000000E+00  0.59348006302E+03  0.59348006304E+03  0.50400000000E-02 0.  1.
          1   -1    0    0  501    0  0.00000000000E+00 -0.00000000000E+00 -0.21244639474E+04  0.21244639474E+04  0.50400000000E-02 0. -1.
    8880023    1    1    2    0    0  0.54961053152E+03  0.21094929558E+03 -0.18360267960E+04  0.20374925628E+04  0.65864270000E+03 0. -1.
    8880022    1    1    2    0    0 -0.54961053152E+03 -0.21094929558E+03  0.30504291161E+03  0.68045144764E+03  0.15294330000E+03 0.  0.
<mgrwt>
<rscale>  0 0.80470168E+03</rscale>
<asrwt>0</asrwt>
<pdfrwt beam="1">  1        1 0.32684060E+00 0.88339207E+03</pdfrwt>
<pdfrwt beam="2">  1       -1 0.91304627E-01 0.88339207E+03</pdfrwt>
<totfact> 0.29574318E+00</totfact>
</mgrwt>
</event>
<event>
 4    1  0.8114601E-008  0.8040855E+03  0.7818608E-02  0.9702031E-01
          1   -1    0    0  501    0  0.00000000000E+00  0.00000000000E+00  0.12309287299E+04  0.12309287299E+04  0.50400000000E-02 0. -1.
         -1   -1    0    0    0  501 -0.00000000000E+00 -0.00000000000E+00 -0.90316439140E+03  0.90316439141E+03  0.50400000000E-02 0.  1.
    8880023    1    1    2    0    0 -0.32978789254E+03 -0.32246443343E+03  0.10134414938E+04  0.12936835906E+04  0.65864270000E+03 0. -1.
    8880022    1    1    2    0    0  0.32978789254E+03  0.32246443343E+03 -0.68567715536E+03  0.84040953070E+03  0.15294330000E+03 0.  0.
<mgrwt>
<rscale>  0 0.70896002E+03</rscale>
<asrwt>0</asrwt>
<pdfrwt beam="1">  1        1 0.18937365E+00 0.80408555E+03</pdfrwt>
<pdfrwt beam="2">  1       -1 0.13894837E+00 0.80408555E+03</pdfrwt>
<totfact> 0.44687146E+00</totfact>
</mgrwt>
</event>
<event>
 4    1  0.8114601E-008  0.7800223E+03  0.7818608E-02  0.9755785E-01
         -1   -1    0    0    0  501 -0.00000000000E+00  0.00000000000E+00  0.79516300088E+03  0.79516300090E+03  0.50400000000E-02 0.  1.
          1   -1    0    0  501    0  0.00000000000E+00 -0.00000000000E+00 -0.13494038008E+04  0.13494038008E+04  0.50400000000E-02 0. -1.
    8880023    1    1    2    0    0 -0.16312290912E+02 -0.41756251052E+03 -0.11569782974E+04  0.13953614327E+04  0.65864270000E+03 0. -1.
    8880022    1    1    2    0    0  0.16312290912E+02  0.41756251052E+03  0.60273749748E+03  0.74920536898E+03  0.15294330000E+03 0.  0.
<mgrwt>
<rscale>  0 0.67790345E+03</rscale>
<asrwt>0</asrwt>
<pdfrwt beam="1">  1        1 0.20760058E+00 0.78002227E+03</pdfrwt>
<pdfrwt beam="2">  1       -1 0.12233277E+00 0.78002227E+03</pdfrwt>
<totfact> 0.50966608E+00</totfact>
</mgrwt>
</event>
<event>
 4    1  0.8114601E-008  0.7938229E+03  0.7818608E-02  0.9724315E-01
         -1   -1    0    0    0  501 -0.00000000000E+00  0.00000000000E+00  0.58404406413E+03  0.58404406415E+03  0.50400000000E-02 0.  1.
          1   -1    0    0  501    0  0.00000000000E+00 -0.00000000000E+00 -0.94355211448E+03  0.94355211449E+03  0.50400000000E-02 0. -1.
    8880023    1    1    2    0    0 -0.30776491916E+02 -0.44203775192E+03 -0.60533208589E+03  0.99828939044E+03  0.65864270000E+03 0.  0.
    8880022    1    1    2    0    0  0.30776491916E+02  0.44203775192E+03  0.24582403554E+03  0.52930678821E+03  0.15294330000E+03 0.  0.
<mgrwt>
<rscale>  0 0.69587369E+03</rscale>
<asrwt>0</asrwt>
<pdfrwt beam="1">  1        1 0.14516186E+00 0.79382289E+03</pdfrwt>
<pdfrwt beam="2">  1       -1 0.89852933E-01 0.79382289E+03</pdfrwt>
<totfact> 0.20807800E+01</totfact>
</mgrwt>
</event>
<event>
 4    1  0.8133028E-008  0.1601173E+04  0.7818608E-02  0.8841312E-01
         -1   -1    0    0    0  501 -0.00000000000E+00  0.00000000000E+00  0.27143016210E+04  0.27143016210E+04  0.50400000000E-02 0.  1.
          1   -1    0    0  501    0  0.00000000000E+00 -0.00000000000E+00 -0.18988258224E+04  0.18988258224E+04  0.50400000000E-02 0. -1.
    8880023    1    1    2    0    0 -0.12303758882E+04 -0.78493229585E+03 -0.12834746702E+04  0.20520869793E+04  0.65864270000E+03 0.  0.
    8880022    1    1    2    0    0  0.12303758882E+04  0.78493229585E+03  0.20989504688E+04  0.25610404641E+04  0.15294330000E+03 0.  0.
<mgrwt>
<rscale>  0 0.15666341E+04</rscale>
<asrwt>0</asrwt>
<pdfrwt beam="1">  1        1 0.29212705E+00 0.16011726E+04</pdfrwt>
<pdfrwt beam="2">  1       -1 0.41758486E+00 0.16011726E+04</pdfrwt>
<totfact> 0.17608576E-02</totfact>
</mgrwt>
</event>
<event>
 4    1  0.8114601E-008  0.1047394E+04  0.7818608E-02  0.9322021E-01
          1   -1    0    0  501    0  0.00000000000E+00  0.00000000000E+00  0.31760826848E+04  0.31760826848E+04  0.50400000000E-02 0. -1.
         -1   -1    0    0    0  501 -0.00000000000E+00 -0.00000000000E+00 -0.98350587351E+03  0.98350587352E+03  0.50400000000E-02 0.  1.
    8880023    1    1    2    0    0  0.81332816670E+03  0.41478452139E+02  0.28916323752E+04  0.30754790144E+04  0.65864270000E+03 0. -1.
    8880022    1    1    2    0    0 -0.81332816670E+03 -0.41478452139E+02 -0.69905556389E+03  0.10841095439E+04  0.15294330000E+03 0.  0.
<mgrwt>
<rscale>  0 0.98780583E+03</rscale>
<asrwt>0</asrwt>
<pdfrwt beam="1">  1        1 0.48862811E+00 0.10473936E+04</pdfrwt>
<pdfrwt beam="2">  1       -1 0.15130860E+00 0.10473936E+04</pdfrwt>
<totfact> 0.15431671E-01</totfact>
</mgrwt>
</event>
<event>
 4    1  0.8114601E-008  0.8298444E+03  0.7818608E-02  0.9649635E-01
          1   -1    0    0  501    0  0.00000000000E+00  0.00000000000E+00  0.32347894438E+04  0.32347894438E+04  0.50400000000E-02 0. -1.
         -1   -1    0    0    0  501 -0.00000000000E+00 -0.00000000000E+00 -0.50421017198E+03  0.50421017201E+03  0.50400000000E-02 0.  1.
    8880023    1    1    2    0    0  0.67469995004E+02  0.50027925867E+03  0.30237345811E+04  0.31355402341E+04  0.65864270000E+03 0. -1.
    8880022    1    1    2    0    0 -0.67469995004E+02 -0.50027925867E+03 -0.29315530930E+03  0.60345938163E+03  0.15294330000E+03 0.  0.
<mgrwt>
<rscale>  0 0.74096325E+03</rscale>
<asrwt>0</asrwt>
<pdfrwt beam="1">  1        1 0.49765989E+00 0.82984441E+03</pdfrwt>
<pdfrwt beam="2">  1       -1 0.77570800E-01 0.82984441E+03</pdfrwt>
<totfact> 0.71139927E-01</totfact>
</mgrwt>
</event>
<event>
 4    1  0.8114601E-008  0.1017245E+04  0.7818608E-02  0.9359336E-01
         -1   -1    0    0    0  501 -0.00000000000E+00  0.00000000000E+00  0.46103534224E+03  0.46103534226E+03  0.50400000000E-02 0.  1.
          1   -1    0    0  501    0  0.00000000000E+00 -0.00000000000E+00 -0.19715707967E+04  0.19715707967E+04  0.50400000000E-02 0. -1.
    8880023    1    1    2    0    0 -0.74557775988E+03 -0.21234443206E+03 -0.12253046591E+04  0.15925319675E+04  0.65864270000E+03 0.  0.
    8880022    1    1    2    0    0  0.74557775988E+03  0.21234443206E+03 -0.28523079541E+03  0.84007417144E+03  0.15294330000E+03 0.  0.
<mgrwt>
<rscale>  0 0.95499066E+03</rscale>
<asrwt>0</asrwt>
<pdfrwt beam="1">  1        1 0.30331858E+00 0.10172446E+04</pdfrwt>
<pdfrwt beam="2">  1       -1 0.70928515E-01 0.10172446E+04</pdfrwt>
<totfact> 0.63111806E+00</totfact>
</mgrwt>
</event>
<event>
 4    1  0.8114601E-008  0.2206750E+04  0.7818608E-02  0.8525707E-01
         -1   -1    0    0    0  501 -0.00000000000E+00  0.00000000000E+00  0.23212968789E+04  0.23212968789E+04  0.50400000000E-02 0.  1.
          1   -1    0    0  501    0  0.00000000000E+00 -0.00000000000E+00 -0.22488390313E+04  0.22488390313E+04  0.50400000000E-02 0. -1.
    8880023    1    1    2    0    0 -0.71899336139E+02  0.21049388199E+04  0.78382928008E+03  0.23418231139E+04  0.65864270000E+03 0.  0.
    8880022    1    1    2    0    0  0.71899336139E+02 -0.21049388199E+04 -0.71137143252E+03  0.22283127963E+04  0.15294330000E+03 0.  0.
<mgrwt>
<rscale>  0 0.21825972E+04</rscale>
<asrwt>0</asrwt>
<pdfrwt beam="1">  1        1 0.34597524E+00 0.22067504E+04</pdfrwt>
<pdfrwt beam="2">  1       -1 0.35712260E+00 0.22067504E+04</pdfrwt>
<totfact> 0.24411137E-02</totfact>
</mgrwt>
</event>
<event>
 4    1  0.8114601E-008  0.1081817E+04  0.7818608E-02  0.9281575E-01
         -1   -1    0    0    0  501 -0.00000000000E+00  0.00000000000E+00  0.19696480272E+04  0.19696480272E+04  0.50400000000E-02 0.  1.
          1   -1    0    0  501    0  0.00000000000E+00 -0.00000000000E+00 -0.12064034990E+04  0.12064034991E+04  0.50400000000E-02 0. -1.
    8880023    1    1    2    0    0 -0.27096151148E+03 -0.81430863519E+03 -0.82756491677E+03  0.13620545480E+04  0.65864270000E+03 0. -1.
    8880022    1    1    2    0    0  0.27096151148E+03  0.81430863519E+03  0.15908094449E+04  0.18139969783E+04  0.15294330000E+03 0.  0.
<mgrwt>
<rscale>  0 0.10249691E+04</rscale>
<asrwt>0</asrwt>
<pdfrwt beam="1">  1        1 0.18560054E+00 0.10818174E+04</pdfrwt>
<pdfrwt beam="2">  1       -1 0.30302277E+00 0.10818174E+04</pdfrwt>
<totfact> 0.33432174E-01</totfact>
</mgrwt>
</event>
<event>
 4    1  0.8114601E-008  0.1369946E+04  0.7818608E-02  0.9007395E-01
          1   -1    0    0  501    0  0.00000000000E+00  0.00000000000E+00  0.14541002458E+04  0.14541002459E+04  0.50400000000E-02 0. -1.
         -1   -1    0    0    0  501 -0.00000000000E+00 -0.00000000000E+00 -0.15332588691E+04  0.15332588691E+04  0.50400000000E-02 0.  1.
    8880023    1    1    2    0    0 -0.10817637408E+04  0.52223366880E+03  0.70899091376E+03  0.15425365856E+04  0.65864270000E+03 0.  0.
    8880022    1    1    2    0    0  0.10817637408E+04 -0.52223366880E+03 -0.78814953702E+03  0.14448225294E+04  0.15294330000E+03 0.  0.
<mgrwt>
<rscale>  0 0.13283317E+04</rscale>
<asrwt>0</asrwt>
<pdfrwt beam="1">  1        1 0.22370773E+00 0.13699456E+04</pdfrwt>
<pdfrwt beam="2">  1       -1 0.23588598E+00 0.13699456E+04</pdfrwt>
<totfact> 0.58336726E-01</totfact>
</mgrwt>
</event>
<event>
 4    1  0.8114601E-008  0.1027772E+04  0.7818608E-02  0.9346093E-01
         -1   -1    0    0    0  501 -0.00000000000E+00  0.00000000000E+00  0.62975256687E+03  0.62975256689E+03  0.50400000000E-02 0.  1.
          1   -1    0    0  501    0  0.00000000000E+00 -0.00000000000E+00 -0.18653147993E+04  0.18653147993E+04  0.50400000000E-02 0. -1.
    8880023    1    1    2    0    0  0.49014321274E+03  0.61827492652E+03 -0.13355090185E+04  0.16851999284E+04  0.65864270000E+03 0. -1.
    8880022    1    1    2    0    0 -0.49014321274E+03 -0.61827492652E+03  0.99946786117E+02  0.80986743781E+03  0.15294330000E+03 0.  0.
<mgrwt>
<rscale>  0 0.96647979E+03</rscale>
<asrwt>0</asrwt>
<pdfrwt beam="1">  1        1 0.28697151E+00 0.10277716E+04</pdfrwt>
<pdfrwt beam="2">  1       -1 0.96885011E-01 0.10277716E+04</pdfrwt>
<totfact> 0.37896678E+00</totfact>
</mgrwt>
</event>
<event>
 4    1  0.8114601E-008  0.7595733E+03  0.7818608E-02  0.9806213E-01
          1   -1    0    0  501    0  0.00000000000E+00  0.00000000000E+00  0.84322773679E+03  0.84322773681E+03  0.50400000000E-02 0. -1.
         -1   -1    0    0    0  501 -0.00000000000E+00 -0.00000000000E+00 -0.14679701916E+04  0.14679701916E+04  0.50400000000E-02 0.  1.
    8880023    1    1    2    0    0 -0.19626803385E+03  0.32345053884E+03  0.63309518547E+03  0.98881803802E+03  0.65864270000E+03 0.  0.
    8880022    1    1    2    0    0  0.19626803385E+03 -0.32345053884E+03 -0.12578376403E+04  0.13223798904E+04  0.15294330000E+03 0.  0.
<mgrwt>
<rscale>  0 0.65030160E+03</rscale>
<asrwt>0</asrwt>
<pdfrwt beam="1">  1        1 0.12972734E+00 0.75957330E+03</pdfrwt>
<pdfrwt beam="2">  1       -1 0.22584157E+00 0.75957330E+03</pdfrwt>
<totfact> 0.21278978E+00</totfact>
</mgrwt>
</event>
<event>
 4    1  0.8114601E-008  0.6613254E+03  0.7818608E-02  0.1022838E+00
          1   -1    0    0  501    0  0.00000000000E+00  0.00000000000E+00  0.15451284353E+04  0.15451284353E+04  0.50400000000E-02 0. -1.
         -1   -1    0    0    0  501 -0.00000000000E+00 -0.00000000000E+00 -0.60404275116E+03  0.60404275118E+03  0.50400000000E-02 0.  1.
    8880023    1    1    2    0    0 -0.54647865944E+02 -0.23551110938E+02  0.14611420599E+04  0.16038352065E+04  0.65864270000E+03 0. -1.
    8880022    1    1    2    0    0  0.54647865944E+02  0.23551110938E+02 -0.52005637577E+03  0.54533597999E+03  0.15294330000E+03 0.  0.
<mgrwt>
<rscale>  0 0.46676294E+03</rscale>
<asrwt>0</asrwt>
<pdfrwt beam="1">  1        1 0.23771206E+00 0.66132537E+03</pdfrwt>
<pdfrwt beam="2">  1       -1 0.92929655E-01 0.66132537E+03</pdfrwt>
<totfact> 0.72357057E+00</totfact>
</mgrwt>
</event>
<event>
 4    1  0.8114601E-008  0.8102840E+03  0.7818608E-02  0.9688986E-01
          1   -1    0    0  501    0  0.00000000000E+00  0.00000000000E+00  0.14997171976E+04  0.14997171976E+04  0.50400000000E-02 0. -1.
         -1   -1    0    0    0  501 -0.00000000000E+00 -0.00000000000E+00 -0.95200996598E+03  0.95200996599E+03  0.50400000000E-02 0.  1.
    8880023    1    1    2    0    0  0.28181594835E+03 -0.37858906722E+03  0.13111014226E+04  0.15412809793E+04  0.65864270000E+03 0. -1.
    8880022    1    1    2    0    0 -0.28181594835E+03  0.37858906722E+03 -0.76339419100E+03  0.91044618426E+03  0.15294330000E+03 0.  0.
<mgrwt>
<rscale>  0 0.71676379E+03</rscale>
<asrwt>0</asrwt>
<pdfrwt beam="1">  1        1 0.23072572E+00 0.81028397E+03</pdfrwt>
<pdfrwt beam="2">  1       -1 0.14646307E+00 0.81028397E+03</pdfrwt>
<totfact> 0.25189568E+00</totfact>
</mgrwt>
</event>
<event>
 4    1  0.8114601E-008  0.1426910E+04  0.7818608E-02  0.8963050E-01
         -1   -1    0    0    0  501 -0.00000000000E+00  0.00000000000E+00  0.13641305500E+04  0.13641305500E+04  0.50400000000E-02 0.  1.
          1   -1    0    0  501    0  0.00000000000E+00 -0.00000000000E+00 -0.15956793412E+04  0.15956793412E+04  0.50400000000E-02 0. -1.
    8880023    1    1    2    0    0 -0.10740793630E+04  0.66978717196E+03 -0.71524234630E+03  0.15961338145E+04  0.65864270000E+03 0.  0.
    8880022    1    1    2    0    0  0.10740793630E+04 -0.66978717196E+03  0.48369355508E+03  0.13636760766E+04  0.15294330000E+03 0.  0.
<mgrwt>
<rscale>  0 0.13873175E+04</rscale>
<asrwt>0</asrwt>
<pdfrwt beam="1">  1        1 0.24548913E+00 0.14269098E+04</pdfrwt>
<pdfrwt beam="2">  1       -1 0.20986624E+00 0.14269098E+04</pdfrwt>
<totfact> 0.69047699E-01</totfact>
</mgrwt>
</event>
<event>
 4    1  0.8114601E-008  0.1086584E+04  0.7818608E-02  0.9276142E-01
          1   -1    0    0  501    0  0.00000000000E+00  0.00000000000E+00  0.20708365304E+04  0.20708365304E+04  0.50400000000E-02 0. -1.
         -1   -1    0    0    0  501 -0.00000000000E+00 -0.00000000000E+00 -0.70824837674E+03  0.70824837676E+03  0.50400000000E-02 0.  1.
    8880023    1    1    2    0    0  0.81920573257E+03 -0.27523954925E+03  0.15389656361E+04  0.18839002832E+04  0.65864270000E+03 0.  0.
    8880022    1    1    2    0    0 -0.81920573257E+03  0.27523954925E+03 -0.17637748239E+03  0.89518462400E+03  0.15294330000E+03 0.  0.
<mgrwt>
<rscale>  0 0.10300925E+04</rscale>
<asrwt>0</asrwt>
<pdfrwt beam="1">  1        1 0.31859023E+00 0.10865841E+04</pdfrwt>
<pdfrwt beam="2">  1       -1 0.10896129E+00 0.10865841E+04</pdfrwt>
<totfact> 0.20819408E+00</totfact>
</mgrwt>
</event>
<event>
 4    1  0.8114601E-008  0.8164493E+03  0.7818608E-02  0.9676297E-01
          1   -1    0    0  501    0  0.00000000000E+00  0.00000000000E+00  0.15062722481E+04  0.15062722481E+04  0.50400000000E-02 0. -1.
         -1   -1    0    0    0  501 -0.00000000000E+00 -0.00000000000E+00 -0.10365788523E+04  0.10365788523E+04  0.50400000000E-02 0.  1.
    8880023    1    1    2    0    0 -0.80651432637E+02  0.47568325126E+03  0.13207121704E+04  0.15526976694E+04  0.65864270000E+03 0. -1.
    8880022    1    1    2    0    0  0.80651432637E+02 -0.47568325126E+03 -0.85101877468E+03  0.99015343103E+03  0.15294330000E+03 0.  0.
<mgrwt>
<rscale>  0 0.72445785E+03</rscale>
<asrwt>0</asrwt>
<pdfrwt beam="1">  1        1 0.23173419E+00 0.81644927E+03</pdfrwt>
<pdfrwt beam="2">  1       -1 0.15947367E+00 0.81644927E+03</pdfrwt>
<totfact> 0.19767022E+00</totfact>
</mgrwt>
</event>
<event>
 4    1  0.8114601E-008  0.8762514E+03  0.7818608E-02  0.9565285E-01
         -1   -1    0    0    0  501 -0.00000000000E+00  0.00000000000E+00  0.19941580760E+04  0.19941580760E+04  0.50400000000E-02 0.  1.
          1   -1    0    0  501    0  0.00000000000E+00 -0.00000000000E+00 -0.71564588140E+03  0.71564588141E+03  0.50400000000E-02 0. -1.
    8880023    1    1    2    0    0  0.30972268494E+03 -0.48793255219E+03 -0.37381168681E+03  0.95265507951E+03  0.65864270000E+03 0. -1.
    8880022    1    1    2    0    0 -0.30972268494E+03  0.48793255219E+03  0.16523238815E+04  0.17571488780E+04  0.15294330000E+03 0.  0.
<mgrwt>
<rscale>  0 0.79637122E+03</rscale>
<asrwt>0</asrwt>
<pdfrwt beam="1">  1        1 0.11009937E+00 0.87625140E+03</pdfrwt>
<pdfrwt beam="2">  1       -1 0.30679354E+00 0.87625140E+03</pdfrwt>
<totfact> 0.81294884E-01</totfact>
</mgrwt>
</event>
<event>
 4    1  0.8114601E-008  0.1212159E+04  0.7818608E-02  0.9145393E-01
          1   -1    0    0  501    0  0.00000000000E+00  0.00000000000E+00  0.11459660595E+04  0.11459660595E+04  0.50400000000E-02 0. -1.
         -1   -1    0    0    0  501 -0.00000000000E+00 -0.00000000000E+00 -0.18411610670E+04  0.18411610670E+04  0.50400000000E-02 0.  1.
    8880023    1    1    2    0    0  0.10015704460E+04 -0.17993195900E+03 -0.13129197193E+04  0.17869211689E+04  0.65864270000E+03 0.  0.
    8880022    1    1    2    0    0 -0.10015704460E+04  0.17993195900E+03  0.61772471175E+03  0.12002059577E+04  0.15294330000E+03 0.  0.
<mgrwt>
<rscale>  0 0.11635286E+04</rscale>
<asrwt>0</asrwt>
<pdfrwt beam="1">  1        1 0.17630247E+00 0.12121588E+04</pdfrwt>
<pdfrwt beam="2">  1       -1 0.28325555E+00 0.12121588E+04</pdfrwt>
<totfact> 0.48756952E-01</totfact>
</mgrwt>
</event>
<event>
 4    1  0.8114601E-008  0.1258761E+04  0.7818608E-02  0.9102017E-01
         -1   -1    0    0    0  501 -0.00000000000E+00  0.00000000000E+00  0.78184251194E+03  0.78184251196E+03  0.50400000000E-02 0.  1.
          1   -1    0    0  501    0  0.00000000000E+00 -0.00000000000E+00 -0.18331221670E+04  0.18331221670E+04  0.50400000000E-02 0. -1.
    8880023    1    1    2    0    0 -0.10695234225E+04 -0.82388906048E+02 -0.29289212105E+03  0.12923870488E+04  0.65864270000E+03 0. -1.
    8880022    1    1    2    0    0  0.10695234225E+04  0.82388906048E+02 -0.75838753398E+03  0.13225776301E+04  0.15294330000E+03 0.  0.
<mgrwt>
<rscale>  0 0.12124635E+04</rscale>
<asrwt>0</asrwt>
<pdfrwt beam="1">  1        1 0.28201879E+00 0.12587607E+04</pdfrwt>
<pdfrwt beam="2">  1       -1 0.12028346E+00 0.12587607E+04</pdfrwt>
<totfact> 0.23266775E+00</totfact>
</mgrwt>
</event>
<event>
 4    1  0.8114601E-008  0.1211451E+04  0.7818608E-02  0.9146071E-01
         -1   -1    0    0    0  501 -0.00000000000E+00  0.00000000000E+00  0.10207137038E+04  0.10207137038E+04  0.50400000000E-02 0.  1.
          1   -1    0    0  501    0  0.00000000000E+00 -0.00000000000E+00 -0.14799787801E+04  0.14799787801E+04  0.50400000000E-02 0. -1.
    8880023    1    1    2    0    0  0.44539082133E+03 -0.91401829694E+03  0.26868534144E+03  0.12408885727E+04  0.65864270000E+03 0.  0.
    8880022    1    1    2    0    0 -0.44539082133E+03  0.91401829694E+03 -0.72795041775E+03  0.12598039112E+04  0.15294330000E+03 0.  0.
<mgrwt>
<rscale>  0 0.11627829E+04</rscale>
<asrwt>0</asrwt>
<pdfrwt beam="1">  1        1 0.22768904E+00 0.12114506E+04</pdfrwt>
<pdfrwt beam="2">  1       -1 0.15703288E+00 0.12114506E+04</pdfrwt>
<totfact> 0.20367150E+00</totfact>
</mgrwt>
</event>
<event>
 4    1  0.8114601E-008  0.1285551E+04  0.7818608E-02  0.9078139E-01
          1   -1    0    0  501    0  0.00000000000E+00  0.00000000000E+00  0.47530644261E+04  0.47530644261E+04  0.50400000000E-02 0. -1.
         -1   -1    0    0    0  501 -0.00000000000E+00 -0.00000000000E+00 -0.63034172235E+03  0.63034172238E+03  0.50400000000E-02 0.  1.
    8880023    1    1    2    0    0  0.38258178629E+03  0.10355971965E+04  0.40693472570E+04  0.42675786673E+04  0.65864270000E+03 0.  0.
    8880022    1    1    2    0    0 -0.38258178629E+03 -0.10355971965E+04  0.53375446721E+02  0.11158274812E+04  0.15294330000E+03 0.  0.
<mgrwt>
<rscale>  0 0.12404858E+04</rscale>
<asrwt>0</asrwt>
<pdfrwt beam="1">  1        1 0.73124070E+00 0.12855507E+04</pdfrwt>
<pdfrwt beam="2">  1       -1 0.96975647E-01 0.12855507E+04</pdfrwt>
<totfact> 0.17922532E-02</totfact>
</mgrwt>
</event>
<event>
 4    1  0.8114601E-008  0.7302164E+03  0.7818608E-02  0.9889421E-01
         -1   -1    0    0    0  501 -0.00000000000E+00  0.00000000000E+00  0.25854939234E+03  0.25854939238E+03  0.50400000000E-02 0.  1.
          1   -1    0    0  501    0  0.00000000000E+00 -0.00000000000E+00 -0.16883493977E+04  0.16883493977E+04  0.50400000000E-02 0. -1.
    8880023    1    1    2    0    0 -0.26396018898E+03  0.17242606037E+03 -0.14195184111E+04  0.15963234175E+04  0.65864270000E+03 0.  0.
    8880022    1    1    2    0    0  0.26396018898E+03 -0.17242606037E+03 -0.10281594278E+02  0.35057537257E+03  0.15294330000E+03 0.  0.
<mgrwt>
<rscale>  0 0.60776727E+03</rscale>
<asrwt>0</asrwt>
<pdfrwt beam="1">  1        1 0.25974605E+00 0.73021636E+03</pdfrwt>
<pdfrwt beam="2">  1       -1 0.39776831E-01 0.73021636E+03</pdfrwt>
<totfact> 0.30953780E+01</totfact>
</mgrwt>
</event>
<event>
 4    1  0.8114601E-008  0.1470570E+04  0.7818608E-02  0.8930702E-01
         -1   -1    0    0    0  501 -0.00000000000E+00  0.00000000000E+00  0.11555059573E+04  0.11555059573E+04  0.50400000000E-02 0.  1.
          1   -1    0    0  501    0  0.00000000000E+00 -0.00000000000E+00 -0.21766061064E+04  0.21766061064E+04  0.50400000000E-02 0. -1.
    8880023    1    1    2    0    0  0.12478582606E+04  0.41426564729E+03  0.25610809783E+03  0.14927048701E+04  0.65864270000E+03 0.  0.
    8880022    1    1    2    0    0 -0.12478582606E+04 -0.41426564729E+03 -0.12772082470E+04  0.18394071937E+04  0.15294330000E+03 0.  0.
<mgrwt>
<rscale>  0 0.14323889E+04</rscale>
<asrwt>0</asrwt>
<pdfrwt beam="1">  1        1 0.33486248E+00 0.14705701E+04</pdfrwt>
<pdfrwt beam="2">  1       -1 0.17777015E+00 0.14705701E+04</pdfrwt>
<totfact> 0.46370182E-01</totfact>
</mgrwt>
</event>
<event>
 4    1  0.8114601E-008  0.7426455E+03  0.7818608E-02  0.9852307E-01
          1   -1    0    0  501    0  0.00000000000E+00  0.00000000000E+00  0.19606584199E+04  0.19606584199E+04  0.50400000000E-02 0. -1.
         -1   -1    0    0    0  501 -0.00000000000E+00 -0.00000000000E+00 -0.25477826040E+03  0.25477826045E+03  0.50400000000E-02 0.  1.
    8880023    1    1    2    0    0  0.10319494016E+03 -0.32720477754E+03  0.16824543528E+04  0.18390690628E+04  0.65864270000E+03 0.  0.
    8880022    1    1    2    0    0 -0.10319494016E+03  0.32720477754E+03  0.23425806676E+02  0.37636761757E+03  0.15294330000E+03 0.  0.
<mgrwt>
<rscale>  0 0.62629439E+03</rscale>
<asrwt>0</asrwt>
<pdfrwt beam="1">  1        1 0.30163975E+00 0.74264552E+03</pdfrwt>
<pdfrwt beam="2">  1       -1 0.39196656E-01 0.74264552E+03</pdfrwt>
<totfact> 0.20854995E+01</totfact>
</mgrwt>
</event>
<event>
 4    1  0.8114601E-008  0.1042400E+04  0.7818608E-02  0.9328074E-01
         -1   -1    0    0    0  501 -0.00000000000E+00  0.00000000000E+00  0.65909462721E+03  0.65909462723E+03  0.50400000000E-02 0.  1.
          1   -1    0    0  501    0  0.00000000000E+00 -0.00000000000E+00 -0.19781105754E+04  0.19781105754E+04  0.50400000000E-02 0. -1.
    8880023    1    1    2    0    0 -0.51582516652E+03 -0.62186174063E+03 -0.14690721536E+04  0.18013247418E+04  0.65864270000E+03 0.  0.
    8880022    1    1    2    0    0  0.51582516652E+03  0.62186174063E+03  0.15005620542E+03  0.83588046076E+03  0.15294330000E+03 0.  0.
<mgrwt>
<rscale>  0 0.98238912E+03</rscale>
<asrwt>0</asrwt>
<pdfrwt beam="1">  1        1 0.30432470E+00 0.10424000E+04</pdfrwt>
<pdfrwt beam="2">  1       -1 0.10139917E+00 0.10424000E+04</pdfrwt>
<totfact> 0.28610443E+00</totfact>
</mgrwt>
</event>
<event>
 4    1  0.8114601E-008  0.7501227E+03  0.7818608E-02  0.9831385E-01
          1   -1    0    0  501    0  0.00000000000E+00  0.00000000000E+00  0.11009464950E+04  0.11009464950E+04  0.50400000000E-02 0. -1.
         -1   -1    0    0    0  501 -0.00000000000E+00 -0.00000000000E+00 -0.42147983584E+03  0.42147983587E+03  0.50400000000E-02 0.  1.
    8880023    1    1    2    0    0  0.27011366928E+03 -0.23645809616E+03  0.81658309522E+03  0.11088245953E+04  0.65864270000E+03 0. -1.
    8880022    1    1    2    0    0 -0.27011366928E+03  0.23645809616E+03 -0.13711643608E+03  0.41360173553E+03  0.15294330000E+03 0.  0.
<mgrwt>
<rscale>  0 0.63705130E+03</rscale>
<asrwt>0</asrwt>
<pdfrwt beam="1">  1        1 0.16937638E+00 0.75012268E+03</pdfrwt>
<pdfrwt beam="2">  1       -1 0.64843053E-01 0.75012268E+03</pdfrwt>
<totfact> 0.31368003E+01</totfact>
</mgrwt>
</event>
<event>
 4    1  0.8114601E-008  0.8463064E+03  0.7818608E-02  0.9618402E-01
         -1   -1    0    0    0  501 -0.00000000000E+00  0.00000000000E+00  0.62061723051E+03  0.62061723053E+03  0.50400000000E-02 0.  1.
          1   -1    0    0  501    0  0.00000000000E+00 -0.00000000000E+00 -0.10726731221E+04  0.10726731221E+04  0.50400000000E-02 0. -1.
    8880023    1    1    2    0    0 -0.53060548621E+03 -0.29699874422E+02 -0.68934273205E+03  0.10915254798E+04  0.65864270000E+03 0.  0.
    8880022    1    1    2    0    0  0.53060548621E+03  0.29699874422E+02  0.23728684046E+03  0.60176487286E+03  0.15294330000E+03 0.  0.
<mgrwt>
<rscale>  0 0.76090111E+03</rscale>
<asrwt>0</asrwt>
<pdfrwt beam="1">  1        1 0.16502663E+00 0.84630637E+03</pdfrwt>
<pdfrwt beam="2">  1       -1 0.95479574E-01 0.84630637E+03</pdfrwt>
<totfact> 0.14350293E+01</totfact>
</mgrwt>
</event>
<event>
 4    1  0.8114601E-008  0.1585638E+04  0.7818608E-02  0.8851417E-01
         -1   -1    0    0    0  501 -0.00000000000E+00  0.00000000000E+00  0.21397838807E+04  0.21397838807E+04  0.50400000000E-02 0.  1.
          1   -1    0    0  501    0  0.00000000000E+00 -0.00000000000E+00 -0.11470464196E+04  0.11470464196E+04  0.50400000000E-02 0. -1.
    8880023    1    1    2    0    0  0.44684134877E+03 -0.13714118372E+04  0.92296071689E+03  0.18346946093E+04  0.65864270000E+03 0.  1.
    8880022    1    1    2    0    0 -0.44684134877E+03  0.13714118372E+04  0.69776744225E+02  0.14521356910E+04  0.15294330000E+03 0.  0.
<mgrwt>
<rscale>  0 0.15507056E+04</rscale>
<asrwt>0</asrwt>
<pdfrwt beam="1">  1        1 0.17646868E+00 0.15856380E+04</pdfrwt>
<pdfrwt beam="2">  1       -1 0.32919752E+00 0.15856380E+04</pdfrwt>
<totfact> 0.23441711E-01</totfact>
</mgrwt>
</event>
<event>
 4    1  0.8114601E-008  0.1811188E+04  0.7818608E-02  0.8716373E-01
          1   -1    0    0  501    0  0.00000000000E+00  0.00000000000E+00  0.27555726546E+04  0.27555726546E+04  0.50400000000E-02 0. -1.
         -1   -1    0    0    0  501 -0.00000000000E+00 -0.00000000000E+00 -0.13186177044E+04  0.13186177044E+04  0.50400000000E-02 0.  1.
    8880023    1    1    2    0    0 -0.56965764361E+03 -0.15881061047E+04  0.15393834480E+04  0.23769944125E+04  0.65864270000E+03 0.  0.
    8880022    1    1    2    0    0  0.56965764361E+03  0.15881061047E+04 -0.10242849782E+03  0.16971959465E+04  0.15294330000E+03 0.  0.
<mgrwt>
<rscale>  0 0.17811788E+04</rscale>
<asrwt>0</asrwt>
<pdfrwt beam="1">  1        1 0.42393425E+00 0.18111877E+04</pdfrwt>
<pdfrwt beam="2">  1       -1 0.20286426E+00 0.18111877E+04</pdfrwt>
<totfact> 0.11762673E-01</totfact>
</mgrwt>
</event>
<event>
 4    1  0.8114601E-008  0.1102848E+04  0.7818608E-02  0.9257892E-01
          1   -1    0    0  501    0  0.00000000000E+00  0.00000000000E+00  0.29667965234E+04  0.29667965234E+04  0.50400000000E-02 0. -1.
         -1   -1    0    0    0  501 -0.00000000000E+00 -0.00000000000E+00 -0.10726329523E+04  0.10726329524E+04  0.50400000000E-02 0.  1.
    8880023    1    1    2    0    0 -0.61224459970E+03 -0.63845121637E+03  0.26471819398E+04  0.28677248533E+04  0.65864270000E+03 0.  0.
    8880022    1    1    2    0    0  0.61224459970E+03  0.63845121637E+03 -0.75301836876E+03  0.11717046224E+04  0.15294330000E+03 0.  0.
<mgrwt>
<rscale>  0 0.10475357E+04</rscale>
<asrwt>0</asrwt>
<pdfrwt beam="1">  1        1 0.45643024E+00 0.11028480E+04</pdfrwt>
<pdfrwt beam="2">  1       -1 0.16502045E+00 0.11028480E+04</pdfrwt>
<totfact> 0.17067368E-01</totfact>
</mgrwt>
</event>
<event>
 4    1  0.8114601E-008  0.1134960E+04  0.7818608E-02  0.9223095E-01
         -1   -1    0    0    0  501 -0.00000000000E+00  0.00000000000E+00  0.86519288256E+03  0.86519288257E+03  0.50400000000E-02 0.  1.
          1   -1    0    0  501    0  0.00000000000E+00 -0.00000000000E+00 -0.30169983319E+04  0.30169983319E+04  0.50400000000E-02 0. -1.
    8880023    1    1    2    0    0 -0.77366634906E+03 -0.50573232981E+03 -0.26049725031E+04  0.28414814371E+04  0.65864270000E+03 0. -1.
    8880022    1    1    2    0    0  0.77366634906E+03  0.50573232981E+03  0.45316705378E+03  0.10407097774E+04  0.15294330000E+03 0.  0.
<mgrwt>
<rscale>  0 0.10818195E+04</rscale>
<asrwt>0</asrwt>
<pdfrwt beam="1">  1        1 0.46415359E+00 0.11349604E+04</pdfrwt>
<pdfrwt beam="2">  1       -1 0.13310660E+00 0.11349604E+04</pdfrwt>
<totfact> 0.27860651E-01</totfact>
</mgrwt>
</event>
<event>
 4    1  0.8114601E-008  0.8829228E+03  0.7818608E-02  0.9554022E-01
         -1   -1    0    0    0  501 -0.00000000000E+00  0.00000000000E+00  0.15553336869E+04  0.15553336869E+04  0.50400000000E-02 0.  1.
          1   -1    0    0  501    0  0.00000000000E+00 -0.00000000000E+00 -0.16083809615E+04  0.16083809615E+04  0.50400000000E-02 0. -1.
    8880023    1    1    2    0    0  0.31268317311E+03  0.49796748796E+03 -0.14175674273E+04  0.16700449105E+04  0.65864270000E+03 0. -1.
    8880022    1    1    2    0    0 -0.31268317311E+03 -0.49796748796E+03  0.13645201527E+04  0.14936697379E+04  0.15294330000E+03 0.  0.
<mgrwt>
<rscale>  0 0.80415551E+03</rscale>
<asrwt>0</asrwt>
<pdfrwt beam="1">  1        1 0.24744322E+00 0.88292276E+03</pdfrwt>
<pdfrwt beam="2">  1       -1 0.23928211E+00 0.88292276E+03</pdfrwt>
<totfact> 0.46607262E-01</totfact>
</mgrwt>
</event>
<event>
 4    1  0.8114601E-008  0.1114763E+04  0.7818608E-02  0.9244794E-01
         -1   -1    0    0    0  501 -0.00000000000E+00  0.00000000000E+00  0.90538631530E+03  0.90538631531E+03  0.50400000000E-02 0.  1.
          1   -1    0    0  501    0  0.00000000000E+00 -0.00000000000E+00 -0.24625276376E+04  0.24625276376E+04  0.50400000000E-02 0. -1.
    8880023    1    1    2    0    0 -0.83962852882E+03  0.32235239014E+03 -0.20481570054E+04  0.23318757375E+04  0.65864270000E+03 0.  0.
    8880022    1    1    2    0    0  0.83962852882E+03 -0.32235239014E+03  0.49101568311E+03  0.10360382155E+04  0.15294330000E+03 0.  1.
<mgrwt>
<rscale>  0 0.10602801E+04</rscale>
<asrwt>0</asrwt>
<pdfrwt beam="1">  1        1 0.37885040E+00 0.11147634E+04</pdfrwt>
<pdfrwt beam="2">  1       -1 0.13929020E+00 0.11147634E+04</pdfrwt>
<totfact> 0.61051631E-01</totfact>
</mgrwt>
</event>
<event>
 4    1  0.8114601E-008  0.1113715E+04  0.7818608E-02  0.9245937E-01
         -1   -1    0    0    0  501 -0.00000000000E+00  0.00000000000E+00  0.50561971816E+03  0.50561971819E+03  0.50400000000E-02 0.  1.
          1   -1    0    0  501    0  0.00000000000E+00 -0.00000000000E+00 -0.26296334473E+04  0.26296334473E+04  0.50400000000E-02 0. -1.
    8880023    1    1    2    0    0 -0.65211513445E-01 -0.89808213442E+03 -0.18915203576E+04  0.21950423672E+04  0.65864270000E+03 0.  1.
    8880022    1    1    2    0    0  0.65211513445E-01  0.89808213442E+03 -0.23249337158E+03  0.94021079831E+03  0.15294330000E+03 0.  0.
<mgrwt>
<rscale>  0 0.10591603E+04</rscale>
<asrwt>0</asrwt>
<pdfrwt beam="1">  1        1 0.40455899E+00 0.11137153E+04</pdfrwt>
<pdfrwt beam="2">  1       -1 0.77787650E-01 0.11137153E+04</pdfrwt>
<totfact> 0.18297342E+00</totfact>
</mgrwt>
</event>
<event>
 4    1  0.8114601E-008  0.9262863E+03  0.7818608E-02  0.9485087E-01
          1   -1    0    0  501    0  0.00000000000E+00  0.00000000000E+00  0.15700864747E+04  0.15700864747E+04  0.50400000000E-02 0. -1.
         -1   -1    0    0    0  501 -0.00000000000E+00 -0.00000000000E+00 -0.60975599330E+03  0.60975599332E+03  0.50400000000E-02 0.  1.
    8880023    1    1    2    0    0 -0.36549297713E+03  0.53908344691E+03  0.11573786477E+04  0.14824073730E+04  0.65864270000E+03 0. -1.
    8880022    1    1    2    0    0  0.36549297713E+03 -0.53908344691E+03 -0.19704816623E+03  0.69743509511E+03  0.15294330000E+03 0.  0.
<mgrwt>
<rscale>  0 0.85392297E+03</rscale>
<asrwt>0</asrwt>
<pdfrwt beam="1">  1        1 0.24155176E+00 0.92628629E+03</pdfrwt>
<pdfrwt beam="2">  1       -1 0.93808616E-01 0.92628629E+03</pdfrwt>
<totfact> 0.65450432E+00</totfact>
</mgrwt>
</event>
<event>
 4    1  0.8114601E-008  0.7141779E+03  0.7818608E-02  0.9942802E-01
          1   -1    0    0  501    0  0.00000000000E+00  0.00000000000E+00  0.95569097077E+03  0.95569097078E+03  0.50400000000E-02 0. -1.
         -1   -1    0    0    0  501 -0.00000000000E+00 -0.00000000000E+00 -0.28005225356E+03  0.28005225361E+03  0.50400000000E-02 0.  1.
    8880023    1    1    2    0    0  0.18183978488E+03  0.20778383863E+03  0.52254381913E+03  0.88493055102E+03  0.65864270000E+03 0.  0.
    8880022    1    1    2    0    0 -0.18183978488E+03 -0.20778383863E+03  0.15309489808E+03  0.35081267337E+03  0.15294330000E+03 0. -1.
<mgrwt>
<rscale>  0 0.58231016E+03</rscale>
<asrwt>0</asrwt>
<pdfrwt beam="1">  1        1 0.14702938E+00 0.71417788E+03</pdfrwt>
<pdfrwt beam="2">  1       -1 0.43084963E-01 0.71417788E+03</pdfrwt>
<totfact> 0.89108459E+01</totfact>
</mgrwt>
</event>
<event>
 4    1  0.8114601E-008  0.8324876E+03  0.7818608E-02  0.9644512E-01
          1   -1    0    0  501    0  0.00000000000E+00  0.00000000000E+00  0.89272184755E+03  0.89272184757E+03  0.50400000000E-02 0. -1.
         -1   -1    0    0    0  501 -0.00000000000E+00 -0.00000000000E+00 -0.11166719386E+04  0.11166719386E+04  0.50400000000E-02 0.  1.
    8880023    1    1    2    0    0 -0.61321480006E+02 -0.50543551611E+03  0.60185994128E+03  0.10272638318E+04  0.65864270000E+03 0. -1.
    8880022    1    1    2    0    0  0.61321480006E+02  0.50543551611E+03 -0.82581003234E+03  0.98212995443E+03  0.15294330000E+03 0.  0.
<mgrwt>
<rscale>  0 0.74418878E+03</rscale>
<asrwt>0</asrwt>
<pdfrwt beam="1">  1        1 0.13734182E+00 0.83248759E+03</pdfrwt>
<pdfrwt beam="2">  1       -1 0.17179568E+00 0.83248759E+03</pdfrwt>
<totfact> 0.45108327E+00</totfact>
</mgrwt>
</event>
<event>
 4    1  0.8114601E-008  0.9168304E+03  0.7818608E-02  0.9499536E-01
          1   -1    0    0  501    0  0.00000000000E+00  0.00000000000E+00  0.58339853963E+03  0.58339853965E+03  0.50400000000E-02 0. -1.
         -1   -1    0    0    0  501 -0.00000000000E+00 -0.00000000000E+00 -0.16050133891E+04  0.16050133891E+04  0.50400000000E-02 0.  1.
    8880023    1    1    2    0    0 -0.36436921417E+03 -0.52345289170E+03  0.65076921249E+02  0.91913713123E+03  0.65864270000E+03 0. -1.
    8880022    1    1    2    0    0  0.36436921417E+03  0.52345289170E+03 -0.10866917707E+04  0.12692747975E+04  0.15294330000E+03 0.  0.
<mgrwt>
<rscale>  0 0.84318032E+03</rscale>
<asrwt>0</asrwt>
<pdfrwt beam="1">  1        1 0.89753622E-01 0.91683044E+03</pdfrwt>
<pdfrwt beam="2">  1       -1 0.24692513E+00 0.91683044E+03</pdfrwt>
<totfact> 0.26526112E+00</totfact>
</mgrwt>
</event>
<event>
 4    1  0.8114601E-008  0.1171877E+04  0.7818608E-02  0.9184957E-01
          1   -1    0    0  501    0  0.00000000000E+00  0.00000000000E+00  0.13089067772E+04  0.13089067772E+04  0.50400000000E-02 0. -1.
         -1   -1    0    0    0  501 -0.00000000000E+00 -0.00000000000E+00 -0.96719516358E+03  0.96719516359E+03  0.50400000000E-02 0.  1.
    8880023    1    1    2    0    0 -0.91951445583E+03  0.30655951820E+03 -0.14491234429E+03  0.11808028483E+04  0.65864270000E+03 0.  1.
    8880022    1    1    2    0    0  0.91951445583E+03 -0.30655951820E+03  0.48662395790E+03  0.10952990925E+04  0.15294330000E+03 0.  1.
<mgrwt>
<rscale>  0 0.11210059E+04</rscale>
<asrwt>0</asrwt>
<pdfrwt beam="1">  1        1 0.20137027E+00 0.11718770E+04</pdfrwt>
<pdfrwt beam="2">  1       -1 0.14879926E+00 0.11718770E+04</pdfrwt>
<totfact> 0.31276257E+00</totfact>
</mgrwt>
</event>
<event>
 4    1  0.8114601E-008  0.1590312E+04  0.7818608E-02  0.8848363E-01
          1   -1    0    0  501    0  0.00000000000E+00  0.00000000000E+00  0.20863128196E+04  0.20863128196E+04  0.50400000000E-02 0. -1.
         -1   -1    0    0    0  501 -0.00000000000E+00 -0.00000000000E+00 -0.22033356012E+04  0.22033356012E+04  0.50400000000E-02 0.  1.
    8880023    1    1    2    0    0 -0.86902274155E+03  0.11576191268E+04  0.14491387097E+04  0.21515333542E+04  0.65864270000E+03 0.  0.
    8880022    1    1    2    0    0  0.86902274155E+03 -0.11576191268E+04 -0.15661614913E+04  0.21381150666E+04  0.15294330000E+03 0.  0.
<mgrwt>
<rscale>  0 0.15554993E+04</rscale>
<asrwt>0</asrwt>
<pdfrwt beam="1">  1        1 0.32097120E+00 0.15903122E+04</pdfrwt>
<pdfrwt beam="2">  1       -1 0.33897471E+00 0.15903122E+04</pdfrwt>
<totfact> 0.44615376E-02</totfact>
</mgrwt>
</event>
<event>
 4    1  0.8114601E-008  0.7917147E+03  0.7818608E-02  0.9729005E-01
          1   -1    0    0  501    0  0.00000000000E+00  0.00000000000E+00  0.73411581666E+03  0.73411581668E+03  0.50400000000E-02 0. -1.
         -1   -1    0    0    0  501 -0.00000000000E+00 -0.00000000000E+00 -0.13297871687E+04  0.13297871687E+04  0.50400000000E-02 0.  1.
    8880023    1    1    2    0    0  0.13650001141E+03 -0.41757593189E+03  0.45621097341E+03  0.91375082519E+03  0.65864270000E+03 0.  0.
    8880022    1    1    2    0    0 -0.13650001141E+03  0.41757593189E+03 -0.10518823255E+04  0.11501521602E+04  0.15294330000E+03 0.  0.
<mgrwt>
<rscale>  0 0.69315772E+03</rscale>
<asrwt>0</asrwt>
<pdfrwt beam="1">  1        1 0.11294089E+00 0.79171467E+03</pdfrwt>
<pdfrwt beam="2">  1       -1 0.20458264E+00 0.79171467E+03</pdfrwt>
<totfact> 0.36582726E+00</totfact>
</mgrwt>
</event>
<event>
 4    1  0.8114601E-008  0.6947317E+03  0.7818608E-02  0.1001980E+00
          1   -1    0    0  501    0  0.00000000000E+00  0.00000000000E+00  0.47831582029E+03  0.47831582032E+03  0.50400000000E-02 0. -1.
         -1   -1    0    0    0  501 -0.00000000000E+00 -0.00000000000E+00 -0.61658896628E+03  0.61658896630E+03  0.50400000000E-02 0.  1.
    8880023    1    1    2    0    0  0.75971110159E+02  0.20753375124E+03  0.13927497843E+03  0.70855458037E+03  0.65864270000E+03 0.  0.
    8880022    1    1    2    0    0 -0.75971110159E+02 -0.20753375124E+03 -0.27754812442E+03  0.38635020625E+03  0.15294330000E+03 0.  0.
<mgrwt>
<rscale>  0 0.54790487E+03</rscale>
<asrwt>0</asrwt>
<pdfrwt beam="1">  1        1 0.73587049E-01 0.69473166E+03</pdfrwt>
<pdfrwt beam="2">  1       -1 0.94859841E-01 0.69473166E+03</pdfrwt>
<totfact> 0.51927002E+01</totfact>
</mgrwt>
</event>
<event>
 4    1  0.8114601E-008  0.8041501E+03  0.7818608E-02  0.9701893E-01
          1   -1    0    0  501    0  0.00000000000E+00  0.00000000000E+00  0.21260817586E+04  0.21260817586E+04  0.50400000000E-02 0. -1.
         -1   -1    0    0    0  501 -0.00000000000E+00 -0.00000000000E+00 -0.91882201737E+03  0.91882201738E+03  0.50400000000E-02 0.  1.
    8880023    1    1    2    0    0 -0.45175008094E+03 -0.93643150064E+02  0.19771493005E+04  0.21344265595E+04  0.65864270000E+03 0.  0.
    8880022    1    1    2    0    0  0.45175008094E+03  0.93643150064E+02 -0.76988955929E+03  0.91047721646E+03  0.15294330000E+03 0.  1.
<mgrwt>
<rscale>  0 0.70904165E+03</rscale>
<asrwt>0</asrwt>
<pdfrwt beam="1">  1        1 0.32708950E+00 0.80415010E+03</pdfrwt>
<pdfrwt beam="2">  1       -1 0.14135723E+00 0.80415010E+03</pdfrwt>
<totfact> 0.10482926E+00</totfact>
</mgrwt>
</event>
<event>
 4    1  0.8114601E-008  0.1890233E+04  0.7818608E-02  0.8674199E-01
         -1   -1    0    0    0  501 -0.00000000000E+00  0.00000000000E+00  0.12578513559E+04  0.12578513559E+04  0.50400000000E-02 0.  1.
          1   -1    0    0  501    0  0.00000000000E+00 -0.00000000000E+00 -0.31721764272E+04  0.31721764272E+04  0.50400000000E-02 0. -1.
    8880023    1    1    2    0    0 -0.10321484760E+04  0.14400840151E+04 -0.10513785345E+03  0.18931552027E+04  0.65864270000E+03 0.  0.
    8880022    1    1    2    0    0  0.10321484760E+04 -0.14400840151E+04 -0.18091872179E+04  0.25368725804E+04  0.15294330000E+03 0.  0.
<mgrwt>
<rscale>  0 0.18616220E+04</rscale>
<asrwt>0</asrwt>
<pdfrwt beam="1">  1        1 0.48802714E+00 0.18902335E+04</pdfrwt>
<pdfrwt beam="2">  1       -1 0.19351559E+00 0.18902335E+04</pdfrwt>
<totfact> 0.67432915E-02</totfact>
</mgrwt>
</event>
<event>
 4    1  0.8114601E-008  0.1037001E+04  0.7818608E-02  0.9334674E-01
         -1   -1    0    0    0  501 -0.00000000000E+00  0.00000000000E+00  0.55939587310E+03  0.55939587312E+03  0.50400000000E-02 0.  1.
          1   -1    0    0  501    0  0.00000000000E+00 -0.00000000000E+00 -0.18325200078E+04  0.18325200079E+04  0.50400000000E-02 0. -1.
    8880023    1    1    2    0    0 -0.78625282227E+03 -0.15286087943E+03 -0.11804016702E+04  0.15712155353E+04  0.65864270000E+03 0.  0.
    8880022    1    1    2    0    0  0.78625282227E+03  0.15286087943E+03 -0.92722464549E+02  0.82070034570E+03  0.15294330000E+03 0.  0.
<mgrwt>
<rscale>  0 0.97652417E+03</rscale>
<asrwt>0</asrwt>
<pdfrwt beam="1">  1        1 0.28192615E+00 0.10370006E+04</pdfrwt>
<pdfrwt beam="2">  1       -1 0.86060905E-01 0.10370006E+04</pdfrwt>
<totfact> 0.51834534E+00</totfact>
</mgrwt>
</event>
<event>
 4    1  0.8114601E-008  0.1410488E+04  0.7818608E-02  0.8975576E-01
          1   -1    0    0  501    0  0.00000000000E+00  0.00000000000E+00  0.24107595488E+04  0.24107595488E+04  0.50400000000E-02 0. -1.
         -1   -1    0    0    0  501 -0.00000000000E+00 -0.00000000000E+00 -0.96455799807E+03  0.96455799808E+03  0.50400000000E-02 0.  1.
    8880023    1    1    2    0    0  0.12226697425E+04  0.24646434779E+03  0.15724777762E+04  0.21123831416E+04  0.65864270000E+03 0.  1.
    8880022    1    1    2    0    0 -0.12226697425E+04 -0.24646434779E+03 -0.12627622546E+03  0.12629344053E+04  0.15294330000E+03 0.  0.
<mgrwt>
<rscale>  0 0.13703351E+04</rscale>
<asrwt>0</asrwt>
<pdfrwt beam="1">  1        1 0.37088608E+00 0.14104879E+04</pdfrwt>
<pdfrwt beam="2">  1       -1 0.14839354E+00 0.14104879E+04</pdfrwt>
<totfact> 0.53837833E-01</totfact>
</mgrwt>
</event>
<event>
 4    1  0.8681798E-008  0.7290361E+03  0.7818608E-02  0.9893119E-01
         -1   -1    0    0    0  501 -0.00000000000E+00  0.00000000000E+00  0.64687838768E+03  0.64687838770E+03  0.50400000000E-02 0.  1.
          1   -1    0    0  501    0  0.00000000000E+00 -0.00000000000E+00 -0.16241098228E+04  0.16241098228E+04  0.50400000000E-02 0. -1.
    8880023    1    1    2    0    0  0.27924711089E+03  0.14037246188E+03 -0.14856579059E+04  0.16548936511E+04  0.65864270000E+03 0. -1.
    8880022    1    1    2    0    0 -0.27924711089E+03 -0.14037246188E+03  0.50842647072E+03  0.61609455941E+03  0.15294330000E+03 0.  0.
<mgrwt>
<rscale>  0 0.60595948E+03</rscale>
<asrwt>0</asrwt>
<pdfrwt beam="1">  1        1 0.24986305E+00 0.72903606E+03</pdfrwt>
<pdfrwt beam="2">  1       -1 0.99519752E-01 0.72903606E+03</pdfrwt>
<totfact> 0.54197486E+00</totfact>
</mgrwt>
</event>
<event>
 4    1  0.8114601E-008  0.7791895E+03  0.7818608E-02  0.9757744E-01
         -1   -1    0    0    0  501 -0.00000000000E+00  0.00000000000E+00  0.20236104861E+03  0.20236104868E+03  0.50400000000E-02 0.  1.
          1   -1    0    0  501    0  0.00000000000E+00 -0.00000000000E+00 -0.31380475086E+04  0.31380475086E+04  0.50400000000E-02 0. -1.
    8880023    1    1    2    0    0 -0.40532383700E+03  0.95071516322E+02 -0.27522861397E+04  0.28604571675E+04  0.65864270000E+03 0.  0.
    8880022    1    1    2    0    0  0.40532383700E+03 -0.95071516322E+02 -0.18340032027E+03  0.47995138977E+03  0.15294330000E+03 0.  0.
<mgrwt>
<rscale>  0 0.67680369E+03</rscale>
<asrwt>0</asrwt>
<pdfrwt beam="1">  1        1 0.48277651E+00 0.77918946E+03</pdfrwt>
<pdfrwt beam="2">  1       -1 0.31132471E-01 0.77918946E+03</pdfrwt>
<totfact> 0.48139071E+00</totfact>
</mgrwt>
</event>
<event>
 4    1  0.8114601E-008  0.1380278E+04  0.7818608E-02  0.8999160E-01
         -1   -1    0    0    0  501 -0.00000000000E+00  0.00000000000E+00  0.12588707001E+04  0.12588707001E+04  0.50400000000E-02 0.  1.
          1   -1    0    0  501    0  0.00000000000E+00 -0.00000000000E+00 -0.22145960367E+04  0.22145960367E+04  0.50400000000E-02 0. -1.
    8880023    1    1    2    0    0 -0.12048919411E+04 -0.13997804763E+03 -0.15822465949E+04  0.20996840088E+04  0.65864270000E+03 0.  0.
    8880022    1    1    2    0    0  0.12048919411E+04  0.13997804763E+03  0.62652125827E+03  0.13737827279E+04  0.15294330000E+03 0.  0.
<mgrwt>
<rscale>  0 0.13390479E+04</rscale>
<asrwt>0</asrwt>
<pdfrwt beam="1">  1        1 0.34070708E+00 0.13802785E+04</pdfrwt>
<pdfrwt beam="2">  1       -1 0.19367242E+00 0.13802785E+04</pdfrwt>
<totfact> 0.34019389E-01</totfact>
</mgrwt>
</event>
<event>
 4    1  0.8114601E-008  0.9449621E+03  0.7818608E-02  0.9457400E-01
         -1   -1    0    0    0  501 -0.00000000000E+00  0.00000000000E+00  0.11069904558E+04  0.11069904558E+04  0.50400000000E-02 0.  1.
          1   -1    0    0  501    0  0.00000000000E+00 -0.00000000000E+00 -0.10423332592E+04  0.10423332592E+04  0.50400000000E-02 0. -1.
    8880023    1    1    2    0    0  0.65959638649E+03 -0.15516343550E+03 -0.65448016253E+03  0.11494770873E+04  0.65864270000E+03 0. -1.
    8880022    1    1    2    0    0 -0.65959638649E+03  0.15516343550E+03  0.71913735908E+03  0.99984662775E+03  0.15294330000E+03 0.  0.
<mgrwt>
<rscale>  0 0.87498751E+03</rscale>
<asrwt>0</asrwt>
<pdfrwt beam="1">  1        1 0.16035896E+00 0.94496206E+03</pdfrwt>
<pdfrwt beam="2">  1       -1 0.17030622E+00 0.94496206E+03</pdfrwt>
<totfact> 0.34687783E+00</totfact>
</mgrwt>
</event>
<event>
 4    1  0.8114601E-008  0.7904416E+03  0.7818608E-02  0.9731858E-01
         -1   -1    0    0    0  501 -0.00000000000E+00  0.00000000000E+00  0.55857915034E+03  0.55857915036E+03  0.50400000000E-02 0.  1.
          1   -1    0    0  501    0  0.00000000000E+00 -0.00000000000E+00 -0.15850093128E+04  0.15850093128E+04  0.50400000000E-02 0. -1.
    8880023    1    1    2    0    0 -0.77728050638E+02  0.43005351083E+03 -0.13599383502E+04  0.15729685930E+04  0.65864270000E+03 0.  0.
    8880022    1    1    2    0    0  0.77728050638E+02 -0.43005351083E+03  0.33350818766E+03  0.57061987021E+03  0.15294330000E+03 0.  0.
<mgrwt>
<rscale>  0 0.69151275E+03</rscale>
<asrwt>0</asrwt>
<pdfrwt beam="1">  1        1 0.24384758E+00 0.79044157E+03</pdfrwt>
<pdfrwt beam="2">  1       -1 0.85935254E-01 0.79044157E+03</pdfrwt>
<totfact> 0.79024833E+00</totfact>
</mgrwt>
</event>
<event>
 4    1  0.8114601E-008  0.1009455E+04  0.7818608E-02  0.9369290E-01
         -1   -1    0    0    0  501 -0.00000000000E+00  0.00000000000E+00  0.48298367816E+03  0.48298367819E+03  0.50400000000E-02 0.  1.
          1   -1    0    0  501    0  0.00000000000E+00 -0.00000000000E+00 -0.33020749133E+04  0.33020749133E+04  0.50400000000E-02 0. -1.
    8880023    1    1    2    0    0  0.76387079196E+03 -0.41125644531E+02 -0.28302296303E+04  0.30048627043E+04  0.65864270000E+03 0.  0.
    8880022    1    1    2    0    0 -0.76387079196E+03  0.41125644531E+02  0.11138395172E+02  0.78019588714E+03  0.15294330000E+03 0.  0.
<mgrwt>
<rscale>  0 0.94646637E+03</rscale>
<asrwt>0</asrwt>
<pdfrwt beam="1">  1        1 0.50801151E+00 0.10094554E+04</pdfrwt>
<pdfrwt beam="2">  1       -1 0.74305184E-01 0.10094554E+04</pdfrwt>
<totfact> 0.67028704E-01</totfact>
</mgrwt>
</event>
<event>
 4    1  0.8114601E-008  0.1032657E+04  0.7818608E-02  0.9340027E-01
         -1   -1    0    0    0  501 -0.00000000000E+00  0.00000000000E+00  0.11453566270E+04  0.11453566270E+04  0.50400000000E-02 0.  1.
          1   -1    0    0  501    0  0.00000000000E+00 -0.00000000000E+00 -0.13138132861E+04  0.13138132861E+04  0.50400000000E-02 0. -1.
    8880023    1    1    2    0    0  0.64828394182E+03 -0.46075727104E+03 -0.89847504331E+03  0.13688085848E+04  0.65864270000E+03 0. -1.
    8880022    1    1    2    0    0 -0.64828394182E+03  0.46075727104E+03  0.73001838419E+03  0.10903613283E+04  0.15294330000E+03 0.  0.
<mgrwt>
<rscale>  0 0.97179951E+03</rscale>
<asrwt>0</asrwt>
<pdfrwt beam="1">  1        1 0.20212512E+00 0.10326565E+04</pdfrwt>
<pdfrwt beam="2">  1       -1 0.17620871E+00 0.10326565E+04</pdfrwt>
<totfact> 0.19605299E+00</totfact>
</mgrwt>
</event>
<event>
 4    1  0.8114601E-008  0.9221927E+03  0.7818608E-02  0.9491305E-01
         -1   -1    0    0    0  501 -0.00000000000E+00  0.00000000000E+00  0.85914531836E+03  0.85914531838E+03  0.50400000000E-02 0.  1.
          1   -1    0    0  501    0  0.00000000000E+00 -0.00000000000E+00 -0.10398731106E+04  0.10398731106E+04  0.50400000000E-02 0. -1.
    8880023    1    1    2    0    0  0.28236043388E+03  0.58043246484E+03 -0.61292524073E+03  0.11073015930E+04  0.65864270000E+03 0.  0.
    8880022    1    1    2    0    0 -0.28236043388E+03 -0.58043246484E+03  0.43219744851E+03  0.79171683598E+03  0.15294330000E+03 0.  0.
<mgrwt>
<rscale>  0 0.84927911E+03</rscale>
<asrwt>0</asrwt>
<pdfrwt beam="1">  1        1 0.15998048E+00 0.92219275E+03</pdfrwt>
<pdfrwt beam="2">  1       -1 0.13217620E+00 0.92219275E+03</pdfrwt>
<totfact> 0.69296122E+00</totfact>
</mgrwt>
</event>
<event>
 4    1  0.8114601E-008  0.1081022E+04  0.7818608E-02  0.9282485E-01
         -1   -1    0    0    0  501 -0.00000000000E+00  0.00000000000E+00  0.10137753044E+04  0.10137753044E+04  0.50400000000E-02 0.  1.
          1   -1    0    0  501    0  0.00000000000E+00 -0.00000000000E+00 -0.12092167176E+04  0.12092167177E+04  0.50400000000E-02 0. -1.
    8880023    1    1    2    0    0 -0.58205854941E+03 -0.62929073097E+03 -0.62855995277E+03  0.12504786282E+04  0.65864270000E+03 0. -1.
    8880022    1    1    2    0    0  0.58205854941E+03  0.62929073097E+03  0.43311853954E+03  0.97251339391E+03  0.15294330000E+03 0.  0.
<mgrwt>
<rscale>  0 0.10241140E+04</rscale>
<asrwt>0</asrwt>
<pdfrwt beam="1">  1        1 0.18603334E+00 0.10810223E+04</pdfrwt>
<pdfrwt beam="2">  1       -1 0.15596543E+00 0.10810223E+04</pdfrwt>
<totfact> 0.32802496E+00</totfact>
</mgrwt>
</event>
<event>
 4    1  0.8114601E-008  0.8664289E+03  0.7818608E-02  0.9582228E-01
         -1   -1    0    0    0  501 -0.00000000000E+00  0.00000000000E+00  0.30006549533E+03  0.30006549537E+03  0.50400000000E-02 0.  1.
          1   -1    0    0  501    0  0.00000000000E+00 -0.00000000000E+00 -0.21543577492E+04  0.21543577492E+04  0.50400000000E-02 0. -1.
    8880023    1    1    2    0    0  0.14170783987E+02 -0.56275043281E+03 -0.15969376794E+04  0.18168403944E+04  0.65864270000E+03 0.  0.
    8880022    1    1    2    0    0 -0.14170783987E+02  0.56275043281E+03 -0.25735457446E+03  0.63758285012E+03  0.15294330000E+03 0.  0.
<mgrwt>
<rscale>  0 0.78483676E+03</rscale>
<asrwt>0</asrwt>
<pdfrwt beam="1">  1        1 0.33143964E+00 0.86642892E+03</pdfrwt>
<pdfrwt beam="2">  1       -1 0.46163924E-01 0.86642892E+03</pdfrwt>
<totfact> 0.11250857E+01</totfact>
</mgrwt>
</event>
<event>
 4    1  0.8114601E-008  0.1176712E+04  0.7818608E-02  0.9180100E-01
          1   -1    0    0  501    0  0.00000000000E+00  0.00000000000E+00  0.33075410008E+04  0.33075410008E+04  0.50400000000E-02 0. -1.
         -1   -1    0    0    0  501 -0.00000000000E+00 -0.00000000000E+00 -0.89054746390E+03  0.89054746392E+03  0.50400000000E-02 0.  1.
    8880023    1    1    2    0    0  0.97501728580E+03 -0.13456602955E+02  0.28775834473E+04  0.31088802631E+04  0.65864270000E+03 0.  0.
    8880022    1    1    2    0    0 -0.97501728580E+03  0.13456602955E+02 -0.46058991046E+03  0.10892082016E+04  0.15294330000E+03 0.  0.
<mgrwt>
<rscale>  0 0.11261216E+04</rscale>
<asrwt>0</asrwt>
<pdfrwt beam="1">  1        1 0.50885246E+00 0.11767115E+04</pdfrwt>
<pdfrwt beam="2">  1       -1 0.13700730E+00 0.11767115E+04</pdfrwt>
<totfact> 0.15659886E-01</totfact>
</mgrwt>
</event>
<event>
 4    1  0.8114601E-008  0.1060264E+04  0.7818608E-02  0.9306644E-01
         -1   -1    0    0    0  501 -0.00000000000E+00  0.00000000000E+00  0.90108415721E+03  0.90108415722E+03  0.50400000000E-02 0.  1.
          1   -1    0    0  501    0  0.00000000000E+00 -0.00000000000E+00 -0.11360461474E+04  0.11360461474E+04  0.50400000000E-02 0. -1.
    8880023    1    1    2    0    0  0.13660011700E+03 -0.81956664549E+03 -0.47066228842E+03  0.11600354626E+04  0.65864270000E+03 0.  0.
    8880022    1    1    2    0    0 -0.13660011700E+03  0.81956664549E+03  0.23570029825E+03  0.87709484207E+03  0.15294330000E+03 0.  0.
<mgrwt>
<rscale>  0 0.10017354E+04</rscale>
<asrwt>0</asrwt>
<pdfrwt beam="1">  1        1 0.17477633E+00 0.10602638E+04</pdfrwt>
<pdfrwt beam="2">  1       -1 0.13862833E+00 0.10602638E+04</pdfrwt>
<totfact> 0.51044546E+00</totfact>
</mgrwt>
</event>
<event>
 4    1  0.8114601E-008  0.7221949E+03  0.7818608E-02  0.9915228E-01
          1   -1    0    0  501    0  0.00000000000E+00  0.00000000000E+00  0.10049047695E+04  0.10049047695E+04  0.50400000000E-02 0. -1.
         -1   -1    0    0    0  501 -0.00000000000E+00 -0.00000000000E+00 -0.94242937272E+03  0.94242937274E+03  0.50400000000E-02 0.  1.
    8880023    1    1    2    0    0 -0.29294670243E+03 -0.44017313230E+02  0.83616624611E+03  0.11048708032E+04  0.65864270000E+03 0. -1.
    8880022    1    1    2    0    0  0.29294670243E+03  0.44017313230E+02 -0.77369084933E+03  0.84246333907E+03  0.15294330000E+03 0.  0.
<mgrwt>
<rscale>  0 0.59528921E+03</rscale>
<asrwt>0</asrwt>
<pdfrwt beam="1">  1        1 0.15460073E+00 0.72219492E+03</pdfrwt>
<pdfrwt beam="2">  1       -1 0.14498913E+00 0.72219492E+03</pdfrwt>
<totfact> 0.59606409E+00</totfact>
</mgrwt>
</event>
<event>
 4    1  0.8114601E-008  0.7876550E+03  0.7818608E-02  0.9738153E-01
          1   -1    0    0  501    0  0.00000000000E+00  0.00000000000E+00  0.73782022061E+03  0.73782022063E+03  0.50400000000E-02 0. -1.
         -1   -1    0    0    0  501 -0.00000000000E+00 -0.00000000000E+00 -0.85750466845E+03  0.85750466847E+03  0.50400000000E-02 0.  1.
    8880023    1    1    2    0    0  0.42174698908E+03 -0.93379347604E+02  0.41569321491E+03  0.89061848204E+03  0.65864270000E+03 0.  0.
    8880022    1    1    2    0    0 -0.42174698908E+03  0.93379347604E+02 -0.53537766275E+03  0.70470640706E+03  0.15294330000E+03 0.  0.
<mgrwt>
<rscale>  0 0.68789913E+03</rscale>
<asrwt>0</asrwt>
<pdfrwt beam="1">  1        1 0.11351080E+00 0.78765502E+03</pdfrwt>
<pdfrwt beam="2">  1       -1 0.13192379E+00 0.78765502E+03</pdfrwt>
<totfact> 0.12580864E+01</totfact>
</mgrwt>
</event>
<event>
 4    1  0.8114601E-008  0.7104637E+03  0.7818608E-02  0.9956283E-01
         -1   -1    0    0    0  501 -0.00000000000E+00  0.00000000000E+00  0.20737521732E+04  0.20737521732E+04  0.50400000000E-02 0.  1.
          1   -1    0    0  501    0  0.00000000000E+00 -0.00000000000E+00 -0.21756751512E+03  0.21756751517E+03  0.50400000000E-02 0. -1.
    8880023    1    1    2    0    0  0.22257512459E+02 -0.26542985819E+03  0.42571474745E+03  0.82824613427E+03  0.65864270000E+03 0. -1.
    8880022    1    1    2    0    0 -0.22257512459E+02  0.26542985819E+03  0.14304699106E+04  0.14630735541E+04  0.15294330000E+03 0.  0.
<mgrwt>
<rscale>  0 0.57609409E+03</rscale>
<asrwt>0</asrwt>
<pdfrwt beam="1">  1        1 0.33471925E-01 0.71046366E+03</pdfrwt>
<pdfrwt beam="2">  1       -1 0.31903880E+00 0.71046366E+03</pdfrwt>
<totfact> 0.34952218E+00</totfact>
</mgrwt>
</event>
<event>
 4    1  0.8114601E-008  0.7820411E+03  0.7818608E-02  0.9751064E-01
          1   -1    0    0  501    0  0.00000000000E+00  0.00000000000E+00  0.33317811852E+04  0.33317811852E+04  0.50400000000E-02 0. -1.
         -1   -1    0    0    0  501 -0.00000000000E+00 -0.00000000000E+00 -0.26121649103E+03  0.26121649107E+03  0.50400000000E-02 0.  1.
    8880023    1    1    2    0    0 -0.24064649955E+03  0.34621871435E+03  0.30449217746E+04  0.31437456888E+04  0.65864270000E+03 0. -1.
    8880022    1    1    2    0    0  0.24064649955E+03 -0.34621871435E+03  0.25642919529E+02  0.44925198747E+03  0.15294330000E+03 0.  0.
<mgrwt>
<rscale>  0 0.68056176E+03</rscale>
<asrwt>0</asrwt>
<pdfrwt beam="1">  1        1 0.51258165E+00 0.78204114E+03</pdfrwt>
<pdfrwt beam="2">  1       -1 0.40187158E-01 0.78204114E+03</pdfrwt>
<totfact> 0.21909642E+00</totfact>
</mgrwt>
</event>
<event>
 4    1  0.8114601E-008  0.8427066E+03  0.7818608E-02  0.9625098E-01
         -1   -1    0    0    0  501 -0.00000000000E+00  0.00000000000E+00  0.15081442530E+04  0.15081442530E+04  0.50400000000E-02 0.  1.
          1   -1    0    0  501    0  0.00000000000E+00 -0.00000000000E+00 -0.88687987110E+03  0.88687987112E+03  0.50400000000E-02 0. -1.
    8880023    1    1    2    0    0 -0.37709058162E+03  0.36626064406E+03 -0.61480236624E+03  0.10431377291E+04  0.65864270000E+03 0. -1.
    8880022    1    1    2    0    0  0.37709058162E+03 -0.36626064406E+03  0.12360667482E+04  0.13518863950E+04  0.15294330000E+03 0.  0.
<mgrwt>
<rscale>  0 0.75657087E+03</rscale>
<asrwt>0</asrwt>
<pdfrwt beam="1">  1        1 0.13644306E+00 0.84270658E+03</pdfrwt>
<pdfrwt beam="2">  1       -1 0.23202219E+00 0.84270658E+03</pdfrwt>
<totfact> 0.17579594E+00</totfact>
</mgrwt>
</event>
<event>
 4    1  0.8114601E-008  0.1111303E+04  0.7818608E-02  0.9248575E-01
          1   -1    0    0  501    0  0.00000000000E+00  0.00000000000E+00  0.74909582127E+03  0.74909582129E+03  0.50400000000E-02 0. -1.
         -1   -1    0    0    0  501 -0.00000000000E+00 -0.00000000000E+00 -0.16590272283E+04  0.16590272283E+04  0.50400000000E-02 0.  1.
    8880023    1    1    2    0    0 -0.10686850041E+03 -0.88868564348E+03  0.15746457372E+02  0.11114140572E+04  0.65864270000E+03 0.  0.
    8880022    1    1    2    0    0  0.10686850041E+03  0.88868564348E+03 -0.92567786436E+03  0.12967089924E+04  0.15294330000E+03 0.  0.
<mgrwt>
<rscale>  0 0.10565814E+04</rscale>
<asrwt>0</asrwt>
<pdfrwt beam="1">  1        1 0.11524551E+00 0.11113025E+04</pdfrwt>
<pdfrwt beam="2">  1       -1 0.25523496E+00 0.11113025E+04</pdfrwt>
<totfact> 0.15728727E+00</totfact>
</mgrwt>
</event>
<event>
 4    1  0.8114601E-008  0.1171604E+04  0.7818608E-02  0.9185231E-01
          1   -1    0    0  501    0  0.00000000000E+00  0.00000000000E+00  0.10593285610E+04  0.10593285610E+04  0.50400000000E-02 0. -1.
         -1   -1    0    0    0  501 -0.00000000000E+00 -0.00000000000E+00 -0.17506332886E+04  0.17506332886E+04  0.50400000000E-02 0.  1.
    8880023    1    1    2    0    0  0.16285263760E+03 -0.95515741361E+03  0.49391662477E+03  0.12714599895E+04  0.65864270000E+03 0. -1.
    8880022    1    1    2    0    0 -0.16285263760E+03  0.95515741361E+03 -0.11852213524E+04  0.15385018601E+04  0.15294330000E+03 0.  0.
<mgrwt>
<rscale>  0 0.11207173E+04</rscale>
<asrwt>0</asrwt>
<pdfrwt beam="1">  1        1 0.16297363E+00 0.11716044E+04</pdfrwt>
<pdfrwt beam="2">  1       -1 0.26932820E+00 0.11716044E+04</pdfrwt>
<totfact> 0.70087766E-01</totfact>
</mgrwt>
</event>
<event>
 4    1  0.8114601E-008  0.1363124E+04  0.7818608E-02  0.9012879E-01
          1   -1    0    0  501    0  0.00000000000E+00  0.00000000000E+00  0.29481069312E+04  0.29481069312E+04  0.50400000000E-02 0. -1.
         -1   -1    0    0    0  501 -0.00000000000E+00 -0.00000000000E+00 -0.11139312843E+04  0.11139312843E+04  0.50400000000E-02 0.  1.
    8880023    1    1    2    0    0  0.65701443665E+02 -0.11916290840E+04  0.23785184305E+04  0.27414333265E+04  0.65864270000E+03 0.  0.
    8880022    1    1    2    0    0 -0.65701443665E+02  0.11916290840E+04 -0.54434278362E+03  0.13206048889E+04  0.15294330000E+03 0.  0.
<mgrwt>
<rscale>  0 0.13212527E+04</rscale>
<asrwt>0</asrwt>
<pdfrwt beam="1">  1        1 0.45355490E+00 0.13631239E+04</pdfrwt>
<pdfrwt beam="2">  1       -1 0.17137405E+00 0.13631239E+04</pdfrwt>
<totfact> 0.15161891E-01</totfact>
</mgrwt>
</event>
<event>
 4    1  0.8114601E-008  0.8178609E+03  0.7818608E-02  0.9673430E-01
          1   -1    0    0  501    0  0.00000000000E+00  0.00000000000E+00  0.88844120459E+03  0.88844120461E+03  0.50400000000E-02 0. -1.
         -1   -1    0    0    0  501 -0.00000000000E+00 -0.00000000000E+00 -0.75452842248E+03  0.75452842250E+03  0.50400000000E-02 0.  1.
    8880023    1    1    2    0    0  0.47450080311E+03 -0.99676043295E+02  0.55034189786E+03  0.98578534000E+03  0.65864270000E+03 0.  0.
    8880022    1    1    2    0    0 -0.47450080311E+03  0.99676043295E+02 -0.41642911575E+03  0.65718428711E+03  0.15294330000E+03 0.  0.
<mgrwt>
<rscale>  0 0.72621054E+03</rscale>
<asrwt>0</asrwt>
<pdfrwt beam="1">  1        1 0.13668326E+00 0.81786095E+03</pdfrwt>
<pdfrwt beam="2">  1       -1 0.11608130E+00 0.81786095E+03</pdfrwt>
<totfact> 0.12755188E+01</totfact>
</mgrwt>
</event>
<event>
 4    1  0.8114601E-008  0.2376341E+04  0.7818608E-02  0.8456916E-01
          1   -1    0    0  501    0  0.00000000000E+00  0.00000000000E+00  0.16379987771E+04  0.16379987771E+04  0.50400000000E-02 0. -1.
         -1   -1    0    0    0  501 -0.00000000000E+00 -0.00000000000E+00 -0.36824441910E+04  0.36824441910E+04  0.50400000000E-02 0.  1.
    8880023    1    1    2    0    0 -0.15182507601E+04 -0.17053153240E+04 -0.20635304406E+03  0.23852835282E+04  0.65864270000E+03 0.  0.
    8880022    1    1    2    0    0  0.15182507601E+04  0.17053153240E+04 -0.18380923698E+04  0.29351594399E+04  0.15294330000E+03 0.  0.
<mgrwt>
<rscale>  0 0.23540327E+04</rscale>
<asrwt>0</asrwt>
<pdfrwt beam="1">  1        1 0.25199981E+00 0.23763409E+04</pdfrwt>
<pdfrwt beam="2">  1       -1 0.56652988E+00 0.23763409E+04</pdfrwt>
<totfact> 0.27325752E-03</totfact>
</mgrwt>
</event>
<event>
 4    1  0.8114601E-008  0.1449922E+04  0.7818608E-02  0.8945832E-01
          1   -1    0    0  501    0  0.00000000000E+00  0.00000000000E+00  0.13731139840E+04  0.13731139840E+04  0.50400000000E-02 0. -1.
         -1   -1    0    0    0  501 -0.00000000000E+00 -0.00000000000E+00 -0.16796300885E+04  0.16796300885E+04  0.50400000000E-02 0.  1.
    8880023    1    1    2    0    0 -0.88390733902E+03 -0.94189750400E+03  0.48648288174E+03  0.15293589809E+04  0.65864270000E+03 0. -1.
    8880022    1    1    2    0    0  0.88390733902E+03  0.94189750400E+03 -0.79299898625E+03  0.15233850916E+04  0.15294330000E+03 0.  0.
<mgrwt>
<rscale>  0 0.14110871E+04</rscale>
<asrwt>0</asrwt>
<pdfrwt beam="1">  1        1 0.21124831E+00 0.14499218E+04</pdfrwt>
<pdfrwt beam="2">  1       -1 0.25840463E+00 0.14499218E+04</pdfrwt>
<totfact> 0.46948750E-01</totfact>
</mgrwt>
</event>
<event>
 4    1  0.8114601E-008  0.9530254E+03  0.7818608E-02  0.9445775E-01
         -1   -1    0    0    0  501 -0.00000000000E+00  0.00000000000E+00  0.63649721039E+03  0.63649721041E+03  0.50400000000E-02 0.  1.
          1   -1    0    0  501    0  0.00000000000E+00 -0.00000000000E+00 -0.22058881465E+04  0.22058881465E+04  0.50400000000E-02 0. -1.
    8880023    1    1    2    0    0 -0.65590091254E+03  0.21033573119E+03 -0.18515953687E+04  0.20824655442E+04  0.65864270000E+03 0.  0.
    8880022    1    1    2    0    0  0.65590091254E+03 -0.21033573119E+03  0.28220443268E+03  0.75991981270E+03  0.15294330000E+03 0.  0.
<mgrwt>
<rscale>  0 0.88402477E+03</rscale>
<asrwt>0</asrwt>
<pdfrwt beam="1">  1        1 0.33936740E+00 0.95302536E+03</pdfrwt>
<pdfrwt beam="2">  1       -1 0.97922649E-01 0.95302536E+03</pdfrwt>
<totfact> 0.22038489E+00</totfact>
</mgrwt>
</event>
<event>
 4    1  0.9809352E-008  0.1408073E+04  0.7818608E-02  0.8977435E-01
         -1   -1    0    0    0  501 -0.00000000000E+00  0.00000000000E+00  0.14419721985E+04  0.14419721985E+04  0.50400000000E-02 0.  1.
          1   -1    0    0  501    0  0.00000000000E+00 -0.00000000000E+00 -0.33376032125E+04  0.33376032125E+04  0.50400000000E-02 0. -1.
    8880023    1    1    2    0    0  0.25672675128E+03  0.12177649287E+04 -0.28665574999E+04  0.31937160414E+04  0.65864270000E+03 0.  0.
    8880022    1    1    2    0    0 -0.25672675128E+03 -0.12177649287E+04  0.97092648590E+03  0.15858593697E+04  0.15294330000E+03 0.  0.
<mgrwt>
<rscale>  0 0.13678365E+04</rscale>
<asrwt>0</asrwt>
<pdfrwt beam="1">  1        1 0.51347742E+00 0.14080732E+04</pdfrwt>
<pdfrwt beam="2">  1       -1 0.22184188E+00 0.14080732E+04</pdfrwt>
<totfact> 0.34407564E-02</totfact>
</mgrwt>
</event>
<event>
 4    1  0.8114601E-008  0.8220266E+03  0.7818608E-02  0.9665050E-01
          1   -1    0    0  501    0  0.00000000000E+00  0.00000000000E+00  0.12315638636E+04  0.12315638636E+04  0.50400000000E-02 0. -1.
         -1   -1    0    0    0  501 -0.00000000000E+00 -0.00000000000E+00 -0.42639830782E+03  0.42639830785E+03  0.50400000000E-02 0.  1.
    8880023    1    1    2    0    0  0.17675323540E+03 -0.45899441266E+03  0.79382785391E+03  0.11427556366E+04  0.65864270000E+03 0.  0.
    8880022    1    1    2    0    0 -0.17675323540E+03  0.45899441266E+03  0.11337701890E+02  0.51520653487E+03  0.15294330000E+03 0.  0.
<mgrwt>
<rscale>  0 0.73136380E+03</rscale>
<asrwt>0</asrwt>
<pdfrwt beam="1">  1        1 0.18947136E+00 0.82202663E+03</pdfrwt>
<pdfrwt beam="2">  1       -1 0.65599739E-01 0.82202663E+03</pdfrwt>
<totfact> 0.24391264E+01</totfact>
</mgrwt>
</event>
<event>
 4    1  0.8114601E-008  0.6948259E+03  0.7818608E-02  0.1001938E+00
         -1   -1    0    0    0  501 -0.00000000000E+00  0.00000000000E+00  0.11997074815E+04  0.11997074816E+04  0.50400000000E-02 0.  1.
          1   -1    0    0  501    0  0.00000000000E+00 -0.00000000000E+00 -0.22985781876E+04  0.22985781876E+04  0.50400000000E-02 0. -1.
    8880023    1    1    2    0    0 -0.96551611311E+02 -0.19912456961E+03 -0.22299316529E+04  0.23356751039E+04  0.65864270000E+03 0. -1.
    8880022    1    1    2    0    0  0.96551611311E+02  0.19912456961E+03  0.11310609469E+04  0.11626105653E+04  0.15294330000E+03 0.  0.
<mgrwt>
<rscale>  0 0.54808468E+03</rscale>
<asrwt>0</asrwt>
<pdfrwt beam="1">  1        1 0.35362742E+00 0.69482589E+03</pdfrwt>
<pdfrwt beam="2">  1       -1 0.18457038E+00 0.69482589E+03</pdfrwt>
<totfact> 0.39082162E-01</totfact>
</mgrwt>
</event>
<event>
 4    1  0.8114601E-008  0.6714780E+03  0.7818608E-02  0.1014625E+00
          1   -1    0    0  501    0  0.00000000000E+00  0.00000000000E+00  0.14852609628E+04  0.14852609628E+04  0.50400000000E-02 0. -1.
         -1   -1    0    0    0  501 -0.00000000000E+00 -0.00000000000E+00 -0.19762773901E+03  0.19762773908E+03  0.50400000000E-02 0.  1.
    8880023    1    1    2    0    0 -0.78501858579E+01 -0.13042556709E+03  0.13182511057E+04  0.14794149648E+04  0.65864270000E+03 0. -1.
    8880022    1    1    2    0    0  0.78501858579E+01  0.13042556709E+03 -0.30617881980E+02  0.20347373708E+03  0.15294330000E+03 0.  0.
<mgrwt>
<rscale>  0 0.49677253E+03</rscale>
<asrwt>0</asrwt>
<pdfrwt beam="1">  1        1 0.22850169E+00 0.67147797E+03</pdfrwt>
<pdfrwt beam="2">  1       -1 0.30404268E-01 0.67147797E+03</pdfrwt>
<totfact> 0.69011714E+01</totfact>
</mgrwt>
</event>
<event>
 4    1  0.8114601E-008  0.9150439E+03  0.7818608E-02  0.9502300E-01
          1   -1    0    0  501    0  0.00000000000E+00  0.00000000000E+00  0.42895794397E+04  0.42895794397E+04  0.50400000000E-02 0. -1.
         -1   -1    0    0    0  501 -0.00000000000E+00 -0.00000000000E+00 -0.36960653847E+03  0.36960653851E+03  0.50400000000E-02 0.  1.
    8880023    1    1    2    0    0  0.57899115857E+03  0.26127463131E+03  0.38995822319E+04  0.40055020889E+04  0.65864270000E+03 0.  0.
    8880022    1    1    2    0    0 -0.57899115857E+03 -0.26127463131E+03  0.20390669284E+02  0.65368388926E+03  0.15294330000E+03 0.  0.
<mgrwt>
<rscale>  0 0.84114440E+03</rscale>
<asrwt>0</asrwt>
<pdfrwt beam="1">  1        1 0.65993530E+00 0.91504393E+03</pdfrwt>
<pdfrwt beam="2">  1       -1 0.56862545E-01 0.91504393E+03</pdfrwt>
<totfact> 0.17670404E-01</totfact>
</mgrwt>
</event>
<event>
 4    1  0.8114601E-008  0.1056963E+04  0.7818608E-02  0.9310558E-01
          1   -1    0    0  501    0  0.00000000000E+00  0.00000000000E+00  0.16757845144E+04  0.16757845144E+04  0.50400000000E-02 0. -1.
         -1   -1    0    0    0  501 -0.00000000000E+00 -0.00000000000E+00 -0.13607150370E+04  0.13607150370E+04  0.50400000000E-02 0.  1.
    8880023    1    1    2    0    0 -0.38729210433E+03  0.73031836077E+03  0.13426993562E+04  0.17088042163E+04  0.65864270000E+03 0. -1.
    8880022    1    1    2    0    0  0.38729210433E+03 -0.73031836077E+03 -0.10276298788E+04  0.13276953351E+04  0.15294330000E+03 0.  0.
<mgrwt>
<rscale>  0 0.99816681E+03</rscale>
<asrwt>0</asrwt>
<pdfrwt beam="1">  1        1 0.25781300E+00 0.10569628E+04</pdfrwt>
<pdfrwt beam="2">  1       -1 0.20934078E+00 0.10569628E+04</pdfrwt>
<totfact> 0.64336623E-01</totfact>
</mgrwt>
</event>
<event>
 4    1  0.8114601E-008  0.1282178E+04  0.7818608E-02  0.9081105E-01
          1   -1    0    0  501    0  0.00000000000E+00  0.00000000000E+00  0.21760199123E+04  0.21760199123E+04  0.50400000000E-02 0. -1.
         -1   -1    0    0    0  501 -0.00000000000E+00 -0.00000000000E+00 -0.88451928005E+03  0.88451928007E+03  0.50400000000E-02 0.  1.
    8880023    1    1    2    0    0 -0.81782596795E+03 -0.73575186825E+03  0.14534134007E+04  0.19381410798E+04  0.65864270000E+03 0.  0.
    8880022    1    1    2    0    0  0.81782596795E+03  0.73575186825E+03 -0.16191276850E+03  0.11223981126E+04  0.15294330000E+03 0.  0.
<mgrwt>
<rscale>  0 0.12369620E+04</rscale>
<asrwt>0</asrwt>
<pdfrwt beam="1">  1        1 0.33477229E+00 0.12821780E+04</pdfrwt>
<pdfrwt beam="2">  1       -1 0.13607989E+00 0.12821780E+04</pdfrwt>
<totfact> 0.99499094E-01</totfact>
</mgrwt>
</event>
<event>
 4    1  0.8114601E-008  0.1050332E+04  0.7818608E-02  0.9318482E-01
         -1   -1    0    0    0  501 -0.00000000000E+00  0.00000000000E+00  0.14213353026E+04  0.14213353026E+04  0.50400000000E-02 0.  1.
          1   -1    0    0  501    0  0.00000000000E+00 -0.00000000000E+00 -0.10198819991E+04  0.10198819991E+04  0.50400000000E-02 0. -1.
    8880023    1    1    2    0    0 -0.13579697957E+03  0.80681271175E+03 -0.54295868695E+03  0.11823713095E+04  0.65864270000E+03 0.  0.
    8880022    1    1    2    0    0  0.13579697957E+03 -0.80681271175E+03  0.94441199047E+03  0.12588459923E+04  0.15294330000E+03 0.  0.
<mgrwt>
<rscale>  0 0.99099023E+03</rscale>
<asrwt>0</asrwt>
<pdfrwt beam="1">  1        1 0.15690492E+00 0.10503322E+04</pdfrwt>
<pdfrwt beam="2">  1       -1 0.21866697E+00 0.10503322E+04</pdfrwt>
<totfact> 0.16383132E+00</totfact>
</mgrwt>
</event>
<event>
 4    1  0.8114601E-008  0.8684379E+03  0.7818608E-02  0.9578727E-01
          1   -1    0    0  501    0  0.00000000000E+00  0.00000000000E+00  0.44942731902E+03  0.44942731905E+03  0.50400000000E-02 0. -1.
         -1   -1    0    0    0  501 -0.00000000000E+00 -0.00000000000E+00 -0.17554145631E+04  0.17554145631E+04  0.50400000000E-02 0.  1.
    8880023    1    1    2    0    0 -0.41413944614E+03 -0.38582731740E+03 -0.11325581837E+03  0.87579180537E+03  0.65864270000E+03 0. -1.
    8880022    1    1    2    0    0  0.41413944614E+03  0.38582731740E+03 -0.11927314257E+04  0.13290500768E+04  0.15294330000E+03 0.  0.
<mgrwt>
<rscale>  0 0.78720333E+03</rscale>
<asrwt>0</asrwt>
<pdfrwt beam="1">  1        1 0.69142665E-01 0.86843791E+03</pdfrwt>
<pdfrwt beam="2">  1       -1 0.27006378E+00 0.86843791E+03</pdfrwt>
<totfact> 0.27210191E+00</totfact>
</mgrwt>
</event>
<event>
 4    1  0.8114601E-008  0.1291463E+04  0.7818608E-02  0.9072968E-01
          1   -1    0    0  501    0  0.00000000000E+00  0.00000000000E+00  0.19473865341E+04  0.19473865341E+04  0.50400000000E-02 0. -1.
         -1   -1    0    0    0  501 -0.00000000000E+00 -0.00000000000E+00 -0.13781509302E+04  0.13781509302E+04  0.50400000000E-02 0.  1.
    8880023    1    1    2    0    0 -0.11085067687E+04 -0.72653651538E+02 -0.82789988727E+03  0.15340450577E+04  0.65864270000E+03 0.  0.
    8880022    1    1    2    0    0  0.11085067687E+04  0.72653651538E+02  0.13971354911E+04  0.17914924066E+04  0.15294330000E+03 0.  0.
<mgrwt>
<rscale>  0 0.12466601E+04</rscale>
<asrwt>0</asrwt>
<pdfrwt beam="1">  1        1 0.29959793E+00 0.12914627E+04</pdfrwt>
<pdfrwt beam="2">  1       -1 0.21202322E+00 0.12914627E+04</pdfrwt>
<totfact> 0.39056607E-01</totfact>
</mgrwt>
</event>
<event>
 4    1  0.8114601E-008  0.7077818E+03  0.7818608E-02  0.9966332E-01
         -1   -1    0    0    0  501 -0.00000000000E+00  0.00000000000E+00  0.16892966593E+03  0.16892966600E+03  0.50400000000E-02 0.  1.
          1   -1    0    0  501    0  0.00000000000E+00 -0.00000000000E+00 -0.30420946088E+04  0.30420946088E+04  0.50400000000E-02 0. -1.
    8880023    1    1    2    0    0  0.21692190049E+03 -0.14173857511E+03 -0.28174808849E+04  0.29050221475E+04  0.65864270000E+03 0. -1.
    8880022    1    1    2    0    0 -0.21692190049E+03  0.14173857511E+03 -0.55684058005E+02  0.30600212731E+03  0.15294330000E+03 0.  0.
<mgrwt>
<rscale>  0 0.57151493E+03</rscale>
<asrwt>0</asrwt>
<pdfrwt beam="1">  1        1 0.46801452E+00 0.70778185E+03</pdfrwt>
<pdfrwt beam="2">  1       -1 0.25989182E-01 0.70778185E+03</pdfrwt>
<totfact> 0.78255955E+00</totfact>
</mgrwt>
</event>
<event>
 4    1  0.8114601E-008  0.1370909E+04  0.7818608E-02  0.9006624E-01
         -1   -1    0    0    0  501 -0.00000000000E+00  0.00000000000E+00  0.10594698955E+04  0.10594698955E+04  0.50400000000E-02 0.  1.
          1   -1    0    0  501    0  0.00000000000E+00 -0.00000000000E+00 -0.17523799679E+04  0.17523799679E+04  0.50400000000E-02 0. -1.
    8880023    1    1    2    0    0 -0.11858787947E+04 -0.19817050272E+03  0.81883424513E+02  0.13733517996E+04  0.65864270000E+03 0.  0.
    8880022    1    1    2    0    0  0.11858787947E+04  0.19817050272E+03 -0.77479349688E+03  0.14384980639E+04  0.15294330000E+03 0.  0.
<mgrwt>
<rscale>  0 0.13293307E+04</rscale>
<asrwt>0</asrwt>
<pdfrwt beam="1">  1        1 0.26959692E+00 0.13709086E+04</pdfrwt>
<pdfrwt beam="2">  1       -1 0.16299537E+00 0.13709086E+04</pdfrwt>
<totfact> 0.11714583E+00</totfact>
</mgrwt>
</event>
<event>
 4    1  0.8114601E-008  0.7320936E+03  0.7818608E-02  0.9883607E-01
         -1   -1    0    0    0  501 -0.00000000000E+00  0.00000000000E+00  0.55688039398E+03  0.55688039400E+03  0.50400000000E-02 0.  1.
          1   -1    0    0  501    0  0.00000000000E+00 -0.00000000000E+00 -0.92378792533E+03  0.92378792534E+03  0.50400000000E-02 0. -1.
    8880023    1    1    2    0    0  0.12230648346E+03  0.29528282384E+03 -0.68642099810E+03  0.10035610668E+04  0.65864270000E+03 0. -1.
    8880022    1    1    2    0    0 -0.12230648346E+03 -0.29528282384E+03  0.31951346675E+03  0.47710725252E+03  0.15294330000E+03 0.  0.
<mgrwt>
<rscale>  0 0.61062389E+03</rscale>
<asrwt>0</asrwt>
<pdfrwt beam="1">  1        1 0.14212122E+00 0.73209359E+03</pdfrwt>
<pdfrwt beam="2">  1       -1 0.85673907E-01 0.73209359E+03</pdfrwt>
<totfact> 0.24112769E+01</totfact>
</mgrwt>
</event>
<event>
 4    1  0.8114601E-008  0.6866860E+03  0.7818608E-02  0.1005769E+00
          1   -1    0    0  501    0  0.00000000000E+00  0.00000000000E+00  0.11572172756E+04  0.11572172756E+04  0.50400000000E-02 0. -1.
         -1   -1    0    0    0  501 -0.00000000000E+00 -0.00000000000E+00 -0.36593556080E+03  0.36593556084E+03  0.50400000000E-02 0.  1.
    8880023    1    1    2    0    0  0.13277378911E+03  0.14176931126E+03  0.99077700072E+03  0.12054777842E+04  0.65864270000E+03 0. -1.
    8880022    1    1    2    0    0 -0.13277378911E+03 -0.14176931126E+03 -0.19949528596E+03  0.31767505225E+03  0.15294330000E+03 0.  0.
<mgrwt>
<rscale>  0 0.53191315E+03</rscale>
<asrwt>0</asrwt>
<pdfrwt beam="1">  1        1 0.17803342E+00 0.68668597E+03</pdfrwt>
<pdfrwt beam="2">  1       -1 0.56297779E-01 0.68668597E+03</pdfrwt>
<totfact> 0.37948484E+01</totfact>
</mgrwt>
</event>
<event>
 4    1  0.9502912E-008  0.7542469E+03  0.7818608E-02  0.9820236E-01
         -1   -1    0    0    0  501 -0.00000000000E+00  0.00000000000E+00  0.72793719739E+03  0.72793719740E+03  0.50400000000E-02 0.  1.
          1   -1    0    0  501    0  0.00000000000E+00 -0.00000000000E+00 -0.14924416388E+04  0.14924416388E+04  0.50400000000E-02 0. -1.
    8880023    1    1    2    0    0  0.15288675939E+01 -0.36752669260E+03 -0.13299028992E+04  0.15288983402E+04  0.65864270000E+03 0.  0.
    8880022    1    1    2    0    0 -0.15288675939E+01  0.36752669260E+03  0.56539845779E+03  0.69148049596E+03  0.15294330000E+03 0.  0.
<mgrwt>
<rscale>  0 0.64287789E+03</rscale>
<asrwt>0</asrwt>
<pdfrwt beam="1">  1        1 0.22960640E+00 0.75424692E+03</pdfrwt>
<pdfrwt beam="2">  1       -1 0.11199034E+00 0.75424692E+03</pdfrwt>
<totfact> 0.50413382E+00</totfact>
</mgrwt>
</event>
<event>
 4    1  0.8114601E-008  0.8065409E+03  0.7818608E-02  0.9696828E-01
         -1   -1    0    0    0  501 -0.00000000000E+00  0.00000000000E+00  0.52090139764E+03  0.52090139766E+03  0.50400000000E-02 0.  1.
          1   -1    0    0  501    0  0.00000000000E+00 -0.00000000000E+00 -0.14340802560E+04  0.14340802560E+04  0.50400000000E-02 0. -1.
    8880023    1    1    2    0    0 -0.52796626194E+02  0.46250459081E+03 -0.11548685861E+04  0.14086268625E+04  0.65864270000E+03 0. -1.
    8880022    1    1    2    0    0  0.52796626194E+02 -0.46250459081E+03  0.24168972780E+03  0.54635479114E+03  0.15294330000E+03 0.  0.
<mgrwt>
<rscale>  0 0.71205979E+03</rscale>
<asrwt>0</asrwt>
<pdfrwt beam="1">  1        1 0.22062773E+00 0.80654088E+03</pdfrwt>
<pdfrwt beam="2">  1       -1 0.80138677E-01 0.80654088E+03</pdfrwt>
<totfact> 0.11624813E+01</totfact>
</mgrwt>
</event>
<event>
 4    1  0.8114601E-008  0.7322234E+03  0.7818608E-02  0.9883208E-01
          1   -1    0    0  501    0  0.00000000000E+00  0.00000000000E+00  0.21766741315E+04  0.21766741316E+04  0.50400000000E-02 0. -1.
         -1   -1    0    0    0  501 -0.00000000000E+00 -0.00000000000E+00 -0.23912060813E+03  0.23912060819E+03  0.50400000000E-02 0.  1.
    8880023    1    1    2    0    0  0.30032366185E+03  0.11021132395E+03  0.19265834401E+04  0.20610373106E+04  0.65864270000E+03 0. -1.
    8880022    1    1    2    0    0 -0.30032366185E+03 -0.11021132395E+03  0.10970083339E+02  0.35475742915E+03  0.15294330000E+03 0.  0.
<mgrwt>
<rscale>  0 0.61082053E+03</rscale>
<asrwt>0</asrwt>
<pdfrwt beam="1">  1        1 0.33487294E+00 0.73222336E+03</pdfrwt>
<pdfrwt beam="2">  1       -1 0.36787787E-01 0.73222336E+03</pdfrwt>
<totfact> 0.16789129E+01</totfact>
</mgrwt>
</event>
<event>
 4    1  0.8114601E-008  0.1244207E+04  0.7818608E-02  0.9115303E-01
         -1   -1    0    0    0  501 -0.00000000000E+00  0.00000000000E+00  0.34127460096E+04  0.34127460096E+04  0.50400000000E-02 0.  1.
          1   -1    0    0  501    0  0.00000000000E+00 -0.00000000000E+00 -0.10045270709E+04  0.10045270709E+04  0.50400000000E-02 0. -1.
    8880023    1    1    2    0    0 -0.10262136474E+04 -0.24723873237E+03 -0.48370730596E+03  0.13349248687E+04  0.65864270000E+03 0.  0.
    8880022    1    1    2    0    0  0.10262136474E+04  0.24723873237E+03  0.28919262447E+04  0.30823482118E+04  0.15294330000E+03 0.  0.
<mgrwt>
<rscale>  0 0.11972086E+04</rscale>
<asrwt>0</asrwt>
<pdfrwt beam="1">  1        1 0.15454262E+00 0.12442072E+04</pdfrwt>
<pdfrwt beam="2">  1       -1 0.52503786E+00 0.12442072E+04</pdfrwt>
<totfact> 0.15152924E-02</totfact>
</mgrwt>
</event>
<event>
 4    1  0.8114601E-008  0.9425838E+03  0.7818608E-02  0.9460866E-01
          1   -1    0    0  501    0  0.00000000000E+00  0.00000000000E+00  0.99785033929E+03  0.99785033931E+03  0.50400000000E-02 0. -1.
         -1   -1    0    0    0  501 -0.00000000000E+00 -0.00000000000E+00 -0.13199697261E+04  0.13199697261E+04  0.50400000000E-02 0.  1.
    8880023    1    1    2    0    0 -0.66475330264E+03 -0.11294752919E+03  0.63541254615E+03  0.11367556500E+04  0.65864270000E+03 0. -1.
    8880022    1    1    2    0    0  0.66475330264E+03  0.11294752919E+03 -0.95753193293E+03  0.11810644154E+04  0.15294330000E+03 0.  0.
<mgrwt>
<rscale>  0 0.87231568E+03</rscale>
<asrwt>0</asrwt>
<pdfrwt beam="1">  1        1 0.15351544E+00 0.94258384E+03</pdfrwt>
<pdfrwt beam="2">  1       -1 0.20307227E+00 0.94258384E+03</pdfrwt>
<totfact> 0.22040757E+00</totfact>
</mgrwt>
</event>
<event>
 4    1  0.8114601E-008  0.8153489E+03  0.7818608E-02  0.9678541E-01
         -1   -1    0    0    0  501 -0.00000000000E+00  0.00000000000E+00  0.41596760696E+03  0.41596760700E+03  0.50400000000E-02 0.  1.
          1   -1    0    0  501    0  0.00000000000E+00 -0.00000000000E+00 -0.18545837738E+04  0.18545837738E+04  0.50400000000E-02 0. -1.
    8880023    1    1    2    0    0  0.85546203597E+02  0.47293282058E+03 -0.15524234434E+04  0.17535142884E+04  0.65864270000E+03 0. -1.
    8880022    1    1    2    0    0 -0.85546203597E+02 -0.47293282058E+03  0.11380727654E+03  0.51703709242E+03  0.15294330000E+03 0.  0.
<mgrwt>
<rscale>  0 0.72308936E+03</rscale>
<asrwt>0</asrwt>
<pdfrwt beam="1">  1        1 0.28532058E+00 0.81534889E+03</pdfrwt>
<pdfrwt beam="2">  1       -1 0.63995017E-01 0.81534889E+03</pdfrwt>
<totfact> 0.95747964E+00</totfact>
</mgrwt>
</event>
<event>
 4    1  0.8114601E-008  0.6809910E+03  0.7818608E-02  0.1008769E+00
          1   -1    0    0  501    0  0.00000000000E+00  0.00000000000E+00  0.10705758850E+04  0.10705758851E+04  0.50400000000E-02 0. -1.
         -1   -1    0    0    0  501 -0.00000000000E+00 -0.00000000000E+00 -0.27618193230E+03  0.27618193235E+03  0.50400000000E-02 0.  1.
    8880023    1    1    2    0    0 -0.96117975179E+02  0.14387445854E+03  0.86902730856E+03  0.11040639448E+04  0.65864270000E+03 0. -1.
    8880022    1    1    2    0    0  0.96117975179E+02 -0.14387445854E+03 -0.74633355824E+02  0.24269387258E+03  0.15294330000E+03 0.  0.
<mgrwt>
<rscale>  0 0.51967001E+03</rscale>
<asrwt>0</asrwt>
<pdfrwt beam="1">  1        1 0.16470398E+00 0.68099099E+03</pdfrwt>
<pdfrwt beam="2">  1       -1 0.42489528E-01 0.68099099E+03</pdfrwt>
<totfact> 0.74802228E+01</totfact>
</mgrwt>
</event>
<event>
 4    1  0.8114601E-008  0.1243119E+04  0.7818608E-02  0.9116306E-01
         -1   -1    0    0    0  501 -0.00000000000E+00  0.00000000000E+00  0.14316221353E+04  0.14316221353E+04  0.50400000000E-02 0.  1.
          1   -1    0    0  501    0  0.00000000000E+00 -0.00000000000E+00 -0.17710457529E+04  0.17710457529E+04  0.50400000000E-02 0. -1.
    8880023    1    1    2    0    0  0.81172265964E+03 -0.67278644007E+03 -0.12779924035E+04  0.17828656876E+04  0.65864270000E+03 0. -1.
    8880022    1    1    2    0    0 -0.81172265964E+03  0.67278644007E+03  0.93856878591E+03  0.14198022007E+04  0.15294330000E+03 0.  0.
<mgrwt>
<rscale>  0 0.11960672E+04</rscale>
<asrwt>0</asrwt>
<pdfrwt beam="1">  1        1 0.27246858E+00 0.12431193E+04</pdfrwt>
<pdfrwt beam="2">  1       -1 0.22024956E+00 0.12431193E+04</pdfrwt>
<totfact> 0.45563537E-01</totfact>
</mgrwt>
</event>
<event>
 4    1  0.8114601E-008  0.8471018E+03  0.7818608E-02  0.9616932E-01
          1   -1    0    0  501    0  0.00000000000E+00  0.00000000000E+00  0.28671176857E+04  0.28671176857E+04  0.50400000000E-02 0. -1.
         -1   -1    0    0    0  501 -0.00000000000E+00 -0.00000000000E+00 -0.37292386368E+03  0.37292386372E+03  0.50400000000E-02 0.  1.
    8880023    1    1    2    0    0 -0.48332058286E+03 -0.22399193915E+03  0.25461704356E+04  0.26833869024E+04  0.65864270000E+03 0.  0.
    8880022    1    1    2    0    0  0.48332058286E+03  0.22399193915E+03 -0.51976613632E+02  0.55665464697E+03  0.15294330000E+03 0.  0.
<mgrwt>
<rscale>  0 0.76185578E+03</rscale>
<asrwt>0</asrwt>
<pdfrwt beam="1">  1        1 0.44109503E+00 0.84710175E+03</pdfrwt>
<pdfrwt beam="2">  1       -1 0.57372903E-01 0.84710175E+03</pdfrwt>
<totfact> 0.24125199E+00</totfact>
</mgrwt>
</event>
<event>
 4    1  0.8114601E-008  0.8619682E+03  0.7818608E-02  0.9590072E-01
          1   -1    0    0  501    0  0.00000000000E+00  0.00000000000E+00  0.15841274742E+04  0.15841274742E+04  0.50400000000E-02 0. -1.
         -1   -1    0    0    0  501 -0.00000000000E+00 -0.00000000000E+00 -0.10900036470E+04  0.10900036470E+04  0.50400000000E-02 0.  1.
    8880023    1    1    2    0    0  0.48611506808E+03  0.26994635681E+03  0.13740676188E+04  0.16220514549E+04  0.65864270000E+03 0.  0.
    8880022    1    1    2    0    0 -0.48611506808E+03 -0.26994635681E+03 -0.87994379161E+03  0.10520796664E+04  0.15294330000E+03 0.  0.
<mgrwt>
<rscale>  0 0.77956779E+03</rscale>
<asrwt>0</asrwt>
<pdfrwt beam="1">  1        1 0.24371192E+00 0.86196816E+03</pdfrwt>
<pdfrwt beam="2">  1       -1 0.16769287E+00 0.86196816E+03</pdfrwt>
<totfact> 0.15063860E+00</totfact>
</mgrwt>
</event>
<event>
 4    1  0.8114601E-008  0.7239509E+03  0.7818608E-02  0.9909438E-01
          1   -1    0    0  501    0  0.00000000000E+00  0.00000000000E+00  0.10312585137E+04  0.10312585137E+04  0.50400000000E-02 0. -1.
         -1   -1    0    0    0  501 -0.00000000000E+00 -0.00000000000E+00 -0.27923551331E+03  0.27923551335E+03  0.50400000000E-02 0.  1.
    8880023    1    1    2    0    0 -0.18233985482E+03  0.23884473724E+03  0.60158855008E+03  0.94128296543E+03  0.65864270000E+03 0. -1.
    8880022    1    1    2    0    0  0.18233985482E+03 -0.23884473724E+03  0.15043445029E+03  0.36921106161E+03  0.15294330000E+03 0. -1.
<mgrwt>
<rscale>  0 0.59806078E+03</rscale>
<asrwt>0</asrwt>
<pdfrwt beam="1">  1        1 0.15865515E+00 0.72395085E+03</pdfrwt>
<pdfrwt beam="2">  1       -1 0.42959310E-01 0.72395085E+03</pdfrwt>
<totfact> 0.78194323E+01</totfact>
</mgrwt>
</event>
<event>
 4    1  0.8114601E-008  0.8339860E+03  0.7818608E-02  0.9641626E-01
         -1   -1    0    0    0  501 -0.00000000000E+00  0.00000000000E+00  0.82752743715E+03  0.82752743717E+03  0.50400000000E-02 0.  1.
          1   -1    0    0  501    0  0.00000000000E+00 -0.00000000000E+00 -0.14681032424E+04  0.14681032424E+04  0.50400000000E-02 0. -1.
    8880023    1    1    2    0    0 -0.35918072039E+03  0.36429620006E+03 -0.12390506717E+04  0.14935793533E+04  0.65864270000E+03 0.  0.
    8880022    1    1    2    0    0  0.35918072039E+03 -0.36429620006E+03  0.59847486642E+03  0.80205132631E+03  0.15294330000E+03 0.  0.
<mgrwt>
<rscale>  0 0.74601307E+03</rscale>
<asrwt>0</asrwt>
<pdfrwt beam="1">  1        1 0.22586204E+00 0.83398604E+03</pdfrwt>
<pdfrwt beam="2">  1       -1 0.12731191E+00 0.83398604E+03</pdfrwt>
<totfact> 0.37857913E+00</totfact>
</mgrwt>
</event>
<event>
 4    1  0.8114601E-008  0.8481219E+03  0.7818608E-02  0.9615052E-01
         -1   -1    0    0    0  501 -0.00000000000E+00  0.00000000000E+00  0.89467288496E+03  0.89467288498E+03  0.50400000000E-02 0.  1.
          1   -1    0    0  501    0  0.00000000000E+00 -0.00000000000E+00 -0.12292120787E+04  0.12292120787E+04  0.50400000000E-02 0. -1.
    8880023    1    1    2    0    0 -0.27416670001E+03 -0.45862086655E+03 -0.96412934393E+03  0.12840779091E+04  0.65864270000E+03 0. -1.
    8880022    1    1    2    0    0  0.27416670001E+03  0.45862086655E+03  0.62959015020E+03  0.83980705455E+03  0.15294330000E+03 0.  0.
<mgrwt>
<rscale>  0 0.76307908E+03</rscale>
<asrwt>0</asrwt>
<pdfrwt beam="1">  1        1 0.18910955E+00 0.84812186E+03</pdfrwt>
<pdfrwt beam="2">  1       -1 0.13764198E+00 0.84812186E+03</pdfrwt>
<totfact> 0.45628421E+00</totfact>
</mgrwt>
</event>
<event>
 4    1  0.8114601E-008  0.7121876E+03  0.7818608E-02  0.9949965E-01
         -1   -1    0    0    0  501 -0.00000000000E+00  0.00000000000E+00  0.11178474190E+04  0.11178474190E+04  0.50400000000E-02 0.  1.
          1   -1    0    0  501    0  0.00000000000E+00 -0.00000000000E+00 -0.30135254170E+03  0.30135254174E+03  0.50400000000E-02 0. -1.
    8880023    1    1    2    0    0 -0.19454870596E+03  0.18855195377E+03  0.21822565237E+03  0.74487158617E+03  0.65864270000E+03 0. -1.
    8880022    1    1    2    0    0  0.19454870596E+03 -0.18855195377E+03  0.59826922496E+03  0.67432837461E+03  0.15294330000E+03 0.  0.
<mgrwt>
<rscale>  0 0.57899678E+03</rscale>
<asrwt>0</asrwt>
<pdfrwt beam="1">  1        1 0.46361929E-01 0.71218765E+03</pdfrwt>
<pdfrwt beam="2">  1       -1 0.17197653E+00 0.71218765E+03</pdfrwt>
<totfact> 0.21351048E+01</totfact>
</mgrwt>
</event>
<event>
 4    1  0.9214075E-008  0.9183863E+03  0.7818608E-02  0.9497138E-01
         -1   -1    0    0    0  501 -0.00000000000E+00  0.00000000000E+00  0.77672830808E+03  0.77672830809E+03  0.50400000000E-02 0.  1.
          1   -1    0    0  501    0  0.00000000000E+00 -0.00000000000E+00 -0.17655505115E+04  0.17655505115E+04  0.50400000000E-02 0. -1.
    8880023    1    1    2    0    0  0.33140808826E+03  0.54753249463E+03 -0.14656693778E+04  0.17296300428E+04  0.65864270000E+03 0.  0.
    8880022    1    1    2    0    0 -0.33140808826E+03 -0.54753249463E+03  0.47684717441E+03  0.81264877678E+03  0.15294330000E+03 0.  0.
<mgrwt>
<rscale>  0 0.84495170E+03</rscale>
<asrwt>0</asrwt>
<pdfrwt beam="1">  1        1 0.27162315E+00 0.91838628E+03</pdfrwt>
<pdfrwt beam="2">  1       -1 0.11949666E+00 0.91838628E+03</pdfrwt>
<totfact> 0.27431851E+00</totfact>
</mgrwt>
</event>
<event>
 4    1  0.8114601E-008  0.8725718E+03  0.7818608E-02  0.9571580E-01
         -1   -1    0    0    0  501 -0.00000000000E+00  0.00000000000E+00  0.18437344010E+03  0.18437344017E+03  0.50400000000E-02 0.  1.
          1   -1    0    0  501    0  0.00000000000E+00 -0.00000000000E+00 -0.31120025577E+04  0.31120025577E+04  0.50400000000E-02 0. -1.
    8880023    1    1    2    0    0 -0.50864499519E+03  0.26239600026E+03 -0.21381218289E+04  0.23093173350E+04  0.65864270000E+03 0. -1.
    8880022    1    1    2    0    0  0.50864499519E+03 -0.26239600026E+03 -0.78950728866E+03  0.98705866287E+03  0.15294330000E+03 0.  1.
<mgrwt>
<rscale>  0 0.79206088E+03</rscale>
<asrwt>0</asrwt>
<pdfrwt beam="1">  1        1 0.47876959E+00 0.87257183E+03</pdfrwt>
<pdfrwt beam="2">  1       -1 0.28365147E-01 0.87257183E+03</pdfrwt>
<totfact> 0.58248018E+00</totfact>
</mgrwt>
</event>
<event>
 4    1  0.8114601E-008  0.7714659E+03  0.7818608E-02  0.9776279E-01
          1   -1    0    0  501    0  0.00000000000E+00  0.00000000000E+00  0.20148687830E+04  0.20148687830E+04  0.50400000000E-02 0. -1.
         -1   -1    0    0    0  501 -0.00000000000E+00 -0.00000000000E+00 -0.33254234355E+03  0.33254234358E+03  0.50400000000E-02 0.  1.
    8880023    1    1    2    0    0 -0.89920195526E+02 -0.39148923848E+03  0.17498132358E+04  0.19123300007E+04  0.65864270000E+03 0. -1.
    8880022    1    1    2    0    0  0.89920195526E+02  0.39148923848E+03 -0.67486796283E+02  0.43508112588E+03  0.15294330000E+03 0.  0.
<mgrwt>
<rscale>  0 0.66651205E+03</rscale>
<asrwt>0</asrwt>
<pdfrwt beam="1">  1        1 0.30997980E+00 0.77146592E+03</pdfrwt>
<pdfrwt beam="2">  1       -1 0.51160363E-01 0.77146592E+03</pdfrwt>
<totfact> 0.11651459E+01</totfact>
</mgrwt>
</event>
<event>
 4    1  0.8114601E-008  0.9322047E+03  0.7818608E-02  0.9476194E-01
         -1   -1    0    0    0  501 -0.00000000000E+00  0.00000000000E+00  0.26587798136E+04  0.26587798136E+04  0.50400000000E-02 0.  1.
          1   -1    0    0  501    0  0.00000000000E+00 -0.00000000000E+00 -0.79353480315E+03  0.79353480317E+03  0.50400000000E-02 0. -1.
    8880023    1    1    2    0    0 -0.34062364402E+03 -0.56495210311E+03 -0.45353152715E+03  0.10366756475E+04  0.65864270000E+03 0.  0.
    8880022    1    1    2    0    0  0.34062364402E+03  0.56495210311E+03  0.23187765376E+04  0.24156389693E+04  0.15294330000E+03 0.  0.
<mgrwt>
<rscale>  0 0.86061948E+03</rscale>
<asrwt>0</asrwt>
<pdfrwt beam="1">  1        1 0.12208228E+00 0.93220467E+03</pdfrwt>
<pdfrwt beam="2">  1       -1 0.40904305E+00 0.93220467E+03</pdfrwt>
<totfact> 0.14433126E-01</totfact>
</mgrwt>
</event>
<event>
 4    1  0.8114601E-008  0.9954897E+03  0.7818608E-02  0.9387482E-01
          1   -1    0    0  501    0  0.00000000000E+00  0.00000000000E+00  0.13922843552E+04  0.13922843552E+04  0.50400000000E-02 0. -1.
         -1   -1    0    0    0  501 -0.00000000000E+00 -0.00000000000E+00 -0.93051463315E+03  0.93051463317E+03  0.50400000000E-02 0.  1.
    8880023    1    1    2    0    0 -0.58248083811E+03 -0.46680362098E+03  0.98346323445E+03  0.13993568834E+04  0.65864270000E+03 0.  0.
    8880022    1    1    2    0    0  0.58248083811E+03  0.46680362098E+03 -0.52169351241E+03  0.92344210497E+03  0.15294330000E+03 0.  0.
<mgrwt>
<rscale>  0 0.93113028E+03</rscale>
<asrwt>0</asrwt>
<pdfrwt beam="1">  1        1 0.21419759E+00 0.99548971E+03</pdfrwt>
<pdfrwt beam="2">  1       -1 0.14315610E+00 0.99548971E+03</pdfrwt>
<totfact> 0.30909550E+00</totfact>
</mgrwt>
</event>
<event>
 4    1  0.8114601E-008  0.8789594E+03  0.7818608E-02  0.9560689E-01
          1   -1    0    0  501    0  0.00000000000E+00  0.00000000000E+00  0.59497225290E+03  0.59497225292E+03  0.50400000000E-02 0. -1.
         -1   -1    0    0    0  501 -0.00000000000E+00 -0.00000000000E+00 -0.12827977477E+04  0.12827977478E+04  0.50400000000E-02 0.  1.
    8880023    1    1    2    0    0  0.57619979171E+03  0.82177916723E+02  0.10194411639E+03  0.88485152376E+03  0.65864270000E+03 0.  0.
    8880022    1    1    2    0    0 -0.57619979171E+03 -0.82177916723E+02 -0.78976961124E+03  0.99291847692E+03  0.15294330000E+03 0.  0.
<mgrwt>
<rscale>  0 0.79953564E+03</rscale>
<asrwt>0</asrwt>
<pdfrwt beam="1">  1        1 0.91534193E-01 0.87895939E+03</pdfrwt>
<pdfrwt beam="2">  1       -1 0.19735350E+00 0.87895939E+03</pdfrwt>
<totfact> 0.55398875E+00</totfact>
</mgrwt>
</event>
<event>
 4    1  0.8114601E-008  0.1321711E+04  0.7818608E-02  0.9047034E-01
          1   -1    0    0  501    0  0.00000000000E+00  0.00000000000E+00  0.13119110386E+04  0.13119110386E+04  0.50400000000E-02 0. -1.
         -1   -1    0    0    0  501 -0.00000000000E+00 -0.00000000000E+00 -0.19271230969E+04  0.19271230969E+04  0.50400000000E-02 0.  1.
    8880023    1    1    2    0    0  0.11447888154E+04  0.50687724716E+02  0.69368695662E+03  0.14926896788E+04  0.65864270000E+03 0.  0.
    8880022    1    1    2    0    0 -0.11447888154E+04 -0.50687724716E+02 -0.13088990149E+04  0.17463444567E+04  0.15294330000E+03 0.  0.
<mgrwt>
<rscale>  0 0.12781996E+04</rscale>
<asrwt>0</asrwt>
<pdfrwt beam="1">  1        1 0.20183247E+00 0.13217113E+04</pdfrwt>
<pdfrwt beam="2">  1       -1 0.29648047E+00 0.13217113E+04</pdfrwt>
<totfact> 0.29880181E-01</totfact>
</mgrwt>
</event>
<event>
 4    1  0.8114601E-008  0.1029720E+04  0.7818608E-02  0.9343667E-01
          1   -1    0    0  501    0  0.00000000000E+00  0.00000000000E+00  0.13135160019E+04  0.13135160019E+04  0.50400000000E-02 0. -1.
         -1   -1    0    0    0  501 -0.00000000000E+00 -0.00000000000E+00 -0.14293379333E+04  0.14293379333E+04  0.50400000000E-02 0.  1.
    8880023    1    1    2    0    0 -0.51874861614E+03  0.59784081540E+03  0.95370846167E+03  0.14035254908E+04  0.65864270000E+03 0. -1.
    8880022    1    1    2    0    0  0.51874861614E+03 -0.59784081540E+03 -0.10695303930E+04  0.13393284444E+04  0.15294330000E+03 0.  0.
<mgrwt>
<rscale>  0 0.96860284E+03</rscale>
<asrwt>0</asrwt>
<pdfrwt beam="1">  1        1 0.20207938E+00 0.10297203E+04</pdfrwt>
<pdfrwt beam="2">  1       -1 0.21989814E+00 0.10297203E+04</pdfrwt>
<totfact> 0.97768847E-01</totfact>
</mgrwt>
</event>
<event>
 4    1  0.8114601E-008  0.7452900E+03  0.7818608E-02  0.9844797E-01
         -1   -1    0    0    0  501 -0.00000000000E+00  0.00000000000E+00  0.16208627884E+03  0.16208627892E+03  0.50400000000E-02 0.  1.
          1   -1    0    0  501    0  0.00000000000E+00 -0.00000000000E+00 -0.24028609007E+04  0.24028609007E+04  0.50400000000E-02 0. -1.
    8880023    1    1    2    0    0 -0.14769049696E+03 -0.31596586611E+03 -0.19445011715E+04  0.20824365354E+04  0.65864270000E+03 0. -1.
    8880022    1    1    2    0    0  0.14769049696E+03  0.31596586611E+03 -0.29627345029E+03  0.48251064424E+03  0.15294330000E+03 0.  0.
<mgrwt>
<rscale>  0 0.63012888E+03</rscale>
<asrwt>0</asrwt>
<pdfrwt beam="1">  1        1 0.36967088E+00 0.74528996E+03</pdfrwt>
<pdfrwt beam="2">  1       -1 0.24936352E-01 0.74528996E+03</pdfrwt>
<totfact> 0.23266042E+01</totfact>
</mgrwt>
</event>
<event>
 4    1  0.8114601E-008  0.7320925E+03  0.7818608E-02  0.9883610E-01
         -1   -1    0    0    0  501 -0.00000000000E+00  0.00000000000E+00  0.55988508063E+03  0.55988508065E+03  0.50400000000E-02 0.  1.
          1   -1    0    0  501    0  0.00000000000E+00 -0.00000000000E+00 -0.72472101257E+03  0.72472101259E+03  0.50400000000E-02 0. -1.
    8880023    1    1    2    0    0  0.53069816768E+02 -0.31517099451E+03 -0.42364329287E+03  0.84583272997E+03  0.65864270000E+03 0.  0.
    8880022    1    1    2    0    0 -0.53069816768E+02  0.31517099451E+03  0.25880736092E+03  0.43877336327E+03  0.15294330000E+03 0.  1.
<mgrwt>
<rscale>  0 0.61062217E+03</rscale>
<asrwt>0</asrwt>
<pdfrwt beam="1">  1        1 0.11149554E+00 0.73209246E+03</pdfrwt>
<pdfrwt beam="2">  1       -1 0.86136166E-01 0.73209246E+03</pdfrwt>
<totfact> 0.35256247E+01</totfact>
</mgrwt>
</event>
<event>
 4    1  0.8114601E-008  0.1703229E+04  0.7818608E-02  0.8778044E-01
         -1   -1    0    0    0  501 -0.00000000000E+00  0.00000000000E+00  0.20498941542E+04  0.20498941542E+04  0.50400000000E-02 0.  1.
          1   -1    0    0  501    0  0.00000000000E+00 -0.00000000000E+00 -0.14639712272E+04  0.14639712272E+04  0.50400000000E-02 0. -1.
    8880023    1    1    2    0    0  0.13919839277E+04  0.72770807356E+03 -0.26053250468E+03  0.17230396651E+04  0.65864270000E+03 0.  0.
    8880022    1    1    2    0    0 -0.13919839277E+04 -0.72770807356E+03  0.84645543169E+03  0.17908257163E+04  0.15294330000E+03 0.  0.
<mgrwt>
<rscale>  0 0.16710602E+04</rscale>
<asrwt>0</asrwt>
<pdfrwt beam="1">  1        1 0.22522634E+00 0.17032288E+04</pdfrwt>
<pdfrwt beam="2">  1       -1 0.31536833E+00 0.17032288E+04</pdfrwt>
<totfact> 0.16820151E-01</totfact>
</mgrwt>
</event>
<event>
 4    1  0.8114601E-008  0.8522507E+03  0.7818608E-02  0.9607499E-01
          1   -1    0    0  501    0  0.00000000000E+00  0.00000000000E+00  0.18330332428E+04  0.18330332428E+04  0.50400000000E-02 0. -1.
         -1   -1    0    0    0  501 -0.00000000000E+00 -0.00000000000E+00 -0.67908020093E+03  0.67908020095E+03  0.50400000000E-02 0.  1.
    8880023    1    1    2    0    0 -0.40828719559E+03  0.35471475733E+03  0.15878152264E+04  0.18020789085E+04  0.65864270000E+03 0. -1.
    8880022    1    1    2    0    0  0.40828719559E+03 -0.35471475733E+03 -0.43386218447E+03  0.71003453527E+03  0.15294330000E+03 0.  0.
<mgrwt>
<rscale>  0 0.76801798E+03</rscale>
<asrwt>0</asrwt>
<pdfrwt beam="1">  1        1 0.28200512E+00 0.85225067E+03</pdfrwt>
<pdfrwt beam="2">  1       -1 0.10447388E+00 0.85225067E+03</pdfrwt>
<totfact> 0.34352815E+00</totfact>
</mgrwt>
</event>
<event>
 4    1  0.8114601E-008  0.7926881E+03  0.7818608E-02  0.9726835E-01
          1   -1    0    0  501    0  0.00000000000E+00  0.00000000000E+00  0.29236915211E+03  0.29236915216E+03  0.50400000000E-02 0. -1.
         -1   -1    0    0    0  501 -0.00000000000E+00 -0.00000000000E+00 -0.18158278343E+04  0.18158278343E+04  0.50400000000E-02 0.  1.
    8880023    1    1    2    0    0  0.34690789046E+03 -0.27239520984E+03 -0.39221658815E+03  0.88441409593E+03  0.65864270000E+03 0.  0.
    8880022    1    1    2    0    0 -0.34690789046E+03  0.27239520984E+03 -0.11312420941E+04  0.12237828906E+04  0.15294330000E+03 0.  0.
<mgrwt>
<rscale>  0 0.69441302E+03</rscale>
<asrwt>0</asrwt>
<pdfrwt beam="1">  1        1 0.44979871E-01 0.79268811E+03</pdfrwt>
<pdfrwt beam="2">  1       -1 0.27935812E+00 0.79268811E+03</pdfrwt>
<totfact> 0.42272746E+00</totfact>
</mgrwt>
</event>
<event>
 4    1  0.8114601E-008  0.9115033E+03  0.7818608E-02  0.9507812E-01
          1   -1    0    0  501    0  0.00000000000E+00  0.00000000000E+00  0.12195699590E+04  0.12195699590E+04  0.50400000000E-02 0. -1.
         -1   -1    0    0    0  501 -0.00000000000E+00 -0.00000000000E+00 -0.14544660911E+04  0.14544660911E+04  0.50400000000E-02 0.  1.
    8880023    1    1    2    0    0 -0.61427015580E+03  0.14035781854E+03  0.95423135710E+03  0.13196195780E+04  0.65864270000E+03 0. -1.
    8880022    1    1    2    0    0  0.61427015580E+03 -0.14035781854E+03 -0.11891274892E+04  0.13544164722E+04  0.15294330000E+03 0.  0.
<mgrwt>
<rscale>  0 0.83710338E+03</rscale>
<asrwt>0</asrwt>
<pdfrwt beam="1">  1        1 0.18762615E+00 0.91150334E+03</pdfrwt>
<pdfrwt beam="2">  1       -1 0.22376401E+00 0.91150334E+03</pdfrwt>
<totfact> 0.10959736E+00</totfact>
</mgrwt>
</event>
<event>
 4    1  0.8114601E-008  0.8565795E+03  0.7818608E-02  0.9599677E-01
         -1   -1    0    0    0  501 -0.00000000000E+00  0.00000000000E+00  0.80624859607E+03  0.80624859608E+03  0.50400000000E-02 0.  1.
          1   -1    0    0  501    0  0.00000000000E+00 -0.00000000000E+00 -0.82105257901E+03  0.82105257903E+03  0.50400000000E-02 0. -1.
    8880023    1    1    2    0    0  0.15551411934E+03  0.52510333592E+03 -0.39503255461E+03  0.94328101866E+03  0.65864270000E+03 0.  0.
    8880022    1    1    2    0    0 -0.15551411934E+03 -0.52510333592E+03  0.38022857167E+03  0.68402015645E+03  0.15294330000E+03 0.  0.
<mgrwt>
<rscale>  0 0.77317553E+03</rscale>
<asrwt>0</asrwt>
<pdfrwt beam="1">  1        1 0.12631578E+00 0.85657945E+03</pdfrwt>
<pdfrwt beam="2">  1       -1 0.12403824E+00 0.85657945E+03</pdfrwt>
<totfact> 0.12300370E+01</totfact>
</mgrwt>
</event>
<event>
 4    1  0.8114601E-008  0.7496047E+03  0.7818608E-02  0.9832804E-01
          1   -1    0    0  501    0  0.00000000000E+00  0.00000000000E+00  0.73159203596E+03  0.73159203598E+03  0.50400000000E-02 0. -1.
         -1   -1    0    0    0  501 -0.00000000000E+00 -0.00000000000E+00 -0.70247398539E+03  0.70247398541E+03  0.50400000000E-02 0.  1.
    8880023    1    1    2    0    0  0.85578967267E+02 -0.34752437386E+03  0.43911099379E+03  0.86874945824E+03  0.65864270000E+03 0.  1.
    8880022    1    1    2    0    0 -0.85578967267E+02  0.34752437386E+03 -0.40999294322E+03  0.56531656315E+03  0.15294330000E+03 0.  0.
<mgrwt>
<rscale>  0 0.63631433E+03</rscale>
<asrwt>0</asrwt>
<pdfrwt beam="1">  1        1 0.11255262E+00 0.74960467E+03</pdfrwt>
<pdfrwt beam="2">  1       -1 0.10807292E+00 0.74960467E+03</pdfrwt>
<totfact> 0.20803397E+01</totfact>
</mgrwt>
</event>
<event>
 4    1  0.8114601E-008  0.7602555E+03  0.7818608E-02  0.9804446E-01
          1   -1    0    0  501    0  0.00000000000E+00  0.00000000000E+00  0.65420126925E+03  0.65420126927E+03  0.50400000000E-02 0. -1.
         -1   -1    0    0    0  501 -0.00000000000E+00 -0.00000000000E+00 -0.19697699630E+04  0.19697699630E+04  0.50400000000E-02 0.  1.
    8880023    1    1    2    0    0  0.31588031508E+03  0.21070801281E+03  0.40081881720E+03  0.85944410557E+03  0.65864270000E+03 0. -1.
    8880022    1    1    2    0    0 -0.31588031508E+03 -0.21070801281E+03 -0.17163875110E+04  0.17645271267E+04  0.15294330000E+03 0.  0.
<mgrwt>
<rscale>  0 0.65124467E+03</rscale>
<asrwt>0</asrwt>
<pdfrwt beam="1">  1        1 0.10064635E+00 0.76025551E+03</pdfrwt>
<pdfrwt beam="2">  1       -1 0.30304153E+00 0.76025551E+03</pdfrwt>
<totfact> 0.10040580E+00</totfact>
</mgrwt>
</event>
<event>
 4    1  0.8114601E-008  0.1439039E+04  0.7818608E-02  0.8953927E-01
         -1   -1    0    0    0  501 -0.00000000000E+00  0.00000000000E+00  0.10977004028E+04  0.10977004028E+04  0.50400000000E-02 0.  1.
          1   -1    0    0  501    0  0.00000000000E+00 -0.00000000000E+00 -0.32104030171E+04  0.32104030171E+04  0.50400000000E-02 0. -1.
    8880023    1    1    2    0    0  0.12202570350E+04 -0.38470237543E+03 -0.25661295936E+04  0.29420833514E+04  0.65864270000E+03 0. -1.
    8880022    1    1    2    0    0 -0.12202570350E+04  0.38470237543E+03  0.45342697926E+03  0.13660200685E+04  0.15294330000E+03 0.  0.
<mgrwt>
<rscale>  0 0.13998500E+04</rscale>
<asrwt>0</asrwt>
<pdfrwt beam="1">  1        1 0.49390815E+00 0.14390390E+04</pdfrwt>
<pdfrwt beam="2">  1       -1 0.16887699E+00 0.14390390E+04</pdfrwt>
<totfact> 0.10046671E-01</totfact>
</mgrwt>
</event>
<event>
 4    1  0.8114601E-008  0.1112833E+04  0.7818608E-02  0.9246901E-01
          1   -1    0    0  501    0  0.00000000000E+00  0.00000000000E+00  0.16905134688E+04  0.16905134688E+04  0.50400000000E-02 0. -1.
         -1   -1    0    0    0  501 -0.00000000000E+00 -0.00000000000E+00 -0.11242230433E+04  0.11242230433E+04  0.50400000000E-02 0.  1.
    8880023    1    1    2    0    0  0.45072316161E+03  0.77552323820E+03  0.12522061669E+04  0.16752367451E+04  0.65864270000E+03 0.  0.
    8880022    1    1    2    0    0 -0.45072316161E+03 -0.77552323820E+03 -0.68591574145E+03  0.11394997669E+04  0.15294330000E+03 0.  0.
<mgrwt>
<rscale>  0 0.10582177E+04</rscale>
<asrwt>0</asrwt>
<pdfrwt beam="1">  1        1 0.26007899E+00 0.11128333E+04</pdfrwt>
<pdfrwt beam="2">  1       -1 0.17295739E+00 0.11128333E+04</pdfrwt>
<totfact> 0.11230884E+00</totfact>
</mgrwt>
</event>
<event>
 4    1  0.8114601E-008  0.7631980E+03  0.7818608E-02  0.9796898E-01
          1   -1    0    0  501    0  0.00000000000E+00  0.00000000000E+00  0.36476953258E+04  0.36476953258E+04  0.50400000000E-02 0. -1.
         -1   -1    0    0    0  501 -0.00000000000E+00 -0.00000000000E+00 -0.10636019936E+03  0.10636019948E+03  0.50400000000E-02 0.  1.
    8880023    1    1    2    0    0 -0.22013867576E+03 -0.31654363816E+03  0.28251750045E+04  0.29264457835E+04  0.65864270000E+03 0.  0.
    8880022    1    1    2    0    0  0.22013867576E+03  0.31654363816E+03  0.71616012188E+03  0.82760974173E+03  0.15294330000E+03 0.  0.
<mgrwt>
<rscale>  0 0.65529302E+03</rscale>
<asrwt>0</asrwt>
<pdfrwt beam="1">  1        1 0.56118395E+00 0.76319795E+03</pdfrwt>
<pdfrwt beam="2">  1       -1 0.16363106E-01 0.76319795E+03</pdfrwt>
<totfact> 0.58631783E+00</totfact>
</mgrwt>
</event>
<event>
 4    1  0.8114601E-008  0.8309633E+03  0.7818608E-02  0.9647461E-01
          1   -1    0    0  501    0  0.00000000000E+00  0.00000000000E+00  0.80469497201E+03  0.80469497203E+03  0.50400000000E-02 0. -1.
         -1   -1    0    0    0  501 -0.00000000000E+00 -0.00000000000E+00 -0.18418945856E+04  0.18418945856E+04  0.50400000000E-02 0.  1.
    8880023    1    1    2    0    0 -0.48764749112E+03  0.13743968573E+03  0.53460544444E+03  0.98808042704E+03  0.65864270000E+03 0. -1.
    8880022    1    1    2    0    0  0.48764749112E+03 -0.13743968573E+03 -0.15718050580E+04  0.16585091306E+04  0.15294330000E+03 0.  0.
<mgrwt>
<rscale>  0 0.74232981E+03</rscale>
<asrwt>0</asrwt>
<pdfrwt beam="1">  1        1 0.12379923E+00 0.83096327E+03</pdfrwt>
<pdfrwt beam="2">  1       -1 0.28336840E+00 0.83096327E+03</pdfrwt>
<totfact> 0.96343232E-01</totfact>
</mgrwt>
</event>
<event>
 4    1  0.8114601E-008  0.9309066E+03  0.7818608E-02  0.9478135E-01
         -1   -1    0    0    0  501 -0.00000000000E+00  0.00000000000E+00  0.42549155739E+03  0.42549155742E+03  0.50400000000E-02 0.  1.
          1   -1    0    0  501    0  0.00000000000E+00 -0.00000000000E+00 -0.22156109300E+04  0.22156109300E+04  0.50400000000E-02 0. -1.
    8880023    1    1    2    0    0 -0.27170186138E+02  0.65729642182E+03 -0.17280667437E+04  0.19628554919E+04  0.65864270000E+03 0.  0.
    8880022    1    1    2    0    0  0.27170186138E+02 -0.65729642182E+03 -0.62052628908E+02  0.67824699552E+03  0.15294330000E+03 0.  0.
<mgrwt>
<rscale>  0 0.85915243E+03</rscale>
<asrwt>0</asrwt>
<pdfrwt beam="1">  1        1 0.34086322E+00 0.93090655E+03</pdfrwt>
<pdfrwt beam="2">  1       -1 0.65460241E-01 0.93090655E+03</pdfrwt>
<totfact> 0.51489846E+00</totfact>
</mgrwt>
</event>
<event>
 4    1  0.8114601E-008  0.6918358E+03  0.7818608E-02  0.1003292E+00
          1   -1    0    0  501    0  0.00000000000E+00  0.00000000000E+00  0.75773872607E+03  0.75773872609E+03  0.50400000000E-02 0. -1.
         -1   -1    0    0    0  501 -0.00000000000E+00 -0.00000000000E+00 -0.77444277732E+03  0.77444277734E+03  0.50400000000E-02 0.  1.
    8880023    1    1    2    0    0 -0.15549786942E+03 -0.14369065429E+03  0.56584141661E+03  0.89376356300E+03  0.65864270000E+03 0. -1.
    8880022    1    1    2    0    0  0.15549786942E+03  0.14369065429E+03 -0.58254546787E+03  0.63841794043E+03  0.15294330000E+03 0.  0.
<mgrwt>
<rscale>  0 0.54230031E+03</rscale>
<asrwt>0</asrwt>
<pdfrwt beam="1">  1        1 0.11657519E+00 0.69183582E+03</pdfrwt>
<pdfrwt beam="2">  1       -1 0.11914504E+00 0.69183582E+03</pdfrwt>
<totfact> 0.15731736E+01</totfact>
</mgrwt>
</event>
<event>
 4    1  0.8114601E-008  0.9870900E+03  0.7818608E-02  0.9398646E-01
         -1   -1    0    0    0  501 -0.00000000000E+00  0.00000000000E+00  0.21427225336E+04  0.21427225336E+04  0.50400000000E-02 0.  1.
          1   -1    0    0  501    0  0.00000000000E+00 -0.00000000000E+00 -0.55814734572E+03  0.55814734574E+03  0.50400000000E-02 0. -1.
    8880023    1    1    2    0    0  0.72367510686E+03  0.12973376960E+03  0.16752841574E+04  0.19444597516E+04  0.65864270000E+03 0.  1.
    8880022    1    1    2    0    0 -0.72367510686E+03 -0.12973376960E+03 -0.90708969486E+02  0.75641012779E+03  0.15294330000E+03 0.  0.
<mgrwt>
<rscale>  0 0.92187183E+03</rscale>
<asrwt>0</asrwt>
<pdfrwt beam="1">  1        1 0.85868822E-01 0.98709003E+03</pdfrwt>
<pdfrwt beam="2">  1       -1 0.32964962E+00 0.98709003E+03</pdfrwt>
<totfact> 0.82009269E-01</totfact>
</mgrwt>
</event>
<event>
 4    1  0.8114601E-008  0.7135799E+03  0.7818608E-02  0.9944940E-01
          1   -1    0    0  501    0  0.00000000000E+00  0.00000000000E+00  0.13606519734E+04  0.13606519734E+04  0.50400000000E-02 0. -1.
         -1   -1    0    0    0  501 -0.00000000000E+00 -0.00000000000E+00 -0.40751138802E+03  0.40751138805E+03  0.50400000000E-02 0.  1.
    8880023    1    1    2    0    0 -0.18218261179E+03 -0.20541563917E+03  0.11810871917E+04  0.13799142182E+04  0.65864270000E+03 0. -1.
    8880022    1    1    2    0    0  0.18218261179E+03  0.20541563917E+03 -0.22794660637E+03  0.38824914324E+03  0.15294330000E+03 0.  0.
<mgrwt>
<rscale>  0 0.58131878E+03</rscale>
<asrwt>0</asrwt>
<pdfrwt beam="1">  1        1 0.20933107E+00 0.71357992E+03</pdfrwt>
<pdfrwt beam="2">  1       -1 0.62694060E-01 0.71357992E+03</pdfrwt>
<totfact> 0.21922562E+01</totfact>
</mgrwt>
</event>
<event>
 4    1  0.8114601E-008  0.8046956E+03  0.7818608E-02  0.9700734E-01
         -1   -1    0    0    0  501 -0.00000000000E+00  0.00000000000E+00  0.41049680797E+03  0.41049680801E+03  0.50400000000E-02 0.  1.
          1   -1    0    0  501    0  0.00000000000E+00 -0.00000000000E+00 -0.18745808991E+04  0.18745808991E+04  0.50400000000E-02 0. -1.
    8880023    1    1    2    0    0 -0.15541742003E+03  0.43539669694E+03 -0.15900735073E+04  0.17820967491E+04  0.65864270000E+03 0.  0.
    8880022    1    1    2    0    0  0.15541742003E+03 -0.43539669694E+03  0.12598941617E+03  0.50298095805E+03  0.15294330000E+03 0.  0.
<mgrwt>
<rscale>  0 0.70973130E+03</rscale>
<asrwt>0</asrwt>
<pdfrwt beam="1">  1        1 0.28839706E+00 0.80469563E+03</pdfrwt>
<pdfrwt beam="2">  1       -1 0.63153356E-01 0.80469563E+03</pdfrwt>
<totfact> 0.95477181E+00</totfact>
</mgrwt>
</event>
<event>
 4    1  0.8114601E-008  0.6693280E+03  0.7818608E-02  0.1016149E+00
         -1   -1    0    0    0  501 -0.00000000000E+00  0.00000000000E+00  0.46097395245E+03  0.46097395248E+03  0.50400000000E-02 0.  1.
          1   -1    0    0  501    0  0.00000000000E+00 -0.00000000000E+00 -0.18797014380E+04  0.18797014380E+04  0.50400000000E-02 0. -1.
    8880023    1    1    2    0    0 -0.94931915667E+02 -0.71956556543E+02 -0.17959136911E+04  0.19165870726E+04  0.65864270000E+03 0. -1.
    8880022    1    1    2    0    0  0.94931915667E+02  0.71956556543E+02  0.37718620559E+03  0.42408831786E+03  0.15294330000E+03 0.  0.
<mgrwt>
<rscale>  0 0.49102203E+03</rscale>
<asrwt>0</asrwt>
<pdfrwt beam="1">  1        1 0.28918483E+00 0.66932804E+03</pdfrwt>
<pdfrwt beam="2">  1       -1 0.70919071E-01 0.66932804E+03</pdfrwt>
<totfact> 0.76593780E+00</totfact>
</mgrwt>
</event>
<event>
 4    1  0.8487581E-008  0.7327366E+03  0.7818608E-02  0.9881633E-01
          1   -1    0    0  501    0  0.00000000000E+00  0.00000000000E+00  0.19417209489E+04  0.19417209489E+04  0.50400000000E-02 0. -1.
         -1   -1    0    0    0  501 -0.00000000000E+00 -0.00000000000E+00 -0.10584103601E+04  0.10584103601E+04  0.50400000000E-02 0.  1.
    8880023    1    1    2    0    0  0.30664687276E+03 -0.95186094354E+02  0.18394342832E+04  0.19800054004E+04  0.65864270000E+03 0.  0.
    8880022    1    1    2    0    0 -0.30664687276E+03  0.95186094354E+02 -0.95612369443E+03  0.10201259085E+04  0.15294330000E+03 0.  1.
<mgrwt>
<rscale>  0 0.61159723E+03</rscale>
<asrwt>0</asrwt>
<pdfrwt beam="1">  1        1 0.29872630E+00 0.73273659E+03</pdfrwt>
<pdfrwt beam="2">  1       -1 0.16283236E+00 0.73273659E+03</pdfrwt>
<totfact> 0.96443185E-01</totfact>
</mgrwt>
</event>
<event>
 4    1  0.8114601E-008  0.9914224E+03  0.7818608E-02  0.9392867E-01
         -1   -1    0    0    0  501 -0.00000000000E+00  0.00000000000E+00  0.24003623813E+04  0.24003623813E+04  0.50400000000E-02 0.  1.
          1   -1    0    0  501    0  0.00000000000E+00 -0.00000000000E+00 -0.46177072419E+03  0.46177072422E+03  0.50400000000E-02 0. -1.
    8880023    1    1    2    0    0  0.71173093828E+03  0.20626969051E+03  0.26619377899E+03  0.10265366277E+04  0.65864270000E+03 0. -1.
    8880022    1    1    2    0    0 -0.71173093828E+03 -0.20626969051E+03  0.16723978781E+04  0.18355964778E+04  0.15294330000E+03 0.  0.
<mgrwt>
<rscale>  0 0.92665047E+03</rscale>
<asrwt>0</asrwt>
<pdfrwt beam="1">  1        1 0.71041650E-01 0.99142237E+03</pdfrwt>
<pdfrwt beam="2">  1       -1 0.36928652E+00 0.99142237E+03</pdfrwt>
<totfact> 0.58518004E-01</totfact>
</mgrwt>
</event>
<event>
 4    1  0.8114601E-008  0.8299615E+03  0.7818608E-02  0.9649407E-01
          1   -1    0    0  501    0  0.00000000000E+00  0.00000000000E+00  0.15455566229E+04  0.15455566229E+04  0.50400000000E-02 0. -1.
         -1   -1    0    0    0  501 -0.00000000000E+00 -0.00000000000E+00 -0.84588299878E+03  0.84588299879E+03  0.50400000000E-02 0.  1.
    8880023    1    1    2    0    0  0.46493289886E+03 -0.19713793269E+03 -0.57646382570E+03  0.10105180422E+04  0.65864270000E+03 0.  1.
    8880022    1    1    2    0    0 -0.46493289886E+03  0.19713793269E+03  0.12761374498E+04  0.13809215795E+04  0.15294330000E+03 0.  0.
<mgrwt>
<rscale>  0 0.74110641E+03</rscale>
<asrwt>0</asrwt>
<pdfrwt beam="1">  1        1 0.23777794E+00 0.82996155E+03</pdfrwt>
<pdfrwt beam="2">  1       -1 0.13013585E+00 0.82996155E+03</pdfrwt>
<totfact> 0.31721089E+00</totfact>
</mgrwt>
</event>
<event>
 4    1  0.8114601E-008  0.6792432E+03  0.7818608E-02  0.1009755E+00
         -1   -1    0    0    0  501 -0.00000000000E+00  0.00000000000E+00  0.10574357912E+04  0.10574357912E+04  0.50400000000E-02 0.  1.
          1   -1    0    0  501    0  0.00000000000E+00 -0.00000000000E+00 -0.45527659784E+03  0.45527659786E+03  0.50400000000E-02 0. -1.
    8880023    1    1    2    0    0  0.11865664940E+03  0.11611061426E+03 -0.17666061783E+03  0.70184061962E+03  0.65864270000E+03 0. -1.
    8880022    1    1    2    0    0 -0.11865664940E+03 -0.11611061426E+03  0.77881981122E+03  0.81087176949E+03  0.15294330000E+03 0.  0.
<mgrwt>
<rscale>  0 0.51572109E+03</rscale>
<asrwt>0</asrwt>
<pdfrwt beam="1">  1        1 0.70042554E-01 0.67924317E+03</pdfrwt>
<pdfrwt beam="2">  1       -1 0.16268243E+00 0.67924317E+03</pdfrwt>
<totfact> 0.14575013E+01</totfact>
</mgrwt>
</event>
<event>
 4    1  0.8114601E-008  0.8137393E+03  0.7818608E-02  0.9681840E-01
         -1   -1    0    0    0  501 -0.00000000000E+00  0.00000000000E+00  0.57755513512E+03  0.57755513514E+03  0.50400000000E-02 0.  1.
          1   -1    0    0  501    0  0.00000000000E+00 -0.00000000000E+00 -0.13924862059E+04  0.13924862059E+04  0.50400000000E-02 0. -1.
    8880023    1    1    2    0    0  0.45424994898E+03 -0.14838616448E+03 -0.11188132591E+04  0.13834430906E+04  0.65864270000E+03 0. -1.
    8880022    1    1    2    0    0 -0.45424994898E+03  0.14838616448E+03  0.30388218836E+03  0.58659825040E+03  0.15294330000E+03 0.  0.
<mgrwt>
<rscale>  0 0.72108396E+03</rscale>
<asrwt>0</asrwt>
<pdfrwt beam="1">  1        1 0.21422865E+00 0.81373932E+03</pdfrwt>
<pdfrwt beam="2">  1       -1 0.88854636E-01 0.81373932E+03</pdfrwt>
<totfact> 0.99313783E+00</totfact>
</mgrwt>
</event>
<event>
 4    1  0.8114601E-008  0.1067157E+04  0.7818608E-02  0.9298535E-01
          1   -1    0    0  501    0  0.00000000000E+00  0.00000000000E+00  0.19224496937E+04  0.19224496938E+04  0.50400000000E-02 0. -1.
         -1   -1    0    0    0  501 -0.00000000000E+00 -0.00000000000E+00 -0.93686272355E+03  0.93686272356E+03  0.50400000000E-02 0.  1.
    8880023    1    1    2    0    0 -0.17256395165E+03  0.82172722547E+03  0.15163834615E+04  0.18542499721E+04  0.65864270000E+03 0. -1.
    8880022    1    1    2    0    0  0.17256395165E+03 -0.82172722547E+03 -0.53079649133E+03  0.10050624452E+04  0.15294330000E+03 0.  0.
<mgrwt>
<rscale>  0 0.10091783E+04</rscale>
<asrwt>0</asrwt>
<pdfrwt beam="1">  1        1 0.29576149E+00 0.10671570E+04</pdfrwt>
<pdfrwt beam="2">  1       -1 0.14413273E+00 0.10671570E+04</pdfrwt>
<totfact> 0.13060949E+00</totfact>
</mgrwt>
</event>
<event>
 4    1  0.8114601E-008  0.7327142E+03  0.7818608E-02  0.9881702E-01
          1   -1    0    0  501    0  0.00000000000E+00  0.00000000000E+00  0.24382561442E+04  0.24382561442E+04  0.50400000000E-02 0. -1.
         -1   -1    0    0    0  501 -0.00000000000E+00 -0.00000000000E+00 -0.29479323209E+03  0.29479323214E+03  0.50400000000E-02 0.  1.
    8880023    1    1    2    0    0  0.27890312531E+03 -0.15897445680E+03  0.22463788939E+04  0.23628559356E+04  0.65864270000E+03 0.  0.
    8880022    1    1    2    0    0 -0.27890312531E+03  0.15897445680E+03 -0.10291598181E+03  0.37019344072E+03  0.15294330000E+03 0.  0.
<mgrwt>
<rscale>  0 0.61156332E+03</rscale>
<asrwt>0</asrwt>
<pdfrwt beam="1">  1        1 0.37511632E+00 0.73271416E+03</pdfrwt>
<pdfrwt beam="2">  1       -1 0.45352806E-01 0.73271416E+03</pdfrwt>
<totfact> 0.76321703E+00</totfact>
</mgrwt>
</event>
<event>
 4    1  0.8114601E-008  0.6993075E+03  0.7818608E-02  0.1000009E+00
         -1   -1    0    0    0  501 -0.00000000000E+00  0.00000000000E+00  0.13193017148E+04  0.13193017148E+04  0.50400000000E-02 0.  1.
          1   -1    0    0  501    0  0.00000000000E+00 -0.00000000000E+00 -0.12077312577E+04  0.12077312577E+04  0.50400000000E-02 0. -1.
    8880023    1    1    2    0    0  0.93202277906E+02  0.21571764251E+03 -0.10889769621E+04  0.12941799705E+04  0.65864270000E+03 0. -1.
    8880022    1    1    2    0    0 -0.93202277906E+02 -0.21571764251E+03  0.12005474192E+04  0.12328530020E+04  0.15294330000E+03 0.  0.
<mgrwt>
<rscale>  0 0.55646459E+03</rscale>
<asrwt>0</asrwt>
<pdfrwt beam="1">  1        1 0.18580481E+00 0.69930749E+03</pdfrwt>
<pdfrwt beam="2">  1       -1 0.20296950E+00 0.69930749E+03</pdfrwt>
<totfact> 0.16015499E+00</totfact>
</mgrwt>
</event>
<event>
 4    1  0.8114601E-008  0.6805461E+03  0.7818608E-02  0.1009016E+00
         -1   -1    0    0    0  501 -0.00000000000E+00  0.00000000000E+00  0.40246730075E+03  0.40246730079E+03  0.50400000000E-02 0.  1.
          1   -1    0    0  501    0  0.00000000000E+00 -0.00000000000E+00 -0.24169676769E+04  0.24169676769E+04  0.50400000000E-02 0. -1.
    8880023    1    1    2    0    0  0.10506781233E+03 -0.13525379449E+03 -0.23310577354E+04  0.24283684247E+04  0.65864270000E+03 0. -1.
    8880022    1    1    2    0    0 -0.10506781233E+03  0.13525379449E+03  0.31655735928E+03  0.39106655296E+03  0.15294330000E+03 0.  0.
<mgrwt>
<rscale>  0 0.51867429E+03</rscale>
<asrwt>0</asrwt>
<pdfrwt beam="1">  1        1 0.37184117E+00 0.68054613E+03</pdfrwt>
<pdfrwt beam="2">  1       -1 0.61918048E-01 0.68054613E+03</pdfrwt>
<totfact> 0.43876542E+00</totfact>
</mgrwt>
</event>
<event>
 4    1  0.8114601E-008  0.7563430E+03  0.7818608E-02  0.9814669E-01
         -1   -1    0    0    0  501 -0.00000000000E+00  0.00000000000E+00  0.31706898402E+03  0.31706898406E+03  0.50400000000E-02 0.  1.
          1   -1    0    0  501    0  0.00000000000E+00 -0.00000000000E+00 -0.18288939465E+04  0.18288939465E+04  0.50400000000E-02 0. -1.
    8880023    1    1    2    0    0 -0.37049225636E+03 -0.31304381451E+02 -0.15671647133E+04  0.17401321563E+04  0.65864270000E+03 0. -1.
    8880022    1    1    2    0    0  0.37049225636E+03  0.31304381451E+02  0.55339750858E+02  0.40583077429E+03  0.15294330000E+03 0.  0.
<mgrwt>
<rscale>  0 0.64581241E+03</rscale>
<asrwt>0</asrwt>
<pdfrwt beam="1">  1        1 0.28136829E+00 0.75634297E+03</pdfrwt>
<pdfrwt beam="2">  1       -1 0.48779845E-01 0.75634297E+03</pdfrwt>
<totfact> 0.17019127E+01</totfact>
</mgrwt>
</event>
<event>
 4    1  0.8114601E-008  0.1212999E+04  0.7818608E-02  0.9144589E-01
         -1   -1    0    0    0  501 -0.00000000000E+00  0.00000000000E+00  0.10518389028E+04  0.10518389028E+04  0.50400000000E-02 0.  1.
          1   -1    0    0  501    0  0.00000000000E+00 -0.00000000000E+00 -0.25200442684E+04  0.25200442684E+04  0.50400000000E-02 0. -1.
    8880023    1    1    2    0    0 -0.74927453593E+03  0.69003247167E+03 -0.20551083078E+04  0.23863858668E+04  0.65864270000E+03 0.  0.
    8880022    1    1    2    0    0  0.74927453593E+03 -0.69003247167E+03  0.58690294221E+03  0.11854973044E+04  0.15294330000E+03 0.  0.
<mgrwt>
<rscale>  0 0.11644135E+04</rscale>
<asrwt>0</asrwt>
<pdfrwt beam="1">  1        1 0.38769912E+00 0.12129993E+04</pdfrwt>
<pdfrwt beam="2">  1       -1 0.16182137E+00 0.12129993E+04</pdfrwt>
<totfact> 0.36575575E-01</totfact>
</mgrwt>
</event>
<event>
 4    1  0.8114601E-008  0.6668604E+03  0.7818608E-02  0.1018021E+00
          1   -1    0    0  501    0  0.00000000000E+00  0.00000000000E+00  0.84825529274E+03  0.84825529276E+03  0.50400000000E-02 0. -1.
         -1   -1    0    0    0  501 -0.00000000000E+00 -0.00000000000E+00 -0.31830595980E+03  0.31830595984E+03  0.50400000000E-02 0.  1.
    8880023    1    1    2    0    0  0.61137197646E+02  0.84585912546E+02  0.66159908362E+03  0.93937004809E+03  0.65864270000E+03 0. -1.
    8880022    1    1    2    0    0 -0.61137197646E+02 -0.84585912546E+02 -0.13164975068E+03  0.22719120451E+03  0.15294330000E+03 0.  0.
<mgrwt>
<rscale>  0 0.48407528E+03</rscale>
<asrwt>0</asrwt>
<pdfrwt beam="1">  1        1 0.13050081E+00 0.66686036E+03</pdfrwt>
<pdfrwt beam="2">  1       -1 0.48970148E-01 0.66686036E+03</pdfrwt>
<totfact> 0.86189416E+01</totfact>
</mgrwt>
</event>
<event>
 4    1  0.8114601E-008  0.9693353E+03  0.7818608E-02  0.9422824E-01
          1   -1    0    0  501    0  0.00000000000E+00  0.00000000000E+00  0.97518056047E+03  0.97518056048E+03  0.50400000000E-02 0. -1.
         -1   -1    0    0    0  501 -0.00000000000E+00 -0.00000000000E+00 -0.10245999495E+04  0.10245999495E+04  0.50400000000E-02 0.  1.
    8880023    1    1    2    0    0  0.69288289510E+03  0.16035614556E+03  0.49760800561E+03  0.10895984275E+04  0.65864270000E+03 0.  0.
    8880022    1    1    2    0    0 -0.69288289510E+03 -0.16035614556E+03 -0.54702739460E+03  0.91018208244E+03  0.15294330000E+03 0.  0.
<mgrwt>
<rscale>  0 0.90220918E+03</rscale>
<asrwt>0</asrwt>
<pdfrwt beam="1">  1        1 0.15002778E+00 0.96933534E+03</pdfrwt>
<pdfrwt beam="2">  1       -1 0.15763076E+00 0.96933534E+03</pdfrwt>
<totfact> 0.48516334E+00</totfact>
</mgrwt>
</event>
<event>
 4    1  0.8114601E-008  0.1232784E+04  0.7818608E-02  0.9125894E-01
          1   -1    0    0  501    0  0.00000000000E+00  0.00000000000E+00  0.71191396887E+03  0.71191396889E+03  0.50400000000E-02 0. -1.
         -1   -1    0    0    0  501 -0.00000000000E+00 -0.00000000000E+00 -0.25523356341E+04  0.25523356341E+04  0.50400000000E-02 0.  1.
    8880023    1    1    2    0    0  0.83815595189E+03  0.61922616886E+03 -0.10894336635E+03  0.12375885064E+04  0.65864270000E+03 0.  0.
    8880022    1    1    2    0    0 -0.83815595189E+03 -0.61922616886E+03 -0.17314782989E+04  0.20266610966E+04  0.15294330000E+03 0.  0.
<mgrwt>
<rscale>  0 0.11852181E+04</rscale>
<asrwt>0</asrwt>
<pdfrwt beam="1">  1        1 0.10952523E+00 0.12327841E+04</pdfrwt>
<pdfrwt beam="2">  1       -1 0.39266701E+00 0.12327841E+04</pdfrwt>
<totfact> 0.21097507E-01</totfact>
</mgrwt>
</event>
<event>
 4    1  0.8114601E-008  0.8620839E+03  0.7818608E-02  0.9589867E-01
          1   -1    0    0  501    0  0.00000000000E+00  0.00000000000E+00  0.41999615117E+03  0.41999615120E+03  0.50400000000E-02 0. -1.
         -1   -1    0    0    0  501 -0.00000000000E+00 -0.00000000000E+00 -0.26844270571E+04  0.26844270571E+04  0.50400000000E-02 0.  1.
    8880023    1    1    2    0    0  0.34480809737E+03 -0.43644680762E+03 -0.10403663694E+03  0.86833879793E+03  0.65864270000E+03 0.  0.
    8880022    1    1    2    0    0 -0.34480809737E+03  0.43644680762E+03 -0.21603942690E+04  0.22360844104E+04  0.15294330000E+03 0.  0.
<mgrwt>
<rscale>  0 0.77970476E+03</rscale>
<asrwt>0</asrwt>
<pdfrwt beam="1">  1        1 0.64614794E-01 0.86208390E+03</pdfrwt>
<pdfrwt beam="2">  1       -1 0.41298877E+00 0.86208390E+03</pdfrwt>
<totfact> 0.34403657E-01</totfact>
</mgrwt>
</event>
<event>
 4    1  0.8114601E-008  0.7528999E+03  0.7818608E-02  0.9823848E-01
         -1   -1    0    0    0  501 -0.00000000000E+00  0.00000000000E+00  0.55563820156E+03  0.55563820158E+03  0.50400000000E-02 0.  1.
          1   -1    0    0  501    0  0.00000000000E+00 -0.00000000000E+00 -0.12273483703E+04  0.12273483703E+04  0.50400000000E-02 0. -1.
    8880023    1    1    2    0    0 -0.29095328710E+03  0.21998693222E+03 -0.10119133263E+04  0.12612798467E+04  0.65864270000E+03 0. -1.
    8880022    1    1    2    0    0  0.29095328710E+03 -0.21998693222E+03  0.34020315755E+03  0.52170672513E+03  0.15294330000E+03 0.  0.
<mgrwt>
<rscale>  0 0.64098270E+03</rscale>
<asrwt>0</asrwt>
<pdfrwt beam="1">  1        1 0.18882283E+00 0.75289991E+03</pdfrwt>
<pdfrwt beam="2">  1       -1 0.85482800E-01 0.75289991E+03</pdfrwt>
<totfact> 0.14254021E+01</totfact>
</mgrwt>
</event>
<event>
 4    1  0.8114601E-008  0.8874464E+03  0.7818608E-02  0.9546492E-01
          1   -1    0    0  501    0  0.00000000000E+00  0.00000000000E+00  0.13000936419E+04  0.13000936419E+04  0.50400000000E-02 0. -1.
         -1   -1    0    0    0  501 -0.00000000000E+00 -0.00000000000E+00 -0.92282379943E+03  0.92282379945E+03  0.50400000000E-02 0.  1.
    8880023    1    1    2    0    0 -0.59417080735E+03  0.26681403232E+02  0.10077317597E+04  0.13427897644E+04  0.65864270000E+03 0. -1.
    8880022    1    1    2    0    0  0.59417080735E+03 -0.26681403232E+02 -0.63046191726E+03  0.88012767694E+03  0.15294330000E+03 0.  0.
<mgrwt>
<rscale>  0 0.80941225E+03</rscale>
<asrwt>0</asrwt>
<pdfrwt beam="1">  1        1 0.20001441E+00 0.88744637E+03</pdfrwt>
<pdfrwt beam="2">  1       -1 0.14197289E+00 0.88744637E+03</pdfrwt>
<totfact> 0.37236248E+00</totfact>
</mgrwt>
</event>
<event>
 4    1  0.8114601E-008  0.2128161E+04  0.7818608E-02  0.8559905E-01
         -1   -1    0    0    0  501 -0.00000000000E+00  0.00000000000E+00  0.13831735463E+04  0.13831735463E+04  0.50400000000E-02 0.  1.
          1   -1    0    0  501    0  0.00000000000E+00 -0.00000000000E+00 -0.35973988429E+04  0.35973988429E+04  0.50400000000E-02 0. -1.
    8880023    1    1    2    0    0 -0.74457755528E+03  0.18817179487E+04 -0.22705530439E+03  0.21402388866E+04  0.65864270000E+03 0.  1.
    8880022    1    1    2    0    0  0.74457755528E+03 -0.18817179487E+04 -0.19871699922E+04  0.28403335025E+04  0.15294330000E+03 0.  0.
<mgrwt>
<rscale>  0 0.21030407E+04</rscale>
<asrwt>0</asrwt>
<pdfrwt beam="1">  1        1 0.55344597E+00 0.21281608E+04</pdfrwt>
<pdfrwt beam="2">  1       -1 0.21279593E+00 0.21281608E+04</pdfrwt>
<totfact> 0.22658812E-02</totfact>
</mgrwt>
</event>
<event>
 4    1  0.8114601E-008  0.9326038E+03  0.7818608E-02  0.9475598E-01
         -1   -1    0    0    0  501 -0.00000000000E+00  0.00000000000E+00  0.90263078079E+03  0.90263078080E+03  0.50400000000E-02 0.  1.
          1   -1    0    0  501    0  0.00000000000E+00 -0.00000000000E+00 -0.23673951513E+04  0.23673951513E+04  0.50400000000E-02 0. -1.
    8880023    1    1    2    0    0  0.72153682786E+02 -0.65630290046E+03 -0.21269902071E+04  0.23224636054E+04  0.65864270000E+03 0.  0.
    8880022    1    1    2    0    0 -0.72153682786E+02  0.65630290046E+03  0.66222583666E+03  0.94756232663E+03  0.15294330000E+03 0.  0.
<mgrwt>
<rscale>  0 0.86107037E+03</rscale>
<asrwt>0</asrwt>
<pdfrwt beam="1">  1        1 0.36421464E+00 0.93260381E+03</pdfrwt>
<pdfrwt beam="2">  1       -1 0.13886627E+00 0.93260381E+03</pdfrwt>
<totfact> 0.73650215E-01</totfact>
</mgrwt>
</event>
<event>
 4    1  0.8114601E-008  0.1860699E+04  0.7818608E-02  0.8689683E-01
          1   -1    0    0  501    0  0.00000000000E+00  0.00000000000E+00  0.15601918090E+04  0.15601918090E+04  0.50400000000E-02 0. -1.
         -1   -1    0    0    0  501 -0.00000000000E+00 -0.00000000000E+00 -0.25466206370E+04  0.25466206370E+04  0.50400000000E-02 0.  1.
    8880023    1    1    2    0    0  0.64842825790E+03  0.16149093345E+04 -0.13793853299E+04  0.23162265560E+04  0.65864270000E+03 0.  0.
    8880022    1    1    2    0    0 -0.64842825790E+03 -0.16149093345E+04  0.39295650191E+03  0.17905858900E+04  0.15294330000E+03 0. -1.
<mgrwt>
<rscale>  0 0.18315819E+04</rscale>
<asrwt>0</asrwt>
<pdfrwt beam="1">  1        1 0.24002951E+00 0.18606992E+04</pdfrwt>
<pdfrwt beam="2">  1       -1 0.39178779E+00 0.18606992E+04</pdfrwt>
<totfact> 0.43851323E-02</totfact>
</mgrwt>
</event>
<event>
 4    1  0.8114601E-008  0.1345787E+04  0.7818608E-02  0.9026995E-01
         -1   -1    0    0    0  501 -0.00000000000E+00  0.00000000000E+00  0.19123401540E+04  0.19123401540E+04  0.50400000000E-02 0.  1.
          1   -1    0    0  501    0  0.00000000000E+00 -0.00000000000E+00 -0.10929534053E+04  0.10929534054E+04  0.50400000000E-02 0. -1.
    8880023    1    1    2    0    0 -0.10507441541E+04 -0.52275110213E+03 -0.29716686565E+03  0.13782054798E+04  0.65864270000E+03 0.  0.
    8880022    1    1    2    0    0  0.10507441541E+04  0.52275110213E+03  0.11165536143E+04  0.16270880796E+04  0.15294330000E+03 0.  0.
<mgrwt>
<rscale>  0 0.13032456E+04</rscale>
<asrwt>0</asrwt>
<pdfrwt beam="1">  1        1 0.16814668E+00 0.13457868E+04</pdfrwt>
<pdfrwt beam="2">  1       -1 0.29420617E+00 0.13457868E+04</pdfrwt>
<totfact> 0.44671161E-01</totfact>
</mgrwt>
</event>
<event>
 4    1  0.8114601E-008  0.8828233E+03  0.7818608E-02  0.9554188E-01
         -1   -1    0    0    0  501 -0.00000000000E+00  0.00000000000E+00  0.37638999652E+03  0.37638999656E+03  0.50400000000E-02 0.  1.
          1   -1    0    0  501    0  0.00000000000E+00 -0.00000000000E+00 -0.19105307242E+04  0.19105307242E+04  0.50400000000E-02 0. -1.
    8880023    1    1    2    0    0 -0.28373814840E+02  0.58716410255E+03 -0.14151733261E+04  0.16679605828E+04  0.65864270000E+03 0.  0.
    8880022    1    1    2    0    0  0.28373814840E+02 -0.58716410255E+03 -0.11896740158E+03  0.61896013793E+03  0.15294330000E+03 0.  0.
<mgrwt>
<rscale>  0 0.80403974E+03</rscale>
<asrwt>0</asrwt>
<pdfrwt beam="1">  1        1 0.29392780E+00 0.88282329E+03</pdfrwt>
<pdfrwt beam="2">  1       -1 0.57906154E-01 0.88282329E+03</pdfrwt>
<totfact> 0.10608704E+01</totfact>
</mgrwt>
</event>
<event>
 4    1  0.8114601E-008  0.8381597E+03  0.7818608E-02  0.9633660E-01
          1   -1    0    0  501    0  0.00000000000E+00  0.00000000000E+00  0.21654946224E+04  0.21654946225E+04  0.50400000000E-02 0. -1.
         -1   -1    0    0    0  501 -0.00000000000E+00 -0.00000000000E+00 -0.81720001325E+03  0.81720001327E+03  0.50400000000E-02 0.  1.
    8880023    1    1    2    0    0 -0.91019864029E+02 -0.51031061547E+03  0.19807422181E+04  0.21507792729E+04  0.65864270000E+03 0.  0.
    8880022    1    1    2    0    0  0.91019864029E+02  0.51031061547E+03 -0.63244760889E+03  0.83191536283E+03  0.15294330000E+03 0.  0.
<mgrwt>
<rscale>  0 0.75107841E+03</rscale>
<asrwt>0</asrwt>
<pdfrwt beam="1">  1        1 0.33315301E+00 0.83815974E+03</pdfrwt>
<pdfrwt beam="2">  1       -1 0.12572308E+00 0.83815974E+03</pdfrwt>
<totfact> 0.13210771E+00</totfact>
</mgrwt>
</event>
<event>
 4    1  0.8114601E-008  0.9542468E+03  0.7818608E-02  0.9444030E-01
          1   -1    0    0  501    0  0.00000000000E+00  0.00000000000E+00  0.42603760384E+03  0.42603760387E+03  0.50400000000E-02 0. -1.
         -1   -1    0    0    0  501 -0.00000000000E+00 -0.00000000000E+00 -0.25015165234E+04  0.25015165234E+04  0.50400000000E-02 0.  1.
    8880023    1    1    2    0    0  0.11276568084E+03  0.68121992877E+03 -0.27488550727E+03  0.99305032022E+03  0.65864270000E+03 0.  0.
    8880022    1    1    2    0    0 -0.11276568084E+03 -0.68121992877E+03 -0.18005934123E+04  0.19345038071E+04  0.15294330000E+03 0.  0.
<mgrwt>
<rscale>  0 0.88539089E+03</rscale>
<asrwt>0</asrwt>
<pdfrwt beam="1">  1        1 0.65544248E-01 0.95424677E+03</pdfrwt>
<pdfrwt beam="2">  1       -1 0.38484869E+00 0.95424677E+03</pdfrwt>
<totfact> 0.51620676E-01</totfact>
</mgrwt>
</event>
<event>
 4    1  0.8114601E-008  0.1074709E+04  0.7818608E-02  0.9289751E-01
          1   -1    0    0  501    0  0.00000000000E+00  0.00000000000E+00  0.17362018486E+04  0.17362018486E+04  0.50400000000E-02 0. -1.
         -1   -1    0    0    0  501 -0.00000000000E+00 -0.00000000000E+00 -0.60403105645E+03  0.60403105648E+03  0.50400000000E-02 0.  1.
    8880023    1    1    2    0    0 -0.30904069706E+03 -0.79100186491E+03  0.99864923029E+03  0.14670721162E+04  0.65864270000E+03 0.  0.
    8880022    1    1    2    0    0  0.30904069706E+03  0.79100186491E+03  0.13352156185E+03  0.87316078887E+03  0.15294330000E+03 0.  0.
<mgrwt>
<rscale>  0 0.10173194E+04</rscale>
<asrwt>0</asrwt>
<pdfrwt beam="1">  1        1 0.26710798E+00 0.10747094E+04</pdfrwt>
<pdfrwt beam="2">  1       -1 0.92927855E-01 0.10747094E+04</pdfrwt>
<totfact> 0.50604883E+00</totfact>
</mgrwt>
</event>
<event>
 4    1  0.8114601E-008  0.7046914E+03  0.7818608E-02  0.9978269E-01
         -1   -1    0    0    0  501 -0.00000000000E+00  0.00000000000E+00  0.33248972472E+03  0.33248972476E+03  0.50400000000E-02 0.  1.
          1   -1    0    0  501    0  0.00000000000E+00 -0.00000000000E+00 -0.21012578560E+04  0.21012578560E+04  0.50400000000E-02 0. -1.
    8880023    1    1    2    0    0  0.25011606816E+03  0.14891409695E+02 -0.19603840203E+04  0.20831935856E+04  0.65864270000E+03 0.  0.
    8880022    1    1    2    0    0 -0.25011606816E+03 -0.14891409695E+02  0.19161588900E+03  0.35055399522E+03  0.15294330000E+03 0.  1.
<mgrwt>
<rscale>  0 0.56613456E+03</rscale>
<asrwt>0</asrwt>
<pdfrwt beam="1">  1        1 0.32327043E+00 0.70469143E+03</pdfrwt>
<pdfrwt beam="2">  1       -1 0.51152267E-01 0.70469143E+03</pdfrwt>
<totfact> 0.10311956E+01</totfact>
</mgrwt>
</event>
<event>
 4    1  0.8114601E-008  0.6724417E+03  0.7818608E-02  0.1013970E+00
          1   -1    0    0  501    0  0.00000000000E+00  0.00000000000E+00  0.42496933701E+03  0.42496933704E+03  0.50400000000E-02 0. -1.
         -1   -1    0    0    0  501 -0.00000000000E+00 -0.00000000000E+00 -0.98003086473E+03  0.98003086474E+03  0.50400000000E-02 0.  1.
    8880023    1    1    2    0    0  0.82132572708E+02  0.10780503937E+03  0.13453045601E+03  0.68576696907E+03  0.65864270000E+03 0. -1.
    8880022    1    1    2    0    0 -0.82132572708E+02 -0.10780503937E+03 -0.68959198372E+03  0.71923323272E+03  0.15294330000E+03 0.  0.
<mgrwt>
<rscale>  0 0.49926969E+03</rscale>
<asrwt>0</asrwt>
<pdfrwt beam="1">  1        1 0.65379898E-01 0.67244174E+03</pdfrwt>
<pdfrwt beam="2">  1       -1 0.15077398E+00 0.67244174E+03</pdfrwt>
<totfact> 0.19699769E+01</totfact>
</mgrwt>
</event>
<event>
 4    1  0.8114601E-008  0.9495302E+03  0.7818608E-02  0.9450790E-01
         -1   -1    0    0    0  501 -0.00000000000E+00  0.00000000000E+00  0.87507833213E+03  0.87507833214E+03  0.50400000000E-02 0.  1.
          1   -1    0    0  501    0  0.00000000000E+00 -0.00000000000E+00 -0.16381062497E+04  0.16381062497E+04  0.50400000000E-02 0. -1.
    8880023    1    1    2    0    0 -0.46257078645E+03  0.50381105164E+03 -0.13143628444E+04  0.16214676072E+04  0.65864270000E+03 0. -1.
    8880022    1    1    2    0    0  0.46257078645E+03 -0.50381105164E+03  0.55133492685E+03  0.89171697461E+03  0.15294330000E+03 0.  0.
<mgrwt>
<rscale>  0 0.88011140E+03</rscale>
<asrwt>0</asrwt>
<pdfrwt beam="1">  1        1 0.25201635E+00 0.94953015E+03</pdfrwt>
<pdfrwt beam="2">  1       -1 0.13462744E+00 0.94953015E+03</pdfrwt>
<totfact> 0.24713267E+00</totfact>
</mgrwt>
</event>
<event>
 4    1  0.8114601E-008  0.8797733E+03  0.7818608E-02  0.9559315E-01
         -1   -1    0    0    0  501 -0.00000000000E+00  0.00000000000E+00  0.14886476620E+04  0.14886476620E+04  0.50400000000E-02 0.  1.
          1   -1    0    0  501    0  0.00000000000E+00 -0.00000000000E+00 -0.40063352006E+03  0.40063352009E+03  0.50400000000E-02 0. -1.
    8880023    1    1    2    0    0 -0.53925696786E+03  0.22224466371E+03  0.89783300498E+03  0.12570223065E+04  0.65864270000E+03 0.  1.
    8880022    1    1    2    0    0  0.53925696786E+03 -0.22224466371E+03  0.19018113699E+03  0.63225887563E+03  0.15294330000E+03 0.  0.
<mgrwt>
<rscale>  0 0.80048542E+03</rscale>
<asrwt>0</asrwt>
<pdfrwt beam="1">  1        1 0.61635926E-01 0.87977325E+03</pdfrwt>
<pdfrwt beam="2">  1       -1 0.22902272E+00 0.87977325E+03</pdfrwt>
<totfact> 0.58506654E+00</totfact>
</mgrwt>
</event>
<event>
 4    1  0.8114601E-008  0.1047040E+04  0.7818608E-02  0.9322449E-01
          1   -1    0    0  501    0  0.00000000000E+00  0.00000000000E+00  0.79575421225E+03  0.79575421227E+03  0.50400000000E-02 0. -1.
         -1   -1    0    0    0  501 -0.00000000000E+00 -0.00000000000E+00 -0.12701284178E+04  0.12701284178E+04  0.50400000000E-02 0.  1.
    8880023    1    1    2    0    0 -0.98144735233E+02 -0.80799083151E+03  0.10925031296E+03  0.10527238052E+04  0.65864270000E+03 0.  0.
    8880022    1    1    2    0    0  0.98144735233E+02  0.80799083151E+03 -0.58362451850E+03  0.10131588249E+04  0.15294330000E+03 0.  0.
<mgrwt>
<rscale>  0 0.98742198E+03</rscale>
<asrwt>0</asrwt>
<pdfrwt beam="1">  1        1 0.12242372E+00 0.10470395E+04</pdfrwt>
<pdfrwt beam="2">  1       -1 0.19540437E+00 0.10470395E+04</pdfrwt>
<totfact> 0.36058066E+00</totfact>
</mgrwt>
</event>
<event>
 4    1  0.8114601E-008  0.7824251E+03  0.7818608E-02  0.9750171E-01
         -1   -1    0    0    0  501 -0.00000000000E+00  0.00000000000E+00  0.65410128205E+03  0.65410128206E+03  0.50400000000E-02 0.  1.
          1   -1    0    0  501    0  0.00000000000E+00 -0.00000000000E+00 -0.12652267633E+04  0.12652267633E+04  0.50400000000E-02 0. -1.
    8880023    1    1    2    0    0 -0.35559738130E+03 -0.22788014167E+03 -0.10378641931E+04  0.12997504169E+04  0.65864270000E+03 0. -1.
    8880022    1    1    2    0    0  0.35559738130E+03  0.22788014167E+03  0.42673871184E+03  0.61957762852E+03  0.15294330000E+03 0.  0.
<mgrwt>
<rscale>  0 0.68106615E+03</rscale>
<asrwt>0</asrwt>
<pdfrwt beam="1">  1        1 0.19465027E+00 0.78242512E+03</pdfrwt>
<pdfrwt beam="2">  1       -1 0.10063097E+00 0.78242512E+03</pdfrwt>
<totfact> 0.92798096E+00</totfact>
</mgrwt>
</event>
<event>
 4    1  0.8114601E-008  0.6608895E+03  0.7818608E-02  0.1023263E+00
         -1   -1    0    0    0  501 -0.00000000000E+00  0.00000000000E+00  0.48625291972E+02  0.48625292233E+02  0.50400000000E-02 0.  1.
          1   -1    0    0  501    0  0.00000000000E+00 -0.00000000000E+00 -0.39210073164E+04  0.39210073164E+04  0.50400000000E-02 0. -1.
    8880023    1    1    2    0    0 -0.41946151711E+02  0.34717245599E+02 -0.35219552535E+04  0.35834262628E+04  0.65864270000E+03 0. -1.
    8880022    1    1    2    0    0  0.41946151711E+02 -0.34717245599E+02 -0.35042677087E+03  0.38620634581E+03  0.15294330000E+03 0.  0.
<mgrwt>
<rscale>  0 0.46527258E+03</rscale>
<asrwt>0</asrwt>
<pdfrwt beam="1">  1        1 0.60323165E+00 0.66088953E+03</pdfrwt>
<pdfrwt beam="2">  1       -1 0.74808172E-02 0.66088953E+03</pdfrwt>
<totfact> 0.12432852E+01</totfact>
</mgrwt>
</event>
<event>
 4    1  0.8114601E-008  0.7709797E+03  0.7818608E-02  0.9777469E-01
         -1   -1    0    0    0  501 -0.00000000000E+00  0.00000000000E+00  0.73562219217E+03  0.73562219219E+03  0.50400000000E-02 0.  1.
          1   -1    0    0  501    0  0.00000000000E+00 -0.00000000000E+00 -0.19766827018E+04  0.19766827018E+04  0.50400000000E-02 0. -1.
    8880023    1    1    2    0    0 -0.39396062841E+03 -0.73446843656E+02 -0.18288088521E+04  0.19846791780E+04  0.65864270000E+03 0. -1.
    8880022    1    1    2    0    0  0.39396062841E+03  0.73446843656E+02  0.58774834247E+03  0.72762571606E+03  0.15294330000E+03 0.  0.
<mgrwt>
<rscale>  0 0.66585824E+03</rscale>
<asrwt>0</asrwt>
<pdfrwt beam="1">  1        1 0.30410503E+00 0.77097965E+03</pdfrwt>
<pdfrwt beam="2">  1       -1 0.11317265E+00 0.77097965E+03</pdfrwt>
<totfact> 0.23128788E+00</totfact>
</mgrwt>
</event>
<event>
 4    1  0.8114601E-008  0.6685826E+03  0.7818608E-02  0.1016700E+00
         -1   -1    0    0    0  501 -0.00000000000E+00  0.00000000000E+00  0.15611488695E+03  0.15611488703E+03  0.50400000000E-02 0.  1.
          1   -1    0    0  501    0  0.00000000000E+00 -0.00000000000E+00 -0.19206466560E+04  0.19206466560E+04  0.50400000000E-02 0. -1.
    8880023    1    1    2    0    0 -0.10847231816E+03 -0.37765138769E+02 -0.17629670033E+04  0.18854854310E+04  0.65864270000E+03 0. -1.
    8880022    1    1    2    0    0  0.10847231816E+03  0.37765138769E+02 -0.15647657075E+01  0.19127611200E+03  0.15294330000E+03 0.  0.
<mgrwt>
<rscale>  0 0.48896507E+03</rscale>
<asrwt>0</asrwt>
<pdfrwt beam="1">  1        1 0.29548408E+00 0.66858257E+03</pdfrwt>
<pdfrwt beam="2">  1       -1 0.24017676E-01 0.66858257E+03</pdfrwt>
<totfact> 0.52754729E+01</totfact>
</mgrwt>
</event>
<event>
 4    1  0.8114601E-008  0.1612088E+04  0.7818608E-02  0.8834291E-01
          1   -1    0    0  501    0  0.00000000000E+00  0.00000000000E+00  0.32190714089E+04  0.32190714089E+04  0.50400000000E-02 0. -1.
         -1   -1    0    0    0  501 -0.00000000000E+00 -0.00000000000E+00 -0.93189288485E+03  0.93189288486E+03  0.50400000000E-02 0.  1.
    8880023    1    1    2    0    0 -0.39820330052E+03 -0.14164922768E+04  0.21184040145E+04  0.26620409489E+04  0.65864270000E+03 0.  0.
    8880022    1    1    2    0    0  0.39820330052E+03  0.14164922768E+04  0.16877450961E+03  0.14889233449E+04  0.15294330000E+03 0.  0.
<mgrwt>
<rscale>  0 0.15778202E+04</rscale>
<asrwt>0</asrwt>
<pdfrwt beam="1">  1        1 0.49524176E+00 0.16120876E+04</pdfrwt>
<pdfrwt beam="2">  1       -1 0.14336814E+00 0.16120876E+04</pdfrwt>
<totfact> 0.15243647E-01</totfact>
</mgrwt>
</event>
<event>
 4    1  0.8114601E-008  0.1073244E+04  0.7818608E-02  0.9291447E-01
          1   -1    0    0  501    0  0.00000000000E+00  0.00000000000E+00  0.18770663989E+04  0.18770663989E+04  0.50400000000E-02 0. -1.
         -1   -1    0    0    0  501 -0.00000000000E+00 -0.00000000000E+00 -0.12619343736E+04  0.12619343736E+04  0.50400000000E-02 0.  1.
    8880023    1    1    2    0    0 -0.21863237812E+03  0.81868313228E+03  0.15388810227E+04  0.18761682217E+04  0.65864270000E+03 0.  0.
    8880022    1    1    2    0    0  0.21863237812E+03 -0.81868313228E+03 -0.92374899743E+03  0.12628325507E+04  0.15294330000E+03 0.  0.
<mgrwt>
<rscale>  0 0.10157407E+04</rscale>
<asrwt>0</asrwt>
<pdfrwt beam="1">  1        1 0.28877944E+00 0.10732439E+04</pdfrwt>
<pdfrwt beam="2">  1       -1 0.19414375E+00 0.10732439E+04</pdfrwt>
<totfact> 0.59633044E-01</totfact>
</mgrwt>
</event>
<event>
 4    1  0.8114601E-008  0.6616317E+03  0.7818608E-02  0.1022544E+00
          1   -1    0    0  501    0  0.00000000000E+00  0.00000000000E+00  0.97013890435E+03  0.97013890436E+03  0.50400000000E-02 0. -1.
         -1   -1    0    0    0  501 -0.00000000000E+00 -0.00000000000E+00 -0.25294527815E+03  0.25294527820E+03  0.50400000000E-02 0.  1.
    8880023    1    1    2    0    0 -0.62444215909E+02 -0.68608879133E+01  0.80001231394E+03  0.10381600361E+04  0.65864270000E+03 0. -1.
    8880022    1    1    2    0    0  0.62444215909E+02  0.68608879133E+01 -0.82818687732E+02  0.18492414644E+03  0.15294330000E+03 0.  0.
<mgrwt>
<rscale>  0 0.46779772E+03</rscale>
<asrwt>0</asrwt>
<pdfrwt beam="1">  1        1 0.14925214E+00 0.66163174E+03</pdfrwt>
<pdfrwt beam="2">  1       -1 0.38914658E-01 0.66163174E+03</pdfrwt>
<totfact> 0.10500202E+02</totfact>
</mgrwt>
</event>
<event>
 4    1  0.8114601E-008  0.6823146E+03  0.7818608E-02  0.1008044E+00
         -1   -1    0    0    0  501 -0.00000000000E+00  0.00000000000E+00  0.33094186926E+03  0.33094186929E+03  0.50400000000E-02 0.  1.
          1   -1    0    0  501    0  0.00000000000E+00 -0.00000000000E+00 -0.14659504992E+04  0.14659504992E+04  0.50400000000E-02 0. -1.
    8880023    1    1    2    0    0 -0.64204838298E+02  0.16619491601E+03 -0.13279484990E+04  0.14929837352E+04  0.65864270000E+03 0. -1.
    8880022    1    1    2    0    0  0.64204838298E+02 -0.16619491601E+03  0.19293986898E+03  0.30390863335E+03  0.15294330000E+03 0.  0.
<mgrwt>
<rscale>  0 0.52259661E+03</rscale>
<asrwt>0</asrwt>
<pdfrwt beam="1">  1        1 0.22553084E+00 0.68231460E+03</pdfrwt>
<pdfrwt beam="2">  1       -1 0.50914135E-01 0.68231460E+03</pdfrwt>
<totfact> 0.27888266E+01</totfact>
</mgrwt>
</event>
<event>
 4    1  0.8114601E-008  0.1193163E+04  0.7818608E-02  0.9163797E-01
          1   -1    0    0  501    0  0.00000000000E+00  0.00000000000E+00  0.13095346063E+04  0.13095346063E+04  0.50400000000E-02 0. -1.
         -1   -1    0    0    0  501 -0.00000000000E+00 -0.00000000000E+00 -0.18298104851E+04  0.18298104851E+04  0.50400000000E-02 0.  1.
    8880023    1    1    2    0    0 -0.85379828399E+03 -0.51074033734E+03  0.83124349447E+03  0.14541675128E+04  0.65864270000E+03 0.  0.
    8880022    1    1    2    0    0  0.85379828399E+03  0.51074033734E+03 -0.13515193733E+04  0.16851775786E+04  0.15294330000E+03 0.  0.
<mgrwt>
<rscale>  0 0.11435040E+04</rscale>
<asrwt>0</asrwt>
<pdfrwt beam="1">  1        1 0.20146686E+00 0.11931628E+04</pdfrwt>
<pdfrwt beam="2">  1       -1 0.28150930E+00 0.11931628E+04</pdfrwt>
<totfact> 0.38121663E-01</totfact>
</mgrwt>
</event>
<event>
 4    1  0.8114601E-008  0.7360461E+03  0.7818608E-02  0.9871618E-01
          1   -1    0    0  501    0  0.00000000000E+00  0.00000000000E+00  0.74292199390E+03  0.74292199392E+03  0.50400000000E-02 0. -1.
         -1   -1    0    0    0  501 -0.00000000000E+00 -0.00000000000E+00 -0.85911642811E+03  0.85911642812E+03  0.50400000000E-02 0.  1.
    8880023    1    1    2    0    0  0.30991132710E+03 -0.10912672078E+03  0.49814175140E+03  0.88876829523E+03  0.65864270000E+03 0.  0.
    8880022    1    1    2    0    0 -0.30991132710E+03  0.10912672078E+03 -0.61433618561E+03  0.71327012682E+03  0.15294330000E+03 0.  0.
<mgrwt>
<rscale>  0 0.61656745E+03</rscale>
<asrwt>0</asrwt>
<pdfrwt beam="1">  1        1 0.11429569E+00 0.73604611E+03</pdfrwt>
<pdfrwt beam="2">  1       -1 0.13217176E+00 0.73604611E+03</pdfrwt>
<totfact> 0.12467532E+01</totfact>
</mgrwt>
</event>
<event>
 4    1  0.8114601E-008  0.9273403E+03  0.7818608E-02  0.9483495E-01
         -1   -1    0    0    0  501 -0.00000000000E+00  0.00000000000E+00  0.10750759699E+04  0.10750759699E+04  0.50400000000E-02 0.  1.
          1   -1    0    0  501    0  0.00000000000E+00 -0.00000000000E+00 -0.22950775029E+04  0.22950775029E+04  0.50400000000E-02 0. -1.
    8880023    1    1    2    0    0 -0.21780655126E+03  0.61539431160E+03 -0.20813622406E+04  0.22786023864E+04  0.65864270000E+03 0.  0.
    8880022    1    1    2    0    0  0.21780655126E+03 -0.61539431160E+03  0.86136070765E+03  0.10915510864E+04  0.15294330000E+03 0.  0.
<mgrwt>
<rscale>  0 0.85511708E+03</rscale>
<asrwt>0</asrwt>
<pdfrwt beam="1">  1        1 0.35308885E+00 0.92734031E+03</pdfrwt>
<pdfrwt beam="2">  1       -1 0.16539630E+00 0.92734031E+03</pdfrwt>
<totfact> 0.51366603E-01</totfact>
</mgrwt>
</event>
<event>
 4    1  0.8211956E-008  0.8130039E+03  0.7818608E-02  0.9683353E-01
         -1   -1    0    0    0  501 -0.00000000000E+00  0.00000000000E+00  0.93951099361E+03  0.93951099362E+03  0.50400000000E-02 0.  1.
          1   -1    0    0  501    0  0.00000000000E+00 -0.00000000000E+00 -0.19803773005E+04  0.19803773005E+04  0.50400000000E-02 0. -1.
    8880023    1    1    2    0    0 -0.34086741981E+03  0.33312846103E+03 -0.18202766132E+04  0.19935852940E+04  0.65864270000E+03 0. -1.
    8880022    1    1    2    0    0  0.34086741981E+03 -0.33312846103E+03  0.77941030634E+03  0.92630300015E+03  0.15294330000E+03 0.  0.
<mgrwt>
<rscale>  0 0.72016624E+03</rscale>
<asrwt>0</asrwt>
<pdfrwt beam="1">  1        1 0.30467343E+00 0.81300392E+03</pdfrwt>
<pdfrwt beam="2">  1       -1 0.14454015E+00 0.81300392E+03</pdfrwt>
<totfact> 0.12357315E+00</totfact>
</mgrwt>
</event>
<event>
 4    1  0.8114601E-008  0.8583514E+03  0.7818608E-02  0.9596503E-01
         -1   -1    0    0    0  501 -0.00000000000E+00  0.00000000000E+00  0.69344494539E+03  0.69344494541E+03  0.50400000000E-02 0.  1.
          1   -1    0    0  501    0  0.00000000000E+00 -0.00000000000E+00 -0.18633746424E+04  0.18633746424E+04  0.50400000000E-02 0. -1.
    8880023    1    1    2    0    0 -0.40781690744E+03 -0.36965147530E+03 -0.16174739801E+04  0.18311169066E+04  0.65864270000E+03 0.  0.
    8880022    1    1    2    0    0  0.40781690744E+03  0.36965147530E+03  0.44754428308E+03  0.72570268121E+03  0.15294330000E+03 0.  0.
<mgrwt>
<rscale>  0 0.77528079E+03</rscale>
<asrwt>0</asrwt>
<pdfrwt beam="1">  1        1 0.28667302E+00 0.85835136E+03</pdfrwt>
<pdfrwt beam="2">  1       -1 0.10668384E+00 0.85835136E+03</pdfrwt>
<totfact> 0.31186747E+00</totfact>
</mgrwt>
</event>
<event>
 4    1  0.8114601E-008  0.1050438E+04  0.7818608E-02  0.9318355E-01
          1   -1    0    0  501    0  0.00000000000E+00  0.00000000000E+00  0.15203310673E+04  0.15203310673E+04  0.50400000000E-02 0. -1.
         -1   -1    0    0    0  501 -0.00000000000E+00 -0.00000000000E+00 -0.61169452509E+03  0.61169452511E+03  0.50400000000E-02 0.  1.
    8880023    1    1    2    0    0 -0.59452676188E+03  0.56227026405E+03  0.73390107506E+03  0.12814175411E+04  0.65864270000E+03 0.  0.
    8880022    1    1    2    0    0  0.59452676188E+03 -0.56227026405E+03  0.17473546714E+03  0.85060805129E+03  0.15294330000E+03 0.  0.
<mgrwt>
<rscale>  0 0.99110488E+03</rscale>
<asrwt>0</asrwt>
<pdfrwt beam="1">  1        1 0.23389709E+00 0.10504381E+04</pdfrwt>
<pdfrwt beam="2">  1       -1 0.94106851E-01 0.10504381E+04</pdfrwt>
<totfact> 0.69269817E+00</totfact>
</mgrwt>
</event>
<event>
 4    1  0.8114601E-008  0.7067268E+03  0.7818608E-02  0.9970363E-01
         -1   -1    0    0    0  501 -0.00000000000E+00  0.00000000000E+00  0.36295465344E+03  0.36295465347E+03  0.50400000000E-02 0.  1.
          1   -1    0    0  501    0  0.00000000000E+00 -0.00000000000E+00 -0.12538197597E+04  0.12538197597E+04  0.50400000000E-02 0. -1.
    8880023    1    1    2    0    0  0.14596905019E+03  0.21058392755E+03 -0.10598316559E+04  0.12738547403E+04  0.65864270000E+03 0. -1.
    8880022    1    1    2    0    0 -0.14596905019E+03 -0.21058392755E+03  0.16896654966E+03  0.34291967292E+03  0.15294330000E+03 0.  0.
<mgrwt>
<rscale>  0 0.56969102E+03</rscale>
<asrwt>0</asrwt>
<pdfrwt beam="1">  1        1 0.19289535E+00 0.70672679E+03</pdfrwt>
<pdfrwt beam="2">  1       -1 0.55839178E-01 0.70672679E+03</pdfrwt>
<totfact> 0.32757089E+01</totfact>
</mgrwt>
</event>
<event>
 4    1  0.8114601E-008  0.7299238E+03  0.7818608E-02  0.9890335E-01
         -1   -1    0    0    0  501 -0.00000000000E+00  0.00000000000E+00  0.35670807641E+03  0.35670807645E+03  0.50400000000E-02 0.  1.
          1   -1    0    0  501    0  0.00000000000E+00 -0.00000000000E+00 -0.82154568340E+03  0.82154568342E+03  0.50400000000E-02 0. -1.
    8880023    1    1    2    0    0  0.17402711744E+03  0.26209376926E+03 -0.35446781969E+03  0.81144083145E+03  0.65864270000E+03 0.  0.
    8880022    1    1    2    0    0 -0.17402711744E+03 -0.26209376926E+03 -0.11036978730E+03  0.36681292842E+03  0.15294330000E+03 0. -1.
<mgrwt>
<rscale>  0 0.60732006E+03</rscale>
<asrwt>0</asrwt>
<pdfrwt beam="1">  1        1 0.12639164E+00 0.72992382E+03</pdfrwt>
<pdfrwt beam="2">  1       -1 0.54878166E-01 0.72992382E+03</pdfrwt>
<totfact> 0.72663780E+01</totfact>
</mgrwt>
</event>
<event>
 4    1  0.8114601E-008  0.7209718E+03  0.7818608E-02  0.9919311E-01
          1   -1    0    0  501    0  0.00000000000E+00  0.00000000000E+00  0.12081446541E+04  0.12081446541E+04  0.50400000000E-02 0. -1.
         -1   -1    0    0    0  501 -0.00000000000E+00 -0.00000000000E+00 -0.57573897913E+03  0.57573897915E+03  0.50400000000E-02 0.  1.
    8880023    1    1    2    0    0 -0.28632579623E+03  0.63305744139E+02  0.10359431499E+04  0.12621325188E+04  0.65864270000E+03 0. -1.
    8880022    1    1    2    0    0  0.28632579623E+03 -0.63305744139E+02 -0.40353747491E+03  0.52175111452E+03  0.15294330000E+03 0.  0.
<mgrwt>
<rscale>  0 0.59334432E+03</rscale>
<asrwt>0</asrwt>
<pdfrwt beam="1">  1        1 0.18586841E+00 0.72097176E+03</pdfrwt>
<pdfrwt beam="2">  1       -1 0.88575228E-01 0.72097176E+03</pdfrwt>
<totfact> 0.13679765E+01</totfact>
</mgrwt>
</event>
<event>
 4    1  0.8114601E-008  0.1046038E+04  0.7818608E-02  0.9323660E-01
         -1   -1    0    0    0  501 -0.00000000000E+00  0.00000000000E+00  0.62111161423E+03  0.62111161425E+03  0.50400000000E-02 0.  1.
          1   -1    0    0  501    0  0.00000000000E+00 -0.00000000000E+00 -0.15578874446E+04  0.15578874446E+04  0.50400000000E-02 0. -1.
    8880023    1    1    2    0    0  0.76994560968E+03  0.25994014642E+03 -0.84943329642E+03  0.13474910957E+04  0.65864270000E+03 0.  0.
    8880022    1    1    2    0    0 -0.76994560968E+03 -0.25994014642E+03 -0.87342533944E+02  0.83150796319E+03  0.15294330000E+03 0.  0.
<mgrwt>
<rscale>  0 0.98633595E+03</rscale>
<asrwt>0</asrwt>
<pdfrwt beam="1">  1        1 0.23967499E+00 0.10460379E+04</pdfrwt>
<pdfrwt beam="2">  1       -1 0.95555633E-01 0.10460379E+04</pdfrwt>
<totfact> 0.63093075E+00</totfact>
</mgrwt>
</event>
<event>
 4    1  0.8114601E-008  0.1188237E+04  0.7818608E-02  0.9168642E-01
          1   -1    0    0  501    0  0.00000000000E+00  0.00000000000E+00  0.25942150462E+04  0.25942150462E+04  0.50400000000E-02 0. -1.
         -1   -1    0    0    0  501 -0.00000000000E+00 -0.00000000000E+00 -0.47021471558E+03  0.47021471560E+03  0.50400000000E-02 0.  1.
    8880023    1    1    2    0    0 -0.15738734886E+03  0.97638470223E+03  0.13560177351E+04  0.18029676005E+04  0.65864270000E+03 0.  0.
    8880022    1    1    2    0    0  0.15738734886E+03 -0.97638470223E+03  0.76798259554E+03  0.12614621613E+04  0.15294330000E+03 0.  0.
<mgrwt>
<rscale>  0 0.11383039E+04</rscale>
<asrwt>0</asrwt>
<pdfrwt beam="1">  1        1 0.39911001E+00 0.11882374E+04</pdfrwt>
<pdfrwt beam="2">  1       -1 0.72340725E-01 0.11882374E+04</pdfrwt>
<totfact> 0.22341016E+00</totfact>
</mgrwt>
</event>
<event>
 4    1  0.8114601E-008  0.7055824E+03  0.7818608E-02  0.9974787E-01
         -1   -1    0    0    0  501 -0.00000000000E+00  0.00000000000E+00  0.11331915754E+04  0.11331915754E+04  0.50400000000E-02 0.  1.
          1   -1    0    0  501    0  0.00000000000E+00 -0.00000000000E+00 -0.45948700378E+03  0.45948700381E+03  0.50400000000E-02 0. -1.
    8880023    1    1    2    0    0  0.13572107985E+03 -0.21357912511E+03 -0.14665232348E+03  0.72066175453E+03  0.65864270000E+03 0.  0.
    8880022    1    1    2    0    0 -0.13572107985E+03  0.21357912511E+03  0.82035689508E+03  0.87201682468E+03  0.15294330000E+03 0.  1.
<mgrwt>
<rscale>  0 0.56769758E+03</rscale>
<asrwt>0</asrwt>
<pdfrwt beam="1">  1        1 0.70690310E-01 0.70558236E+03</pdfrwt>
<pdfrwt beam="2">  1       -1 0.17433716E+00 0.70558236E+03</pdfrwt>
<totfact> 0.11784742E+01</totfact>
</mgrwt>
</event>
<event>
 4    1  0.8114601E-008  0.8339542E+03  0.7818608E-02  0.9641687E-01
          1   -1    0    0  501    0  0.00000000000E+00  0.00000000000E+00  0.81525252082E+03  0.81525252083E+03  0.50400000000E-02 0. -1.
         -1   -1    0    0    0  501 -0.00000000000E+00 -0.00000000000E+00 -0.68153478486E+03  0.68153478488E+03  0.50400000000E-02 0.  1.
    8880023    1    1    2    0    0 -0.51122895546E+03 -0.17728264681E+02  0.37071611393E+03  0.91263901936E+03  0.65864270000E+03 0.  0.
    8880022    1    1    2    0    0  0.51122895546E+03  0.17728264681E+02 -0.23699837797E+03  0.58414828635E+03  0.15294330000E+03 0.  0.
<mgrwt>
<rscale>  0 0.74597429E+03</rscale>
<asrwt>0</asrwt>
<pdfrwt beam="1">  1        1 0.12542346E+00 0.83395416E+03</pdfrwt>
<pdfrwt beam="2">  1       -1 0.10485151E+00 0.83395416E+03</pdfrwt>
<totfact> 0.18655081E+01</totfact>
</mgrwt>
</event>
<event>
 4    1  0.8114601E-008  0.8133950E+03  0.7818608E-02  0.9682548E-01
          1   -1    0    0  501    0  0.00000000000E+00  0.00000000000E+00  0.56611256965E+03  0.56611256968E+03  0.50400000000E-02 0. -1.
         -1   -1    0    0    0  501 -0.00000000000E+00 -0.00000000000E+00 -0.16328825845E+04  0.16328825845E+04  0.50400000000E-02 0.  1.
    8880023    1    1    2    0    0  0.38977503921E+03  0.27545713767E+03  0.19919426073E+03  0.83743046019E+03  0.65864270000E+03 0. -1.
    8880022    1    1    2    0    0 -0.38977503921E+03 -0.27545713767E+03 -0.12659642756E+04  0.13615646940E+04  0.15294330000E+03 0.  0.
<mgrwt>
<rscale>  0 0.72065439E+03</rscale>
<asrwt>0</asrwt>
<pdfrwt beam="1">  1        1 0.87094242E-01 0.81339500E+03</pdfrwt>
<pdfrwt beam="2">  1       -1 0.25121270E+00 0.81339500E+03</pdfrwt>
<totfact> 0.26352213E+00</totfact>
</mgrwt>
</event>
<event>
 4    1  0.8114601E-008  0.7401695E+03  0.7818608E-02  0.9859453E-01
          1   -1    0    0  501    0  0.00000000000E+00  0.00000000000E+00  0.26791257784E+04  0.26791257784E+04  0.50400000000E-02 0. -1.
         -1   -1    0    0    0  501 -0.00000000000E+00 -0.00000000000E+00 -0.19964453465E+03  0.19964453471E+03  0.50400000000E-02 0.  1.
    8880023    1    1    2    0    0 -0.22178558149E+03 -0.25466037698E+03  0.23835666233E+04  0.24958447078E+04  0.65864270000E+03 0. -1.
    8880022    1    1    2    0    0  0.22178558149E+03  0.25466037698E+03  0.95914620507E+02  0.38292560531E+03  0.15294330000E+03 0.  0.
<mgrwt>
<rscale>  0 0.62267231E+03</rscale>
<asrwt>0</asrwt>
<pdfrwt beam="1">  1        1 0.41217319E+00 0.74016955E+03</pdfrwt>
<pdfrwt beam="2">  1       -1 0.30714544E-01 0.74016955E+03</pdfrwt>
<totfact> 0.10510892E+01</totfact>
</mgrwt>
</event>
<event>
 4    1  0.1069379E-007  0.6699948E+03  0.7818608E-02  0.1015667E+00
         -1   -1    0    0    0  501 -0.00000000000E+00  0.00000000000E+00  0.10474039337E+04  0.10474039337E+04  0.50400000000E-02 0.  1.
          1   -1    0    0  501    0  0.00000000000E+00 -0.00000000000E+00 -0.13801828613E+04  0.13801828613E+04  0.50400000000E-02 0. -1.
    8880023    1    1    2    0    0  0.88729261602E+02 -0.84911312078E+02 -0.12883189707E+04  0.14521221675E+04  0.65864270000E+03 0. -1.
    8880022    1    1    2    0    0 -0.88729261602E+02  0.84911312078E+02  0.95554004306E+03  0.97546462759E+03  0.15294330000E+03 0.  0.
<mgrwt>
<rscale>  0 0.49283341E+03</rscale>
<asrwt>0</asrwt>
<pdfrwt beam="1">  1        1 0.21233583E+00 0.66999479E+03</pdfrwt>
<pdfrwt beam="2">  1       -1 0.16113907E+00 0.66999479E+03</pdfrwt>
<totfact> 0.24120796E+00</totfact>
</mgrwt>
</event>
<event>
 4    1  0.8114601E-008  0.6588910E+03  0.7818608E-02  0.1025323E+00
          1   -1    0    0  501    0  0.00000000000E+00  0.00000000000E+00  0.27071158178E+04  0.27071158178E+04  0.50400000000E-02 0. -1.
         -1   -1    0    0    0  501 -0.00000000000E+00 -0.00000000000E+00 -0.16724873897E+03  0.16724873905E+03  0.50400000000E-02 0.  1.
    8880023    1    1    2    0    0 -0.70880686891E+01  0.16639295388E+02  0.26194232059E+04  0.27010211485E+04  0.65864270000E+03 0. -1.
    8880022    1    1    2    0    0  0.70880686891E+01 -0.16639295388E+02 -0.79556127021E+02  0.17334340838E+03  0.15294330000E+03 0.  0.
<mgrwt>
<rscale>  0 0.45813837E+03</rscale>
<asrwt>0</asrwt>
<pdfrwt beam="1">  1        1 0.41647934E+00 0.65889097E+03</pdfrwt>
<pdfrwt beam="2">  1       -1 0.25730576E-01 0.65889097E+03</pdfrwt>
<totfact> 0.13841947E+01</totfact>
</mgrwt>
</event>
<event>
 4    1  0.8114601E-008  0.1074092E+04  0.7818608E-02  0.9290465E-01
         -1   -1    0    0    0  501 -0.00000000000E+00  0.00000000000E+00  0.24098597688E+04  0.24098597688E+04  0.50400000000E-02 0.  1.
          1   -1    0    0  501    0  0.00000000000E+00 -0.00000000000E+00 -0.55494370019E+03  0.55494370021E+03  0.50400000000E-02 0. -1.
    8880023    1    1    2    0    0  0.72159254126E+03 -0.44628195499E+03  0.19119285373E+03  0.10909758442E+04  0.65864270000E+03 0.  0.
    8880022    1    1    2    0    0 -0.72159254126E+03  0.44628195499E+03  0.16637232149E+04  0.18738276249E+04  0.15294330000E+03 0.  0.
<mgrwt>
<rscale>  0 0.10166544E+04</rscale>
<asrwt>0</asrwt>
<pdfrwt beam="1">  1        1 0.85375954E-01 0.10740920E+04</pdfrwt>
<pdfrwt beam="2">  1       -1 0.37074766E+00 0.10740920E+04</pdfrwt>
<totfact> 0.43783268E-01</totfact>
</mgrwt>
</event>
<event>
 4    1  0.8114601E-008  0.7200763E+03  0.7818608E-02  0.9922328E-01
         -1   -1    0    0    0  501 -0.00000000000E+00  0.00000000000E+00  0.10488139196E+04  0.10488139196E+04  0.50400000000E-02 0.  1.
          1   -1    0    0  501    0  0.00000000000E+00 -0.00000000000E+00 -0.34690360933E+04  0.34690360933E+04  0.50400000000E-02 0. -1.
    8880023    1    1    2    0    0 -0.28380768869E+03  0.64442505618E+02 -0.34046543333E+04  0.34799685310E+04  0.65864270000E+03 0. -1.
    8880022    1    1    2    0    0  0.28380768869E+03 -0.64442505618E+02  0.98443215960E+03  0.10378814819E+04  0.15294330000E+03 0.  0.
<mgrwt>
<rscale>  0 0.59191278E+03</rscale>
<asrwt>0</asrwt>
<pdfrwt beam="1">  1        1 0.53369785E+00 0.72007628E+03</pdfrwt>
<pdfrwt beam="2">  1       -1 0.16135599E+00 0.72007628E+03</pdfrwt>
<totfact> 0.84109492E-02</totfact>
</mgrwt>
</event>
<event>
 4    1  0.8114601E-008  0.1136501E+04  0.7818608E-02  0.9221465E-01
          1   -1    0    0  501    0  0.00000000000E+00  0.00000000000E+00  0.24537882421E+04  0.24537882421E+04  0.50400000000E-02 0. -1.
         -1   -1    0    0    0  501 -0.00000000000E+00 -0.00000000000E+00 -0.96744566867E+03  0.96744566869E+03  0.50400000000E-02 0.  1.
    8880023    1    1    2    0    0 -0.56215619896E+03  0.73607347551E+03  0.20372311291E+04  0.23327975980E+04  0.65864270000E+03 0.  0.
    8880022    1    1    2    0    0  0.56215619896E+03 -0.73607347551E+03 -0.55088855566E+03  0.10884363129E+04  0.15294330000E+03 0.  0.
<mgrwt>
<rscale>  0 0.10834592E+04</rscale>
<asrwt>0</asrwt>
<pdfrwt beam="1">  1        1 0.37750588E+00 0.11365008E+04</pdfrwt>
<pdfrwt beam="2">  1       -1 0.14883780E+00 0.11365008E+04</pdfrwt>
<totfact> 0.51738150E-01</totfact>
</mgrwt>
</event>
<event>
 4    1  0.8114601E-008  0.8269097E+03  0.7818608E-02  0.9655375E-01
         -1   -1    0    0    0  501 -0.00000000000E+00  0.00000000000E+00  0.41402019981E+03  0.41402019984E+03  0.50400000000E-02 0.  1.
          1   -1    0    0  501    0  0.00000000000E+00 -0.00000000000E+00 -0.31564370876E+04  0.31564370876E+04  0.50400000000E-02 0. -1.
    8880023    1    1    2    0    0  0.39163499132E+03  0.31079168058E+03 -0.29070028187E+04  0.30223244415E+04  0.65864270000E+03 0. -1.
    8880022    1    1    2    0    0 -0.39163499132E+03 -0.31079168058E+03  0.16458593095E+03  0.54813284596E+03  0.15294330000E+03 0.  0.
<mgrwt>
<rscale>  0 0.73737031E+03</rscale>
<asrwt>0</asrwt>
<pdfrwt beam="1">  1        1 0.48560569E+00 0.82690969E+03</pdfrwt>
<pdfrwt beam="2">  1       -1 0.63695417E-01 0.82690969E+03</pdfrwt>
<totfact> 0.12188073E+00</totfact>
</mgrwt>
</event>
<event>
 4    1  0.9720079E-008  0.7658912E+03  0.7818608E-02  0.9790088E-01
          1   -1    0    0  501    0  0.00000000000E+00  0.00000000000E+00  0.13346706969E+04  0.13346706969E+04  0.50400000000E-02 0. -1.
         -1   -1    0    0    0  501 -0.00000000000E+00 -0.00000000000E+00 -0.99033789719E+03  0.99033789720E+03  0.50400000000E-02 0.  1.
    8880023    1    1    2    0    0 -0.27654048878E+03  0.27623269055E+03  0.11702274739E+04  0.13985784526E+04  0.65864270000E+03 0. -1.
    8880022    1    1    2    0    0  0.27654048878E+03 -0.27623269055E+03 -0.82589467415E+03  0.92643014150E+03  0.15294330000E+03 0.  0.
<mgrwt>
<rscale>  0 0.65897214E+03</rscale>
<asrwt>0</asrwt>
<pdfrwt beam="1">  1        1 0.20533395E+00 0.76589121E+03</pdfrwt>
<pdfrwt beam="2">  1       -1 0.15235968E+00 0.76589121E+03</pdfrwt>
<totfact> 0.29720318E+00</totfact>
</mgrwt>
</event>
<event>
 4    1  0.8114601E-008  0.6850823E+03  0.7818608E-02  0.1006583E+00
         -1   -1    0    0    0  501 -0.00000000000E+00  0.00000000000E+00  0.30747586212E+03  0.30747586216E+03  0.50400000000E-02 0.  1.
          1   -1    0    0  501    0  0.00000000000E+00 -0.00000000000E+00 -0.21224640578E+04  0.21224640578E+04  0.50400000000E-02 0. -1.
    8880023    1    1    2    0    0 -0.16110556324E+03  0.97839356180E+02 -0.20068338389E+04  0.21205470533E+04  0.65864270000E+03 0. -1.
    8880022    1    1    2    0    0  0.16110556324E+03 -0.97839356180E+02  0.19184564319E+03  0.30939286668E+03  0.15294330000E+03 0.  0.
<mgrwt>
<rscale>  0 0.52855375E+03</rscale>
<asrwt>0</asrwt>
<pdfrwt beam="1">  1        1 0.32653292E+00 0.68508229E+03</pdfrwt>
<pdfrwt beam="2">  1       -1 0.47303980E-01 0.68508229E+03</pdfrwt>
<totfact> 0.11605961E+01</totfact>
</mgrwt>
</event>
<event>
 4    1  0.8114601E-008  0.7052392E+03  0.7818608E-02  0.9976124E-01
          1   -1    0    0  501    0  0.00000000000E+00  0.00000000000E+00  0.17882968236E+04  0.17882968236E+04  0.50400000000E-02 0. -1.
         -1   -1    0    0    0  501 -0.00000000000E+00 -0.00000000000E+00 -0.38209111871E+03  0.38209111875E+03  0.50400000000E-02 0.  1.
    8880023    1    1    2    0    0  0.23318792085E+03 -0.95788711748E+02  0.16457474920E+04  0.17904879495E+04  0.65864270000E+03 0. -1.
    8880022    1    1    2    0    0 -0.23318792085E+03  0.95788711748E+02 -0.23954178714E+03  0.37989999280E+03  0.15294330000E+03 0.  0.
<mgrwt>
<rscale>  0 0.56709668E+03</rscale>
<asrwt>0</asrwt>
<pdfrwt beam="1">  1        1 0.27512259E+00 0.70523917E+03</pdfrwt>
<pdfrwt beam="2">  1       -1 0.58783249E-01 0.70523917E+03</pdfrwt>
<totfact> 0.12758997E+01</totfact>
</mgrwt>
</event>
<event>
 4    1  0.8114601E-008  0.1280015E+04  0.7818608E-02  0.9083013E-01
         -1   -1    0    0    0  501 -0.00000000000E+00  0.00000000000E+00  0.24396302860E+04  0.24396302860E+04  0.50400000000E-02 0.  1.
          1   -1    0    0  501    0  0.00000000000E+00 -0.00000000000E+00 -0.61159270121E+03  0.61159270123E+03  0.50400000000E-02 0. -1.
    8880023    1    1    2    0    0 -0.20409185023E+03  0.10784133919E+04  0.12974613924E+04  0.18225929875E+04  0.65864270000E+03 0.  0.
    8880022    1    1    2    0    0  0.20409185023E+03 -0.10784133919E+04  0.53057619243E+03  0.12286299997E+04  0.15294330000E+03 0.  0.
<mgrwt>
<rscale>  0 0.12347018E+04</rscale>
<asrwt>0</asrwt>
<pdfrwt beam="1">  1        1 0.94091186E-01 0.12800153E+04</pdfrwt>
<pdfrwt beam="2">  1       -1 0.37532773E+00 0.12800153E+04</pdfrwt>
<totfact> 0.34511113E-01</totfact>
</mgrwt>
</event>
<event>
 4    1  0.8114601E-008  0.8949920E+03  0.7818608E-02  0.9534119E-01
          1   -1    0    0  501    0  0.00000000000E+00  0.00000000000E+00  0.18131813279E+04  0.18131813279E+04  0.50400000000E-02 0. -1.
         -1   -1    0    0    0  501 -0.00000000000E+00 -0.00000000000E+00 -0.69867495260E+03  0.69867495262E+03  0.50400000000E-02 0.  1.
    8880023    1    1    2    0    0  0.79561744784E+02 -0.60072482833E+03  0.15220910864E+04  0.17657213461E+04  0.65864270000E+03 0. -1.
    8880022    1    1    2    0    0 -0.79561744784E+02  0.60072482833E+03 -0.40758471110E+03  0.74613493440E+03  0.15294330000E+03 0.  0.
<mgrwt>
<rscale>  0 0.81814404E+03</rscale>
<asrwt>0</asrwt>
<pdfrwt beam="1">  1        1 0.27895097E+00 0.89499195E+03</pdfrwt>
<pdfrwt beam="2">  1       -1 0.10748846E+00 0.89499195E+03</pdfrwt>
<totfact> 0.32930967E+00</totfact>
</mgrwt>
</event>
<event>
 4    1  0.8114601E-008  0.6796140E+03  0.7818608E-02  0.1009543E+00
          1   -1    0    0  501    0  0.00000000000E+00  0.00000000000E+00  0.21295634004E+04  0.21295634004E+04  0.50400000000E-02 0. -1.
         -1   -1    0    0    0  501 -0.00000000000E+00 -0.00000000000E+00 -0.23703341611E+03  0.23703341617E+03  0.50400000000E-02 0.  1.
    8880023    1    1    2    0    0  0.46177868294E+01  0.16746236051E+03  0.20023721386E+04  0.21145612675E+04  0.65864270000E+03 0. -1.
    8880022    1    1    2    0    0 -0.46177868294E+01 -0.16746236051E+03 -0.10984215430E+03  0.25203554912E+03  0.15294330000E+03 0.  0.
<mgrwt>
<rscale>  0 0.51656727E+03</rscale>
<asrwt>0</asrwt>
<pdfrwt beam="1">  1        1 0.32762513E+00 0.67961399E+03</pdfrwt>
<pdfrwt beam="2">  1       -1 0.36466680E-01 0.67961399E+03</pdfrwt>
<totfact> 0.18490181E+01</totfact>
</mgrwt>
</event>
<event>
 4    1  0.8114601E-008  0.9054474E+03  0.7818608E-02  0.9517343E-01
          1   -1    0    0  501    0  0.00000000000E+00  0.00000000000E+00  0.94514366416E+03  0.94514366417E+03  0.50400000000E-02 0. -1.
         -1   -1    0    0    0  501 -0.00000000000E+00 -0.00000000000E+00 -0.64522954232E+03  0.64522954234E+03  0.50400000000E-02 0.  1.
    8880023    1    1    2    0    0  0.49918907580E+03  0.36991230908E+03  0.28890608240E+03  0.95042189606E+03  0.65864270000E+03 0.  0.
    8880022    1    1    2    0    0 -0.49918907580E+03 -0.36991230908E+03  0.11008039440E+02  0.63995131045E+03  0.15294330000E+03 0.  0.
<mgrwt>
<rscale>  0 0.83017204E+03</rscale>
<asrwt>0</asrwt>
<pdfrwt beam="1">  1        1 0.14540672E+00 0.90544743E+03</pdfrwt>
<pdfrwt beam="2">  1       -1 0.99266084E-01 0.90544743E+03</pdfrwt>
<totfact> 0.16401518E+01</totfact>
</mgrwt>
</event>
<event>
 4    1  0.8114601E-008  0.1488359E+04  0.7818608E-02  0.8917900E-01
          1   -1    0    0  501    0  0.00000000000E+00  0.00000000000E+00  0.35405211640E+04  0.35405211640E+04  0.50400000000E-02 0. -1.
         -1   -1    0    0    0  501 -0.00000000000E+00 -0.00000000000E+00 -0.11633567965E+04  0.11633567966E+04  0.50400000000E-02 0.  1.
    8880023    1    1    2    0    0 -0.98992202920E+03 -0.89524099592E+03  0.29021267265E+04  0.32615259937E+04  0.65864270000E+03 0. -1.
    8880022    1    1    2    0    0  0.98992202920E+03  0.89524099592E+03 -0.52496235909E+03  0.14423519668E+04  0.15294330000E+03 0.  0.
<mgrwt>
<rscale>  0 0.14507220E+04</rscale>
<asrwt>0</asrwt>
<pdfrwt beam="1">  1        1 0.54469556E+00 0.14883589E+04</pdfrwt>
<pdfrwt beam="2">  1       -1 0.17897797E+00 0.14883589E+04</pdfrwt>
<totfact> 0.46928451E-02</totfact>
</mgrwt>
</event>
<event>
 4    1  0.8114601E-008  0.1451416E+04  0.7818608E-02  0.8944727E-01
          1   -1    0    0  501    0  0.00000000000E+00  0.00000000000E+00  0.29559727954E+04  0.29559727954E+04  0.50400000000E-02 0. -1.
         -1   -1    0    0    0  501 -0.00000000000E+00 -0.00000000000E+00 -0.82515662667E+03  0.82515662668E+03  0.50400000000E-02 0.  1.
    8880023    1    1    2    0    0 -0.12695941423E+04  0.24683526699E+03  0.20014688749E+04  0.24723439887E+04  0.65864270000E+03 0.  0.
    8880022    1    1    2    0    0  0.12695941423E+04 -0.24683526699E+03  0.12934729384E+03  0.13087854334E+04  0.15294330000E+03 0.  0.
<mgrwt>
<rscale>  0 0.14126289E+04</rscale>
<asrwt>0</asrwt>
<pdfrwt beam="1">  1        1 0.45476505E+00 0.14514156E+04</pdfrwt>
<pdfrwt beam="2">  1       -1 0.12694717E+00 0.14514156E+04</pdfrwt>
<totfact> 0.33274035E-01</totfact>
</mgrwt>
</event>
<event>
 4    1  0.8114601E-008  0.1042883E+04  0.7818608E-02  0.9327486E-01
         -1   -1    0    0    0  501 -0.00000000000E+00  0.00000000000E+00  0.18451274675E+04  0.18451274675E+04  0.50400000000E-02 0.  1.
          1   -1    0    0  501    0  0.00000000000E+00 -0.00000000000E+00 -0.76693675489E+03  0.76693675490E+03  0.50400000000E-02 0. -1.
    8880023    1    1    2    0    0 -0.24610313943E+03  0.77021276214E+03 -0.22870604747E+03  0.10676662009E+04  0.65864270000E+03 0. -1.
    8880022    1    1    2    0    0  0.24610313943E+03 -0.77021276214E+03  0.13068967600E+04  0.15443980214E+04  0.15294330000E+03 0.  0.
<mgrwt>
<rscale>  0 0.98291317E+03</rscale>
<asrwt>0</asrwt>
<pdfrwt beam="1">  1        1 0.11799027E+00 0.10428829E+04</pdfrwt>
<pdfrwt beam="2">  1       -1 0.28386576E+00 0.10428829E+04</pdfrwt>
<totfact> 0.99929504E-01</totfact>
</mgrwt>
</event>
<event>
 4    1  0.8114601E-008  0.7925260E+03  0.7818608E-02  0.9727196E-01
          1   -1    0    0  501    0  0.00000000000E+00  0.00000000000E+00  0.19457929483E+04  0.19457929483E+04  0.50400000000E-02 0. -1.
         -1   -1    0    0    0  501 -0.00000000000E+00 -0.00000000000E+00 -0.22760335030E+03  0.22760335035E+03  0.50400000000E-02 0.  1.
    8880023    1    1    2    0    0  0.23586619497E+03 -0.37236321642E+03  0.71656701671E+03  0.10684407904E+04  0.65864270000E+03 0.  1.
    8880022    1    1    2    0    0 -0.23586619497E+03  0.37236321642E+03  0.10016225813E+04  0.11049555082E+04  0.15294330000E+03 0. -1.
<mgrwt>
<rscale>  0 0.69420409E+03</rscale>
<asrwt>0</asrwt>
<pdfrwt beam="1">  1        1 0.29935275E+00 0.79252598E+03</pdfrwt>
<pdfrwt beam="2">  1       -1 0.35015901E-01 0.79252598E+03</pdfrwt>
<totfact> 0.25961641E+01</totfact>
</mgrwt>
</event>
<event>
 4    1  0.8114601E-008  0.7095328E+03  0.7818608E-02  0.9959740E-01
          1   -1    0    0  501    0  0.00000000000E+00  0.00000000000E+00  0.10017565231E+04  0.10017565231E+04  0.50400000000E-02 0. -1.
         -1   -1    0    0    0  501 -0.00000000000E+00 -0.00000000000E+00 -0.80242089762E+03  0.80242089763E+03  0.50400000000E-02 0.  1.
    8880023    1    1    2    0    0 -0.22456497376E+03 -0.13855404079E+03  0.83703445805E+03  0.10972982912E+04  0.65864270000E+03 0. -1.
    8880022    1    1    2    0    0  0.22456497376E+03  0.13855404079E+03 -0.63769883259E+03  0.70687912952E+03  0.15294330000E+03 0.  0.
<mgrwt>
<rscale>  0 0.57451375E+03</rscale>
<asrwt>0</asrwt>
<pdfrwt beam="1">  1        1 0.15411639E+00 0.70953284E+03</pdfrwt>
<pdfrwt beam="2">  1       -1 0.12344937E+00 0.70953284E+03</pdfrwt>
<totfact> 0.90485489E+00</totfact>
</mgrwt>
</event>
<event>
 4    1  0.8114601E-008  0.7242912E+03  0.7818608E-02  0.9908325E-01
         -1   -1    0    0    0  501 -0.00000000000E+00  0.00000000000E+00  0.26983650474E+03  0.26983650479E+03  0.50400000000E-02 0.  1.
          1   -1    0    0  501    0  0.00000000000E+00 -0.00000000000E+00 -0.19391794902E+04  0.19391794902E+04  0.50400000000E-02 0. -1.
    8880023    1    1    2    0    0  0.11372556840E+03  0.27902337543E+03 -0.17209863538E+04  0.18671882029E+04  0.65864270000E+03 0. -1.
    8880022    1    1    2    0    0 -0.11372556840E+03 -0.27902337543E+03  0.51643368312E+02  0.34182779210E+03  0.15294330000E+03 0.  0.
<mgrwt>
<rscale>  0 0.59859528E+03</rscale>
<asrwt>0</asrwt>
<pdfrwt beam="1">  1        1 0.29833530E+00 0.72429121E+03</pdfrwt>
<pdfrwt beam="2">  1       -1 0.41513310E-01 0.72429121E+03</pdfrwt>
<totfact> 0.19465249E+01</totfact>
</mgrwt>
</event>
<event>
 4    1  0.8114601E-008  0.1013261E+04  0.7818608E-02  0.9364411E-01
         -1   -1    0    0    0  501 -0.00000000000E+00  0.00000000000E+00  0.13810958065E+04  0.13810958065E+04  0.50400000000E-02 0.  1.
          1   -1    0    0  501    0  0.00000000000E+00 -0.00000000000E+00 -0.21419807715E+04  0.21419807715E+04  0.50400000000E-02 0. -1.
    8880023    1    1    2    0    0 -0.40423710519E+03 -0.65534670726E+03 -0.18919934990E+04  0.21462377666E+04  0.65864270000E+03 0. -1.
    8880022    1    1    2    0    0  0.40423710519E+03  0.65534670726E+03  0.11311085340E+04  0.13768388114E+04  0.15294330000E+03 0.  0.
<mgrwt>
<rscale>  0 0.95063329E+03</rscale>
<asrwt>0</asrwt>
<pdfrwt beam="1">  1        1 0.32953550E+00 0.10132607E+04</pdfrwt>
<pdfrwt beam="2">  1       -1 0.21247628E+00 0.10132607E+04</pdfrwt>
<totfact> 0.29897549E-01</totfact>
</mgrwt>
</event>
<event>
 4    1  0.8114601E-008  0.1127019E+04  0.7818608E-02  0.9231554E-01
         -1   -1    0    0    0  501 -0.00000000000E+00  0.00000000000E+00  0.76911230480E+03  0.76911230482E+03  0.50400000000E-02 0.  1.
          1   -1    0    0  501    0  0.00000000000E+00 -0.00000000000E+00 -0.23691010635E+04  0.23691010635E+04  0.50400000000E-02 0. -1.
    8880023    1    1    2    0    0 -0.90963141355E+03 -0.94505793363E+02 -0.18603690635E+04  0.21751192869E+04  0.65864270000E+03 0. -1.
    8880022    1    1    2    0    0  0.90963141355E+03  0.94505793363E+02  0.26038030483E+03  0.96309408141E+03  0.15294330000E+03 0.  0.
<mgrwt>
<rscale>  0 0.10733589E+04</rscale>
<asrwt>0</asrwt>
<pdfrwt beam="1">  1        1 0.36447708E+00 0.11270186E+04</pdfrwt>
<pdfrwt beam="2">  1       -1 0.11832497E+00 0.11270186E+04</pdfrwt>
<totfact> 0.10662069E+00</totfact>
</mgrwt>
</event>
<event>
 4    1  0.8114601E-008  0.1793526E+04  0.7818608E-02  0.8726126E-01
          1   -1    0    0  501    0  0.00000000000E+00  0.00000000000E+00  0.35717197203E+04  0.35717197203E+04  0.50400000000E-02 0. -1.
         -1   -1    0    0    0  501 -0.00000000000E+00 -0.00000000000E+00 -0.15266243130E+04  0.15266243130E+04  0.50400000000E-02 0.  1.
    8880023    1    1    2    0    0  0.16667264959E+04  0.70353447089E+02  0.27481190389E+04  0.32815994999E+04  0.65864270000E+03 0. -1.
    8880022    1    1    2    0    0 -0.16667264959E+04 -0.70353447089E+02 -0.70302363158E+03  0.18167445333E+04  0.15294330000E+03 0.  0.
<mgrwt>
<rscale>  0 0.17631853E+04</rscale>
<asrwt>0</asrwt>
<pdfrwt beam="1">  1        1 0.54949534E+00 0.17935264E+04</pdfrwt>
<pdfrwt beam="2">  1       -1 0.23486528E+00 0.17935264E+04</pdfrwt>
<totfact> 0.17531069E-02</totfact>
</mgrwt>
</event>
<event>
 4    1  0.8114601E-008  0.1706236E+04  0.7818608E-02  0.8776257E-01
         -1   -1    0    0    0  501 -0.00000000000E+00  0.00000000000E+00  0.19926232230E+04  0.19926232230E+04  0.50400000000E-02 0.  1.
          1   -1    0    0  501    0  0.00000000000E+00 -0.00000000000E+00 -0.22818170816E+04  0.22818170816E+04  0.50400000000E-02 0. -1.
    8880023    1    1    2    0    0 -0.46939026106E+03 -0.15023658218E+04 -0.15085808120E+04  0.22775110433E+04  0.65864270000E+03 0.  0.
    8880022    1    1    2    0    0  0.46939026106E+03  0.15023658218E+04  0.12193869534E+04  0.19969292613E+04  0.15294330000E+03 0.  0.
<mgrwt>
<rscale>  0 0.16741317E+04</rscale>
<asrwt>0</asrwt>
<pdfrwt beam="1">  1        1 0.35104878E+00 0.17062358E+04</pdfrwt>
<pdfrwt beam="2">  1       -1 0.30655742E+00 0.17062358E+04</pdfrwt>
<totfact> 0.52673951E-02</totfact>
</mgrwt>
</event>
<event>
 4    1  0.8114601E-008  0.6760533E+03  0.7818608E-02  0.1011650E+00
          1   -1    0    0  501    0  0.00000000000E+00  0.00000000000E+00  0.24845867988E+04  0.24845867988E+04  0.50400000000E-02 0. -1.
         -1   -1    0    0    0  501 -0.00000000000E+00 -0.00000000000E+00 -0.56672088938E+03  0.56672088941E+03  0.50400000000E-02 0.  1.
    8880023    1    1    2    0    0 -0.15212272995E+03 -0.98247138765E+01  0.24157754960E+04  0.25085891061E+04  0.65864270000E+03 0. -1.
    8880022    1    1    2    0    0  0.15212272995E+03  0.98247138765E+01 -0.49790958657E+03  0.54271858212E+03  0.15294330000E+03 0.  0.
<mgrwt>
<rscale>  0 0.50823936E+03</rscale>
<asrwt>0</asrwt>
<pdfrwt beam="1">  1        1 0.38224412E+00 0.67605329E+03</pdfrwt>
<pdfrwt beam="2">  1       -1 0.87187830E-01 0.67605329E+03</pdfrwt>
<totfact> 0.19444857E+00</totfact>
</mgrwt>
</event>
<event>
 4    1  0.9070851E-008  0.6910035E+03  0.7818608E-02  0.1003679E+00
         -1   -1    0    0    0  501 -0.00000000000E+00  0.00000000000E+00  0.92322816776E+03  0.92322816778E+03  0.50400000000E-02 0.  1.
          1   -1    0    0  501    0  0.00000000000E+00 -0.00000000000E+00 -0.15724846757E+04  0.15724846757E+04  0.50400000000E-02 0. -1.
    8880023    1    1    2    0    0 -0.15778106443E+03 -0.13704285369E+03 -0.14757926547E+04  0.16295550847E+04  0.65864270000E+03 0. -1.
    8880022    1    1    2    0    0  0.15778106443E+03  0.13704285369E+03  0.82653614682E+03  0.86615775876E+03  0.15294330000E+03 0.  0.
<mgrwt>
<rscale>  0 0.54065970E+03</rscale>
<asrwt>0</asrwt>
<pdfrwt beam="1">  1        1 0.24192072E+00 0.69100348E+03</pdfrwt>
<pdfrwt beam="2">  1       -1 0.14203510E+00 0.69100348E+03</pdfrwt>
<totfact> 0.24906999E+00</totfact>
</mgrwt>
</event>
<event>
 4    1  0.8114601E-008  0.1371538E+04  0.7818608E-02  0.9006120E-01
          1   -1    0    0  501    0  0.00000000000E+00  0.00000000000E+00  0.32633262811E+04  0.32633262811E+04  0.50400000000E-02 0. -1.
         -1   -1    0    0    0  501 -0.00000000000E+00 -0.00000000000E+00 -0.66972874821E+03  0.66972874823E+03  0.50400000000E-02 0.  1.
    8880023    1    1    2    0    0  0.49457340975E+03 -0.10966788621E+04  0.23117770734E+04  0.26880161510E+04  0.65864270000E+03 0.  0.
    8880022    1    1    2    0    0 -0.49457340975E+03  0.10966788621E+04  0.28182045948E+03  0.12450388784E+04  0.15294330000E+03 0.  0.
<mgrwt>
<rscale>  0 0.13299841E+04</rscale>
<asrwt>0</asrwt>
<pdfrwt beam="1">  1        1 0.50205020E+00 0.13715384E+04</pdfrwt>
<pdfrwt beam="2">  1       -1 0.10303519E+00 0.13715384E+04</pdfrwt>
<totfact> 0.33064610E-01</totfact>
</mgrwt>
</event>
<event>
 4    1  0.8114601E-008  0.6728098E+03  0.7818608E-02  0.1013724E+00
          1   -1    0    0  501    0  0.00000000000E+00  0.00000000000E+00  0.29121786485E+04  0.29121786485E+04  0.50400000000E-02 0. -1.
         -1   -1    0    0    0  501 -0.00000000000E+00 -0.00000000000E+00 -0.60467186305E+03  0.60467186307E+03  0.50400000000E-02 0.  1.
    8880023    1    1    2    0    0 -0.11806179395E+03  0.70172596654E+02  0.28543893424E+04  0.29326117208E+04  0.65864270000E+03 0. -1.
    8880022    1    1    2    0    0  0.11806179395E+03 -0.70172596654E+02 -0.54688255698E+03  0.58423879078E+03  0.15294330000E+03 0.  0.
<mgrwt>
<rscale>  0 0.50021102E+03</rscale>
<asrwt>0</asrwt>
<pdfrwt beam="1">  1        1 0.44802748E+00 0.67280977E+03</pdfrwt>
<pdfrwt beam="2">  1       -1 0.93026441E-01 0.67280977E+03</pdfrwt>
<totfact> 0.85318095E-01</totfact>
</mgrwt>
</event>
<event>
 4    1  0.8114601E-008  0.1224783E+04  0.7818608E-02  0.9133400E-01
         -1   -1    0    0    0  501 -0.00000000000E+00  0.00000000000E+00  0.19298426181E+04  0.19298426181E+04  0.50400000000E-02 0.  1.
          1   -1    0    0  501    0  0.00000000000E+00 -0.00000000000E+00 -0.16018024628E+04  0.16018024628E+04  0.50400000000E-02 0. -1.
    8880023    1    1    2    0    0  0.72428947276E+03  0.73599380507E+03 -0.11779080990E+04  0.16992821477E+04  0.65864270000E+03 0.  0.
    8880022    1    1    2    0    0 -0.72428947276E+03 -0.73599380507E+03  0.15059482543E+04  0.18323629332E+04  0.15294330000E+03 0.  0.
<mgrwt>
<rscale>  0 0.11768099E+04</rscale>
<asrwt>0</asrwt>
<pdfrwt beam="1">  1        1 0.24643115E+00 0.12247826E+04</pdfrwt>
<pdfrwt beam="2">  1       -1 0.29689886E+00 0.12247826E+04</pdfrwt>
<totfact> 0.18867722E-01</totfact>
</mgrwt>
</event>
<event>
 4    1  0.8114601E-008  0.1703609E+04  0.7818608E-02  0.8777818E-01
          1   -1    0    0  501    0  0.00000000000E+00  0.00000000000E+00  0.21931611487E+04  0.21931611487E+04  0.50400000000E-02 0. -1.
         -1   -1    0    0    0  501 -0.00000000000E+00 -0.00000000000E+00 -0.16033521063E+04  0.16033521063E+04  0.50400000000E-02 0.  1.
    8880023    1    1    2    0    0  0.15574027838E+04 -0.20729205583E+03  0.12214784969E+04  0.20962569861E+04  0.65864270000E+03 0.  0.
    8880022    1    1    2    0    0 -0.15574027838E+04  0.20729205583E+03 -0.63166945445E+03  0.17002562689E+04  0.15294330000E+03 0.  0.
<mgrwt>
<rscale>  0 0.16714485E+04</rscale>
<asrwt>0</asrwt>
<pdfrwt beam="1">  1        1 0.33740940E+00 0.17036090E+04</pdfrwt>
<pdfrwt beam="2">  1       -1 0.24666956E+00 0.17036090E+04</pdfrwt>
<totfact> 0.14870946E-01</totfact>
</mgrwt>
</event>
<event>
 4    1  0.8114601E-008  0.7426439E+03  0.7818608E-02  0.9852311E-01
          1   -1    0    0  501    0  0.00000000000E+00  0.00000000000E+00  0.13318181804E+04  0.13318181804E+04  0.50400000000E-02 0. -1.
         -1   -1    0    0    0  501 -0.00000000000E+00 -0.00000000000E+00 -0.99456676824E+03  0.99456676825E+03  0.50400000000E-02 0.  1.
    8880023    1    1    2    0    0 -0.24113882277E+03 -0.24405291593E+03  0.11853761737E+04  0.13987982832E+04  0.65864270000E+03 0. -1.
    8880022    1    1    2    0    0  0.24113882277E+03  0.24405291593E+03 -0.84812476159E+03  0.92758666542E+03  0.15294330000E+03 0.  0.
<mgrwt>
<rscale>  0 0.62629203E+03</rscale>
<asrwt>0</asrwt>
<pdfrwt beam="1">  1        1 0.20489510E+00 0.74264390E+03</pdfrwt>
<pdfrwt beam="2">  1       -1 0.15301027E+00 0.74264390E+03</pdfrwt>
<totfact> 0.29635251E+00</totfact>
</mgrwt>
</event>
<event>
 4    1  0.8114601E-008  0.1219544E+04  0.7818608E-02  0.9138354E-01
         -1   -1    0    0    0  501 -0.00000000000E+00  0.00000000000E+00  0.63194381873E+03  0.63194381875E+03  0.50400000000E-02 0.  1.
          1   -1    0    0  501    0  0.00000000000E+00 -0.00000000000E+00 -0.21283381815E+04  0.21283381815E+04  0.50400000000E-02 0. -1.
    8880023    1    1    2    0    0  0.23925416870E+03 -0.99811621198E+03 -0.11217867473E+04  0.16570136519E+04  0.65864270000E+03 0.  0.
    8880022    1    1    2    0    0 -0.23925416870E+03  0.99811621198E+03 -0.37460761541E+03  0.11032683483E+04  0.15294330000E+03 0.  0.
<mgrwt>
<rscale>  0 0.11713014E+04</rscale>
<asrwt>0</asrwt>
<pdfrwt beam="1">  1        1 0.32743664E+00 0.12195445E+04</pdfrwt>
<pdfrwt beam="2">  1       -1 0.97222126E-01 0.12195445E+04</pdfrwt>
<totfact> 0.24404201E+00</totfact>
</mgrwt>
</event>
<event>
 4    1  0.8114601E-008  0.1064772E+04  0.7818608E-02  0.9301330E-01
          1   -1    0    0  501    0  0.00000000000E+00  0.00000000000E+00  0.17527187582E+04  0.17527187582E+04  0.50400000000E-02 0. -1.
         -1   -1    0    0    0  501 -0.00000000000E+00 -0.00000000000E+00 -0.85683721651E+03  0.85683721652E+03  0.50400000000E-02 0.  1.
    8880023    1    1    2    0    0 -0.75743293595E+03 -0.35528157709E+03  0.12895953113E+04  0.16723623784E+04  0.65864270000E+03 0.  0.
    8880022    1    1    2    0    0  0.75743293595E+03  0.35528157709E+03 -0.39371376967E+03  0.93719359629E+03  0.15294330000E+03 0.  0.
<mgrwt>
<rscale>  0 0.10066047E+04</rscale>
<asrwt>0</asrwt>
<pdfrwt beam="1">  1        1 0.26964903E+00 0.10647722E+04</pdfrwt>
<pdfrwt beam="2">  1       -1 0.13182111E+00 0.10647722E+04</pdfrwt>
<totfact> 0.21458971E+00</totfact>
</mgrwt>
</event>
<event>
 4    1  0.8114601E-008  0.8174946E+03  0.7818608E-02  0.9674172E-01
          1   -1    0    0  501    0  0.00000000000E+00  0.00000000000E+00  0.31653025044E+04  0.31653025044E+04  0.50400000000E-02 0. -1.
         -1   -1    0    0    0  501 -0.00000000000E+00 -0.00000000000E+00 -0.84826988185E+03  0.84826988187E+03  0.50400000000E-02 0.  1.
    8880023    1    1    2    0    0  0.44389751509E+03 -0.19349992235E+03  0.30299438185E+04  0.31382888607E+04  0.65864270000E+03 0. -1.
    8880022    1    1    2    0    0 -0.44389751509E+03  0.19349992235E+03 -0.71291119592E+03  0.87528352557E+03  0.15294330000E+03 0.  0.
<mgrwt>
<rscale>  0 0.72575601E+03</rscale>
<asrwt>0</asrwt>
<pdfrwt beam="1">  1        1 0.48696961E+00 0.81749461E+03</pdfrwt>
<pdfrwt beam="2">  1       -1 0.13050306E+00 0.81749461E+03</pdfrwt>
<totfact> 0.24300571E-01</totfact>
</mgrwt>
</event>
<event>
 4    1  0.8114601E-008  0.1006736E+04  0.7818608E-02  0.9372798E-01
         -1   -1    0    0    0  501 -0.00000000000E+00  0.00000000000E+00  0.51107756877E+03  0.51107756880E+03  0.50400000000E-02 0.  1.
          1   -1    0    0  501    0  0.00000000000E+00 -0.00000000000E+00 -0.32660882907E+04  0.32660882907E+04  0.50400000000E-02 0. -1.
    8880023    1    1    2    0    0  0.73493855533E+03 -0.19892647163E+03 -0.28234487143E+04  0.29975622211E+04  0.65864270000E+03 0.  0.
    8880022    1    1    2    0    0 -0.73493855533E+03  0.19892647163E+03  0.68437992292E+02  0.77960363841E+03  0.15294330000E+03 0.  0.
<mgrwt>
<rscale>  0 0.94348516E+03</rscale>
<asrwt>0</asrwt>
<pdfrwt beam="1">  1        1 0.50247511E+00 0.10067356E+04</pdfrwt>
<pdfrwt beam="2">  1       -1 0.78627320E-01 0.10067356E+04</pdfrwt>
<totfact> 0.63350495E-01</totfact>
</mgrwt>
</event>
<event>
 4    1  0.8114601E-008  0.1218431E+04  0.7818608E-02  0.9139411E-01
          1   -1    0    0  501    0  0.00000000000E+00  0.00000000000E+00  0.30199327690E+04  0.30199327690E+04  0.50400000000E-02 0. -1.
         -1   -1    0    0    0  501 -0.00000000000E+00 -0.00000000000E+00 -0.63152306003E+03  0.63152306005E+03  0.50400000000E-02 0.  1.
    8880023    1    1    2    0    0  0.99495404252E+02  0.10202279423E+04  0.23105398285E+04  0.26121196173E+04  0.65864270000E+03 0.  0.
    8880022    1    1    2    0    0 -0.99495404252E+02 -0.10202279423E+04  0.77869880417E+02  0.10393362117E+04  0.15294330000E+03 0.  0.
<mgrwt>
<rscale>  0 0.11701302E+04</rscale>
<asrwt>0</asrwt>
<pdfrwt beam="1">  1        1 0.46460504E+00 0.12184312E+04</pdfrwt>
<pdfrwt beam="2">  1       -1 0.97157394E-01 0.12184312E+04</pdfrwt>
<totfact> 0.58482055E-01</totfact>
</mgrwt>
</event>
<event>
 4    1  0.8114601E-008  0.7958421E+03  0.7818608E-02  0.9719859E-01
         -1   -1    0    0    0  501 -0.00000000000E+00  0.00000000000E+00  0.24671476578E+04  0.24671476578E+04  0.50400000000E-02 0.  1.
          1   -1    0    0  501    0  0.00000000000E+00 -0.00000000000E+00 -0.10567134212E+04  0.10567134212E+04  0.50400000000E-02 0. -1.
    8880023    1    1    2    0    0  0.38803896344E+03 -0.22131482508E+03 -0.87928623342E+03  0.11859633112E+04  0.65864270000E+03 0. -1.
    8880022    1    1    2    0    0 -0.38803896344E+03  0.22131482508E+03  0.22897204700E+04  0.23378977678E+04  0.15294330000E+03 0.  0.
<mgrwt>
<rscale>  0 0.69846587E+03</rscale>
<asrwt>0</asrwt>
<pdfrwt beam="1">  1        1 0.16257130E+00 0.79584213E+03</pdfrwt>
<pdfrwt beam="2">  1       -1 0.37956117E+00 0.79584213E+03</pdfrwt>
<totfact> 0.14394362E-01</totfact>
</mgrwt>
</event>
<event>
 4    1  0.8114601E-008  0.7074062E+03  0.7818608E-02  0.9967762E-01
          1   -1    0    0  501    0  0.00000000000E+00  0.00000000000E+00  0.64314955155E+03  0.64314955157E+03  0.50400000000E-02 0. -1.
         -1   -1    0    0    0  501 -0.00000000000E+00 -0.00000000000E+00 -0.87707509476E+03  0.87707509477E+03  0.50400000000E-02 0.  1.
    8880023    1    1    2    0    0 -0.86612035233E+02 -0.24312891897E+03  0.40445270634E+03  0.81486533478E+03  0.65864270000E+03 0. -1.
    8880022    1    1    2    0    0  0.86612035233E+02  0.24312891897E+03 -0.63837824956E+03  0.70535931156E+03  0.15294330000E+03 0.  0.
<mgrwt>
<rscale>  0 0.57086702E+03</rscale>
<asrwt>0</asrwt>
<pdfrwt beam="1">  1        1 0.98946085E-01 0.70740619E+03</pdfrwt>
<pdfrwt beam="2">  1       -1 0.13493463E+00 0.70740619E+03</pdfrwt>
<totfact> 0.14749116E+01</totfact>
</mgrwt>
</event>
<event>
 4    1  0.8114601E-008  0.1405703E+04  0.7818608E-02  0.8979264E-01
          1   -1    0    0  501    0  0.00000000000E+00  0.00000000000E+00  0.18532364968E+04  0.18532364968E+04  0.50400000000E-02 0. -1.
         -1   -1    0    0    0  501 -0.00000000000E+00 -0.00000000000E+00 -0.14643037500E+04  0.14643037501E+04  0.50400000000E-02 0.  1.
    8880023    1    1    2    0    0 -0.11846021529E+04 -0.37270527355E+03  0.11816059875E+04  0.18363535601E+04  0.65864270000E+03 0.  0.
    8880022    1    1    2    0    0  0.11846021529E+04  0.37270527355E+03 -0.79267324070E+03  0.14811866868E+04  0.15294330000E+03 0.  0.
<mgrwt>
<rscale>  0 0.13653838E+04</rscale>
<asrwt>0</asrwt>
<pdfrwt beam="1">  1        1 0.28511331E+00 0.14057033E+04</pdfrwt>
<pdfrwt beam="2">  1       -1 0.22527750E+00 0.14057033E+04</pdfrwt>
<totfact> 0.36324847E-01</totfact>
</mgrwt>
</event>
<event>
 4    1  0.8114601E-008  0.7136132E+03  0.7818608E-02  0.9944821E-01
         -1   -1    0    0    0  501 -0.00000000000E+00  0.00000000000E+00  0.39540172258E+03  0.39540172261E+03  0.50400000000E-02 0.  1.
          1   -1    0    0  501    0  0.00000000000E+00 -0.00000000000E+00 -0.10302353253E+04  0.10302353254E+04  0.50400000000E-02 0. -1.
    8880023    1    1    2    0    0  0.27310793222E+03 -0.29079330251E+02 -0.79875700895E+03  0.10711006095E+04  0.65864270000E+03 0. -1.
    8880022    1    1    2    0    0 -0.27310793222E+03  0.29079330251E+02  0.16392340618E+03  0.35453643846E+03  0.15294330000E+03 0.  0.
<mgrwt>
<rscale>  0 0.58137400E+03</rscale>
<asrwt>0</asrwt>
<pdfrwt beam="1">  1        1 0.15849774E+00 0.71361317E+03</pdfrwt>
<pdfrwt beam="2">  1       -1 0.60831035E-01 0.71361317E+03</pdfrwt>
<totfact> 0.40444682E+01</totfact>
</mgrwt>
</event>
<event>
 4    1  0.8114601E-008  0.7571580E+03  0.7818608E-02  0.9812521E-01
         -1   -1    0    0    0  501 -0.00000000000E+00  0.00000000000E+00  0.27043705454E+03  0.27043705459E+03  0.50400000000E-02 0.  1.
          1   -1    0    0  501    0  0.00000000000E+00 -0.00000000000E+00 -0.26523574954E+04  0.26523574954E+04  0.50400000000E-02 0. -1.
    8880023    1    1    2    0    0 -0.16832144461E+03  0.33338554350E+03 -0.24022134579E+04  0.25187135075E+04  0.65864270000E+03 0. -1.
    8880022    1    1    2    0    0  0.16832144461E+03 -0.33338554350E+03  0.20293017057E+02  0.40408104247E+03  0.15294330000E+03 0.  0.
<mgrwt>
<rscale>  0 0.64694881E+03</rscale>
<asrwt>0</asrwt>
<pdfrwt beam="1">  1        1 0.40805498E+00 0.75715800E+03</pdfrwt>
<pdfrwt beam="2">  1       -1 0.41605703E-01 0.75715800E+03</pdfrwt>
<totfact> 0.63571076E+00</totfact>
</mgrwt>
</event>
<event>
 4    1  0.8114601E-008  0.1176405E+04  0.7818608E-02  0.9180407E-01
         -1   -1    0    0    0  501 -0.00000000000E+00  0.00000000000E+00  0.57759139375E+03  0.57759139377E+03  0.50400000000E-02 0.  1.
          1   -1    0    0  501    0  0.00000000000E+00 -0.00000000000E+00 -0.23977356941E+04  0.23977356941E+04  0.50400000000E-02 0. -1.
    8880023    1    1    2    0    0  0.69064009122E+03  0.68784762664E+03 -0.15620067538E+04  0.19554522235E+04  0.65864270000E+03 0. -1.
    8880022    1    1    2    0    0 -0.69064009122E+03 -0.68784762664E+03 -0.25813754652E+03  0.10198748644E+04  0.15294330000E+03 0.  0.
<mgrwt>
<rscale>  0 0.11257971E+04</rscale>
<asrwt>0</asrwt>
<pdfrwt beam="1">  1        1 0.36888241E+00 0.11764048E+04</pdfrwt>
<pdfrwt beam="2">  1       -1 0.88860216E-01 0.11764048E+04</pdfrwt>
<totfact> 0.19671994E+00</totfact>
</mgrwt>
</event>
<event>
 4    1  0.8114601E-008  0.9958974E+03  0.7818608E-02  0.9386945E-01
          1   -1    0    0  501    0  0.00000000000E+00  0.00000000000E+00  0.31940133846E+04  0.31940133846E+04  0.50400000000E-02 0. -1.
         -1   -1    0    0    0  501 -0.00000000000E+00 -0.00000000000E+00 -0.55053180216E+03  0.55053180219E+03  0.50400000000E-02 0.  1.
    8880023    1    1    2    0    0  0.20189349375E+03  0.71919434292E+03  0.27950167590E+04  0.29671417855E+04  0.65864270000E+03 0.  0.
    8880022    1    1    2    0    0 -0.20189349375E+03 -0.71919434292E+03 -0.15153517653E+03  0.77740340136E+03  0.15294330000E+03 0.  0.
<mgrwt>
<rscale>  0 0.93157901E+03</rscale>
<asrwt>0</asrwt>
<pdfrwt beam="1">  1        1 0.49138667E+00 0.99589743E+03</pdfrwt>
<pdfrwt beam="2">  1       -1 0.84697201E-01 0.99589743E+03</pdfrwt>
<totfact> 0.61222560E-01</totfact>
</mgrwt>
</event>
<event>
 4    1  0.8114601E-008  0.1922361E+04  0.7818608E-02  0.8657709E-01
          1   -1    0    0  501    0  0.00000000000E+00  0.00000000000E+00  0.19052162058E+04  0.19052162058E+04  0.50400000000E-02 0. -1.
         -1   -1    0    0    0  501 -0.00000000000E+00 -0.00000000000E+00 -0.33598907626E+04  0.33598907626E+04  0.50400000000E-02 0.  1.
    8880023    1    1    2    0    0 -0.35288226777E+03 -0.17711956642E+04  0.10367900337E+04  0.21841253984E+04  0.65864270000E+03 0.  0.
    8880022    1    1    2    0    0  0.35288226777E+03  0.17711956642E+04 -0.24914645905E+04  0.30809815700E+04  0.15294330000E+03 0.  0.
<mgrwt>
<rscale>  0 0.18942789E+04</rscale>
<asrwt>0</asrwt>
<pdfrwt beam="1">  1        1 0.29311019E+00 0.19223606E+04</pdfrwt>
<pdfrwt beam="2">  1       -1 0.51690627E+00 0.19223606E+04</pdfrwt>
<totfact> 0.35578761E-03</totfact>
</mgrwt>
</event>
<event>
 4    1  0.8114601E-008  0.1653609E+04  0.7818608E-02  0.8808153E-01
         -1   -1    0    0    0  501 -0.00000000000E+00  0.00000000000E+00  0.24165021107E+04  0.24165021107E+04  0.50400000000E-02 0.  1.
          1   -1    0    0  501    0  0.00000000000E+00 -0.00000000000E+00 -0.17388980271E+04  0.17388980271E+04  0.50400000000E-02 0. -1.
    8880023    1    1    2    0    0  0.15162854702E+04  0.38599374219E+02 -0.96483553014E+03  0.19145049870E+04  0.65864270000E+03 0. -1.
    8880022    1    1    2    0    0 -0.15162854702E+04 -0.38599374219E+02  0.16424396138E+04  0.22408951508E+04  0.15294330000E+03 0.  0.
<mgrwt>
<rscale>  0 0.16203325E+04</rscale>
<asrwt>0</asrwt>
<pdfrwt beam="1">  1        1 0.26752277E+00 0.16536087E+04</pdfrwt>
<pdfrwt beam="2">  1       -1 0.37176955E+00 0.16536087E+04</pdfrwt>
<totfact> 0.46198484E-02</totfact>
</mgrwt>
</event>
<event>
 4    1  0.8114601E-008  0.8635266E+03  0.7818608E-02  0.9587321E-01
         -1   -1    0    0    0  501 -0.00000000000E+00  0.00000000000E+00  0.24090267673E+03  0.24090267678E+03  0.50400000000E-02 0.  1.
          1   -1    0    0  501    0  0.00000000000E+00 -0.00000000000E+00 -0.21641337987E+04  0.21641337987E+04  0.50400000000E-02 0. -1.
    8880023    1    1    2    0    0  0.23783233209E+03  0.50527601353E+03 -0.10963913238E+04  0.13956189341E+04  0.65864270000E+03 0.  1.
    8880022    1    1    2    0    0 -0.23783233209E+03 -0.50527601353E+03 -0.82683979820E+03  0.10094175414E+04  0.15294330000E+03 0. -1.
<mgrwt>
<rscale>  0 0.78141093E+03</rscale>
<asrwt>0</asrwt>
<pdfrwt beam="1">  1        1 0.33294365E+00 0.86352665E+03</pdfrwt>
<pdfrwt beam="2">  1       -1 0.37061952E-01 0.86352665E+03</pdfrwt>
<totfact> 0.16587857E+01</totfact>
</mgrwt>
</event>
<event>
 4    1  0.8114601E-008  0.1133091E+04  0.7818608E-02  0.9225078E-01
          1   -1    0    0  501    0  0.00000000000E+00  0.00000000000E+00  0.45510688498E+03  0.45510688501E+03  0.50400000000E-02 0. -1.
         -1   -1    0    0    0  501 -0.00000000000E+00 -0.00000000000E+00 -0.26192102876E+04  0.26192102876E+04  0.50400000000E-02 0.  1.
    8880023    1    1    2    0    0  0.11862178215E+03  0.91433813309E+03 -0.68309185832E+03  0.13230684192E+04  0.65864270000E+03 0.  1.
    8880022    1    1    2    0    0 -0.11862178215E+03 -0.91433813309E+03 -0.14810115443E+04  0.17512487534E+04  0.15294330000E+03 0.  0.
<mgrwt>
<rscale>  0 0.10798292E+04</rscale>
<asrwt>0</asrwt>
<pdfrwt beam="1">  1        1 0.70016445E-01 0.11330912E+04</pdfrwt>
<pdfrwt beam="2">  1       -1 0.40295542E+00 0.11330912E+04</pdfrwt>
<totfact> 0.34673742E-01</totfact>
</mgrwt>
</event>
<event>
 4    1  0.8114601E-008  0.1022439E+04  0.7818608E-02  0.9352772E-01
         -1   -1    0    0    0  501 -0.00000000000E+00  0.00000000000E+00  0.16928949730E+04  0.16928949730E+04  0.50400000000E-02 0.  1.
          1   -1    0    0  501    0  0.00000000000E+00 -0.00000000000E+00 -0.10488824214E+04  0.10488824214E+04  0.50400000000E-02 0. -1.
    8880023    1    1    2    0    0  0.78092426654E+03  0.41582639351E+02 -0.65757354256E+03  0.12156418042E+04  0.65864270000E+03 0.  0.
    8880022    1    1    2    0    0 -0.78092426654E+03 -0.41582639351E+02  0.13015860942E+04  0.15261355902E+04  0.15294330000E+03 0.  0.
<mgrwt>
<rscale>  0 0.96066447E+03</rscale>
<asrwt>0</asrwt>
<pdfrwt beam="1">  1        1 0.16136653E+00 0.10224393E+04</pdfrwt>
<pdfrwt beam="2">  1       -1 0.26044538E+00 0.10224393E+04</pdfrwt>
<totfact> 0.83154994E-01</totfact>
</mgrwt>
</event>
<event>
 4    1  0.8114601E-008  0.7026284E+03  0.7818608E-02  0.9986468E-01
         -1   -1    0    0    0  501 -0.00000000000E+00  0.00000000000E+00  0.55383224949E+03  0.55383224951E+03  0.50400000000E-02 0.  1.
          1   -1    0    0  501    0  0.00000000000E+00 -0.00000000000E+00 -0.11008841626E+04  0.11008841626E+04  0.50400000000E-02 0. -1.
    8880023    1    1    2    0    0 -0.23191811003E+03  0.78041033194E+02 -0.93602309895E+03  0.11703956001E+04  0.65864270000E+03 0.  0.
    8880022    1    1    2    0    0  0.23191811003E+03 -0.78041033194E+02  0.38897118580E+03  0.48432081209E+03  0.15294330000E+03 0.  1.
<mgrwt>
<rscale>  0 0.56247609E+03</rscale>
<asrwt>0</asrwt>
<pdfrwt beam="1">  1        1 0.16936679E+00 0.70262836E+03</pdfrwt>
<pdfrwt beam="2">  1       -1 0.85204961E-01 0.70262836E+03</pdfrwt>
<totfact> 0.17880692E+01</totfact>
</mgrwt>
</event>
<event>
 4    1  0.8114601E-008  0.7401789E+03  0.7818608E-02  0.9859426E-01
         -1   -1    0    0    0  501 -0.00000000000E+00  0.00000000000E+00  0.38985804282E+03  0.38985804285E+03  0.50400000000E-02 0.  1.
          1   -1    0    0  501    0  0.00000000000E+00 -0.00000000000E+00 -0.12893988570E+04  0.12893988570E+04  0.50400000000E-02 0. -1.
    8880023    1    1    2    0    0  0.10061294116E+03 -0.32238426975E+03 -0.10453580744E+04  0.12808740341E+04  0.65864270000E+03 0. -1.
    8880022    1    1    2    0    0 -0.10061294116E+03  0.32238426975E+03  0.14581726024E+03  0.39838286573E+03  0.15294330000E+03 0.  1.
<mgrwt>
<rscale>  0 0.62268604E+03</rscale>
<asrwt>0</asrwt>
<pdfrwt beam="1">  1        1 0.19836905E+00 0.74017889E+03</pdfrwt>
<pdfrwt beam="2">  1       -1 0.59978161E-01 0.74017889E+03</pdfrwt>
<totfact> 0.26766788E+01</totfact>
</mgrwt>
</event>
<event>
 4    1  0.8114601E-008  0.1071998E+04  0.7818608E-02  0.9292892E-01
         -1   -1    0    0    0  501 -0.00000000000E+00  0.00000000000E+00  0.76863810139E+03  0.76863810141E+03  0.50400000000E-02 0.  1.
          1   -1    0    0  501    0  0.00000000000E+00 -0.00000000000E+00 -0.26826370077E+04  0.26826370077E+04  0.50400000000E-02 0. -1.
    8880023    1    1    2    0    0  0.48405043823E+03  0.69358875820E+03 -0.22781791939E+04  0.25177928505E+04  0.65864270000E+03 0.  0.
    8880022    1    1    2    0    0 -0.48405043823E+03 -0.69358875820E+03  0.36418028760E+03  0.93348225861E+03  0.15294330000E+03 0.  0.
<mgrwt>
<rscale>  0 0.10143986E+04</rscale>
<asrwt>0</asrwt>
<pdfrwt beam="1">  1        1 0.41271338E+00 0.10719983E+04</pdfrwt>
<pdfrwt beam="2">  1       -1 0.11825202E+00 0.10719983E+04</pdfrwt>
<totfact> 0.65401722E-01</totfact>
</mgrwt>
</event>
<event>
 4    1  0.8114601E-008  0.1316719E+04  0.7818608E-02  0.9051255E-01
         -1   -1    0    0    0  501 -0.00000000000E+00  0.00000000000E+00  0.77816129889E+03  0.77816129891E+03  0.50400000000E-02 0.  1.
          1   -1    0    0  501    0  0.00000000000E+00 -0.00000000000E+00 -0.28281368826E+04  0.28281368826E+04  0.50400000000E-02 0. -1.
    8880023    1    1    2    0    0  0.97414194518E+03  0.59244074414E+03 -0.20728629814E+04  0.24557096145E+04  0.65864270000E+03 0.  0.
    8880022    1    1    2    0    0 -0.97414194518E+03 -0.59244074414E+03  0.22887397663E+02  0.11505885671E+04  0.15294330000E+03 0.  0.
<mgrwt>
<rscale>  0 0.12729998E+04</rscale>
<asrwt>0</asrwt>
<pdfrwt beam="1">  1        1 0.43509798E+00 0.13167189E+04</pdfrwt>
<pdfrwt beam="2">  1       -1 0.11971712E+00 0.13167189E+04</pdfrwt>
<totfact> 0.48383687E-01</totfact>
</mgrwt>
</event>
<event>
 4    1  0.8114601E-008  0.1025716E+04  0.7818608E-02  0.9348661E-01
         -1   -1    0    0    0  501 -0.00000000000E+00  0.00000000000E+00  0.13564012954E+04  0.13564012954E+04  0.50400000000E-02 0.  1.
          1   -1    0    0  501    0  0.00000000000E+00 -0.00000000000E+00 -0.15779278338E+04  0.15779278338E+04  0.50400000000E-02 0. -1.
    8880023    1    1    2    0    0  0.67414376193E+03  0.40473832714E+03 -0.12587807321E+04  0.16237678599E+04  0.65864270000E+03 0. -1.
    8880022    1    1    2    0    0 -0.67414376193E+03 -0.40473832714E+03  0.10372541937E+04  0.13105612693E+04  0.15294330000E+03 0.  0.
<mgrwt>
<rscale>  0 0.96423896E+03</rscale>
<asrwt>0</asrwt>
<pdfrwt beam="1">  1        1 0.24275813E+00 0.10257159E+04</pdfrwt>
<pdfrwt beam="2">  1       -1 0.20867712E+00 0.10257159E+04</pdfrwt>
<totfact> 0.76177436E-01</totfact>
</mgrwt>
</event>
<event>
 4    1  0.8114601E-008  0.8812889E+03  0.7818608E-02  0.9556762E-01
          1   -1    0    0  501    0  0.00000000000E+00  0.00000000000E+00  0.35380988147E+04  0.35380988147E+04  0.50400000000E-02 0. -1.
         -1   -1    0    0    0  501 -0.00000000000E+00 -0.00000000000E+00 -0.22253842649E+03  0.22253842654E+03  0.50400000000E-02 0.  1.
    8880023    1    1    2    0    0 -0.14124890000E+03 -0.56825052263E+03  0.28884722498E+04  0.30199241799E+04  0.65864270000E+03 0.  0.
    8880022    1    1    2    0    0  0.14124890000E+03  0.56825052263E+03  0.42708813835E+03  0.74071306128E+03  0.15294330000E+03 0.  0.
<mgrwt>
<rscale>  0 0.80225265E+03</rscale>
<asrwt>0</asrwt>
<pdfrwt beam="1">  1        1 0.54432289E+00 0.88128889E+03</pdfrwt>
<pdfrwt beam="2">  1       -1 0.34236681E-01 0.88128889E+03</pdfrwt>
<totfact> 0.19938429E+00</totfact>
</mgrwt>
</event>
<event>
 4    1  0.8114601E-008  0.7290180E+03  0.7818608E-02  0.9893175E-01
         -1   -1    0    0    0  501 -0.00000000000E+00  0.00000000000E+00  0.19598774886E+04  0.19598774886E+04  0.50400000000E-02 0.  1.
          1   -1    0    0  501    0  0.00000000000E+00 -0.00000000000E+00 -0.55849946478E+03  0.55849946480E+03  0.50400000000E-02 0. -1.
    8880023    1    1    2    0    0  0.30664507537E+03 -0.60215019401E+02 -0.29518089294E+03  0.78651065895E+03  0.65864270000E+03 0. -1.
    8880022    1    1    2    0    0 -0.30664507537E+03  0.60215019401E+02  0.16965589168E+04  0.17318662945E+04  0.15294330000E+03 0.  0.
<mgrwt>
<rscale>  0 0.60593175E+03</rscale>
<asrwt>0</asrwt>
<pdfrwt beam="1">  1        1 0.85922995E-01 0.72901801E+03</pdfrwt>
<pdfrwt beam="2">  1       -1 0.30151961E+00 0.72901801E+03</pdfrwt>
<totfact> 0.12974231E+00</totfact>
</mgrwt>
</event>
<event>
 4    1  0.8114601E-008  0.1665886E+04  0.7818608E-02  0.8800592E-01
          1   -1    0    0  501    0  0.00000000000E+00  0.00000000000E+00  0.13303217948E+04  0.13303217948E+04  0.50400000000E-02 0. -1.
         -1   -1    0    0    0  501 -0.00000000000E+00 -0.00000000000E+00 -0.24649031398E+04  0.24649031398E+04  0.50400000000E-02 0.  1.
    8880023    1    1    2    0    0  0.12289262749E+04  0.91165108419E+03 -0.14695008625E+04  0.22213983163E+04  0.65864270000E+03 0.  0.
    8880022    1    1    2    0    0 -0.12289262749E+04 -0.91165108419E+03  0.33491951750E+03  0.15738266183E+04  0.15294330000E+03 0.  0.
<mgrwt>
<rscale>  0 0.16328918E+04</rscale>
<asrwt>0</asrwt>
<pdfrwt beam="1">  1        1 0.20466489E+00 0.16658865E+04</pdfrwt>
<pdfrwt beam="2">  1       -1 0.37921587E+00 0.16658865E+04</pdfrwt>
<totfact> 0.79258858E-02</totfact>
</mgrwt>
</event>
<event>
 4    1  0.8114601E-008  0.1181811E+04  0.7818608E-02  0.9175009E-01
         -1   -1    0    0    0  501 -0.00000000000E+00  0.00000000000E+00  0.10946659545E+04  0.10946659545E+04  0.50400000000E-02 0.  1.
          1   -1    0    0  501    0  0.00000000000E+00 -0.00000000000E+00 -0.21170009816E+04  0.21170009816E+04  0.50400000000E-02 0. -1.
    8880023    1    1    2    0    0  0.87613522848E+03  0.44187669339E+03 -0.16553821108E+04  0.20339538072E+04  0.65864270000E+03 0. -1.
    8880022    1    1    2    0    0 -0.87613522848E+03 -0.44187669339E+03  0.63304708367E+03  0.11777131289E+04  0.15294330000E+03 0.  0.
<mgrwt>
<rscale>  0 0.11315143E+04</rscale>
<asrwt>0</asrwt>
<pdfrwt beam="1">  1        1 0.32569246E+00 0.11818114E+04</pdfrwt>
<pdfrwt beam="2">  1       -1 0.16841015E+00 0.11818114E+04</pdfrwt>
<totfact> 0.61816612E-01</totfact>
</mgrwt>
</event>
<event>
 4    1  0.8114601E-008  0.7319302E+03  0.7818608E-02  0.9884110E-01
          1   -1    0    0  501    0  0.00000000000E+00  0.00000000000E+00  0.15017978936E+04  0.15017978936E+04  0.50400000000E-02 0. -1.
         -1   -1    0    0    0  501 -0.00000000000E+00 -0.00000000000E+00 -0.38051455909E+03  0.38051455912E+03  0.50400000000E-02 0.  1.
    8880023    1    1    2    0    0  0.20983686855E+03 -0.24058276616E+03  0.12953595780E+04  0.14878434802E+04  0.65864270000E+03 0.  0.
    8880022    1    1    2    0    0 -0.20983686855E+03  0.24058276616E+03 -0.17407624350E+03  0.39446897260E+03  0.15294330000E+03 0.  0.
<mgrwt>
<rscale>  0 0.61037611E+03</rscale>
<asrwt>0</asrwt>
<pdfrwt beam="1">  1        1 0.23104583E+00 0.73193018E+03</pdfrwt>
<pdfrwt beam="2">  1       -1 0.58540701E-01 0.73193018E+03</pdfrwt>
<totfact> 0.20004046E+01</totfact>
</mgrwt>
</event>
<event>
 4    1  0.8114601E-008  0.7894730E+03  0.7818608E-02  0.9734037E-01
         -1   -1    0    0    0  501 -0.00000000000E+00  0.00000000000E+00  0.70601610268E+03  0.70601610270E+03  0.50400000000E-02 0.  1.
          1   -1    0    0  501    0  0.00000000000E+00 -0.00000000000E+00 -0.15549514051E+04  0.15549514051E+04  0.50400000000E-02 0. -1.
    8880023    1    1    2    0    0 -0.40821525311E+03  0.15105548234E+03 -0.13599559422E+04  0.15724973204E+04  0.65864270000E+03 0. -1.
    8880022    1    1    2    0    0  0.40821525311E+03 -0.15105548234E+03  0.51102063981E+03  0.68847018740E+03  0.15294330000E+03 0.  0.
<mgrwt>
<rscale>  0 0.69025880E+03</rscale>
<asrwt>0</asrwt>
<pdfrwt beam="1">  1        1 0.23922329E+00 0.78947303E+03</pdfrwt>
<pdfrwt beam="2">  1       -1 0.10861786E+00 0.78947303E+03</pdfrwt>
<totfact> 0.48830250E+00</totfact>
</mgrwt>
</event>
<event>
 4    1  0.8114601E-008  0.1153808E+04  0.7818608E-02  0.9203387E-01
          1   -1    0    0  501    0  0.00000000000E+00  0.00000000000E+00  0.11367853848E+04  0.11367853848E+04  0.50400000000E-02 0. -1.
         -1   -1    0    0    0  501 -0.00000000000E+00 -0.00000000000E+00 -0.11007492611E+04  0.11007492611E+04  0.50400000000E-02 0.  1.
    8880023    1    1    2    0    0  0.93649640684E+03  0.14295713842E+03 -0.34615525611E+03  0.12046144325E+04  0.65864270000E+03 0.  1.
    8880022    1    1    2    0    0 -0.93649640684E+03 -0.14295713842E+03  0.38219137980E+03  0.10329202134E+04  0.15294330000E+03 0.  0.
<mgrwt>
<rscale>  0 0.11018537E+04</rscale>
<asrwt>0</asrwt>
<pdfrwt beam="1">  1        1 0.17489006E+00 0.11538078E+04</pdfrwt>
<pdfrwt beam="2">  1       -1 0.16934604E+00 0.11538078E+04</pdfrwt>
<totfact> 0.29180325E+00</totfact>
</mgrwt>
</event>
<event>
 4    1  0.8114601E-008  0.1044009E+04  0.7818608E-02  0.9326118E-01
         -1   -1    0    0    0  501 -0.00000000000E+00  0.00000000000E+00  0.12843543257E+04  0.12843543257E+04  0.50400000000E-02 0.  1.
          1   -1    0    0  501    0  0.00000000000E+00 -0.00000000000E+00 -0.13249344905E+04  0.13249344905E+04  0.50400000000E-02 0. -1.
    8880023    1    1    2    0    0 -0.74573039630E+03  0.31627633962E+03 -0.92888642666E+03  0.13974207480E+04  0.65864270000E+03 0.  0.
    8880022    1    1    2    0    0  0.74573039630E+03 -0.31627633962E+03  0.88830626185E+03  0.12118680682E+04  0.15294330000E+03 0.  0.
<mgrwt>
<rscale>  0 0.98413517E+03</rscale>
<asrwt>0</asrwt>
<pdfrwt beam="1">  1        1 0.20383608E+00 0.10440090E+04</pdfrwt>
<pdfrwt beam="2">  1       -1 0.19759297E+00 0.10440090E+04</pdfrwt>
<totfact> 0.13571109E+00</totfact>
</mgrwt>
</event>
<event>
 4    1  0.8114601E-008  0.7654016E+03  0.7818608E-02  0.9791319E-01
         -1   -1    0    0    0  501 -0.00000000000E+00  0.00000000000E+00  0.46850551842E+03  0.46850551845E+03  0.50400000000E-02 0.  1.
          1   -1    0    0  501    0  0.00000000000E+00 -0.00000000000E+00 -0.16849036481E+04  0.16849036481E+04  0.50400000000E-02 0. -1.
    8880023    1    1    2    0    0 -0.10431226538E+03  0.37569713980E+03 -0.14745809083E+04  0.16613935268E+04  0.65864270000E+03 0. -1.
    8880022    1    1    2    0    0  0.10431226538E+03 -0.37569713980E+03  0.25818277862E+03  0.49201563975E+03  0.15294330000E+03 0.  0.
<mgrwt>
<rscale>  0 0.65830512E+03</rscale>
<asrwt>0</asrwt>
<pdfrwt beam="1">  1        1 0.25921594E+00 0.76540159E+03</pdfrwt>
<pdfrwt beam="2">  1       -1 0.72077773E-01 0.76540159E+03</pdfrwt>
<totfact> 0.98468249E+00</totfact>
</mgrwt>
</event>
<event>
 4    1  0.8114601E-008  0.1221065E+04  0.7818608E-02  0.9136913E-01
         -1   -1    0    0    0  501 -0.00000000000E+00  0.00000000000E+00  0.85641747933E+03  0.85641747934E+03  0.50400000000E-02 0.  1.
          1   -1    0    0  501    0  0.00000000000E+00 -0.00000000000E+00 -0.23944948487E+04  0.23944948487E+04  0.50400000000E-02 0. -1.
    8880023    1    1    2    0    0  0.15019545539E+03  0.10171682834E+04 -0.18035629587E+04  0.21780357076E+04  0.65864270000E+03 0. -1.
    8880022    1    1    2    0    0 -0.15019545539E+03 -0.10171682834E+04  0.26548558932E+03  0.10728766204E+04  0.15294330000E+03 0.  0.
<mgrwt>
<rscale>  0 0.11729009E+04</rscale>
<asrwt>0</asrwt>
<pdfrwt beam="1">  1        1 0.36838382E+00 0.12210652E+04</pdfrwt>
<pdfrwt beam="2">  1       -1 0.13175654E+00 0.12210652E+04</pdfrwt>
<totfact> 0.77303431E-01</totfact>
</mgrwt>
</event>
<event>
 4    1  0.8114601E-008  0.6928239E+03  0.7818608E-02  0.1002838E+00
          1   -1    0    0  501    0  0.00000000000E+00  0.00000000000E+00  0.59063234290E+03  0.59063234292E+03  0.50400000000E-02 0. -1.
         -1   -1    0    0    0  501 -0.00000000000E+00 -0.00000000000E+00 -0.42816474954E+03  0.42816474957E+03  0.50400000000E-02 0.  1.
    8880023    1    1    2    0    0  0.13304937873E+03 -0.16879745551E+03  0.25644932570E+03  0.73876327811E+03  0.65864270000E+03 0. -1.
    8880022    1    1    2    0    0 -0.13304937873E+03  0.16879745551E+03 -0.93981732344E+02  0.28003381438E+03  0.15294330000E+03 0.  0.
<mgrwt>
<rscale>  0 0.54423023E+03</rscale>
<asrwt>0</asrwt>
<pdfrwt beam="1">  1        1 0.90866515E-01 0.69282388E+03</pdfrwt>
<pdfrwt beam="2">  1       -1 0.65871500E-01 0.69282388E+03</pdfrwt>
<totfact> 0.83769663E+01</totfact>
</mgrwt>
</event>
<event>
 4    1  0.8114601E-008  0.7512588E+03  0.7818608E-02  0.9828287E-01
         -1   -1    0    0    0  501 -0.00000000000E+00  0.00000000000E+00  0.45137729719E+03  0.45137729722E+03  0.50400000000E-02 0.  1.
          1   -1    0    0  501    0  0.00000000000E+00 -0.00000000000E+00 -0.18064610763E+04  0.18064610763E+04  0.50400000000E-02 0. -1.
    8880023    1    1    2    0    0 -0.30849824459E+03  0.18817135398E+03 -0.16190950252E+04  0.17848973450E+04  0.65864270000E+03 0.  0.
    8880022    1    1    2    0    0  0.30849824459E+03 -0.18817135398E+03  0.26401124608E+03  0.47294102851E+03  0.15294330000E+03 0.  0.
<mgrwt>
<rscale>  0 0.63866359E+03</rscale>
<asrwt>0</asrwt>
<pdfrwt beam="1">  1        1 0.27791709E+00 0.75125883E+03</pdfrwt>
<pdfrwt beam="2">  1       -1 0.69442662E-01 0.75125883E+03</pdfrwt>
<totfact> 0.88261988E+00</totfact>
</mgrwt>
</event>
<event>
 4    1  0.8114601E-008  0.9863170E+03  0.7818608E-02  0.9399682E-01
          1   -1    0    0  501    0  0.00000000000E+00  0.00000000000E+00  0.13106064375E+04  0.13106064375E+04  0.50400000000E-02 0. -1.
         -1   -1    0    0    0  501 -0.00000000000E+00 -0.00000000000E+00 -0.60507358866E+03  0.60507358868E+03  0.50400000000E-02 0.  1.
    8880023    1    1    2    0    0  0.71598589670E+03 -0.16240426474E+03  0.60994297294E+03  0.11596773629E+04  0.65864270000E+03 0.  0.
    8880022    1    1    2    0    0 -0.71598589670E+03  0.16240426474E+03  0.95589875860E+02  0.75600266326E+03  0.15294330000E+03 0.  0.
<mgrwt>
<rscale>  0 0.92101837E+03</rscale>
<asrwt>0</asrwt>
<pdfrwt beam="1">  1        1 0.20163176E+00 0.98631697E+03</pdfrwt>
<pdfrwt beam="2">  1       -1 0.93088245E-01 0.98631697E+03</pdfrwt>
<totfact> 0.10018951E+01</totfact>
</mgrwt>
</event>
<event>
 4    1  0.8114601E-008  0.6951683E+03  0.7818608E-02  0.1001787E+00
         -1   -1    0    0    0  501 -0.00000000000E+00  0.00000000000E+00  0.15416384421E+03  0.15416384429E+03  0.50400000000E-02 0.  1.
          1   -1    0    0  501    0  0.00000000000E+00 -0.00000000000E+00 -0.18330698049E+04  0.18330698049E+04  0.50400000000E-02 0. -1.
    8880023    1    1    2    0    0 -0.18767202879E+03  0.11928093862E+03 -0.15263751720E+04  0.16772239280E+04  0.65864270000E+03 0. -1.
    8880022    1    1    2    0    0  0.18767202879E+03 -0.11928093862E+03 -0.15253078865E+03  0.31000972115E+03  0.15294330000E+03 0.  0.
<mgrwt>
<rscale>  0 0.54873668E+03</rscale>
<asrwt>0</asrwt>
<pdfrwt beam="1">  1        1 0.28201072E+00 0.69516828E+03</pdfrwt>
<pdfrwt beam="2">  1       -1 0.23717516E-01 0.69516828E+03</pdfrwt>
<totfact> 0.61446970E+01</totfact>
</mgrwt>
</event>
<event>
 4    1  0.8114601E-008  0.1273340E+04  0.7818608E-02  0.9088931E-01
         -1   -1    0    0    0  501 -0.00000000000E+00  0.00000000000E+00  0.75447781589E+03  0.75447781591E+03  0.50400000000E-02 0.  1.
          1   -1    0    0  501    0  0.00000000000E+00 -0.00000000000E+00 -0.23241252417E+04  0.23241252417E+04  0.50400000000E-02 0. -1.
    8880023    1    1    2    0    0 -0.98656055889E+03  0.46290803447E+03 -0.14963405748E+03  0.12821022355E+04  0.65864270000E+03 0.  0.
    8880022    1    1    2    0    0  0.98656055889E+03 -0.46290803447E+03 -0.14200133683E+04  0.17965008221E+04  0.15294330000E+03 0.  0.
<mgrwt>
<rscale>  0 0.12277230E+04</rscale>
<asrwt>0</asrwt>
<pdfrwt beam="1">  1        1 0.35755773E+00 0.12733404E+04</pdfrwt>
<pdfrwt beam="2">  1       -1 0.11607351E+00 0.12733404E+04</pdfrwt>
<totfact> 0.11763914E+00</totfact>
</mgrwt>
</event>
<event>
 4    1  0.8114601E-008  0.1481831E+04  0.7818608E-02  0.8922573E-01
          1   -1    0    0  501    0  0.00000000000E+00  0.00000000000E+00  0.24773854523E+04  0.24773854524E+04  0.50400000000E-02 0. -1.
         -1   -1    0    0    0  501 -0.00000000000E+00 -0.00000000000E+00 -0.12077551497E+04  0.12077551497E+04  0.50400000000E-02 0.  1.
    8880023    1    1    2    0    0  0.76517153433E+03  0.10846777294E+04  0.17244494427E+04  0.22736642981E+04  0.65864270000E+03 0.  0.
    8880022    1    1    2    0    0 -0.76517153433E+03 -0.10846777294E+04 -0.45481914009E+03  0.14114763040E+04  0.15294330000E+03 0.  0.
<mgrwt>
<rscale>  0 0.14439964E+04</rscale>
<asrwt>0</asrwt>
<pdfrwt beam="1">  1        1 0.38113622E+00 0.14818311E+04</pdfrwt>
<pdfrwt beam="2">  1       -1 0.18580849E+00 0.14818311E+04</pdfrwt>
<totfact> 0.25202064E-01</totfact>
</mgrwt>
</event>
<event>
 4    1  0.8114601E-008  0.7816456E+03  0.7818608E-02  0.9751986E-01
          1   -1    0    0  501    0  0.00000000000E+00  0.00000000000E+00  0.68297659933E+03  0.68297659935E+03  0.50400000000E-02 0. -1.
         -1   -1    0    0    0  501 -0.00000000000E+00 -0.00000000000E+00 -0.16297379935E+04  0.16297379935E+04  0.50400000000E-02 0.  1.
    8880023    1    1    2    0    0  0.11159607615E+03 -0.40583983859E+03  0.41092330387E+03  0.88307860733E+03  0.65864270000E+03 0.  0.
    8880022    1    1    2    0    0 -0.11159607615E+03  0.40583983859E+03 -0.13576846980E+04  0.14296359855E+04  0.15294330000E+03 0.  0.
<mgrwt>
<rscale>  0 0.68004180E+03</rscale>
<asrwt>0</asrwt>
<pdfrwt beam="1">  1        1 0.10507332E+00 0.78164561E+03</pdfrwt>
<pdfrwt beam="2">  1       -1 0.25072892E+00 0.78164561E+03</pdfrwt>
<totfact> 0.20291513E+00</totfact>
</mgrwt>
</event>
<event>
 4    1  0.8114601E-008  0.1152120E+04  0.7818608E-02  0.9205132E-01
         -1   -1    0    0    0  501 -0.00000000000E+00  0.00000000000E+00  0.76999213217E+03  0.76999213218E+03  0.50400000000E-02 0.  1.
          1   -1    0    0  501    0  0.00000000000E+00 -0.00000000000E+00 -0.21461994519E+04  0.21461994519E+04  0.50400000000E-02 0. -1.
    8880023    1    1    2    0    0 -0.40545941943E+03  0.85391578802E+03 -0.15618185696E+04  0.19407877175E+04  0.65864270000E+03 0. -1.
    8880022    1    1    2    0    0  0.40545941943E+03 -0.85391578802E+03  0.18561124988E+03  0.97540386657E+03  0.15294330000E+03 0.  0.
<mgrwt>
<rscale>  0 0.11000617E+04</rscale>
<asrwt>0</asrwt>
<pdfrwt beam="1">  1        1 0.33018453E+00 0.11521197E+04</pdfrwt>
<pdfrwt beam="2">  1       -1 0.11846033E+00 0.11521197E+04</pdfrwt>
<totfact> 0.15021209E+00</totfact>
</mgrwt>
</event>
<event>
 4    1  0.8114601E-008  0.1948290E+04  0.7818608E-02  0.8644659E-01
         -1   -1    0    0    0  501 -0.00000000000E+00  0.00000000000E+00  0.44431641260E+04  0.44431641260E+04  0.50400000000E-02 0.  1.
          1   -1    0    0  501    0  0.00000000000E+00 -0.00000000000E+00 -0.10419178801E+04  0.10419178801E+04  0.50400000000E-02 0. -1.
    8880023    1    1    2    0    0 -0.32238065083E+03  0.18050195843E+04  0.43776183094E+03  0.19968651959E+04  0.65864270000E+03 0.  0.
    8880022    1    1    2    0    0  0.32238065083E+03 -0.18050195843E+04  0.29634844149E+04  0.34882168101E+04  0.15294330000E+03 0.  0.
<mgrwt>
<rscale>  0 0.19206214E+04</rscale>
<asrwt>0</asrwt>
<pdfrwt beam="1">  1        1 0.16029506E+00 0.19482903E+04</pdfrwt>
<pdfrwt beam="2">  1       -1 0.68356372E+00 0.19482903E+04</pdfrwt>
<totfact> 0.28232764E-03</totfact>
</mgrwt>
</event>
<event>
 4    1  0.8114601E-008  0.7486975E+03  0.7818608E-02  0.9835300E-01
          1   -1    0    0  501    0  0.00000000000E+00  0.00000000000E+00  0.14754428292E+04  0.14754428292E+04  0.50400000000E-02 0. -1.
         -1   -1    0    0    0  501 -0.00000000000E+00 -0.00000000000E+00 -0.37677577722E+03  0.37677577725E+03  0.50400000000E-02 0.  1.
    8880023    1    1    2    0    0  0.29392033369E+03 -0.20086953165E+03  0.12326758321E+04  0.14422335611E+04  0.65864270000E+03 0. -1.
    8880022    1    1    2    0    0 -0.29392033369E+03  0.20086953165E+03 -0.13400878012E+03  0.40998504542E+03  0.15294330000E+03 0.  0.
<mgrwt>
<rscale>  0 0.63502087E+03</rscale>
<asrwt>0</asrwt>
<pdfrwt beam="1">  1        1 0.22699121E+00 0.74869749E+03</pdfrwt>
<pdfrwt beam="2">  1       -1 0.57965503E-01 0.74869749E+03</pdfrwt>
<totfact> 0.21213779E+01</totfact>
</mgrwt>
</event>
<event>
 4    1  0.8114601E-008  0.6985815E+03  0.7818608E-02  0.1000314E+00
          1   -1    0    0  501    0  0.00000000000E+00  0.00000000000E+00  0.38395370025E+04  0.38395370025E+04  0.50400000000E-02 0. -1.
         -1   -1    0    0    0  501 -0.00000000000E+00 -0.00000000000E+00 -0.15623456033E+03  0.15623456041E+03  0.50400000000E-02 0.  1.
    8880023    1    1    2    0    0 -0.22068761810E+03 -0.74181230112E+02  0.36488092825E+04  0.37150807886E+04  0.65864270000E+03 0. -1.
    8880022    1    1    2    0    0  0.22068761810E+03  0.74181230112E+02  0.34493159649E+02  0.28069077427E+03  0.15294330000E+03 0.  0.
<mgrwt>
<rscale>  0 0.55512884E+03</rscale>
<asrwt>0</asrwt>
<pdfrwt beam="1">  1        1 0.59069796E+00 0.69858148E+03</pdfrwt>
<pdfrwt beam="2">  1       -1 0.24036088E-01 0.69858148E+03</pdfrwt>
<totfact> 0.21879053E+00</totfact>
</mgrwt>
</event>
<event>
 4    1  0.8114601E-008  0.1161981E+04  0.7818608E-02  0.9194995E-01
         -1   -1    0    0    0  501 -0.00000000000E+00  0.00000000000E+00  0.19060412957E+04  0.19060412957E+04  0.50400000000E-02 0.  1.
          1   -1    0    0  501    0  0.00000000000E+00 -0.00000000000E+00 -0.15035742777E+04  0.15035742777E+04  0.50400000000E-02 0. -1.
    8880023    1    1    2    0    0 -0.92102677607E+03  0.26095988371E+03 -0.11140311239E+04  0.16097409526E+04  0.65864270000E+03 0.  0.
    8880022    1    1    2    0    0  0.92102677607E+03 -0.26095988371E+03  0.15164981419E+04  0.17998746208E+04  0.15294330000E+03 0.  0.
<mgrwt>
<rscale>  0 0.11105235E+04</rscale>
<asrwt>0</asrwt>
<pdfrwt beam="1">  1        1 0.23131912E+00 0.11619813E+04</pdfrwt>
<pdfrwt beam="2">  1       -1 0.29323712E+00 0.11619813E+04</pdfrwt>
<totfact> 0.23507562E-01</totfact>
</mgrwt>
</event>
<event>
 4    1  0.8114601E-008  0.1201776E+04  0.7818608E-02  0.9155398E-01
         -1   -1    0    0    0  501 -0.00000000000E+00  0.00000000000E+00  0.17627182918E+04  0.17627182918E+04  0.50400000000E-02 0.  1.
          1   -1    0    0  501    0  0.00000000000E+00 -0.00000000000E+00 -0.14181019007E+04  0.14181019007E+04  0.50400000000E-02 0. -1.
    8880023    1    1    2    0    0 -0.81016251643E+02 -0.10019439040E+04 -0.95194268393E+03  0.15331210975E+04  0.65864270000E+03 0. -1.
    8880022    1    1    2    0    0  0.81016251643E+02  0.10019439040E+04  0.12965590750E+04  0.16476990950E+04  0.15294330000E+03 0.  0.
<mgrwt>
<rscale>  0 0.11525895E+04</rscale>
<asrwt>0</asrwt>
<pdfrwt beam="1">  1        1 0.21816952E+00 0.12017759E+04</pdfrwt>
<pdfrwt beam="2">  1       -1 0.27118743E+00 0.12017759E+04</pdfrwt>
<totfact> 0.37186564E-01</totfact>
</mgrwt>
</event>
<event>
 4    1  0.8114601E-008  0.1096740E+04  0.7818608E-02  0.9264695E-01
          1   -1    0    0  501    0  0.00000000000E+00  0.00000000000E+00  0.11202516266E+04  0.11202516266E+04  0.50400000000E-02 0. -1.
         -1   -1    0    0    0  501 -0.00000000000E+00 -0.00000000000E+00 -0.11668779871E+04  0.11668779871E+04  0.50400000000E-02 0.  1.
    8880023    1    1    2    0    0  0.35967765536E+03 -0.79978710467E+03  0.53855392926E+03  0.12218338551E+04  0.65864270000E+03 0. -1.
    8880022    1    1    2    0    0 -0.35967765536E+03  0.79978710467E+03 -0.58518028978E+03  0.10652957585E+04  0.15294330000E+03 0.  0.
<mgrwt>
<rscale>  0 0.10409910E+04</rscale>
<asrwt>0</asrwt>
<pdfrwt beam="1">  1        1 0.17234640E+00 0.10967395E+04</pdfrwt>
<pdfrwt beam="2">  1       -1 0.17951969E+00 0.10967395E+04</pdfrwt>
<totfact> 0.25473902E+00</totfact>
</mgrwt>
</event>
<event>
 4    1  0.8114601E-008  0.1112364E+04  0.7818608E-02  0.9247414E-01
          1   -1    0    0  501    0  0.00000000000E+00  0.00000000000E+00  0.24145025402E+04  0.24145025402E+04  0.50400000000E-02 0. -1.
         -1   -1    0    0    0  501 -0.00000000000E+00 -0.00000000000E+00 -0.44142665112E+03  0.44142665115E+03  0.50400000000E-02 0.  1.
    8880023    1    1    2    0    0 -0.10398094159E+03 -0.89035477796E+03  0.13701864283E+04  0.17648696046E+04  0.65864270000E+03 0.  0.
    8880022    1    1    2    0    0  0.10398094159E+03  0.89035477796E+03  0.60288946084E+03  0.10910595868E+04  0.15294330000E+03 0.  0.
<mgrwt>
<rscale>  0 0.10577162E+04</rscale>
<asrwt>0</asrwt>
<pdfrwt beam="1">  1        1 0.37146193E+00 0.11123641E+04</pdfrwt>
<pdfrwt beam="2">  1       -1 0.67911793E-01 0.11123641E+04</pdfrwt>
<totfact> 0.34174037E+00</totfact>
</mgrwt>
</event>
<event>
 4    1  0.8114601E-008  0.1353053E+04  0.7818608E-02  0.9021048E-01
          1   -1    0    0  501    0  0.00000000000E+00  0.00000000000E+00  0.25035799606E+04  0.25035799606E+04  0.50400000000E-02 0. -1.
         -1   -1    0    0    0  501 -0.00000000000E+00 -0.00000000000E+00 -0.68930149066E+03  0.68930149068E+03  0.50400000000E-02 0.  1.
    8880023    1    1    2    0    0  0.77857040069E+03  0.88925278305E+03  0.13572521169E+04  0.19164774708E+04  0.65864270000E+03 0.  0.
    8880022    1    1    2    0    0 -0.77857040069E+03 -0.88925278305E+03  0.45702635304E+03  0.12764039805E+04  0.15294330000E+03 0.  0.
<mgrwt>
<rscale>  0 0.13107955E+04</rscale>
<asrwt>0</asrwt>
<pdfrwt beam="1">  1        1 0.38516614E+00 0.13530531E+04</pdfrwt>
<pdfrwt beam="2">  1       -1 0.10604638E+00 0.13530531E+04</pdfrwt>
<totfact> 0.10884585E+00</totfact>
</mgrwt>
</event>
<event>
 4    1  0.8114601E-008  0.1089977E+04  0.7818608E-02  0.9272298E-01
         -1   -1    0    0    0  501 -0.00000000000E+00  0.00000000000E+00  0.57112412551E+03  0.57112412554E+03  0.50400000000E-02 0.  1.
          1   -1    0    0  501    0  0.00000000000E+00 -0.00000000000E+00 -0.19482160257E+04  0.19482160257E+04  0.50400000000E-02 0. -1.
    8880023    1    1    2    0    0  0.82083135569E+03 -0.28368399622E+03 -0.11977350334E+04  0.16194505676E+04  0.65864270000E+03 0.  0.
    8880022    1    1    2    0    0 -0.82083135569E+03  0.28368399622E+03 -0.17935686679E+03  0.89988958371E+03  0.15294330000E+03 0.  0.
<mgrwt>
<rscale>  0 0.10337367E+04</rscale>
<asrwt>0</asrwt>
<pdfrwt beam="1">  1        1 0.29972554E+00 0.10899775E+04</pdfrwt>
<pdfrwt beam="2">  1       -1 0.87865251E-01 0.10899775E+04</pdfrwt>
<totfact> 0.41122087E+00</totfact>
</mgrwt>
</event>
<event>
 4    1  0.8114601E-008  0.7275832E+03  0.7818608E-02  0.9897715E-01
          1   -1    0    0  501    0  0.00000000000E+00  0.00000000000E+00  0.12648006474E+04  0.12648006474E+04  0.50400000000E-02 0. -1.
         -1   -1    0    0    0  501 -0.00000000000E+00 -0.00000000000E+00 -0.46113641308E+03  0.46113641310E+03  0.50400000000E-02 0.  1.
    8880023    1    1    2    0    0  0.32971646102E+02 -0.30737606461E+03  0.10673748685E+04  0.12917687451E+04  0.65864270000E+03 0. -1.
    8880022    1    1    2    0    0 -0.32971646102E+02  0.30737606461E+03 -0.26371063419E+03  0.43416831545E+03  0.15294330000E+03 0.  0.
<mgrwt>
<rscale>  0 0.60372144E+03</rscale>
<asrwt>0</asrwt>
<pdfrwt beam="1">  1        1 0.19458471E+00 0.72758325E+03</pdfrwt>
<pdfrwt beam="2">  1       -1 0.70944064E-01 0.72758325E+03</pdfrwt>
<totfact> 0.19914009E+01</totfact>
</mgrwt>
</event>
<event>
 4    1  0.8114601E-008  0.6685493E+03  0.7818608E-02  0.1016725E+00
          1   -1    0    0  501    0  0.00000000000E+00  0.00000000000E+00  0.95771602080E+03  0.95771602081E+03  0.50400000000E-02 0. -1.
         -1   -1    0    0    0  501 -0.00000000000E+00 -0.00000000000E+00 -0.29675743800E+03  0.29675743805E+03  0.50400000000E-02 0.  1.
    8880023    1    1    2    0    0 -0.45728459809E+02  0.10515133861E+03  0.78153217639E+03  0.10284700506E+04  0.65864270000E+03 0. -1.
    8880022    1    1    2    0    0  0.45728459809E+02 -0.10515133861E+03 -0.12057359359E+03  0.22600340823E+03  0.15294330000E+03 0.  0.
<mgrwt>
<rscale>  0 0.48887233E+03</rscale>
<asrwt>0</asrwt>
<pdfrwt beam="1">  1        1 0.14734093E+00 0.66854925E+03</pdfrwt>
<pdfrwt beam="2">  1       -1 0.45654991E-01 0.66854925E+03</pdfrwt>
<totfact> 0.80092539E+01</totfact>
</mgrwt>
</event>
<event>
 4    1  0.8114601E-008  0.8711309E+03  0.7818608E-02  0.9574062E-01
         -1   -1    0    0    0  501 -0.00000000000E+00  0.00000000000E+00  0.30127880126E+04  0.30127880126E+04  0.50400000000E-02 0.  1.
          1   -1    0    0  501    0  0.00000000000E+00 -0.00000000000E+00 -0.30568008474E+03  0.30568008478E+03  0.50400000000E-02 0. -1.
    8880023    1    1    2    0    0 -0.37026486466E+03 -0.43354666900E+03  0.44033669594E+03  0.97609702195E+03  0.65864270000E+03 0.  0.
    8880022    1    1    2    0    0  0.37026486466E+03  0.43354666900E+03  0.22667712319E+04  0.23423710754E+04  0.15294330000E+03 0.  0.
<mgrwt>
<rscale>  0 0.79036951E+03</rscale>
<asrwt>0</asrwt>
<pdfrwt beam="1">  1        1 0.47027705E-01 0.87113087E+03</pdfrwt>
<pdfrwt beam="2">  1       -1 0.46350585E+00 0.87113087E+03</pdfrwt>
<totfact> 0.23413005E-01</totfact>
</mgrwt>
</event>
<event>
 4    1  0.8114601E-008  0.8817938E+03  0.7818608E-02  0.9555914E-01
          1   -1    0    0  501    0  0.00000000000E+00  0.00000000000E+00  0.12681808120E+04  0.12681808120E+04  0.50400000000E-02 0. -1.
         -1   -1    0    0    0  501 -0.00000000000E+00 -0.00000000000E+00 -0.61957182209E+03  0.61957182211E+03  0.50400000000E-02 0.  1.
    8880023    1    1    2    0    0  0.36517697521E+03 -0.45868937891E+03  0.87373546734E+03  0.12413597555E+04  0.65864270000E+03 0.  0.
    8880022    1    1    2    0    0 -0.36517697521E+03  0.45868937891E+03 -0.22512647746E+03  0.64639287853E+03  0.15294330000E+03 0.  0.
<mgrwt>
<rscale>  0 0.80284097E+03</rscale>
<asrwt>0</asrwt>
<pdfrwt beam="1">  1        1 0.19510474E+00 0.88179384E+03</pdfrwt>
<pdfrwt beam="2">  1       -1 0.95318743E-01 0.88179384E+03</pdfrwt>
<totfact> 0.10308652E+01</totfact>
</mgrwt>
</event>
<event>
 4    1  0.8114601E-008  0.8102039E+03  0.7818608E-02  0.9689152E-01
          1   -1    0    0  501    0  0.00000000000E+00  0.00000000000E+00  0.33087990659E+04  0.33087990659E+04  0.50400000000E-02 0. -1.
         -1   -1    0    0    0  501 -0.00000000000E+00 -0.00000000000E+00 -0.14858728357E+03  0.14858728365E+03  0.50400000000E-02 0.  1.
    8880023    1    1    2    0    0  0.50596601056E+02 -0.46910572314E+03  0.25229495960E+04  0.26498500082E+04  0.65864270000E+03 0. -1.
    8880022    1    1    2    0    0 -0.50596601056E+02  0.46910572314E+03  0.63726218630E+03  0.80753634137E+03  0.15294330000E+03 0.  0.
<mgrwt>
<rscale>  0 0.71666346E+03</rscale>
<asrwt>0</asrwt>
<pdfrwt beam="1">  1        1 0.50904599E+00 0.81020393E+03</pdfrwt>
<pdfrwt beam="2">  1       -1 0.22859583E-01 0.81020393E+03</pdfrwt>
<totfact> 0.60899588E+00</totfact>
</mgrwt>
</event>
<event>
 4    1  0.8114601E-008  0.6850149E+03  0.7818608E-02  0.1006618E+00
          1   -1    0    0  501    0  0.00000000000E+00  0.00000000000E+00  0.43299935301E+04  0.43299935301E+04  0.50400000000E-02 0. -1.
         -1   -1    0    0    0  501 -0.00000000000E+00 -0.00000000000E+00 -0.30499040658E+03  0.30499040662E+03  0.50400000000E-02 0.  1.
    8880023    1    1    2    0    0  0.16766853896E+03  0.85571649306E+02  0.42495797987E+04  0.43044365390E+04  0.65864270000E+03 0. -1.
    8880022    1    1    2    0    0 -0.16766853896E+03 -0.85571649306E+02 -0.22457667518E+03  0.33054739776E+03  0.15294330000E+03 0.  0.
<mgrwt>
<rscale>  0 0.52841121E+03</rscale>
<asrwt>0</asrwt>
<pdfrwt beam="1">  1        1 0.66615282E+00 0.68501493E+03</pdfrwt>
<pdfrwt beam="2">  1       -1 0.46921603E-01 0.68501493E+03</pdfrwt>
<totfact> 0.24769475E-01</totfact>
</mgrwt>
</event>
<event>
 4    1  0.8114601E-008  0.7758556E+03  0.7818608E-02  0.9765664E-01
          1   -1    0    0  501    0  0.00000000000E+00  0.00000000000E+00  0.22232317650E+04  0.22232317650E+04  0.50400000000E-02 0. -1.
         -1   -1    0    0    0  501 -0.00000000000E+00 -0.00000000000E+00 -0.40910906712E+03  0.40910906715E+03  0.50400000000E-02 0.  1.
    8880023    1    1    2    0    0 -0.48211108166E+02 -0.40720682123E+03  0.20087454030E+04  0.21533717762E+04  0.65864270000E+03 0. -1.
    8880022    1    1    2    0    0  0.48211108166E+02  0.40720682123E+03 -0.19462270512E+03  0.47896905596E+03  0.15294330000E+03 0.  0.
<mgrwt>
<rscale>  0 0.67238223E+03</rscale>
<asrwt>0</asrwt>
<pdfrwt beam="1">  1        1 0.34203565E+00 0.77585560E+03</pdfrwt>
<pdfrwt beam="2">  1       -1 0.62939857E-01 0.77585560E+03</pdfrwt>
<totfact> 0.56381966E+00</totfact>
</mgrwt>
</event>
<event>
 4    1  0.8114601E-008  0.8768396E+03  0.7818608E-02  0.9564284E-01
         -1   -1    0    0    0  501 -0.00000000000E+00  0.00000000000E+00  0.10247446515E+04  0.10247446515E+04  0.50400000000E-02 0.  1.
          1   -1    0    0  501    0  0.00000000000E+00 -0.00000000000E+00 -0.78938007246E+03  0.78938007248E+03  0.50400000000E-02 0. -1.
    8880023    1    1    2    0    0  0.18442163957E+03 -0.54865851066E+03 -0.37994428238E+03  0.95561779307E+03  0.65864270000E+03 0. -1.
    8880022    1    1    2    0    0 -0.18442163957E+03  0.54865851066E+03  0.61530886138E+03  0.85850693088E+03  0.15294330000E+03 0.  0.
<mgrwt>
<rscale>  0 0.79705912E+03</rscale>
<asrwt>0</asrwt>
<pdfrwt beam="1">  1        1 0.12144309E+00 0.87683961E+03</pdfrwt>
<pdfrwt beam="2">  1       -1 0.15765302E+00 0.87683961E+03</pdfrwt>
<totfact> 0.69908579E+00</totfact>
</mgrwt>
</event>
<event>
 4    1  0.8114601E-008  0.9314594E+03  0.7818608E-02  0.9477307E-01
         -1   -1    0    0    0  501 -0.00000000000E+00  0.00000000000E+00  0.48009720587E+03  0.48009720589E+03  0.50400000000E-02 0.  1.
          1   -1    0    0  501    0  0.00000000000E+00 -0.00000000000E+00 -0.21076607917E+04  0.21076607917E+04  0.50400000000E-02 0. -1.
    8880023    1    1    2    0    0 -0.65230804447E+03 -0.91107292676E+02 -0.16679251961E+04  0.19103902715E+04  0.65864270000E+03 0.  0.
    8880022    1    1    2    0    0  0.65230804447E+03  0.91107292676E+02  0.40361610262E+02  0.67736772603E+03  0.15294330000E+03 0.  0.
<mgrwt>
<rscale>  0 0.85977729E+03</rscale>
<asrwt>0</asrwt>
<pdfrwt beam="1">  1        1 0.32425550E+00 0.93145935E+03</pdfrwt>
<pdfrwt beam="2">  1       -1 0.73861110E-01 0.93145935E+03</pdfrwt>
<totfact> 0.47520646E+00</totfact>
</mgrwt>
</event>
<event>
 4    1  0.8114601E-008  0.7837565E+03  0.7818608E-02  0.9747086E-01
          1   -1    0    0  501    0  0.00000000000E+00  0.00000000000E+00  0.88765269672E+03  0.88765269673E+03  0.50400000000E-02 0. -1.
         -1   -1    0    0    0  501 -0.00000000000E+00 -0.00000000000E+00 -0.57763101120E+03  0.57763101123E+03  0.50400000000E-02 0.  1.
    8880023    1    1    2    0    0  0.23177874436E+03 -0.35600935300E+03  0.54661841599E+03  0.95554484182E+03  0.65864270000E+03 0.  0.
    8880022    1    1    2    0    0 -0.23177874436E+03  0.35600935300E+03 -0.23659673048E+03  0.50973886614E+03  0.15294330000E+03 0.  0.
<mgrwt>
<rscale>  0 0.68281212E+03</rscale>
<asrwt>0</asrwt>
<pdfrwt beam="1">  1        1 0.13656195E+00 0.78375650E+03</pdfrwt>
<pdfrwt beam="2">  1       -1 0.88866310E-01 0.78375650E+03</pdfrwt>
<totfact> 0.23683415E+01</totfact>
</mgrwt>
</event>
<event>
 4    1  0.8114601E-008  0.7496676E+03  0.7818608E-02  0.9832631E-01
         -1   -1    0    0    0  501 -0.00000000000E+00  0.00000000000E+00  0.75543204787E+03  0.75543204788E+03  0.50400000000E-02 0.  1.
          1   -1    0    0  501    0  0.00000000000E+00 -0.00000000000E+00 -0.11948909441E+04  0.11948909441E+04  0.50400000000E-02 0. -1.
    8880023    1    1    2    0    0  0.30186118092E+03  0.19253851596E+03 -0.10110939970E+04  0.12586947723E+04  0.65864270000E+03 0. -1.
    8880022    1    1    2    0    0 -0.30186118092E+03 -0.19253851596E+03  0.57163510086E+03  0.69162821965E+03  0.15294330000E+03 0.  0.
<mgrwt>
<rscale>  0 0.63640388E+03</rscale>
<asrwt>0</asrwt>
<pdfrwt beam="1">  1        1 0.18382938E+00 0.74966757E+03</pdfrwt>
<pdfrwt beam="2">  1       -1 0.11622032E+00 0.74966757E+03</pdfrwt>
<totfact> 0.74728700E+00</totfact>
</mgrwt>
</event>
<event>
 4    1  0.8114601E-008  0.7385108E+03  0.7818608E-02  0.9864307E-01
          1   -1    0    0  501    0  0.00000000000E+00  0.00000000000E+00  0.63205127485E+03  0.63205127487E+03  0.50400000000E-02 0. -1.
         -1   -1    0    0    0  501 -0.00000000000E+00 -0.00000000000E+00 -0.75873643946E+03  0.75873643947E+03  0.50400000000E-02 0.  1.
    8880023    1    1    2    0    0 -0.80960212279E+02  0.32408854366E+03  0.32643361323E+03  0.80743857365E+03  0.65864270000E+03 0. -1.
    8880022    1    1    2    0    0  0.80960212279E+02 -0.32408854366E+03 -0.45311877784E+03  0.58334914069E+03  0.15294330000E+03 0.  0.
<mgrwt>
<rscale>  0 0.62022767E+03</rscale>
<asrwt>0</asrwt>
<pdfrwt beam="1">  1        1 0.97238657E-01 0.73851076E+03</pdfrwt>
<pdfrwt beam="2">  1       -1 0.11672868E+00 0.73851076E+03</pdfrwt>
<totfact> 0.21596347E+01</totfact>
</mgrwt>
</event>
<event>
 4    1  0.8114601E-008  0.1081464E+04  0.7818608E-02  0.9281980E-01
          1   -1    0    0  501    0  0.00000000000E+00  0.00000000000E+00  0.12191737627E+04  0.12191737627E+04  0.50400000000E-02 0. -1.
         -1   -1    0    0    0  501 -0.00000000000E+00 -0.00000000000E+00 -0.13620949929E+04  0.13620949930E+04  0.50400000000E-02 0.  1.
    8880023    1    1    2    0    0 -0.51637052187E+03 -0.68492002142E+03  0.76363334211E+03  0.13238957810E+04  0.65864270000E+03 0. -1.
    8880022    1    1    2    0    0  0.51637052187E+03  0.68492002142E+03 -0.90655457237E+03  0.12573729746E+04  0.15294330000E+03 0.  0.
<mgrwt>
<rscale>  0 0.10245889E+04</rscale>
<asrwt>0</asrwt>
<pdfrwt beam="1">  1        1 0.18756519E+00 0.10814639E+04</pdfrwt>
<pdfrwt beam="2">  1       -1 0.20955308E+00 0.10814639E+04</pdfrwt>
<totfact> 0.13322857E+00</totfact>
</mgrwt>
</event>
<event>
 4    1  0.8114601E-008  0.8510512E+03  0.7818608E-02  0.9609684E-01
          1   -1    0    0  501    0  0.00000000000E+00  0.00000000000E+00  0.14073935420E+04  0.14073935420E+04  0.50400000000E-02 0. -1.
         -1   -1    0    0    0  501 -0.00000000000E+00 -0.00000000000E+00 -0.83861197298E+03  0.83861197300E+03  0.50400000000E-02 0.  1.
    8880023    1    1    2    0    0 -0.30695278093E+03 -0.44301010652E+03  0.11552919689E+04  0.14349173161E+04  0.65864270000E+03 0.  0.
    8880022    1    1    2    0    0  0.30695278093E+03  0.44301010652E+03 -0.58651039993E+03  0.81108819893E+03  0.15294330000E+03 0.  0.
<mgrwt>
<rscale>  0 0.76658520E+03</rscale>
<asrwt>0</asrwt>
<pdfrwt beam="1">  1        1 0.21652208E+00 0.85105121E+03</pdfrwt>
<pdfrwt beam="2">  1       -1 0.12901723E+00 0.85105121E+03</pdfrwt>
<totfact> 0.40233304E+00</totfact>
</mgrwt>
</event>
<event>
 4    1  0.8114601E-008  0.7251960E+03  0.7818608E-02  0.9905381E-01
         -1   -1    0    0    0  501 -0.00000000000E+00  0.00000000000E+00  0.52203016712E+03  0.52203016715E+03  0.50400000000E-02 0.  1.
          1   -1    0    0  501    0  0.00000000000E+00 -0.00000000000E+00 -0.61219563862E+03  0.61219563864E+03  0.50400000000E-02 0. -1.
    8880023    1    1    2    0    0 -0.27368288332E+03 -0.13113601128E+03 -0.23852318858E+03  0.76341501939E+03  0.65864270000E+03 0.  0.
    8880022    1    1    2    0    0  0.27368288332E+03  0.13113601128E+03  0.14835771708E+03  0.37081078640E+03  0.15294330000E+03 0.  0.
<mgrwt>
<rscale>  0 0.60001191E+03</rscale>
<asrwt>0</asrwt>
<pdfrwt beam="1">  1        1 0.94183944E-01 0.72519596E+03</pdfrwt>
<pdfrwt beam="2">  1       -1 0.80312334E-01 0.72519596E+03</pdfrwt>
<totfact> 0.52682642E+01</totfact>
</mgrwt>
</event>
<event>
 4    1  0.8114601E-008  0.9553036E+03  0.7818608E-02  0.9442524E-01
         -1   -1    0    0    0  501 -0.00000000000E+00  0.00000000000E+00  0.69880152694E+03  0.69880152695E+03  0.50400000000E-02 0.  1.
          1   -1    0    0  501    0  0.00000000000E+00 -0.00000000000E+00 -0.13099369236E+04  0.13099369236E+04  0.50400000000E-02 0. -1.
    8880023    1    1    2    0    0  0.30839105268E+03  0.61942695349E+03 -0.83163109816E+03  0.12665762045E+04  0.65864270000E+03 0. -1.
    8880022    1    1    2    0    0 -0.30839105268E+03 -0.61942695349E+03  0.22049570151E+03  0.74216224606E+03  0.15294330000E+03 0.  0.
<mgrwt>
<rscale>  0 0.88657236E+03</rscale>
<asrwt>0</asrwt>
<pdfrwt beam="1">  1        1 0.20152876E+00 0.95530362E+03</pdfrwt>
<pdfrwt beam="2">  1       -1 0.10750793E+00 0.95530362E+03</pdfrwt>
<totfact> 0.72353966E+00</totfact>
</mgrwt>
</event>
<event>
 4    1  0.8114601E-008  0.8639094E+03  0.7818608E-02  0.9586647E-01
         -1   -1    0    0    0  501 -0.00000000000E+00  0.00000000000E+00  0.54098699383E+03  0.54098699386E+03  0.50400000000E-02 0.  1.
          1   -1    0    0  501    0  0.00000000000E+00 -0.00000000000E+00 -0.11948358891E+04  0.11948358891E+04  0.50400000000E-02 0. -1.
    8880023    1    1    2    0    0  0.11943769454E+03  0.54613547532E+03 -0.75517623467E+03  0.11474452806E+04  0.65864270000E+03 0.  0.
    8880022    1    1    2    0    0 -0.11943769454E+03 -0.54613547532E+03  0.10132733938E+03  0.58837760240E+03  0.15294330000E+03 0.  0.
<mgrwt>
<rscale>  0 0.78186326E+03</rscale>
<asrwt>0</asrwt>
<pdfrwt beam="1">  1        1 0.18382091E+00 0.86390944E+03</pdfrwt>
<pdfrwt beam="2">  1       -1 0.83228769E-01 0.86390944E+03</pdfrwt>
<totfact> 0.15724459E+01</totfact>
</mgrwt>
</event>
<event>
 4    1  0.8114601E-008  0.8303009E+03  0.7818608E-02  0.9648747E-01
          1   -1    0    0  501    0  0.00000000000E+00  0.00000000000E+00  0.19042207097E+04  0.19042207097E+04  0.50400000000E-02 0. -1.
         -1   -1    0    0    0  501 -0.00000000000E+00 -0.00000000000E+00 -0.73549460253E+03  0.73549460255E+03  0.50400000000E-02 0.  1.
    8880023    1    1    2    0    0  0.50469815176E+03 -0.29482063336E+02  0.16991478809E+04  0.18911644941E+04  0.65864270000E+03 0. -1.
    8880022    1    1    2    0    0 -0.50469815176E+03  0.29482063336E+02 -0.53042177365E+03  0.74855081820E+03  0.15294330000E+03 0.  0.
<mgrwt>
<rscale>  0 0.74152105E+03</rscale>
<asrwt>0</asrwt>
<pdfrwt beam="1">  1        1 0.29295703E+00 0.83030092E+03</pdfrwt>
<pdfrwt beam="2">  1       -1 0.11315302E+00 0.83030092E+03</pdfrwt>
<totfact> 0.25599481E+00</totfact>
</mgrwt>
</event>
<event>
 4    1  0.8114601E-008  0.9447600E+03  0.7818608E-02  0.9457694E-01
         -1   -1    0    0    0  501 -0.00000000000E+00  0.00000000000E+00  0.69653766452E+03  0.69653766454E+03  0.50400000000E-02 0.  1.
          1   -1    0    0  501    0  0.00000000000E+00 -0.00000000000E+00 -0.19648235860E+04  0.19648235860E+04  0.50400000000E-02 0. -1.
    8880023    1    1    2    0    0  0.58387392224E+03  0.34329644978E+03 -0.16257882739E+04  0.18803613821E+04  0.65864270000E+03 0.  0.
    8880022    1    1    2    0    0 -0.58387392224E+03 -0.34329644978E+03  0.35750235242E+03  0.78099986844E+03  0.15294330000E+03 0.  0.
<mgrwt>
<rscale>  0 0.87476059E+03</rscale>
<asrwt>0</asrwt>
<pdfrwt beam="1">  1        1 0.30228055E+00 0.94475998E+03</pdfrwt>
<pdfrwt beam="2">  1       -1 0.10715964E+00 0.94475998E+03</pdfrwt>
<totfact> 0.26035300E+00</totfact>
</mgrwt>
</event>
<event>
 4    1  0.8114601E-008  0.7860471E+03  0.7818608E-02  0.9741819E-01
         -1   -1    0    0    0  501 -0.00000000000E+00  0.00000000000E+00  0.26040246766E+03  0.26040246771E+03  0.50400000000E-02 0.  1.
          1   -1    0    0  501    0  0.00000000000E+00 -0.00000000000E+00 -0.21538440176E+04  0.21538440176E+04  0.50400000000E-02 0. -1.
    8880023    1    1    2    0    0  0.16362790543E+03 -0.39659263608E+03 -0.17785547864E+04  0.19445120583E+04  0.65864270000E+03 0. -1.
    8880022    1    1    2    0    0 -0.16362790543E+03  0.39659263608E+03 -0.11488676348E+03  0.46973442695E+03  0.15294330000E+03 0.  0.
<mgrwt>
<rscale>  0 0.68580553E+03</rscale>
<asrwt>0</asrwt>
<pdfrwt beam="1">  1        1 0.33136061E+00 0.78604708E+03</pdfrwt>
<pdfrwt beam="2">  1       -1 0.40061919E-01 0.78604708E+03</pdfrwt>
<totfact> 0.14792072E+01</totfact>
</mgrwt>
</event>
<event>
 4    1  0.8114601E-008  0.1006992E+04  0.7818608E-02  0.9372466E-01
          1   -1    0    0  501    0  0.00000000000E+00  0.00000000000E+00  0.10293751319E+04  0.10293751320E+04  0.50400000000E-02 0. -1.
         -1   -1    0    0    0  501 -0.00000000000E+00 -0.00000000000E+00 -0.15828658302E+04  0.15828658302E+04  0.50400000000E-02 0.  1.
    8880023    1    1    2    0    0 -0.60118823658E+03  0.46775604288E+03  0.63635037582E+03  0.11912073785E+04  0.65864270000E+03 0. -1.
    8880022    1    1    2    0    0  0.60118823658E+03 -0.46775604288E+03 -0.11898410741E+04  0.14210335837E+04  0.15294330000E+03 0.  0.
<mgrwt>
<rscale>  0 0.94376646E+03</rscale>
<asrwt>0</asrwt>
<pdfrwt beam="1">  1        1 0.15836541E+00 0.10069922E+04</pdfrwt>
<pdfrwt beam="2">  1       -1 0.24351782E+00 0.10069922E+04</pdfrwt>
<totfact> 0.11109253E+00</totfact>
</mgrwt>
</event>
<event>
 4    1  0.8114601E-008  0.1443245E+04  0.7818608E-02  0.8950788E-01
          1   -1    0    0  501    0  0.00000000000E+00  0.00000000000E+00  0.12771308349E+04  0.12771308350E+04  0.50400000000E-02 0. -1.
         -1   -1    0    0    0  501 -0.00000000000E+00 -0.00000000000E+00 -0.18988345028E+04  0.18988345028E+04  0.50400000000E-02 0.  1.
    8880023    1    1    2    0    0  0.11950556849E+04  0.47009452268E+03  0.43338266848E+03  0.15069099820E+04  0.65864270000E+03 0.  0.
    8880022    1    1    2    0    0 -0.11950556849E+04 -0.47009452268E+03 -0.10550863363E+04  0.16690553557E+04  0.15294330000E+03 0.  0.
<mgrwt>
<rscale>  0 0.14041941E+04</rscale>
<asrwt>0</asrwt>
<pdfrwt beam="1">  1        1 0.19648167E+00 0.14432454E+04</pdfrwt>
<pdfrwt beam="2">  1       -1 0.29212839E+00 0.14432454E+04</pdfrwt>
<totfact> 0.33279427E-01</totfact>
</mgrwt>
</event>
<event>
 4    1  0.8114601E-008  0.9720579E+03  0.7818608E-02  0.9419064E-01
         -1   -1    0    0    0  501 -0.00000000000E+00  0.00000000000E+00  0.13120843790E+04  0.13120843790E+04  0.50400000000E-02 0.  1.
          1   -1    0    0  501    0  0.00000000000E+00 -0.00000000000E+00 -0.69104582740E+03  0.69104582742E+03  0.50400000000E-02 0. -1.
    8880023    1    1    2    0    0 -0.22511174758E+03 -0.67853597979E+03 -0.98898417848E+02  0.97707598379E+03  0.65864270000E+03 0. -1.
    8880022    1    1    2    0    0  0.22511174758E+03  0.67853597979E+03  0.71993696941E+03  0.10260542226E+04  0.15294330000E+03 0.  1.
<mgrwt>
<rscale>  0 0.90523291E+03</rscale>
<asrwt>0</asrwt>
<pdfrwt beam="1">  1        1 0.10631474E+00 0.97205791E+03</pdfrwt>
<pdfrwt beam="2">  1       -1 0.20185913E+00 0.97205791E+03</pdfrwt>
<totfact> 0.40900523E+00</totfact>
</mgrwt>
</event>
<event>
 4    1  0.8114601E-008  0.7436564E+03  0.7818608E-02  0.9849421E-01
          1   -1    0    0  501    0  0.00000000000E+00  0.00000000000E+00  0.12348947721E+04  0.12348947721E+04  0.50400000000E-02 0. -1.
         -1   -1    0    0    0  501 -0.00000000000E+00 -0.00000000000E+00 -0.25533679237E+03  0.25533679242E+03  0.50400000000E-02 0.  1.
    8880023    1    1    2    0    0 -0.11102074375E+03  0.32693886005E+03  0.60964595696E+03  0.96160960002E+03  0.65864270000E+03 0.  0.
    8880022    1    1    2    0    0  0.11102074375E+03 -0.32693886005E+03  0.36991202280E+03  0.52862196452E+03  0.15294330000E+03 0.  0.
<mgrwt>
<rscale>  0 0.62776423E+03</rscale>
<asrwt>0</asrwt>
<pdfrwt beam="1">  1        1 0.18998381E+00 0.74365639E+03</pdfrwt>
<pdfrwt beam="2">  1       -1 0.39282584E-01 0.74365639E+03</pdfrwt>
<totfact> 0.64999329E+01</totfact>
</mgrwt>
</event>
<event>
 4    1  0.8114601E-008  0.6900478E+03  0.7818608E-02  0.1004130E+00
          1   -1    0    0  501    0  0.00000000000E+00  0.00000000000E+00  0.17773300073E+03  0.17773300080E+03  0.50400000000E-02 0. -1.
         -1   -1    0    0    0  501 -0.00000000000E+00 -0.00000000000E+00 -0.48843923978E+04  0.48843923978E+04  0.50400000000E-02 0.  1.
    8880023    1    1    2    0    0  0.37331830913E+02 -0.20239077412E+03 -0.51103964753E+03  0.85867771525E+03  0.65864270000E+03 0. -1.
    8880022    1    1    2    0    0 -0.37331830913E+02  0.20239077412E+03 -0.41956197495E+04  0.42034476833E+04  0.15294330000E+03 0.  0.
<mgrwt>
<rscale>  0 0.53875850E+03</rscale>
<asrwt>0</asrwt>
<pdfrwt beam="1">  1        1 0.27343542E-01 0.69004775E+03</pdfrwt>
<pdfrwt beam="2">  1       -1 0.75144488E+00 0.69004775E+03</pdfrwt>
<totfact> 0.24185636E-02</totfact>
</mgrwt>
</event>
<event>
 4    1  0.8114601E-008  0.1258059E+04  0.7818608E-02  0.9102652E-01
          1   -1    0    0  501    0  0.00000000000E+00  0.00000000000E+00  0.19534771827E+04  0.19534771827E+04  0.50400000000E-02 0. -1.
         -1   -1    0    0    0  501 -0.00000000000E+00 -0.00000000000E+00 -0.71534940129E+03  0.71534940131E+03  0.50400000000E-02 0.  1.
    8880023    1    1    2    0    0 -0.19173925520E+03 -0.10545798835E+04  0.85153864498E+03  0.15191546803E+04  0.65864270000E+03 0.  0.
    8880022    1    1    2    0    0  0.19173925520E+03  0.10545798835E+04  0.38658913640E+03  0.11496719036E+04  0.15294330000E+03 0.  0.
<mgrwt>
<rscale>  0 0.12117287E+04</rscale>
<asrwt>0</asrwt>
<pdfrwt beam="1">  1        1 0.30053495E+00 0.12580592E+04</pdfrwt>
<pdfrwt beam="2">  1       -1 0.11005375E+00 0.12580592E+04</pdfrwt>
<totfact> 0.23907950E+00</totfact>
</mgrwt>
</event>
<event>
 4    1  0.8114601E-008  0.7247951E+03  0.7818608E-02  0.9906683E-01
          1   -1    0    0  501    0  0.00000000000E+00  0.00000000000E+00  0.90287589332E+03  0.90287589333E+03  0.50400000000E-02 0. -1.
         -1   -1    0    0    0  501 -0.00000000000E+00 -0.00000000000E+00 -0.90016255939E+03  0.90016255940E+03  0.50400000000E-02 0.  1.
    8880023    1    1    2    0    0 -0.62098727566E+02 -0.29607676798E+03  0.71256311708E+03  0.10164025318E+04  0.65864270000E+03 0. -1.
    8880022    1    1    2    0    0  0.62098727566E+02  0.29607676798E+03 -0.70984978315E+03  0.78663592097E+03  0.15294330000E+03 0.  0.
<mgrwt>
<rscale>  0 0.59938498E+03</rscale>
<asrwt>0</asrwt>
<pdfrwt beam="1">  1        1 0.13890398E+00 0.72479508E+03</pdfrwt>
<pdfrwt beam="2">  1       -1 0.13848655E+00 0.72479508E+03</pdfrwt>
<totfact> 0.80910918E+00</totfact>
</mgrwt>
</event>
<event>
 4    1  0.1224456E-007  0.1473910E+04  0.7818608E-02  0.8928282E-01
         -1   -1    0    0    0  501 -0.00000000000E+00  0.00000000000E+00  0.16194470152E+04  0.16194470152E+04  0.50400000000E-02 0.  1.
          1   -1    0    0  501    0  0.00000000000E+00 -0.00000000000E+00 -0.29291100108E+04  0.29291100108E+04  0.50400000000E-02 0. -1.
    8880023    1    1    2    0    0  0.16728093433E+03 -0.13079061575E+04 -0.24096077600E+04  0.28246453213E+04  0.65864270000E+03 0.  0.
    8880022    1    1    2    0    0 -0.16728093433E+03  0.13079061575E+04  0.10999447644E+04  0.17239117047E+04  0.15294330000E+03 0.  0.
<mgrwt>
<rscale>  0 0.14358326E+04</rscale>
<asrwt>0</asrwt>
<pdfrwt beam="1">  1        1 0.45063231E+00 0.14739103E+04</pdfrwt>
<pdfrwt beam="2">  1       -1 0.24914570E+00 0.14739103E+04</pdfrwt>
<totfact> 0.45098929E-02</totfact>
</mgrwt>
</event>
<event>
 4    1  0.8114601E-008  0.7947229E+03  0.7818608E-02  0.9722324E-01
          1   -1    0    0  501    0  0.00000000000E+00  0.00000000000E+00  0.12408831734E+04  0.12408831734E+04  0.50400000000E-02 0. -1.
         -1   -1    0    0    0  501 -0.00000000000E+00 -0.00000000000E+00 -0.36942700013E+03  0.36942700016E+03  0.50400000000E-02 0.  1.
    8880023    1    1    2    0    0 -0.20774124748E+03  0.39321478947E+03  0.25435076782E+03  0.83443323035E+03  0.65864270000E+03 0.  0.
    8880022    1    1    2    0    0  0.20774124748E+03 -0.39321478947E+03  0.61710540541E+03  0.77587694318E+03  0.15294330000E+03 0.  0.
<mgrwt>
<rscale>  0 0.69703018E+03</rscale>
<asrwt>0</asrwt>
<pdfrwt beam="1">  1        1 0.19090510E+00 0.79472291E+03</pdfrwt>
<pdfrwt beam="2">  1       -1 0.56834925E-01 0.79472291E+03</pdfrwt>
<totfact> 0.32010129E+01</totfact>
</mgrwt>
</event>
<event>
 4    1  0.8114601E-008  0.1090323E+04  0.7818608E-02  0.9271908E-01
         -1   -1    0    0    0  501 -0.00000000000E+00  0.00000000000E+00  0.64044008140E+03  0.64044008142E+03  0.50400000000E-02 0.  1.
          1   -1    0    0  501    0  0.00000000000E+00 -0.00000000000E+00 -0.16066809185E+04  0.16066809185E+04  0.50400000000E-02 0. -1.
    8880023    1    1    2    0    0 -0.79211706498E+03 -0.35713318353E+03 -0.79251442495E+03  0.13479179780E+04  0.65864270000E+03 0.  0.
    8880022    1    1    2    0    0  0.79211706498E+03  0.35713318353E+03 -0.17372641219E+03  0.89920302197E+03  0.15294330000E+03 0.  0.
<mgrwt>
<rscale>  0 0.10341074E+04</rscale>
<asrwt>0</asrwt>
<pdfrwt beam="1">  1        1 0.24718168E+00 0.10903228E+04</pdfrwt>
<pdfrwt beam="2">  1       -1 0.98529244E-01 0.10903228E+04</pdfrwt>
<totfact> 0.54225314E+00</totfact>
</mgrwt>
</event>
<event>
 4    1  0.8114601E-008  0.1817629E+04  0.7818608E-02  0.8712847E-01
          1   -1    0    0  501    0  0.00000000000E+00  0.00000000000E+00  0.20908308455E+04  0.20908308455E+04  0.50400000000E-02 0. -1.
         -1   -1    0    0    0  501 -0.00000000000E+00 -0.00000000000E+00 -0.15229050483E+04  0.15229050484E+04  0.50400000000E-02 0.  1.
    8880023    1    1    2    0    0  0.98259320043E+03  0.13800276590E+04  0.59498603036E+03  0.19125334820E+04  0.65864270000E+03 0. -1.
    8880022    1    1    2    0    0 -0.98259320043E+03 -0.13800276590E+04 -0.27060233180E+02  0.17012024119E+04  0.15294330000E+03 0.  0.
<mgrwt>
<rscale>  0 0.17877395E+04</rscale>
<asrwt>0</asrwt>
<pdfrwt beam="1">  1        1 0.32166628E+00 0.18176292E+04</pdfrwt>
<pdfrwt beam="2">  1       -1 0.23429309E+00 0.18176292E+04</pdfrwt>
<totfact> 0.20840437E-01</totfact>
</mgrwt>
</event>
<event>
 4    1  0.8114601E-008  0.7177452E+03  0.7818608E-02  0.9930291E-01
         -1   -1    0    0    0  501 -0.00000000000E+00  0.00000000000E+00  0.62843500194E+03  0.62843500196E+03  0.50400000000E-02 0.  1.
          1   -1    0    0  501    0  0.00000000000E+00 -0.00000000000E+00 -0.83923342249E+03  0.83923342251E+03  0.50400000000E-02 0. -1.
    8880023    1    1    2    0    0  0.33535563489E+02 -0.28323727895E+03 -0.61826284430E+03  0.94731575576E+03  0.65864270000E+03 0. -1.
    8880022    1    1    2    0    0 -0.33535563489E+02  0.28323727895E+03  0.40746442374E+03  0.52035266871E+03  0.15294330000E+03 0.  0.
<mgrwt>
<rscale>  0 0.58815476E+03</rscale>
<asrwt>0</asrwt>
<pdfrwt beam="1">  1        1 0.12911283E+00 0.71774522E+03</pdfrwt>
<pdfrwt beam="2">  1       -1 0.96682308E-01 0.71774522E+03</pdfrwt>
<totfact> 0.21709043E+01</totfact>
</mgrwt>
</event>
<event>
 4    1  0.8114601E-008  0.1037282E+04  0.7818608E-02  0.9334328E-01
         -1   -1    0    0    0  501 -0.00000000000E+00  0.00000000000E+00  0.10177890308E+04  0.10177890308E+04  0.50400000000E-02 0.  1.
          1   -1    0    0  501    0  0.00000000000E+00 -0.00000000000E+00 -0.24032998464E+04  0.24032998464E+04  0.50400000000E-02 0. -1.
    8880023    1    1    2    0    0  0.56113922378E+03 -0.57207283841E+03 -0.20964150497E+04  0.23389978255E+04  0.65864270000E+03 0.  0.
    8880022    1    1    2    0    0 -0.56113922378E+03  0.57207283841E+03  0.71090423416E+03  0.10820910517E+04  0.15294330000E+03 0.  0.
<mgrwt>
<rscale>  0 0.97683051E+03</rscale>
<asrwt>0</asrwt>
<pdfrwt beam="1">  1        1 0.36973844E+00 0.10372824E+04</pdfrwt>
<pdfrwt beam="2">  1       -1 0.15658293E+00 0.10372824E+04</pdfrwt>
<totfact> 0.49559085E-01</totfact>
</mgrwt>
</event>
<event>
 4    1  0.8114601E-008  0.8098579E+03  0.7818608E-02  0.9689873E-01
         -1   -1    0    0    0  501 -0.00000000000E+00  0.00000000000E+00  0.18936261851E+03  0.18936261858E+03  0.50400000000E-02 0.  1.
          1   -1    0    0  501    0  0.00000000000E+00 -0.00000000000E+00 -0.30551886253E+04  0.30551886253E+04  0.50400000000E-02 0. -1.
    8880023    1    1    2    0    0 -0.22762412620E+03  0.41260991519E+03 -0.25022088777E+04  0.26300036424E+04  0.65864270000E+03 0. -1.
    8880022    1    1    2    0    0  0.22762412620E+03 -0.41260991519E+03 -0.36361712906E+03  0.61454760149E+03  0.15294330000E+03 0.  0.
<mgrwt>
<rscale>  0 0.71622968E+03</rscale>
<asrwt>0</asrwt>
<pdfrwt beam="1">  1        1 0.47002898E+00 0.80985795E+03</pdfrwt>
<pdfrwt beam="2">  1       -1 0.29132713E-01 0.80985795E+03</pdfrwt>
<totfact> 0.61773789E+00</totfact>
</mgrwt>
</event>
<event>
 4    1  0.8114601E-008  0.9106750E+03  0.7818608E-02  0.9509108E-01
         -1   -1    0    0    0  501 -0.00000000000E+00  0.00000000000E+00  0.14298562670E+04  0.14298562670E+04  0.50400000000E-02 0.  1.
          1   -1    0    0  501    0  0.00000000000E+00 -0.00000000000E+00 -0.57907448694E+03  0.57907448696E+03  0.50400000000E-02 0. -1.
    8880023    1    1    2    0    0 -0.48928080833E+03  0.39512404778E+03 -0.35629783278E+02  0.91137171903E+03  0.65864270000E+03 0. -1.
    8880022    1    1    2    0    0  0.48928080833E+03 -0.39512404778E+03  0.88641156336E+03  0.10975590349E+04  0.15294330000E+03 0.  0.
<mgrwt>
<rscale>  0 0.83615674E+03</rscale>
<asrwt>0</asrwt>
<pdfrwt beam="1">  1        1 0.89088384E-01 0.91067499E+03</pdfrwt>
<pdfrwt beam="2">  1       -1 0.21997788E+00 0.91067499E+03</pdfrwt>
<totfact> 0.40325272E+00</totfact>
</mgrwt>
</event>
<event>
 4    1  0.8114601E-008  0.1205114E+04  0.7818608E-02  0.9152168E-01
         -1   -1    0    0    0  501 -0.00000000000E+00  0.00000000000E+00  0.70723469331E+03  0.70723469333E+03  0.50400000000E-02 0.  1.
          1   -1    0    0  501    0  0.00000000000E+00 -0.00000000000E+00 -0.20971651690E+04  0.20971651690E+04  0.50400000000E-02 0. -1.
    8880023    1    1    2    0    0  0.41260272947E+03  0.92100345057E+03 -0.13108356984E+04  0.17806147261E+04  0.65864270000E+03 0. -1.
    8880022    1    1    2    0    0 -0.41260272947E+03 -0.92100345057E+03 -0.79094777275E+02  0.10237851362E+04  0.15294330000E+03 0.  0.
<mgrwt>
<rscale>  0 0.11561074E+04</rscale>
<asrwt>0</asrwt>
<pdfrwt beam="1">  1        1 0.32264079E+00 0.12051135E+04</pdfrwt>
<pdfrwt beam="2">  1       -1 0.10880534E+00 0.12051135E+04</pdfrwt>
<totfact> 0.19756087E+00</totfact>
</mgrwt>
</event>
<event>
 4    1  0.8114601E-008  0.6685316E+03  0.7818608E-02  0.1016738E+00
         -1   -1    0    0    0  501 -0.00000000000E+00  0.00000000000E+00  0.66085306497E+03  0.66085306499E+03  0.50400000000E-02 0.  1.
          1   -1    0    0  501    0  0.00000000000E+00 -0.00000000000E+00 -0.12843710418E+04  0.12843710418E+04  0.50400000000E-02 0. -1.
    8880023    1    1    2    0    0 -0.22145693486E+02  0.11240059509E+03 -0.11803446246E+04  0.13565205360E+04  0.65864270000E+03 0. -1.
    8880022    1    1    2    0    0  0.22145693486E+02 -0.11240059509E+03  0.55682664780E+03  0.58870357076E+03  0.15294330000E+03 0.  0.
<mgrwt>
<rscale>  0 0.48882323E+03</rscale>
<asrwt>0</asrwt>
<pdfrwt beam="1">  1        1 0.19759554E+00 0.66853162E+03</pdfrwt>
<pdfrwt beam="2">  1       -1 0.10166970E+00 0.66853162E+03</pdfrwt>
<totfact> 0.89385263E+00</totfact>
</mgrwt>
</event>
<event>
 4    1  0.8114601E-008  0.1597988E+04  0.7818608E-02  0.8843373E-01
         -1   -1    0    0    0  501 -0.00000000000E+00  0.00000000000E+00  0.13231248588E+04  0.13231248588E+04  0.50400000000E-02 0.  1.
          1   -1    0    0  501    0  0.00000000000E+00 -0.00000000000E+00 -0.19808249504E+04  0.19808249504E+04  0.50400000000E-02 0. -1.
    8880023    1    1    2    0    0 -0.10482732420E+04 -0.10103850104E+04  0.19488607562E+03  0.16098277696E+04  0.65864270000E+03 0. -1.
    8880022    1    1    2    0    0  0.10482732420E+04  0.10103850104E+04 -0.85258616726E+03  0.16941220395E+04  0.15294330000E+03 0.  1.
<mgrwt>
<rscale>  0 0.15633692E+04</rscale>
<asrwt>0</asrwt>
<pdfrwt beam="1">  1        1 0.30474230E+00 0.15979878E+04</pdfrwt>
<pdfrwt beam="2">  1       -1 0.20355767E+00 0.15979878E+04</pdfrwt>
<totfact> 0.40858566E-01</totfact>
</mgrwt>
</event>
<event>
 4    1  0.8114601E-008  0.7962487E+03  0.7818608E-02  0.9718967E-01
         -1   -1    0    0    0  501 -0.00000000000E+00  0.00000000000E+00  0.37865714481E+03  0.37865714485E+03  0.50400000000E-02 0.  1.
          1   -1    0    0  501    0  0.00000000000E+00 -0.00000000000E+00 -0.14714986199E+04  0.14714986199E+04  0.50400000000E-02 0. -1.
    8880023    1    1    2    0    0 -0.43387042037E+03  0.10935339820E+03 -0.11226555483E+04  0.13763601977E+04  0.65864270000E+03 0.  0.
    8880022    1    1    2    0    0  0.43387042037E+03 -0.10935339820E+03  0.29814073250E+02  0.47379556704E+03  0.15294330000E+03 0.  0.
<mgrwt>
<rscale>  0 0.69898667E+03</rscale>
<asrwt>0</asrwt>
<pdfrwt beam="1">  1        1 0.22638440E+00 0.79624865E+03</pdfrwt>
<pdfrwt beam="2">  1       -1 0.58254946E-01 0.79624865E+03</pdfrwt>
<totfact> 0.21013554E+01</totfact>
</mgrwt>
</event>
<event>
 4    1  0.8114601E-008  0.1457177E+04  0.7818608E-02  0.8940482E-01
          1   -1    0    0  501    0  0.00000000000E+00  0.00000000000E+00  0.26280238585E+04  0.26280238585E+04  0.50400000000E-02 0. -1.
         -1   -1    0    0    0  501 -0.00000000000E+00 -0.00000000000E+00 -0.73211530010E+03  0.73211530012E+03  0.50400000000E-02 0.  1.
    8880023    1    1    2    0    0 -0.12804580840E+04 -0.22356405552E+03  0.86956205630E+03  0.16969095933E+04  0.65864270000E+03 0.  0.
    8880022    1    1    2    0    0  0.12804580840E+04  0.22356405552E+03  0.10263465021E+04  0.16632295653E+04  0.15294330000E+03 0.  0.
<mgrwt>
<rscale>  0 0.14185744E+04</rscale>
<asrwt>0</asrwt>
<pdfrwt beam="1">  1        1 0.40431137E+00 0.14571767E+04</pdfrwt>
<pdfrwt beam="2">  1       -1 0.11263312E+00 0.14571767E+04</pdfrwt>
<totfact> 0.76362389E-01</totfact>
</mgrwt>
</event>
<event>
 4    1  0.8114601E-008  0.1072688E+04  0.7818608E-02  0.9292092E-01
         -1   -1    0    0    0  501 -0.00000000000E+00  0.00000000000E+00  0.13235368286E+04  0.13235368286E+04  0.50400000000E-02 0.  1.
          1   -1    0    0  501    0  0.00000000000E+00 -0.00000000000E+00 -0.11433618814E+04  0.11433618814E+04  0.50400000000E-02 0. -1.
    8880023    1    1    2    0    0 -0.84666536261E+03  0.27142108183E+01 -0.66398228712E+03  0.12615594663E+04  0.65864270000E+03 0.  0.
    8880022    1    1    2    0    0  0.84666536261E+03 -0.27142108183E+01  0.84415723428E+03  0.12053392437E+04  0.15294330000E+03 0.  0.
<mgrwt>
<rscale>  0 0.10151419E+04</rscale>
<asrwt>0</asrwt>
<pdfrwt beam="1">  1        1 0.17590183E+00 0.10726881E+04</pdfrwt>
<pdfrwt beam="2">  1       -1 0.20362105E+00 0.10726881E+04</pdfrwt>
<totfact> 0.16642812E+00</totfact>
</mgrwt>
</event>
<event>
 4    1  0.8114601E-008  0.8036278E+03  0.7818608E-02  0.9703006E-01
         -1   -1    0    0    0  501 -0.00000000000E+00  0.00000000000E+00  0.12225590126E+04  0.12225590126E+04  0.50400000000E-02 0.  1.
          1   -1    0    0  501    0  0.00000000000E+00 -0.00000000000E+00 -0.17439117939E+04  0.17439117939E+04  0.50400000000E-02 0. -1.
    8880023    1    1    2    0    0  0.88930088027E+02 -0.45177304413E+03 -0.15962600738E+04  0.17871384595E+04  0.65864270000E+03 0. -1.
    8880022    1    1    2    0    0 -0.88930088027E+02  0.45177304413E+03  0.10749072925E+04  0.11793323469E+04  0.15294330000E+03 0.  0.
<mgrwt>
<rscale>  0 0.70838086E+03</rscale>
<asrwt>0</asrwt>
<pdfrwt beam="1">  1        1 0.26829412E+00 0.80362781E+03</pdfrwt>
<pdfrwt beam="2">  1       -1 0.18808600E+00 0.80362781E+03</pdfrwt>
<totfact> 0.84721829E-01</totfact>
</mgrwt>
</event>
<event>
 4    1  0.8114601E-008  0.8027694E+03  0.7818608E-02  0.9704840E-01
          1   -1    0    0  501    0  0.00000000000E+00  0.00000000000E+00  0.21640986992E+04  0.21640986992E+04  0.50400000000E-02 0. -1.
         -1   -1    0    0    0  501 -0.00000000000E+00 -0.00000000000E+00 -0.97637990137E+03  0.97637990138E+03  0.50400000000E-02 0.  1.
    8880023    1    1    2    0    0 -0.18453054064E+03 -0.42021060230E+03  0.20223131267E+04  0.21758191698E+04  0.65864270000E+03 0. -1.
    8880022    1    1    2    0    0  0.18453054064E+03  0.42021060230E+03 -0.83459432888E+03  0.96465943085E+03  0.15294330000E+03 0.  0.
<mgrwt>
<rscale>  0 0.70729363E+03</rscale>
<asrwt>0</asrwt>
<pdfrwt beam="1">  1        1 0.33293826E+00 0.80276938E+03</pdfrwt>
<pdfrwt beam="2">  1       -1 0.15021229E+00 0.80276938E+03</pdfrwt>
<totfact> 0.84153411E-01</totfact>
</mgrwt>
</event>
<event>
 4    1  0.8114601E-008  0.6969137E+03  0.7818608E-02  0.1001025E+00
         -1   -1    0    0    0  501 -0.00000000000E+00  0.00000000000E+00  0.23316036199E+03  0.23316036204E+03  0.50400000000E-02 0.  1.
          1   -1    0    0  501    0  0.00000000000E+00 -0.00000000000E+00 -0.17409023084E+04  0.17409023084E+04  0.50400000000E-02 0. -1.
    8880023    1    1    2    0    0 -0.16219701458E+03 -0.15990835981E+03 -0.15471731727E+04  0.16968893858E+04  0.65864270000E+03 0.  0.
    8880022    1    1    2    0    0  0.16219701458E+03  0.15990835981E+03  0.39431226319E+02  0.27717328461E+03  0.15294330000E+03 0.  0.
<mgrwt>
<rscale>  0 0.55202934E+03</rscale>
<asrwt>0</asrwt>
<pdfrwt beam="1">  1        1 0.26783112E+00 0.69691374E+03</pdfrwt>
<pdfrwt beam="2">  1       -1 0.35870826E-01 0.69691374E+03</pdfrwt>
<totfact> 0.34523782E+01</totfact>
</mgrwt>
</event>
<event>
 4    1  0.8114601E-008  0.7020403E+03  0.7818608E-02  0.9988840E-01
         -1   -1    0    0    0  501 -0.00000000000E+00  0.00000000000E+00  0.39720523340E+03  0.39720523343E+03  0.50400000000E-02 0.  1.
          1   -1    0    0  501    0  0.00000000000E+00 -0.00000000000E+00 -0.15008178114E+04  0.15008178114E+04  0.50400000000E-02 0. -1.
    8880023    1    1    2    0    0  0.17970784739E+03  0.16357102110E+03 -0.13487264129E+04  0.15205010794E+04  0.65864270000E+03 0. -1.
    8880022    1    1    2    0    0 -0.17970784739E+03 -0.16357102110E+03  0.24511383486E+03  0.37752196547E+03  0.15294330000E+03 0.  0.
<mgrwt>
<rscale>  0 0.56142291E+03</rscale>
<asrwt>0</asrwt>
<pdfrwt beam="1">  1        1 0.23089504E+00 0.70204031E+03</pdfrwt>
<pdfrwt beam="2">  1       -1 0.61108498E-01 0.70204031E+03</pdfrwt>
<totfact> 0.18488908E+01</totfact>
</mgrwt>
</event>
<event>
 4    1  0.8114601E-008  0.9101267E+03  0.7818608E-02  0.9509967E-01
          1   -1    0    0  501    0  0.00000000000E+00  0.00000000000E+00  0.86639351565E+03  0.86639351566E+03  0.50400000000E-02 0. -1.
         -1   -1    0    0    0  501 -0.00000000000E+00 -0.00000000000E+00 -0.12203527119E+04  0.12203527119E+04  0.50400000000E-02 0.  1.
    8880023    1    1    2    0    0 -0.43698482136E+03  0.45118147228E+03  0.48208433509E+03  0.10299203695E+04  0.65864270000E+03 0. -1.
    8880022    1    1    2    0    0  0.43698482136E+03 -0.45118147228E+03 -0.83604353130E+03  0.10568258581E+04  0.15294330000E+03 0.  0.
<mgrwt>
<rscale>  0 0.83552995E+03</rscale>
<asrwt>0</asrwt>
<pdfrwt beam="1">  1        1 0.13329131E+00 0.91012673E+03</pdfrwt>
<pdfrwt beam="2">  1       -1 0.18774657E+00 0.91012673E+03</pdfrwt>
<totfact> 0.36081947E+00</totfact>
</mgrwt>
</event>
<event>
 4    1  0.8114601E-008  0.7053227E+03  0.7818608E-02  0.9975798E-01
         -1   -1    0    0    0  501 -0.00000000000E+00  0.00000000000E+00  0.26672753164E+03  0.26672753169E+03  0.50400000000E-02 0.  1.
          1   -1    0    0  501    0  0.00000000000E+00 -0.00000000000E+00 -0.13674006393E+04  0.13674006393E+04  0.50400000000E-02 0. -1.
    8880023    1    1    2    0    0 -0.14245222105E+03 -0.20827201400E+03 -0.11358004181E+04  0.13369826712E+04  0.65864270000E+03 0. -1.
    8880022    1    1    2    0    0  0.14245222105E+03  0.20827201400E+03  0.35127310429E+02  0.29714549980E+03  0.15294330000E+03 0.  0.
<mgrwt>
<rscale>  0 0.56724302E+03</rscale>
<asrwt>0</asrwt>
<pdfrwt beam="1">  1        1 0.21036933E+00 0.70532267E+03</pdfrwt>
<pdfrwt beam="2">  1       -1 0.41035006E-01 0.70532267E+03</pdfrwt>
<totfact> 0.48590556E+01</totfact>
</mgrwt>
</event>
<event>
 4    1  0.8114601E-008  0.1137648E+04  0.7818608E-02  0.9220254E-01
         -1   -1    0    0    0  501 -0.00000000000E+00  0.00000000000E+00  0.75934456481E+03  0.75934456482E+03  0.50400000000E-02 0.  1.
          1   -1    0    0  501    0  0.00000000000E+00 -0.00000000000E+00 -0.15726960456E+04  0.15726960456E+04  0.50400000000E-02 0. -1.
    8880023    1    1    2    0    0  0.98816303304E+02  0.92231661108E+03 -0.80187735880E+03  0.13918513203E+04  0.65864270000E+03 0. -1.
    8880022    1    1    2    0    0 -0.98816303304E+02 -0.92231661108E+03 -0.11474121987E+02  0.94018929017E+03  0.15294330000E+03 0.  0.
<mgrwt>
<rscale>  0 0.10846800E+04</rscale>
<asrwt>0</asrwt>
<pdfrwt beam="1">  1        1 0.24195324E+00 0.11376479E+04</pdfrwt>
<pdfrwt beam="2">  1       -1 0.11682224E+00 0.11376479E+04</pdfrwt>
<totfact> 0.38115975E+00</totfact>
</mgrwt>
</event>
<event>
 4    1  0.8114601E-008  0.9619176E+03  0.7818608E-02  0.9433171E-01
          1   -1    0    0  501    0  0.00000000000E+00  0.00000000000E+00  0.24290969129E+04  0.24290969129E+04  0.50400000000E-02 0. -1.
         -1   -1    0    0    0  501 -0.00000000000E+00 -0.00000000000E+00 -0.84038749787E+03  0.84038749788E+03  0.50400000000E-02 0.  1.
    8880023    1    1    2    0    0  0.33729050195E+03  0.61458143170E+03  0.21520360365E+04  0.23572323872E+04  0.65864270000E+03 0. -1.
    8880022    1    1    2    0    0 -0.33729050195E+03 -0.61458143170E+03 -0.56332662148E+03  0.91225202351E+03  0.15294330000E+03 0.  0.
<mgrwt>
<rscale>  0 0.89395419E+03</rscale>
<asrwt>0</asrwt>
<pdfrwt beam="1">  1        1 0.37370721E+00 0.96191758E+03</pdfrwt>
<pdfrwt beam="2">  1       -1 0.12929039E+00 0.96191758E+03</pdfrwt>
<totfact> 0.79858323E-01</totfact>
</mgrwt>
</event>
<event>
 4    1  0.8114601E-008  0.1252790E+04  0.7818608E-02  0.9107440E-01
          1   -1    0    0  501    0  0.00000000000E+00  0.00000000000E+00  0.67952339786E+03  0.67952339788E+03  0.50400000000E-02 0. -1.
         -1   -1    0    0    0  501 -0.00000000000E+00 -0.00000000000E+00 -0.32459794913E+04  0.32459794913E+04  0.50400000000E-02 0.  1.
    8880023    1    1    2    0    0  0.18898685133E+01 -0.10656777950E+04 -0.12720669073E+03  0.12592317034E+04  0.65864270000E+03 0.  0.
    8880022    1    1    2    0    0 -0.18898685133E+01  0.10656777950E+04 -0.24392494027E+04  0.26662711857E+04  0.15294330000E+03 0.  0.
<mgrwt>
<rscale>  0 0.12062079E+04</rscale>
<asrwt>0</asrwt>
<pdfrwt beam="1">  1        1 0.10454206E+00 0.12527901E+04</pdfrwt>
<pdfrwt beam="2">  1       -1 0.49938145E+00 0.12527901E+04</pdfrwt>
<totfact> 0.42007680E-02</totfact>
</mgrwt>
</event>
<event>
 4    1  0.8114601E-008  0.7038492E+03  0.7818608E-02  0.9981593E-01
          1   -1    0    0  501    0  0.00000000000E+00  0.00000000000E+00  0.85079283829E+03  0.85079283830E+03  0.50400000000E-02 0. -1.
         -1   -1    0    0    0  501 -0.00000000000E+00 -0.00000000000E+00 -0.41004252487E+03  0.41004252490E+03  0.50400000000E-02 0.  1.
    8880023    1    1    2    0    0 -0.24774148907E+03 -0.14750668822E+02  0.60332919282E+03  0.92704355281E+03  0.65864270000E+03 0. -1.
    8880022    1    1    2    0    0  0.24774148907E+03  0.14750668822E+02 -0.16257887940E+03  0.33379181039E+03  0.15294330000E+03 0.  0.
<mgrwt>
<rscale>  0 0.56464766E+03</rscale>
<asrwt>0</asrwt>
<pdfrwt beam="1">  1        1 0.13089121E+00 0.70384916E+03</pdfrwt>
<pdfrwt beam="2">  1       -1 0.63083465E-01 0.70384916E+03</pdfrwt>
<totfact> 0.52364590E+01</totfact>
</mgrwt>
</event>
<event>
 4    1  0.8114601E-008  0.6891357E+03  0.7818608E-02  0.1004566E+00
         -1   -1    0    0    0  501 -0.00000000000E+00  0.00000000000E+00  0.14719797072E+03  0.14719797080E+03  0.50400000000E-02 0.  1.
          1   -1    0    0  501    0  0.00000000000E+00 -0.00000000000E+00 -0.20956401035E+04  0.20956401035E+04  0.50400000000E-02 0. -1.
    8880023    1    1    2    0    0  0.10095829842E+03  0.17579871301E+03 -0.18434382132E+04  0.19680377074E+04  0.65864270000E+03 0. -1.
    8880022    1    1    2    0    0 -0.10095829842E+03 -0.17579871301E+03 -0.10500391956E+03  0.27480036691E+03  0.15294330000E+03 0.  0.
<mgrwt>
<rscale>  0 0.53692621E+03</rscale>
<asrwt>0</asrwt>
<pdfrwt beam="1">  1        1 0.32240615E+00 0.68913567E+03</pdfrwt>
<pdfrwt beam="2">  1       -1 0.22645843E-01 0.68913567E+03</pdfrwt>
<totfact> 0.44415482E+01</totfact>
</mgrwt>
</event>
<event>
 4    1  0.8114601E-008  0.1328439E+04  0.7818608E-02  0.9041382E-01
          1   -1    0    0  501    0  0.00000000000E+00  0.00000000000E+00  0.10969948068E+04  0.10969948068E+04  0.50400000000E-02 0. -1.
         -1   -1    0    0    0  501 -0.00000000000E+00 -0.00000000000E+00 -0.17942459149E+04  0.17942459149E+04  0.50400000000E-02 0.  1.
    8880023    1    1    2    0    0  0.10881053230E+04  0.38336253880E+03  0.29626628495E+03  0.13610745564E+04  0.65864270000E+03 0.  0.
    8880022    1    1    2    0    0 -0.10881053230E+04 -0.38336253880E+03 -0.99351739300E+03  0.15301661653E+04  0.15294330000E+03 0.  0.
<mgrwt>
<rscale>  0 0.12852033E+04</rscale>
<asrwt>0</asrwt>
<pdfrwt beam="1">  1        1 0.16876843E+00 0.13284390E+04</pdfrwt>
<pdfrwt beam="2">  1       -1 0.27603783E+00 0.13284390E+04</pdfrwt>
<totfact> 0.58240230E-01</totfact>
</mgrwt>
</event>
<event>
 4    1  0.8114601E-008  0.8177133E+03  0.7818608E-02  0.9673729E-01
          1   -1    0    0  501    0  0.00000000000E+00  0.00000000000E+00  0.16561773802E+04  0.16561773802E+04  0.50400000000E-02 0. -1.
         -1   -1    0    0    0  501 -0.00000000000E+00 -0.00000000000E+00 -0.37153008387E+03  0.37153008390E+03  0.50400000000E-02 0.  1.
    8880023    1    1    2    0    0  0.41869273420E+03 -0.24401079731E+03  0.12807396401E+04  0.15195226575E+04  0.65864270000E+03 0.  0.
    8880022    1    1    2    0    0 -0.41869273420E+03  0.24401079731E+03  0.39076562966E+01  0.50818480661E+03  0.15294330000E+03 0.  0.
<mgrwt>
<rscale>  0 0.72602741E+03</rscale>
<asrwt>0</asrwt>
<pdfrwt beam="1">  1        1 0.25479652E+00 0.81771332E+03</pdfrwt>
<pdfrwt beam="2">  1       -1 0.57158474E-01 0.81771332E+03</pdfrwt>
<totfact> 0.16276688E+01</totfact>
</mgrwt>
</event>
<event>
 4    1  0.8114601E-008  0.7210937E+03  0.7818608E-02  0.9918903E-01
         -1   -1    0    0    0  501 -0.00000000000E+00  0.00000000000E+00  0.12470444939E+04  0.12470444940E+04  0.50400000000E-02 0.  1.
          1   -1    0    0  501    0  0.00000000000E+00 -0.00000000000E+00 -0.10825414360E+04  0.10825414360E+04  0.50400000000E-02 0. -1.
    8880023    1    1    2    0    0 -0.23037399697E+03  0.18191679670E+03 -0.93533089340E+03  0.11810249726E+04  0.65864270000E+03 0. -1.
    8880022    1    1    2    0    0  0.23037399697E+03 -0.18191679670E+03  0.10998339513E+04  0.11485609574E+04  0.15294330000E+03 0.  0.
<mgrwt>
<rscale>  0 0.59353873E+03</rscale>
<asrwt>0</asrwt>
<pdfrwt beam="1">  1        1 0.16654484E+00 0.72109369E+03</pdfrwt>
<pdfrwt beam="2">  1       -1 0.19185300E+00 0.72109369E+03</pdfrwt>
<totfact> 0.23497322E+00</totfact>
</mgrwt>
</event>
<event>
 4    1  0.8114601E-008  0.8712003E+03  0.7818608E-02  0.9573943E-01
         -1   -1    0    0    0  501 -0.00000000000E+00  0.00000000000E+00  0.87563068387E+03  0.87563068388E+03  0.50400000000E-02 0.  1.
          1   -1    0    0  501    0  0.00000000000E+00 -0.00000000000E+00 -0.83880676995E+03  0.83880676996E+03  0.50400000000E-02 0. -1.
    8880023    1    1    2    0    0  0.48103014432E+03  0.30625120397E+03 -0.42074857387E+03  0.96748093953E+03  0.65864270000E+03 0. -1.
    8880022    1    1    2    0    0 -0.48103014432E+03 -0.30625120397E+03  0.45757248779E+03  0.74695651431E+03  0.15294330000E+03 0.  0.
<mgrwt>
<rscale>  0 0.79045108E+03</rscale>
<asrwt>0</asrwt>
<pdfrwt beam="1">  1        1 0.12904720E+00 0.87120032E+03</pdfrwt>
<pdfrwt beam="2">  1       -1 0.13471241E+00 0.87120032E+03</pdfrwt>
<totfact> 0.96336713E+00</totfact>
</mgrwt>
</event>
<event>
 4    1  0.8114601E-008  0.6949335E+03  0.7818608E-02  0.1001891E+00
         -1   -1    0    0    0  501 -0.00000000000E+00  0.00000000000E+00  0.53189802211E+03  0.53189802214E+03  0.50400000000E-02 0.  1.
          1   -1    0    0  501    0  0.00000000000E+00 -0.00000000000E+00 -0.75811978389E+03  0.75811978391E+03  0.50400000000E-02 0. -1.
    8880023    1    1    2    0    0 -0.51124599411E+02 -0.21565857240E+03 -0.53741377120E+03  0.87849081512E+03  0.65864270000E+03 0. -1.
    8880022    1    1    2    0    0  0.51124599411E+02  0.21565857240E+03  0.31119200942E+03  0.41152699092E+03  0.15294330000E+03 0.  0.
<mgrwt>
<rscale>  0 0.54828979E+03</rscale>
<asrwt>0</asrwt>
<pdfrwt beam="1">  1        1 0.11663381E+00 0.69493349E+03</pdfrwt>
<pdfrwt beam="2">  1       -1 0.81830465E-01 0.69493349E+03</pdfrwt>
<totfact> 0.36867957E+01</totfact>
</mgrwt>
</event>
<event>
 4    1  0.8114601E-008  0.6939582E+03  0.7818608E-02  0.1002325E+00
         -1   -1    0    0    0  501 -0.00000000000E+00  0.00000000000E+00  0.24626208250E+03  0.24626208255E+03  0.50400000000E-02 0.  1.
          1   -1    0    0  501    0  0.00000000000E+00 -0.00000000000E+00 -0.30425093100E+04  0.30425093100E+04  0.50400000000E-02 0. -1.
    8880023    1    1    2    0    0  0.21855280164E+03  0.15814413732E+01 -0.29152248377E+04  0.29966838153E+04  0.65864270000E+03 0. -1.
    8880022    1    1    2    0    0 -0.21855280164E+03 -0.15814413732E+01  0.11897761020E+03  0.29208757729E+03  0.15294330000E+03 0.  0.
<mgrwt>
<rscale>  0 0.54642316E+03</rscale>
<asrwt>0</asrwt>
<pdfrwt beam="1">  1        1 0.46807833E+00 0.69395824E+03</pdfrwt>
<pdfrwt beam="2">  1       -1 0.37886476E-01 0.69395824E+03</pdfrwt>
<totfact> 0.40499494E+00</totfact>
</mgrwt>
</event>
<event>
 4    1  0.8114601E-008  0.8932860E+03  0.7818608E-02  0.9536897E-01
          1   -1    0    0  501    0  0.00000000000E+00  0.00000000000E+00  0.82811249748E+03  0.82811249749E+03  0.50400000000E-02 0. -1.
         -1   -1    0    0    0  501 -0.00000000000E+00 -0.00000000000E+00 -0.11501325226E+04  0.11501325226E+04  0.50400000000E-02 0.  1.
    8880023    1    1    2    0    0 -0.60327526607E+03 -0.14441784513E+02  0.43876144916E+03  0.99522431005E+03  0.65864270000E+03 0. -1.
    8880022    1    1    2    0    0  0.60327526607E+03  0.14441784513E+02 -0.76078147430E+03  0.98302071007E+03  0.15294330000E+03 0.  0.
<mgrwt>
<rscale>  0 0.81617376E+03</rscale>
<asrwt>0</asrwt>
<pdfrwt beam="1">  1        1 0.12740192E+00 0.89328597E+03</pdfrwt>
<pdfrwt beam="2">  1       -1 0.17694347E+00 0.89328597E+03</pdfrwt>
<totfact> 0.46499046E+00</totfact>
</mgrwt>
</event>
<event>
 4    1  0.8114601E-008  0.9652359E+03  0.7818608E-02  0.9428524E-01
         -1   -1    0    0    0  501 -0.00000000000E+00  0.00000000000E+00  0.98648413372E+03  0.98648413373E+03  0.50400000000E-02 0.  1.
          1   -1    0    0  501    0  0.00000000000E+00 -0.00000000000E+00 -0.73719999139E+03  0.73719999141E+03  0.50400000000E-02 0. -1.
    8880023    1    1    2    0    0 -0.27914007046E+03  0.64803630073E+03  0.26699487617E+03  0.10014822496E+04  0.65864270000E+03 0.  1.
    8880022    1    1    2    0    0  0.27914007046E+03 -0.64803630073E+03 -0.17710733842E+02  0.72220187559E+03  0.15294330000E+03 0.  0.
<mgrwt>
<rscale>  0 0.89765016E+03</rscale>
<asrwt>0</asrwt>
<pdfrwt beam="1">  1        1 0.11341538E+00 0.96523595E+03</pdfrwt>
<pdfrwt beam="2">  1       -1 0.15176679E+00 0.96523595E+03</pdfrwt>
<totfact> 0.85545439E+00</totfact>
</mgrwt>
</event>
<event>
 4    1  0.8114601E-008  0.1649985E+04  0.7818608E-02  0.8810399E-01
          1   -1    0    0  501    0  0.00000000000E+00  0.00000000000E+00  0.15583030615E+04  0.15583030615E+04  0.50400000000E-02 0. -1.
         -1   -1    0    0    0  501 -0.00000000000E+00 -0.00000000000E+00 -0.22939148955E+04  0.22939148955E+04  0.50400000000E-02 0.  1.
    8880023    1    1    2    0    0 -0.14071041346E+04  0.55560650027E+03  0.67065809177E+03  0.17810763911E+04  0.65864270000E+03 0.  0.
    8880022    1    1    2    0    0  0.14071041346E+04 -0.55560650027E+03 -0.14062699257E+04  0.20711415658E+04  0.15294330000E+03 0.  0.
<mgrwt>
<rscale>  0 0.16166249E+04</rscale>
<asrwt>0</asrwt>
<pdfrwt beam="1">  1        1 0.23973893E+00 0.16499851E+04</pdfrwt>
<pdfrwt beam="2">  1       -1 0.35290998E+00 0.16499851E+04</pdfrwt>
<totfact> 0.82310508E-02</totfact>
</mgrwt>
</event>
<event>
 4    1  0.8114601E-008  0.1582350E+04  0.7818608E-02  0.8853573E-01
         -1   -1    0    0    0  501 -0.00000000000E+00  0.00000000000E+00  0.10411026235E+04  0.10411026235E+04  0.50400000000E-02 0.  1.
          1   -1    0    0  501    0  0.00000000000E+00 -0.00000000000E+00 -0.24858426305E+04  0.24858426305E+04  0.50400000000E-02 0. -1.
    8880023    1    1    2    0    0 -0.13954432937E+04 -0.35036922979E+03 -0.13448393217E+04  0.20766375684E+04  0.65864270000E+03 0.  0.
    8880022    1    1    2    0    0  0.13954432937E+04  0.35036922979E+03 -0.99900685217E+02  0.14503076856E+04  0.15294330000E+03 0.  0.
<mgrwt>
<rscale>  0 0.15473327E+04</rscale>
<asrwt>0</asrwt>
<pdfrwt beam="1">  1        1 0.38243733E+00 0.15823498E+04</pdfrwt>
<pdfrwt beam="2">  1       -1 0.16016963E+00 0.15823498E+04</pdfrwt>
<totfact> 0.37961412E-01</totfact>
</mgrwt>
</event>
<event>
 4    1  0.8114601E-008  0.7268037E+03  0.7818608E-02  0.9900203E-01
          1   -1    0    0  501    0  0.00000000000E+00  0.00000000000E+00  0.24138922674E+04  0.24138922675E+04  0.50400000000E-02 0. -1.
         -1   -1    0    0    0  501 -0.00000000000E+00 -0.00000000000E+00 -0.49864611138E+03  0.49864611140E+03  0.50400000000E-02 0.  1.
    8880023    1    1    2    0    0  0.25450229351E+03 -0.17222654043E+03  0.22910466195E+04  0.24035678100E+04  0.65864270000E+03 0. -1.
    8880022    1    1    2    0    0 -0.25450229351E+03  0.17222654043E+03 -0.37580046339E+03  0.50897056882E+03  0.15294330000E+03 0.  0.
<mgrwt>
<rscale>  0 0.60251456E+03</rscale>
<asrwt>0</asrwt>
<pdfrwt beam="1">  1        1 0.37136803E+00 0.72680369E+03</pdfrwt>
<pdfrwt beam="2">  1       -1 0.76714789E-01 0.72680369E+03</pdfrwt>
<totfact> 0.28226935E+00</totfact>
</mgrwt>
</event>
<event>
 4    1  0.8114601E-008  0.9807338E+03  0.7818608E-02  0.9407209E-01
         -1   -1    0    0    0  501 -0.00000000000E+00  0.00000000000E+00  0.14808934020E+04  0.14808934020E+04  0.50400000000E-02 0.  1.
          1   -1    0    0  501    0  0.00000000000E+00 -0.00000000000E+00 -0.84236818686E+03  0.84236818687E+03  0.50400000000E-02 0. -1.
    8880023    1    1    2    0    0 -0.30669043461E+03  0.65876360302E+03 -0.38936687585E+03  0.10551991649E+04  0.65864270000E+03 0. -1.
    8880022    1    1    2    0    0  0.30669043461E+03 -0.65876360302E+03  0.10278920910E+04  0.12680624239E+04  0.15294330000E+03 0.  0.
<mgrwt>
<rscale>  0 0.91484744E+03</rscale>
<asrwt>0</asrwt>
<pdfrwt beam="1">  1        1 0.12959511E+00 0.98073376E+03</pdfrwt>
<pdfrwt beam="2">  1       -1 0.22782975E+00 0.98073376E+03</pdfrwt>
<totfact> 0.20004526E+00</totfact>
</mgrwt>
</event>
<event>
 4    1  0.8114601E-008  0.1014712E+04  0.7818608E-02  0.9362558E-01
          1   -1    0    0  501    0  0.00000000000E+00  0.00000000000E+00  0.25221741716E+04  0.25221741716E+04  0.50400000000E-02 0. -1.
         -1   -1    0    0    0  501 -0.00000000000E+00 -0.00000000000E+00 -0.50210927272E+03  0.50210927275E+03  0.50400000000E-02 0.  1.
    8880023    1    1    2    0    0 -0.38398762634E+02 -0.77094476779E+03  0.19935434847E+04  0.22369300685E+04  0.65864270000E+03 0. -1.
    8880022    1    1    2    0    0  0.38398762634E+02  0.77094476779E+03  0.26521414173E+02  0.78735337579E+03  0.15294330000E+03 0.  1.
<mgrwt>
<rscale>  0 0.95222132E+03</rscale>
<asrwt>0</asrwt>
<pdfrwt beam="1">  1        1 0.38802679E+00 0.10147120E+04</pdfrwt>
<pdfrwt beam="2">  1       -1 0.77247582E-01 0.10147120E+04</pdfrwt>
<totfact> 0.22343392E+00</totfact>
</mgrwt>
</event>
<event>
 4    1  0.8114601E-008  0.8386532E+03  0.7818608E-02  0.9632725E-01
          1   -1    0    0  501    0  0.00000000000E+00  0.00000000000E+00  0.65535168021E+03  0.65535168023E+03  0.50400000000E-02 0. -1.
         -1   -1    0    0    0  501 -0.00000000000E+00 -0.00000000000E+00 -0.12764104512E+04  0.12764104512E+04  0.50400000000E-02 0.  1.
    8880023    1    1    2    0    0 -0.50661611087E+03 -0.11344205738E+03  0.27700877868E+03  0.88321744429E+03  0.65864270000E+03 0. -1.
    8880022    1    1    2    0    0  0.50661611087E+03  0.11344205738E+03 -0.89806754969E+03  0.10485446872E+04  0.15294330000E+03 0.  0.
<mgrwt>
<rscale>  0 0.75167577E+03</rscale>
<asrwt>0</asrwt>
<pdfrwt beam="1">  1        1 0.10082334E+00 0.83865320E+03</pdfrwt>
<pdfrwt beam="2">  1       -1 0.19637084E+00 0.83865320E+03</pdfrwt>
<totfact> 0.49107252E+00</totfact>
</mgrwt>
</event>
<event>
 4    1  0.8114601E-008  0.1101827E+04  0.7818608E-02  0.9259025E-01
         -1   -1    0    0    0  501 -0.00000000000E+00  0.00000000000E+00  0.53821793094E+03  0.53821793097E+03  0.50400000000E-02 0.  1.
          1   -1    0    0  501    0  0.00000000000E+00 -0.00000000000E+00 -0.19451502303E+04  0.19451502303E+04  0.50400000000E-02 0. -1.
    8880023    1    1    2    0    0  0.29593786540E+03  0.83224578427E+03 -0.50610062633E+03  0.12125016766E+04  0.65864270000E+03 0.  1.
    8880022    1    1    2    0    0 -0.29593786540E+03 -0.83224578427E+03 -0.90083167300E+03  0.12708664846E+04  0.15294330000E+03 0. -1.
<mgrwt>
<rscale>  0 0.10464423E+04</rscale>
<asrwt>0</asrwt>
<pdfrwt beam="1">  1        1 0.29925388E+00 0.11018269E+04</pdfrwt>
<pdfrwt beam="2">  1       -1 0.82802759E-01 0.11018269E+04</pdfrwt>
<totfact> 0.46956017E+00</totfact>
</mgrwt>
</event>
<event>
 4    1  0.8114601E-008  0.6675218E+03  0.7818608E-02  0.1017505E+00
         -1   -1    0    0    0  501 -0.00000000000E+00  0.00000000000E+00  0.21554630093E+03  0.21554630099E+03  0.50400000000E-02 0.  1.
          1   -1    0    0  501    0  0.00000000000E+00 -0.00000000000E+00 -0.13932211836E+04  0.13932211836E+04  0.50400000000E-02 0. -1.
    8880023    1    1    2    0    0  0.84092291840E+02  0.68582730085E+02 -0.12424115435E+04  0.14103800034E+04  0.65864270000E+03 0. -1.
    8880022    1    1    2    0    0 -0.84092291840E+02 -0.68582730085E+02  0.64736660826E+02  0.19838748116E+03  0.15294330000E+03 0.  0.
<mgrwt>
<rscale>  0 0.48597689E+03</rscale>
<asrwt>0</asrwt>
<pdfrwt beam="1">  1        1 0.21434171E+00 0.66752177E+03</pdfrwt>
<pdfrwt beam="2">  1       -1 0.33160970E-01 0.66752177E+03</pdfrwt>
<totfact> 0.68606836E+01</totfact>
</mgrwt>
</event>
<event>
 4    1  0.8114601E-008  0.7055117E+03  0.7818608E-02  0.9975061E-01
         -1   -1    0    0    0  501 -0.00000000000E+00  0.00000000000E+00  0.20825675649E+04  0.20825675649E+04  0.50400000000E-02 0.  1.
          1   -1    0    0  501    0  0.00000000000E+00 -0.00000000000E+00 -0.13762450858E+03  0.13762450867E+03  0.50400000000E-02 0. -1.
    8880023    1    1    2    0    0  0.23428729635E+02  0.25176912806E+03  0.95666472208E+03  0.11886774987E+04  0.65864270000E+03 0. -1.
    8880022    1    1    2    0    0 -0.23428729635E+02 -0.25176912806E+03  0.98827833422E+03  0.10315145748E+04  0.15294330000E+03 0.  0.
<mgrwt>
<rscale>  0 0.56757404E+03</rscale>
<asrwt>0</asrwt>
<pdfrwt beam="1">  1        1 0.21173002E-01 0.70551173E+03</pdfrwt>
<pdfrwt beam="2">  1       -1 0.32039500E+00 0.70551173E+03</pdfrwt>
<totfact> 0.62337076E+00</totfact>
</mgrwt>
</event>
<event>
 4    1  0.8114601E-008  0.7004843E+03  0.7818608E-02  0.9995198E-01
          1   -1    0    0  501    0  0.00000000000E+00  0.00000000000E+00  0.84587552562E+03  0.84587552563E+03  0.50400000000E-02 0. -1.
         -1   -1    0    0    0  501 -0.00000000000E+00 -0.00000000000E+00 -0.62362635669E+03  0.62362635671E+03  0.50400000000E-02 0.  1.
    8880023    1    1    2    0    0 -0.18081509553E+03  0.15547970672E+03  0.65055366065E+03  0.95598028726E+03  0.65864270000E+03 0. -1.
    8880022    1    1    2    0    0  0.18081509553E+03 -0.15547970672E+03 -0.42830449172E+03  0.51352159508E+03  0.15294330000E+03 0.  0.
<mgrwt>
<rscale>  0 0.55861293E+03</rscale>
<asrwt>0</asrwt>
<pdfrwt beam="1">  1        1 0.13013470E+00 0.70048429E+03</pdfrwt>
<pdfrwt beam="2">  1       -1 0.95942517E-01 0.70048429E+03</pdfrwt>
<totfact> 0.21850842E+01</totfact>
</mgrwt>
</event>
<event>
 4    1  0.8114601E-008  0.6934801E+03  0.7818608E-02  0.1002540E+00
         -1   -1    0    0    0  501 -0.00000000000E+00  0.00000000000E+00  0.50776304563E+03  0.50776304565E+03  0.50400000000E-02 0.  1.
          1   -1    0    0  501    0  0.00000000000E+00 -0.00000000000E+00 -0.12731132718E+04  0.12731132718E+04  0.50400000000E-02 0. -1.
    8880023    1    1    2    0    0  0.21335334638E+03 -0.39809156697E+02 -0.11323941514E+04  0.13278671393E+04  0.65864270000E+03 0. -1.
    8880022    1    1    2    0    0 -0.21335334638E+03  0.39809156697E+02  0.36704392524E+03  0.45300917810E+03  0.15294330000E+03 0.  0.
<mgrwt>
<rscale>  0 0.54550170E+03</rscale>
<asrwt>0</asrwt>
<pdfrwt beam="1">  1        1 0.19586358E+00 0.69348008E+03</pdfrwt>
<pdfrwt beam="2">  1       -1 0.78117392E-01 0.69348008E+03</pdfrwt>
<totfact> 0.16156896E+01</totfact>
</mgrwt>
</event>
<event>
 4    1  0.8114601E-008  0.9002508E+03  0.7818608E-02  0.9525629E-01
          1   -1    0    0  501    0  0.00000000000E+00  0.00000000000E+00  0.22023003364E+04  0.22023003364E+04  0.50400000000E-02 0. -1.
         -1   -1    0    0    0  501 -0.00000000000E+00 -0.00000000000E+00 -0.58038488404E+03  0.58038488406E+03  0.50400000000E-02 0.  1.
    8880023    1    1    2    0    0 -0.60106119192E+03  0.12396254218E+03  0.18917611788E+04  0.20950445895E+04  0.65864270000E+03 0. -1.
    8880022    1    1    2    0    0  0.60106119192E+03 -0.12396254218E+03 -0.26984572639E+03  0.68764063097E+03  0.15294330000E+03 0.  0.
<mgrwt>
<rscale>  0 0.82420377E+03</rscale>
<asrwt>0</asrwt>
<pdfrwt beam="1">  1        1 0.33881543E+00 0.90025078E+03</pdfrwt>
<pdfrwt beam="2">  1       -1 0.89289983E-01 0.90025078E+03</pdfrwt>
<totfact> 0.27463642E+00</totfact>
</mgrwt>
</event>
<event>
 4    1  0.8114601E-008  0.1053429E+04  0.7818608E-02  0.9314770E-01
         -1   -1    0    0    0  501 -0.00000000000E+00  0.00000000000E+00  0.57309882084E+03  0.57309882087E+03  0.50400000000E-02 0.  1.
          1   -1    0    0  501    0  0.00000000000E+00 -0.00000000000E+00 -0.22539886740E+04  0.22539886740E+04  0.50400000000E-02 0. -1.
    8880023    1    1    2    0    0 -0.27447216761E+03 -0.77496316143E+03 -0.16892603601E+04  0.19908072842E+04  0.65864270000E+03 0.  0.
    8880022    1    1    2    0    0  0.27447216761E+03  0.77496316143E+03  0.83705069461E+01  0.83628021067E+03  0.15294330000E+03 0.  0.
<mgrwt>
<rscale>  0 0.99434371E+03</rscale>
<asrwt>0</asrwt>
<pdfrwt beam="1">  1        1 0.34676748E+00 0.10534292E+04</pdfrwt>
<pdfrwt beam="2">  1       -1 0.88169050E-01 0.10534292E+04</pdfrwt>
<totfact> 0.25477968E+00</totfact>
</mgrwt>
</event>
<event>
 4    1  0.8114601E-008  0.8026036E+03  0.7818608E-02  0.9705195E-01
         -1   -1    0    0    0  501 -0.00000000000E+00  0.00000000000E+00  0.61713228807E+03  0.61713228809E+03  0.50400000000E-02 0.  1.
          1   -1    0    0  501    0  0.00000000000E+00 -0.00000000000E+00 -0.88848912042E+03  0.88848912043E+03  0.50400000000E-02 0. -1.
    8880023    1    1    2    0    0 -0.41072980992E+03  0.20411613296E+03 -0.52557817466E+03  0.95937740042E+03  0.65864270000E+03 0.  0.
    8880022    1    1    2    0    0  0.41072980992E+03 -0.20411613296E+03  0.25422134231E+03  0.54624400810E+03  0.15294330000E+03 0.  0.
<mgrwt>
<rscale>  0 0.70708354E+03</rscale>
<asrwt>0</asrwt>
<pdfrwt beam="1">  1        1 0.13669063E+00 0.80260362E+03</pdfrwt>
<pdfrwt beam="2">  1       -1 0.94943429E-01 0.80260362E+03</pdfrwt>
<totfact> 0.20379273E+01</totfact>
</mgrwt>
</event>
<event>
 4    1  0.8114601E-008  0.1633463E+04  0.7818608E-02  0.8820724E-01
         -1   -1    0    0    0  501 -0.00000000000E+00  0.00000000000E+00  0.90018091410E+03  0.90018091411E+03  0.50400000000E-02 0.  1.
          1   -1    0    0  501    0  0.00000000000E+00 -0.00000000000E+00 -0.34501402166E+04  0.34501402166E+04  0.50400000000E-02 0. -1.
    8880023    1    1    2    0    0 -0.73118410221E+03  0.13037482995E+04 -0.23092446847E+04  0.28285704941E+04  0.65864270000E+03 0.  0.
    8880022    1    1    2    0    0  0.73118410221E+03 -0.13037482995E+04 -0.24071461778E+03  0.15217506366E+04  0.15294330000E+03 0.  0.
<mgrwt>
<rscale>  0 0.15997132E+04</rscale>
<asrwt>0</asrwt>
<pdfrwt beam="1">  1        1 0.53079080E+00 0.16334626E+04</pdfrwt>
<pdfrwt beam="2">  1       -1 0.13848937E+00 0.16334626E+04</pdfrwt>
<totfact> 0.11098707E-01</totfact>
</mgrwt>
</event>
<event>
 4    1  0.8114601E-008  0.8447892E+03  0.7818608E-02  0.9621215E-01
         -1   -1    0    0    0  501 -0.00000000000E+00  0.00000000000E+00  0.41587386352E+03  0.41587386356E+03  0.50400000000E-02 0.  1.
          1   -1    0    0  501    0  0.00000000000E+00 -0.00000000000E+00 -0.20288832434E+04  0.20288832434E+04  0.50400000000E-02 0. -1.
    8880023    1    1    2    0    0  0.51719176588E+03 -0.11122654488E+03 -0.16893570404E+04  0.18888081118E+04  0.65864270000E+03 0.  0.
    8880022    1    1    2    0    0 -0.51719176588E+03  0.11122654488E+03  0.76347660493E+02  0.55594899520E+03  0.15294330000E+03 0.  0.
<mgrwt>
<rscale>  0 0.75907806E+03</rscale>
<asrwt>0</asrwt>
<pdfrwt beam="1">  1        1 0.31213588E+00 0.84478925E+03</pdfrwt>
<pdfrwt beam="2">  1       -1 0.63980596E-01 0.84478925E+03</pdfrwt>
<totfact> 0.72885583E+00</totfact>
</mgrwt>
</event>
<event>
 4    1  0.8114601E-008  0.9593374E+03  0.7818608E-02  0.9436805E-01
         -1   -1    0    0    0  501 -0.00000000000E+00  0.00000000000E+00  0.31719990502E+03  0.31719990506E+03  0.50400000000E-02 0.  1.
          1   -1    0    0  501    0  0.00000000000E+00 -0.00000000000E+00 -0.34857139608E+04  0.34857139608E+04  0.50400000000E-02 0. -1.
    8880023    1    1    2    0    0  0.15071541958E+03 -0.68103082815E+03 -0.28750539975E+04  0.30308849898E+04  0.65864270000E+03 0.  0.
    8880022    1    1    2    0    0 -0.15071541958E+03  0.68103082815E+03 -0.29346005819E+03  0.77202887598E+03  0.15294330000E+03 0.  0.
<mgrwt>
<rscale>  0 0.89107696E+03</rscale>
<asrwt>0</asrwt>
<pdfrwt beam="1">  1        1 0.53626366E+00 0.95933744E+03</pdfrwt>
<pdfrwt beam="2">  1       -1 0.48799988E-01 0.95933744E+03</pdfrwt>
<totfact> 0.11278985E+00</totfact>
</mgrwt>
</event>
<event>
 4    1  0.8114601E-008  0.7682787E+03  0.7818608E-02  0.9784128E-01
         -1   -1    0    0    0  501 -0.00000000000E+00  0.00000000000E+00  0.77634974215E+03  0.77634974217E+03  0.50400000000E-02 0.  1.
          1   -1    0    0  501    0  0.00000000000E+00 -0.00000000000E+00 -0.11307231619E+04  0.11307231619E+04  0.50400000000E-02 0. -1.
    8880023    1    1    2    0    0  0.38246478349E+03 -0.10080971034E+03 -0.92097359332E+03  0.11993516891E+04  0.65864270000E+03 0. -1.
    8880022    1    1    2    0    0 -0.38246478349E+03  0.10080971034E+03  0.56660017361E+03  0.70772121493E+03  0.15294330000E+03 0.  0.
<mgrwt>
<rscale>  0 0.66221334E+03</rscale>
<asrwt>0</asrwt>
<pdfrwt beam="1">  1        1 0.17395741E+00 0.76827867E+03</pdfrwt>
<pdfrwt beam="2">  1       -1 0.11943842E+00 0.76827867E+03</pdfrwt>
<totfact> 0.77733440E+00</totfact>
</mgrwt>
</event>
<event>
 4    1  0.8114601E-008  0.7300001E+03  0.7818608E-02  0.9890096E-01
         -1   -1    0    0    0  501 -0.00000000000E+00  0.00000000000E+00  0.15039745106E+03  0.15039745115E+03  0.50400000000E-02 0.  1.
          1   -1    0    0  501    0  0.00000000000E+00 -0.00000000000E+00 -0.21337366724E+04  0.21337366724E+04  0.50400000000E-02 0. -1.
    8880023    1    1    2    0    0  0.19566165577E+03  0.24658974901E+03 -0.16339633293E+04  0.17896190532E+04  0.65864270000E+03 0. -1.
    8880022    1    1    2    0    0 -0.19566165577E+03 -0.24658974901E+03 -0.34937589207E+03  0.49451507038E+03  0.15294330000E+03 0.  0.
<mgrwt>
<rscale>  0 0.60743677E+03</rscale>
<asrwt>0</asrwt>
<pdfrwt beam="1">  1        1 0.32826716E+00 0.73000013E+03</pdfrwt>
<pdfrwt beam="2">  1       -1 0.23138071E-01 0.73000013E+03</pdfrwt>
<totfact> 0.40177001E+01</totfact>
</mgrwt>
</event>
<event>
 4    1  0.8114601E-008  0.9230345E+03  0.7818608E-02  0.9490022E-01
         -1   -1    0    0    0  501 -0.00000000000E+00  0.00000000000E+00  0.12441852216E+04  0.12441852216E+04  0.50400000000E-02 0.  1.
          1   -1    0    0  501    0  0.00000000000E+00 -0.00000000000E+00 -0.10127485121E+04  0.10127485121E+04  0.50400000000E-02 0. -1.
    8880023    1    1    2    0    0  0.63464164712E+03 -0.12414667191E+03 -0.66746490162E+03  0.11390794606E+04  0.65864270000E+03 0. -1.
    8880022    1    1    2    0    0 -0.63464164712E+03  0.12414667191E+03  0.89890161115E+03  0.11178542731E+04  0.15294330000E+03 0.  0.
<mgrwt>
<rscale>  0 0.85023481E+03</rscale>
<asrwt>0</asrwt>
<pdfrwt beam="1">  1        1 0.15580746E+00 0.92303446E+03</pdfrwt>
<pdfrwt beam="2">  1       -1 0.19141311E+00 0.92303446E+03</pdfrwt>
<totfact> 0.25902577E+00</totfact>
</mgrwt>
</event>
<event>
 4    1  0.8114601E-008  0.9808016E+03  0.7818608E-02  0.9407117E-01
         -1   -1    0    0    0  501 -0.00000000000E+00  0.00000000000E+00  0.46323161428E+03  0.46323161430E+03  0.50400000000E-02 0.  1.
          1   -1    0    0  501    0  0.00000000000E+00 -0.00000000000E+00 -0.19314069622E+04  0.19314069622E+04  0.50400000000E-02 0. -1.
    8880023    1    1    2    0    0 -0.12834469792E+03  0.71532457390E+03 -0.32852373678E+03  0.10343595407E+04  0.65864270000E+03 0.  0.
    8880022    1    1    2    0    0  0.12834469792E+03 -0.71532457390E+03 -0.11396516111E+04  0.13602790358E+04  0.15294330000E+03 0.  0.
<mgrwt>
<rscale>  0 0.91492251E+03</rscale>
<asrwt>0</asrwt>
<pdfrwt beam="1">  1        1 0.29713953E+00 0.98080162E+03</pdfrwt>
<pdfrwt beam="2">  1       -1 0.71266403E-01 0.98080162E+03</pdfrwt>
<totfact> 0.66810478E+00</totfact>
</mgrwt>
</event>
<event>
 4    1  0.8114601E-008  0.6962561E+03  0.7818608E-02  0.1001310E+00
         -1   -1    0    0    0  501 -0.00000000000E+00  0.00000000000E+00  0.14647256524E+04  0.14647256524E+04  0.50400000000E-02 0.  1.
          1   -1    0    0  501    0  0.00000000000E+00 -0.00000000000E+00 -0.59163633133E+03  0.59163633135E+03  0.50400000000E-02 0. -1.
    8880023    1    1    2    0    0  0.19241045065E+03 -0.11807017390E+03 -0.36671475377E+03  0.78692583156E+03  0.65864270000E+03 0. -1.
    8880022    1    1    2    0    0 -0.19241045065E+03  0.11807017390E+03  0.12398040748E+04  0.12694361522E+04  0.15294330000E+03 0.  0.
<mgrwt>
<rscale>  0 0.55079476E+03</rscale>
<asrwt>0</asrwt>
<pdfrwt beam="1">  1        1 0.91020975E-01 0.69625610E+03</pdfrwt>
<pdfrwt beam="2">  1       -1 0.22534241E+00 0.69625610E+03</pdfrwt>
<totfact> 0.37152993E+00</totfact>
</mgrwt>
</event>
<event>
 4    1  0.8114601E-008  0.7510428E+03  0.7818608E-02  0.9828874E-01
          1   -1    0    0  501    0  0.00000000000E+00  0.00000000000E+00  0.10381822590E+04  0.10381822590E+04  0.50400000000E-02 0. -1.
         -1   -1    0    0    0  501 -0.00000000000E+00 -0.00000000000E+00 -0.97393709931E+03  0.97393709932E+03  0.50400000000E-02 0.  1.
    8880023    1    1    2    0    0 -0.35978067131E+03 -0.28512511077E+02  0.84984915675E+03  0.11341555847E+04  0.65864270000E+03 0. -1.
    8880022    1    1    2    0    0  0.35978067131E+03  0.28512511077E+02 -0.78560399704E+03  0.87796377369E+03  0.15294330000E+03 0.  0.
<mgrwt>
<rscale>  0 0.63835746E+03</rscale>
<asrwt>0</asrwt>
<pdfrwt beam="1">  1        1 0.15972035E+00 0.75104281E+03</pdfrwt>
<pdfrwt beam="2">  1       -1 0.14983648E+00 0.75104281E+03</pdfrwt>
<totfact> 0.51258971E+00</totfact>
</mgrwt>
</event>
<event>
 4    1  0.8114601E-008  0.1114843E+04  0.7818608E-02  0.9244707E-01
         -1   -1    0    0    0  501 -0.00000000000E+00  0.00000000000E+00  0.70965794791E+03  0.70965794793E+03  0.50400000000E-02 0.  1.
          1   -1    0    0  501    0  0.00000000000E+00 -0.00000000000E+00 -0.20884743048E+04  0.20884743048E+04  0.50400000000E-02 0. -1.
    8880023    1    1    2    0    0 -0.71543313815E+03  0.54518001199E+03 -0.15093653656E+04  0.18764487293E+04  0.65864270000E+03 0.  0.
    8880022    1    1    2    0    0  0.71543313815E+03 -0.54518001199E+03  0.13054900872E+03  0.92168352341E+03  0.15294330000E+03 0.  0.
<mgrwt>
<rscale>  0 0.10603657E+04</rscale>
<asrwt>0</asrwt>
<pdfrwt beam="1">  1        1 0.32130374E+00 0.11148435E+04</pdfrwt>
<pdfrwt beam="2">  1       -1 0.10917815E+00 0.11148435E+04</pdfrwt>
<totfact> 0.20087275E+00</totfact>
</mgrwt>
</event>
<event>
 4    1  0.8114601E-008  0.7146963E+03  0.7818608E-02  0.9940958E-01
         -1   -1    0    0    0  501 -0.00000000000E+00  0.00000000000E+00  0.11613475386E+04  0.11613475386E+04  0.50400000000E-02 0.  1.
          1   -1    0    0  501    0  0.00000000000E+00 -0.00000000000E+00 -0.75395594342E+03  0.75395594343E+03  0.50400000000E-02 0. -1.
    8880023    1    1    2    0    0 -0.18620756805E+03 -0.20568748887E+03 -0.55322158540E+03  0.90379473903E+03  0.65864270000E+03 0. -1.
    8880022    1    1    2    0    0  0.18620756805E+03  0.20568748887E+03  0.96061318061E+03  0.10115087430E+04  0.15294330000E+03 0.  0.
<mgrwt>
<rscale>  0 0.58316690E+03</rscale>
<asrwt>0</asrwt>
<pdfrwt beam="1">  1        1 0.11599322E+00 0.71469630E+03</pdfrwt>
<pdfrwt beam="2">  1       -1 0.17866885E+00 0.71469630E+03</pdfrwt>
<totfact> 0.53790910E+00</totfact>
</mgrwt>
</event>
<event>
 4    1  0.8114601E-008  0.1452700E+04  0.7818608E-02  0.8943779E-01
          1   -1    0    0  501    0  0.00000000000E+00  0.00000000000E+00  0.17508292087E+04  0.17508292087E+04  0.50400000000E-02 0. -1.
         -1   -1    0    0    0  501 -0.00000000000E+00 -0.00000000000E+00 -0.18771619678E+04  0.18771619678E+04  0.50400000000E-02 0.  1.
    8880023    1    1    2    0    0  0.59391379135E+03  0.11505626420E+04  0.11122932862E+04  0.18296268870E+04  0.65864270000E+03 0. -1.
    8880022    1    1    2    0    0 -0.59391379135E+03 -0.11505626420E+04 -0.12386260452E+04  0.17983642895E+04  0.15294330000E+03 0.  0.
<mgrwt>
<rscale>  0 0.14139549E+04</rscale>
<asrwt>0</asrwt>
<pdfrwt beam="1">  1        1 0.26935834E+00 0.14527003E+04</pdfrwt>
<pdfrwt beam="2">  1       -1 0.28879415E+00 0.14527003E+04</pdfrwt>
<totfact> 0.16312892E-01</totfact>
</mgrwt>
</event>
<event>
 4    1  0.8114601E-008  0.1396083E+04  0.7818608E-02  0.8986732E-01
         -1   -1    0    0    0  501 -0.00000000000E+00  0.00000000000E+00  0.11987029078E+04  0.11987029078E+04  0.50400000000E-02 0.  1.
          1   -1    0    0  501    0  0.00000000000E+00 -0.00000000000E+00 -0.17922130919E+04  0.17922130919E+04  0.50400000000E-02 0. -1.
    8880023    1    1    2    0    0  0.11463683803E+04 -0.44841756784E+03 -0.96374772819E+03  0.16964252617E+04  0.65864270000E+03 0.  0.
    8880022    1    1    2    0    0 -0.11463683803E+04  0.44841756784E+03  0.37023754411E+03  0.12944907380E+04  0.15294330000E+03 0.  0.
<mgrwt>
<rscale>  0 0.13554245E+04</rscale>
<asrwt>0</asrwt>
<pdfrwt beam="1">  1        1 0.27572509E+00 0.13960834E+04</pdfrwt>
<pdfrwt beam="2">  1       -1 0.18441583E+00 0.13960834E+04</pdfrwt>
<totfact> 0.76441718E-01</totfact>
</mgrwt>
</event>
<event>
 4    1  0.8114601E-008  0.7457574E+03  0.7818608E-02  0.9843483E-01
         -1   -1    0    0    0  501 -0.00000000000E+00  0.00000000000E+00  0.25779292566E+03  0.25779292571E+03  0.50400000000E-02 0.  1.
          1   -1    0    0  501    0  0.00000000000E+00 -0.00000000000E+00 -0.39223175673E+04  0.39223175673E+04  0.50400000000E-02 0. -1.
    8880023    1    1    2    0    0  0.13206974262E+03 -0.32388486887E+03 -0.37202952550E+04  0.37943050505E+04  0.65864270000E+03 0.  0.
    8880022    1    1    2    0    0 -0.13206974262E+03  0.32388486887E+03  0.55770613344E+02  0.38580544258E+03  0.15294330000E+03 0.  0.
<mgrwt>
<rscale>  0 0.63080310E+03</rscale>
<asrwt>0</asrwt>
<pdfrwt beam="1">  1        1 0.60343343E+00 0.74575735E+03</pdfrwt>
<pdfrwt beam="2">  1       -1 0.39660453E-01 0.74575735E+03</pdfrwt>
<totfact> 0.76763314E-01</totfact>
</mgrwt>
</event>
<event>
 4    1  0.8114601E-008  0.8164318E+03  0.7818608E-02  0.9676332E-01
          1   -1    0    0  501    0  0.00000000000E+00  0.00000000000E+00  0.83741632073E+03  0.83741632074E+03  0.50400000000E-02 0. -1.
         -1   -1    0    0    0  501 -0.00000000000E+00 -0.00000000000E+00 -0.59321294914E+03  0.59321294916E+03  0.50400000000E-02 0.  1.
    8880023    1    1    2    0    0  0.27184724578E+03 -0.39855963730E+03  0.38878740397E+03  0.90427681673E+03  0.65864270000E+03 0.  0.
    8880022    1    1    2    0    0 -0.27184724578E+03  0.39855963730E+03 -0.14458403238E+03  0.52635245317E+03  0.15294330000E+03 0.  0.
<mgrwt>
<rscale>  0 0.72443616E+03</rscale>
<asrwt>0</asrwt>
<pdfrwt beam="1">  1        1 0.12883328E+00 0.81643182E+03</pdfrwt>
<pdfrwt beam="2">  1       -1 0.91263531E-01 0.81643182E+03</pdfrwt>
<totfact> 0.24510121E+01</totfact>
</mgrwt>
</event>
<event>
 4    1  0.8114601E-008  0.7151808E+03  0.7818608E-02  0.9939243E-01
         -1   -1    0    0    0  501 -0.00000000000E+00  0.00000000000E+00  0.53268012736E+03  0.53268012738E+03  0.50400000000E-02 0.  1.
          1   -1    0    0  501    0  0.00000000000E+00 -0.00000000000E+00 -0.75435378809E+03  0.75435378810E+03  0.50400000000E-02 0. -1.
    8880023    1    1    2    0    0  0.15467580432E+03  0.23183769632E+03 -0.49336536215E+03  0.86884573355E+03  0.65864270000E+03 0. -1.
    8880022    1    1    2    0    0 -0.15467580432E+03 -0.23183769632E+03  0.27169170142E+03  0.41818818193E+03  0.15294330000E+03 0.  0.
<mgrwt>
<rscale>  0 0.58396518E+03</rscale>
<asrwt>0</asrwt>
<pdfrwt beam="1">  1        1 0.11605443E+00 0.71518077E+03</pdfrwt>
<pdfrwt beam="2">  1       -1 0.81950789E-01 0.71518077E+03</pdfrwt>
<totfact> 0.36958628E+01</totfact>
</mgrwt>
</event>
<event>
 4    1  0.8114601E-008  0.6781351E+03  0.7818608E-02  0.1010399E+00
         -1   -1    0    0    0  501 -0.00000000000E+00  0.00000000000E+00  0.30263130919E+03  0.30263130923E+03  0.50400000000E-02 0.  1.
          1   -1    0    0  501    0  0.00000000000E+00 -0.00000000000E+00 -0.44088121114E+04  0.44088121114E+04  0.50400000000E-02 0. -1.
    8880023    1    1    2    0    0 -0.14123459227E+03 -0.78165411018E+02 -0.43377242580E+04  0.43904121659E+04  0.65864270000E+03 0. -1.
    8880022    1    1    2    0    0  0.14123459227E+03  0.78165411018E+02  0.23154345585E+03  0.32103125470E+03  0.15294330000E+03 0.  0.
<mgrwt>
<rscale>  0 0.51316442E+03</rscale>
<asrwt>0</asrwt>
<pdfrwt beam="1">  1        1 0.67827874E+00 0.67813513E+03</pdfrwt>
<pdfrwt beam="2">  1       -1 0.46558666E-01 0.67813513E+03</pdfrwt>
<totfact> 0.21164641E-01</totfact>
</mgrwt>
</event>
<event>
 4    1  0.8114601E-008  0.6892166E+03  0.7818608E-02  0.1004527E+00
         -1   -1    0    0    0  501 -0.00000000000E+00  0.00000000000E+00  0.83822240998E+03  0.83822241000E+03  0.50400000000E-02 0.  1.
          1   -1    0    0  501    0  0.00000000000E+00 -0.00000000000E+00 -0.99097318895E+03  0.99097318896E+03  0.50400000000E-02 0. -1.
    8880023    1    1    2    0    0  0.11241741155E+03 -0.16903141880E+03 -0.84577470578E+03  0.10910336173E+04  0.65864270000E+03 0. -1.
    8880022    1    1    2    0    0 -0.11241741155E+03  0.16903141880E+03  0.69302392681E+03  0.73816198162E+03  0.15294330000E+03 0.  0.
<mgrwt>
<rscale>  0 0.53708949E+03</rscale>
<asrwt>0</asrwt>
<pdfrwt beam="1">  1        1 0.15245741E+00 0.68921659E+03</pdfrwt>
<pdfrwt beam="2">  1       -1 0.12895729E+00 0.68921659E+03</pdfrwt>
<totfact> 0.83020427E+00</totfact>
</mgrwt>
</event>
<event>
 4    1  0.8114601E-008  0.1514148E+04  0.7818608E-02  0.8899710E-01
          1   -1    0    0  501    0  0.00000000000E+00  0.00000000000E+00  0.18054283884E+04  0.18054283884E+04  0.50400000000E-02 0. -1.
         -1   -1    0    0    0  501 -0.00000000000E+00 -0.00000000000E+00 -0.13323420114E+04  0.13323420114E+04  0.50400000000E-02 0.  1.
    8880023    1    1    2    0    0  0.13317376266E+04  0.29207663187E+03 -0.32772664489E+03  0.15492090966E+04  0.65864270000E+03 0.  0.
    8880022    1    1    2    0    0 -0.13317376266E+04 -0.29207663187E+03  0.80081302189E+03  0.15885613032E+04  0.15294330000E+03 0.  0.
<mgrwt>
<rscale>  0 0.14772711E+04</rscale>
<asrwt>0</asrwt>
<pdfrwt beam="1">  1        1 0.27775821E+00 0.15141480E+04</pdfrwt>
<pdfrwt beam="2">  1       -1 0.20497569E+00 0.15141480E+04</pdfrwt>
<totfact> 0.53061288E-01</totfact>
</mgrwt>
</event>
<event>
 4    1  0.8114601E-008  0.9625769E+03  0.7818608E-02  0.9432245E-01
          1   -1    0    0  501    0  0.00000000000E+00  0.00000000000E+00  0.77634777894E+03  0.77634777896E+03  0.50400000000E-02 0. -1.
         -1   -1    0    0    0  501 -0.00000000000E+00 -0.00000000000E+00 -0.10302253169E+04  0.10302253169E+04  0.50400000000E-02 0.  1.
    8880023    1    1    2    0    0  0.32206400485E+02 -0.70121815009E+03  0.16251657935E+03  0.97619977006E+03  0.65864270000E+03 0. -1.
    8880022    1    1    2    0    0 -0.32206400485E+02  0.70121815009E+03 -0.41639411728E+03  0.83037332578E+03  0.15294330000E+03 0.  0.
<mgrwt>
<rscale>  0 0.89468897E+03</rscale>
<asrwt>0</asrwt>
<pdfrwt beam="1">  1        1 0.11943812E+00 0.96257693E+03</pdfrwt>
<pdfrwt beam="2">  1       -1 0.15849620E+00 0.96257693E+03</pdfrwt>
<totfact> 0.70047269E+00</totfact>
</mgrwt>
</event>
<event>
 4    1  0.8114601E-008  0.7490803E+03  0.7818608E-02  0.9834245E-01
         -1   -1    0    0    0  501 -0.00000000000E+00  0.00000000000E+00  0.25965453103E+03  0.25965453108E+03  0.50400000000E-02 0.  1.
          1   -1    0    0  501    0  0.00000000000E+00 -0.00000000000E+00 -0.15512773695E+04  0.15512773695E+04  0.50400000000E-02 0. -1.
    8880023    1    1    2    0    0  0.13802709621E+03 -0.32902826332E+03 -0.11958446142E+04  0.14110866823E+04  0.65864270000E+03 0. -1.
    8880022    1    1    2    0    0 -0.13802709621E+03  0.32902826332E+03 -0.95778224304E+02  0.39984521833E+03  0.15294330000E+03 0.  0.
<mgrwt>
<rscale>  0 0.63556712E+03</rscale>
<asrwt>0</asrwt>
<pdfrwt beam="1">  1        1 0.23865805E+00 0.74908029E+03</pdfrwt>
<pdfrwt beam="2">  1       -1 0.39946852E-01 0.74908029E+03</pdfrwt>
<totfact> 0.37940380E+01</totfact>
</mgrwt>
</event>
<event>
 4    1  0.9304282E-008  0.1740002E+04  0.7818608E-02  0.8756472E-01
         -1   -1    0    0    0  501 -0.00000000000E+00  0.00000000000E+00  0.18263635466E+04  0.18263635466E+04  0.50400000000E-02 0.  1.
          1   -1    0    0  501    0  0.00000000000E+00 -0.00000000000E+00 -0.28295390238E+04  0.28295390238E+04  0.50400000000E-02 0. -1.
    8880023    1    1    2    0    0  0.14497977431E+03  0.16039880135E+04 -0.20805236419E+04  0.27122288829E+04  0.65864270000E+03 0.  0.
    8880022    1    1    2    0    0 -0.14497977431E+03 -0.16039880135E+04  0.10773481647E+04  0.19436736875E+04  0.15294330000E+03 0.  0.
<mgrwt>
<rscale>  0 0.17086050E+04</rscale>
<asrwt>0</asrwt>
<pdfrwt beam="1">  1        1 0.43531370E+00 0.17400020E+04</pdfrwt>
<pdfrwt beam="2">  1       -1 0.28097901E+00 0.17400020E+04</pdfrwt>
<totfact> 0.31841874E-02</totfact>
</mgrwt>
</event>
<event>
 4    1  0.8114601E-008  0.1007012E+04  0.7818608E-02  0.9372441E-01
         -1   -1    0    0    0  501 -0.00000000000E+00  0.00000000000E+00  0.19269144320E+04  0.19269144321E+04  0.50400000000E-02 0.  1.
          1   -1    0    0  501    0  0.00000000000E+00 -0.00000000000E+00 -0.77109095642E+03  0.77109095644E+03  0.50400000000E-02 0. -1.
    8880023    1    1    2    0    0 -0.45241834534E+03  0.61284566617E+03 -0.29749880502E+03  0.10500371017E+04  0.65864270000E+03 0.  0.
    8880022    1    1    2    0    0  0.45241834534E+03 -0.61284566617E+03  0.14533222806E+04  0.16479682868E+04  0.15294330000E+03 0.  0.
<mgrwt>
<rscale>  0 0.94378778E+03</rscale>
<asrwt>0</asrwt>
<pdfrwt beam="1">  1        1 0.11862938E+00 0.10070116E+04</pdfrwt>
<pdfrwt beam="2">  1       -1 0.29644837E+00 0.10070116E+04</pdfrwt>
<totfact> 0.82659854E-01</totfact>
</mgrwt>
</event>
<event>
 4    1  0.8114601E-008  0.1006761E+04  0.7818608E-02  0.9372765E-01
         -1   -1    0    0    0  501 -0.00000000000E+00  0.00000000000E+00  0.21526489205E+04  0.21526489205E+04  0.50400000000E-02 0.  1.
          1   -1    0    0  501    0  0.00000000000E+00 -0.00000000000E+00 -0.67367480870E+03  0.67367480872E+03  0.50400000000E-02 0. -1.
    8880023    1    1    2    0    0  0.22233062289E+03 -0.72823591230E+03 -0.15362596648E+03  0.10184152364E+04  0.65864270000E+03 0. -1.
    8880022    1    1    2    0    0 -0.22233062289E+03  0.72823591230E+03  0.16326000782E+04  0.18079084928E+04  0.15294330000E+03 0.  0.
<mgrwt>
<rscale>  0 0.94351349E+03</rscale>
<asrwt>0</asrwt>
<pdfrwt beam="1">  1        1 0.10364228E+00 0.10067615E+04</pdfrwt>
<pdfrwt beam="2">  1       -1 0.33117675E+00 0.10067615E+04</pdfrwt>
<totfact> 0.60724111E-01</totfact>
</mgrwt>
</event>
<event>
 4    1  0.8287942E-008  0.7818143E+03  0.7818608E-02  0.9751592E-01
         -1   -1    0    0    0  501 -0.00000000000E+00  0.00000000000E+00  0.10293195786E+04  0.10293195786E+04  0.50400000000E-02 0.  1.
          1   -1    0    0  501    0  0.00000000000E+00 -0.00000000000E+00 -0.19675787519E+04  0.19675787519E+04  0.50400000000E-02 0. -1.
    8880023    1    1    2    0    0 -0.67574626025E+02  0.41576073185E+03 -0.18348977657E+04  0.19945133074E+04  0.65864270000E+03 0. -1.
    8880022    1    1    2    0    0  0.67574626025E+02 -0.41576073185E+03  0.89663859239E+03  0.10023850231E+04  0.15294330000E+03 0.  0.
<mgrwt>
<rscale>  0 0.68026354E+03</rscale>
<asrwt>0</asrwt>
<pdfrwt beam="1">  1        1 0.30270442E+00 0.78181425E+03</pdfrwt>
<pdfrwt beam="2">  1       -1 0.15835686E+00 0.78181425E+03</pdfrwt>
<totfact> 0.99114291E-01</totfact>
</mgrwt>
</event>
<event>
 4    1  0.8114601E-008  0.9898154E+03  0.7818608E-02  0.9395005E-01
         -1   -1    0    0    0  501 -0.00000000000E+00  0.00000000000E+00  0.17223606402E+04  0.17223606402E+04  0.50400000000E-02 0.  1.
          1   -1    0    0  501    0  0.00000000000E+00 -0.00000000000E+00 -0.73850395025E+03  0.73850395027E+03  0.50400000000E-02 0. -1.
    8880023    1    1    2    0    0  0.67421468281E+03 -0.30225631253E+03 -0.24423488331E+03  0.10195024284E+04  0.65864270000E+03 0.  0.
    8880022    1    1    2    0    0 -0.67421468281E+03  0.30225631253E+03  0.12280915732E+04  0.14413621621E+04  0.15294330000E+03 0.  0.
<mgrwt>
<rscale>  0 0.92487880E+03</rscale>
<asrwt>0</asrwt>
<pdfrwt beam="1">  1        1 0.11361599E+00 0.98981540E+03</pdfrwt>
<pdfrwt beam="2">  1       -1 0.26497856E+00 0.98981540E+03</pdfrwt>
<totfact> 0.14127908E+00</totfact>
</mgrwt>
</event>
<event>
 4    1  0.8114601E-008  0.7542779E+03  0.7818608E-02  0.9820153E-01
         -1   -1    0    0    0  501 -0.00000000000E+00  0.00000000000E+00  0.38002297569E+03  0.38002297573E+03  0.50400000000E-02 0.  1.
          1   -1    0    0  501    0  0.00000000000E+00 -0.00000000000E+00 -0.19202883344E+04  0.19202883344E+04  0.50400000000E-02 0. -1.
    8880023    1    1    2    0    0  0.31288383931E+02 -0.36625940340E+03 -0.17088765143E+04  0.18679384521E+04  0.65864270000E+03 0.  0.
    8880022    1    1    2    0    0 -0.31288383931E+02  0.36625940340E+03  0.16861115558E+03  0.43237285801E+03  0.15294330000E+03 0.  0.
<mgrwt>
<rscale>  0 0.64292137E+03</rscale>
<asrwt>0</asrwt>
<pdfrwt beam="1">  1        1 0.29542897E+00 0.75427788E+03</pdfrwt>
<pdfrwt beam="2">  1       -1 0.58465074E-01 0.75427788E+03</pdfrwt>
<totfact> 0.10443696E+01</totfact>
</mgrwt>
</event>
<event>
 4    1  0.8114601E-008  0.8217541E+03  0.7818608E-02  0.9665594E-01
          1   -1    0    0  501    0  0.00000000000E+00  0.00000000000E+00  0.24821170461E+04  0.24821170461E+04  0.50400000000E-02 0. -1.
         -1   -1    0    0    0  501 -0.00000000000E+00 -0.00000000000E+00 -0.75953893722E+03  0.75953893724E+03  0.50400000000E-02 0.  1.
    8880023    1    1    2    0    0  0.48700212245E+03 -0.65563579157E+02  0.23152285180E+04  0.24567382740E+04  0.65864270000E+03 0. -1.
    8880022    1    1    2    0    0 -0.48700212245E+03  0.65563579157E+02 -0.59265040905E+03  0.78491770940E+03  0.15294330000E+03 0.  0.
<mgrwt>
<rscale>  0 0.73102754E+03</rscale>
<asrwt>0</asrwt>
<pdfrwt beam="1">  1        1 0.38186416E+00 0.82175413E+03</pdfrwt>
<pdfrwt beam="2">  1       -1 0.11685214E+00 0.82175413E+03</pdfrwt>
<totfact> 0.96801206E-01</totfact>
</mgrwt>
</event>
<event>
 4    1  0.8114601E-008  0.9136767E+03  0.7818608E-02  0.9504423E-01
         -1   -1    0    0    0  501 -0.00000000000E+00  0.00000000000E+00  0.45376314272E+03  0.45376314275E+03  0.50400000000E-02 0.  1.
          1   -1    0    0  501    0  0.00000000000E+00 -0.00000000000E+00 -0.14497780383E+04  0.14497780383E+04  0.50400000000E-02 0. -1.
    8880023    1    1    2    0    0  0.62147320856E+03 -0.12151533818E+03 -0.82256176310E+03  0.12293953745E+04  0.65864270000E+03 0.  0.
    8880022    1    1    2    0    0 -0.62147320856E+03  0.12151533818E+03 -0.17345313248E+03  0.67414580660E+03  0.15294330000E+03 0.  0.
<mgrwt>
<rscale>  0 0.83958490E+03</rscale>
<asrwt>0</asrwt>
<pdfrwt beam="1">  1        1 0.22304277E+00 0.91367671E+03</pdfrwt>
<pdfrwt beam="2">  1       -1 0.69809715E-01 0.91367671E+03</pdfrwt>
<totfact> 0.14927504E+01</totfact>
</mgrwt>
</event>
<event>
 4    1  0.8114601E-008  0.6849075E+03  0.7818608E-02  0.1006674E+00
          1   -1    0    0  501    0  0.00000000000E+00  0.00000000000E+00  0.91814445770E+03  0.91814445772E+03  0.50400000000E-02 0. -1.
         -1   -1    0    0    0  501 -0.00000000000E+00 -0.00000000000E+00 -0.40294270672E+03  0.40294270675E+03  0.50400000000E-02 0.  1.
    8880023    1    1    2    0    0  0.17130826689E+03  0.77081423244E+02  0.72736111294E+03  0.99907580443E+03  0.65864270000E+03 0. -1.
    8880022    1    1    2    0    0 -0.17130826689E+03 -0.77081423244E+02 -0.21215936196E+03  0.32201136004E+03  0.15294330000E+03 0.  0.
<mgrwt>
<rscale>  0 0.52818364E+03</rscale>
<asrwt>0</asrwt>
<pdfrwt beam="1">  1        1 0.14125299E+00 0.68490749E+03</pdfrwt>
<pdfrwt beam="2">  1       -1 0.61991186E-01 0.68490749E+03</pdfrwt>
<totfact> 0.47837537E+01</totfact>
</mgrwt>
</event>
<event>
 4    1  0.8114601E-008  0.7724052E+03  0.7818608E-02  0.9773989E-01
         -1   -1    0    0    0  501 -0.00000000000E+00  0.00000000000E+00  0.26487879396E+03  0.26487879400E+03  0.50400000000E-02 0.  1.
          1   -1    0    0  501    0  0.00000000000E+00 -0.00000000000E+00 -0.24119409110E+04  0.24119409110E+04  0.50400000000E-02 0. -1.
    8880023    1    1    2    0    0 -0.76309467688E+02  0.39620253505E+03 -0.21062296405E+04  0.22433932086E+04  0.65864270000E+03 0. -1.
    8880022    1    1    2    0    0  0.76309467688E+02 -0.39620253505E+03 -0.40832476560E+02  0.43342649642E+03  0.15294330000E+03 0.  0.
<mgrwt>
<rscale>  0 0.66777291E+03</rscale>
<asrwt>0</asrwt>
<pdfrwt beam="1">  1        1 0.37106782E+00 0.77240520E+03</pdfrwt>
<pdfrwt beam="2">  1       -1 0.40750585E-01 0.77240520E+03</pdfrwt>
<totfact> 0.96227795E+00</totfact>
</mgrwt>
</event>
<event>
 4    1  0.8114601E-008  0.8805106E+03  0.7818608E-02  0.9558072E-01
         -1   -1    0    0    0  501 -0.00000000000E+00  0.00000000000E+00  0.58180566491E+03  0.58180566493E+03  0.50400000000E-02 0.  1.
          1   -1    0    0  501    0  0.00000000000E+00 -0.00000000000E+00 -0.21714198945E+04  0.21714198945E+04  0.50400000000E-02 0. -1.
    8880023    1    1    2    0    0 -0.56298744400E+03  0.15663287932E+03 -0.18852278832E+04  0.20807169675E+04  0.65864270000E+03 0. -1.
    8880022    1    1    2    0    0  0.56298744400E+03 -0.15663287932E+03  0.29561365362E+03  0.67250859192E+03  0.15294330000E+03 0.  0.
<mgrwt>
<rscale>  0 0.80134542E+03</rscale>
<asrwt>0</asrwt>
<pdfrwt beam="1">  1        1 0.33406460E+00 0.88051061E+03</pdfrwt>
<pdfrwt beam="2">  1       -1 0.89508565E-01 0.88051061E+03</pdfrwt>
<totfact> 0.28746081E+00</totfact>
</mgrwt>
</event>
<event>
 4    1  0.8114601E-008  0.7808678E+03  0.7818608E-02  0.9753802E-01
          1   -1    0    0  501    0  0.00000000000E+00  0.00000000000E+00  0.24579763953E+04  0.24579763953E+04  0.50400000000E-02 0. -1.
         -1   -1    0    0    0  501 -0.00000000000E+00 -0.00000000000E+00 -0.10037067182E+04  0.10037067182E+04  0.50400000000E-02 0.  1.
    8880023    1    1    2    0    0 -0.41549295683E+03  0.57532110814E+02  0.23415950806E+04  0.24683642496E+04  0.65864270000E+03 0.  0.
    8880022    1    1    2    0    0  0.41549295683E+03 -0.57532110814E+02 -0.88732540347E+03  0.99331886401E+03  0.15294330000E+03 0.  1.
<mgrwt>
<rscale>  0 0.67901811E+03</rscale>
<asrwt>0</asrwt>
<pdfrwt beam="1">  1        1 0.37815021E+00 0.78086782E+03</pdfrwt>
<pdfrwt beam="2">  1       -1 0.15441642E+00 0.78086782E+03</pdfrwt>
<totfact> 0.49668572E-01</totfact>
</mgrwt>
</event>
<event>
 4    1  0.8114601E-008  0.6822861E+03  0.7818608E-02  0.1008059E+00
         -1   -1    0    0    0  501 -0.00000000000E+00  0.00000000000E+00  0.46205982795E+03  0.46205982798E+03  0.50400000000E-02 0.  1.
          1   -1    0    0  501    0  0.00000000000E+00 -0.00000000000E+00 -0.20079866620E+04  0.20079866620E+04  0.50400000000E-02 0. -1.
    8880023    1    1    2    0    0 -0.14307997014E+03  0.10598227708E+03 -0.19148553092E+04  0.20327777011E+04  0.65864270000E+03 0. -1.
    8880022    1    1    2    0    0  0.14307997014E+03 -0.10598227708E+03  0.36892847514E+03  0.43726878884E+03  0.15294330000E+03 0.  0.
<mgrwt>
<rscale>  0 0.52253415E+03</rscale>
<asrwt>0</asrwt>
<pdfrwt beam="1">  1        1 0.30892102E+00 0.68228610E+03</pdfrwt>
<pdfrwt beam="2">  1       -1 0.71086128E-01 0.68228610E+03</pdfrwt>
<totfact> 0.62449898E+00</totfact>
</mgrwt>
</event>
<event>
 4    1  0.8114601E-008  0.8913359E+03  0.7818608E-02  0.9540086E-01
         -1   -1    0    0    0  501 -0.00000000000E+00  0.00000000000E+00  0.68375416791E+03  0.68375416793E+03  0.50400000000E-02 0.  1.
          1   -1    0    0  501    0  0.00000000000E+00 -0.00000000000E+00 -0.12759178669E+04  0.12759178669E+04  0.50400000000E-02 0. -1.
    8880023    1    1    2    0    0  0.59503323086E+03  0.81270300681E+02 -0.90088247895E+03  0.12673077190E+04  0.65864270000E+03 0.  0.
    8880022    1    1    2    0    0 -0.59503323086E+03 -0.81270300681E+02  0.30871878000E+03  0.69236431576E+03  0.15294330000E+03 0.  0.
<mgrwt>
<rscale>  0 0.81391878E+03</rscale>
<asrwt>0</asrwt>
<pdfrwt beam="1">  1        1 0.19629506E+00 0.89133586E+03</pdfrwt>
<pdfrwt beam="2">  1       -1 0.10519295E+00 0.89133586E+03</pdfrwt>
<totfact> 0.81128552E+00</totfact>
</mgrwt>
</event>
<event>
 4    1  0.8114601E-008  0.1327312E+04  0.7818608E-02  0.9042326E-01
         -1   -1    0    0    0  501 -0.00000000000E+00  0.00000000000E+00  0.90865721942E+03  0.90865721944E+03  0.50400000000E-02 0.  1.
          1   -1    0    0  501    0  0.00000000000E+00 -0.00000000000E+00 -0.32965573984E+04  0.32965573984E+04  0.50400000000E-02 0. -1.
    8880023    1    1    2    0    0  0.53367258761E+03 -0.10213421555E+04 -0.26939029251E+04  0.30031432543E+04  0.65864270000E+03 0.  0.
    8880022    1    1    2    0    0 -0.53367258761E+03  0.10213421555E+04  0.30600274619E+03  0.12020713635E+04  0.15294330000E+03 0.  0.
<mgrwt>
<rscale>  0 0.12840301E+04</rscale>
<asrwt>0</asrwt>
<pdfrwt beam="1">  1        1 0.50716267E+00 0.13273117E+04</pdfrwt>
<pdfrwt beam="2">  1       -1 0.13979342E+00 0.13273117E+04</pdfrwt>
<totfact> 0.14791107E-01</totfact>
</mgrwt>
</event>
<event>
 4    1  0.8114601E-008  0.1165652E+04  0.7818608E-02  0.9191256E-01
          1   -1    0    0  501    0  0.00000000000E+00  0.00000000000E+00  0.16458085775E+04  0.16458085776E+04  0.50400000000E-02 0. -1.
         -1   -1    0    0    0  501 -0.00000000000E+00 -0.00000000000E+00 -0.91708273146E+03  0.91708273147E+03  0.50400000000E-02 0.  1.
    8880023    1    1    2    0    0  0.87424680970E+03  0.40078335114E+03  0.10173772982E+04  0.15471915046E+04  0.65864270000E+03 0.  0.
    8880022    1    1    2    0    0 -0.87424680970E+03 -0.40078335114E+03 -0.28865145212E+03  0.10156998044E+04  0.15294330000E+03 0.  0.
<mgrwt>
<rscale>  0 0.11144138E+04</rscale>
<asrwt>0</asrwt>
<pdfrwt beam="1">  1        1 0.25320131E+00 0.11656522E+04</pdfrwt>
<pdfrwt beam="2">  1       -1 0.14108965E+00 0.11656522E+04</pdfrwt>
<totfact> 0.21013785E+00</totfact>
</mgrwt>
</event>
<event>
 4    1  0.8114601E-008  0.7159037E+03  0.7818608E-02  0.9936698E-01
         -1   -1    0    0    0  501 -0.00000000000E+00  0.00000000000E+00  0.11044715927E+04  0.11044715927E+04  0.50400000000E-02 0.  1.
          1   -1    0    0  501    0  0.00000000000E+00 -0.00000000000E+00 -0.47376783367E+03  0.47376783369E+03  0.50400000000E-02 0. -1.
    8880023    1    1    2    0    0  0.11561946248E+03  0.25561701679E+03 -0.15284943860E+03  0.73203898566E+03  0.65864270000E+03 0. -1.
    8880022    1    1    2    0    0 -0.11561946248E+03 -0.25561701679E+03  0.78355319760E+03  0.84620044071E+03  0.15294330000E+03 0.  0.
<mgrwt>
<rscale>  0 0.58515235E+03</rscale>
<asrwt>0</asrwt>
<pdfrwt beam="1">  1        1 0.72887360E-01 0.71590371E+03</pdfrwt>
<pdfrwt beam="2">  1       -1 0.16991870E+00 0.71590371E+03</pdfrwt>
<totfact> 0.12156857E+01</totfact>
</mgrwt>
</event>
<event>
 4    1  0.8114601E-008  0.9115640E+03  0.7818608E-02  0.9507717E-01
          1   -1    0    0  501    0  0.00000000000E+00  0.00000000000E+00  0.18834812503E+04  0.18834812503E+04  0.50400000000E-02 0. -1.
         -1   -1    0    0    0  501 -0.00000000000E+00 -0.00000000000E+00 -0.66488971894E+03  0.66488971896E+03  0.50400000000E-02 0.  1.
    8880023    1    1    2    0    0  0.27142665105E+03 -0.56874103589E+03  0.15665259417E+04  0.18124437992E+04  0.65864270000E+03 0. -1.
    8880022    1    1    2    0    0 -0.27142665105E+03  0.56874103589E+03 -0.34793441035E+03  0.73592717012E+03  0.15294330000E+03 0.  0.
<mgrwt>
<rscale>  0 0.83717272E+03</rscale>
<asrwt>0</asrwt>
<pdfrwt beam="1">  1        1 0.28976635E+00 0.91156404E+03</pdfrwt>
<pdfrwt beam="2">  1       -1 0.10229073E+00 0.91156404E+03</pdfrwt>
<totfact> 0.33066264E+00</totfact>
</mgrwt>
</event>
<event>
 4    1  0.8114601E-008  0.7984658E+03  0.7818608E-02  0.9714123E-01
         -1   -1    0    0    0  501 -0.00000000000E+00  0.00000000000E+00  0.68381895853E+03  0.68381895855E+03  0.50400000000E-02 0.  1.
          1   -1    0    0  501    0  0.00000000000E+00 -0.00000000000E+00 -0.19688905224E+04  0.19688905224E+04  0.50400000000E-02 0. -1.
    8880023    1    1    2    0    0 -0.25849753620E+03  0.37002229535E+03 -0.17890099254E+04  0.19591080099E+04  0.65864270000E+03 0.  0.
    8880022    1    1    2    0    0  0.25849753620E+03 -0.37002229535E+03  0.50393836155E+03  0.69360147097E+03  0.15294330000E+03 0.  1.
<mgrwt>
<rscale>  0 0.70182099E+03</rscale>
<asrwt>0</asrwt>
<pdfrwt beam="1">  1        1 0.30290623E+00 0.79846583E+03</pdfrwt>
<pdfrwt beam="2">  1       -1 0.10520292E+00 0.79846583E+03</pdfrwt>
<totfact> 0.27656852E+00</totfact>
</mgrwt>
</event>
<event>
 4    1  0.8114601E-008  0.1071181E+04  0.7818608E-02  0.9293842E-01
          1   -1    0    0  501    0  0.00000000000E+00  0.00000000000E+00  0.15859061067E+04  0.15859061067E+04  0.50400000000E-02 0. -1.
         -1   -1    0    0    0  501 -0.00000000000E+00 -0.00000000000E+00 -0.66716097993E+03  0.66716097995E+03  0.50400000000E-02 0.  1.
    8880023    1    1    2    0    0 -0.28984281978E+03  0.79347913838E+03  0.11549627633E+03  0.10773892515E+04  0.65864270000E+03 0.  0.
    8880022    1    1    2    0    0  0.28984281978E+03 -0.79347913838E+03  0.80324885045E+03  0.11756778351E+04  0.15294330000E+03 0.  0.
<mgrwt>
<rscale>  0 0.10135174E+04</rscale>
<asrwt>0</asrwt>
<pdfrwt beam="1">  1        1 0.24398556E+00 0.10711808E+04</pdfrwt>
<pdfrwt beam="2">  1       -1 0.10264015E+00 0.10711808E+04</pdfrwt>
<totfact> 0.51109089E+00</totfact>
</mgrwt>
</event>
<event>
 4    1  0.8114601E-008  0.1469051E+04  0.7818608E-02  0.8931805E-01
          1   -1    0    0  501    0  0.00000000000E+00  0.00000000000E+00  0.30256216209E+04  0.30256216209E+04  0.50400000000E-02 0. -1.
         -1   -1    0    0    0  501 -0.00000000000E+00 -0.00000000000E+00 -0.98270864960E+03  0.98270864961E+03  0.50400000000E-02 0.  1.
    8880023    1    1    2    0    0 -0.12202590534E+04  0.48504487468E+03 -0.11941500794E+03  0.14738964815E+04  0.65864270000E+03 0.  0.
    8880022    1    1    2    0    0  0.12202590534E+04 -0.48504487468E+03  0.21623279792E+04  0.25344337889E+04  0.15294330000E+03 0.  0.
<mgrwt>
<rscale>  0 0.14308226E+04</rscale>
<asrwt>0</asrwt>
<pdfrwt beam="1">  1        1 0.46548024E+00 0.14690510E+04</pdfrwt>
<pdfrwt beam="2">  1       -1 0.15118595E+00 0.14690510E+04</pdfrwt>
<totfact> 0.18689366E-01</totfact>
</mgrwt>
</event>
<event>
 4    1  0.8114601E-008  0.7994249E+03  0.7818608E-02  0.9712041E-01
         -1   -1    0    0    0  501 -0.00000000000E+00  0.00000000000E+00  0.74633715576E+03  0.74633715578E+03  0.50400000000E-02 0.  1.
          1   -1    0    0  501    0  0.00000000000E+00 -0.00000000000E+00 -0.12429084156E+04  0.12429084156E+04  0.50400000000E-02 0. -1.
    8880023    1    1    2    0    0  0.42958223229E+03  0.14397619700E+03 -0.10096924030E+04  0.12878505327E+04  0.65864270000E+03 0.  0.
    8880022    1    1    2    0    0 -0.42958223229E+03 -0.14397619700E+03  0.51312114322E+03  0.70139503865E+03  0.15294330000E+03 0.  0.
<mgrwt>
<rscale>  0 0.70304391E+03</rscale>
<asrwt>0</asrwt>
<pdfrwt beam="1">  1        1 0.19121668E+00 0.79942495E+03</pdfrwt>
<pdfrwt beam="2">  1       -1 0.11482110E+00 0.79942495E+03</pdfrwt>
<totfact> 0.70520235E+00</totfact>
</mgrwt>
</event>
<event>
 4    1  0.8114601E-008  0.6713260E+03  0.7818608E-02  0.1014730E+00
         -1   -1    0    0    0  501 -0.00000000000E+00  0.00000000000E+00  0.18878930551E+03  0.18878930558E+03  0.50400000000E-02 0.  1.
          1   -1    0    0  501    0  0.00000000000E+00 -0.00000000000E+00 -0.11043159779E+04  0.11043159779E+04  0.50400000000E-02 0. -1.
    8880023    1    1    2    0    0  0.42286154430E+02 -0.12280201899E+03 -0.84764055015E+03  0.10812831097E+04  0.65864270000E+03 0. -1.
    8880022    1    1    2    0    0 -0.42286154430E+02  0.12280201899E+03 -0.67886122264E+02  0.21182217385E+03  0.15294330000E+03 0.  0.
<mgrwt>
<rscale>  0 0.49637453E+03</rscale>
<asrwt>0</asrwt>
<pdfrwt beam="1">  1        1 0.16989476E+00 0.67132605E+03</pdfrwt>
<pdfrwt beam="2">  1       -1 0.29044509E-01 0.67132605E+03</pdfrwt>
<totfact> 0.13907251E+02</totfact>
</mgrwt>
</event>
<event>
 4    1  0.8114601E-008  0.6713705E+03  0.7818608E-02  0.1014699E+00
          1   -1    0    0  501    0  0.00000000000E+00  0.00000000000E+00  0.15336043451E+04  0.15336043451E+04  0.50400000000E-02 0. -1.
         -1   -1    0    0    0  501 -0.00000000000E+00 -0.00000000000E+00 -0.58286240823E+03  0.58286240825E+03  0.50400000000E-02 0.  1.
    8880023    1    1    2    0    0  0.11984875274E+03  0.50640669390E+02  0.14393391125E+04  0.15882177080E+04  0.65864270000E+03 0. -1.
    8880022    1    1    2    0    0 -0.11984875274E+03 -0.50640669390E+02 -0.48859717561E+03  0.52824904539E+03  0.15294330000E+03 0.  0.
<mgrwt>
<rscale>  0 0.49649123E+03</rscale>
<asrwt>0</asrwt>
<pdfrwt beam="1">  1        1 0.23593913E+00 0.67137054E+03</pdfrwt>
<pdfrwt beam="2">  1       -1 0.89671141E-01 0.67137054E+03</pdfrwt>
<totfact> 0.79563156E+00</totfact>
</mgrwt>
</event>
<event>
 4    1  0.8114601E-008  0.1141198E+04  0.7818608E-02  0.9216517E-01
         -1   -1    0    0    0  501 -0.00000000000E+00  0.00000000000E+00  0.80477505713E+03  0.80477505715E+03  0.50400000000E-02 0.  1.
          1   -1    0    0  501    0  0.00000000000E+00 -0.00000000000E+00 -0.22086270489E+04  0.22086270489E+04  0.50400000000E-02 0. -1.
    8880023    1    1    2    0    0 -0.88341154382E+03 -0.29682586555E+03  0.19375622924E+03  0.11575289339E+04  0.65864270000E+03 0.  1.
    8880022    1    1    2    0    0  0.88341154382E+03  0.29682586555E+03 -0.15976082210E+04  0.18558731721E+04  0.15294330000E+03 0.  0.
<mgrwt>
<rscale>  0 0.10884561E+04</rscale>
<asrwt>0</asrwt>
<pdfrwt beam="1">  1        1 0.33978877E+00 0.11411975E+04</pdfrwt>
<pdfrwt beam="2">  1       -1 0.12381155E+00 0.11411975E+04</pdfrwt>
<totfact> 0.12236022E+00</totfact>
</mgrwt>
</event>
<event>
 4    1  0.8114601E-008  0.1496745E+04  0.7818608E-02  0.8911938E-01
          1   -1    0    0  501    0  0.00000000000E+00  0.00000000000E+00  0.97274417753E+03  0.97274417754E+03  0.50400000000E-02 0. -1.
         -1   -1    0    0    0  501 -0.00000000000E+00 -0.00000000000E+00 -0.27127890870E+04  0.27127890870E+04  0.50400000000E-02 0.  1.
    8880023    1    1    2    0    0 -0.86820385221E+03  0.10259913309E+04 -0.19460295905E+02  0.14968717545E+04  0.65864270000E+03 0.  0.
    8880022    1    1    2    0    0  0.86820385221E+03 -0.10259913309E+04 -0.17205846136E+04  0.21886615100E+04  0.15294330000E+03 0.  0.
<mgrwt>
<rscale>  0 0.14593592E+04</rscale>
<asrwt>0</asrwt>
<pdfrwt beam="1">  1        1 0.14965295E+00 0.14967453E+04</pdfrwt>
<pdfrwt beam="2">  1       -1 0.41735216E+00 0.14967453E+04</pdfrwt>
<totfact> 0.82411655E-02</totfact>
</mgrwt>
</event>
<event>
 4    1  0.8114601E-008  0.6852663E+03  0.7818608E-02  0.1006489E+00
         -1   -1    0    0    0  501 -0.00000000000E+00  0.00000000000E+00  0.10538469746E+04  0.10538469747E+04  0.50400000000E-02 0.  1.
          1   -1    0    0  501    0  0.00000000000E+00 -0.00000000000E+00 -0.19635304166E+04  0.19635304166E+04  0.50400000000E-02 0. -1.
    8880023    1    1    2    0    0  0.47546563703E+01  0.18909560016E+03 -0.18883965114E+04  0.20088880863E+04  0.65864270000E+03 0.  0.
    8880022    1    1    2    0    0 -0.47546563703E+01 -0.18909560016E+03  0.97871306948E+03  0.10084893049E+04  0.15294330000E+03 0.  1.
<mgrwt>
<rscale>  0 0.52894259E+03</rscale>
<asrwt>0</asrwt>
<pdfrwt beam="1">  1        1 0.30208160E+00 0.68526634E+03</pdfrwt>
<pdfrwt beam="2">  1       -1 0.16213030E+00 0.68526634E+03</pdfrwt>
<totfact> 0.95435226E-01</totfact>
</mgrwt>
</event>
<event>
 4    1  0.8114601E-008  0.9694219E+03  0.7818608E-02  0.9422704E-01
         -1   -1    0    0    0  501 -0.00000000000E+00  0.00000000000E+00  0.36881953832E+03  0.36881953836E+03  0.50400000000E-02 0.  1.
          1   -1    0    0  501    0  0.00000000000E+00 -0.00000000000E+00 -0.30146125419E+04  0.30146125419E+04  0.50400000000E-02 0. -1.
    8880023    1    1    2    0    0 -0.62726231482E+03 -0.33542600516E+03 -0.24427194297E+04  0.26280519468E+04  0.65864270000E+03 0.  0.
    8880022    1    1    2    0    0  0.62726231482E+03  0.33542600516E+03 -0.20307357380E+03  0.75538013339E+03  0.15294330000E+03 0.  0.
<mgrwt>
<rscale>  0 0.90230536E+03</rscale>
<asrwt>0</asrwt>
<pdfrwt beam="1">  1        1 0.46378653E+00 0.96942190E+03</pdfrwt>
<pdfrwt beam="2">  1       -1 0.56741469E-01 0.96942190E+03</pdfrwt>
<totfact> 0.18947414E+00</totfact>
</mgrwt>
</event>
<event>
 4    1  0.8114601E-008  0.6632035E+03  0.7818608E-02  0.1021091E+00
         -1   -1    0    0    0  501 -0.00000000000E+00  0.00000000000E+00  0.36216952996E+04  0.36216952996E+04  0.50400000000E-02 0.  1.
          1   -1    0    0  501    0  0.00000000000E+00 -0.00000000000E+00 -0.33148727268E+03  0.33148727272E+03  0.50400000000E-02 0. -1.
    8880023    1    1    2    0    0 -0.75000213120E+02 -0.20091370318E+02  0.47200362689E+01  0.66322031041E+03  0.65864270000E+03 0. -1.
    8880022    1    1    2    0    0  0.75000213120E+02  0.20091370318E+02  0.32854879906E+04  0.32899622619E+04  0.15294330000E+03 0.  0.
<mgrwt>
<rscale>  0 0.47295094E+03</rscale>
<asrwt>0</asrwt>
<pdfrwt beam="1">  1        1 0.50998041E-01 0.66320351E+03</pdfrwt>
<pdfrwt beam="2">  1       -1 0.55718390E+00 0.66320351E+03</pdfrwt>
<totfact> 0.56097068E-02</totfact>
</mgrwt>
</event>
<event>
 4    1  0.8114601E-008  0.9642294E+03  0.7818608E-02  0.9429930E-01
          1   -1    0    0  501    0  0.00000000000E+00  0.00000000000E+00  0.63937565927E+03  0.63937565929E+03  0.50400000000E-02 0. -1.
         -1   -1    0    0    0  501 -0.00000000000E+00 -0.00000000000E+00 -0.13316989984E+04  0.13316989985E+04  0.50400000000E-02 0.  1.
    8880023    1    1    2    0    0  0.59195856207E+03  0.38146201125E+03  0.10739257009E+02  0.96428924247E+03  0.65864270000E+03 0.  0.
    8880022    1    1    2    0    0 -0.59195856207E+03 -0.38146201125E+03 -0.70306259619E+03  0.10067854153E+04  0.15294330000E+03 0.  0.
<mgrwt>
<rscale>  0 0.89652965E+03</rscale>
<asrwt>0</asrwt>
<pdfrwt beam="1">  1        1 0.98365486E-01 0.96422944E+03</pdfrwt>
<pdfrwt beam="2">  1       -1 0.20487677E+00 0.96422944E+03</pdfrwt>
<totfact> 0.43853245E+00</totfact>
</mgrwt>
</event>
<event>
 4    1  0.8114601E-008  0.1103328E+04  0.7818608E-02  0.9257360E-01
          1   -1    0    0  501    0  0.00000000000E+00  0.00000000000E+00  0.21209030346E+04  0.21209030346E+04  0.50400000000E-02 0. -1.
         -1   -1    0    0    0  501 -0.00000000000E+00 -0.00000000000E+00 -0.60634046590E+03  0.60634046592E+03  0.50400000000E-02 0.  1.
    8880023    1    1    2    0    0 -0.50729261280E+03  0.72537973268E+03  0.14563196823E+04  0.18270738285E+04  0.65864270000E+03 0. -1.
    8880022    1    1    2    0    0  0.50729261280E+03 -0.72537973268E+03  0.58242886426E+02  0.90016967201E+03  0.15294330000E+03 0.  0.
<mgrwt>
<rscale>  0 0.10480493E+04</rscale>
<asrwt>0</asrwt>
<pdfrwt beam="1">  1        1 0.32629278E+00 0.11033276E+04</pdfrwt>
<pdfrwt beam="2">  1       -1 0.93283148E-01 0.11033276E+04</pdfrwt>
<totfact> 0.27486631E+00</totfact>
</mgrwt>
</event>
<event>
 4    1  0.8114601E-008  0.8372315E+03  0.7818608E-02  0.9635423E-01
         -1   -1    0    0    0  501 -0.00000000000E+00  0.00000000000E+00  0.58009865031E+03  0.58009865033E+03  0.50400000000E-02 0.  1.
          1   -1    0    0  501    0  0.00000000000E+00 -0.00000000000E+00 -0.12828306505E+04  0.12828306505E+04  0.50400000000E-02 0. -1.
    8880023    1    1    2    0    0 -0.51113858399E+03 -0.76704998015E+02 -0.95310032894E+03  0.12686042535E+04  0.65864270000E+03 0. -1.
    8880022    1    1    2    0    0  0.51113858399E+03  0.76704998015E+02  0.25036832878E+03  0.59432504728E+03  0.15294330000E+03 0.  0.
<mgrwt>
<rscale>  0 0.74995381E+03</rscale>
<asrwt>0</asrwt>
<pdfrwt beam="1">  1        1 0.19735856E+00 0.83723146E+03</pdfrwt>
<pdfrwt beam="2">  1       -1 0.89245947E-01 0.83723146E+03</pdfrwt>
<totfact> 0.11713395E+01</totfact>
</mgrwt>
</event>
<event>
 4    1  0.1175970E-007  0.8435816E+03  0.7818608E-02  0.9623463E-01
          1   -1    0    0  501    0  0.00000000000E+00  0.00000000000E+00  0.23270311342E+04  0.23270311342E+04  0.50400000000E-02 0. -1.
         -1   -1    0    0    0  501 -0.00000000000E+00 -0.00000000000E+00 -0.15614555258E+04  0.15614555258E+04  0.50400000000E-02 0.  1.
    8880023    1    1    2    0    0  0.46581259661E+03  0.24665432834E+03  0.21981062872E+04  0.23544216251E+04  0.65864270000E+03 0. -1.
    8880022    1    1    2    0    0 -0.46581259661E+03 -0.24665432834E+03 -0.14325306787E+04  0.15340650349E+04  0.15294330000E+03 0.  0.
<mgrwt>
<rscale>  0 0.75762492E+03</rscale>
<asrwt>0</asrwt>
<pdfrwt beam="1">  1        1 0.35800479E+00 0.84358161E+03</pdfrwt>
<pdfrwt beam="2">  1       -1 0.24022393E+00 0.84358161E+03</pdfrwt>
<totfact> 0.15207903E-01</totfact>
</mgrwt>
</event>
<event>
 4    1  0.8114601E-008  0.7291695E+03  0.7818608E-02  0.9892699E-01
          1   -1    0    0  501    0  0.00000000000E+00  0.00000000000E+00  0.22372300841E+04  0.22372300841E+04  0.50400000000E-02 0. -1.
         -1   -1    0    0    0  501 -0.00000000000E+00 -0.00000000000E+00 -0.10439551357E+04  0.10439551358E+04  0.50400000000E-02 0.  1.
    8880023    1    1    2    0    0 -0.28004651290E+03 -0.13947005141E+03  0.21461671237E+04  0.22666542466E+04  0.65864270000E+03 0.  0.
    8880022    1    1    2    0    0  0.28004651290E+03  0.13947005141E+03 -0.95289217539E+03  0.10145309732E+04  0.15294330000E+03 0.  1.
<mgrwt>
<rscale>  0 0.60616431E+03</rscale>
<asrwt>0</asrwt>
<pdfrwt beam="1">  1        1 0.34418924E+00 0.72916949E+03</pdfrwt>
<pdfrwt beam="2">  1       -1 0.16060849E+00 0.72916949E+03</pdfrwt>
<totfact> 0.63610100E-01</totfact>
</mgrwt>
</event>
<event>
 4    1  0.8114601E-008  0.1132046E+04  0.7818608E-02  0.9226188E-01
         -1   -1    0    0    0  501 -0.00000000000E+00  0.00000000000E+00  0.94647561559E+03  0.94647561560E+03  0.50400000000E-02 0.  1.
          1   -1    0    0  501    0  0.00000000000E+00 -0.00000000000E+00 -0.19412575435E+04  0.19412575435E+04  0.50400000000E-02 0. -1.
    8880023    1    1    2    0    0 -0.88181392918E+03 -0.26480744426E+03 -0.14579087488E+04  0.18458133477E+04  0.65864270000E+03 0.  0.
    8880022    1    1    2    0    0  0.88181392918E+03  0.26480744426E+03  0.46312682092E+03  0.10419198115E+04  0.15294330000E+03 0.  0.
<mgrwt>
<rscale>  0 0.10787165E+04</rscale>
<asrwt>0</asrwt>
<pdfrwt beam="1">  1        1 0.29865501E+00 0.11320464E+04</pdfrwt>
<pdfrwt beam="2">  1       -1 0.14561163E+00 0.11320464E+04</pdfrwt>
<totfact> 0.12236048E+00</totfact>
</mgrwt>
</event>
<event>
 4    1  0.8114601E-008  0.6778801E+03  0.7818608E-02  0.1010549E+00
          1   -1    0    0  501    0  0.00000000000E+00  0.00000000000E+00  0.25501523774E+03  0.25501523779E+03  0.50400000000E-02 0. -1.
         -1   -1    0    0    0  501 -0.00000000000E+00 -0.00000000000E+00 -0.79508000463E+03  0.79508000465E+03  0.50400000000E-02 0.  1.
    8880023    1    1    2    0    0  0.77192237597E+02 -0.14054371290E+03 -0.38431038303E+03  0.77924056205E+03  0.65864270000E+03 0.  0.
    8880022    1    1    2    0    0 -0.77192237597E+02  0.14054371290E+03 -0.15575438386E+03  0.27085468039E+03  0.15294330000E+03 0.  0.
<mgrwt>
<rscale>  0 0.51256974E+03</rscale>
<asrwt>0</asrwt>
<pdfrwt beam="1">  1        1 0.39233114E-01 0.67788007E+03</pdfrwt>
<pdfrwt beam="2">  1       -1 0.12232000E+00 0.67788007E+03</pdfrwt>
<totfact> 0.65508522E+01</totfact>
</mgrwt>
</event>
<event>
 4    1  0.8114601E-008  0.9929360E+03  0.7818608E-02  0.9390858E-01
          1   -1    0    0  501    0  0.00000000000E+00  0.00000000000E+00  0.12348029298E+04  0.12348029298E+04  0.50400000000E-02 0. -1.
         -1   -1    0    0    0  501 -0.00000000000E+00 -0.00000000000E+00 -0.13761349325E+04  0.13761349325E+04  0.50400000000E-02 0.  1.
    8880023    1    1    2    0    0 -0.37254469440E+03 -0.64290136239E+03  0.88811213554E+03  0.13321655613E+04  0.65864270000E+03 0.  0.
    8880022    1    1    2    0    0  0.37254469440E+03  0.64290136239E+03 -0.10294441383E+04  0.12787723010E+04  0.15294330000E+03 0.  0.
<mgrwt>
<rscale>  0 0.92831834E+03</rscale>
<asrwt>0</asrwt>
<pdfrwt beam="1">  1        1 0.18996968E+00 0.99293601E+03</pdfrwt>
<pdfrwt beam="2">  1       -1 0.21171307E+00 0.99293601E+03</pdfrwt>
<totfact> 0.12704297E+00</totfact>
</mgrwt>
</event>
<event>
 4    1  0.8114601E-008  0.7429773E+03  0.7818608E-02  0.9851358E-01
         -1   -1    0    0    0  501 -0.00000000000E+00  0.00000000000E+00  0.14030785891E+04  0.14030785891E+04  0.50400000000E-02 0.  1.
          1   -1    0    0  501    0  0.00000000000E+00 -0.00000000000E+00 -0.14708207144E+04  0.14708207144E+04  0.50400000000E-02 0. -1.
    8880023    1    1    2    0    0 -0.77216195545E+02 -0.33502651909E+03 -0.13481592895E+04  0.15393338772E+04  0.65864270000E+03 0. -1.
    8880022    1    1    2    0    0  0.77216195545E+02  0.33502651909E+03  0.12804171643E+04  0.13345654263E+04  0.15294330000E+03 0.  0.
<mgrwt>
<rscale>  0 0.62677741E+03</rscale>
<asrwt>0</asrwt>
<pdfrwt beam="1">  1        1 0.22628011E+00 0.74297733E+03</pdfrwt>
<pdfrwt beam="2">  1       -1 0.21585824E+00 0.74297733E+03</pdfrwt>
<totfact> 0.84949207E-01</totfact>
</mgrwt>
</event>
<event>
 4    1  0.8114601E-008  0.1003343E+04  0.7818608E-02  0.9377197E-01
          1   -1    0    0  501    0  0.00000000000E+00  0.00000000000E+00  0.22356532151E+04  0.22356532151E+04  0.50400000000E-02 0. -1.
         -1   -1    0    0    0  501 -0.00000000000E+00 -0.00000000000E+00 -0.55956372436E+03  0.55956372438E+03  0.50400000000E-02 0.  1.
    8880023    1    1    2    0    0 -0.43468893028E+03 -0.61962230412E+03  0.17523562838E+04  0.20192694267E+04  0.65864270000E+03 0.  0.
    8880022    1    1    2    0    0  0.43468893028E+03  0.61962230412E+03 -0.76266793073E+02  0.77594751280E+03  0.15294330000E+03 0.  0.
<mgrwt>
<rscale>  0 0.93976236E+03</rscale>
<asrwt>0</asrwt>
<pdfrwt beam="1">  1        1 0.34394665E+00 0.10033426E+04</pdfrwt>
<pdfrwt beam="2">  1       -1 0.86086727E-01 0.10033426E+04</pdfrwt>
<totfact> 0.27818883E+00</totfact>
</mgrwt>
</event>
<event>
 4    1  0.8114601E-008  0.7322214E+03  0.7818608E-02  0.9883214E-01
          1   -1    0    0  501    0  0.00000000000E+00  0.00000000000E+00  0.13619511335E+04  0.13619511335E+04  0.50400000000E-02 0. -1.
         -1   -1    0    0    0  501 -0.00000000000E+00 -0.00000000000E+00 -0.45083046399E+03  0.45083046402E+03  0.50400000000E-02 0.  1.
    8880023    1    1    2    0    0 -0.30389190077E+03 -0.99938162828E+02  0.11654767625E+04  0.13764026351E+04  0.65864270000E+03 0. -1.
    8880022    1    1    2    0    0  0.30389190077E+03  0.99938162828E+02 -0.25435609302E+03  0.43637896239E+03  0.15294330000E+03 0.  0.
<mgrwt>
<rscale>  0 0.61081751E+03</rscale>
<asrwt>0</asrwt>
<pdfrwt beam="1">  1        1 0.20953094E+00 0.73222137E+03</pdfrwt>
<pdfrwt beam="2">  1       -1 0.69358535E-01 0.73222137E+03</pdfrwt>
<totfact> 0.17803542E+01</totfact>
</mgrwt>
</event>
<event>
 4    1  0.8114601E-008  0.1142302E+04  0.7818608E-02  0.9215358E-01
          1   -1    0    0  501    0  0.00000000000E+00  0.00000000000E+00  0.17977687913E+04  0.17977687914E+04  0.50400000000E-02 0. -1.
         -1   -1    0    0    0  501 -0.00000000000E+00 -0.00000000000E+00 -0.11313748298E+04  0.11313748298E+04  0.50400000000E-02 0.  1.
    8880023    1    1    2    0    0  0.87567389308E+03 -0.32286122984E+03  0.13453754661E+04  0.17649049526E+04  0.65864270000E+03 0.  0.
    8880022    1    1    2    0    0 -0.87567389308E+03  0.32286122984E+03 -0.67898150461E+03  0.11642386686E+04  0.15294330000E+03 0.  0.
<mgrwt>
<rscale>  0 0.10896309E+04</rscale>
<asrwt>0</asrwt>
<pdfrwt beam="1">  1        1 0.27657981E+00 0.11423022E+04</pdfrwt>
<pdfrwt beam="2">  1       -1 0.17405767E+00 0.11423022E+04</pdfrwt>
<totfact> 0.92864712E-01</totfact>
</mgrwt>
</event>
<event>
 4    1  0.8114601E-008  0.7510253E+03  0.7818608E-02  0.9828922E-01
         -1   -1    0    0    0  501 -0.00000000000E+00  0.00000000000E+00  0.51677947140E+03  0.51677947143E+03  0.50400000000E-02 0.  1.
          1   -1    0    0  501    0  0.00000000000E+00 -0.00000000000E+00 -0.12045456475E+04  0.12045456475E+04  0.50400000000E-02 0. -1.
    8880023    1    1    2    0    0 -0.11861829546E+03  0.34082030018E+03 -0.97837831597E+03  0.12333949540E+04  0.65864270000E+03 0. -1.
    8880022    1    1    2    0    0  0.11861829546E+03 -0.34082030018E+03  0.29061213988E+03  0.48793016497E+03  0.15294330000E+03 0.  0.
<mgrwt>
<rscale>  0 0.63833263E+03</rscale>
<asrwt>0</asrwt>
<pdfrwt beam="1">  1        1 0.18531471E+00 0.75102529E+03</pdfrwt>
<pdfrwt beam="2">  1       -1 0.79504534E-01 0.75102529E+03</pdfrwt>
<totfact> 0.17294943E+01</totfact>
</mgrwt>
</event>
<event>
 4    1  0.8114601E-008  0.6763575E+03  0.7818608E-02  0.1011464E+00
          1   -1    0    0  501    0  0.00000000000E+00  0.00000000000E+00  0.21599985148E+04  0.21599985148E+04  0.50400000000E-02 0. -1.
         -1   -1    0    0    0  501 -0.00000000000E+00 -0.00000000000E+00 -0.17184962481E+03  0.17184962488E+03  0.50400000000E-02 0.  1.
    8880023    1    1    2    0    0 -0.12413466194E+03  0.90773514418E+02  0.20033338850E+04  0.21144280802E+04  0.65864270000E+03 0. -1.
    8880022    1    1    2    0    0  0.12413466194E+03 -0.90773514418E+02 -0.15184994947E+02  0.21742005956E+03  0.15294330000E+03 0.  0.
<mgrwt>
<rscale>  0 0.50896941E+03</rscale>
<asrwt>0</asrwt>
<pdfrwt beam="1">  1        1 0.33230745E+00 0.67635749E+03</pdfrwt>
<pdfrwt beam="2">  1       -1 0.26438405E-01 0.67635749E+03</pdfrwt>
<totfact> 0.30981483E+01</totfact>
</mgrwt>
</event>
<event>
 4    1  0.8114601E-008  0.1026068E+04  0.7818608E-02  0.9348221E-01
          1   -1    0    0  501    0  0.00000000000E+00  0.00000000000E+00  0.91195251555E+03  0.91195251557E+03  0.50400000000E-02 0. -1.
         -1   -1    0    0    0  501 -0.00000000000E+00 -0.00000000000E+00 -0.16181338088E+04  0.16181338088E+04  0.50400000000E-02 0.  1.
    8880023    1    1    2    0    0 -0.77240676556E+03  0.14964002603E+03  0.45233136578E+03  0.11213466099E+04  0.65864270000E+03 0.  0.
    8880022    1    1    2    0    0  0.77240676556E+03 -0.14964002603E+03 -0.11585126590E+04  0.14087397144E+04  0.15294330000E+03 0.  0.
<mgrwt>
<rscale>  0 0.96462232E+03</rscale>
<asrwt>0</asrwt>
<pdfrwt beam="1">  1        1 0.14030039E+00 0.10260675E+04</pdfrwt>
<pdfrwt beam="2">  1       -1 0.24894366E+00 0.10260675E+04</pdfrwt>
<totfact> 0.12657181E+00</totfact>
</mgrwt>
</event>
<event>
 4    1  0.8114601E-008  0.1360317E+04  0.7818608E-02  0.9015148E-01
          1   -1    0    0  501    0  0.00000000000E+00  0.00000000000E+00  0.23611497272E+04  0.23611497272E+04  0.50400000000E-02 0. -1.
         -1   -1    0    0    0  501 -0.00000000000E+00 -0.00000000000E+00 -0.10534691108E+04  0.10534691108E+04  0.50400000000E-02 0.  1.
    8880023    1    1    2    0    0  0.11657882247E+04  0.23997792974E+03  0.16767250020E+04  0.21591360611E+04  0.65864270000E+03 0.  0.
    8880022    1    1    2    0    0 -0.11657882247E+04 -0.23997792974E+03 -0.36904438561E+03  0.12554827769E+04  0.15294330000E+03 0.  0.
<mgrwt>
<rscale>  0 0.13183387E+04</rscale>
<asrwt>0</asrwt>
<pdfrwt beam="1">  1        1 0.36325380E+00 0.13603168E+04</pdfrwt>
<pdfrwt beam="2">  1       -1 0.16207217E+00 0.13603168E+04</pdfrwt>
<totfact> 0.45927008E-01</totfact>
</mgrwt>
</event>
<event>
 4    1  0.8114601E-008  0.1600425E+04  0.7818608E-02  0.8841795E-01
          1   -1    0    0  501    0  0.00000000000E+00  0.00000000000E+00  0.22631340232E+04  0.22631340232E+04  0.50400000000E-02 0. -1.
         -1   -1    0    0    0  501 -0.00000000000E+00 -0.00000000000E+00 -0.11845244216E+04  0.11845244216E+04  0.50400000000E-02 0.  1.
    8880023    1    1    2    0    0  0.56416981778E+03 -0.13450884357E+04 -0.43506572082E+02  0.16010163994E+04  0.65864270000E+03 0.  0.
    8880022    1    1    2    0    0 -0.56416981778E+03  0.13450884357E+04  0.11221161737E+04  0.18466420453E+04  0.15294330000E+03 0.  0.
<mgrwt>
<rscale>  0 0.15658679E+04</rscale>
<asrwt>0</asrwt>
<pdfrwt beam="1">  1        1 0.34817447E+00 0.16004252E+04</pdfrwt>
<pdfrwt beam="2">  1       -1 0.18223453E+00 0.16004252E+04</pdfrwt>
<totfact> 0.37037841E-01</totfact>
</mgrwt>
</event>
<event>
 4    1  0.8114601E-008  0.8069372E+03  0.7818608E-02  0.9695992E-01
         -1   -1    0    0    0  501 -0.00000000000E+00  0.00000000000E+00  0.58983407688E+03  0.58983407690E+03  0.50400000000E-02 0.  1.
          1   -1    0    0  501    0  0.00000000000E+00 -0.00000000000E+00 -0.17037075322E+04  0.17037075322E+04  0.50400000000E-02 0. -1.
    8880023    1    1    2    0    0  0.45335790683E+03 -0.10864611603E+03 -0.14770573507E+04  0.16831060554E+04  0.65864270000E+03 0. -1.
    8880022    1    1    2    0    0 -0.45335790683E+03  0.10864611603E+03  0.36318389545E+03  0.61043555364E+03  0.15294330000E+03 0.  0.
<mgrwt>
<rscale>  0 0.71255902E+03</rscale>
<asrwt>0</asrwt>
<pdfrwt beam="1">  1        1 0.26210885E+00 0.80693716E+03</pdfrwt>
<pdfrwt beam="2">  1       -1 0.90743705E-01 0.80693716E+03</pdfrwt>
<totfact> 0.58154572E+00</totfact>
</mgrwt>
</event>
<event>
 4    1  0.8114601E-008  0.1056465E+04  0.7818608E-02  0.9311150E-01
         -1   -1    0    0    0  501 -0.00000000000E+00  0.00000000000E+00  0.43832254294E+03  0.43832254297E+03  0.50400000000E-02 0.  1.
          1   -1    0    0  501    0  0.00000000000E+00 -0.00000000000E+00 -0.28887096626E+04  0.28887096626E+04  0.50400000000E-02 0. -1.
    8880023    1    1    2    0    0 -0.75157794246E+03 -0.34269355557E+03 -0.22159022296E+04  0.24548607239E+04  0.65864270000E+03 0.  1.
    8880022    1    1    2    0    0  0.75157794246E+03  0.34269355557E+03 -0.23448489004E+03  0.87217148158E+03  0.15294330000E+03 0.  0.
<mgrwt>
<rscale>  0 0.99762856E+03</rscale>
<asrwt>0</asrwt>
<pdfrwt beam="1">  1        1 0.44441686E+00 0.10564651E+04</pdfrwt>
<pdfrwt beam="2">  1       -1 0.67434239E-01 0.10564651E+04</pdfrwt>
<totfact> 0.16308756E+00</totfact>
</mgrwt>
</event>
<event>
 4    1  0.8114601E-008  0.1026274E+04  0.7818608E-02  0.9347963E-01
          1   -1    0    0  501    0  0.00000000000E+00  0.00000000000E+00  0.11452460886E+04  0.11452460886E+04  0.50400000000E-02 0. -1.
         -1   -1    0    0    0  501 -0.00000000000E+00 -0.00000000000E+00 -0.10368444064E+04  0.10368444064E+04  0.50400000000E-02 0.  1.
    8880023    1    1    2    0    0 -0.26231264288E+03  0.74203729509E+03  0.64976604956E+03  0.12146741931E+04  0.65864270000E+03 0.  0.
    8880022    1    1    2    0    0  0.26231264288E+03 -0.74203729509E+03 -0.54136436739E+03  0.96741630191E+03  0.15294330000E+03 0.  0.
<mgrwt>
<rscale>  0 0.96484699E+03</rscale>
<asrwt>0</asrwt>
<pdfrwt beam="1">  1        1 0.17619171E+00 0.10262736E+04</pdfrwt>
<pdfrwt beam="2">  1       -1 0.15951452E+00 0.10262736E+04</pdfrwt>
<totfact> 0.34566701E+00</totfact>
</mgrwt>
</event>
<event>
 4    1  0.8114601E-008  0.9695823E+03  0.7818608E-02  0.9422482E-01
          1   -1    0    0  501    0  0.00000000000E+00  0.00000000000E+00  0.50883406006E+03  0.50883406008E+03  0.50400000000E-02 0. -1.
         -1   -1    0    0    0  501 -0.00000000000E+00 -0.00000000000E+00 -0.14666769797E+04  0.14666769797E+04  0.50400000000E-02 0.  1.
    8880023    1    1    2    0    0  0.94995855337E+02  0.70516337185E+03 -0.36210521567E+03  0.10349927473E+04  0.65864270000E+03 0. -1.
    8880022    1    1    2    0    0 -0.94995855337E+02 -0.70516337185E+03 -0.59573770401E+03  0.94051829250E+03  0.15294330000E+03 0.  1.
<mgrwt>
<rscale>  0 0.90248357E+03</rscale>
<asrwt>0</asrwt>
<pdfrwt beam="1">  1        1 0.78282163E-01 0.96958228E+03</pdfrwt>
<pdfrwt beam="2">  1       -1 0.22564261E+00 0.96958228E+03</pdfrwt>
<totfact> 0.44070504E+00</totfact>
</mgrwt>
</event>
<event>
 4    1  0.8114601E-008  0.6763523E+03  0.7818608E-02  0.1011467E+00
         -1   -1    0    0    0  501 -0.00000000000E+00  0.00000000000E+00  0.61309558348E+03  0.61309558350E+03  0.50400000000E-02 0.  1.
          1   -1    0    0  501    0  0.00000000000E+00 -0.00000000000E+00 -0.12686995762E+04  0.12686995762E+04  0.50400000000E-02 0. -1.
    8880023    1    1    2    0    0  0.89292534196E+02  0.12517615241E+03 -0.11543709234E+04  0.13379180322E+04  0.65864270000E+03 0. -1.
    8880022    1    1    2    0    0 -0.89292534196E+02 -0.12517615241E+03  0.49876693062E+03  0.54387712757E+03  0.15294330000E+03 0.  0.
<mgrwt>
<rscale>  0 0.50895698E+03</rscale>
<asrwt>0</asrwt>
<pdfrwt beam="1">  1        1 0.19518455E+00 0.67635230E+03</pdfrwt>
<pdfrwt beam="2">  1       -1 0.94322398E-01 0.67635230E+03</pdfrwt>
<totfact> 0.10848905E+01</totfact>
</mgrwt>
</event>
<event>
 4    1  0.8114601E-008  0.1042504E+04  0.7818608E-02  0.9327948E-01
          1   -1    0    0  501    0  0.00000000000E+00  0.00000000000E+00  0.78201946842E+03  0.78201946843E+03  0.50400000000E-02 0. -1.
         -1   -1    0    0    0  501 -0.00000000000E+00 -0.00000000000E+00 -0.15512805409E+04  0.15512805409E+04  0.50400000000E-02 0.  1.
    8880023    1    1    2    0    0  0.77770198555E+03 -0.21950717230E+03  0.20065097100E+03  0.10616377892E+04  0.65864270000E+03 0.  0.
    8880022    1    1    2    0    0 -0.77770198555E+03  0.21950717230E+03 -0.96991204345E+03  0.12716622201E+04  0.15294330000E+03 0.  0.
<mgrwt>
<rscale>  0 0.98250165E+03</rscale>
<asrwt>0</asrwt>
<pdfrwt beam="1">  1        1 0.12031069E+00 0.10425037E+04</pdfrwt>
<pdfrwt beam="2">  1       -1 0.23865854E+00 0.10425037E+04</pdfrwt>
<totfact> 0.18998765E+00</totfact>
</mgrwt>
</event>
<event>
 4    1  0.8114601E-008  0.1237380E+04  0.7818608E-02  0.9121615E-01
         -1   -1    0    0    0  501 -0.00000000000E+00  0.00000000000E+00  0.61242786959E+03  0.61242786961E+03  0.50400000000E-02 0.  1.
          1   -1    0    0  501    0  0.00000000000E+00 -0.00000000000E+00 -0.31119242262E+04  0.31119242262E+04  0.50400000000E-02 0. -1.
    8880023    1    1    2    0    0 -0.63884787274E+03  0.83016483468E+03 -0.23491373526E+04  0.26551001422E+04  0.65864270000E+03 0.  0.
    8880022    1    1    2    0    0  0.63884787274E+03 -0.83016483468E+03 -0.15035900399E+03  0.10692519536E+04  0.15294330000E+03 0.  0.
<mgrwt>
<rscale>  0 0.11900446E+04</rscale>
<asrwt>0</asrwt>
<pdfrwt beam="1">  1        1 0.47875757E+00 0.12373805E+04</pdfrwt>
<pdfrwt beam="2">  1       -1 0.94219674E-01 0.12373805E+04</pdfrwt>
<totfact> 0.53558240E-01</totfact>
</mgrwt>
</event>
<event>
 4    1  0.8114601E-008  0.1069613E+04  0.7818608E-02  0.9295667E-01
         -1   -1    0    0    0  501 -0.00000000000E+00  0.00000000000E+00  0.66603082590E+03  0.66603082592E+03  0.50400000000E-02 0.  1.
          1   -1    0    0  501    0  0.00000000000E+00 -0.00000000000E+00 -0.18193143517E+04  0.18193143517E+04  0.50400000000E-02 0. -1.
    8880023    1    1    2    0    0 -0.28274227442E+03  0.79392632198E+03 -0.12244733398E+04  0.16258558868E+04  0.65864270000E+03 0. -1.
    8880022    1    1    2    0    0  0.28274227442E+03 -0.79392632198E+03  0.71189813981E+02  0.85948929086E+03  0.15294330000E+03 0.  0.
<mgrwt>
<rscale>  0 0.10118275E+04</rscale>
<asrwt>0</asrwt>
<pdfrwt beam="1">  1        1 0.27989451E+00 0.10696132E+04</pdfrwt>
<pdfrwt beam="2">  1       -1 0.10246628E+00 0.10696132E+04</pdfrwt>
<totfact> 0.35615124E+00</totfact>
</mgrwt>
</event>
<event>
 4    1  0.8114601E-008  0.6717871E+03  0.7818608E-02  0.1014413E+00
          1   -1    0    0  501    0  0.00000000000E+00  0.00000000000E+00  0.13392407036E+04  0.13392407036E+04  0.50400000000E-02 0. -1.
         -1   -1    0    0    0  501 -0.00000000000E+00 -0.00000000000E+00 -0.26197821936E+03  0.26197821941E+03  0.50400000000E-02 0.  1.
    8880023    1    1    2    0    0 -0.11174012249E+03  0.70723577039E+02  0.11923482961E+04  0.13685731054E+04  0.65864270000E+03 0. -1.
    8880022    1    1    2    0    0  0.11174012249E+03 -0.70723577039E+02 -0.11508581191E+03  0.23264581759E+03  0.15294330000E+03 0.  0.
<mgrwt>
<rscale>  0 0.49757862E+03</rscale>
<asrwt>0</asrwt>
<pdfrwt beam="1">  1        1 0.20603703E+00 0.67178708E+03</pdfrwt>
<pdfrwt beam="2">  1       -1 0.40304342E-01 0.67178708E+03</pdfrwt>
<totfact> 0.52737266E+01</totfact>
</mgrwt>
</event>
<event>
 4    1  0.8114601E-008  0.7700124E+03  0.7818608E-02  0.9779844E-01
          1   -1    0    0  501    0  0.00000000000E+00  0.00000000000E+00  0.81085565420E+03  0.81085565422E+03  0.50400000000E-02 0. -1.
         -1   -1    0    0    0  501 -0.00000000000E+00 -0.00000000000E+00 -0.65263924999E+03  0.65263925001E+03  0.50400000000E-02 0.  1.
    8880023    1    1    2    0    0 -0.20094712108E+03 -0.34457091072E+03  0.49853620913E+03  0.91730988006E+03  0.65864270000E+03 0. -1.
    8880022    1    1    2    0    0  0.20094712108E+03  0.34457091072E+03 -0.34031980492E+03  0.54618502416E+03  0.15294330000E+03 0.  0.
<mgrwt>
<rscale>  0 0.66455555E+03</rscale>
<asrwt>0</asrwt>
<pdfrwt beam="1">  1        1 0.12474702E+00 0.77001238E+03</pdfrwt>
<pdfrwt beam="2">  1       -1 0.10040604E+00 0.77001238E+03</pdfrwt>
<totfact> 0.20940597E+01</totfact>
</mgrwt>
</event>
<event>
 4    1  0.8114601E-008  0.9469614E+03  0.7818608E-02  0.9454500E-01
          1   -1    0    0  501    0  0.00000000000E+00  0.00000000000E+00  0.16174971991E+04  0.16174971991E+04  0.50400000000E-02 0. -1.
         -1   -1    0    0    0  501 -0.00000000000E+00 -0.00000000000E+00 -0.42737295060E+03  0.42737295063E+03  0.50400000000E-02 0.  1.
    8880023    1    1    2    0    0 -0.32061841150E+03  0.60010788739E+03  0.53288883564E+03  0.10866031289E+04  0.65864270000E+03 0.  0.
    8880022    1    1    2    0    0  0.32061841150E+03 -0.60010788739E+03  0.65723541287E+03  0.95826702085E+03  0.15294330000E+03 0.  0.
<mgrwt>
<rscale>  0 0.87723139E+03</rscale>
<asrwt>0</asrwt>
<pdfrwt beam="1">  1        1 0.24884572E+00 0.94696138E+03</pdfrwt>
<pdfrwt beam="2">  1       -1 0.65749686E-01 0.94696138E+03</pdfrwt>
<totfact> 0.12889959E+01</totfact>
</mgrwt>
</event>
<event>
 4    1  0.8114601E-008  0.8277541E+03  0.7818608E-02  0.9653718E-01
          1   -1    0    0  501    0  0.00000000000E+00  0.00000000000E+00  0.11352906766E+04  0.11352906766E+04  0.50400000000E-02 0. -1.
         -1   -1    0    0    0  501 -0.00000000000E+00 -0.00000000000E+00 -0.78411646548E+03  0.78411646550E+03  0.50400000000E-02 0.  1.
    8880023    1    1    2    0    0 -0.72150950126E+02 -0.49614596972E+03  0.85664014441E+03  0.11912216948E+04  0.65864270000E+03 0. -1.
    8880022    1    1    2    0    0  0.72150950126E+02  0.49614596972E+03 -0.50546593332E+03  0.72818544729E+03  0.15294330000E+03 0.  0.
<mgrwt>
<rscale>  0 0.73840534E+03</rscale>
<asrwt>0</asrwt>
<pdfrwt beam="1">  1        1 0.17466010E+00 0.82775406E+03</pdfrwt>
<pdfrwt beam="2">  1       -1 0.12063330E+00 0.82775406E+03</pdfrwt>
<totfact> 0.74658488E+00</totfact>
</mgrwt>
</event>
<event>
 4    1  0.8114601E-008  0.8874008E+03  0.7818608E-02  0.9546568E-01
          1   -1    0    0  501    0  0.00000000000E+00  0.00000000000E+00  0.28034069387E+04  0.28034069387E+04  0.50400000000E-02 0. -1.
         -1   -1    0    0    0  501 -0.00000000000E+00 -0.00000000000E+00 -0.32133781663E+03  0.32133781667E+03  0.50400000000E-02 0.  1.
    8880023    1    1    2    0    0 -0.39118282209E+03  0.44793520055E+03  0.23283759756E+04  0.24917493522E+04  0.65864270000E+03 0.  0.
    8880022    1    1    2    0    0  0.39118282209E+03 -0.44793520055E+03  0.15369314651E+03  0.63299540321E+03  0.15294330000E+03 0.  0.
<mgrwt>
<rscale>  0 0.80935936E+03</rscale>
<asrwt>0</asrwt>
<pdfrwt beam="1">  1        1 0.43129338E+00 0.88740078E+03</pdfrwt>
<pdfrwt beam="2">  1       -1 0.49436587E-01 0.88740078E+03</pdfrwt>
<totfact> 0.35392209E+00</totfact>
</mgrwt>
</event>
<event>
 4    1  0.8114601E-008  0.1464017E+04  0.7818608E-02  0.8935472E-01
         -1   -1    0    0    0  501 -0.00000000000E+00  0.00000000000E+00  0.16217919390E+04  0.16217919390E+04  0.50400000000E-02 0.  1.
          1   -1    0    0  501    0  0.00000000000E+00 -0.00000000000E+00 -0.12719958548E+04  0.12719958548E+04  0.50400000000E-02 0. -1.
    8880023    1    1    2    0    0 -0.96975155973E+03  0.87699297011E+03  0.54664825091E+03  0.15627441485E+04  0.65864270000E+03 0.  0.
    8880022    1    1    2    0    0  0.96975155973E+03 -0.87699297011E+03 -0.19685216665E+03  0.13310436453E+04  0.15294330000E+03 0.  0.
<mgrwt>
<rscale>  0 0.14256307E+04</rscale>
<asrwt>0</asrwt>
<pdfrwt beam="1">  1        1 0.19569167E+00 0.14640167E+04</pdfrwt>
<pdfrwt beam="2">  1       -1 0.24950645E+00 0.14640167E+04</pdfrwt>
<totfact> 0.63318570E-01</totfact>
</mgrwt>
</event>
<event>
 4    1  0.8114601E-008  0.7064197E+03  0.7818608E-02  0.9971544E-01
          1   -1    0    0  501    0  0.00000000000E+00  0.00000000000E+00  0.73270004302E+03  0.73270004304E+03  0.50400000000E-02 0. -1.
         -1   -1    0    0    0  501 -0.00000000000E+00 -0.00000000000E+00 -0.39857478340E+03  0.39857478343E+03  0.50400000000E-02 0.  1.
    8880023    1    1    2    0    0  0.15955459264E+03  0.19940135178E+03  0.41951240572E+03  0.82159566208E+03  0.65864270000E+03 0.  0.
    8880022    1    1    2    0    0 -0.15955459264E+03 -0.19940135178E+03 -0.85387146099E+02  0.30967916439E+03  0.15294330000E+03 0.  0.
<mgrwt>
<rscale>  0 0.56915764E+03</rscale>
<asrwt>0</asrwt>
<pdfrwt beam="1">  1        1 0.11272308E+00 0.70641969E+03</pdfrwt>
<pdfrwt beam="2">  1       -1 0.61319197E-01 0.70641969E+03</pdfrwt>
<totfact> 0.70181054E+01</totfact>
</mgrwt>
</event>
<event>
 4    1  0.8114601E-008  0.9430895E+03  0.7818608E-02  0.9460127E-01
         -1   -1    0    0    0  501 -0.00000000000E+00  0.00000000000E+00  0.27003459002E+04  0.27003459002E+04  0.50400000000E-02 0.  1.
          1   -1    0    0  501    0  0.00000000000E+00 -0.00000000000E+00 -0.69498859788E+03  0.69498859790E+03  0.50400000000E-02 0. -1.
    8880023    1    1    2    0    0  0.63718088490E+03 -0.22272863649E+03 -0.29894833060E+03  0.98933706907E+03  0.65864270000E+03 0. -1.
    8880022    1    1    2    0    0 -0.63718088490E+03  0.22272863649E+03  0.23043056330E+04  0.24059974291E+04  0.15294330000E+03 0.  0.
<mgrwt>
<rscale>  0 0.87288396E+03</rscale>
<asrwt>0</asrwt>
<pdfrwt beam="1">  1        1 0.10692133E+00 0.94308946E+03</pdfrwt>
<pdfrwt beam="2">  1       -1 0.41543782E+00 0.94308946E+03</pdfrwt>
<totfact> 0.16008169E-01</totfact>
</mgrwt>
</event>
<event>
 4    1  0.8114601E-008  0.6959645E+03  0.7818608E-02  0.1001437E+00
          1   -1    0    0  501    0  0.00000000000E+00  0.00000000000E+00  0.10191651834E+04  0.10191651835E+04  0.50400000000E-02 0. -1.
         -1   -1    0    0    0  501 -0.00000000000E+00 -0.00000000000E+00 -0.38561856738E+03  0.38561856741E+03  0.50400000000E-02 0.  1.
    8880023    1    1    2    0    0  0.15652402776E+03 -0.16142056123E+03  0.81965087617E+03  0.10752646809E+04  0.65864270000E+03 0. -1.
    8880022    1    1    2    0    0 -0.15652402776E+03  0.16142056123E+03 -0.18610426010E+03  0.32951907000E+03  0.15294330000E+03 0.  0.
<mgrwt>
<rscale>  0 0.55024503E+03</rscale>
<asrwt>0</asrwt>
<pdfrwt beam="1">  1        1 0.15679464E+00 0.69596449E+03</pdfrwt>
<pdfrwt beam="2">  1       -1 0.59325934E-01 0.69596449E+03</pdfrwt>
<totfact> 0.43412560E+01</totfact>
</mgrwt>
</event>
<event>
 4    1  0.8114601E-008  0.7973167E+03  0.7818608E-02  0.9716628E-01
          1   -1    0    0  501    0  0.00000000000E+00  0.00000000000E+00  0.11703290840E+04  0.11703290841E+04  0.50400000000E-02 0. -1.
         -1   -1    0    0    0  501 -0.00000000000E+00 -0.00000000000E+00 -0.15895038038E+04  0.15895038038E+04  0.50400000000E-02 0.  1.
    8880023    1    1    2    0    0  0.44299648966E+03  0.75218206331E+02  0.99099608256E+03  0.12719226039E+04  0.65864270000E+03 0. -1.
    8880022    1    1    2    0    0 -0.44299648966E+03 -0.75218206331E+02 -0.14101708023E+04  0.14879102839E+04  0.15294330000E+03 0.  0.
<mgrwt>
<rscale>  0 0.70035326E+03</rscale>
<asrwt>0</asrwt>
<pdfrwt beam="1">  1        1 0.18005063E+00 0.79731667E+03</pdfrwt>
<pdfrwt beam="2">  1       -1 0.24453905E+00 0.79731667E+03</pdfrwt>
<totfact> 0.88777342E-01</totfact>
</mgrwt>
</event>
<event>
 4    1  0.8114601E-008  0.8914930E+03  0.7818608E-02  0.9539828E-01
         -1   -1    0    0    0  501 -0.00000000000E+00  0.00000000000E+00  0.55279174612E+03  0.55279174614E+03  0.50400000000E-02 0.  1.
          1   -1    0    0  501    0  0.00000000000E+00 -0.00000000000E+00 -0.18909046747E+04  0.18909046747E+04  0.50400000000E-02 0. -1.
    8880023    1    1    2    0    0  0.59976237009E+03  0.35138688130E+02 -0.15503745993E+04  0.17884130486E+04  0.65864270000E+03 0.  0.
    8880022    1    1    2    0    0 -0.59976237009E+03 -0.35138688130E+02  0.21226167078E+03  0.65528337220E+03  0.15294330000E+03 0.  0.
<mgrwt>
<rscale>  0 0.81410064E+03</rscale>
<asrwt>0</asrwt>
<pdfrwt beam="1">  1        1 0.29090841E+00 0.89149304E+03</pdfrwt>
<pdfrwt beam="2">  1       -1 0.85044885E-01 0.89149304E+03</pdfrwt>
<totfact> 0.49528497E+00</totfact>
</mgrwt>
</event>
<event>
 4    1  0.8114601E-008  0.1212451E+04  0.7818608E-02  0.9145113E-01
          1   -1    0    0  501    0  0.00000000000E+00  0.00000000000E+00  0.12799248624E+04  0.12799248624E+04  0.50400000000E-02 0. -1.
         -1   -1    0    0    0  501 -0.00000000000E+00 -0.00000000000E+00 -0.15477811328E+04  0.15477811328E+04  0.50400000000E-02 0.  1.
    8880023    1    1    2    0    0 -0.88712590977E+03 -0.49923512530E+03  0.71240056261E+03  0.14062549050E+04  0.65864270000E+03 0. -1.
    8880022    1    1    2    0    0  0.88712590977E+03  0.49923512530E+03 -0.98025683295E+03  0.14214510901E+04  0.15294330000E+03 0.  0.
<mgrwt>
<rscale>  0 0.11638366E+04</rscale>
<asrwt>0</asrwt>
<pdfrwt beam="1">  1        1 0.19691152E+00 0.12124514E+04</pdfrwt>
<pdfrwt beam="2">  1       -1 0.23812017E+00 0.12124514E+04</pdfrwt>
<totfact> 0.76368921E-01</totfact>
</mgrwt>
</event>
<event>
 4    1  0.8114601E-008  0.1196529E+04  0.7818608E-02  0.9160504E-01
          1   -1    0    0  501    0  0.00000000000E+00  0.00000000000E+00  0.10260439968E+04  0.10260439968E+04  0.50400000000E-02 0. -1.
         -1   -1    0    0    0  501 -0.00000000000E+00 -0.00000000000E+00 -0.15895410875E+04  0.15895410875E+04  0.50400000000E-02 0.  1.
    8880023    1    1    2    0    0 -0.81331230023E+03  0.57999463170E+03  0.35697367613E+03  0.12486436971E+04  0.65864270000E+03 0.  0.
    8880022    1    1    2    0    0  0.81331230023E+03 -0.57999463170E+03 -0.92047076683E+03  0.13669413872E+04  0.15294330000E+03 0.  0.
<mgrwt>
<rscale>  0 0.11470557E+04</rscale>
<asrwt>0</asrwt>
<pdfrwt beam="1">  1        1 0.15785292E+00 0.11965287E+04</pdfrwt>
<pdfrwt beam="2">  1       -1 0.24454478E+00 0.11965287E+04</pdfrwt>
<totfact> 0.10736582E+00</totfact>
</mgrwt>
</event>
<event>
 4    1  0.8114601E-008  0.8827446E+03  0.7818608E-02  0.9554320E-01
          1   -1    0    0  501    0  0.00000000000E+00  0.00000000000E+00  0.39976285455E+03  0.39976285458E+03  0.50400000000E-02 0. -1.
         -1   -1    0    0    0  501 -0.00000000000E+00 -0.00000000000E+00 -0.15621884505E+04  0.15621884505E+04  0.50400000000E-02 0.  1.
    8880023    1    1    2    0    0 -0.22230122998E+03 -0.54406799061E+03 -0.35459253111E+03  0.95130115349E+03  0.65864270000E+03 0.  0.
    8880022    1    1    2    0    0  0.22230122998E+03  0.54406799061E+03 -0.80783306485E+03  0.10106501516E+04  0.15294330000E+03 0.  0.
<mgrwt>
<rscale>  0 0.80394813E+03</rscale>
<asrwt>0</asrwt>
<pdfrwt beam="1">  1        1 0.61501978E-01 0.88274460E+03</pdfrwt>
<pdfrwt beam="2">  1       -1 0.24033668E+00 0.88274460E+03</pdfrwt>
<totfact> 0.49451233E+00</totfact>
</mgrwt>
</event>
<event>
 4    1  0.8114601E-008  0.7902122E+03  0.7818608E-02  0.9732373E-01
          1   -1    0    0  501    0  0.00000000000E+00  0.00000000000E+00  0.39175817687E+04  0.39175817687E+04  0.50400000000E-02 0. -1.
         -1   -1    0    0    0  501 -0.00000000000E+00 -0.00000000000E+00 -0.39709503779E+03  0.39709503782E+03  0.50400000000E-02 0.  1.
    8880023    1    1    2    0    0  0.43615109294E+03  0.19935062189E+02  0.37257038688E+04  0.38085830314E+04  0.65864270000E+03 0. -1.
    8880022    1    1    2    0    0 -0.43615109294E+03 -0.19935062189E+02 -0.20521713787E+03  0.50609377517E+03  0.15294330000E+03 0.  0.
<mgrwt>
<rscale>  0 0.69121604E+03</rscale>
<asrwt>0</asrwt>
<pdfrwt beam="1">  1        1 0.60270487E+00 0.79021224E+03</pdfrwt>
<pdfrwt beam="2">  1       -1 0.61091546E-01 0.79021224E+03</pdfrwt>
<totfact> 0.33842838E-01</totfact>
</mgrwt>
</event>
<event>
 4    1  0.8114601E-008  0.8383407E+03  0.7818608E-02  0.9633317E-01
         -1   -1    0    0    0  501 -0.00000000000E+00  0.00000000000E+00  0.19122018770E+04  0.19122018770E+04  0.50400000000E-02 0.  1.
          1   -1    0    0  501    0  0.00000000000E+00 -0.00000000000E+00 -0.12875848458E+04  0.12875848458E+04  0.50400000000E-02 0. -1.
    8880023    1    1    2    0    0  0.50377936013E+03 -0.12333375515E+03 -0.11053357410E+04  0.13872931073E+04  0.65864270000E+03 0. -1.
    8880022    1    1    2    0    0 -0.50377936013E+03  0.12333375515E+03  0.17299527723E+04  0.18124936155E+04  0.15294330000E+03 0.  0.
<mgrwt>
<rscale>  0 0.75129746E+03</rscale>
<asrwt>0</asrwt>
<pdfrwt beam="1">  1        1 0.19808998E+00 0.83834066E+03</pdfrwt>
<pdfrwt beam="2">  1       -1 0.29418490E+00 0.83834066E+03</pdfrwt>
<totfact> 0.34785927E-01</totfact>
</mgrwt>
</event>
<event>
 4    1  0.8114601E-008  0.1089249E+04  0.7818608E-02  0.9273121E-01
          1   -1    0    0  501    0  0.00000000000E+00  0.00000000000E+00  0.21255537032E+04  0.21255537032E+04  0.50400000000E-02 0. -1.
         -1   -1    0    0    0  501 -0.00000000000E+00 -0.00000000000E+00 -0.94008198190E+03  0.94008198191E+03  0.50400000000E-02 0.  1.
    8880023    1    1    2    0    0  0.59976643271E+03  0.62684401841E+03  0.17195026655E+04  0.20354736108E+04  0.65864270000E+03 0.  0.
    8880022    1    1    2    0    0 -0.59976643271E+03 -0.62684401841E+03 -0.53403094414E+03  0.10301620744E+04  0.15294330000E+03 0.  0.
<mgrwt>
<rscale>  0 0.10329546E+04</rscale>
<asrwt>0</asrwt>
<pdfrwt beam="1">  1        1 0.32700826E+00 0.10892490E+04</pdfrwt>
<pdfrwt beam="2">  1       -1 0.14462800E+00 0.10892490E+04</pdfrwt>
<totfact> 0.94103154E-01</totfact>
</mgrwt>
</event>
<event>
 4    1  0.8114601E-008  0.6665867E+03  0.7818608E-02  0.1018238E+00
          1   -1    0    0  501    0  0.00000000000E+00  0.00000000000E+00  0.89466142793E+03  0.89466142794E+03  0.50400000000E-02 0. -1.
         -1   -1    0    0    0  501 -0.00000000000E+00 -0.00000000000E+00 -0.73961231419E+03  0.73961231421E+03  0.50400000000E-02 0.  1.
    8880023    1    1    2    0    0  0.98186948178E+02  0.29780791708E+02  0.75472739215E+03  0.10069514462E+04  0.65864270000E+03 0. -1.
    8880022    1    1    2    0    0 -0.98186948178E+02 -0.29780791708E+02 -0.59967827841E+03  0.62732229592E+03  0.15294330000E+03 0.  0.
<mgrwt>
<rscale>  0 0.48327931E+03</rscale>
<asrwt>0</asrwt>
<pdfrwt beam="1">  1        1 0.13764022E+00 0.66658666E+03</pdfrwt>
<pdfrwt beam="2">  1       -1 0.11378651E+00 0.66658666E+03</pdfrwt>
<totfact> 0.13486386E+01</totfact>
</mgrwt>
</event>
<event>
 4    1  0.8114601E-008  0.2468915E+04  0.7818608E-02  0.8421932E-01
         -1   -1    0    0    0  501 -0.00000000000E+00  0.00000000000E+00  0.44209616054E+04  0.44209616054E+04  0.50400000000E-02 0.  1.
          1   -1    0    0  501    0  0.00000000000E+00 -0.00000000000E+00 -0.14283483836E+04  0.14283483836E+04  0.50400000000E-02 0. -1.
    8880023    1    1    2    0    0  0.89700001406E+03 -0.22038884763E+04  0.76098069950E+03  0.25835315505E+04  0.65864270000E+03 0.  0.
    8880022    1    1    2    0    0 -0.89700001406E+03  0.22038884763E+04  0.22316325223E+04  0.32657784384E+04  0.15294330000E+03 0.  0.
<mgrwt>
<rscale>  0 0.24474970E+04</rscale>
<asrwt>0</asrwt>
<pdfrwt beam="1">  1        1 0.21974591E+00 0.24689155E+04</pdfrwt>
<pdfrwt beam="2">  1       -1 0.68014793E+00 0.24689155E+04</pdfrwt>
<totfact> 0.14305595E-03</totfact>
</mgrwt>
</event>
<event>
 4    1  0.8114601E-008  0.1733306E+04  0.7818608E-02  0.8760354E-01
          1   -1    0    0  501    0  0.00000000000E+00  0.00000000000E+00  0.17489171498E+04  0.17489171498E+04  0.50400000000E-02 0. -1.
         -1   -1    0    0    0  501 -0.00000000000E+00 -0.00000000000E+00 -0.20305778769E+04  0.20305778769E+04  0.50400000000E-02 0.  1.
    8880023    1    1    2    0    0 -0.15442135372E+04 -0.43121374897E+03  0.72650910109E+03  0.18794058705E+04  0.65864270000E+03 0.  0.
    8880022    1    1    2    0    0  0.15442135372E+04  0.43121374897E+03 -0.10081698283E+04  0.19000891562E+04  0.15294330000E+03 0.  0.
<mgrwt>
<rscale>  0 0.17017718E+04</rscale>
<asrwt>0</asrwt>
<pdfrwt beam="1">  1        1 0.26906418E+00 0.17333064E+04</pdfrwt>
<pdfrwt beam="2">  1       -1 0.31239660E+00 0.17333064E+04</pdfrwt>
<totfact> 0.11126816E-01</totfact>
</mgrwt>
</event>
<event>
 4    1  0.8114601E-008  0.8484516E+03  0.7818608E-02  0.9614445E-01
         -1   -1    0    0    0  501 -0.00000000000E+00  0.00000000000E+00  0.63911329279E+03  0.63911329281E+03  0.50400000000E-02 0.  1.
          1   -1    0    0  501    0  0.00000000000E+00 -0.00000000000E+00 -0.13610921164E+04  0.13610921164E+04  0.50400000000E-02 0. -1.
    8880023    1    1    2    0    0 -0.46445786885E+03  0.26521477381E+03 -0.10534619322E+04  0.13526463829E+04  0.65864270000E+03 0.  0.
    8880022    1    1    2    0    0  0.46445786885E+03 -0.26521477381E+03  0.33148310867E+03  0.64755902629E+03  0.15294330000E+03 0.  0.
<mgrwt>
<rscale>  0 0.76347430E+03</rscale>
<asrwt>0</asrwt>
<pdfrwt beam="1">  1        1 0.20939879E+00 0.84845165E+03</pdfrwt>
<pdfrwt beam="2">  1       -1 0.98325122E-01 0.84845165E+03</pdfrwt>
<totfact> 0.82944476E+00</totfact>
</mgrwt>
</event>
<event>
 4    1  0.8114601E-008  0.7800904E+03  0.7818608E-02  0.9755625E-01
         -1   -1    0    0    0  501 -0.00000000000E+00  0.00000000000E+00  0.11273023046E+04  0.11273023046E+04  0.50400000000E-02 0.  1.
          1   -1    0    0  501    0  0.00000000000E+00 -0.00000000000E+00 -0.67047391391E+03  0.67047391392E+03  0.50400000000E-02 0. -1.
    8880023    1    1    2    0    0  0.40380754300E+03  0.10802900716E+03  0.88529493444E+03  0.11799525945E+04  0.65864270000E+03 0.  0.
    8880022    1    1    2    0    0 -0.40380754300E+03 -0.10802900716E+03 -0.42846654378E+03  0.61782362396E+03  0.15294330000E+03 0.  0.
<mgrwt>
<rscale>  0 0.67799330E+03</rscale>
<asrwt>0</asrwt>
<pdfrwt beam="1">  1        1 0.10314983E+00 0.78009038E+03</pdfrwt>
<pdfrwt beam="2">  1       -1 0.17343112E+00 0.78009038E+03</pdfrwt>
<totfact> 0.69487428E+00</totfact>
</mgrwt>
</event>
<event>
 4    1  0.8114601E-008  0.1026713E+04  0.7818608E-02  0.9347414E-01
          1   -1    0    0  501    0  0.00000000000E+00  0.00000000000E+00  0.23946861801E+04  0.23946861801E+04  0.50400000000E-02 0. -1.
         -1   -1    0    0    0  501 -0.00000000000E+00 -0.00000000000E+00 -0.42318816016E+03  0.42318816019E+03  0.50400000000E-02 0.  1.
    8880023    1    1    2    0    0  0.12660594021E+03 -0.77736715557E+03  0.16708123934E+04  0.19610591574E+04  0.65864270000E+03 0.  0.
    8880022    1    1    2    0    0 -0.12660594021E+03  0.77736715557E+03  0.30068562658E+03  0.85681518293E+03  0.15294330000E+03 0.  0.
<mgrwt>
<rscale>  0 0.96532568E+03</rscale>
<asrwt>0</asrwt>
<pdfrwt beam="1">  1        1 0.36841326E+00 0.10267127E+04</pdfrwt>
<pdfrwt beam="2">  1       -1 0.65105871E-01 0.10267127E+04</pdfrwt>
<totfact> 0.38836168E+00</totfact>
</mgrwt>
</event>
<event>
 4    1  0.8114601E-008  0.1504559E+04  0.7818608E-02  0.8906423E-01
         -1   -1    0    0    0  501 -0.00000000000E+00  0.00000000000E+00  0.13735105522E+04  0.13735105522E+04  0.50400000000E-02 0.  1.
          1   -1    0    0  501    0  0.00000000000E+00 -0.00000000000E+00 -0.19448626519E+04  0.19448626519E+04  0.50400000000E-02 0. -1.
    8880023    1    1    2    0    0 -0.10754632693E+02  0.13526907670E+04 -0.10938839197E+04  0.18601828430E+04  0.65864270000E+03 0.  0.
    8880022    1    1    2    0    0  0.10754632693E+02 -0.13526907670E+04  0.52253182001E+03  0.14581903611E+04  0.15294330000E+03 0.  0.
<mgrwt>
<rscale>  0 0.14674035E+04</rscale>
<asrwt>0</asrwt>
<pdfrwt beam="1">  1        1 0.29920964E+00 0.15045591E+04</pdfrwt>
<pdfrwt beam="2">  1       -1 0.21130932E+00 0.15045591E+04</pdfrwt>
<totfact> 0.38638740E-01</totfact>
</mgrwt>
</event>
<event>
 4    1  0.8114601E-008  0.7046522E+03  0.7818608E-02  0.9978423E-01
         -1   -1    0    0    0  501 -0.00000000000E+00  0.00000000000E+00  0.58966540531E+03  0.58966540533E+03  0.50400000000E-02 0.  1.
          1   -1    0    0  501    0  0.00000000000E+00 -0.00000000000E+00 -0.72839576293E+03  0.72839576295E+03  0.50400000000E-02 0. -1.
    8880023    1    1    2    0    0  0.15044102488E+03  0.20022998693E+03 -0.49154369850E+03  0.85915654186E+03  0.65864270000E+03 0. -1.
    8880022    1    1    2    0    0 -0.15044102488E+03 -0.20022998693E+03  0.35281334088E+03  0.45890462642E+03  0.15294330000E+03 0.  0.
<mgrwt>
<rscale>  0 0.56606555E+03</rscale>
<asrwt>0</asrwt>
<pdfrwt beam="1">  1        1 0.11206089E+00 0.70465222E+03</pdfrwt>
<pdfrwt beam="2">  1       -1 0.90717755E-01 0.70465222E+03</pdfrwt>
<totfact> 0.31328217E+01</totfact>
</mgrwt>
</event>
<event>
 4    1  0.8114601E-008  0.6681158E+03  0.7818608E-02  0.1017051E+00
         -1   -1    0    0    0  501 -0.00000000000E+00  0.00000000000E+00  0.52292511431E+03  0.52292511434E+03  0.50400000000E-02 0.  1.
          1   -1    0    0  501    0  0.00000000000E+00 -0.00000000000E+00 -0.19274337676E+04  0.19274337676E+04  0.50400000000E-02 0. -1.
    8880023    1    1    2    0    0  0.11202194904E+03  0.44267232097E+01 -0.18495916043E+04  0.19665624379E+04  0.65864270000E+03 0. -1.
    8880022    1    1    2    0    0 -0.11202194904E+03 -0.44267232097E+01  0.44508295106E+03  0.48379644406E+03  0.15294330000E+03 0.  0.
<mgrwt>
<rscale>  0 0.48765931E+03</rscale>
<asrwt>0</asrwt>
<pdfrwt beam="1">  1        1 0.29652827E+00 0.66811580E+03</pdfrwt>
<pdfrwt beam="2">  1       -1 0.80450019E-01 0.66811580E+03</pdfrwt>
<totfact> 0.54743647E+00</totfact>
</mgrwt>
</event>
<event>
 4    1  0.8114601E-008  0.7924110E+03  0.7818608E-02  0.9727452E-01
          1   -1    0    0  501    0  0.00000000000E+00  0.00000000000E+00  0.11444098428E+04  0.11444098428E+04  0.50400000000E-02 0. -1.
         -1   -1    0    0    0  501 -0.00000000000E+00 -0.00000000000E+00 -0.35492430770E+03  0.35492430774E+03  0.50400000000E-02 0.  1.
    8880023    1    1    2    0    0 -0.22819596828E+03 -0.37687070062E+03  0.38046321901E+03  0.87901501250E+03  0.65864270000E+03 0.  1.
    8880022    1    1    2    0    0  0.22819596828E+03  0.37687070062E+03  0.40902231605E+03  0.62031913800E+03  0.15294330000E+03 0.  0.
<mgrwt>
<rscale>  0 0.69405583E+03</rscale>
<asrwt>0</asrwt>
<pdfrwt beam="1">  1        1 0.17606305E+00 0.79241096E+03</pdfrwt>
<pdfrwt beam="2">  1       -1 0.54603739E-01 0.79241096E+03</pdfrwt>
<totfact> 0.40666901E+01</totfact>
</mgrwt>
</event>
<event>
 4    1  0.8114601E-008  0.8567255E+03  0.7818608E-02  0.9599415E-01
          1   -1    0    0  501    0  0.00000000000E+00  0.00000000000E+00  0.58502160413E+03  0.58502160415E+03  0.50400000000E-02 0. -1.
         -1   -1    0    0    0  501 -0.00000000000E+00 -0.00000000000E+00 -0.94546799055E+03  0.94546799056E+03  0.50400000000E-02 0.  1.
    8880023    1    1    2    0    0  0.10824407872E+03 -0.53707691808E+03  0.65975782841E+00  0.85672576596E+03  0.65864270000E+03 0.  0.
    8880022    1    1    2    0    0 -0.10824407872E+03  0.53707691808E+03 -0.36110614424E+03  0.67376382876E+03  0.15294330000E+03 0.  0.
<mgrwt>
<rscale>  0 0.77334919E+03</rscale>
<asrwt>0</asrwt>
<pdfrwt beam="1">  1        1 0.90003324E-01 0.85672551E+03</pdfrwt>
<pdfrwt beam="2">  1       -1 0.14545661E+00 0.85672551E+03</pdfrwt>
<totfact> 0.13678943E+01</totfact>
</mgrwt>
</event>
<event>
 4    1  0.8114601E-008  0.7935238E+03  0.7818608E-02  0.9724978E-01
         -1   -1    0    0    0  501 -0.00000000000E+00  0.00000000000E+00  0.22772983637E+04  0.22772983637E+04  0.50400000000E-02 0.  1.
          1   -1    0    0  501    0  0.00000000000E+00 -0.00000000000E+00 -0.53544635591E+03  0.53544635594E+03  0.50400000000E-02 0. -1.
    8880023    1    1    2    0    0 -0.12464845907E+03 -0.42465579067E+03 -0.19744354176E+03  0.81771873976E+03  0.65864270000E+03 0. -1.
    8880022    1    1    2    0    0  0.12464845907E+03  0.42465579067E+03  0.19392955495E+04  0.19950259799E+04  0.15294330000E+03 0.  0.
<mgrwt>
<rscale>  0 0.69548896E+03</rscale>
<asrwt>0</asrwt>
<pdfrwt beam="1">  1        1 0.82376361E-01 0.79352378E+03</pdfrwt>
<pdfrwt beam="2">  1       -1 0.35035360E+00 0.79352378E+03</pdfrwt>
<totfact> 0.65764083E-01</totfact>
</mgrwt>
</event>
<event>
 4    1  0.8114601E-008  0.7888783E+03  0.7818608E-02  0.9735380E-01
         -1   -1    0    0    0  501 -0.00000000000E+00  0.00000000000E+00  0.18152681309E+04  0.18152681309E+04  0.50400000000E-02 0.  1.
          1   -1    0    0  501    0  0.00000000000E+00 -0.00000000000E+00 -0.23960490110E+03  0.23960490115E+03  0.50400000000E-02 0. -1.
    8880023    1    1    2    0    0  0.27645251104E+03  0.33480247487E+03  0.65428778753E+03  0.10249006797E+04  0.65864270000E+03 0.  0.
    8880022    1    1    2    0    0 -0.27645251104E+03 -0.33480247487E+03  0.92137544229E+03  0.10299723524E+04  0.15294330000E+03 0.  0.
<mgrwt>
<rscale>  0 0.68948767E+03</rscale>
<asrwt>0</asrwt>
<pdfrwt beam="1">  1        1 0.36862294E-01 0.78887825E+03</pdfrwt>
<pdfrwt beam="2">  1       -1 0.27927201E+00 0.78887825E+03</pdfrwt>
<totfact> 0.54809729E+00</totfact>
</mgrwt>
</event>
<event>
 4    1  0.8114601E-008  0.2127987E+04  0.7818608E-02  0.8559982E-01
          1   -1    0    0  501    0  0.00000000000E+00  0.00000000000E+00  0.36236847330E+04  0.36236847330E+04  0.50400000000E-02 0. -1.
         -1   -1    0    0    0  501 -0.00000000000E+00 -0.00000000000E+00 -0.18352429219E+04  0.18352429219E+04  0.50400000000E-02 0.  1.
    8880023    1    1    2    0    0  0.17878054745E+04 -0.94777199710E+03 -0.70716587503E+03  0.22424125299E+04  0.65864270000E+03 0.  1.
    8880022    1    1    2    0    0 -0.17878054745E+04  0.94777199710E+03  0.24956076862E+04  0.32165151250E+04  0.15294330000E+03 0.  0.
<mgrwt>
<rscale>  0 0.21028651E+04</rscale>
<asrwt>0</asrwt>
<pdfrwt beam="1">  1        1 0.55748995E+00 0.21279874E+04</pdfrwt>
<pdfrwt beam="2">  1       -1 0.28234507E+00 0.21279874E+04</pdfrwt>
<totfact> 0.74727318E-03</totfact>
</mgrwt>
</event>
<event>
 4    1  0.8980740E-008  0.1847648E+04  0.7818608E-02  0.8696627E-01
         -1   -1    0    0    0  501 -0.00000000000E+00  0.00000000000E+00  0.18645464081E+04  0.18645464081E+04  0.50400000000E-02 0.  1.
          1   -1    0    0  501    0  0.00000000000E+00 -0.00000000000E+00 -0.32850669884E+04  0.32850669884E+04  0.50400000000E-02 0. -1.
    8880023    1    1    2    0    0  0.16772552671E+04  0.40842315062E+03 -0.24994125849E+04  0.31081937161E+04  0.65864270000E+03 0.  0.
    8880022    1    1    2    0    0 -0.16772552671E+04 -0.40842315062E+03  0.10788920046E+04  0.20414196804E+04  0.15294330000E+03 0.  0.
<mgrwt>
<rscale>  0 0.18183016E+04</rscale>
<asrwt>0</asrwt>
<pdfrwt beam="1">  1        1 0.50539492E+00 0.18476485E+04</pdfrwt>
<pdfrwt beam="2">  1       -1 0.28685329E+00 0.18476485E+04</pdfrwt>
<totfact> 0.13291709E-02</totfact>
</mgrwt>
</event>
<event>
 4    1  0.8114601E-008  0.1032300E+04  0.7818608E-02  0.9340468E-01
          1   -1    0    0  501    0  0.00000000000E+00  0.00000000000E+00  0.20668528332E+04  0.20668528332E+04  0.50400000000E-02 0. -1.
         -1   -1    0    0    0  501 -0.00000000000E+00 -0.00000000000E+00 -0.49300776553E+03  0.49300776556E+03  0.50400000000E-02 0.  1.
    8880023    1    1    2    0    0  0.31071880647E+02  0.79427233075E+03  0.13872146627E+04  0.17291641691E+04  0.65864270000E+03 0.  0.
    8880022    1    1    2    0    0 -0.31071880647E+02 -0.79427233075E+03  0.18663040501E+03  0.83069642966E+03  0.15294330000E+03 0.  0.
<mgrwt>
<rscale>  0 0.97141196E+03</rscale>
<asrwt>0</asrwt>
<pdfrwt beam="1">  1        1 0.31797736E+00 0.10323004E+04</pdfrwt>
<pdfrwt beam="2">  1       -1 0.75847349E-01 0.10323004E+04</pdfrwt>
<totfact> 0.47251683E+00</totfact>
</mgrwt>
</event>
<event>
 4    1  0.8114601E-008  0.7113575E+03  0.7818608E-02  0.9952994E-01
          1   -1    0    0  501    0  0.00000000000E+00  0.00000000000E+00  0.31117008071E+04  0.31117008071E+04  0.50400000000E-02 0. -1.
         -1   -1    0    0    0  501 -0.00000000000E+00 -0.00000000000E+00 -0.15872399803E+03  0.15872399811E+03  0.50400000000E-02 0.  1.
    8880023    1    1    2    0    0  0.25308910214E+03  0.90361412947E+02  0.28605842345E+04  0.29477061670E+04  0.65864270000E+03 0. -1.
    8880022    1    1    2    0    0 -0.25308910214E+03 -0.90361412947E+02  0.92392574632E+02  0.32271863819E+03  0.15294330000E+03 0.  0.
<mgrwt>
<rscale>  0 0.57760292E+03</rscale>
<asrwt>0</asrwt>
<pdfrwt beam="1">  1        1 0.47872318E+00 0.71135749E+03</pdfrwt>
<pdfrwt beam="2">  1       -1 0.24419077E-01 0.71135749E+03</pdfrwt>
<totfact> 0.77448227E+00</totfact>
</mgrwt>
</event>
<event>
 4    1  0.8114601E-008  0.1077682E+04  0.7818608E-02  0.9286321E-01
          1   -1    0    0  501    0  0.00000000000E+00  0.00000000000E+00  0.16401193350E+04  0.16401193350E+04  0.50400000000E-02 0. -1.
         -1   -1    0    0    0  501 -0.00000000000E+00 -0.00000000000E+00 -0.15039848775E+04  0.15039848775E+04  0.50400000000E-02 0.  1.
    8880023    1    1    2    0    0 -0.75991613638E+03  0.38744815545E+03  0.13028231358E+04  0.16907829361E+04  0.65864270000E+03 0.  0.
    8880022    1    1    2    0    0  0.75991613638E+03 -0.38744815545E+03 -0.11666886783E+04  0.14533212764E+04  0.15294330000E+03 0.  0.
<mgrwt>
<rscale>  0 0.10205201E+04</rscale>
<asrwt>0</asrwt>
<pdfrwt beam="1">  1        1 0.25232605E+00 0.10776821E+04</pdfrwt>
<pdfrwt beam="2">  1       -1 0.23138229E+00 0.10776821E+04</pdfrwt>
<totfact> 0.48316911E-01</totfact>
</mgrwt>
</event>
<event>
 4    1  0.8114601E-008  0.2173565E+04  0.7818608E-02  0.8539955E-01
         -1   -1    0    0    0  501 -0.00000000000E+00  0.00000000000E+00  0.17533326998E+04  0.17533326998E+04  0.50400000000E-02 0.  1.
          1   -1    0    0  501    0  0.00000000000E+00 -0.00000000000E+00 -0.35205555917E+04  0.35205555917E+04  0.50400000000E-02 0. -1.
    8880023    1    1    2    0    0  0.15039455903E+04  0.14243317920E+04 -0.22638037557E+04  0.31383420851E+04  0.65864270000E+03 0.  0.
    8880022    1    1    2    0    0 -0.15039455903E+04 -0.14243317920E+04  0.49658086378E+03  0.21355462064E+04  0.15294330000E+03 0.  0.
<mgrwt>
<rscale>  0 0.21490128E+04</rscale>
<asrwt>0</asrwt>
<pdfrwt beam="1">  1        1 0.54162394E+00 0.21735647E+04</pdfrwt>
<pdfrwt beam="2">  1       -1 0.26974349E+00 0.21735647E+04</pdfrwt>
<totfact> 0.10864828E-02</totfact>
</mgrwt>
</event>
<event>
 4    1  0.8114601E-008  0.8053966E+03  0.7818608E-02  0.9699247E-01
          1   -1    0    0  501    0  0.00000000000E+00  0.00000000000E+00  0.13308750257E+04  0.13308750257E+04  0.50400000000E-02 0. -1.
         -1   -1    0    0    0  501 -0.00000000000E+00 -0.00000000000E+00 -0.96093360872E+03  0.96093360873E+03  0.50400000000E-02 0.  1.
    8880023    1    1    2    0    0 -0.38933538597E+03  0.25153815209E+03  0.11305260323E+04  0.13880752143E+04  0.65864270000E+03 0.  0.
    8880022    1    1    2    0    0  0.38933538597E+03 -0.25153815209E+03 -0.76058461525E+03  0.90373342015E+03  0.15294330000E+03 0.  0.
<mgrwt>
<rscale>  0 0.71061661E+03</rscale>
<asrwt>0</asrwt>
<pdfrwt beam="1">  1        1 0.20475000E+00 0.80539660E+03</pdfrwt>
<pdfrwt beam="2">  1       -1 0.14783594E+00 0.80539660E+03</pdfrwt>
<totfact> 0.32213337E+00</totfact>
</mgrwt>
</event>
<event>
 4    1  0.8114601E-008  0.9446630E+03  0.7818608E-02  0.9457835E-01
          1   -1    0    0  501    0  0.00000000000E+00  0.00000000000E+00  0.19892615031E+04  0.19892615031E+04  0.50400000000E-02 0. -1.
         -1   -1    0    0    0  501 -0.00000000000E+00 -0.00000000000E+00 -0.54645334419E+03  0.54645334421E+03  0.50400000000E-02 0.  1.
    8880023    1    1    2    0    0  0.31459221174E+03 -0.59967468325E+03  0.15677097460E+04  0.18303283966E+04  0.65864270000E+03 0.  0.
    8880022    1    1    2    0    0 -0.31459221174E+03  0.59967468325E+03 -0.12490158707E+03  0.70538645074E+03  0.15294330000E+03 0.  0.
<mgrwt>
<rscale>  0 0.87465169E+03</rscale>
<asrwt>0</asrwt>
<pdfrwt beam="1">  1        1 0.30604023E+00 0.94466300E+03</pdfrwt>
<pdfrwt beam="2">  1       -1 0.84069746E-01 0.94466300E+03</pdfrwt>
<totfact> 0.43288946E+00</totfact>
</mgrwt>
</event>
<event>
 4    1  0.8114601E-008  0.1363530E+04  0.7818608E-02  0.9012552E-01
         -1   -1    0    0    0  501 -0.00000000000E+00  0.00000000000E+00  0.20121541967E+04  0.20121541967E+04  0.50400000000E-02 0.  1.
          1   -1    0    0  501    0  0.00000000000E+00 -0.00000000000E+00 -0.14950943502E+04  0.14950943502E+04  0.50400000000E-02 0. -1.
    8880023    1    1    2    0    0 -0.11907080123E+04  0.87279380320E+02 -0.91079665457E+03  0.16397451061E+04  0.65864270000E+03 0.  0.
    8880022    1    1    2    0    0  0.11907080123E+04 -0.87279380320E+02  0.14278565011E+04  0.18675034408E+04  0.15294330000E+03 0.  0.
<mgrwt>
<rscale>  0 0.13216740E+04</rscale>
<asrwt>0</asrwt>
<pdfrwt beam="1">  1        1 0.23001452E+00 0.13635298E+04</pdfrwt>
<pdfrwt beam="2">  1       -1 0.30956218E+00 0.13635298E+04</pdfrwt>
<totfact> 0.18160055E-01</totfact>
</mgrwt>
</event>
<event>
 4    1  0.8114601E-008  0.1210202E+04  0.7818608E-02  0.9147268E-01
         -1   -1    0    0    0  501 -0.00000000000E+00  0.00000000000E+00  0.12086162436E+04  0.12086162436E+04  0.50400000000E-02 0.  1.
          1   -1    0    0  501    0  0.00000000000E+00 -0.00000000000E+00 -0.14047877683E+04  0.14047877683E+04  0.50400000000E-02 0. -1.
    8880023    1    1    2    0    0  0.74084687732E+03 -0.69420849244E+03 -0.77273534518E+03  0.14358654695E+04  0.65864270000E+03 0. -1.
    8880022    1    1    2    0    0 -0.74084687732E+03  0.69420849244E+03  0.57656382055E+03  0.11775385424E+04  0.15294330000E+03 0.  0.
<mgrwt>
<rscale>  0 0.11614684E+04</rscale>
<asrwt>0</asrwt>
<pdfrwt beam="1">  1        1 0.21612120E+00 0.12102024E+04</pdfrwt>
<pdfrwt beam="2">  1       -1 0.18594096E+00 0.12102024E+04</pdfrwt>
<totfact> 0.14083432E+00</totfact>
</mgrwt>
</event>
<event>
 4    1  0.8114601E-008  0.7822220E+03  0.7818608E-02  0.9750643E-01
         -1   -1    0    0    0  501 -0.00000000000E+00  0.00000000000E+00  0.40830515658E+03  0.40830515661E+03  0.50400000000E-02 0.  1.
          1   -1    0    0  501    0  0.00000000000E+00 -0.00000000000E+00 -0.96464224265E+03  0.96464224266E+03  0.50400000000E-02 0. -1.
    8880023    1    1    2    0    0  0.17979835048E+03  0.38175069396E+03 -0.47975731784E+03  0.91762646510E+03  0.65864270000E+03 0. -1.
    8880022    1    1    2    0    0 -0.17979835048E+03 -0.38175069396E+03 -0.76579768225E+02  0.45532093417E+03  0.15294330000E+03 0.  1.
<mgrwt>
<rscale>  0 0.68079938E+03</rscale>
<asrwt>0</asrwt>
<pdfrwt beam="1">  1        1 0.14840650E+00 0.78222199E+03</pdfrwt>
<pdfrwt beam="2">  1       -1 0.62816178E-01 0.78222199E+03</pdfrwt>
<totfact> 0.42368687E+01</totfact>
</mgrwt>
</event>
<event>
 4    1  0.8114601E-008  0.7715173E+03  0.7818608E-02  0.9776154E-01
          1   -1    0    0  501    0  0.00000000000E+00  0.00000000000E+00  0.10697059521E+04  0.10697059521E+04  0.50400000000E-02 0. -1.
         -1   -1    0    0    0  501 -0.00000000000E+00 -0.00000000000E+00 -0.15657108971E+04  0.15657108971E+04  0.50400000000E-02 0.  1.
    8880023    1    1    2    0    0  0.35265594469E+03 -0.19251636876E+03  0.89374839674E+03  0.11806884307E+04  0.65864270000E+03 0.  0.
    8880022    1    1    2    0    0 -0.35265594469E+03  0.19251636876E+03 -0.13897533418E+04  0.14547284185E+04  0.15294330000E+03 0.  0.
<mgrwt>
<rscale>  0 0.66658111E+03</rscale>
<asrwt>0</asrwt>
<pdfrwt beam="1">  1        1 0.16457015E+00 0.77151732E+03</pdfrwt>
<pdfrwt beam="2">  1       -1 0.24087860E+00 0.77151732E+03</pdfrwt>
<totfact> 0.11192135E+00</totfact>
</mgrwt>
</event>
<event>
 4    1  0.8114601E-008  0.1185176E+04  0.7818608E-02  0.9171668E-01
          1   -1    0    0  501    0  0.00000000000E+00  0.00000000000E+00  0.31237652546E+04  0.31237652546E+04  0.50400000000E-02 0. -1.
         -1   -1    0    0    0  501 -0.00000000000E+00 -0.00000000000E+00 -0.75419676057E+03  0.75419676059E+03  0.50400000000E-02 0.  1.
    8880023    1    1    2    0    0  0.96464443106E+03 -0.20073342715E+03  0.25975217607E+04  0.28551291198E+04  0.65864270000E+03 0. -1.
    8880022    1    1    2    0    0 -0.96464443106E+03  0.20073342715E+03 -0.22795326665E+03  0.10228328954E+04  0.15294330000E+03 0.  0.
<mgrwt>
<rscale>  0 0.11350704E+04</rscale>
<asrwt>0</asrwt>
<pdfrwt beam="1">  1        1 0.48057929E+00 0.11851764E+04</pdfrwt>
<pdfrwt beam="2">  1       -1 0.11603027E+00 0.11851764E+04</pdfrwt>
<totfact> 0.32521619E-01</totfact>
</mgrwt>
</event>
<event>
 4    1  0.8114601E-008  0.7165807E+03  0.7818608E-02  0.9934330E-01
          1   -1    0    0  501    0  0.00000000000E+00  0.00000000000E+00  0.78601160514E+03  0.78601160516E+03  0.50400000000E-02 0. -1.
         -1   -1    0    0    0  501 -0.00000000000E+00 -0.00000000000E+00 -0.58688810060E+03  0.58688810063E+03  0.50400000000E-02 0.  1.
    8880023    1    1    2    0    0 -0.45306648007E+02  0.27861257966E+03  0.54552583896E+03  0.90060330287E+03  0.65864270000E+03 0. -1.
    8880022    1    1    2    0    0  0.45306648007E+02 -0.27861257966E+03 -0.34640233442E+03  0.47229640292E+03  0.15294330000E+03 0.  0.
<mgrwt>
<rscale>  0 0.58625964E+03</rscale>
<asrwt>0</asrwt>
<pdfrwt beam="1">  1        1 0.12092486E+00 0.71658068E+03</pdfrwt>
<pdfrwt beam="2">  1       -1 0.90290478E-01 0.71658068E+03</pdfrwt>
<totfact> 0.28082879E+01</totfact>
</mgrwt>
</event>
<event>
 4    1  0.8114601E-008  0.9645147E+03  0.7818608E-02  0.9429531E-01
          1   -1    0    0  501    0  0.00000000000E+00  0.00000000000E+00  0.25440109089E+04  0.25440109090E+04  0.50400000000E-02 0. -1.
         -1   -1    0    0    0  501 -0.00000000000E+00 -0.00000000000E+00 -0.74129673943E+03  0.74129673945E+03  0.50400000000E-02 0.  1.
    8880023    1    1    2    0    0 -0.69657203231E+03  0.10614087164E+03  0.22422372412E+04  0.24408843752E+04  0.65864270000E+03 0.  0.
    8880022    1    1    2    0    0  0.69657203231E+03 -0.10614087164E+03 -0.43952307168E+03  0.84442327324E+03  0.15294330000E+03 0.  0.
<mgrwt>
<rscale>  0 0.89684731E+03</rscale>
<asrwt>0</asrwt>
<pdfrwt beam="1">  1        1 0.39138629E+00 0.96451474E+03</pdfrwt>
<pdfrwt beam="2">  1       -1 0.11404565E+00 0.96451474E+03</pdfrwt>
<totfact> 0.90648787E-01</totfact>
</mgrwt>
</event>
<event>
 4    1  0.8114601E-008  0.1227367E+04  0.7818608E-02  0.9130968E-01
         -1   -1    0    0    0  501 -0.00000000000E+00  0.00000000000E+00  0.42835214247E+03  0.42835214250E+03  0.50400000000E-02 0.  1.
          1   -1    0    0  501    0  0.00000000000E+00 -0.00000000000E+00 -0.43896938598E+04  0.43896938598E+04  0.50400000000E-02 0. -1.
    8880023    1    1    2    0    0  0.84543738949E+03  0.59820961974E+03 -0.34321183806E+04  0.36449781774E+04  0.65864270000E+03 0.  0.
    8880022    1    1    2    0    0 -0.84543738949E+03 -0.59820961974E+03 -0.52922333665E+03  0.11730678249E+04  0.15294330000E+03 0.  0.
<mgrwt>
<rscale>  0 0.11795263E+04</rscale>
<asrwt>0</asrwt>
<pdfrwt beam="1">  1        1 0.67533749E+00 0.12273668E+04</pdfrwt>
<pdfrwt beam="2">  1       -1 0.65900333E-01 0.12273668E+04</pdfrwt>
<totfact> 0.99447505E-02</totfact>
</mgrwt>
</event>
<event>
 4    1  0.8114601E-008  0.8144725E+03  0.7818608E-02  0.9680335E-01
          1   -1    0    0  501    0  0.00000000000E+00  0.00000000000E+00  0.21983087591E+04  0.21983087591E+04  0.50400000000E-02 0. -1.
         -1   -1    0    0    0  501 -0.00000000000E+00 -0.00000000000E+00 -0.35388548056E+03  0.35388548060E+03  0.50400000000E-02 0.  1.
    8880023    1    1    2    0    0  0.40329613651E+03  0.25866470613E+03  0.18791434802E+04  0.20480589907E+04  0.65864270000E+03 0.  0.
    8880022    1    1    2    0    0 -0.40329613651E+03 -0.25866470613E+03 -0.34720201614E+02  0.50413524905E+03  0.15294330000E+03 0.  0.
<mgrwt>
<rscale>  0 0.72199796E+03</rscale>
<asrwt>0</asrwt>
<pdfrwt beam="1">  1        1 0.33820135E+00 0.81447247E+03</pdfrwt>
<pdfrwt beam="2">  1       -1 0.54443920E-01 0.81447247E+03</pdfrwt>
<totfact> 0.77404585E+00</totfact>
</mgrwt>
</event>
<event>
 4    1  0.8114601E-008  0.8779718E+03  0.7818608E-02  0.9562362E-01
         -1   -1    0    0    0  501 -0.00000000000E+00  0.00000000000E+00  0.43294616713E+03  0.43294616715E+03  0.50400000000E-02 0.  1.
          1   -1    0    0  501    0  0.00000000000E+00 -0.00000000000E+00 -0.14303372745E+04  0.14303372745E+04  0.50400000000E-02 0. -1.
    8880023    1    1    2    0    0 -0.52560857913E+03 -0.24649533041E+03 -0.89596887567E+03  0.12544300534E+04  0.65864270000E+03 0.  0.
    8880022    1    1    2    0    0  0.52560857913E+03  0.24649533041E+03 -0.10142223174E+03  0.60885338833E+03  0.15294330000E+03 0.  0.
<mgrwt>
<rscale>  0 0.79838237E+03</rscale>
<asrwt>0</asrwt>
<pdfrwt beam="1">  1        1 0.22005189E+00 0.87797183E+03</pdfrwt>
<pdfrwt beam="2">  1       -1 0.66607104E-01 0.87797183E+03</pdfrwt>
<totfact> 0.17013941E+01</totfact>
</mgrwt>
</event>
<event>
 4    1  0.8114601E-008  0.1009416E+04  0.7818608E-02  0.9369342E-01
         -1   -1    0    0    0  501 -0.00000000000E+00  0.00000000000E+00  0.13900986174E+04  0.13900986174E+04  0.50400000000E-02 0.  1.
          1   -1    0    0  501    0  0.00000000000E+00 -0.00000000000E+00 -0.19676227442E+04  0.19676227442E+04  0.50400000000E-02 0. -1.
    8880023    1    1    2    0    0 -0.56625925906E+03 -0.51425666290E+03 -0.17081477732E+04  0.19841089903E+04  0.65864270000E+03 0.  0.
    8880022    1    1    2    0    0  0.56625925906E+03  0.51425666290E+03  0.11306236464E+04  0.13736123713E+04  0.15294330000E+03 0.  0.
<mgrwt>
<rscale>  0 0.94642271E+03</rscale>
<asrwt>0</asrwt>
<pdfrwt beam="1">  1        1 0.30271119E+00 0.10094155E+04</pdfrwt>
<pdfrwt beam="2">  1       -1 0.21386132E+00 0.10094155E+04</pdfrwt>
<totfact> 0.38379584E-01</totfact>
</mgrwt>
</event>
<event>
 4    1  0.8114601E-008  0.8503771E+03  0.7818608E-02  0.9610915E-01
         -1   -1    0    0    0  501 -0.00000000000E+00  0.00000000000E+00  0.10391101834E+04  0.10391101835E+04  0.50400000000E-02 0.  1.
          1   -1    0    0  501    0  0.00000000000E+00 -0.00000000000E+00 -0.55172362845E+03  0.55172362848E+03  0.50400000000E-02 0. -1.
    8880023    1    1    2    0    0 -0.14373937421E+03 -0.51833390369E+03  0.20518795299E+01  0.85037959753E+03  0.65864270000E+03 0. -1.
    8880022    1    1    2    0    0  0.14373937421E+03  0.51833390369E+03  0.48533467546E+03  0.74045421441E+03  0.15294330000E+03 0.  0.
<mgrwt>
<rscale>  0 0.76577926E+03</rscale>
<asrwt>0</asrwt>
<pdfrwt beam="1">  1        1 0.84880560E-01 0.85037712E+03</pdfrwt>
<pdfrwt beam="2">  1       -1 0.15986310E+00 0.85037712E+03</pdfrwt>
<totfact> 0.11513990E+01</totfact>
</mgrwt>
</event>
<event>
 4    1  0.8114601E-008  0.9869001E+03  0.7818608E-02  0.9398901E-01
         -1   -1    0    0    0  501 -0.00000000000E+00  0.00000000000E+00  0.47766182741E+03  0.47766182743E+03  0.50400000000E-02 0.  1.
          1   -1    0    0  501    0  0.00000000000E+00 -0.00000000000E+00 -0.30479118706E+04  0.30479118706E+04  0.50400000000E-02 0. -1.
    8880023    1    1    2    0    0  0.24354679705E+03  0.69343097119E+03 -0.25930710998E+04  0.27745250925E+04  0.65864270000E+03 0.  0.
    8880022    1    1    2    0    0 -0.24354679705E+03 -0.69343097119E+03  0.22821056635E+02  0.75104860549E+03  0.15294330000E+03 0.  0.
<mgrwt>
<rscale>  0 0.92166215E+03</rscale>
<asrwt>0</asrwt>
<pdfrwt beam="1">  1        1 0.46890951E+00 0.98690008E+03</pdfrwt>
<pdfrwt beam="2">  1       -1 0.73486437E-01 0.98690008E+03</pdfrwt>
<totfact> 0.10610153E+00</totfact>
</mgrwt>
</event>
<event>
 4    1  0.8114601E-008  0.1043135E+04  0.7818608E-02  0.9327180E-01
          1   -1    0    0  501    0  0.00000000000E+00  0.00000000000E+00  0.55907536279E+03  0.55907536281E+03  0.50400000000E-02 0. -1.
         -1   -1    0    0    0  501 -0.00000000000E+00 -0.00000000000E+00 -0.22465418206E+04  0.22465418206E+04  0.50400000000E-02 0.  1.
    8880023    1    1    2    0    0  0.75321123367E+03  0.29494612409E+03 -0.13958239794E+03  0.10524323402E+04  0.65864270000E+03 0. -1.
    8880022    1    1    2    0    0 -0.75321123367E+03 -0.29494612409E+03 -0.15478840599E+04  0.17531848432E+04  0.15294330000E+03 0.  0.
<mgrwt>
<rscale>  0 0.98318678E+03</rscale>
<asrwt>0</asrwt>
<pdfrwt beam="1">  1        1 0.86011596E-01 0.10431350E+04</pdfrwt>
<pdfrwt beam="2">  1       -1 0.34562181E+00 0.10431350E+04</pdfrwt>
<totfact> 0.63827139E-01</totfact>
</mgrwt>
</event>
<event>
 4    1  0.8114601E-008  0.1304949E+04  0.7818608E-02  0.9061297E-01
          1   -1    0    0  501    0  0.00000000000E+00  0.00000000000E+00  0.24227488543E+04  0.24227488543E+04  0.50400000000E-02 0. -1.
         -1   -1    0    0    0  501 -0.00000000000E+00 -0.00000000000E+00 -0.75043052970E+03  0.75043052972E+03  0.50400000000E-02 0.  1.
    8880023    1    1    2    0    0 -0.85259594006E+03 -0.73631716873E+03  0.15554027104E+04  0.20303129335E+04  0.65864270000E+03 0.  0.
    8880022    1    1    2    0    0  0.85259594006E+03  0.73631716873E+03  0.11691561419E+03  0.11428664506E+04  0.15294330000E+03 0.  0.
<mgrwt>
<rscale>  0 0.12607327E+04</rscale>
<asrwt>0</asrwt>
<pdfrwt beam="1">  1        1 0.37273059E+00 0.13049494E+04</pdfrwt>
<pdfrwt beam="2">  1       -1 0.11545085E+00 0.13049494E+04</pdfrwt>
<totfact> 0.10161633E+00</totfact>
</mgrwt>
</event>
<event>
 4    1  0.8114601E-008  0.7741569E+03  0.7818608E-02  0.9769746E-01
          1   -1    0    0  501    0  0.00000000000E+00  0.00000000000E+00  0.23456589925E+04  0.23456589926E+04  0.50400000000E-02 0. -1.
         -1   -1    0    0    0  501 -0.00000000000E+00 -0.00000000000E+00 -0.15687596044E+03  0.15687596052E+03  0.50400000000E-02 0.  1.
    8880023    1    1    2    0    0 -0.35404288750E+03  0.20040541200E+03  0.12968735113E+04  0.15103641302E+04  0.65864270000E+03 0.  1.
    8880022    1    1    2    0    0  0.35404288750E+03 -0.20040541200E+03  0.89190952082E+03  0.99217082284E+03  0.15294330000E+03 0. -1.
<mgrwt>
<rscale>  0 0.67011731E+03</rscale>
<asrwt>0</asrwt>
<pdfrwt beam="1">  1        1 0.36087059E+00 0.77415690E+03</pdfrwt>
<pdfrwt beam="2">  1       -1 0.24134765E-01 0.77415690E+03</pdfrwt>
<totfact> 0.26785874E+01</totfact>
</mgrwt>
</event>
<event>
 4    1  0.8114601E-008  0.1467789E+04  0.7818608E-02  0.8932722E-01
         -1   -1    0    0    0  501 -0.00000000000E+00  0.00000000000E+00  0.15402485398E+04  0.15402485398E+04  0.50400000000E-02 0.  1.
          1   -1    0    0  501    0  0.00000000000E+00 -0.00000000000E+00 -0.17038321101E+04  0.17038321101E+04  0.50400000000E-02 0. -1.
    8880023    1    1    2    0    0 -0.68831478207E+03 -0.11166102581E+04 -0.91013879603E+03  0.17270664556E+04  0.65864270000E+03 0. -1.
    8880022    1    1    2    0    0  0.68831478207E+03  0.11166102581E+04  0.74655522568E+03  0.15170141943E+04  0.15294330000E+03 0.  0.
<mgrwt>
<rscale>  0 0.14295217E+04</rscale>
<asrwt>0</asrwt>
<pdfrwt beam="1">  1        1 0.26212802E+00 0.14677895E+04</pdfrwt>
<pdfrwt beam="2">  1       -1 0.23696131E+00 0.14677895E+04</pdfrwt>
<totfact> 0.38137349E-01</totfact>
</mgrwt>
</event>
<event>
 4    1  0.8114601E-008  0.8179972E+03  0.7818608E-02  0.9673154E-01
          1   -1    0    0  501    0  0.00000000000E+00  0.00000000000E+00  0.24600053312E+04  0.24600053312E+04  0.50400000000E-02 0. -1.
         -1   -1    0    0    0  501 -0.00000000000E+00 -0.00000000000E+00 -0.53736195317E+03  0.53736195320E+03  0.50400000000E-02 0.  1.
    8880023    1    1    2    0    0  0.44984382385E+03 -0.18152053683E+03  0.22489333525E+04  0.23930776422E+04  0.65864270000E+03 0. -1.
    8880022    1    1    2    0    0 -0.44984382385E+03  0.18152053683E+03 -0.32628997454E+03  0.60428964218E+03  0.15294330000E+03 0.  0.
<mgrwt>
<rscale>  0 0.72637950E+03</rscale>
<asrwt>0</asrwt>
<pdfrwt beam="1">  1        1 0.37846236E+00 0.81799717E+03</pdfrwt>
<pdfrwt beam="2">  1       -1 0.82671071E-01 0.81799717E+03</pdfrwt>
<totfact> 0.22022793E+00</totfact>
</mgrwt>
</event>
<event>
 4    1  0.8114601E-008  0.9084218E+03  0.7818608E-02  0.9512645E-01
         -1   -1    0    0    0  501 -0.00000000000E+00  0.00000000000E+00  0.39843637668E+03  0.39843637672E+03  0.50400000000E-02 0.  1.
          1   -1    0    0  501    0  0.00000000000E+00 -0.00000000000E+00 -0.20736750398E+04  0.20736750398E+04  0.50400000000E-02 0. -1.
    8880023    1    1    2    0    0  0.62179047957E+03 -0.69256976569E+02 -0.15779348114E+04  0.18207439152E+04  0.65864270000E+03 0.  1.
    8880022    1    1    2    0    0 -0.62179047957E+03  0.69256976569E+02 -0.97303851731E+02  0.65136750138E+03  0.15294330000E+03 0.  0.
<mgrwt>
<rscale>  0 0.83357948E+03</rscale>
<asrwt>0</asrwt>
<pdfrwt beam="1">  1        1 0.31902692E+00 0.90842178E+03</pdfrwt>
<pdfrwt beam="2">  1       -1 0.61297905E-01 0.90842178E+03</pdfrwt>
<totfact> 0.73424317E+00</totfact>
</mgrwt>
</event>
<event>
 4    1  0.8114601E-008  0.6650633E+03  0.7818608E-02  0.1019480E+00
          1   -1    0    0  501    0  0.00000000000E+00  0.00000000000E+00  0.11695644427E+04  0.11695644427E+04  0.50400000000E-02 0. -1.
         -1   -1    0    0    0  501 -0.00000000000E+00 -0.00000000000E+00 -0.22893793556E+04  0.22893793556E+04  0.50400000000E-02 0.  1.
    8880023    1    1    2    0    0 -0.69759386896E+02 -0.60271687761E+02  0.10710911623E+04  0.12607718004E+04  0.65864270000E+03 0. -1.
    8880022    1    1    2    0    0  0.69759386896E+02  0.60271687761E+02 -0.21909060753E+04  0.21981719978E+04  0.15294330000E+03 0.  0.
<mgrwt>
<rscale>  0 0.47874612E+03</rscale>
<asrwt>0</asrwt>
<pdfrwt beam="1">  1        1 0.17993299E+00 0.66506335E+03</pdfrwt>
<pdfrwt beam="2">  1       -1 0.35221221E+00 0.66506335E+03</pdfrwt>
<totfact> 0.18618503E-01</totfact>
</mgrwt>
</event>
<event>
 4    1  0.8114601E-008  0.6674504E+03  0.7818608E-02  0.1017561E+00
          1   -1    0    0  501    0  0.00000000000E+00  0.00000000000E+00  0.30876295892E+03  0.30876295897E+03  0.50400000000E-02 0. -1.
         -1   -1    0    0    0  501 -0.00000000000E+00 -0.00000000000E+00 -0.14709176345E+04  0.14709176345E+04  0.50400000000E-02 0.  1.
    8880023    1    1    2    0    0  0.25412622575E+02 -0.10504296862E+03 -0.69461166196E+02  0.67105505476E+03  0.65864270000E+03 0. -1.
    8880022    1    1    2    0    0 -0.25412622575E+02  0.10504296862E+03 -0.10926935094E+04  0.11086255387E+04  0.15294330000E+03 0.  0.
<mgrwt>
<rscale>  0 0.48577315E+03</rscale>
<asrwt>0</asrwt>
<pdfrwt beam="1">  1        1 0.47501994E-01 0.66745040E+03</pdfrwt>
<pdfrwt beam="2">  1       -1 0.22629502E+00 0.66745040E+03</pdfrwt>
<totfact> 0.88148509E+00</totfact>
</mgrwt>
</event>
<event>
 4    1  0.8114601E-008  0.1179681E+04  0.7818608E-02  0.9177132E-01
          1   -1    0    0  501    0  0.00000000000E+00  0.00000000000E+00  0.16444759120E+04  0.16444759120E+04  0.50400000000E-02 0. -1.
         -1   -1    0    0    0  501 -0.00000000000E+00 -0.00000000000E+00 -0.98008621117E+03  0.98008621118E+03  0.50400000000E-02 0.  1.
    8880023    1    1    2    0    0 -0.66371892381E+03  0.71924496190E+03  0.10325994033E+04  0.15677716221E+04  0.65864270000E+03 0.  0.
    8880022    1    1    2    0    0  0.66371892381E+03 -0.71924496190E+03 -0.36820970254E+03  0.10567905010E+04  0.15294330000E+03 0.  0.
<mgrwt>
<rscale>  0 0.11292616E+04</rscale>
<asrwt>0</asrwt>
<pdfrwt beam="1">  1        1 0.25299629E+00 0.11796806E+04</pdfrwt>
<pdfrwt beam="2">  1       -1 0.15078250E+00 0.11796806E+04</pdfrwt>
<totfact> 0.17601848E+00</totfact>
</mgrwt>
</event>
<event>
 4    1  0.8114601E-008  0.1407790E+04  0.7818608E-02  0.8977653E-01
         -1   -1    0    0    0  501 -0.00000000000E+00  0.00000000000E+00  0.10370271587E+04  0.10370271587E+04  0.50400000000E-02 0.  1.
          1   -1    0    0  501    0  0.00000000000E+00 -0.00000000000E+00 -0.18139297400E+04  0.18139297400E+04  0.50400000000E-02 0. -1.
    8880023    1    1    2    0    0 -0.98487662562E+03 -0.76031599803E+03 -0.75439107350E+03  0.15971782877E+04  0.65864270000E+03 0.  0.
    8880022    1    1    2    0    0  0.98487662562E+03  0.76031599803E+03 -0.22511507780E+02  0.12537786111E+04  0.15294330000E+03 0.  0.
<mgrwt>
<rscale>  0 0.13675434E+04</rscale>
<asrwt>0</asrwt>
<pdfrwt beam="1">  1        1 0.27906611E+00 0.14077900E+04</pdfrwt>
<pdfrwt beam="2">  1       -1 0.15954264E+00 0.14077900E+04</pdfrwt>
<totfact> 0.11253978E+00</totfact>
</mgrwt>
</event>
<event>
 4    1  0.8114601E-008  0.1041664E+04  0.7818608E-02  0.9328970E-01
         -1   -1    0    0    0  501 -0.00000000000E+00  0.00000000000E+00  0.11658604050E+04  0.11658604050E+04  0.50400000000E-02 0.  1.
          1   -1    0    0  501    0  0.00000000000E+00 -0.00000000000E+00 -0.14272112225E+04  0.14272112225E+04  0.50400000000E-02 0. -1.
    8880023    1    1    2    0    0  0.58554074837E+03 -0.55533363235E+03 -0.10323290589E+04  0.14665493184E+04  0.65864270000E+03 0.  0.
    8880022    1    1    2    0    0 -0.58554074837E+03  0.55533363235E+03  0.77097824142E+03  0.11265223091E+04  0.15294330000E+03 0.  0.
<mgrwt>
<rscale>  0 0.98158999E+03</rscale>
<asrwt>0</asrwt>
<pdfrwt beam="1">  1        1 0.21957096E+00 0.10416639E+04</pdfrwt>
<pdfrwt beam="2">  1       -1 0.17936314E+00 0.10416639E+04</pdfrwt>
<totfact> 0.15460006E+00</totfact>
</mgrwt>
</event>
<event>
 4    1  0.8114601E-008  0.9467909E+03  0.7818608E-02  0.9454746E-01
          1   -1    0    0  501    0  0.00000000000E+00  0.00000000000E+00  0.33728260438E+04  0.33728260438E+04  0.50400000000E-02 0. -1.
         -1   -1    0    0    0  501 -0.00000000000E+00 -0.00000000000E+00 -0.64826909342E+03  0.64826909344E+03  0.50400000000E-02 0.  1.
    8880023    1    1    2    0    0 -0.53441389427E+03  0.42071907839E+03  0.30915391330E+04  0.32332688058E+04  0.65864270000E+03 0.  0.
    8880022    1    1    2    0    0  0.53441389427E+03 -0.42071907839E+03 -0.36698218256E+03  0.78782633152E+03  0.15294330000E+03 0.  0.
<mgrwt>
<rscale>  0 0.87704011E+03</rscale>
<asrwt>0</asrwt>
<pdfrwt beam="1">  1        1 0.51889632E+00 0.94679087E+03</pdfrwt>
<pdfrwt beam="2">  1       -1 0.99733706E-01 0.94679087E+03</pdfrwt>
<totfact> 0.31534018E-01</totfact>
</mgrwt>
</event>
<event>
 4    1  0.8114601E-008  0.6754246E+03  0.7818608E-02  0.1012040E+00
         -1   -1    0    0    0  501 -0.00000000000E+00  0.00000000000E+00  0.15654378461E+03  0.15654378469E+03  0.50400000000E-02 0.  1.
          1   -1    0    0  501    0  0.00000000000E+00 -0.00000000000E+00 -0.14632503316E+04  0.14632503316E+04  0.50400000000E-02 0. -1.
    8880023    1    1    2    0    0 -0.13188850059E+03  0.70665341553E+02 -0.12083498737E+04  0.13843076936E+04  0.65864270000E+03 0. -1.
    8880022    1    1    2    0    0  0.13188850059E+03 -0.70665341553E+02 -0.98356673344E+02  0.23548642273E+03  0.15294330000E+03 0.  1.
<mgrwt>
<rscale>  0 0.50671867E+03</rscale>
<asrwt>0</asrwt>
<pdfrwt beam="1">  1        1 0.22511543E+00 0.67542459E+03</pdfrwt>
<pdfrwt beam="2">  1       -1 0.24083660E-01 0.67542459E+03</pdfrwt>
<totfact> 0.10658745E+02</totfact>
</mgrwt>
</event>
<event>
 4    1  0.8114601E-008  0.6834560E+03  0.7818608E-02  0.1007433E+00
         -1   -1    0    0    0  501 -0.00000000000E+00  0.00000000000E+00  0.20419517614E+03  0.20419517620E+03  0.50400000000E-02 0.  1.
          1   -1    0    0  501    0  0.00000000000E+00 -0.00000000000E+00 -0.10904265151E+04  0.10904265151E+04  0.50400000000E-02 0. -1.
    8880023    1    1    2    0    0  0.31029233341E+02 -0.17983075239E+03 -0.52431592681E+03  0.86140542731E+03  0.65864270000E+03 0. -1.
    8880022    1    1    2    0    0 -0.31029233341E+02  0.17983075239E+03 -0.36191541212E+03  0.43321626398E+03  0.15294330000E+03 0.  0.
<mgrwt>
<rscale>  0 0.52507900E+03</rscale>
<asrwt>0</asrwt>
<pdfrwt beam="1">  1        1 0.16775792E+00 0.68345601E+03</pdfrwt>
<pdfrwt beam="2">  1       -1 0.31414643E-01 0.68345601E+03</pdfrwt>
<totfact> 0.12410606E+02</totfact>
</mgrwt>
</event>
<event>
 4    1  0.8114601E-008  0.6822618E+03  0.7818608E-02  0.1008072E+00
          1   -1    0    0  501    0  0.00000000000E+00  0.00000000000E+00  0.95634193027E+03  0.95634193029E+03  0.50400000000E-02 0. -1.
         -1   -1    0    0    0  501 -0.00000000000E+00 -0.00000000000E+00 -0.97322894526E+03  0.97322894527E+03  0.50400000000E-02 0.  1.
    8880023    1    1    2    0    0 -0.10910816762E+03 -0.14059274161E+03  0.81635636026E+03  0.10639167376E+04  0.65864270000E+03 0. -1.
    8880022    1    1    2    0    0  0.10910816762E+03  0.14059274161E+03 -0.83324337525E+03  0.86565413801E+03  0.15294330000E+03 0.  0.
<mgrwt>
<rscale>  0 0.52248079E+03</rscale>
<asrwt>0</asrwt>
<pdfrwt beam="1">  1        1 0.14712953E+00 0.68226177E+03</pdfrwt>
<pdfrwt beam="2">  1       -1 0.14972753E+00 0.68226177E+03</pdfrwt>
<totfact> 0.60100752E+00</totfact>
</mgrwt>
</event>
<event>
 4    1  0.8114601E-008  0.1069649E+04  0.7818608E-02  0.9295625E-01
         -1   -1    0    0    0  501 -0.00000000000E+00  0.00000000000E+00  0.31681196042E+04  0.31681196042E+04  0.50400000000E-02 0.  1.
          1   -1    0    0  501    0  0.00000000000E+00 -0.00000000000E+00 -0.56281156849E+03  0.56281156851E+03  0.50400000000E-02 0. -1.
    8880023    1    1    2    0    0 -0.40141933169E+03  0.74108123369E+03  0.89604352249E+02  0.10733955566E+04  0.65864270000E+03 0. -1.
    8880022    1    1    2    0    0  0.40141933169E+03 -0.74108123369E+03  0.25157036834E+04  0.26575356161E+04  0.15294330000E+03 0.  0.
<mgrwt>
<rscale>  0 0.10118661E+04</rscale>
<asrwt>0</asrwt>
<pdfrwt beam="1">  1        1 0.86586394E-01 0.10696490E+04</pdfrwt>
<pdfrwt beam="2">  1       -1 0.48740303E+00 0.10696490E+04</pdfrwt>
<totfact> 0.68378381E-02</totfact>
</mgrwt>
</event>
<event>
 4    1  0.8114601E-008  0.1396741E+04  0.7818608E-02  0.8986219E-01
          1   -1    0    0  501    0  0.00000000000E+00  0.00000000000E+00  0.16565823102E+04  0.16565823102E+04  0.50400000000E-02 0. -1.
         -1   -1    0    0    0  501 -0.00000000000E+00 -0.00000000000E+00 -0.14609551150E+04  0.14609551150E+04  0.50400000000E-02 0.  1.
    8880023    1    1    2    0    0  0.12020863625E+04 -0.26844695731E+03  0.92752067369E+03  0.16766574480E+04  0.65864270000E+03 0.  0.
    8880022    1    1    2    0    0 -0.12020863625E+04  0.26844695731E+03 -0.73189347845E+03  0.14408799771E+04  0.15294330000E+03 0.  0.
<mgrwt>
<rscale>  0 0.13561055E+04</rscale>
<asrwt>0</asrwt>
<pdfrwt beam="1">  1        1 0.25485882E+00 0.13967411E+04</pdfrwt>
<pdfrwt beam="2">  1       -1 0.22476232E+00 0.13967411E+04</pdfrwt>
<totfact> 0.49920826E-01</totfact>
</mgrwt>
</event>
<event>
 4    1  0.8114601E-008  0.1707639E+04  0.7818608E-02  0.8775425E-01
         -1   -1    0    0    0  501 -0.00000000000E+00  0.00000000000E+00  0.26062172324E+04  0.26062172324E+04  0.50400000000E-02 0.  1.
          1   -1    0    0  501    0  0.00000000000E+00 -0.00000000000E+00 -0.13759096912E+04  0.13759096912E+04  0.50400000000E-02 0. -1.
    8880023    1    1    2    0    0 -0.62743835749E+03 -0.14451786381E+04 -0.35248137893E+03  0.17436380121E+04  0.65864270000E+03 0. -1.
    8880022    1    1    2    0    0  0.62743835749E+03  0.14451786381E+04  0.15827889201E+04  0.22384889115E+04  0.15294330000E+03 0.  0.
<mgrwt>
<rscale>  0 0.16755649E+04</rscale>
<asrwt>0</asrwt>
<pdfrwt beam="1">  1        1 0.21167842E+00 0.17076388E+04</pdfrwt>
<pdfrwt beam="2">  1       -1 0.40095649E+00 0.17076388E+04</pdfrwt>
<totfact> 0.52038105E-02</totfact>
</mgrwt>
</event>
<event>
 4    1  0.8114601E-008  0.8863709E+03  0.7818608E-02  0.9548275E-01
         -1   -1    0    0    0  501 -0.00000000000E+00  0.00000000000E+00  0.73525112062E+03  0.73525112064E+03  0.50400000000E-02 0.  1.
          1   -1    0    0  501    0  0.00000000000E+00 -0.00000000000E+00 -0.13805911559E+04  0.13805911559E+04  0.50400000000E-02 0. -1.
    8880023    1    1    2    0    0 -0.59278962321E+03 -0.21064250973E+02 -0.10557514342E+04  0.13785008296E+04  0.65864270000E+03 0.  0.
    8880022    1    1    2    0    0  0.59278962321E+03  0.21064250973E+02  0.41041139891E+03  0.73734144698E+03  0.15294330000E+03 0.  0.
<mgrwt>
<rscale>  0 0.80816406E+03</rscale>
<asrwt>0</asrwt>
<pdfrwt beam="1">  1        1 0.21239864E+00 0.88637094E+03</pdfrwt>
<pdfrwt beam="2">  1       -1 0.11311556E+00 0.88637094E+03</pdfrwt>
<totfact> 0.57692717E+00</totfact>
</mgrwt>
</event>
<event>
 4    1  0.8114601E-008  0.6889380E+03  0.7818608E-02  0.1004661E+00
          1   -1    0    0  501    0  0.00000000000E+00  0.00000000000E+00  0.59193431651E+03  0.59193431653E+03  0.50400000000E-02 0. -1.
         -1   -1    0    0    0  501 -0.00000000000E+00 -0.00000000000E+00 -0.84028161020E+03  0.84028161021E+03  0.50400000000E-02 0.  1.
    8880023    1    1    2    0    0 -0.17018356108E+03  0.10891685694E+03  0.35701894198E+03  0.77594977762E+03  0.65864270000E+03 0. -1.
    8880022    1    1    2    0    0  0.17018356108E+03 -0.10891685694E+03 -0.60536623567E+03  0.65626614913E+03  0.15294330000E+03 0.  0.
<mgrwt>
<rscale>  0 0.53652668E+03</rscale>
<asrwt>0</asrwt>
<pdfrwt beam="1">  1        1 0.91066818E-01 0.68893797E+03</pdfrwt>
<pdfrwt beam="2">  1       -1 0.12927409E+00 0.68893797E+03</pdfrwt>
<totfact> 0.18577746E+01</totfact>
</mgrwt>
</event>
<event>
 4    1  0.8114601E-008  0.1831678E+04  0.7818608E-02  0.8705213E-01
         -1   -1    0    0    0  501 -0.00000000000E+00  0.00000000000E+00  0.14942075385E+04  0.14942075385E+04  0.50400000000E-02 0.  1.
          1   -1    0    0  501    0  0.00000000000E+00 -0.00000000000E+00 -0.24618559705E+04  0.24618559705E+04  0.50400000000E-02 0. -1.
    8880023    1    1    2    0    0 -0.16115185949E+04  0.56942213091E+03  0.25459588444E+03  0.18492871642E+04  0.65864270000E+03 0. -1.
    8880022    1    1    2    0    0  0.16115185949E+04 -0.56942213091E+03 -0.12222443165E+04  0.21067763448E+04  0.15294330000E+03 0.  0.
<mgrwt>
<rscale>  0 0.18020448E+04</rscale>
<asrwt>0</asrwt>
<pdfrwt beam="1">  1        1 0.37874707E+00 0.18316779E+04</pdfrwt>
<pdfrwt beam="2">  1       -1 0.22987808E+00 0.18316779E+04</pdfrwt>
<totfact> 0.12372922E-01</totfact>
</mgrwt>
</event>
<event>
 4    1  0.8114601E-008  0.7056143E+03  0.7818608E-02  0.9974662E-01
         -1   -1    0    0    0  501 -0.00000000000E+00  0.00000000000E+00  0.25396012993E+03  0.25396012998E+03  0.50400000000E-02 0.  1.
          1   -1    0    0  501    0  0.00000000000E+00 -0.00000000000E+00 -0.11455755317E+04  0.11455755317E+04  0.50400000000E-02 0. -1.
    8880023    1    1    2    0    0 -0.78215016061E+02  0.24075654360E+03 -0.36228918199E+03  0.79318658566E+03  0.65864270000E+03 0.  0.
    8880022    1    1    2    0    0  0.78215016061E+02 -0.24075654360E+03 -0.52932621973E+03  0.60634907598E+03  0.15294330000E+03 0.  0.
<mgrwt>
<rscale>  0 0.56775340E+03</rscale>
<asrwt>0</asrwt>
<pdfrwt beam="1">  1        1 0.17624239E+00 0.70561428E+03</pdfrwt>
<pdfrwt beam="2">  1       -1 0.39070790E-01 0.70561428E+03</pdfrwt>
<totfact> 0.76482118E+01</totfact>
</mgrwt>
</event>
<event>
 4    1  0.8114601E-008  0.9916219E+03  0.7818608E-02  0.9392602E-01
          1   -1    0    0  501    0  0.00000000000E+00  0.00000000000E+00  0.64812781515E+03  0.64812781517E+03  0.50400000000E-02 0. -1.
         -1   -1    0    0    0  501 -0.00000000000E+00 -0.00000000000E+00 -0.24442896064E+04  0.24442896064E+04  0.50400000000E-02 0.  1.
    8880023    1    1    2    0    0  0.15447277029E+03 -0.72501163328E+03  0.15124538182E+03  0.10030897651E+04  0.65864270000E+03 0.  0.
    8880022    1    1    2    0    0 -0.15447277029E+03  0.72501163328E+03 -0.19474071731E+04  0.20893276564E+04  0.15294330000E+03 0.  0.
<mgrwt>
<rscale>  0 0.92687033E+03</rscale>
<asrwt>0</asrwt>
<pdfrwt beam="1">  1        1 0.99711973E-01 0.99162186E+03</pdfrwt>
<pdfrwt beam="2">  1       -1 0.37604455E+00 0.99162186E+03</pdfrwt>
<totfact> 0.32618403E-01</totfact>
</mgrwt>
</event>
<event>
 4    1  0.8114601E-008  0.1073199E+04  0.7818608E-02  0.9291499E-01
          1   -1    0    0  501    0  0.00000000000E+00  0.00000000000E+00  0.13588350594E+04  0.13588350594E+04  0.50400000000E-02 0. -1.
         -1   -1    0    0    0  501 -0.00000000000E+00 -0.00000000000E+00 -0.97678118042E+03  0.97678118043E+03  0.50400000000E-02 0.  1.
    8880023    1    1    2    0    0 -0.55234958115E+03  0.64253928599E+03  0.83773897313E+03  0.13614564213E+04  0.65864270000E+03 0.  0.
    8880022    1    1    2    0    0  0.55234958115E+03 -0.64253928599E+03 -0.45568509418E+03  0.97415981846E+03  0.15294330000E+03 0.  0.
<mgrwt>
<rscale>  0 0.10156928E+04</rscale>
<asrwt>0</asrwt>
<pdfrwt beam="1">  1        1 0.20905155E+00 0.10731994E+04</pdfrwt>
<pdfrwt beam="2">  1       -1 0.15027403E+00 0.10731994E+04</pdfrwt>
<totfact> 0.28382436E+00</totfact>
</mgrwt>
</event>
<event>
 4    1  0.8114601E-008  0.1522308E+04  0.7818608E-02  0.8894042E-01
         -1   -1    0    0    0  501 -0.00000000000E+00  0.00000000000E+00  0.16445560309E+04  0.16445560309E+04  0.50400000000E-02 0.  1.
          1   -1    0    0  501    0  0.00000000000E+00 -0.00000000000E+00 -0.13339242603E+04  0.13339242603E+04  0.50400000000E-02 0. -1.
    8880023    1    1    2    0    0  0.73870231402E+03 -0.11566893982E+04 -0.13279875980E+03  0.15280893919E+04  0.65864270000E+03 0. -1.
    8880022    1    1    2    0    0 -0.73870231402E+03  0.11566893982E+04  0.44343053040E+03  0.14503908994E+04  0.15294330000E+03 0.  0.
<mgrwt>
<rscale>  0 0.14856648E+04</rscale>
<asrwt>0</asrwt>
<pdfrwt beam="1">  1        1 0.20521912E+00 0.15223080E+04</pdfrwt>
<pdfrwt beam="2">  1       -1 0.25300862E+00 0.15223080E+04</pdfrwt>
<totfact> 0.53873701E-01</totfact>
</mgrwt>
</event>
<event>
 4    1  0.8114601E-008  0.1206986E+04  0.7818608E-02  0.9150361E-01
          1   -1    0    0  501    0  0.00000000000E+00  0.00000000000E+00  0.22307381244E+04  0.22307381245E+04  0.50400000000E-02 0. -1.
         -1   -1    0    0    0  501 -0.00000000000E+00 -0.00000000000E+00 -0.95711843678E+03  0.95711843680E+03  0.50400000000E-02 0.  1.
    8880023    1    1    2    0    0  0.31340391578E+03  0.96165648143E+03  0.16955881309E+04  0.20813059647E+04  0.65864270000E+03 0.  0.
    8880022    1    1    2    0    0 -0.31340391578E+03 -0.96165648143E+03 -0.42196844321E+03  0.11065505966E+04  0.15294330000E+03 0.  0.
<mgrwt>
<rscale>  0 0.11580805E+04</rscale>
<asrwt>0</asrwt>
<pdfrwt beam="1">  1        1 0.34319048E+00 0.12069861E+04</pdfrwt>
<pdfrwt beam="2">  1       -1 0.14724899E+00 0.12069861E+04</pdfrwt>
<totfact> 0.74876603E-01</totfact>
</mgrwt>
</event>
<event>
 4    1  0.8114601E-008  0.1212897E+04  0.7818608E-02  0.9144687E-01
          1   -1    0    0  501    0  0.00000000000E+00  0.00000000000E+00  0.13260698337E+04  0.13260698337E+04  0.50400000000E-02 0. -1.
         -1   -1    0    0    0  501 -0.00000000000E+00 -0.00000000000E+00 -0.12134196167E+04  0.12134196167E+04  0.50400000000E-02 0.  1.
    8880023    1    1    2    0    0  0.89047158627E+03  0.49433679448E+03  0.65186429246E+03  0.13769697798E+04  0.65864270000E+03 0. -1.
    8880022    1    1    2    0    0 -0.89047158627E+03 -0.49433679448E+03 -0.53921407546E+03  0.11625196706E+04  0.15294330000E+03 0.  0.
<mgrwt>
<rscale>  0 0.11643056E+04</rscale>
<asrwt>0</asrwt>
<pdfrwt beam="1">  1        1 0.20401074E+00 0.12128968E+04</pdfrwt>
<pdfrwt beam="2">  1       -1 0.18667994E+00 0.12128968E+04</pdfrwt>
<totfact> 0.15814029E+00</totfact>
</mgrwt>
</event>
<event>
 4    1  0.8114601E-008  0.7336856E+03  0.7818608E-02  0.9878737E-01
          1   -1    0    0  501    0  0.00000000000E+00  0.00000000000E+00  0.12560504581E+04  0.12560504581E+04  0.50400000000E-02 0. -1.
         -1   -1    0    0    0  501 -0.00000000000E+00 -0.00000000000E+00 -0.49406336775E+03  0.49406336777E+03  0.50400000000E-02 0.  1.
    8880023    1    1    2    0    0 -0.32304302043E+03 -0.11297392766E+02  0.10568985218E+04  0.12865959411E+04  0.65864270000E+03 0. -1.
    8880022    1    1    2    0    0  0.32304302043E+03  0.11297392766E+02 -0.29491143139E+03  0.46351788478E+03  0.15294330000E+03 0.  0.
<mgrwt>
<rscale>  0 0.61302923E+03</rscale>
<asrwt>0</asrwt>
<pdfrwt beam="1">  1        1 0.19323853E+00 0.73368565E+03</pdfrwt>
<pdfrwt beam="2">  1       -1 0.76009749E-01 0.73368565E+03</pdfrwt>
<totfact> 0.17498340E+01</totfact>
</mgrwt>
</event>
<event>
 4    1  0.8114601E-008  0.8632087E+03  0.7818608E-02  0.9587881E-01
         -1   -1    0    0    0  501 -0.00000000000E+00  0.00000000000E+00  0.10280010018E+04  0.10280010018E+04  0.50400000000E-02 0.  1.
          1   -1    0    0  501    0  0.00000000000E+00 -0.00000000000E+00 -0.14683167379E+04  0.14683167380E+04  0.50400000000E-02 0. -1.
    8880023    1    1    2    0    0  0.13453642663E+03 -0.54149704203E+03 -0.12390364470E+04  0.15100796734E+04  0.65864270000E+03 0. -1.
    8880022    1    1    2    0    0 -0.13453642663E+03  0.54149704203E+03  0.79872071082E+03  0.98623806635E+03  0.15294330000E+03 0.  0.
<mgrwt>
<rscale>  0 0.78103514E+03</rscale>
<asrwt>0</asrwt>
<pdfrwt beam="1">  1        1 0.22589488E+00 0.86320872E+03</pdfrwt>
<pdfrwt beam="2">  1       -1 0.15815400E+00 0.86320872E+03</pdfrwt>
<totfact> 0.21312708E+00</totfact>
</mgrwt>
</event>
<event>
 4    1  0.8114601E-008  0.8219545E+03  0.7818608E-02  0.9665194E-01
         -1   -1    0    0    0  501 -0.00000000000E+00  0.00000000000E+00  0.44123762783E+03  0.44123762786E+03  0.50400000000E-02 0.  1.
          1   -1    0    0  501    0  0.00000000000E+00 -0.00000000000E+00 -0.15755251764E+04  0.15755251765E+04  0.50400000000E-02 0. -1.
    8880023    1    1    2    0    0 -0.23240416908E+02 -0.49118106404E+03 -0.12432488783E+04  0.14903948921E+04  0.65864270000E+03 0. -1.
    8880022    1    1    2    0    0  0.23240416908E+02  0.49118106404E+03  0.10896132969E+03  0.52636791224E+03  0.15294330000E+03 0.  0.
<mgrwt>
<rscale>  0 0.73127477E+03</rscale>
<asrwt>0</asrwt>
<pdfrwt beam="1">  1        1 0.24238849E+00 0.82195448E+03</pdfrwt>
<pdfrwt beam="2">  1       -1 0.67882713E-01 0.82195448E+03</pdfrwt>
<totfact> 0.13100588E+01</totfact>
</mgrwt>
</event>
<event>
 4    1  0.8114601E-008  0.1121763E+04  0.7818608E-02  0.9237204E-01
          1   -1    0    0  501    0  0.00000000000E+00  0.00000000000E+00  0.17016195147E+04  0.17016195147E+04  0.50400000000E-02 0. -1.
         -1   -1    0    0    0  501 -0.00000000000E+00 -0.00000000000E+00 -0.70893091014E+03  0.70893091016E+03  0.50400000000E-02 0.  1.
    8880023    1    1    2    0    0  0.87156558633E+03 -0.25478512598E+03  0.98012759125E+03  0.14896316099E+04  0.65864270000E+03 0. -1.
    8880022    1    1    2    0    0 -0.87156558633E+03  0.25478512598E+03  0.12561013278E+02  0.92091881497E+03  0.15294330000E+03 0.  0.
<mgrwt>
<rscale>  0 0.10677537E+04</rscale>
<asrwt>0</asrwt>
<pdfrwt beam="1">  1        1 0.26178762E+00 0.11217630E+04</pdfrwt>
<pdfrwt beam="2">  1       -1 0.10906629E+00 0.11217630E+04</pdfrwt>
<totfact> 0.36747263E+00</totfact>
</mgrwt>
</event>
<event>
 4    1  0.8114601E-008  0.6995751E+03  0.7818608E-02  0.9998968E-01
         -1   -1    0    0    0  501 -0.00000000000E+00  0.00000000000E+00  0.16816801241E+03  0.16816801248E+03  0.50400000000E-02 0.  1.
          1   -1    0    0  501    0  0.00000000000E+00 -0.00000000000E+00 -0.15193807097E+04  0.15193807097E+04  0.50400000000E-02 0. -1.
    8880023    1    1    2    0    0  0.18330204257E+03  0.14830879048E+03 -0.11336668693E+04  0.13321433530E+04  0.65864270000E+03 0. -1.
    8880022    1    1    2    0    0 -0.18330204257E+03 -0.14830879048E+03 -0.21754582796E+03  0.35540536915E+03  0.15294330000E+03 0.  0.
<mgrwt>
<rscale>  0 0.55695496E+03</rscale>
<asrwt>0</asrwt>
<pdfrwt beam="1">  1        1 0.23375087E+00 0.69957512E+03</pdfrwt>
<pdfrwt beam="2">  1       -1 0.25872003E-01 0.69957512E+03</pdfrwt>
<totfact> 0.86160604E+01</totfact>
</mgrwt>
</event>
<event>
 4    1  0.8114601E-008  0.1019107E+04  0.7818608E-02  0.9356976E-01
          1   -1    0    0  501    0  0.00000000000E+00  0.00000000000E+00  0.17766225838E+04  0.17766225838E+04  0.50400000000E-02 0. -1.
         -1   -1    0    0    0  501 -0.00000000000E+00 -0.00000000000E+00 -0.16046548980E+04  0.16046548980E+04  0.50400000000E-02 0.  1.
    8880023    1    1    2    0    0 -0.60441040215E+03  0.48934405259E+03  0.15126057962E+04  0.18238848749E+04  0.65864270000E+03 0.  0.
    8880022    1    1    2    0    0  0.60441040215E+03 -0.48934405259E+03 -0.13406381104E+04  0.15573926069E+04  0.15294330000E+03 0.  0.
<mgrwt>
<rscale>  0 0.95702621E+03</rscale>
<asrwt>0</asrwt>
<pdfrwt beam="1">  1        1 0.27332655E+00 0.10191073E+04</pdfrwt>
<pdfrwt beam="2">  1       -1 0.24686999E+00 0.10191073E+04</pdfrwt>
<totfact> 0.31202708E-01</totfact>
</mgrwt>
</event>
<event>
 4    1  0.8397238E-008  0.8491122E+03  0.7818608E-02  0.9613232E-01
         -1   -1    0    0    0  501 -0.00000000000E+00  0.00000000000E+00  0.73561819380E+03  0.73561819382E+03  0.50400000000E-02 0.  1.
          1   -1    0    0  501    0  0.00000000000E+00 -0.00000000000E+00 -0.15783683529E+04  0.15783683529E+04  0.50400000000E-02 0. -1.
    8880023    1    1    2    0    0 -0.12797141827E+03 -0.52038896213E+03 -0.13271909661E+04  0.15755720938E+04  0.65864270000E+03 0. -1.
    8880022    1    1    2    0    0  0.12797141827E+03  0.52038896213E+03  0.48444080704E+03  0.73841445296E+03  0.15294330000E+03 0.  0.
<mgrwt>
<rscale>  0 0.76426555E+03</rscale>
<asrwt>0</asrwt>
<pdfrwt beam="1">  1        1 0.24282590E+00 0.84911222E+03</pdfrwt>
<pdfrwt beam="2">  1       -1 0.11317203E+00 0.84911222E+03</pdfrwt>
<totfact> 0.42314516E+00</totfact>
</mgrwt>
</event>
<event>
 4    1  0.8114601E-008  0.7966609E+03  0.7818608E-02  0.9718063E-01
         -1   -1    0    0    0  501 -0.00000000000E+00  0.00000000000E+00  0.33407152340E+03  0.33407152344E+03  0.50400000000E-02 0.  1.
          1   -1    0    0  501    0  0.00000000000E+00 -0.00000000000E+00 -0.21094111534E+04  0.21094111534E+04  0.50400000000E-02 0. -1.
    8880023    1    1    2    0    0  0.44654090714E+03 -0.38204576486E+02 -0.18009021627E+04  0.19692427929E+04  0.65864270000E+03 0. -1.
    8880022    1    1    2    0    0 -0.44654090714E+03  0.38204576486E+02  0.25562532740E+02  0.47423988393E+03  0.15294330000E+03 0.  0.
<mgrwt>
<rscale>  0 0.69951444E+03</rscale>
<asrwt>0</asrwt>
<pdfrwt beam="1">  1        1 0.32452479E+00 0.79666089E+03</pdfrwt>
<pdfrwt beam="2">  1       -1 0.51395620E-01 0.79666089E+03</pdfrwt>
<totfact> 0.99458405E+00</totfact>
</mgrwt>
</event>
<event>
 4    1  0.8114601E-008  0.1089148E+04  0.7818608E-02  0.9273236E-01
          1   -1    0    0  501    0  0.00000000000E+00  0.00000000000E+00  0.15295777687E+04  0.15295777687E+04  0.50400000000E-02 0. -1.
         -1   -1    0    0    0  501 -0.00000000000E+00 -0.00000000000E+00 -0.13177017335E+04  0.13177017335E+04  0.50400000000E-02 0.  1.
    8880023    1    1    2    0    0 -0.86280050229E+03 -0.89490590139E+02  0.11338307602E+04  0.15722009005E+04  0.65864270000E+03 0. -1.
    8880022    1    1    2    0    0  0.86280050229E+03  0.89490590139E+02 -0.92195472498E+03  0.12750786017E+04  0.15294330000E+03 0.  0.
<mgrwt>
<rscale>  0 0.10328462E+04</rscale>
<asrwt>0</asrwt>
<pdfrwt beam="1">  1        1 0.23531966E+00 0.10891481E+04</pdfrwt>
<pdfrwt beam="2">  1       -1 0.20272334E+00 0.10891481E+04</pdfrwt>
<totfact> 0.89452668E-01</totfact>
</mgrwt>
</event>
<event>
 4    1  0.8114601E-008  0.1041168E+04  0.7818608E-02  0.9329575E-01
          1   -1    0    0  501    0  0.00000000000E+00  0.00000000000E+00  0.18876665296E+04  0.18876665296E+04  0.50400000000E-02 0. -1.
         -1   -1    0    0    0  501 -0.00000000000E+00 -0.00000000000E+00 -0.94856687873E+03  0.94856687874E+03  0.50400000000E-02 0.  1.
    8880023    1    1    2    0    0  0.20843066599E+03  0.77895851374E+03 -0.51874182516E+03  0.11632381511E+04  0.65864270000E+03 0.  0.
    8880022    1    1    2    0    0 -0.20843066599E+03 -0.77895851374E+03  0.14578414761E+04  0.16729952573E+04  0.15294330000E+03 0.  0.
<mgrwt>
<rscale>  0 0.98105115E+03</rscale>
<asrwt>0</asrwt>
<pdfrwt beam="1">  1        1 0.29041023E+00 0.10411676E+04</pdfrwt>
<pdfrwt beam="2">  1       -1 0.14593337E+00 0.10411676E+04</pdfrwt>
<totfact> 0.13387007E+00</totfact>
</mgrwt>
</event>
<event>
 4    1  0.8114601E-008  0.7008363E+03  0.7818608E-02  0.9993749E-01
         -1   -1    0    0    0  501 -0.00000000000E+00  0.00000000000E+00  0.38748566189E+03  0.38748566192E+03  0.50400000000E-02 0.  1.
          1   -1    0    0  501    0  0.00000000000E+00 -0.00000000000E+00 -0.17223283029E+04  0.17223283029E+04  0.50400000000E-02 0. -1.
    8880023    1    1    2    0    0 -0.23605310996E+03  0.40500387746E+02 -0.15838511315E+04  0.17319803593E+04  0.65864270000E+03 0.  0.
    8880022    1    1    2    0    0  0.23605310996E+03 -0.40500387746E+02  0.24900849046E+03  0.37783360552E+03  0.15294330000E+03 0.  0.
<mgrwt>
<rscale>  0 0.55925167E+03</rscale>
<asrwt>0</asrwt>
<pdfrwt beam="1">  1        1 0.26497358E+00 0.70083633E+03</pdfrwt>
<pdfrwt beam="2">  1       -1 0.59613180E-01 0.70083633E+03</pdfrwt>
<totfact> 0.13752247E+01</totfact>
</mgrwt>
</event>
<event>
 4    1  0.8114601E-008  0.9223901E+03  0.7818608E-02  0.9491004E-01
          1   -1    0    0  501    0  0.00000000000E+00  0.00000000000E+00  0.25279491867E+04  0.25279491867E+04  0.50400000000E-02 0. -1.
         -1   -1    0    0    0  501 -0.00000000000E+00 -0.00000000000E+00 -0.54493532376E+03  0.54493532379E+03  0.50400000000E-02 0.  1.
    8880023    1    1    2    0    0  0.56250374811E+03 -0.31714790149E+03  0.21911612879E+04  0.23773916913E+04  0.65864270000E+03 0.  0.
    8880022    1    1    2    0    0 -0.56250374811E+03  0.31714790149E+03 -0.20814742493E+03  0.69549281921E+03  0.15294330000E+03 0.  0.
<mgrwt>
<rscale>  0 0.84950321E+03</rscale>
<asrwt>0</asrwt>
<pdfrwt beam="1">  1        1 0.38891525E+00 0.92239008E+03</pdfrwt>
<pdfrwt beam="2">  1       -1 0.83836206E-01 0.92239008E+03</pdfrwt>
<totfact> 0.18854794E+00</totfact>
</mgrwt>
</event>
<event>
 4    1  0.8114601E-008  0.1011197E+04  0.7818608E-02  0.9367053E-01
         -1   -1    0    0    0  501 -0.00000000000E+00  0.00000000000E+00  0.40293702470E+04  0.40293702470E+04  0.50400000000E-02 0.  1.
          1   -1    0    0  501    0  0.00000000000E+00 -0.00000000000E+00 -0.13170157784E+04  0.13170157784E+04  0.50400000000E-02 0. -1.
    8880023    1    1    2    0    0  0.27213441720E+03 -0.71739290507E+03 -0.10768812324E+04  0.14772248022E+04  0.65864270000E+03 0. -1.
    8880022    1    1    2    0    0 -0.27213441720E+03  0.71739290507E+03  0.37892357010E+04  0.38691612233E+04  0.15294330000E+03 0.  0.
<mgrwt>
<rscale>  0 0.94837443E+03</rscale>
<asrwt>0</asrwt>
<pdfrwt beam="1">  1        1 0.20261781E+00 0.10111973E+04</pdfrwt>
<pdfrwt beam="2">  1       -1 0.61990311E+00 0.10111973E+04</pdfrwt>
<totfact> 0.32146677E-03</totfact>
</mgrwt>
</event>
<event>
 4    1  0.8114601E-008  0.1074249E+04  0.7818608E-02  0.9290283E-01
         -1   -1    0    0    0  501 -0.00000000000E+00  0.00000000000E+00  0.72462606900E+03  0.72462606902E+03  0.50400000000E-02 0.  1.
          1   -1    0    0  501    0  0.00000000000E+00 -0.00000000000E+00 -0.15907327306E+04  0.15907327306E+04  0.50400000000E-02 0. -1.
    8880023    1    1    2    0    0 -0.70872557857E+03  0.46680803235E+03 -0.96926905926E+03  0.14468912883E+04  0.65864270000E+03 0. -1.
    8880022    1    1    2    0    0  0.70872557857E+03 -0.46680803235E+03  0.10316239771E+03  0.86846751125E+03  0.15294330000E+03 0.  0.
<mgrwt>
<rscale>  0 0.10168240E+04</rscale>
<asrwt>0</asrwt>
<pdfrwt beam="1">  1        1 0.24472811E+00 0.10742495E+04</pdfrwt>
<pdfrwt beam="2">  1       -1 0.11148093E+00 0.10742495E+04</pdfrwt>
<totfact> 0.41752489E+00</totfact>
</mgrwt>
</event>
<event>
 4    1  0.8114601E-008  0.7038535E+03  0.7818608E-02  0.9981576E-01
          1   -1    0    0  501    0  0.00000000000E+00  0.00000000000E+00  0.10463714186E+04  0.10463714186E+04  0.50400000000E-02 0. -1.
         -1   -1    0    0    0  501 -0.00000000000E+00 -0.00000000000E+00 -0.12327520468E+04  0.12327520468E+04  0.50400000000E-02 0.  1.
    8880023    1    1    2    0    0  0.16485890693E+03  0.18552906150E+03  0.90670192121E+03  0.11478319006E+04  0.65864270000E+03 0. -1.
    8880022    1    1    2    0    0 -0.16485890693E+03 -0.18552906150E+03 -0.10930825493E+04  0.11312915648E+04  0.15294330000E+03 0.  0.
<mgrwt>
<rscale>  0 0.56465529E+03</rscale>
<asrwt>0</asrwt>
<pdfrwt beam="1">  1        1 0.16098022E+00 0.70385346E+03</pdfrwt>
<pdfrwt beam="2">  1       -1 0.18965416E+00 0.70385346E+03</pdfrwt>
<totfact> 0.26001209E+00</totfact>
</mgrwt>
</event>
<event>
 4    1  0.8114601E-008  0.6984951E+03  0.7818608E-02  0.1000350E+00
          1   -1    0    0  501    0  0.00000000000E+00  0.00000000000E+00  0.19540402966E+04  0.19540402966E+04  0.50400000000E-02 0. -1.
         -1   -1    0    0    0  501 -0.00000000000E+00 -0.00000000000E+00 -0.29615499620E+03  0.29615499624E+03  0.50400000000E-02 0.  1.
    8880023    1    1    2    0    0  0.52661296718E+02 -0.22652141931E+03  0.18049461943E+04  0.19353878516E+04  0.65864270000E+03 0.  0.
    8880022    1    1    2    0    0 -0.52661296718E+02  0.22652141931E+03 -0.14706089384E+03  0.31480744129E+03  0.15294330000E+03 0.  0.
<mgrwt>
<rscale>  0 0.55496933E+03</rscale>
<asrwt>0</asrwt>
<pdfrwt beam="1">  1        1 0.30062157E+00 0.69849508E+03</pdfrwt>
<pdfrwt beam="2">  1       -1 0.45562309E-01 0.69849508E+03</pdfrwt>
<totfact> 0.16088171E+01</totfact>
</mgrwt>
</event>
<event>
 4    1  0.8114601E-008  0.7285510E+03  0.7818608E-02  0.9894648E-01
         -1   -1    0    0    0  501 -0.00000000000E+00  0.00000000000E+00  0.16825048736E+03  0.16825048743E+03  0.50400000000E-02 0.  1.
          1   -1    0    0  501    0  0.00000000000E+00 -0.00000000000E+00 -0.28056595372E+04  0.28056595372E+04  0.50400000000E-02 0. -1.
    8880023    1    1    2    0    0 -0.28919800066E+03  0.11550264856E+03 -0.24944556316E+04  0.25986718627E+04  0.65864270000E+03 0. -1.
    8880022    1    1    2    0    0  0.28919800066E+03 -0.11550264856E+03 -0.14295341823E+03  0.37523816198E+03  0.15294330000E+03 0.  0.
<mgrwt>
<rscale>  0 0.60521383E+03</rscale>
<asrwt>0</asrwt>
<pdfrwt beam="1">  1        1 0.43163990E+00 0.72855099E+03</pdfrwt>
<pdfrwt beam="2">  1       -1 0.25884692E-01 0.72855099E+03</pdfrwt>
<totfact> 0.11556310E+01</totfact>
</mgrwt>
</event>
<event>
 4    1  0.8114601E-008  0.9684318E+03  0.7818608E-02  0.9424076E-01
          1   -1    0    0  501    0  0.00000000000E+00  0.00000000000E+00  0.89931255180E+03  0.89931255182E+03  0.50400000000E-02 0. -1.
         -1   -1    0    0    0  501 -0.00000000000E+00 -0.00000000000E+00 -0.12435266805E+04  0.12435266805E+04  0.50400000000E-02 0.  1.
    8880023    1    1    2    0    0  0.28014619994E+03  0.65235577827E+03  0.44892773686E+03  0.10674250671E+04  0.65864270000E+03 0. -1.
    8880022    1    1    2    0    0 -0.28014619994E+03 -0.65235577827E+03 -0.79314186558E+03  0.10754141652E+04  0.15294330000E+03 0.  0.
<mgrwt>
<rscale>  0 0.90120498E+03</rscale>
<asrwt>0</asrwt>
<pdfrwt beam="1">  1        1 0.13835578E+00 0.96843181E+03</pdfrwt>
<pdfrwt beam="2">  1       -1 0.19131180E+00 0.96843181E+03</pdfrwt>
<totfact> 0.31758061E+00</totfact>
</mgrwt>
</event>
<event>
 4    1  0.8114601E-008  0.1194777E+04  0.7818608E-02  0.9162217E-01
          1   -1    0    0  501    0  0.00000000000E+00  0.00000000000E+00  0.20301044411E+04  0.20301044411E+04  0.50400000000E-02 0. -1.
         -1   -1    0    0    0  501 -0.00000000000E+00 -0.00000000000E+00 -0.83645746528E+03  0.83645746529E+03  0.50400000000E-02 0.  1.
    8880023    1    1    2    0    0 -0.10613121200E+03 -0.99116950398E+03  0.13965103608E+04  0.18378607711E+04  0.65864270000E+03 0. -1.
    8880022    1    1    2    0    0  0.10613121200E+03  0.99116950398E+03 -0.20286338500E+03  0.10287011353E+04  0.15294330000E+03 0.  0.
<mgrwt>
<rscale>  0 0.11452070E+04</rscale>
<asrwt>0</asrwt>
<pdfrwt beam="1">  1        1 0.31232376E+00 0.11947766E+04</pdfrwt>
<pdfrwt beam="2">  1       -1 0.12868577E+00 0.11947766E+04</pdfrwt>
<totfact> 0.14568987E+00</totfact>
</mgrwt>
</event>
<event>
 4    1  0.8114601E-008  0.8107365E+03  0.7818608E-02  0.9688045E-01
          1   -1    0    0  501    0  0.00000000000E+00  0.00000000000E+00  0.12225772579E+04  0.12225772579E+04  0.50400000000E-02 0. -1.
         -1   -1    0    0    0  501 -0.00000000000E+00 -0.00000000000E+00 -0.73922160798E+03  0.73922160799E+03  0.50400000000E-02 0.  1.
    8880023    1    1    2    0    0  0.46730013429E+03  0.71513044841E+02  0.97144304272E+03  0.12653044387E+04  0.65864270000E+03 0. -1.
    8880022    1    1    2    0    0 -0.46730013429E+03 -0.71513044841E+02 -0.48808739280E+03  0.69649442720E+03  0.15294330000E+03 0.  0.
<mgrwt>
<rscale>  0 0.71733082E+03</rscale>
<asrwt>0</asrwt>
<pdfrwt beam="1">  1        1 0.18808881E+00 0.81073654E+03</pdfrwt>
<pdfrwt beam="2">  1       -1 0.11372640E+00 0.81073654E+03</pdfrwt>
<totfact> 0.74506085E+00</totfact>
</mgrwt>
</event>
<event>
 4    1  0.8114601E-008  0.6743296E+03  0.7818608E-02  0.1012732E+00
         -1   -1    0    0    0  501 -0.00000000000E+00  0.00000000000E+00  0.59003416953E+03  0.59003416955E+03  0.50400000000E-02 0.  1.
          1   -1    0    0  501    0  0.00000000000E+00 -0.00000000000E+00 -0.54674434162E+03  0.54674434164E+03  0.50400000000E-02 0. -1.
    8880023    1    1    2    0    0 -0.14124606455E+02  0.14391231038E+03 -0.29685416399E+03  0.73677870391E+03  0.65864270000E+03 0. -1.
    8880022    1    1    2    0    0  0.14124606455E+02 -0.14391231038E+03  0.34014399190E+03  0.39999980729E+03  0.15294330000E+03 0.  0.
<mgrwt>
<rscale>  0 0.50403071E+03</rscale>
<asrwt>0</asrwt>
<pdfrwt beam="1">  1        1 0.84114515E-01 0.67432964E+03</pdfrwt>
<pdfrwt beam="2">  1       -1 0.90774487E-01 0.67432964E+03</pdfrwt>
<totfact> 0.47705480E+01</totfact>
</mgrwt>
</event>
<event>
 4    1  0.8114601E-008  0.1087590E+04  0.7818608E-02  0.9275001E-01
          1   -1    0    0  501    0  0.00000000000E+00  0.00000000000E+00  0.16042679289E+04  0.16042679289E+04  0.50400000000E-02 0. -1.
         -1   -1    0    0    0  501 -0.00000000000E+00 -0.00000000000E+00 -0.11540882758E+04  0.11540882758E+04  0.50400000000E-02 0.  1.
    8880023    1    1    2    0    0 -0.81810893055E+03 -0.28238051387E+03 -0.71300380516E+03  0.13004713028E+04  0.65864270000E+03 0.  1.
    8880022    1    1    2    0    0  0.81810893055E+03  0.28238051387E+03  0.11631834583E+04  0.14578849020E+04  0.15294330000E+03 0.  0.
<mgrwt>
<rscale>  0 0.10311726E+04</rscale>
<asrwt>0</asrwt>
<pdfrwt beam="1">  1        1 0.24681045E+00 0.10875896E+04</pdfrwt>
<pdfrwt beam="2">  1       -1 0.17755204E+00 0.10875896E+04</pdfrwt>
<totfact> 0.11948795E+00</totfact>
</mgrwt>
</event>
<event>
 4    1  0.8923100E-008  0.7748993E+03  0.7818608E-02  0.9767958E-01
         -1   -1    0    0    0  501 -0.00000000000E+00  0.00000000000E+00  0.56724750786E+03  0.56724750788E+03  0.50400000000E-02 0.  1.
          1   -1    0    0  501    0  0.00000000000E+00 -0.00000000000E+00 -0.20103742714E+04  0.20103742714E+04  0.50400000000E-02 0. -1.
    8880023    1    1    2    0    0  0.39884278186E+03  0.87081020212E+02 -0.18347030001E+04  0.19916334938E+04  0.65864270000E+03 0.  0.
    8880022    1    1    2    0    0 -0.39884278186E+03 -0.87081020212E+02  0.39157623654E+03  0.58598828552E+03  0.15294330000E+03 0.  0.
<mgrwt>
<rscale>  0 0.67110815E+03</rscale>
<asrwt>0</asrwt>
<pdfrwt beam="1">  1        1 0.30928835E+00 0.77489927E+03</pdfrwt>
<pdfrwt beam="2">  1       -1 0.87268848E-01 0.77489927E+03</pdfrwt>
<totfact> 0.39668635E+00</totfact>
</mgrwt>
</event>
<event>
 4    1  0.8114601E-008  0.1007366E+04  0.7818608E-02  0.9371983E-01
         -1   -1    0    0    0  501 -0.00000000000E+00  0.00000000000E+00  0.83423515406E+03  0.83423515408E+03  0.50400000000E-02 0.  1.
          1   -1    0    0  501    0  0.00000000000E+00 -0.00000000000E+00 -0.14173219846E+04  0.14173219846E+04  0.50400000000E-02 0. -1.
    8880023    1    1    2    0    0 -0.27302079180E+03 -0.71164362954E+03 -0.95648768913E+03  0.13891205541E+04  0.65864270000E+03 0. -1.
    8880022    1    1    2    0    0  0.27302079180E+03  0.71164362954E+03  0.37340085856E+03  0.86243658457E+03  0.15294330000E+03 0.  0.
<mgrwt>
<rscale>  0 0.94417688E+03</rscale>
<asrwt>0</asrwt>
<pdfrwt beam="1">  1        1 0.21804954E+00 0.10073665E+04</pdfrwt>
<pdfrwt beam="2">  1       -1 0.12834387E+00 0.10073665E+04</pdfrwt>
<totfact> 0.39281827E+00</totfact>
</mgrwt>
</event>
<event>
 4    1  0.8393082E-008  0.1212513E+04  0.7818608E-02  0.9145054E-01
          1   -1    0    0  501    0  0.00000000000E+00  0.00000000000E+00  0.38626075818E+04  0.38626075818E+04  0.50400000000E-02 0. -1.
         -1   -1    0    0    0  501 -0.00000000000E+00 -0.00000000000E+00 -0.10928248388E+04  0.10928248388E+04  0.50400000000E-02 0.  1.
    8880023    1    1    2    0    0 -0.57848332407E+03  0.83769582552E+03  0.34929146420E+04  0.36973828792E+04  0.65864270000E+03 0.  0.
    8880022    1    1    2    0    0  0.57848332407E+03 -0.83769582552E+03 -0.72313189905E+03  0.12580495415E+04  0.15294330000E+03 0.  0.
<mgrwt>
<rscale>  0 0.11639013E+04</rscale>
<asrwt>0</asrwt>
<pdfrwt beam="1">  1        1 0.59424731E+00 0.12125129E+04</pdfrwt>
<pdfrwt beam="2">  1       -1 0.16812690E+00 0.12125129E+04</pdfrwt>
<totfact> 0.32220664E-02</totfact>
</mgrwt>
</event>
<event>
 4    1  0.8114601E-008  0.7716434E+03  0.7818608E-02  0.9775846E-01
         -1   -1    0    0    0  501 -0.00000000000E+00  0.00000000000E+00  0.58639715708E+03  0.58639715710E+03  0.50400000000E-02 0.  1.
          1   -1    0    0  501    0  0.00000000000E+00 -0.00000000000E+00 -0.21648410545E+04  0.21648410545E+04  0.50400000000E-02 0. -1.
    8880023    1    1    2    0    0 -0.40196544587E+03  0.68675577690E+01 -0.20032279947E+04  0.21467081749E+04  0.65864270000E+03 0. -1.
    8880022    1    1    2    0    0  0.40196544587E+03 -0.68675577690E+01  0.42478409727E+03  0.60453003675E+03  0.15294330000E+03 0.  0.
<mgrwt>
<rscale>  0 0.66675054E+03</rscale>
<asrwt>0</asrwt>
<pdfrwt beam="1">  1        1 0.33305247E+00 0.77164343E+03</pdfrwt>
<pdfrwt beam="2">  1       -1 0.90214948E-01 0.77164343E+03</pdfrwt>
<totfact> 0.29083043E+00</totfact>
</mgrwt>
</event>
<event>
 4    1  0.8114601E-008  0.7017543E+03  0.7818608E-02  0.9990000E-01
          1   -1    0    0  501    0  0.00000000000E+00  0.00000000000E+00  0.14864025283E+04  0.14864025283E+04  0.50400000000E-02 0. -1.
         -1   -1    0    0    0  501 -0.00000000000E+00 -0.00000000000E+00 -0.54500667319E+03  0.54500667321E+03  0.50400000000E-02 0.  1.
    8880023    1    1    2    0    0 -0.40345202289E+02 -0.23879111595E+03  0.13563870298E+04  0.15271689210E+04  0.65864270000E+03 0. -1.
    8880022    1    1    2    0    0  0.40345202289E+02  0.23879111595E+03 -0.41499117469E+03  0.50424028051E+03  0.15294330000E+03 0. -1.
<mgrwt>
<rscale>  0 0.56090901E+03</rscale>
<asrwt>0</asrwt>
<pdfrwt beam="1">  1        1 0.22867730E+00 0.70175433E+03</pdfrwt>
<pdfrwt beam="2">  1       -1 0.83847183E-01 0.70175433E+03</pdfrwt>
<totfact> 0.98629403E+00</totfact>
</mgrwt>
</event>
<event>
 4    1  0.8114601E-008  0.9176695E+03  0.7818608E-02  0.9498242E-01
          1   -1    0    0  501    0  0.00000000000E+00  0.00000000000E+00  0.44977211802E+03  0.44977211805E+03  0.50400000000E-02 0. -1.
         -1   -1    0    0    0  501 -0.00000000000E+00 -0.00000000000E+00 -0.28935662574E+04  0.28935662574E+04  0.50400000000E-02 0.  1.
    8880023    1    1    2    0    0 -0.58155508774E+03  0.26476554677E+03 -0.11645182271E+03  0.92502883637E+03  0.65864270000E+03 0.  0.
    8880022    1    1    2    0    0  0.58155508774E+03 -0.26476554677E+03 -0.23273423167E+04  0.24183095391E+04  0.15294330000E+03 0.  0.
<mgrwt>
<rscale>  0 0.84413581E+03</rscale>
<asrwt>0</asrwt>
<pdfrwt beam="1">  1        1 0.69195712E-01 0.91766951E+03</pdfrwt>
<pdfrwt beam="2">  1       -1 0.44516403E+00 0.91766951E+03</pdfrwt>
<totfact> 0.18646525E-01</totfact>
</mgrwt>
</event>
<event>
 4    1  0.8114601E-008  0.7351758E+03  0.7818608E-02  0.9874229E-01
          1   -1    0    0  501    0  0.00000000000E+00  0.00000000000E+00  0.58148482132E+03  0.58148482134E+03  0.50400000000E-02 0. -1.
         -1   -1    0    0    0  501 -0.00000000000E+00 -0.00000000000E+00 -0.26571726931E+04  0.26571726931E+04  0.50400000000E-02 0.  1.
    8880023    1    1    2    0    0  0.62280383124E+02 -0.32061566670E+03  0.33017427618E+03  0.80591470440E+03  0.65864270000E+03 0. -1.
    8880022    1    1    2    0    0 -0.62280383124E+02  0.32061566670E+03 -0.24058621480E+04  0.24327428101E+04  0.15294330000E+03 0.  0.
<mgrwt>
<rscale>  0 0.61526671E+03</rscale>
<asrwt>0</asrwt>
<pdfrwt beam="1">  1        1 0.89459205E-01 0.73517580E+03</pdfrwt>
<pdfrwt beam="2">  1       -1 0.40879579E+00 0.73517580E+03</pdfrwt>
<totfact> 0.24089491E-01</totfact>
</mgrwt>
</event>
<event>
 4    1  0.8114601E-008  0.1247871E+04  0.7818608E-02  0.9111937E-01
         -1   -1    0    0    0  501 -0.00000000000E+00  0.00000000000E+00  0.94803577856E+03  0.94803577857E+03  0.50400000000E-02 0.  1.
          1   -1    0    0  501    0  0.00000000000E+00 -0.00000000000E+00 -0.16567253119E+04  0.16567253119E+04  0.50400000000E-02 0. -1.
    8880023    1    1    2    0    0  0.74065500881E+03  0.75815681491E+03  0.11584400799E+03  0.12532364655E+04  0.65864270000E+03 0.  0.
    8880022    1    1    2    0    0 -0.74065500881E+03 -0.75815681491E+03 -0.82453354138E+03  0.13515246250E+04  0.15294330000E+03 0.  0.
<mgrwt>
<rscale>  0 0.12010510E+04</rscale>
<asrwt>0</asrwt>
<pdfrwt beam="1">  1        1 0.25488082E+00 0.12478709E+04</pdfrwt>
<pdfrwt beam="2">  1       -1 0.14585166E+00 0.12478709E+04</pdfrwt>
<totfact> 0.18734454E+00</totfact>
</mgrwt>
</event>
<event>
 4    1  0.1194295E-007  0.1479346E+04  0.7818608E-02  0.8924360E-01
          1   -1    0    0  501    0  0.00000000000E+00  0.00000000000E+00  0.24181132355E+04  0.24181132355E+04  0.50400000000E-02 0. -1.
         -1   -1    0    0    0  501 -0.00000000000E+00 -0.00000000000E+00 -0.16876261910E+04  0.16876261910E+04  0.50400000000E-02 0.  1.
    8880023    1    1    2    0    0  0.12793739292E+04 -0.34330381097E+03  0.18471283240E+04  0.23665055269E+04  0.65864270000E+03 0.  0.
    8880022    1    1    2    0    0 -0.12793739292E+04  0.34330381097E+03 -0.11166412795E+04  0.17392338996E+04  0.15294330000E+03 0.  0.
<mgrwt>
<rscale>  0 0.14414357E+04</rscale>
<asrwt>0</asrwt>
<pdfrwt beam="1">  1        1 0.37201742E+00 0.14793463E+04</pdfrwt>
<pdfrwt beam="2">  1       -1 0.25963480E+00 0.14793463E+04</pdfrwt>
<totfact> 0.88086039E-02</totfact>
</mgrwt>
</event>
<event>
 4    1  0.8114601E-008  0.6646576E+03  0.7818608E-02  0.1019822E+00
          1   -1    0    0  501    0  0.00000000000E+00  0.00000000000E+00  0.17096872204E+04  0.17096872204E+04  0.50400000000E-02 0. -1.
         -1   -1    0    0    0  501 -0.00000000000E+00 -0.00000000000E+00 -0.19722565530E+03  0.19722565537E+03  0.50400000000E-02 0.  1.
    8880023    1    1    2    0    0 -0.33063380840E+02 -0.82863109109E+02  0.15825680238E+04  0.17164764019E+04  0.65864270000E+03 0. -1.
    8880022    1    1    2    0    0  0.33063380840E+02  0.82863109109E+02 -0.70106458735E+02  0.19043647386E+03  0.15294330000E+03 0.  0.
<mgrwt>
<rscale>  0 0.47750742E+03</rscale>
<asrwt>0</asrwt>
<pdfrwt beam="1">  1        1 0.26302880E+00 0.66465757E+03</pdfrwt>
<pdfrwt beam="2">  1       -1 0.30342409E-01 0.66465757E+03</pdfrwt>
<totfact> 0.48870798E+01</totfact>
</mgrwt>
</event>
<event>
 4    1  0.8114601E-008  0.1074006E+04  0.7818608E-02  0.9290564E-01
          1   -1    0    0  501    0  0.00000000000E+00  0.00000000000E+00  0.29308550195E+04  0.29308550195E+04  0.50400000000E-02 0. -1.
         -1   -1    0    0    0  501 -0.00000000000E+00 -0.00000000000E+00 -0.10201741672E+04  0.10201741672E+04  0.50400000000E-02 0.  1.
    8880023    1    1    2    0    0 -0.82833686473E+03  0.18313046917E+03  0.26219896719E+04  0.28334288020E+04  0.65864270000E+03 0. -1.
    8880022    1    1    2    0    0  0.82833686473E+03 -0.18313046917E+03 -0.71130881953E+03  0.11176003847E+04  0.15294330000E+03 0.  0.
<mgrwt>
<rscale>  0 0.10165618E+04</rscale>
<asrwt>0</asrwt>
<pdfrwt beam="1">  1        1 0.45090076E+00 0.10740060E+04</pdfrwt>
<pdfrwt beam="2">  1       -1 0.15694988E+00 0.10740060E+04</pdfrwt>
<totfact> 0.20951935E-01</totfact>
</mgrwt>
</event>
<event>
 4    1  0.8114601E-008  0.2037702E+04  0.7818608E-02  0.8601326E-01
          1   -1    0    0  501    0  0.00000000000E+00  0.00000000000E+00  0.44870609312E+04  0.44870609312E+04  0.50400000000E-02 0. -1.
         -1   -1    0    0    0  501 -0.00000000000E+00 -0.00000000000E+00 -0.16385900932E+04  0.16385900932E+04  0.50400000000E-02 0.  1.
    8880023    1    1    2    0    0  0.17167965298E+04  0.87808313484E+03  0.35290026495E+04  0.40750570822E+04  0.65864270000E+03 0. -1.
    8880022    1    1    2    0    0 -0.17167965298E+04 -0.87808313484E+03 -0.68053181154E+03  0.20505939422E+04  0.15294330000E+03 0.  0.
<mgrwt>
<rscale>  0 0.20113645E+04</rscale>
<asrwt>0</asrwt>
<pdfrwt beam="1">  1        1 0.69031706E+00 0.20377023E+04</pdfrwt>
<pdfrwt beam="2">  1       -1 0.25209079E+00 0.20377023E+04</pdfrwt>
<totfact> 0.19939803E-03</totfact>
</mgrwt>
</event>
<event>
 4    1  0.8114601E-008  0.1036816E+04  0.7818608E-02  0.9334901E-01
          1   -1    0    0  501    0  0.00000000000E+00  0.00000000000E+00  0.15368859942E+04  0.15368859943E+04  0.50400000000E-02 0. -1.
         -1   -1    0    0    0  501 -0.00000000000E+00 -0.00000000000E+00 -0.11712871798E+04  0.11712871798E+04  0.50400000000E-02 0.  1.
    8880023    1    1    2    0    0 -0.28795057083E+03 -0.74716889859E+03  0.11697349015E+04  0.15630952755E+04  0.65864270000E+03 0.  0.
    8880022    1    1    2    0    0  0.28795057083E+03  0.74716889859E+03 -0.80413608704E+03  0.11450778986E+04  0.15294330000E+03 0.  0.
<mgrwt>
<rscale>  0 0.97632339E+03</rscale>
<asrwt>0</asrwt>
<pdfrwt beam="1">  1        1 0.23644400E+00 0.10368158E+04</pdfrwt>
<pdfrwt beam="2">  1       -1 0.18019803E+00 0.10368158E+04</pdfrwt>
<totfact> 0.12810022E+00</totfact>
</mgrwt>
</event>
<event>
 4    1  0.8114601E-008  0.1116367E+04  0.7818608E-02  0.9243049E-01
          1   -1    0    0  501    0  0.00000000000E+00  0.00000000000E+00  0.19763657589E+04  0.19763657589E+04  0.50400000000E-02 0. -1.
         -1   -1    0    0    0  501 -0.00000000000E+00 -0.00000000000E+00 -0.64301166513E+03  0.64301166515E+03  0.50400000000E-02 0.  1.
    8880023    1    1    2    0    0  0.85446283966E+03  0.28698162819E+03  0.12873349056E+04  0.17039678884E+04  0.65864270000E+03 0. -1.
    8880022    1    1    2    0    0 -0.85446283966E+03 -0.28698162819E+03  0.46019188188E+02  0.91540953566E+03  0.15294330000E+03 0.  0.
<mgrwt>
<rscale>  0 0.10619932E+04</rscale>
<asrwt>0</asrwt>
<pdfrwt beam="1">  1        1 0.30405627E+00 0.11163671E+04</pdfrwt>
<pdfrwt beam="2">  1       -1 0.98924872E-01 0.11163671E+04</pdfrwt>
<totfact> 0.30083074E+00</totfact>
</mgrwt>
</event>
<event>
 4    1  0.8114601E-008  0.9104670E+03  0.7818608E-02  0.9509433E-01
          1   -1    0    0  501    0  0.00000000000E+00  0.00000000000E+00  0.13604412213E+04  0.13604412213E+04  0.50400000000E-02 0. -1.
         -1   -1    0    0    0  501 -0.00000000000E+00 -0.00000000000E+00 -0.89816461463E+03  0.89816461465E+03  0.50400000000E-02 0.  1.
    8880023    1    1    2    0    0 -0.51306340037E+03 -0.36318861120E+03  0.10463519180E+04  0.13870120989E+04  0.65864270000E+03 0. -1.
    8880022    1    1    2    0    0  0.51306340037E+03  0.36318861120E+03 -0.58407531131E+03  0.87159373701E+03  0.15294330000E+03 0.  0.
<mgrwt>
<rscale>  0 0.83591903E+03</rscale>
<asrwt>0</asrwt>
<pdfrwt beam="1">  1        1 0.20929865E+00 0.91046704E+03</pdfrwt>
<pdfrwt beam="2">  1       -1 0.13817917E+00 0.91046704E+03</pdfrwt>
<totfact> 0.36114181E+00</totfact>
</mgrwt>
</event>
<event>
 4    1  0.8114601E-008  0.1129434E+04  0.7818608E-02  0.9228971E-01
         -1   -1    0    0    0  501 -0.00000000000E+00  0.00000000000E+00  0.19847496905E+04  0.19847496905E+04  0.50400000000E-02 0.  1.
          1   -1    0    0  501    0  0.00000000000E+00 -0.00000000000E+00 -0.12114201609E+04  0.12114201609E+04  0.50400000000E-02 0. -1.
    8880023    1    1    2    0    0  0.50217877147E+02 -0.91612748160E+03 -0.78912354672E+03  0.13778017187E+04  0.65864270000E+03 0.  0.
    8880022    1    1    2    0    0 -0.50217877147E+02  0.91612748160E+03  0.15624530763E+04  0.18183681328E+04  0.15294330000E+03 0.  0.
<mgrwt>
<rscale>  0 0.10759336E+04</rscale>
<asrwt>0</asrwt>
<pdfrwt beam="1">  1        1 0.18637233E+00 0.11294342E+04</pdfrwt>
<pdfrwt beam="2">  1       -1 0.30534610E+00 0.11294342E+04</pdfrwt>
<totfact> 0.31795396E-01</totfact>
</mgrwt>
</event>
<event>
 4    1  0.8114601E-008  0.8566685E+03  0.7818608E-02  0.9599517E-01
          1   -1    0    0  501    0  0.00000000000E+00  0.00000000000E+00  0.80560124936E+03  0.80560124937E+03  0.50400000000E-02 0. -1.
         -1   -1    0    0    0  501 -0.00000000000E+00 -0.00000000000E+00 -0.14271074010E+04  0.14271074010E+04  0.50400000000E-02 0.  1.
    8880023    1    1    2    0    0 -0.50509593704E+03  0.21201142075E+03  0.48800939572E+03  0.98591790972E+03  0.65864270000E+03 0. -1.
    8880022    1    1    2    0    0  0.50509593704E+03 -0.21201142075E+03 -0.11095155474E+04  0.12467907407E+04  0.15294330000E+03 0.  0.
<mgrwt>
<rscale>  0 0.77328143E+03</rscale>
<asrwt>0</asrwt>
<pdfrwt beam="1">  1        1 0.12393865E+00 0.85666852E+03</pdfrwt>
<pdfrwt beam="2">  1       -1 0.21955498E+00 0.85666852E+03</pdfrwt>
<totfact> 0.24829728E+00</totfact>
</mgrwt>
</event>
<event>
 4    1  0.8114601E-008  0.8161567E+03  0.7818608E-02  0.9676893E-01
          1   -1    0    0  501    0  0.00000000000E+00  0.00000000000E+00  0.98387158923E+03  0.98387158924E+03  0.50400000000E-02 0. -1.
         -1   -1    0    0    0  501 -0.00000000000E+00 -0.00000000000E+00 -0.12334805089E+04  0.12334805090E+04  0.50400000000E-02 0.  1.
    8880023    1    1    2    0    0 -0.45486120984E+03  0.15938249546E+03  0.74278426400E+03  0.11035579591E+04  0.65864270000E+03 0. -1.
    8880022    1    1    2    0    0  0.45486120984E+03 -0.15938249546E+03 -0.99239318372E+03  0.11137941390E+04  0.15294330000E+03 0.  0.
<mgrwt>
<rscale>  0 0.72409415E+03</rscale>
<asrwt>0</asrwt>
<pdfrwt beam="1">  1        1 0.15136486E+00 0.81615667E+03</pdfrwt>
<pdfrwt beam="2">  1       -1 0.18976623E+00 0.81615667E+03</pdfrwt>
<totfact> 0.28452940E+00</totfact>
</mgrwt>
</event>
<event>
 4    1  0.8953102E-008  0.1537527E+04  0.7818608E-02  0.8883581E-01
         -1   -1    0    0    0  501 -0.00000000000E+00  0.00000000000E+00  0.13811455090E+04  0.13811455090E+04  0.50400000000E-02 0.  1.
          1   -1    0    0  501    0  0.00000000000E+00 -0.00000000000E+00 -0.29883101258E+04  0.29883101258E+04  0.50400000000E-02 0. -1.
    8880023    1    1    2    0    0  0.54285613178E+03  0.12788617749E+04 -0.23333432960E+04  0.27943660037E+04  0.65864270000E+03 0.  0.
    8880022    1    1    2    0    0 -0.54285613178E+03 -0.12788617749E+04  0.72617867915E+03  0.15750896312E+04  0.15294330000E+03 0.  1.
<mgrwt>
<rscale>  0 0.15013115E+04</rscale>
<asrwt>0</asrwt>
<pdfrwt beam="1">  1        1 0.45974002E+00 0.15375274E+04</pdfrwt>
<pdfrwt beam="2">  1       -1 0.21248392E+00 0.15375274E+04</pdfrwt>
<totfact> 0.71014780E-02</totfact>
</mgrwt>
</event>
<event>
 4    1  0.8114601E-008  0.1546022E+04  0.7818608E-02  0.8877804E-01
         -1   -1    0    0    0  501 -0.00000000000E+00  0.00000000000E+00  0.89915651656E+03  0.89915651658E+03  0.50400000000E-02 0.  1.
          1   -1    0    0  501    0  0.00000000000E+00 -0.00000000000E+00 -0.31664423338E+04  0.31664423338E+04  0.50400000000E-02 0. -1.
    8880023    1    1    2    0    0 -0.88475760395E+03 -0.10833183786E+04 -0.21575548737E+04  0.26542848314E+04  0.65864270000E+03 0.  0.
    8880022    1    1    2    0    0  0.88475760395E+03  0.10833183786E+04 -0.10973094355E+03  0.14113140190E+04  0.15294330000E+03 0.  0.
<mgrwt>
<rscale>  0 0.15100404E+04</rscale>
<asrwt>0</asrwt>
<pdfrwt beam="1">  1        1 0.48714497E+00 0.15460223E+04</pdfrwt>
<pdfrwt beam="2">  1       -1 0.13833177E+00 0.15460223E+04</pdfrwt>
<totfact> 0.18488673E-01</totfact>
</mgrwt>
</event>
<event>
 4    1  0.8114601E-008  0.1370823E+04  0.7818608E-02  0.9006692E-01
         -1   -1    0    0    0  501 -0.00000000000E+00  0.00000000000E+00  0.65784417065E+03  0.65784417067E+03  0.50400000000E-02 0.  1.
          1   -1    0    0  501    0  0.00000000000E+00 -0.00000000000E+00 -0.27172865175E+04  0.27172865175E+04  0.50400000000E-02 0. -1.
    8880023    1    1    2    0    0  0.11946991864E+04  0.13431146406E+03 -0.15251458406E+04  0.20506647109E+04  0.65864270000E+03 0.  0.
    8880022    1    1    2    0    0 -0.11946991864E+04 -0.13431146406E+03 -0.53429650631E+03  0.13244659773E+04  0.15294330000E+03 0.  0.
<mgrwt>
<rscale>  0 0.13292421E+04</rscale>
<asrwt>0</asrwt>
<pdfrwt beam="1">  1        1 0.41804407E+00 0.13708231E+04</pdfrwt>
<pdfrwt beam="2">  1       -1 0.10120680E+00 0.13708231E+04</pdfrwt>
<totfact> 0.85935021E-01</totfact>
</mgrwt>
</event>
<event>
 4    1  0.8114601E-008  0.7660228E+03  0.7818608E-02  0.9789757E-01
         -1   -1    0    0    0  501 -0.00000000000E+00  0.00000000000E+00  0.28511725555E+03  0.28511725559E+03  0.50400000000E-02 0.  1.
          1   -1    0    0  501    0  0.00000000000E+00 -0.00000000000E+00 -0.17522051052E+04  0.17522051052E+04  0.50400000000E-02 0. -1.
    8880023    1    1    2    0    0  0.15407621533E+03 -0.35950148660E+03 -0.14216644425E+04  0.16149058153E+04  0.65864270000E+03 0.  0.
    8880022    1    1    2    0    0 -0.15407621533E+03  0.35950148660E+03 -0.45423407198E+02  0.42241654553E+03  0.15294330000E+03 0.  0.
<mgrwt>
<rscale>  0 0.65915134E+03</rscale>
<asrwt>0</asrwt>
<pdfrwt beam="1">  1        1 0.26957001E+00 0.76602285E+03</pdfrwt>
<pdfrwt beam="2">  1       -1 0.43864194E-01 0.76602285E+03</pdfrwt>
<totfact> 0.23330754E+01</totfact>
</mgrwt>
</event>
<event>
 4    1  0.8114601E-008  0.1232552E+04  0.7818608E-02  0.9126111E-01
          1   -1    0    0  501    0  0.00000000000E+00  0.00000000000E+00  0.18451845555E+04  0.18451845555E+04  0.50400000000E-02 0. -1.
         -1   -1    0    0    0  501 -0.00000000000E+00 -0.00000000000E+00 -0.98278168046E+03  0.98278168047E+03  0.50400000000E-02 0.  1.
    8880023    1    1    2    0    0  0.63175242238E+03 -0.82841021199E+03 -0.29075701699E+03  0.12663824271E+04  0.65864270000E+03 0.  1.
    8880022    1    1    2    0    0 -0.63175242238E+03  0.82841021199E+03  0.11531598920E+04  0.15615838089E+04  0.15294330000E+03 0.  0.
<mgrwt>
<rscale>  0 0.11849744E+04</rscale>
<asrwt>0</asrwt>
<pdfrwt beam="1">  1        1 0.28387454E+00 0.12325522E+04</pdfrwt>
<pdfrwt beam="2">  1       -1 0.15119718E+00 0.12325522E+04</pdfrwt>
<totfact> 0.12677749E+00</totfact>
</mgrwt>
</event>
<event>
 4    1  0.8114601E-008  0.6878246E+03  0.7818608E-02  0.1005204E+00
          1   -1    0    0  501    0  0.00000000000E+00  0.00000000000E+00  0.12789144330E+04  0.12789144330E+04  0.50400000000E-02 0. -1.
         -1   -1    0    0    0  501 -0.00000000000E+00 -0.00000000000E+00 -0.52103936244E+03  0.52103936246E+03  0.50400000000E-02 0.  1.
    8880023    1    1    2    0    0 -0.92222714183E+02  0.17546359436E+03  0.11468908207E+04  0.13373336393E+04  0.65864270000E+03 0. -1.
    8880022    1    1    2    0    0  0.92222714183E+02 -0.17546359436E+03 -0.38901575018E+03  0.46262015613E+03  0.15294330000E+03 0.  0.
<mgrwt>
<rscale>  0 0.53426043E+03</rscale>
<asrwt>0</asrwt>
<pdfrwt beam="1">  1        1 0.19675606E+00 0.68782462E+03</pdfrwt>
<pdfrwt beam="2">  1       -1 0.80159903E-01 0.68782462E+03</pdfrwt>
<totfact> 0.15167827E+01</totfact>
</mgrwt>
</event>
<event>
 4    1  0.8114601E-008  0.8502996E+03  0.7818608E-02  0.9611057E-01
          1   -1    0    0  501    0  0.00000000000E+00  0.00000000000E+00  0.19282202390E+04  0.19282202390E+04  0.50400000000E-02 0. -1.
         -1   -1    0    0    0  501 -0.00000000000E+00 -0.00000000000E+00 -0.37763406605E+03  0.37763406608E+03  0.50400000000E-02 0.  1.
    8880023    1    1    2    0    0  0.53731673453E+03 -0.22132650272E+02  0.15251655923E+04  0.17461785182E+04  0.65864270000E+03 0. -1.
    8880022    1    1    2    0    0 -0.53731673453E+03  0.22132650272E+02  0.25420580636E+02  0.55967578681E+03  0.15294330000E+03 0.  0.
<mgrwt>
<rscale>  0 0.76568649E+03</rscale>
<asrwt>0</asrwt>
<pdfrwt beam="1">  1        1 0.29664927E+00 0.85029956E+03</pdfrwt>
<pdfrwt beam="2">  1       -1 0.58097548E-01 0.85029956E+03</pdfrwt>
<totfact> 0.10300607E+01</totfact>
</mgrwt>
</event>
<event>
 4    1  0.8114601E-008  0.1658590E+04  0.7818608E-02  0.8805077E-01
          1   -1    0    0  501    0  0.00000000000E+00  0.00000000000E+00  0.16215562554E+04  0.16215562554E+04  0.50400000000E-02 0. -1.
         -1   -1    0    0    0  501 -0.00000000000E+00 -0.00000000000E+00 -0.19195254812E+04  0.19195254812E+04  0.50400000000E-02 0.  1.
    8880023    1    1    2    0    0 -0.39176510980E+03  0.14709282214E+04  0.60396766041E+03  0.17651336705E+04  0.65864270000E+03 0. -1.
    8880022    1    1    2    0    0  0.39176510980E+03 -0.14709282214E+04 -0.90193688620E+03  0.17759480661E+04  0.15294330000E+03 0.  0.
<mgrwt>
<rscale>  0 0.16254284E+04</rscale>
<asrwt>0</asrwt>
<pdfrwt beam="1">  1        1 0.24947019E+00 0.16585897E+04</pdfrwt>
<pdfrwt beam="2">  1       -1 0.29531161E+00 0.16585897E+04</pdfrwt>
<totfact> 0.17725990E-01</totfact>
</mgrwt>
</event>
<event>
 4    1  0.8114601E-008  0.6892788E+03  0.7818608E-02  0.1004497E+00
         -1   -1    0    0    0  501 -0.00000000000E+00  0.00000000000E+00  0.16382411270E+04  0.16382411270E+04  0.50400000000E-02 0.  1.
          1   -1    0    0  501    0  0.00000000000E+00 -0.00000000000E+00 -0.12024380104E+04  0.12024380104E+04  0.50400000000E-02 0. -1.
    8880023    1    1    2    0    0 -0.10560744649E+03 -0.17361482780E+03 -0.10922766693E+04  0.12915779379E+04  0.65864270000E+03 0. -1.
    8880022    1    1    2    0    0  0.10560744649E+03  0.17361482780E+03  0.15280797859E+04  0.15491011995E+04  0.15294330000E+03 0.  0.
<mgrwt>
<rscale>  0 0.53721491E+03</rscale>
<asrwt>0</asrwt>
<pdfrwt beam="1">  1        1 0.18499046E+00 0.68927879E+03</pdfrwt>
<pdfrwt beam="2">  1       -1 0.25203710E+00 0.68927879E+03</pdfrwt>
<totfact> 0.76984545E-01</totfact>
</mgrwt>
</event>
<event>
 4    1  0.8114601E-008  0.1877992E+04  0.7818608E-02  0.8680578E-01
          1   -1    0    0  501    0  0.00000000000E+00  0.00000000000E+00  0.20883131804E+04  0.20883131804E+04  0.50400000000E-02 0. -1.
         -1   -1    0    0    0  501 -0.00000000000E+00 -0.00000000000E+00 -0.23309691579E+04  0.23309691579E+04  0.50400000000E-02 0.  1.
    8880023    1    1    2    0    0  0.83681643939E+03 -0.15468621422E+04  0.11223061675E+04  0.21877901133E+04  0.65864270000E+03 0.  0.
    8880022    1    1    2    0    0 -0.83681643939E+03  0.15468621422E+04 -0.13649621450E+04  0.22314922250E+04  0.15294330000E+03 0.  0.
<mgrwt>
<rscale>  0 0.18491732E+04</rscale>
<asrwt>0</asrwt>
<pdfrwt beam="1">  1        1 0.32127895E+00 0.18779921E+04</pdfrwt>
<pdfrwt beam="2">  1       -1 0.35861064E+00 0.18779921E+04</pdfrwt>
<totfact> 0.31817517E-02</totfact>
</mgrwt>
</event>
<event>
 4    1  0.8114601E-008  0.6968912E+03  0.7818608E-02  0.1001035E+00
         -1   -1    0    0    0  501 -0.00000000000E+00  0.00000000000E+00  0.20687875646E+04  0.20687875646E+04  0.50400000000E-02 0.  1.
          1   -1    0    0  501    0  0.00000000000E+00 -0.00000000000E+00 -0.20211094117E+03  0.20211094124E+03  0.50400000000E-02 0. -1.
    8880023    1    1    2    0    0  0.22618030737E+03 -0.26259202025E+02  0.45374923883E+03  0.83159224091E+03  0.65864270000E+03 0. -1.
    8880022    1    1    2    0    0 -0.22618030737E+03  0.26259202025E+02  0.14129273846E+04  0.14393062649E+04  0.15294330000E+03 0.  0.
<mgrwt>
<rscale>  0 0.55198706E+03</rscale>
<asrwt>0</asrwt>
<pdfrwt beam="1">  1        1 0.31093992E-01 0.69689116E+03</pdfrwt>
<pdfrwt beam="2">  1       -1 0.31827500E+00 0.69689116E+03</pdfrwt>
<totfact> 0.38973478E+00</totfact>
</mgrwt>
</event>
<event>
 4    1  0.8114601E-008  0.9824517E+03  0.7818608E-02  0.9404885E-01
          1   -1    0    0  501    0  0.00000000000E+00  0.00000000000E+00  0.18605491687E+04  0.18605491687E+04  0.50400000000E-02 0. -1.
         -1   -1    0    0    0  501 -0.00000000000E+00 -0.00000000000E+00 -0.67058117938E+03  0.67058117940E+03  0.50400000000E-02 0.  1.
    8880023    1    1    2    0    0  0.72510055642E+03 -0.75034853825E+02 -0.15411040007E+03  0.99446531758E+03  0.65864270000E+03 0.  0.
    8880022    1    1    2    0    0 -0.72510055642E+03  0.75034853825E+02  0.13440783894E+04  0.15366650306E+04  0.15294330000E+03 0.  0.
<mgrwt>
<rscale>  0 0.91674750E+03</rscale>
<asrwt>0</asrwt>
<pdfrwt beam="1">  1        1 0.28623833E+00 0.98245165E+03</pdfrwt>
<pdfrwt beam="2">  1       -1 0.10316634E+00 0.98245165E+03</pdfrwt>
<totfact> 0.33256223E+00</totfact>
</mgrwt>
</event>
<event>
 4    1  0.8114601E-008  0.8487512E+03  0.7818608E-02  0.9613895E-01
          1   -1    0    0  501    0  0.00000000000E+00  0.00000000000E+00  0.11499710410E+04  0.11499710410E+04  0.50400000000E-02 0. -1.
         -1   -1    0    0    0  501 -0.00000000000E+00 -0.00000000000E+00 -0.85333450854E+03  0.85333450855E+03  0.50400000000E-02 0.  1.
    8880023    1    1    2    0    0 -0.49850038298E+03  0.19510452491E+03  0.86208047966E+03  0.12097774040E+04  0.65864270000E+03 0.  0.
    8880022    1    1    2    0    0  0.49850038298E+03 -0.19510452491E+03 -0.56544394718E+03  0.79352814562E+03  0.15294330000E+03 0.  0.
<mgrwt>
<rscale>  0 0.76383318E+03</rscale>
<asrwt>0</asrwt>
<pdfrwt beam="1">  1        1 0.17691862E+00 0.84875121E+03</pdfrwt>
<pdfrwt beam="2">  1       -1 0.13128223E+00 0.84875121E+03</pdfrwt>
<totfact> 0.58814840E+00</totfact>
</mgrwt>
</event>
<event>
 4    1  0.8114601E-008  0.8047446E+03  0.7818608E-02  0.9700630E-01
         -1   -1    0    0    0  501 -0.00000000000E+00  0.00000000000E+00  0.82276818150E+03  0.82276818152E+03  0.50400000000E-02 0.  1.
          1   -1    0    0  501    0  0.00000000000E+00 -0.00000000000E+00 -0.10506773465E+04  0.10506773465E+04  0.50400000000E-02 0. -1.
    8880023    1    1    2    0    0  0.17583625440E+03  0.42765091744E+03 -0.79137801971E+03  0.11286687166E+04  0.65864270000E+03 0. -1.
    8880022    1    1    2    0    0 -0.17583625440E+03 -0.42765091744E+03  0.56346885472E+03  0.74477681140E+03  0.15294330000E+03 0.  0.
<mgrwt>
<rscale>  0 0.70979320E+03</rscale>
<asrwt>0</asrwt>
<pdfrwt beam="1">  1        1 0.16164267E+00 0.80474462E+03</pdfrwt>
<pdfrwt beam="2">  1       -1 0.12657972E+00 0.80474462E+03</pdfrwt>
<totfact> 0.76952694E+00</totfact>
</mgrwt>
</event>
<event>
 4    1  0.8114601E-008  0.2062867E+04  0.7818608E-02  0.8589570E-01
         -1   -1    0    0    0  501 -0.00000000000E+00  0.00000000000E+00  0.22525074366E+04  0.22525074366E+04  0.50400000000E-02 0.  1.
          1   -1    0    0  501    0  0.00000000000E+00 -0.00000000000E+00 -0.28520381943E+04  0.28520381943E+04  0.50400000000E-02 0. -1.
    8880023    1    1    2    0    0 -0.38055981858E+03 -0.19174941644E+04 -0.18566146536E+04  0.27753266158E+04  0.65864270000E+03 0.  0.
    8880022    1    1    2    0    0  0.38055981858E+03  0.19174941644E+04  0.12570838960E+04  0.23292190152E+04  0.15294330000E+03 0.  0.
<mgrwt>
<rscale>  0 0.20368801E+04</rscale>
<asrwt>0</asrwt>
<pdfrwt beam="1">  1        1 0.43877511E+00 0.20628669E+04</pdfrwt>
<pdfrwt beam="2">  1       -1 0.34653960E+00 0.20628669E+04</pdfrwt>
<totfact> 0.10994557E-02</totfact>
</mgrwt>
</event>
<event>
 4    1  0.8114601E-008  0.7261482E+03  0.7818608E-02  0.9902306E-01
          1   -1    0    0  501    0  0.00000000000E+00  0.00000000000E+00  0.21584470156E+04  0.21584470156E+04  0.50400000000E-02 0. -1.
         -1   -1    0    0    0  501 -0.00000000000E+00 -0.00000000000E+00 -0.17547434494E+03  0.17547434501E+03  0.50400000000E-02 0.  1.
    8880023    1    1    2    0    0  0.12984185542E+02 -0.30547077431E+03  0.18111680329E+04  0.19513125923E+04  0.65864270000E+03 0.  0.
    8880022    1    1    2    0    0 -0.12984185542E+02  0.30547077431E+03  0.17180463770E+03  0.38260876830E+03  0.15294330000E+03 0.  0.
<mgrwt>
<rscale>  0 0.60149642E+03</rscale>
<asrwt>0</asrwt>
<pdfrwt beam="1">  1        1 0.33206877E+00 0.72614819E+03</pdfrwt>
<pdfrwt beam="2">  1       -1 0.26996053E-01 0.72614819E+03</pdfrwt>
<totfact> 0.29751142E+01</totfact>
</mgrwt>
</event>
<event>
 4    1  0.8114601E-008  0.9040502E+03  0.7818608E-02  0.9519561E-01
          1   -1    0    0  501    0  0.00000000000E+00  0.00000000000E+00  0.83357879618E+03  0.83357879619E+03  0.50400000000E-02 0. -1.
         -1   -1    0    0    0  501 -0.00000000000E+00 -0.00000000000E+00 -0.15910909401E+04  0.15910909402E+04  0.50400000000E-02 0.  1.
    8880023    1    1    2    0    0  0.59107798343E+03  0.18472512435E+03  0.48650882430E+03  0.10266438508E+04  0.65864270000E+03 0.  0.
    8880022    1    1    2    0    0 -0.59107798343E+03 -0.18472512435E+03 -0.12440209683E+04  0.13980258855E+04  0.15294330000E+03 0.  0.
<mgrwt>
<rscale>  0 0.82856922E+03</rscale>
<asrwt>0</asrwt>
<pdfrwt beam="1">  1        1 0.12824289E+00 0.90405020E+03</pdfrwt>
<pdfrwt beam="2">  1       -1 0.24478322E+00 0.90405020E+03</pdfrwt>
<totfact> 0.15929159E+00</totfact>
</mgrwt>
</event>
<event>
 4    1  0.8114601E-008  0.7048705E+03  0.7818608E-02  0.9977566E-01
         -1   -1    0    0    0  501 -0.00000000000E+00  0.00000000000E+00  0.20585026226E+03  0.20585026232E+03  0.50400000000E-02 0.  1.
          1   -1    0    0  501    0  0.00000000000E+00 -0.00000000000E+00 -0.23825802116E+04  0.23825802116E+04  0.50400000000E-02 0. -1.
    8880023    1    1    2    0    0  0.23632195013E+03 -0.84758980039E+02 -0.21834181844E+04  0.22943751487E+04  0.65864270000E+03 0. -1.
    8880022    1    1    2    0    0 -0.23632195013E+03  0.84758980039E+02  0.66882350062E+01  0.29405532526E+03  0.15294330000E+03 0.  0.
<mgrwt>
<rscale>  0 0.56644944E+03</rscale>
<asrwt>0</asrwt>
<pdfrwt beam="1">  1        1 0.36655078E+00 0.70487045E+03</pdfrwt>
<pdfrwt beam="2">  1       -1 0.31669273E-01 0.70487045E+03</pdfrwt>
<totfact> 0.15983584E+01</totfact>
</mgrwt>
</event>
<event>
 4    1  0.8114601E-008  0.1053344E+04  0.7818608E-02  0.9314872E-01
         -1   -1    0    0    0  501 -0.00000000000E+00  0.00000000000E+00  0.96316571330E+03  0.96316571331E+03  0.50400000000E-02 0.  1.
          1   -1    0    0  501    0  0.00000000000E+00 -0.00000000000E+00 -0.14842210456E+04  0.14842210456E+04  0.50400000000E-02 0. -1.
    8880023    1    1    2    0    0  0.24281746289E+03 -0.78534311291E+03 -0.10261386605E+04  0.14705423769E+04  0.65864270000E+03 0.  0.
    8880022    1    1    2    0    0 -0.24281746289E+03  0.78534311291E+03  0.50508332822E+03  0.97684438205E+03  0.15294330000E+03 0.  0.
<mgrwt>
<rscale>  0 0.99425187E+03</rscale>
<asrwt>0</asrwt>
<pdfrwt beam="1">  1        1 0.22834170E+00 0.10533444E+04</pdfrwt>
<pdfrwt beam="2">  1       -1 0.14817934E+00 0.10533444E+04</pdfrwt>
<totfact> 0.24149151E+00</totfact>
</mgrwt>
</event>
<event>
 4    1  0.8114601E-008  0.9902796E+03  0.7818608E-02  0.9394387E-01
         -1   -1    0    0    0  501 -0.00000000000E+00  0.00000000000E+00  0.41245666052E+03  0.41245666055E+03  0.50400000000E-02 0.  1.
          1   -1    0    0  501    0  0.00000000000E+00 -0.00000000000E+00 -0.24610404514E+04  0.24610404514E+04  0.50400000000E-02 0. -1.
    8880023    1    1    2    0    0  0.14797449095E+03 -0.72453226798E+03 -0.18408486265E+04  0.20903055588E+04  0.65864270000E+03 0.  0.
    8880022    1    1    2    0    0 -0.14797449095E+03  0.72453226798E+03 -0.20773516433E+03  0.78319155309E+03  0.15294330000E+03 0.  0.
<mgrwt>
<rscale>  0 0.92539067E+03</rscale>
<asrwt>0</asrwt>
<pdfrwt beam="1">  1        1 0.37862160E+00 0.99027959E+03</pdfrwt>
<pdfrwt beam="2">  1       -1 0.63454872E-01 0.99027959E+03</pdfrwt>
<totfact> 0.37023987E+00</totfact>
</mgrwt>
</event>
<event>
 4    1  0.8114601E-008  0.6620573E+03  0.7818608E-02  0.1022141E+00
         -1   -1    0    0    0  501 -0.00000000000E+00  0.00000000000E+00  0.98284474355E+03  0.98284474356E+03  0.50400000000E-02 0.  1.
          1   -1    0    0  501    0  0.00000000000E+00 -0.00000000000E+00 -0.26113647253E+03  0.26113647258E+03  0.50400000000E-02 0. -1.
    8880023    1    1    2    0    0 -0.12717885803E+02 -0.65938427824E+02  0.19314967942E+03  0.68965688992E+03  0.65864270000E+03 0.  0.
    8880022    1    1    2    0    0  0.12717885803E+02  0.65938427824E+02  0.52855859159E+03  0.55432432622E+03  0.15294330000E+03 0.  0.
<mgrwt>
<rscale>  0 0.46921801E+03</rscale>
<asrwt>0</asrwt>
<pdfrwt beam="1">  1        1 0.40174842E-01 0.66205727E+03</pdfrwt>
<pdfrwt beam="2">  1       -1 0.15120688E+00 0.66205727E+03</pdfrwt>
<totfact> 0.36936935E+01</totfact>
</mgrwt>
</event>
<event>
 4    1  0.8114601E-008  0.6600683E+03  0.7818608E-02  0.1024087E+00
         -1   -1    0    0    0  501 -0.00000000000E+00  0.00000000000E+00  0.19164822484E+04  0.19164822484E+04  0.50400000000E-02 0.  1.
          1   -1    0    0  501    0  0.00000000000E+00 -0.00000000000E+00 -0.46991680655E+03  0.46991680657E+03  0.50400000000E-02 0. -1.
    8880023    1    1    2    0    0 -0.50265113492E+01  0.43066645703E+02 -0.23250453024E+03  0.69982038027E+03  0.65864270000E+03 0. -1.
    8880022    1    1    2    0    0  0.50265113492E+01 -0.43066645703E+02  0.16790699721E+04  0.16865786747E+04  0.15294330000E+03 0.  0.
<mgrwt>
<rscale>  0 0.46240326E+03</rscale>
<asrwt>0</asrwt>
<pdfrwt beam="1">  1        1 0.72294894E-01 0.66006834E+03</pdfrwt>
<pdfrwt beam="2">  1       -1 0.29484342E+00 0.66006834E+03</pdfrwt>
<totfact> 0.18405621E+00</totfact>
</mgrwt>
</event>
<event>
 4    1  0.8114601E-008  0.7987315E+03  0.7818608E-02  0.9713546E-01
          1   -1    0    0  501    0  0.00000000000E+00  0.00000000000E+00  0.10105295939E+04  0.10105295939E+04  0.50400000000E-02 0. -1.
         -1   -1    0    0    0  501 -0.00000000000E+00 -0.00000000000E+00 -0.66990228424E+03  0.66990228426E+03  0.50400000000E-02 0.  1.
    8880023    1    1    2    0    0 -0.23066521658E+03 -0.38852971232E+03  0.71658390724E+03  0.10730631304E+04  0.65864270000E+03 0.  0.
    8880022    1    1    2    0    0  0.23066521658E+03  0.38852971232E+03 -0.37595659757E+03  0.60736874777E+03  0.15294330000E+03 0.  0.
<mgrwt>
<rscale>  0 0.70215991E+03</rscale>
<asrwt>0</asrwt>
<pdfrwt beam="1">  1        1 0.15546609E+00 0.79873149E+03</pdfrwt>
<pdfrwt beam="2">  1       -1 0.10306189E+00 0.79873149E+03</pdfrwt>
<totfact> 0.13527798E+01</totfact>
</mgrwt>
</event>
<event>
 4    1  0.8114601E-008  0.1715021E+04  0.7818608E-02  0.8771060E-01
         -1   -1    0    0    0  501 -0.00000000000E+00  0.00000000000E+00  0.13958383340E+04  0.13958383340E+04  0.50400000000E-02 0.  1.
          1   -1    0    0  501    0  0.00000000000E+00 -0.00000000000E+00 -0.23780716635E+04  0.23780716635E+04  0.50400000000E-02 0. -1.
    8880023    1    1    2    0    0 -0.93804375469E+03 -0.12757585231E+04  0.28686336759E+03  0.17388463684E+04  0.65864270000E+03 0.  0.
    8880022    1    1    2    0    0  0.93804375469E+03  0.12757585231E+04 -0.12690966970E+04  0.20350636291E+04  0.15294330000E+03 0.  0.
<mgrwt>
<rscale>  0 0.16831039E+04</rscale>
<asrwt>0</asrwt>
<pdfrwt beam="1">  1        1 0.36585718E+00 0.17150207E+04</pdfrwt>
<pdfrwt beam="2">  1       -1 0.21474436E+00 0.17150207E+04</pdfrwt>
<totfact> 0.18098851E-01</totfact>
</mgrwt>
</event>
<event>
 4    1  0.8114601E-008  0.7912790E+03  0.7818608E-02  0.9729980E-01
          1   -1    0    0  501    0  0.00000000000E+00  0.00000000000E+00  0.52969731906E+03  0.52969731908E+03  0.50400000000E-02 0. -1.
         -1   -1    0    0    0  501 -0.00000000000E+00 -0.00000000000E+00 -0.12658455381E+04  0.12658455381E+04  0.50400000000E-02 0.  1.
    8880023    1    1    2    0    0 -0.65769866320E+02  0.43357420670E+03  0.14032084082E+03  0.80362454707E+03  0.65864270000E+03 0. -1.
    8880022    1    1    2    0    0  0.65769866320E+02 -0.43357420670E+03 -0.87646905985E+03  0.99191831010E+03  0.15294330000E+03 0.  0.
<mgrwt>
<rscale>  0 0.69259522E+03</rscale>
<asrwt>0</asrwt>
<pdfrwt beam="1">  1        1 0.81491896E-01 0.79127901E+03</pdfrwt>
<pdfrwt beam="2">  1       -1 0.19474547E+00 0.79127901E+03</pdfrwt>
<totfact> 0.68831760E+00</totfact>
</mgrwt>
</event>
<event>
 4    1  0.8114601E-008  0.1103785E+04  0.7818608E-02  0.9256854E-01
          1   -1    0    0  501    0  0.00000000000E+00  0.00000000000E+00  0.13498295615E+04  0.13498295615E+04  0.50400000000E-02 0. -1.
         -1   -1    0    0    0  501 -0.00000000000E+00 -0.00000000000E+00 -0.11925939999E+04  0.11925939999E+04  0.50400000000E-02 0.  1.
    8880023    1    1    2    0    0  0.27460188375E+03 -0.84209543383E+03  0.86178197992E+03  0.14003604184E+04  0.65864270000E+03 0.  1.
    8880022    1    1    2    0    0 -0.27460188375E+03  0.84209543383E+03 -0.70454641830E+03  0.11420631431E+04  0.15294330000E+03 0.  0.
<mgrwt>
<rscale>  0 0.10485389E+04</rscale>
<asrwt>0</asrwt>
<pdfrwt beam="1">  1        1 0.20766609E+00 0.11037849E+04</pdfrwt>
<pdfrwt beam="2">  1       -1 0.18347600E+00 0.11037849E+04</pdfrwt>
<totfact> 0.16241380E+00</totfact>
</mgrwt>
</event>
<event>
 4    1  0.8114601E-008  0.8505991E+03  0.7818608E-02  0.9610510E-01
         -1   -1    0    0    0  501 -0.00000000000E+00  0.00000000000E+00  0.14044672118E+04  0.14044672118E+04  0.50400000000E-02 0.  1.
          1   -1    0    0  501    0  0.00000000000E+00 -0.00000000000E+00 -0.42896363205E+03  0.42896363208E+03  0.50400000000E-02 0. -1.
    8880023    1    1    2    0    0  0.53795867185E+03  0.17579617846E+02  0.19430680445E+03  0.87251012378E+03  0.65864270000E+03 0.  0.
    8880022    1    1    2    0    0 -0.53795867185E+03 -0.17579617846E+02  0.78119677527E+03  0.96092072009E+03  0.15294330000E+03 0.  0.
<mgrwt>
<rscale>  0 0.76604468E+03</rscale>
<asrwt>0</asrwt>
<pdfrwt beam="1">  1        1 0.65994406E-01 0.85059907E+03</pdfrwt>
<pdfrwt beam="2">  1       -1 0.21607187E+00 0.85059907E+03</pdfrwt>
<totfact> 0.65298650E+00</totfact>
</mgrwt>
</event>
<event>
 4    1  0.8114601E-008  0.1328274E+04  0.7818608E-02  0.9041520E-01
          1   -1    0    0  501    0  0.00000000000E+00  0.00000000000E+00  0.65061771168E+03  0.65061771170E+03  0.50400000000E-02 0. -1.
         -1   -1    0    0    0  501 -0.00000000000E+00 -0.00000000000E+00 -0.26765397009E+04  0.26765397009E+04  0.50400000000E-02 0.  1.
    8880023    1    1    2    0    0  0.95198478158E+03 -0.65132766635E+03 -0.16197516409E+04  0.20947334765E+04  0.65864270000E+03 0.  0.
    8880022    1    1    2    0    0 -0.95198478158E+03  0.65132766635E+03 -0.40617034832E+03  0.12324239361E+04  0.15294330000E+03 0.  0.
<mgrwt>
<rscale>  0 0.12850320E+04</rscale>
<asrwt>0</asrwt>
<pdfrwt beam="1">  1        1 0.10009503E+00 0.13282744E+04</pdfrwt>
<pdfrwt beam="2">  1       -1 0.41177533E+00 0.13282744E+04</pdfrwt>
<totfact> 0.17689863E-01</totfact>
</mgrwt>
</event>
<event>
 4    1  0.8114601E-008  0.1437786E+04  0.7818608E-02  0.8954865E-01
         -1   -1    0    0    0  501 -0.00000000000E+00  0.00000000000E+00  0.98327970944E+03  0.98327970945E+03  0.50400000000E-02 0.  1.
          1   -1    0    0  501    0  0.00000000000E+00 -0.00000000000E+00 -0.38500246891E+04  0.38500246891E+04  0.50400000000E-02 0. -1.
    8880023    1    1    2    0    0  0.12665215240E+04 -0.17129519969E+03 -0.31961474557E+04  0.35046522768E+04  0.65864270000E+03 0.  0.
    8880022    1    1    2    0    0 -0.12665215240E+04  0.17129519969E+03  0.32940247611E+03  0.13286521217E+04  0.15294330000E+03 0.  0.
<mgrwt>
<rscale>  0 0.13985559E+04</rscale>
<asrwt>0</asrwt>
<pdfrwt beam="1">  1        1 0.59231148E+00 0.14377862E+04</pdfrwt>
<pdfrwt beam="2">  1       -1 0.15127380E+00 0.14377862E+04</pdfrwt>
<totfact> 0.42735432E-02</totfact>
</mgrwt>
</event>
<event>
 4    1  0.8114601E-008  0.6951833E+03  0.7818608E-02  0.1001780E+00
          1   -1    0    0  501    0  0.00000000000E+00  0.00000000000E+00  0.62180015012E+03  0.62180015015E+03  0.50400000000E-02 0. -1.
         -1   -1    0    0    0  501 -0.00000000000E+00 -0.00000000000E+00 -0.44225740481E+03  0.44225740484E+03  0.50400000000E-02 0.  1.
    8880023    1    1    2    0    0  0.16058995202E+03  0.15388444306E+03  0.31363494032E+03  0.76265761424E+03  0.65864270000E+03 0. -1.
    8880022    1    1    2    0    0 -0.16058995202E+03 -0.15388444306E+03 -0.13409219501E+03  0.30139994075E+03  0.15294330000E+03 0.  0.
<mgrwt>
<rscale>  0 0.54876515E+03</rscale>
<asrwt>0</asrwt>
<pdfrwt beam="1">  1        1 0.95661562E-01 0.69518326E+03</pdfrwt>
<pdfrwt beam="2">  1       -1 0.68039600E-01 0.69518326E+03</pdfrwt>
<totfact> 0.72851083E+01</totfact>
</mgrwt>
</event>
<event>
 4    1  0.8114601E-008  0.8520758E+03  0.7818608E-02  0.9607818E-01
          1   -1    0    0  501    0  0.00000000000E+00  0.00000000000E+00  0.11011738045E+04  0.11011738045E+04  0.50400000000E-02 0. -1.
         -1   -1    0    0    0  501 -0.00000000000E+00 -0.00000000000E+00 -0.53158107801E+03  0.53158107803E+03  0.50400000000E-02 0.  1.
    8880023    1    1    2    0    0  0.31172205399E+03  0.44164719818E+03  0.28189248317E+02  0.85254192072E+03  0.65864270000E+03 0.  0.
    8880022    1    1    2    0    0 -0.31172205399E+03 -0.44164719818E+03  0.54140347818E+03  0.78021296182E+03  0.15294330000E+03 0.  0.
<mgrwt>
<rscale>  0 0.76780915E+03</rscale>
<asrwt>0</asrwt>
<pdfrwt beam="1">  1        1 0.16941135E+00 0.85207576E+03</pdfrwt>
<pdfrwt beam="2">  1       -1 0.81781705E-01 0.85207576E+03</pdfrwt>
<totfact> 0.19169959E+01</totfact>
</mgrwt>
</event>
<event>
 4    1  0.8114601E-008  0.8420876E+03  0.7818608E-02  0.9626256E-01
         -1   -1    0    0    0  501 -0.00000000000E+00  0.00000000000E+00  0.79122130220E+03  0.79122130222E+03  0.50400000000E-02 0.  1.
          1   -1    0    0  501    0  0.00000000000E+00 -0.00000000000E+00 -0.93685906397E+03  0.93685906399E+03  0.50400000000E-02 0. -1.
    8880023    1    1    2    0    0 -0.19318251847E+03 -0.48783387338E+03  0.42045288330E+03  0.94121846922E+03  0.65864270000E+03 0.  1.
    8880022    1    1    2    0    0  0.19318251847E+03  0.48783387338E+03 -0.56609064507E+03  0.78686189698E+03  0.15294330000E+03 0.  0.
<mgrwt>
<rscale>  0 0.75582474E+03</rscale>
<asrwt>0</asrwt>
<pdfrwt beam="1">  1        1 0.14413216E+00 0.84208763E+03</pdfrwt>
<pdfrwt beam="2">  1       -1 0.12172635E+00 0.84208763E+03</pdfrwt>
<totfact> 0.10351438E+01</totfact>
</mgrwt>
</event>
<event>
 4    1  0.8114601E-008  0.1029606E+04  0.7818608E-02  0.9343809E-01
          1   -1    0    0  501    0  0.00000000000E+00  0.00000000000E+00  0.17035403603E+04  0.17035403603E+04  0.50400000000E-02 0. -1.
         -1   -1    0    0    0  501 -0.00000000000E+00 -0.00000000000E+00 -0.19904624387E+04  0.19904624387E+04  0.50400000000E-02 0.  1.
    8880023    1    1    2    0    0  0.75847191365E+03 -0.22582806251E+03  0.14504688832E+04  0.17787490393E+04  0.65864270000E+03 0. -1.
    8880022    1    1    2    0    0 -0.75847191365E+03  0.22582806251E+03 -0.17373909616E+04  0.19152537597E+04  0.15294330000E+03 0.  0.
<mgrwt>
<rscale>  0 0.96847812E+03</rscale>
<asrwt>0</asrwt>
<pdfrwt beam="1">  1        1 0.26208313E+00 0.10296058E+04</pdfrwt>
<pdfrwt beam="2">  1       -1 0.30622499E+00 0.10296058E+04</pdfrwt>
<totfact> 0.14462911E-01</totfact>
</mgrwt>
</event>
<event>
 4    1  0.8114601E-008  0.7536758E+03  0.7818608E-02  0.9821764E-01
          1   -1    0    0  501    0  0.00000000000E+00  0.00000000000E+00  0.57877270837E+03  0.57877270839E+03  0.50400000000E-02 0. -1.
         -1   -1    0    0    0  501 -0.00000000000E+00 -0.00000000000E+00 -0.77067947781E+03  0.77067947782E+03  0.50400000000E-02 0.  1.
    8880023    1    1    2    0    0 -0.74085820222E+02 -0.35878732889E+03  0.21218286382E+03  0.78297434830E+03  0.65864270000E+03 0.  0.
    8880022    1    1    2    0    0  0.74085820222E+02  0.35878732889E+03 -0.40408963326E+03  0.56647783792E+03  0.15294330000E+03 0.  0.
<mgrwt>
<rscale>  0 0.64207531E+03</rscale>
<asrwt>0</asrwt>
<pdfrwt beam="1">  1        1 0.89041955E-01 0.75367583E+03</pdfrwt>
<pdfrwt beam="2">  1       -1 0.11856607E+00 0.75367583E+03</pdfrwt>
<totfact> 0.23575324E+01</totfact>
</mgrwt>
</event>
<event>
 4    1  0.8114601E-008  0.8704258E+03  0.7818608E-02  0.9575280E-01
         -1   -1    0    0    0  501 -0.00000000000E+00  0.00000000000E+00  0.66174561666E+03  0.66174561668E+03  0.50400000000E-02 0.  1.
          1   -1    0    0  501    0  0.00000000000E+00 -0.00000000000E+00 -0.12721487758E+04  0.12721487758E+04  0.50400000000E-02 0. -1.
    8880023    1    1    2    0    0  0.10863092516E+03  0.55859657923E+03 -0.92146726034E+03  0.12675736406E+04  0.65864270000E+03 0.  0.
    8880022    1    1    2    0    0 -0.10863092516E+03 -0.55859657923E+03  0.31106410124E+03  0.66632075183E+03  0.15294330000E+03 0.  0.
<mgrwt>
<rscale>  0 0.78954117E+03</rscale>
<asrwt>0</asrwt>
<pdfrwt beam="1">  1        1 0.19571520E+00 0.87042577E+03</pdfrwt>
<pdfrwt beam="2">  1       -1 0.10180702E+00 0.87042577E+03</pdfrwt>
<totfact> 0.88291498E+00</totfact>
</mgrwt>
</event>
<event>
 4    1  0.8114601E-008  0.1001163E+04  0.7818608E-02  0.9380038E-01
          1   -1    0    0  501    0  0.00000000000E+00  0.00000000000E+00  0.20238919596E+04  0.20238919596E+04  0.50400000000E-02 0. -1.
         -1   -1    0    0    0  501 -0.00000000000E+00 -0.00000000000E+00 -0.79526922274E+03  0.79526922276E+03  0.50400000000E-02 0.  1.
    8880023    1    1    2    0    0  0.72617679953E+03 -0.20293932656E+03  0.16589466928E+04  0.19376355308E+04  0.65864270000E+03 0.  0.
    8880022    1    1    2    0    0 -0.72617679953E+03  0.20293932656E+03 -0.43032395587E+03  0.88152565161E+03  0.15294330000E+03 0.  0.
<mgrwt>
<rscale>  0 0.93736867E+03</rscale>
<asrwt>0</asrwt>
<pdfrwt beam="1">  1        1 0.31136799E+00 0.10011630E+04</pdfrwt>
<pdfrwt beam="2">  1       -1 0.12234911E+00 0.10011630E+04</pdfrwt>
<totfact> 0.17131528E+00</totfact>
</mgrwt>
</event>
<event>
 4    1  0.8114601E-008  0.1281694E+04  0.7818608E-02  0.9081532E-01
         -1   -1    0    0    0  501 -0.00000000000E+00  0.00000000000E+00  0.22939954045E+04  0.22939954045E+04  0.50400000000E-02 0.  1.
          1   -1    0    0  501    0  0.00000000000E+00 -0.00000000000E+00 -0.10526446650E+04  0.10526446651E+04  0.50400000000E-02 0. -1.
    8880023    1    1    2    0    0  0.66829034490E+03  0.87310727952E+03 -0.41981184707E+03  0.13486958515E+04  0.65864270000E+03 0. -1.
    8880022    1    1    2    0    0 -0.66829034490E+03 -0.87310727952E+03  0.16611625865E+04  0.19979442181E+04  0.15294330000E+03 0.  0.
<mgrwt>
<rscale>  0 0.12364558E+04</rscale>
<asrwt>0</asrwt>
<pdfrwt beam="1">  1        1 0.16194534E+00 0.12816936E+04</pdfrwt>
<pdfrwt beam="2">  1       -1 0.35292236E+00 0.12816936E+04</pdfrwt>
<totfact> 0.20012018E-01</totfact>
</mgrwt>
</event>
<event>
 4    1  0.8114601E-008  0.1538341E+04  0.7818608E-02  0.8883026E-01
         -1   -1    0    0    0  501 -0.00000000000E+00  0.00000000000E+00  0.15820178027E+04  0.15820178027E+04  0.50400000000E-02 0.  1.
          1   -1    0    0  501    0  0.00000000000E+00 -0.00000000000E+00 -0.25741639948E+04  0.25741639949E+04  0.50400000000E-02 0. -1.
    8880023    1    1    2    0    0  0.13239297547E+04 -0.42413622078E+03 -0.19331127997E+04  0.24705094276E+04  0.65864270000E+03 0. -1.
    8880022    1    1    2    0    0 -0.13239297547E+04  0.42413622078E+03  0.94096660756E+03  0.16856723699E+04  0.15294330000E+03 0.  0.
<mgrwt>
<rscale>  0 0.15021473E+04</rscale>
<asrwt>0</asrwt>
<pdfrwt beam="1">  1        1 0.39602523E+00 0.15383406E+04</pdfrwt>
<pdfrwt beam="2">  1       -1 0.24338735E+00 0.15383406E+04</pdfrwt>
<totfact> 0.87006334E-02</totfact>
</mgrwt>
</event>
<event>
 4    1  0.8114601E-008  0.8068604E+03  0.7818608E-02  0.9696154E-01
         -1   -1    0    0    0  501 -0.00000000000E+00  0.00000000000E+00  0.23500888974E+04  0.23500888974E+04  0.50400000000E-02 0.  1.
          1   -1    0    0  501    0  0.00000000000E+00 -0.00000000000E+00 -0.55419793186E+03  0.55419793188E+03  0.50400000000E-02 0. -1.
    8880023    1    1    2    0    0  0.28398194005E+03  0.36955082806E+03 -0.21452837892E+03  0.83489292033E+03  0.65864270000E+03 0. -1.
    8880022    1    1    2    0    0 -0.28398194005E+03 -0.36955082806E+03  0.20104193445E+04  0.20693939090E+04  0.15294330000E+03 0.  0.
<mgrwt>
<rscale>  0 0.71246239E+03</rscale>
<asrwt>0</asrwt>
<pdfrwt beam="1">  1        1 0.85261222E-01 0.80686044E+03</pdfrwt>
<pdfrwt beam="2">  1       -1 0.36155213E+00 0.80686044E+03</pdfrwt>
<totfact> 0.52748097E-01</totfact>
</mgrwt>
</event>
<event>
 4    1  0.8114601E-008  0.7782023E+03  0.7818608E-02  0.9760077E-01
          1   -1    0    0  501    0  0.00000000000E+00  0.00000000000E+00  0.62850294951E+03  0.62850294953E+03  0.50400000000E-02 0. -1.
         -1   -1    0    0    0  501 -0.00000000000E+00 -0.00000000000E+00 -0.79797268878E+03  0.79797268879E+03  0.50400000000E-02 0.  1.
    8880023    1    1    2    0    0 -0.28842314424E+03  0.29765868605E+03 -0.45403384949E+03  0.90096922604E+03  0.65864270000E+03 0.  0.
    8880022    1    1    2    0    0  0.28842314424E+03 -0.29765868605E+03  0.28456411023E+03  0.52550641229E+03  0.15294330000E+03 0.  0.
<mgrwt>
<rscale>  0 0.67549769E+03</rscale>
<asrwt>0</asrwt>
<pdfrwt beam="1">  1        1 0.96692762E-01 0.77820229E+03</pdfrwt>
<pdfrwt beam="2">  1       -1 0.12276503E+00 0.77820229E+03</pdfrwt>
<totfact> 0.19174763E+01</totfact>
</mgrwt>
</event>
<event>
 4    1  0.8114601E-008  0.1009787E+04  0.7818608E-02  0.9368864E-01
         -1   -1    0    0    0  501 -0.00000000000E+00  0.00000000000E+00  0.68789344390E+03  0.68789344392E+03  0.50400000000E-02 0.  1.
          1   -1    0    0  501    0  0.00000000000E+00 -0.00000000000E+00 -0.20182526655E+04  0.20182526655E+04  0.50400000000E-02 0. -1.
    8880023    1    1    2    0    0  0.75961409319E+03  0.94054980024E+02 -0.15899975409E+04  0.18835504496E+04  0.65864270000E+03 0. -1.
    8880022    1    1    2    0    0 -0.75961409319E+03 -0.94054980024E+02  0.25963831923E+03  0.82259565989E+03  0.15294330000E+03 0.  0.
<mgrwt>
<rscale>  0 0.94682990E+03</rscale>
<asrwt>0</asrwt>
<pdfrwt beam="1">  1        1 0.31050041E+00 0.10097872E+04</pdfrwt>
<pdfrwt beam="2">  1       -1 0.10582976E+00 0.10097872E+04</pdfrwt>
<totfact> 0.24448266E+00</totfact>
</mgrwt>
</event>
<event>
 4    1  0.8114601E-008  0.7133792E+03  0.7818608E-02  0.9945660E-01
          1   -1    0    0  501    0  0.00000000000E+00  0.00000000000E+00  0.37066950454E+03  0.37066950457E+03  0.50400000000E-02 0. -1.
         -1   -1    0    0    0  501 -0.00000000000E+00 -0.00000000000E+00 -0.11188631873E+04  0.11188631873E+04  0.50400000000E-02 0.  1.
    8880023    1    1    2    0    0 -0.15306895029E+03  0.22730951242E+03 -0.39514238531E+02  0.71447274216E+03  0.65864270000E+03 0. -1.
    8880022    1    1    2    0    0  0.15306895029E+03 -0.22730951242E+03 -0.70867944422E+03  0.77505994972E+03  0.15294330000E+03 0.  0.
<mgrwt>
<rscale>  0 0.58098526E+03</rscale>
<asrwt>0</asrwt>
<pdfrwt beam="1">  1        1 0.57026078E-01 0.71337923E+03</pdfrwt>
<pdfrwt beam="2">  1       -1 0.17213280E+00 0.71337923E+03</pdfrwt>
<totfact> 0.16254323E+01</totfact>
</mgrwt>
</event>
<event>
 4    1  0.8114601E-008  0.6937597E+03  0.7818608E-02  0.1002414E+00
          1   -1    0    0  501    0  0.00000000000E+00  0.00000000000E+00  0.28829386130E+03  0.28829386134E+03  0.50400000000E-02 0. -1.
         -1   -1    0    0    0  501 -0.00000000000E+00 -0.00000000000E+00 -0.82781780028E+03  0.82781780029E+03  0.50400000000E-02 0.  1.
    8880023    1    1    2    0    0 -0.10593794699E+03 -0.19044534359E+03 -0.29241602339E+03  0.75286759427E+03  0.65864270000E+03 0. -1.
    8880022    1    1    2    0    0  0.10593794699E+03  0.19044534359E+03 -0.24710791559E+03  0.36324406736E+03  0.15294330000E+03 0. -1.
<mgrwt>
<rscale>  0 0.54604101E+03</rscale>
<asrwt>0</asrwt>
<pdfrwt beam="1">  1        1 0.44352902E-01 0.69375967E+03</pdfrwt>
<pdfrwt beam="2">  1       -1 0.12735658E+00 0.69375967E+03</pdfrwt>
<totfact> 0.50534159E+01</totfact>
</mgrwt>
</event>
<event>
 4    1  0.8114601E-008  0.1381677E+04  0.7818608E-02  0.8998052E-01
         -1   -1    0    0    0  501 -0.00000000000E+00  0.00000000000E+00  0.90329721102E+03  0.90329721104E+03  0.50400000000E-02 0.  1.
          1   -1    0    0  501    0  0.00000000000E+00 -0.00000000000E+00 -0.38306621715E+04  0.38306621715E+04  0.50400000000E-02 0. -1.
    8880023    1    1    2    0    0 -0.77615311993E+02 -0.12121047498E+04 -0.31949204041E+04  0.34808833155E+04  0.65864270000E+03 0. -1.
    8880022    1    1    2    0    0  0.77615311993E+02  0.12121047498E+04  0.26755544367E+03  0.12530760670E+04  0.15294330000E+03 0.  0.
<mgrwt>
<rscale>  0 0.13404981E+04</rscale>
<asrwt>0</asrwt>
<pdfrwt beam="1">  1        1 0.58933263E+00 0.13816773E+04</pdfrwt>
<pdfrwt beam="2">  1       -1 0.13896880E+00 0.13816773E+04</pdfrwt>
<totfact> 0.56147234E-02</totfact>
</mgrwt>
</event>
<event>
 4    1  0.8114601E-008  0.1140907E+04  0.7818608E-02  0.9216822E-01
         -1   -1    0    0    0  501 -0.00000000000E+00  0.00000000000E+00  0.77269444134E+03  0.77269444136E+03  0.50400000000E-02 0.  1.
          1   -1    0    0  501    0  0.00000000000E+00 -0.00000000000E+00 -0.28880165870E+04  0.28880165870E+04  0.50400000000E-02 0. -1.
    8880023    1    1    2    0    0  0.23177383343E+03 -0.90229699362E+03 -0.24144135773E+04  0.26704048575E+04  0.65864270000E+03 0. -1.
    8880022    1    1    2    0    0 -0.23177383343E+03  0.90229699362E+03  0.29909143162E+03  0.99030617086E+03  0.15294330000E+03 0.  0.
<mgrwt>
<rscale>  0 0.10881474E+04</rscale>
<asrwt>0</asrwt>
<pdfrwt beam="1">  1        1 0.44431024E+00 0.11409072E+04</pdfrwt>
<pdfrwt beam="2">  1       -1 0.11887607E+00 0.11409072E+04</pdfrwt>
<totfact> 0.45747361E-01</totfact>
</mgrwt>
</event>
<event>
 4    1  0.8114601E-008  0.1113990E+04  0.7818608E-02  0.9245637E-01
          1   -1    0    0  501    0  0.00000000000E+00  0.00000000000E+00  0.16784685951E+04  0.16784685951E+04  0.50400000000E-02 0. -1.
         -1   -1    0    0    0  501 -0.00000000000E+00 -0.00000000000E+00 -0.11237305838E+04  0.11237305838E+04  0.50400000000E-02 0.  1.
    8880023    1    1    2    0    0  0.41586353391E+02  0.89746003594E+03  0.12363203772E+04  0.16641701302E+04  0.65864270000E+03 0.  0.
    8880022    1    1    2    0    0 -0.41586353391E+02 -0.89746003594E+03 -0.68158236599E+03  0.11380290486E+04  0.15294330000E+03 0.  0.
<mgrwt>
<rscale>  0 0.10594540E+04</rscale>
<asrwt>0</asrwt>
<pdfrwt beam="1">  1        1 0.25822594E+00 0.11139902E+04</pdfrwt>
<pdfrwt beam="2">  1       -1 0.17288163E+00 0.11139902E+04</pdfrwt>
<totfact> 0.11457747E+00</totfact>
</mgrwt>
</event>
<event>
 4    1  0.8114601E-008  0.7259367E+03  0.7818608E-02  0.9902987E-01
          1   -1    0    0  501    0  0.00000000000E+00  0.00000000000E+00  0.20446473121E+04  0.20446473121E+04  0.50400000000E-02 0. -1.
         -1   -1    0    0    0  501 -0.00000000000E+00 -0.00000000000E+00 -0.48071989926E+03  0.48071989929E+03  0.50400000000E-02 0.  1.
    8880023    1    1    2    0    0 -0.28522912626E+03  0.10871196767E+03  0.19075233840E+04  0.20409874113E+04  0.65864270000E+03 0. -1.
    8880022    1    1    2    0    0  0.28522912626E+03 -0.10871196767E+03 -0.34359597111E+03  0.48437980012E+03  0.15294330000E+03 0.  0.
<mgrwt>
<rscale>  0 0.60116735E+03</rscale>
<asrwt>0</asrwt>
<pdfrwt beam="1">  1        1 0.31456112E+00 0.72593674E+03</pdfrwt>
<pdfrwt beam="2">  1       -1 0.73956908E-01 0.72593674E+03</pdfrwt>
<totfact> 0.53961485E+00</totfact>
</mgrwt>
</event>
<event>
 4    1  0.8114601E-008  0.6693887E+03  0.7818608E-02  0.1016105E+00
         -1   -1    0    0    0  501 -0.00000000000E+00  0.00000000000E+00  0.14389013914E+03  0.14389013923E+03  0.50400000000E-02 0.  1.
          1   -1    0    0  501    0  0.00000000000E+00 -0.00000000000E+00 -0.15885458609E+04  0.15885458609E+04  0.50400000000E-02 0. -1.
    8880023    1    1    2    0    0 -0.82912167241E+02  0.86003744271E+02 -0.13694685247E+04  0.15243114242E+04  0.65864270000E+03 0. -1.
    8880022    1    1    2    0    0  0.82912167241E+02 -0.86003744271E+02 -0.75187197092E+02  0.20812457598E+03  0.15294330000E+03 0.  0.
<mgrwt>
<rscale>  0 0.49118802E+03</rscale>
<asrwt>0</asrwt>
<pdfrwt beam="1">  1        1 0.24439166E+00 0.66938873E+03</pdfrwt>
<pdfrwt beam="2">  1       -1 0.22136946E-01 0.66938873E+03</pdfrwt>
<totfact> 0.10102488E+02</totfact>
</mgrwt>
</event>
<event>
 4    1  0.8114601E-008  0.6986480E+03  0.7818608E-02  0.1000286E+00
         -1   -1    0    0    0  501 -0.00000000000E+00  0.00000000000E+00  0.16438280088E+04  0.16438280088E+04  0.50400000000E-02 0.  1.
          1   -1    0    0  501    0  0.00000000000E+00 -0.00000000000E+00 -0.14782830849E+03  0.14782830858E+03  0.50400000000E-02 0. -1.
    8880023    1    1    2    0    0  0.23066181677E+03 -0.33074515173E+02  0.95743565191E+03  0.11852392295E+04  0.65864270000E+03 0. -1.
    8880022    1    1    2    0    0 -0.23066181677E+03  0.33074515173E+02  0.53856404842E+03  0.60641708793E+03  0.15294330000E+03 0.  0.
<mgrwt>
<rscale>  0 0.55525153E+03</rscale>
<asrwt>0</asrwt>
<pdfrwt beam="1">  1        1 0.22742818E-01 0.69864798E+03</pdfrwt>
<pdfrwt beam="2">  1       -1 0.25289660E+00 0.69864798E+03</pdfrwt>
<totfact> 0.15340376E+01</totfact>
</mgrwt>
</event>
<event>
 4    1  0.8114601E-008  0.6794365E+03  0.7818608E-02  0.1009644E+00
         -1   -1    0    0    0  501 -0.00000000000E+00  0.00000000000E+00  0.96943454117E+03  0.96943454118E+03  0.50400000000E-02 0.  1.
          1   -1    0    0  501    0  0.00000000000E+00 -0.00000000000E+00 -0.10669475086E+04  0.10669475086E+04  0.50400000000E-02 0. -1.
    8880023    1    1    2    0    0  0.11743140893E+03 -0.11846355821E+03 -0.94235656597E+03  0.11617529230E+04  0.65864270000E+03 0. -1.
    8880022    1    1    2    0    0 -0.11743140893E+03  0.11846355821E+03  0.84484359853E+03  0.87462912679E+03  0.15294330000E+03 0.  0.
<mgrwt>
<rscale>  0 0.51616283E+03</rscale>
<asrwt>0</asrwt>
<pdfrwt beam="1">  1        1 0.16414577E+00 0.67943650E+03</pdfrwt>
<pdfrwt beam="2">  1       -1 0.14914378E+00 0.67943650E+03</pdfrwt>
<totfact> 0.49943864E+00</totfact>
</mgrwt>
</event>
<event>
 4    1  0.8114601E-008  0.7387442E+03  0.7818608E-02  0.9863620E-01
          1   -1    0    0  501    0  0.00000000000E+00  0.00000000000E+00  0.14836059970E+04  0.14836059970E+04  0.50400000000E-02 0. -1.
         -1   -1    0    0    0  501 -0.00000000000E+00 -0.00000000000E+00 -0.42208465111E+03  0.42208465114E+03  0.50400000000E-02 0.  1.
    8880023    1    1    2    0    0  0.25508543626E+03  0.21648141047E+03  0.12799665795E+04  0.14778556870E+04  0.65864270000E+03 0.  0.
    8880022    1    1    2    0    0 -0.25508543626E+03 -0.21648141047E+03 -0.21844523357E+03  0.42783496112E+03  0.15294330000E+03 0.  0.
<mgrwt>
<rscale>  0 0.62057259E+03</rscale>
<asrwt>0</asrwt>
<pdfrwt beam="1">  1        1 0.22824708E+00 0.73874420E+03</pdfrwt>
<pdfrwt beam="2">  1       -1 0.64936100E-01 0.73874420E+03</pdfrwt>
<totfact> 0.16745072E+01</totfact>
</mgrwt>
</event>
<event>
 4    1  0.8114601E-008  0.6836141E+03  0.7818608E-02  0.1007349E+00
         -1   -1    0    0    0  501 -0.00000000000E+00  0.00000000000E+00  0.10014409937E+04  0.10014409937E+04  0.50400000000E-02 0.  1.
          1   -1    0    0  501    0  0.00000000000E+00 -0.00000000000E+00 -0.81025286938E+03  0.81025286939E+03  0.50400000000E-02 0. -1.
    8880023    1    1    2    0    0 -0.12133884713E+03 -0.13709473317E+03 -0.64637914911E+03  0.94081575899E+03  0.65864270000E+03 0. -1.
    8880022    1    1    2    0    0  0.12133884713E+03  0.13709473317E+03  0.83756727346E+03  0.87087810414E+03  0.15294330000E+03 0.  0.
<mgrwt>
<rscale>  0 0.52542000E+03</rscale>
<asrwt>0</asrwt>
<pdfrwt beam="1">  1        1 0.12465429E+00 0.68361414E+03</pdfrwt>
<pdfrwt beam="2">  1       -1 0.15406784E+00 0.68361414E+03</pdfrwt>
<totfact> 0.73322597E+00</totfact>
</mgrwt>
</event>
<event>
 4    1  0.8114601E-008  0.1558593E+04  0.7818608E-02  0.8869332E-01
         -1   -1    0    0    0  501 -0.00000000000E+00  0.00000000000E+00  0.16443032772E+04  0.16443032772E+04  0.50400000000E-02 0.  1.
          1   -1    0    0  501    0  0.00000000000E+00 -0.00000000000E+00 -0.14299749093E+04  0.14299749093E+04  0.50400000000E-02 0. -1.
    8880023    1    1    2    0    0 -0.47031995277E+03 -0.13319915554E+04  0.47575010356E+03  0.16295860606E+04  0.65864270000E+03 0.  0.
    8880022    1    1    2    0    0  0.47031995277E+03  0.13319915554E+04 -0.26142173569E+03  0.14446921259E+04  0.15294330000E+03 0.  0.
<mgrwt>
<rscale>  0 0.15229515E+04</rscale>
<asrwt>0</asrwt>
<pdfrwt beam="1">  1        1 0.21999614E+00 0.15585931E+04</pdfrwt>
<pdfrwt beam="2">  1       -1 0.25296974E+00 0.15585931E+04</pdfrwt>
<totfact> 0.45900306E-01</totfact>
</mgrwt>
</event>
<event>
 4    1  0.8114601E-008  0.1699266E+04  0.7818608E-02  0.8780406E-01
         -1   -1    0    0    0  501 -0.00000000000E+00  0.00000000000E+00  0.19471682378E+04  0.19471682378E+04  0.50400000000E-02 0.  1.
          1   -1    0    0  501    0  0.00000000000E+00 -0.00000000000E+00 -0.19987752318E+04  0.19987752318E+04  0.50400000000E-02 0. -1.
    8880023    1    1    2    0    0  0.13174525306E+04  0.84735626643E+03 -0.11276510088E+04  0.20393873631E+04  0.65864270000E+03 0. -1.
    8880022    1    1    2    0    0 -0.13174525306E+04 -0.84735626643E+03  0.10760440148E+04  0.19065561066E+04  0.15294330000E+03 0.  0.
<mgrwt>
<rscale>  0 0.16670115E+04</rscale>
<asrwt>0</asrwt>
<pdfrwt beam="1">  1        1 0.30750388E+00 0.16992657E+04</pdfrwt>
<pdfrwt beam="2">  1       -1 0.29956434E+00 0.16992657E+04</pdfrwt>
<totfact> 0.91384621E-02</totfact>
</mgrwt>
</event>
<event>
 4    1  0.8114601E-008  0.7719000E+03  0.7818608E-02  0.9775220E-01
         -1   -1    0    0    0  501 -0.00000000000E+00  0.00000000000E+00  0.72765894758E+03  0.72765894760E+03  0.50400000000E-02 0.  1.
          1   -1    0    0  501    0  0.00000000000E+00 -0.00000000000E+00 -0.94383639770E+03  0.94383639771E+03  0.50400000000E-02 0. -1.
    8880023    1    1    2    0    0 -0.37570132435E+03  0.14445724651E+03 -0.68708545982E+03  0.10334002209E+04  0.65864270000E+03 0. -1.
    8880022    1    1    2    0    0  0.37570132435E+03 -0.14445724651E+03  0.47090800970E+03  0.63809512441E+03  0.15294330000E+03 0.  0.
<mgrwt>
<rscale>  0 0.66709506E+03</rscale>
<asrwt>0</asrwt>
<pdfrwt beam="1">  1        1 0.14520560E+00 0.77189999E+03</pdfrwt>
<pdfrwt beam="2">  1       -1 0.11194753E+00 0.77189999E+03</pdfrwt>
<totfact> 0.12616105E+01</totfact>
</mgrwt>
</event>
<event>
 4    1  0.8114601E-008  0.8693262E+03  0.7818608E-02  0.9577184E-01
          1   -1    0    0  501    0  0.00000000000E+00  0.00000000000E+00  0.85574655361E+03  0.85574655363E+03  0.50400000000E-02 0. -1.
         -1   -1    0    0    0  501 -0.00000000000E+00 -0.00000000000E+00 -0.79584137138E+03  0.79584137140E+03  0.50400000000E-02 0.  1.
    8880023    1    1    2    0    0  0.35488702764E+03 -0.44268849022E+03  0.41678747071E+03  0.96407463599E+03  0.65864270000E+03 0. -1.
    8880022    1    1    2    0    0 -0.35488702764E+03  0.44268849022E+03 -0.35688228848E+03  0.68751328904E+03  0.15294330000E+03 0.  0.
<mgrwt>
<rscale>  0 0.78824852E+03</rscale>
<asrwt>0</asrwt>
<pdfrwt beam="1">  1        1 0.13165332E+00 0.86932624E+03</pdfrwt>
<pdfrwt beam="2">  1       -1 0.12243713E+00 0.86932624E+03</pdfrwt>
<totfact> 0.11853343E+01</totfact>
</mgrwt>
</event>
<event>
 4    1  0.8114601E-008  0.7209623E+03  0.7818608E-02  0.9919343E-01
         -1   -1    0    0    0  501 -0.00000000000E+00  0.00000000000E+00  0.49472562614E+03  0.49472562617E+03  0.50400000000E-02 0.  1.
          1   -1    0    0  501    0  0.00000000000E+00 -0.00000000000E+00 -0.23010437511E+04  0.23010437511E+04  0.50400000000E-02 0. -1.
    8880023    1    1    2    0    0  0.20561187904E+03 -0.20904582490E+03 -0.21803767607E+04  0.22964819674E+04  0.65864270000E+03 0. -1.
    8880022    1    1    2    0    0 -0.20561187904E+03  0.20904582490E+03  0.37405863572E+03  0.49928740990E+03  0.15294330000E+03 0.  0.
<mgrwt>
<rscale>  0 0.59332919E+03</rscale>
<asrwt>0</asrwt>
<pdfrwt beam="1">  1        1 0.35400673E+00 0.72096228E+03</pdfrwt>
<pdfrwt beam="2">  1       -1 0.76111636E-01 0.72096228E+03</pdfrwt>
<totfact> 0.34245902E+00</totfact>
</mgrwt>
</event>
<event>
 4    1  0.8114601E-008  0.6856641E+03  0.7818608E-02  0.1006286E+00
          1   -1    0    0  501    0  0.00000000000E+00  0.00000000000E+00  0.21520642812E+04  0.21520642812E+04  0.50400000000E-02 0. -1.
         -1   -1    0    0    0  501 -0.00000000000E+00 -0.00000000000E+00 -0.23665612394E+03  0.23665612400E+03  0.50400000000E-02 0.  1.
    8880023    1    1    2    0    0 -0.13477202665E+03 -0.13476462798E+03  0.20122500470E+04  0.21258611107E+04  0.65864270000E+03 0.  0.
    8880022    1    1    2    0    0  0.13477202665E+03  0.13476462798E+03 -0.96841889679E+02  0.26285929455E+03  0.15294330000E+03 0.  0.
<mgrwt>
<rscale>  0 0.52977990E+03</rscale>
<asrwt>0</asrwt>
<pdfrwt beam="1">  1        1 0.33108682E+00 0.68566407E+03</pdfrwt>
<pdfrwt beam="2">  1       -1 0.36408633E-01 0.68566407E+03</pdfrwt>
<totfact> 0.17894294E+01</totfact>
</mgrwt>
</event>
<event>
 4    1  0.8114601E-008  0.8565377E+03  0.7818608E-02  0.9599752E-01
          1   -1    0    0  501    0  0.00000000000E+00  0.00000000000E+00  0.13960643262E+04  0.13960643262E+04  0.50400000000E-02 0. -1.
         -1   -1    0    0    0  501 -0.00000000000E+00 -0.00000000000E+00 -0.18878230002E+04  0.18878230002E+04  0.50400000000E-02 0.  1.
    8880023    1    1    2    0    0  0.49673644311E+03  0.23043325376E+03  0.12140704395E+04  0.14858074628E+04  0.65864270000E+03 0. -1.
    8880022    1    1    2    0    0 -0.49673644311E+03 -0.23043325376E+03 -0.17058291135E+04  0.17980798636E+04  0.15294330000E+03 0.  0.
<mgrwt>
<rscale>  0 0.77312585E+03</rscale>
<asrwt>0</asrwt>
<pdfrwt beam="1">  1        1 0.21477913E+00 0.85653767E+03</pdfrwt>
<pdfrwt beam="2">  1       -1 0.29043431E+00 0.85653767E+03</pdfrwt>
<totfact> 0.30718858E-01</totfact>
</mgrwt>
</event>
<event>
 4    1  0.8114601E-008  0.6679920E+03  0.7818608E-02  0.1017145E+00
         -1   -1    0    0    0  501 -0.00000000000E+00  0.00000000000E+00  0.18313577727E+03  0.18313577734E+03  0.50400000000E-02 0.  1.
          1   -1    0    0  501    0  0.00000000000E+00 -0.00000000000E+00 -0.12202415913E+04  0.12202415913E+04  0.50400000000E-02 0. -1.
    8880023    1    1    2    0    0  0.10171491518E+03 -0.45356445354E+02 -0.10119158758E+04  0.12125127121E+04  0.65864270000E+03 0. -1.
    8880022    1    1    2    0    0 -0.10171491518E+03  0.45356445354E+02 -0.25189938209E+02  0.19086465651E+03  0.15294330000E+03 0.  0.
<mgrwt>
<rscale>  0 0.48731067E+03</rscale>
<asrwt>0</asrwt>
<pdfrwt beam="1">  1        1 0.18772947E+00 0.66799202E+03</pdfrwt>
<pdfrwt beam="2">  1       -1 0.28174736E-01 0.66799202E+03</pdfrwt>
<totfact> 0.12067642E+02</totfact>
</mgrwt>
</event>
<event>
 4    1  0.8114601E-008  0.1072607E+04  0.7818608E-02  0.9292186E-01
         -1   -1    0    0    0  501 -0.00000000000E+00  0.00000000000E+00  0.88925757615E+03  0.88925757617E+03  0.50400000000E-02 0.  1.
          1   -1    0    0  501    0  0.00000000000E+00 -0.00000000000E+00 -0.10707126346E+04  0.10707126346E+04  0.50400000000E-02 0. -1.
    8880023    1    1    2    0    0  0.50405220125E+03  0.68015178052E+03 -0.23494839778E+03  0.10980373500E+04  0.65864270000E+03 0.  0.
    8880022    1    1    2    0    0 -0.50405220125E+03 -0.68015178052E+03  0.53493339322E+02  0.86193286078E+03  0.15294330000E+03 0.  0.
<mgrwt>
<rscale>  0 0.10150543E+04</rscale>
<asrwt>0</asrwt>
<pdfrwt beam="1">  1        1 0.16472502E+00 0.10726068E+04</pdfrwt>
<pdfrwt beam="2">  1       -1 0.13680886E+00 0.10726068E+04</pdfrwt>
<totfact> 0.59090104E+00</totfact>
</mgrwt>
</event>
<event>
 4    1  0.8114601E-008  0.7369438E+03  0.7818608E-02  0.9868941E-01
          1   -1    0    0  501    0  0.00000000000E+00  0.00000000000E+00  0.73360261587E+03  0.73360261588E+03  0.50400000000E-02 0. -1.
         -1   -1    0    0    0  501 -0.00000000000E+00 -0.00000000000E+00 -0.15159806267E+04  0.15159806267E+04  0.50400000000E-02 0.  1.
    8880023    1    1    2    0    0  0.49655090890E+01 -0.33053193141E+03  0.51694251016E+03  0.90017541570E+03  0.65864270000E+03 0. -1.
    8880022    1    1    2    0    0 -0.49655090890E+01  0.33053193141E+03 -0.12993205210E+04  0.13494078268E+04  0.15294330000E+03 0.  0.
<mgrwt>
<rscale>  0 0.61790460E+03</rscale>
<asrwt>0</asrwt>
<pdfrwt beam="1">  1        1 0.11286194E+00 0.73694384E+03</pdfrwt>
<pdfrwt beam="2">  1       -1 0.23322779E+00 0.73694384E+03</pdfrwt>
<totfact> 0.23823140E+00</totfact>
</mgrwt>
</event>
<event>
 4    1  0.8114601E-008  0.8818411E+03  0.7818608E-02  0.9555835E-01
          1   -1    0    0  501    0  0.00000000000E+00  0.00000000000E+00  0.11425552104E+04  0.11425552105E+04  0.50400000000E-02 0. -1.
         -1   -1    0    0    0  501 -0.00000000000E+00 -0.00000000000E+00 -0.80579862793E+03  0.80579862795E+03  0.50400000000E-02 0.  1.
    8880023    1    1    2    0    0  0.29276657881E+03 -0.50805639857E+03  0.79603206238E+03  0.11879860371E+04  0.65864270000E+03 0.  0.
    8880022    1    1    2    0    0 -0.29276657881E+03  0.50805639857E+03 -0.45927547987E+03  0.76036780128E+03  0.15294330000E+03 0.  0.
<mgrwt>
<rscale>  0 0.80289606E+03</rscale>
<asrwt>0</asrwt>
<pdfrwt beam="1">  1        1 0.17577772E+00 0.88184113E+03</pdfrwt>
<pdfrwt beam="2">  1       -1 0.12396902E+00 0.88184113E+03</pdfrwt>
<totfact> 0.68459852E+00</totfact>
</mgrwt>
</event>
<event>
 4    1  0.8114601E-008  0.7852831E+03  0.7818608E-02  0.9743570E-01
          1   -1    0    0  501    0  0.00000000000E+00  0.00000000000E+00  0.15859996002E+04  0.15859996002E+04  0.50400000000E-02 0. -1.
         -1   -1    0    0    0  501 -0.00000000000E+00 -0.00000000000E+00 -0.11438725907E+04  0.11438725907E+04  0.50400000000E-02 0.  1.
    8880023    1    1    2    0    0 -0.12233328544E+03  0.40974855770E+03  0.14362573469E+04  0.16369192669E+04  0.65864270000E+03 0. -1.
    8880022    1    1    2    0    0  0.12233328544E+03 -0.40974855770E+03 -0.99413033746E+03  0.10929529240E+04  0.15294330000E+03 0.  0.
<mgrwt>
<rscale>  0 0.68480856E+03</rscale>
<asrwt>0</asrwt>
<pdfrwt beam="1">  1        1 0.24399994E+00 0.78528308E+03</pdfrwt>
<pdfrwt beam="2">  1       -1 0.17598040E+00 0.78528308E+03</pdfrwt>
<totfact> 0.13252850E+00</totfact>
</mgrwt>
</event>
<event>
 4    1  0.8729896E-008  0.7443790E+03  0.7818608E-02  0.9847370E-01
         -1   -1    0    0    0  501 -0.00000000000E+00  0.00000000000E+00  0.24508265204E+04  0.24508265204E+04  0.50400000000E-02 0.  1.
          1   -1    0    0  501    0  0.00000000000E+00 -0.00000000000E+00 -0.14351083681E+04  0.14351083681E+04  0.50400000000E-02 0. -1.
    8880023    1    1    2    0    0 -0.34673114988E+03  0.82088265593E+01 -0.13222807641E+04  0.15174078227E+04  0.65864270000E+03 0.  0.
    8880022    1    1    2    0    0  0.34673114988E+03 -0.82088265593E+01  0.23379989164E+04  0.23685270658E+04  0.15294330000E+03 0.  1.
<mgrwt>
<rscale>  0 0.62881182E+03</rscale>
<asrwt>0</asrwt>
<pdfrwt beam="1">  1        1 0.22078591E+00 0.74437899E+03</pdfrwt>
<pdfrwt beam="2">  1       -1 0.37705023E+00 0.74437899E+03</pdfrwt>
<totfact> 0.81010524E-02</totfact>
</mgrwt>
</event>
<event>
 4    1  0.8114601E-008  0.6588819E+03  0.7818608E-02  0.1025332E+00
          1   -1    0    0  501    0  0.00000000000E+00  0.00000000000E+00  0.10477951838E+04  0.10477951838E+04  0.50400000000E-02 0. -1.
         -1   -1    0    0    0  501 -0.00000000000E+00 -0.00000000000E+00 -0.23830040361E+03  0.23830040366E+03  0.50400000000E-02 0.  1.
    8880023    1    1    2    0    0  0.96891306872E+01 -0.14873578719E+02  0.89391594280E+03  0.11105003474E+04  0.65864270000E+03 0. -1.
    8880022    1    1    2    0    0 -0.96891306872E+01  0.14873578719E+02 -0.84421162639E+02  0.17559524001E+03  0.15294330000E+03 0.  0.
<mgrwt>
<rscale>  0 0.45810463E+03</rscale>
<asrwt>0</asrwt>
<pdfrwt beam="1">  1        1 0.16119926E+00 0.65888186E+03</pdfrwt>
<pdfrwt beam="2">  1       -1 0.36661601E-01 0.65888186E+03</pdfrwt>
<totfact> 0.10188004E+02</totfact>
</mgrwt>
</event>
<event>
 4    1  0.8114601E-008  0.1314730E+04  0.7818608E-02  0.9052943E-01
          1   -1    0    0  501    0  0.00000000000E+00  0.00000000000E+00  0.14695077695E+04  0.14695077695E+04  0.50400000000E-02 0. -1.
         -1   -1    0    0    0  501 -0.00000000000E+00 -0.00000000000E+00 -0.15884285960E+04  0.15884285960E+04  0.50400000000E-02 0.  1.
    8880023    1    1    2    0    0 -0.61203679154E+03 -0.95922616446E+03  0.84161202254E+03  0.15610332705E+04  0.65864270000E+03 0.  0.
    8880022    1    1    2    0    0  0.61203679154E+03  0.95922616446E+03 -0.96053284908E+03  0.14969030950E+04  0.15294330000E+03 0.  0.
<mgrwt>
<rscale>  0 0.12709273E+04</rscale>
<asrwt>0</asrwt>
<pdfrwt beam="1">  1        1 0.22607812E+00 0.13147297E+04</pdfrwt>
<pdfrwt beam="2">  1       -1 0.24437363E+00 0.13147297E+04</pdfrwt>
<totfact> 0.50374601E-01</totfact>
</mgrwt>
</event>
<event>
 4    1  0.8114601E-008  0.6737939E+03  0.7818608E-02  0.1013078E+00
         -1   -1    0    0    0  501 -0.00000000000E+00  0.00000000000E+00  0.19601570165E+04  0.19601570165E+04  0.50400000000E-02 0.  1.
          1   -1    0    0  501    0  0.00000000000E+00 -0.00000000000E+00 -0.93212701442E+03  0.93212701444E+03  0.50400000000E-02 0. -1.
    8880023    1    1    2    0    0  0.86137725266E+02 -0.11299687049E+03 -0.80365469188E+03  0.10487416605E+04  0.65864270000E+03 0. -1.
    8880022    1    1    2    0    0 -0.86137725266E+02  0.11299687049E+03  0.18316846939E+04  0.18435423704E+04  0.15294330000E+03 0.  0.
<mgrwt>
<rscale>  0 0.50269640E+03</rscale>
<asrwt>0</asrwt>
<pdfrwt beam="1">  1        1 0.14340416E+00 0.67379389E+03</pdfrwt>
<pdfrwt beam="2">  1       -1 0.30156262E+00 0.67379389E+03</pdfrwt>
<totfact> 0.59675404E-01</totfact>
</mgrwt>
</event>
<event>
 4    1  0.8114601E-008  0.7575097E+03  0.7818608E-02  0.9811598E-01
          1   -1    0    0  501    0  0.00000000000E+00  0.00000000000E+00  0.16061757097E+04  0.16061757097E+04  0.50400000000E-02 0. -1.
         -1   -1    0    0    0  501 -0.00000000000E+00 -0.00000000000E+00 -0.21319814256E+03  0.21319814262E+03  0.50400000000E-02 0.  1.
    8880023    1    1    2    0    0  0.30506994753E+03  0.21666353097E+03  0.10102218907E+04  0.12626833464E+04  0.65864270000E+03 0.  0.
    8880022    1    1    2    0    0 -0.30506994753E+03 -0.21666353097E+03  0.38275567638E+03  0.55669050590E+03  0.15294330000E+03 0. -1.
<mgrwt>
<rscale>  0 0.64743841E+03</rscale>
<asrwt>0</asrwt>
<pdfrwt beam="1">  1        1 0.24710396E+00 0.75750971E+03</pdfrwt>
<pdfrwt beam="2">  1       -1 0.32799714E-01 0.75750971E+03</pdfrwt>
<totfact> 0.49511361E+01</totfact>
</mgrwt>
</event>
<event>
 4    1  0.8114601E-008  0.2069392E+04  0.7818608E-02  0.8586551E-01
         -1   -1    0    0    0  501 -0.00000000000E+00  0.00000000000E+00  0.12806315051E+04  0.12806315051E+04  0.50400000000E-02 0.  1.
          1   -1    0    0  501    0  0.00000000000E+00 -0.00000000000E+00 -0.42328055876E+04  0.42328055876E+04  0.50400000000E-02 0. -1.
    8880023    1    1    2    0    0 -0.16636980155E+04 -0.10395583076E+04 -0.28774275057E+04  0.35442872088E+04  0.65864270000E+03 0.  0.
    8880022    1    1    2    0    0  0.16636980155E+04  0.10395583076E+04 -0.74746576747E+02  0.19691498839E+04  0.15294330000E+03 0.  0.
<mgrwt>
<rscale>  0 0.20434945E+04</rscale>
<asrwt>0</asrwt>
<pdfrwt beam="1">  1        1 0.65120085E+00 0.20693919E+04</pdfrwt>
<pdfrwt beam="2">  1       -1 0.19702023E+00 0.20693919E+04</pdfrwt>
<totfact> 0.82795967E-03</totfact>
</mgrwt>
</event>
<event>
 4    1  0.8114601E-008  0.1249722E+04  0.7818608E-02  0.9110242E-01
          1   -1    0    0  501    0  0.00000000000E+00  0.00000000000E+00  0.30886686441E+04  0.30886686441E+04  0.50400000000E-02 0. -1.
         -1   -1    0    0    0  501 -0.00000000000E+00 -0.00000000000E+00 -0.63324621002E+03  0.63324621004E+03  0.50400000000E-02 0.  1.
    8880023    1    1    2    0    0 -0.30652962457E+02  0.10616280110E+04  0.23268430850E+04  0.26412123327E+04  0.65864270000E+03 0.  0.
    8880022    1    1    2    0    0  0.30652962457E+02 -0.10616280110E+04  0.12857934903E+03  0.10807025214E+04  0.15294330000E+03 0.  0.
<mgrwt>
<rscale>  0 0.12029914E+04</rscale>
<asrwt>0</asrwt>
<pdfrwt beam="1">  1        1 0.47517980E+00 0.12497215E+04</pdfrwt>
<pdfrwt beam="2">  1       -1 0.97422493E-01 0.12497215E+04</pdfrwt>
<totfact> 0.51553143E-01</totfact>
</mgrwt>
</event>
<event>
 4    1  0.8114601E-008  0.1112848E+04  0.7818608E-02  0.9246885E-01
          1   -1    0    0  501    0  0.00000000000E+00  0.00000000000E+00  0.44172331491E+04  0.44172331491E+04  0.50400000000E-02 0. -1.
         -1   -1    0    0    0  501 -0.00000000000E+00 -0.00000000000E+00 -0.51467817851E+03  0.51467817854E+03  0.50400000000E-02 0.  1.
    8880023    1    1    2    0    0 -0.47434683202E+01 -0.89699355136E+03  0.38640905189E+04  0.40211473084E+04  0.65864270000E+03 0.  0.
    8880022    1    1    2    0    0  0.47434683202E+01  0.89699355136E+03  0.38464451728E+02  0.91076401924E+03  0.15294330000E+03 0.  0.
<mgrwt>
<rscale>  0 0.10582332E+04</rscale>
<asrwt>0</asrwt>
<pdfrwt beam="1">  1        1 0.67957432E+00 0.11128478E+04</pdfrwt>
<pdfrwt beam="2">  1       -1 0.79181260E-01 0.11128478E+04</pdfrwt>
<totfact> 0.65124599E-02</totfact>
</mgrwt>
</event>
<event>
 4    1  0.8114601E-008  0.8252067E+03  0.7818608E-02  0.9658732E-01
         -1   -1    0    0    0  501 -0.00000000000E+00  0.00000000000E+00  0.40234052365E+03  0.40234052369E+03  0.50400000000E-02 0.  1.
          1   -1    0    0  501    0  0.00000000000E+00 -0.00000000000E+00 -0.19158055552E+04  0.19158055552E+04  0.50400000000E-02 0. -1.
    8880023    1    1    2    0    0 -0.26482304317E+03  0.42074305912E+03 -0.15909833156E+04  0.17922594909E+04  0.65864270000E+03 0.  0.
    8880022    1    1    2    0    0  0.26482304317E+03 -0.42074305912E+03  0.77518284097E+02  0.52588658794E+03  0.15294330000E+03 0.  0.
<mgrwt>
<rscale>  0 0.73527964E+03</rscale>
<asrwt>0</asrwt>
<pdfrwt beam="1">  1        1 0.29473931E+00 0.82520675E+03</pdfrwt>
<pdfrwt beam="2">  1       -1 0.61898543E-01 0.82520675E+03</pdfrwt>
<totfact> 0.92973836E+00</totfact>
</mgrwt>
</event>
<event>
 4    1  0.8114601E-008  0.6730974E+03  0.7818608E-02  0.1013533E+00
          1   -1    0    0  501    0  0.00000000000E+00  0.00000000000E+00  0.35977136366E+04  0.35977136366E+04  0.50400000000E-02 0. -1.
         -1   -1    0    0    0  501 -0.00000000000E+00 -0.00000000000E+00 -0.53782519480E+02  0.53782519716E+02  0.50400000000E-02 0.  1.
    8880023    1    1    2    0    0 -0.58196488697E+02  0.12594848360E+03  0.27414514387E+04  0.28228737218E+04  0.65864270000E+03 0. -1.
    8880022    1    1    2    0    0  0.58196488697E+02 -0.12594848360E+03  0.80247967844E+03  0.82862243461E+03  0.15294330000E+03 0.  1.
<mgrwt>
<rscale>  0 0.50094204E+03</rscale>
<asrwt>0</asrwt>
<pdfrwt beam="1">  1        1 0.55349451E+00 0.67309736E+03</pdfrwt>
<pdfrwt beam="2">  1       -1 0.82742322E-02 0.67309736E+03</pdfrwt>
<totfact> 0.19413614E+01</totfact>
</mgrwt>
</event>
<event>
 4    1  0.8114601E-008  0.8222866E+03  0.7818608E-02  0.9664531E-01
         -1   -1    0    0    0  501 -0.00000000000E+00  0.00000000000E+00  0.75589112752E+03  0.75589112754E+03  0.50400000000E-02 0.  1.
          1   -1    0    0  501    0  0.00000000000E+00 -0.00000000000E+00 -0.28096502789E+04  0.28096502789E+04  0.50400000000E-02 0. -1.
    8880023    1    1    2    0    0  0.12496505314E+03 -0.47616048272E+03  0.49860166740E+03  0.96164385238E+03  0.65864270000E+03 0.  1.
    8880022    1    1    2    0    0 -0.12496505314E+03  0.47616048272E+03 -0.25523608188E+04  0.26038975541E+04  0.15294330000E+03 0.  0.
<mgrwt>
<rscale>  0 0.73168451E+03</rscale>
<asrwt>0</asrwt>
<pdfrwt beam="1">  1        1 0.43225388E+00 0.82228661E+03</pdfrwt>
<pdfrwt beam="2">  1       -1 0.11629094E+00 0.82228661E+03</pdfrwt>
<totfact> 0.58082335E-01</totfact>
</mgrwt>
</event>
<event>
 4    1  0.8114601E-008  0.9808889E+03  0.7818608E-02  0.9406999E-01
          1   -1    0    0  501    0  0.00000000000E+00  0.00000000000E+00  0.57028096532E+03  0.57028096534E+03  0.50400000000E-02 0. -1.
         -1   -1    0    0    0  501 -0.00000000000E+00 -0.00000000000E+00 -0.14639082273E+04  0.14639082273E+04  0.50400000000E-02 0.  1.
    8880023    1    1    2    0    0  0.70625154668E+03  0.17187661761E+03 -0.83663386384E+03  0.12892242812E+04  0.65864270000E+03 0.  0.
    8880022    1    1    2    0    0 -0.70625154668E+03 -0.17187661761E+03 -0.56993398175E+02  0.74496491147E+03  0.15294330000E+03 0.  0.
<mgrwt>
<rscale>  0 0.91501907E+03</rscale>
<asrwt>0</asrwt>
<pdfrwt beam="1">  1        1 0.87735534E-01 0.98088890E+03</pdfrwt>
<pdfrwt beam="2">  1       -1 0.22521665E+00 0.98088890E+03</pdfrwt>
<totfact> 0.37729422E+00</totfact>
</mgrwt>
</event>
<event>
 4    1  0.8114601E-008  0.9337029E+03  0.7818608E-02  0.9473960E-01
          1   -1    0    0  501    0  0.00000000000E+00  0.00000000000E+00  0.26563194361E+04  0.26563194361E+04  0.50400000000E-02 0. -1.
         -1   -1    0    0    0  501 -0.00000000000E+00 -0.00000000000E+00 -0.98493607255E+03  0.98493607256E+03  0.50400000000E-02 0.  1.
    8880023    1    1    2    0    0  0.66099070030E+03  0.32896397250E+02  0.24417598383E+04  0.26141905426E+04  0.65864270000E+03 0.  0.
    8880022    1    1    2    0    0 -0.66099070030E+03 -0.32896397250E+02 -0.77037647470E+03  0.10270649661E+04  0.15294330000E+03 0.  0.
<mgrwt>
<rscale>  0 0.86231149E+03</rscale>
<asrwt>0</asrwt>
<pdfrwt beam="1">  1        1 0.40866452E+00 0.93370289E+03</pdfrwt>
<pdfrwt beam="2">  1       -1 0.15152863E+00 0.93370289E+03</pdfrwt>
<totfact> 0.36979345E-01</totfact>
</mgrwt>
</event>
<event>
 4    1  0.8114601E-008  0.8314242E+03  0.7818608E-02  0.9646568E-01
          1   -1    0    0  501    0  0.00000000000E+00  0.00000000000E+00  0.13278824644E+04  0.13278824644E+04  0.50400000000E-02 0. -1.
         -1   -1    0    0    0  501 -0.00000000000E+00 -0.00000000000E+00 -0.55175296198E+03  0.55175296200E+03  0.50400000000E-02 0.  1.
    8880023    1    1    2    0    0 -0.40623266244E+03 -0.30402460367E+03  0.10033180922E+04  0.13030400363E+04  0.65864270000E+03 0. -1.
    8880022    1    1    2    0    0  0.40623266244E+03  0.30402460367E+03 -0.22718858974E+03  0.57659539020E+03  0.15294330000E+03 0.  0.
<mgrwt>
<rscale>  0 0.74289224E+03</rscale>
<asrwt>0</asrwt>
<pdfrwt beam="1">  1        1 0.20428961E+00 0.83142416E+03</pdfrwt>
<pdfrwt beam="2">  1       -1 0.84885072E-01 0.83142416E+03</pdfrwt>
<totfact> 0.12148968E+01</totfact>
</mgrwt>
</event>
<event>
 4    1  0.8114601E-008  0.1231941E+04  0.7818608E-02  0.9126682E-01
         -1   -1    0    0    0  501 -0.00000000000E+00  0.00000000000E+00  0.10301659069E+04  0.10301659069E+04  0.50400000000E-02 0.  1.
          1   -1    0    0  501    0  0.00000000000E+00 -0.00000000000E+00 -0.24471085107E+04  0.24471085107E+04  0.50400000000E-02 0. -1.
    8880023    1    1    2    0    0  0.95551710716E+03  0.41334717283E+03 -0.19431579344E+04  0.23007698259E+04  0.65864270000E+03 0. -1.
    8880022    1    1    2    0    0 -0.95551710716E+03 -0.41334717283E+03  0.52621533057E+03  0.11765045918E+04  0.15294330000E+03 0.  0.
<mgrwt>
<rscale>  0 0.11843326E+04</rscale>
<asrwt>0</asrwt>
<pdfrwt beam="1">  1        1 0.37647823E+00 0.12319412E+04</pdfrwt>
<pdfrwt beam="2">  1       -1 0.15848706E+00 0.12319412E+04</pdfrwt>
<totfact> 0.43414139E-01</totfact>
</mgrwt>
</event>
<event>
 4    1  0.8114601E-008  0.6646570E+03  0.7818608E-02  0.1019823E+00
         -1   -1    0    0    0  501 -0.00000000000E+00  0.00000000000E+00  0.13963780233E+04  0.13963780233E+04  0.50400000000E-02 0.  1.
          1   -1    0    0  501    0  0.00000000000E+00 -0.00000000000E+00 -0.39735696905E+03  0.39735696908E+03  0.50400000000E-02 0. -1.
    8880023    1    1    2    0    0  0.37556391017E+02  0.80921336175E+02 -0.10736310883E+03  0.67327244750E+03  0.65864270000E+03 0. -1.
    8880022    1    1    2    0    0 -0.37556391017E+02 -0.80921336175E+02  0.11063841631E+04  0.11204625449E+04  0.15294330000E+03 0.  0.
<mgrwt>
<rscale>  0 0.47750572E+03</rscale>
<asrwt>0</asrwt>
<pdfrwt beam="1">  1        1 0.61131841E-01 0.66465702E+03</pdfrwt>
<pdfrwt beam="2">  1       -1 0.21482739E+00 0.66465702E+03</pdfrwt>
<totfact> 0.75525312E+00</totfact>
</mgrwt>
</event>
<event>
 4    1  0.8114601E-008  0.6874033E+03  0.7818608E-02  0.1005412E+00
         -1   -1    0    0    0  501 -0.00000000000E+00  0.00000000000E+00  0.47454572887E+03  0.47454572890E+03  0.50400000000E-02 0.  1.
          1   -1    0    0  501    0  0.00000000000E+00 -0.00000000000E+00 -0.15972965080E+04  0.15972965080E+04  0.50400000000E-02 0. -1.
    8880023    1    1    2    0    0 -0.18400812867E+03  0.69671649168E+02 -0.14825538076E+04  0.16341631280E+04  0.65864270000E+03 0. -1.
    8880022    1    1    2    0    0  0.18400812867E+03 -0.69671649168E+02  0.35980302846E+03  0.43767910896E+03  0.15294330000E+03 0.  0.
<mgrwt>
<rscale>  0 0.53339551E+03</rscale>
<asrwt>0</asrwt>
<pdfrwt beam="1">  1        1 0.24573792E+00 0.68740333E+03</pdfrwt>
<pdfrwt beam="2">  1       -1 0.73007036E-01 0.68740333E+03</pdfrwt>
<totfact> 0.11123395E+01</totfact>
</mgrwt>
</event>
<event>
 4    1  0.8114601E-008  0.1039836E+04  0.7818608E-02  0.9331201E-01
          1   -1    0    0  501    0  0.00000000000E+00  0.00000000000E+00  0.13017927276E+04  0.13017927277E+04  0.50400000000E-02 0. -1.
         -1   -1    0    0    0  501 -0.00000000000E+00 -0.00000000000E+00 -0.81792977432E+03  0.81792977433E+03  0.50400000000E-02 0.  1.
    8880023    1    1    2    0    0  0.56161859413E+03 -0.57622240273E+03  0.72299074948E+03  0.12664807668E+04  0.65864270000E+03 0.  0.
    8880022    1    1    2    0    0 -0.56161859413E+03  0.57622240273E+03 -0.23912779616E+03  0.85324173514E+03  0.15294330000E+03 0.  0.
<mgrwt>
<rscale>  0 0.97960457E+03</rscale>
<asrwt>0</asrwt>
<pdfrwt beam="1">  1        1 0.20027580E+00 0.10398355E+04</pdfrwt>
<pdfrwt beam="2">  1       -1 0.12583535E+00 0.10398355E+04</pdfrwt>
<totfact> 0.49601816E+00</totfact>
</mgrwt>
</event>
<event>
 4    1  0.8114601E-008  0.6610412E+03  0.7818608E-02  0.1023114E+00
          1   -1    0    0  501    0  0.00000000000E+00  0.00000000000E+00  0.42207617208E+03  0.42207617211E+03  0.50400000000E-02 0. -1.
         -1   -1    0    0    0  501 -0.00000000000E+00 -0.00000000000E+00 -0.63207623906E+03  0.63207623908E+03  0.50400000000E-02 0.  1.
    8880023    1    1    2    0    0 -0.46999692168E+02 -0.30924043646E+02  0.13310874237E+03  0.67430958105E+03  0.65864270000E+03 0. -1.
    8880022    1    1    2    0    0  0.46999692168E+02  0.30924043646E+02 -0.34310880936E+03  0.37984283014E+03  0.15294330000E+03 0.  0.
<mgrwt>
<rscale>  0 0.46579370E+03</rscale>
<asrwt>0</asrwt>
<pdfrwt beam="1">  1        1 0.64934795E-01 0.66104120E+03</pdfrwt>
<pdfrwt beam="2">  1       -1 0.97242499E-01 0.66104120E+03</pdfrwt>
<totfact> 0.58288564E+01</totfact>
</mgrwt>
</event>
<event>
 4    1  0.8114601E-008  0.1040377E+04  0.7818608E-02  0.9330540E-01
         -1   -1    0    0    0  501 -0.00000000000E+00  0.00000000000E+00  0.63650099430E+03  0.63650099432E+03  0.50400000000E-02 0.  1.
          1   -1    0    0  501    0  0.00000000000E+00 -0.00000000000E+00 -0.22919897221E+04  0.22919897221E+04  0.50400000000E-02 0. -1.
    8880023    1    1    2    0    0 -0.76099166224E+03  0.26356224875E+03  0.44347436290E+02  0.10413214059E+04  0.65864270000E+03 0.  0.
    8880022    1    1    2    0    0  0.76099166224E+03 -0.26356224875E+03 -0.16998361641E+04  0.18871693106E+04  0.15294330000E+03 0.  0.
<mgrwt>
<rscale>  0 0.98019229E+03</rscale>
<asrwt>0</asrwt>
<pdfrwt beam="1">  1        1 0.35261380E+00 0.10403767E+04</pdfrwt>
<pdfrwt beam="2">  1       -1 0.97923231E-01 0.10403767E+04</pdfrwt>
<totfact> 0.19021441E+00</totfact>
</mgrwt>
</event>
<event>
 4    1  0.8114601E-008  0.8140094E+03  0.7818608E-02  0.9681285E-01
          1   -1    0    0  501    0  0.00000000000E+00  0.00000000000E+00  0.10699550491E+04  0.10699550491E+04  0.50400000000E-02 0. -1.
         -1   -1    0    0    0  501 -0.00000000000E+00 -0.00000000000E+00 -0.22518256319E+04  0.22518256319E+04  0.50400000000E-02 0.  1.
    8880023    1    1    2    0    0 -0.41957452562E+03  0.22969185072E+03  0.88051631982E+03  0.11991331555E+04  0.65864270000E+03 0. -1.
    8880022    1    1    2    0    0  0.41957452562E+03 -0.22969185072E+03 -0.20623869026E+04  0.21226475256E+04  0.15294330000E+03 0.  0.
<mgrwt>
<rscale>  0 0.72142079E+03</rscale>
<asrwt>0</asrwt>
<pdfrwt beam="1">  1        1 0.16460847E+00 0.81400942E+03</pdfrwt>
<pdfrwt beam="2">  1       -1 0.34643471E+00 0.81400942E+03</pdfrwt>
<totfact> 0.23199446E-01</totfact>
</mgrwt>
</event>
<event>
 4    1  0.8114601E-008  0.8803253E+03  0.7818608E-02  0.9558384E-01
         -1   -1    0    0    0  501 -0.00000000000E+00  0.00000000000E+00  0.18866812304E+03  0.18866812311E+03  0.50400000000E-02 0.  1.
          1   -1    0    0  501    0  0.00000000000E+00 -0.00000000000E+00 -0.33178249698E+04  0.33178249698E+04  0.50400000000E-02 0. -1.
    8880023    1    1    2    0    0 -0.58229911269E+03  0.45717469377E+02 -0.24198541521E+04  0.25750080907E+04  0.65864270000E+03 0. -1.
    8880022    1    1    2    0    0  0.58229911269E+03 -0.45717469377E+02 -0.70930269470E+03  0.93148500222E+03  0.15294330000E+03 0.  0.
<mgrwt>
<rscale>  0 0.80112928E+03</rscale>
<asrwt>0</asrwt>
<pdfrwt beam="1">  1        1 0.51043457E+00 0.88032525E+03</pdfrwt>
<pdfrwt beam="2">  1       -1 0.29025867E-01 0.88032525E+03</pdfrwt>
<totfact> 0.39343449E+00</totfact>
</mgrwt>
</event>
<event>
 4    1  0.8114601E-008  0.9153000E+03  0.7818608E-02  0.9501903E-01
          1   -1    0    0  501    0  0.00000000000E+00  0.00000000000E+00  0.14318236987E+04  0.14318236987E+04  0.50400000000E-02 0. -1.
         -1   -1    0    0    0  501 -0.00000000000E+00 -0.00000000000E+00 -0.64499084930E+03  0.64499084932E+03  0.50400000000E-02 0.  1.
    8880023    1    1    2    0    0  0.54587304685E+03 -0.32555559116E+03  0.10312809926E+04  0.13788816186E+04  0.65864270000E+03 0.  0.
    8880022    1    1    2    0    0 -0.54587304685E+03  0.32555559116E+03 -0.24444814321E+03  0.69793292940E+03  0.15294330000E+03 0.  0.
<mgrwt>
<rscale>  0 0.84143630E+03</rscale>
<asrwt>0</asrwt>
<pdfrwt beam="1">  1        1 0.22028057E+00 0.91529997E+03</pdfrwt>
<pdfrwt beam="2">  1       -1 0.99229362E-01 0.91529997E+03</pdfrwt>
<totfact> 0.71885401E+00</totfact>
</mgrwt>
</event>
<event>
 4    1  0.8114601E-008  0.1171010E+04  0.7818608E-02  0.9185831E-01
          1   -1    0    0  501    0  0.00000000000E+00  0.00000000000E+00  0.23413213353E+04  0.23413213353E+04  0.50400000000E-02 0. -1.
         -1   -1    0    0    0  501 -0.00000000000E+00 -0.00000000000E+00 -0.75663109941E+03  0.75663109943E+03  0.50400000000E-02 0.  1.
    8880023    1    1    2    0    0 -0.83787732078E+03  0.48519598897E+03  0.17482269363E+04  0.21041770789E+04  0.65864270000E+03 0. -1.
    8880022    1    1    2    0    0  0.83787732078E+03 -0.48519598897E+03 -0.16353670042E+03  0.99377535580E+03  0.15294330000E+03 0.  0.
<mgrwt>
<rscale>  0 0.11200878E+04</rscale>
<asrwt>0</asrwt>
<pdfrwt beam="1">  1        1 0.36020328E+00 0.11710097E+04</pdfrwt>
<pdfrwt beam="2">  1       -1 0.11640479E+00 0.11710097E+04</pdfrwt>
<totfact> 0.11520305E+00</totfact>
</mgrwt>
</event>
<event>
 4    1  0.8114601E-008  0.8991080E+03  0.7818608E-02  0.9527465E-01
         -1   -1    0    0    0  501 -0.00000000000E+00  0.00000000000E+00  0.10398085263E+04  0.10398085263E+04  0.50400000000E-02 0.  1.
          1   -1    0    0  501    0  0.00000000000E+00 -0.00000000000E+00 -0.60635901240E+03  0.60635901242E+03  0.50400000000E-02 0. -1.
    8880023    1    1    2    0    0  0.38746820112E+03 -0.47376508621E+03  0.34537160327E+02  0.89977107394E+03  0.65864270000E+03 0.  0.
    8880022    1    1    2    0    0 -0.38746820112E+03  0.47376508621E+03  0.39891235356E+03  0.74639646478E+03  0.15294330000E+03 0.  0.
<mgrwt>
<rscale>  0 0.82288868E+03</rscale>
<asrwt>0</asrwt>
<pdfrwt beam="1">  1        1 0.93286002E-01 0.89910799E+03</pdfrwt>
<pdfrwt beam="2">  1       -1 0.15997054E+00 0.89910799E+03</pdfrwt>
<totfact> 0.99889062E+00</totfact>
</mgrwt>
</event>
<event>
 4    1  0.8114601E-008  0.9375210E+03  0.7818608E-02  0.9468301E-01
         -1   -1    0    0    0  501 -0.00000000000E+00  0.00000000000E+00  0.41179024137E+03  0.41179024140E+03  0.50400000000E-02 0.  1.
          1   -1    0    0  501    0  0.00000000000E+00 -0.00000000000E+00 -0.38407460738E+04  0.38407460738E+04  0.50400000000E-02 0. -1.
    8880023    1    1    2    0    0  0.42327603896E+03 -0.51572547815E+03 -0.34425347423E+04  0.35679112982E+04  0.65864270000E+03 0. -1.
    8880022    1    1    2    0    0 -0.42327603896E+03  0.51572547815E+03  0.13578909915E+02  0.68462501691E+03  0.15294330000E+03 0.  0.
<mgrwt>
<rscale>  0 0.86661774E+03</rscale>
<asrwt>0</asrwt>
<pdfrwt beam="1">  1        1 0.59088399E+00 0.93752098E+03</pdfrwt>
<pdfrwt beam="2">  1       -1 0.63352347E-01 0.93752098E+03</pdfrwt>
<totfact> 0.35351522E-01</totfact>
</mgrwt>
</event>
<event>
 4    1  0.8114601E-008  0.1282559E+04  0.7818608E-02  0.9080770E-01
         -1   -1    0    0    0  501 -0.00000000000E+00  0.00000000000E+00  0.80216934225E+03  0.80216934226E+03  0.50400000000E-02 0.  1.
          1   -1    0    0  501    0  0.00000000000E+00 -0.00000000000E+00 -0.24670146991E+04  0.24670146991E+04  0.50400000000E-02 0. -1.
    8880023    1    1    2    0    0  0.10336056834E+04  0.37789702798E+03 -0.17330215781E+04  0.21559964909E+04  0.65864270000E+03 0.  0.
    8880022    1    1    2    0    0 -0.10336056834E+04 -0.37789702798E+03  0.68176221186E+02  0.11131875505E+04  0.15294330000E+03 0.  0.
<mgrwt>
<rscale>  0 0.12373599E+04</rscale>
<asrwt>0</asrwt>
<pdfrwt beam="1">  1        1 0.37954072E+00 0.12825588E+04</pdfrwt>
<pdfrwt beam="2">  1       -1 0.12341067E+00 0.12825588E+04</pdfrwt>
<totfact> 0.80638508E-01</totfact>
</mgrwt>
</event>
<event>
 4    1  0.8114601E-008  0.9755599E+03  0.7818608E-02  0.9414255E-01
          1   -1    0    0  501    0  0.00000000000E+00  0.00000000000E+00  0.12112821963E+04  0.12112821963E+04  0.50400000000E-02 0. -1.
         -1   -1    0    0    0  501 -0.00000000000E+00 -0.00000000000E+00 -0.82930932533E+03  0.82930932535E+03  0.50400000000E-02 0.  1.
    8880023    1    1    2    0    0  0.45558140876E+03  0.55709292487E+03  0.73798792186E+03  0.12232511296E+04  0.65864270000E+03 0.  0.
    8880022    1    1    2    0    0 -0.45558140876E+03 -0.55709292487E+03 -0.35601505094E+03  0.81734039204E+03  0.15294330000E+03 0.  0.
<mgrwt>
<rscale>  0 0.90911762E+03</rscale>
<asrwt>0</asrwt>
<pdfrwt beam="1">  1        1 0.18635111E+00 0.97555992E+03</pdfrwt>
<pdfrwt beam="2">  1       -1 0.12758605E+00 0.97555992E+03</pdfrwt>
<totfact> 0.56092748E+00</totfact>
</mgrwt>
</event>
<event>
 4    1  0.8114601E-008  0.6880191E+03  0.7818608E-02  0.1005109E+00
         -1   -1    0    0    0  501 -0.00000000000E+00  0.00000000000E+00  0.21390568631E+03  0.21390568637E+03  0.50400000000E-02 0.  1.
          1   -1    0    0  501    0  0.00000000000E+00 -0.00000000000E+00 -0.15064370414E+04  0.15064370414E+04  0.50400000000E-02 0. -1.
    8880023    1    1    2    0    0  0.19576270426E+03 -0.35170884435E+02 -0.12983408513E+04  0.14693737442E+04  0.65864270000E+03 0. -1.
    8880022    1    1    2    0    0 -0.19576270426E+03  0.35170884435E+02  0.58094962347E+01  0.25096898365E+03  0.15294330000E+03 0.  0.
<mgrwt>
<rscale>  0 0.53465825E+03</rscale>
<asrwt>0</asrwt>
<pdfrwt beam="1">  1        1 0.23175954E+00 0.68801906E+03</pdfrwt>
<pdfrwt beam="2">  1       -1 0.32908568E-01 0.68801906E+03</pdfrwt>
<totfact> 0.57993855E+01</totfact>
</mgrwt>
</event>
<event>
 4    1  0.8114601E-008  0.7022309E+03  0.7818608E-02  0.9988069E-01
         -1   -1    0    0    0  501 -0.00000000000E+00  0.00000000000E+00  0.56792239969E+03  0.56792239971E+03  0.50400000000E-02 0.  1.
          1   -1    0    0  501    0  0.00000000000E+00 -0.00000000000E+00 -0.18110470514E+04  0.18110470514E+04  0.50400000000E-02 0. -1.
    8880023    1    1    2    0    0  0.37963094143E+02 -0.24057600741E+03 -0.16998785792E+04  0.18392159748E+04  0.65864270000E+03 0. -1.
    8880022    1    1    2    0    0 -0.37963094143E+02  0.24057600741E+03  0.45675392748E+03  0.53975347627E+03  0.15294330000E+03 0.  0.
<mgrwt>
<rscale>  0 0.56176474E+03</rscale>
<asrwt>0</asrwt>
<pdfrwt beam="1">  1        1 0.27862262E+00 0.70223089E+03</pdfrwt>
<pdfrwt beam="2">  1       -1 0.87372678E-01 0.70223089E+03</pdfrwt>
<totfact> 0.54471418E+00</totfact>
</mgrwt>
</event>
<event>
 4    1  0.8114601E-008  0.6792478E+03  0.7818608E-02  0.1009752E+00
          1   -1    0    0  501    0  0.00000000000E+00  0.00000000000E+00  0.12636673310E+04  0.12636673310E+04  0.50400000000E-02 0. -1.
         -1   -1    0    0    0  501 -0.00000000000E+00 -0.00000000000E+00 -0.24668701205E+03  0.24668701210E+03  0.50400000000E-02 0.  1.
    8880023    1    1    2    0    0  0.53283453812E+02 -0.15725223009E+03  0.10801235610E+04  0.12759484721E+04  0.65864270000E+03 0. -1.
    8880022    1    1    2    0    0 -0.53283453812E+02  0.15725223009E+03 -0.63143242027E+02  0.23440587097E+03  0.15294330000E+03 0.  0.
<mgrwt>
<rscale>  0 0.51573172E+03</rscale>
<asrwt>0</asrwt>
<pdfrwt beam="1">  1        1 0.19441036E+00 0.67924782E+03</pdfrwt>
<pdfrwt beam="2">  1       -1 0.37951848E-01 0.67924782E+03</pdfrwt>
<totfact> 0.66414748E+01</totfact>
</mgrwt>
</event>
<event>
 4    1  0.8114601E-008  0.1007814E+04  0.7818608E-02  0.9371405E-01
          1   -1    0    0  501    0  0.00000000000E+00  0.00000000000E+00  0.11666436946E+04  0.11666436946E+04  0.50400000000E-02 0. -1.
         -1   -1    0    0    0  501 -0.00000000000E+00 -0.00000000000E+00 -0.84449387942E+03  0.84449387943E+03  0.50400000000E-02 0.  1.
    8880023    1    1    2    0    0  0.37508394994E+03  0.66422181209E+03  0.61409825601E+03  0.11801717923E+04  0.65864270000E+03 0.  0.
    8880022    1    1    2    0    0 -0.37508394994E+03 -0.66422181209E+03 -0.29194844086E+03  0.83096578166E+03  0.15294330000E+03 0.  0.
<mgrwt>
<rscale>  0 0.94466737E+03</rscale>
<asrwt>0</asrwt>
<pdfrwt beam="1">  1        1 0.17948364E+00 0.10078139E+04</pdfrwt>
<pdfrwt beam="2">  1       -1 0.12992214E+00 0.10078139E+04</pdfrwt>
<totfact> 0.57556562E+00</totfact>
</mgrwt>
</event>
<event>
 4    1  0.8114601E-008  0.6734942E+03  0.7818608E-02  0.1013273E+00
          1   -1    0    0  501    0  0.00000000000E+00  0.00000000000E+00  0.10495714183E+04  0.10495714183E+04  0.50400000000E-02 0. -1.
         -1   -1    0    0    0  501 -0.00000000000E+00 -0.00000000000E+00 -0.75467383870E+03  0.75467383872E+03  0.50400000000E-02 0.  1.
    8880023    1    1    2    0    0 -0.12942233763E+03  0.55082437475E+02  0.92303977773E+03  0.11426271719E+04  0.65864270000E+03 0. -1.
    8880022    1    1    2    0    0  0.12942233763E+03 -0.55082437475E+02 -0.62814219818E+03  0.66161808511E+03  0.15294330000E+03 0.  0.
<mgrwt>
<rscale>  0 0.50194430E+03</rscale>
<asrwt>0</asrwt>
<pdfrwt beam="1">  1        1 0.16147253E+00 0.67349419E+03</pdfrwt>
<pdfrwt beam="2">  1       -1 0.11610367E+00 0.67349419E+03</pdfrwt>
<totfact> 0.97091294E+00</totfact>
</mgrwt>
</event>
<event>
 4    1  0.8114601E-008  0.1200527E+04  0.7818608E-02  0.9156610E-01
         -1   -1    0    0    0  501 -0.00000000000E+00  0.00000000000E+00  0.12543197678E+04  0.12543197678E+04  0.50400000000E-02 0.  1.
          1   -1    0    0  501    0  0.00000000000E+00 -0.00000000000E+00 -0.15499291013E+04  0.15499291013E+04  0.50400000000E-02 0. -1.
    8880023    1    1    2    0    0 -0.87095657977E+03 -0.49888820046E+03 -0.10050072412E+04  0.15656642557E+04  0.65864270000E+03 0.  0.
    8880022    1    1    2    0    0  0.87095657977E+03  0.49888820046E+03  0.70939790767E+03  0.12385846135E+04  0.15294330000E+03 0.  0.
<mgrwt>
<rscale>  0 0.11512727E+04</rscale>
<asrwt>0</asrwt>
<pdfrwt beam="1">  1        1 0.23845063E+00 0.12005270E+04</pdfrwt>
<pdfrwt beam="2">  1       -1 0.19297227E+00 0.12005270E+04</pdfrwt>
<totfact> 0.99703012E-01</totfact>
</mgrwt>
</event>
<event>
 4    1  0.8114601E-008  0.9470856E+03  0.7818608E-02  0.9454320E-01
          1   -1    0    0  501    0  0.00000000000E+00  0.00000000000E+00  0.11191864907E+04  0.11191864907E+04  0.50400000000E-02 0. -1.
         -1   -1    0    0    0  501 -0.00000000000E+00 -0.00000000000E+00 -0.66643593496E+03  0.66643593498E+03  0.50400000000E-02 0.  1.
    8880023    1    1    2    0    0 -0.67152211776E+03  0.11053988280E+03 -0.12494587603E+02  0.94716806392E+03  0.65864270000E+03 0.  0.
    8880022    1    1    2    0    0  0.67152211776E+03 -0.11053988280E+03  0.46524514332E+03  0.83845436174E+03  0.15294330000E+03 0.  0.
<mgrwt>
<rscale>  0 0.87737080E+03</rscale>
<asrwt>0</asrwt>
<pdfrwt beam="1">  1        1 0.17218254E+00 0.94708565E+03</pdfrwt>
<pdfrwt beam="2">  1       -1 0.10252860E+00 0.94708565E+03</pdfrwt>
<totfact> 0.11131508E+01</totfact>
</mgrwt>
</event>
<event>
 4    1  0.8114601E-008  0.6708968E+03  0.7818608E-02  0.1015028E+00
          1   -1    0    0  501    0  0.00000000000E+00  0.00000000000E+00  0.11116023319E+04  0.11116023319E+04  0.50400000000E-02 0. -1.
         -1   -1    0    0    0  501 -0.00000000000E+00 -0.00000000000E+00 -0.19674377371E+03  0.19674377377E+03  0.50400000000E-02 0.  1.
    8880023    1    1    2    0    0 -0.88977657712E+02 -0.91516248873E+02  0.87925706802E+03  0.11059816659E+04  0.65864270000E+03 0. -1.
    8880022    1    1    2    0    0  0.88977657712E+02  0.91516248873E+02  0.35601490193E+02  0.20236443981E+03  0.15294330000E+03 0.  1.
<mgrwt>
<rscale>  0 0.49524325E+03</rscale>
<asrwt>0</asrwt>
<pdfrwt beam="1">  1        1 0.17101575E+00 0.67089675E+03</pdfrwt>
<pdfrwt beam="2">  1       -1 0.30268272E-01 0.67089675E+03</pdfrwt>
<totfact> 0.12785274E+02</totfact>
</mgrwt>
</event>
<event>
 4    1  0.8114601E-008  0.9847427E+03  0.7818608E-02  0.9401797E-01
          1   -1    0    0  501    0  0.00000000000E+00  0.00000000000E+00  0.30039082442E+04  0.30039082442E+04  0.50400000000E-02 0. -1.
         -1   -1    0    0    0  501 -0.00000000000E+00 -0.00000000000E+00 -0.93662345058E+03  0.93662345059E+03  0.50400000000E-02 0.  1.
    8880023    1    1    2    0    0  0.14904757582E+03 -0.71672366182E+03  0.27542769470E+04  0.29250230246E+04  0.65864270000E+03 0. -1.
    8880022    1    1    2    0    0 -0.14904757582E+03  0.71672366182E+03 -0.68699215343E+03  0.10155086702E+04  0.15294330000E+03 0.  0.
<mgrwt>
<rscale>  0 0.91927965E+03</rscale>
<asrwt>0</asrwt>
<pdfrwt beam="1">  1        1 0.46213972E+00 0.98474270E+03</pdfrwt>
<pdfrwt beam="2">  1       -1 0.14409592E+00 0.98474270E+03</pdfrwt>
<totfact> 0.23782938E-01</totfact>
</mgrwt>
</event>
<event>
 4    1  0.8114601E-008  0.1637581E+04  0.7818608E-02  0.8818138E-01
          1   -1    0    0  501    0  0.00000000000E+00  0.00000000000E+00  0.28559321197E+04  0.28559321197E+04  0.50400000000E-02 0. -1.
         -1   -1    0    0    0  501 -0.00000000000E+00 -0.00000000000E+00 -0.10035910367E+04  0.10035910367E+04  0.50400000000E-02 0.  1.
    8880023    1    1    2    0    0 -0.65006725533E+03 -0.13510268585E+04  0.16742631727E+04  0.23419710473E+04  0.65864270000E+03 0.  0.
    8880022    1    1    2    0    0  0.65006725533E+03  0.13510268585E+04  0.17807791031E+03  0.15175521091E+04  0.15294330000E+03 0.  0.
<mgrwt>
<rscale>  0 0.16039294E+04</rscale>
<asrwt>0</asrwt>
<pdfrwt beam="1">  1        1 0.43937416E+00 0.16375809E+04</pdfrwt>
<pdfrwt beam="2">  1       -1 0.15439862E+00 0.16375809E+04</pdfrwt>
<totfact> 0.22938345E-01</totfact>
</mgrwt>
</event>
<event>
 4    1  0.8114601E-008  0.9812442E+03  0.7818608E-02  0.9406518E-01
         -1   -1    0    0    0  501 -0.00000000000E+00  0.00000000000E+00  0.11526930680E+04  0.11526930680E+04  0.50400000000E-02 0.  1.
          1   -1    0    0  501    0  0.00000000000E+00 -0.00000000000E+00 -0.16081851437E+04  0.16081851437E+04  0.50400000000E-02 0. -1.
    8880023    1    1    2    0    0  0.53330212552E+03  0.49458955860E+03 -0.13045982431E+04  0.16324266509E+04  0.65864270000E+03 0. -1.
    8880022    1    1    2    0    0 -0.53330212552E+03 -0.49458955860E+03  0.84910616734E+03  0.11284515608E+04  0.15294330000E+03 0.  0.
<mgrwt>
<rscale>  0 0.91541213E+03</rscale>
<asrwt>0</asrwt>
<pdfrwt beam="1">  1        1 0.24741310E+00 0.98124421E+03</pdfrwt>
<pdfrwt beam="2">  1       -1 0.17733739E+00 0.98124421E+03</pdfrwt>
<totfact> 0.12102464E+00</totfact>
</mgrwt>
</event>
<event>
 4    1  0.1150119E-007  0.1130803E+04  0.7818608E-02  0.9227511E-01
          1   -1    0    0  501    0  0.00000000000E+00  0.00000000000E+00  0.23000632705E+04  0.23000632706E+04  0.50400000000E-02 0. -1.
         -1   -1    0    0    0  501 -0.00000000000E+00 -0.00000000000E+00 -0.14012294413E+04  0.14012294413E+04  0.50400000000E-02 0.  1.
    8880023    1    1    2    0    0  0.17507258335E+03 -0.90236095239E+03  0.19761997918E+04  0.22768578175E+04  0.65864270000E+03 0.  0.
    8880022    1    1    2    0    0 -0.17507258335E+03  0.90236095239E+03 -0.10773659625E+04  0.14244348943E+04  0.15294330000E+03 0.  0.
<mgrwt>
<rscale>  0 0.10773922E+04</rscale>
<asrwt>0</asrwt>
<pdfrwt beam="1">  1        1 0.35385589E+00 0.11308032E+04</pdfrwt>
<pdfrwt beam="2">  1       -1 0.21557376E+00 0.11308032E+04</pdfrwt>
<totfact> 0.21821439E-01</totfact>
</mgrwt>
</event>
<event>
 4    1  0.8114601E-008  0.7469181E+03  0.7818608E-02  0.9840235E-01
         -1   -1    0    0    0  501 -0.00000000000E+00  0.00000000000E+00  0.71981579195E+03  0.71981579197E+03  0.50400000000E-02 0.  1.
          1   -1    0    0  501    0  0.00000000000E+00 -0.00000000000E+00 -0.64993686458E+03  0.64993686460E+03  0.50400000000E-02 0. -1.
    8880023    1    1    2    0    0  0.28703513305E+03 -0.20417473106E+03 -0.32890765909E+03  0.81612924398E+03  0.65864270000E+03 0.  0.
    8880022    1    1    2    0    0 -0.28703513305E+03  0.20417473106E+03  0.39878658646E+03  0.55362341258E+03  0.15294330000E+03 0.  0.
<mgrwt>
<rscale>  0 0.63247305E+03</rscale>
<asrwt>0</asrwt>
<pdfrwt beam="1">  1        1 0.99990287E-01 0.74691813E+03</pdfrwt>
<pdfrwt beam="2">  1       -1 0.11074089E+00 0.74691813E+03</pdfrwt>
<totfact> 0.23479297E+01</totfact>
</mgrwt>
</event>
<event>
 4    1  0.8114601E-008  0.6590141E+03  0.7818608E-02  0.1025190E+00
          1   -1    0    0  501    0  0.00000000000E+00  0.00000000000E+00  0.18478403073E+04  0.18478403073E+04  0.50400000000E-02 0. -1.
         -1   -1    0    0    0  501 -0.00000000000E+00 -0.00000000000E+00 -0.15828773938E+03  0.15828773946E+03  0.50400000000E-02 0.  1.
    8880023    1    1    2    0    0 -0.11999542259E+02  0.18586293452E+02  0.17258458811E+04  0.18473883324E+04  0.65864270000E+03 0. -1.
    8880022    1    1    2    0    0  0.11999542259E+02 -0.18586293452E+02 -0.36293313134E+02  0.15873971435E+03  0.15294330000E+03 0.  0.
<mgrwt>
<rscale>  0 0.45859343E+03</rscale>
<asrwt>0</asrwt>
<pdfrwt beam="1">  1        1 0.28428311E+00 0.65901415E+03</pdfrwt>
<pdfrwt beam="2">  1       -1 0.24351961E-01 0.65901415E+03</pdfrwt>
<totfact> 0.57696879E+01</totfact>
</mgrwt>
</event>
<event>
 4    1  0.8114601E-008  0.9327252E+03  0.7818608E-02  0.9475417E-01
          1   -1    0    0  501    0  0.00000000000E+00  0.00000000000E+00  0.24411723107E+04  0.24411723107E+04  0.50400000000E-02 0. -1.
         -1   -1    0    0    0  501 -0.00000000000E+00 -0.00000000000E+00 -0.68468680311E+03  0.68468680313E+03  0.50400000000E-02 0.  1.
    8880023    1    1    2    0    0  0.60426506474E+03 -0.26651433849E+03  0.21488806376E+04  0.23425764368E+04  0.65864270000E+03 0. -1.
    8880022    1    1    2    0    0 -0.60426506474E+03  0.26651433849E+03 -0.39239513004E+03  0.78328267706E+03  0.15294330000E+03 0.  0.
<mgrwt>
<rscale>  0 0.86120752E+03</rscale>
<asrwt>0</asrwt>
<pdfrwt beam="1">  1        1 0.37556498E+00 0.93272524E+03</pdfrwt>
<pdfrwt beam="2">  1       -1 0.10533643E+00 0.93272524E+03</pdfrwt>
<totfact> 0.12936390E+00</totfact>
</mgrwt>
</event>
<event>
 4    1  0.8114601E-008  0.9317139E+03  0.7818608E-02  0.9476927E-01
          1   -1    0    0  501    0  0.00000000000E+00  0.00000000000E+00  0.15103848417E+04  0.15103848417E+04  0.50400000000E-02 0. -1.
         -1   -1    0    0    0  501 -0.00000000000E+00 -0.00000000000E+00 -0.66754777700E+03  0.66754777702E+03  0.50400000000E-02 0.  1.
    8880023    1    1    2    0    0 -0.24918178130E+03 -0.61007295649E+03  0.11112098054E+04  0.14501303425E+04  0.65864270000E+03 0.  0.
    8880022    1    1    2    0    0  0.24918178130E+03  0.61007295649E+03 -0.26837274067E+03  0.72780227625E+03  0.15294330000E+03 0.  0.
<mgrwt>
<rscale>  0 0.86006495E+03</rscale>
<asrwt>0</asrwt>
<pdfrwt beam="1">  1        1 0.23236690E+00 0.93171389E+03</pdfrwt>
<pdfrwt beam="2">  1       -1 0.10269966E+00 0.93171389E+03</pdfrwt>
<totfact> 0.58493758E+00</totfact>
</mgrwt>
</event>
<event>
 4    1  0.9420706E-008  0.1533207E+04  0.7818608E-02  0.8886536E-01
          1   -1    0    0  501    0  0.00000000000E+00  0.00000000000E+00  0.25164684514E+04  0.25164684514E+04  0.50400000000E-02 0. -1.
         -1   -1    0    0    0  501 -0.00000000000E+00 -0.00000000000E+00 -0.18004423601E+04  0.18004423602E+04  0.50400000000E-02 0.  1.
    8880023    1    1    2    0    0  0.31722870700E+03  0.13476942871E+04  0.19329992596E+04  0.24672272469E+04  0.65864270000E+03 0.  0.
    8880022    1    1    2    0    0 -0.31722870700E+03 -0.13476942871E+04 -0.12169731683E+04  0.18496835647E+04  0.15294330000E+03 0.  0.
<mgrwt>
<rscale>  0 0.14968711E+04</rscale>
<asrwt>0</asrwt>
<pdfrwt beam="1">  1        1 0.38714899E+00 0.15332071E+04</pdfrwt>
<pdfrwt beam="2">  1       -1 0.27699113E+00 0.15332071E+04</pdfrwt>
<totfact> 0.57675300E-02</totfact>
</mgrwt>
</event>
<event>
 4    1  0.8114601E-008  0.7389332E+03  0.7818608E-02  0.9863066E-01
          1   -1    0    0  501    0  0.00000000000E+00  0.00000000000E+00  0.30253740667E+04  0.30253740667E+04  0.50400000000E-02 0. -1.
         -1   -1    0    0    0  501 -0.00000000000E+00 -0.00000000000E+00 -0.38262265894E+03  0.38262265897E+03  0.50400000000E-02 0.  1.
    8880023    1    1    2    0    0 -0.79246618847E+02 -0.32547192932E+03  0.28777849758E+04  0.29711392725E+04  0.65864270000E+03 0. -1.
    8880022    1    1    2    0    0  0.79246618847E+02  0.32547192932E+03 -0.23503356796E+03  0.43685745325E+03  0.15294330000E+03 0.  0.
<mgrwt>
<rscale>  0 0.62085158E+03</rscale>
<asrwt>0</asrwt>
<pdfrwt beam="1">  1        1 0.46544216E+00 0.73893316E+03</pdfrwt>
<pdfrwt beam="2">  1       -1 0.58865025E-01 0.73893316E+03</pdfrwt>
<totfact> 0.18066032E+00</totfact>
</mgrwt>
</event>
<event>
 4    1  0.8114601E-008  0.9912277E+03  0.7818608E-02  0.9393126E-01
          1   -1    0    0  501    0  0.00000000000E+00  0.00000000000E+00  0.21968693788E+04  0.21968693788E+04  0.50400000000E-02 0. -1.
         -1   -1    0    0    0  501 -0.00000000000E+00 -0.00000000000E+00 -0.99519892127E+03  0.99519892128E+03  0.50400000000E-02 0.  1.
    8880023    1    1    2    0    0 -0.53667317196E+03 -0.51059180673E+03  0.19124894953E+04  0.21541003603E+04  0.65864270000E+03 0. -1.
    8880022    1    1    2    0    0  0.53667317196E+03  0.51059180673E+03 -0.71081903772E+03  0.10379679398E+04  0.15294330000E+03 0.  0.
<mgrwt>
<rscale>  0 0.92643587E+03</rscale>
<asrwt>0</asrwt>
<pdfrwt beam="1">  1        1 0.33797990E+00 0.99122767E+03</pdfrwt>
<pdfrwt beam="2">  1       -1 0.15310753E+00 0.99122767E+03</pdfrwt>
<totfact> 0.73357935E-01</totfact>
</mgrwt>
</event>
<event>
 4    1  0.8114601E-008  0.7937649E+03  0.7818608E-02  0.9724443E-01
         -1   -1    0    0    0  501 -0.00000000000E+00  0.00000000000E+00  0.27423178645E+03  0.27423178650E+03  0.50400000000E-02 0.  1.
          1   -1    0    0  501    0  0.00000000000E+00 -0.00000000000E+00 -0.18725721179E+04  0.18725721179E+04  0.50400000000E-02 0. -1.
    8880023    1    1    2    0    0  0.43280440070E+03  0.94514183155E+02 -0.14537627817E+04  0.16563480950E+04  0.65864270000E+03 0. -1.
    8880022    1    1    2    0    0 -0.43280440070E+03 -0.94514183155E+02 -0.14457754976E+03  0.49045580942E+03  0.15294330000E+03 0.  1.
<mgrwt>
<rscale>  0 0.69579918E+03</rscale>
<asrwt>0</asrwt>
<pdfrwt beam="1">  1        1 0.28808801E+00 0.79376494E+03</pdfrwt>
<pdfrwt beam="2">  1       -1 0.42189507E-01 0.79376494E+03</pdfrwt>
<totfact> 0.20740800E+01</totfact>
</mgrwt>
</event>
<event>
 4    1  0.8114601E-008  0.8823777E+03  0.7818608E-02  0.9554935E-01
         -1   -1    0    0    0  501 -0.00000000000E+00  0.00000000000E+00  0.12551586943E+04  0.12551586944E+04  0.50400000000E-02 0.  1.
          1   -1    0    0  501    0  0.00000000000E+00 -0.00000000000E+00 -0.80103841419E+03  0.80103841421E+03  0.50400000000E-02 0. -1.
    8880023    1    1    2    0    0 -0.57815822235E+03 -0.10253412708E+03 -0.43183245154E+03  0.98237958537E+03  0.65864270000E+03 0. -1.
    8880022    1    1    2    0    0  0.57815822235E+03  0.10253412708E+03  0.88595273169E+03  0.10738175232E+04  0.15294330000E+03 0.  0.
<mgrwt>
<rscale>  0 0.80352096E+03</rscale>
<asrwt>0</asrwt>
<pdfrwt beam="1">  1        1 0.12323668E+00 0.88237769E+03</pdfrwt>
<pdfrwt beam="2">  1       -1 0.19310134E+00 0.88237769E+03</pdfrwt>
<totfact> 0.37764359E+00</totfact>
</mgrwt>
</event>
<event>
 4    1  0.8114601E-008  0.6984774E+03  0.7818608E-02  0.1000358E+00
          1   -1    0    0  501    0  0.00000000000E+00  0.00000000000E+00  0.10067968605E+04  0.10067968605E+04  0.50400000000E-02 0. -1.
         -1   -1    0    0    0  501 -0.00000000000E+00 -0.00000000000E+00 -0.80815978743E+03  0.80815978744E+03  0.50400000000E-02 0.  1.
    8880023    1    1    2    0    0  0.20677165002E+03 -0.10632955828E+03  0.85381627661E+03  0.11031196357E+04  0.65864270000E+03 0. -1.
    8880022    1    1    2    0    0 -0.20677165002E+03  0.10632955828E+03 -0.65517920355E+03  0.71183701224E+03  0.15294330000E+03 0.  0.
<mgrwt>
<rscale>  0 0.55493671E+03</rscale>
<asrwt>0</asrwt>
<pdfrwt beam="1">  1        1 0.15489182E+00 0.69847741E+03</pdfrwt>
<pdfrwt beam="2">  1       -1 0.12433228E+00 0.69847741E+03</pdfrwt>
<totfact> 0.88262542E+00</totfact>
</mgrwt>
</event>
<event>
 4    1  0.8114601E-008  0.7721873E+03  0.7818608E-02  0.9774520E-01
         -1   -1    0    0    0  501 -0.00000000000E+00  0.00000000000E+00  0.97571218489E+03  0.97571218490E+03  0.50400000000E-02 0.  1.
          1   -1    0    0  501    0  0.00000000000E+00 -0.00000000000E+00 -0.10999673447E+04  0.10999673447E+04  0.50400000000E-02 0. -1.
    8880023    1    1    2    0    0 -0.35303671345E+03  0.19449442477E+03 -0.90142503304E+03  0.11869457859E+04  0.65864270000E+03 0. -1.
    8880022    1    1    2    0    0  0.35303671345E+03 -0.19449442477E+03  0.77716987321E+03  0.88873374368E+03  0.15294330000E+03 0.  0.
<mgrwt>
<rscale>  0 0.66748063E+03</rscale>
<asrwt>0</asrwt>
<pdfrwt beam="1">  1        1 0.16922574E+00 0.77218729E+03</pdfrwt>
<pdfrwt beam="2">  1       -1 0.15010957E+00 0.77218729E+03</pdfrwt>
<totfact> 0.45665293E+00</totfact>
</mgrwt>
</event>
<event>
 4    1  0.8114601E-008  0.7717298E+03  0.7818608E-02  0.9775635E-01
          1   -1    0    0  501    0  0.00000000000E+00  0.00000000000E+00  0.11002243333E+04  0.11002243333E+04  0.50400000000E-02 0. -1.
         -1   -1    0    0    0  501 -0.00000000000E+00 -0.00000000000E+00 -0.50920214749E+03  0.50920214752E+03  0.50400000000E-02 0.  1.
    8880023    1    1    2    0    0 -0.18310884867E+03  0.35808905107E+03  0.81662245862E+03  0.11235831367E+04  0.65864270000E+03 0.  0.
    8880022    1    1    2    0    0  0.18310884867E+03 -0.35808905107E+03 -0.22560027278E+03  0.48584334414E+03  0.15294330000E+03 0.  1.
<mgrwt>
<rscale>  0 0.66686649E+03</rscale>
<asrwt>0</asrwt>
<pdfrwt beam="1">  1        1 0.16926528E+00 0.77172976E+03</pdfrwt>
<pdfrwt beam="2">  1       -1 0.78338792E-01 0.77172976E+03</pdfrwt>
<totfact> 0.21232440E+01</totfact>
</mgrwt>
</event>
<event>
 4    1  0.8114601E-008  0.7627608E+03  0.7818608E-02  0.9798012E-01
          1   -1    0    0  501    0  0.00000000000E+00  0.00000000000E+00  0.95658838442E+03  0.95658838444E+03  0.50400000000E-02 0. -1.
         -1   -1    0    0    0  501 -0.00000000000E+00 -0.00000000000E+00 -0.36466053896E+03  0.36466053899E+03  0.50400000000E-02 0.  1.
    8880023    1    1    2    0    0  0.23890764092E+03 -0.30152430688E+03  0.43799063315E+03  0.87956794480E+03  0.65864270000E+03 0. -1.
    8880022    1    1    2    0    0 -0.23890764092E+03  0.30152430688E+03  0.15393721232E+03  0.44168097863E+03  0.15294330000E+03 0.  1.
<mgrwt>
<rscale>  0 0.65469344E+03</rscale>
<asrwt>0</asrwt>
<pdfrwt beam="1">  1        1 0.14716744E+00 0.76276076E+03</pdfrwt>
<pdfrwt beam="2">  1       -1 0.56101622E-01 0.76276076E+03</pdfrwt>
<totfact> 0.53801147E+01</totfact>
</mgrwt>
</event>
<event>
 4    1  0.8114601E-008  0.6827250E+03  0.7818608E-02  0.1007822E+00
         -1   -1    0    0    0  501 -0.00000000000E+00  0.00000000000E+00  0.61631900913E+03  0.61631900915E+03  0.50400000000E-02 0.  1.
          1   -1    0    0  501    0  0.00000000000E+00 -0.00000000000E+00 -0.43730541582E+03  0.43730541585E+03  0.50400000000E-02 0. -1.
    8880023    1    1    2    0    0 -0.10545285597E+03  0.14554332767E+03 -0.97989554902E+02  0.68972119309E+03  0.65864270000E+03 0. -1.
    8880022    1    1    2    0    0  0.10545285597E+03 -0.14554332767E+03  0.27700314821E+03  0.36390323191E+03  0.15294330000E+03 0.  1.
<mgrwt>
<rscale>  0 0.52349337E+03</rscale>
<asrwt>0</asrwt>
<pdfrwt beam="1">  1        1 0.67277757E-01 0.68272496E+03</pdfrwt>
<pdfrwt beam="2">  1       -1 0.94818308E-01 0.68272496E+03</pdfrwt>
<totfact> 0.58721108E+01</totfact>
</mgrwt>
</event>
<event>
 4    1  0.8114601E-008  0.1124784E+04  0.7818608E-02  0.9233951E-01
         -1   -1    0    0    0  501 -0.00000000000E+00  0.00000000000E+00  0.97379213480E+03  0.97379213481E+03  0.50400000000E-02 0.  1.
          1   -1    0    0  501    0  0.00000000000E+00 -0.00000000000E+00 -0.24366638442E+04  0.24366638442E+04  0.50400000000E-02 0. -1.
    8880023    1    1    2    0    0 -0.80680387820E+03 -0.42473067579E+03 -0.20336261574E+04  0.23239565829E+04  0.65864270000E+03 0.  0.
    8880022    1    1    2    0    0  0.80680387820E+03  0.42473067579E+03  0.57075444800E+03  0.10864993961E+04  0.15294330000E+03 0.  0.
<mgrwt>
<rscale>  0 0.10709762E+04</rscale>
<asrwt>0</asrwt>
<pdfrwt beam="1">  1        1 0.37487136E+00 0.11247839E+04</pdfrwt>
<pdfrwt beam="2">  1       -1 0.14981418E+00 0.11247839E+04</pdfrwt>
<totfact> 0.52320187E-01</totfact>
</mgrwt>
</event>
<event>
 4    1  0.8114601E-008  0.6836382E+03  0.7818608E-02  0.1007336E+00
          1   -1    0    0  501    0  0.00000000000E+00  0.00000000000E+00  0.39406965316E+03  0.39406965320E+03  0.50400000000E-02 0. -1.
         -1   -1    0    0    0  501 -0.00000000000E+00 -0.00000000000E+00 -0.96126956646E+03  0.96126956647E+03  0.50400000000E-02 0.  1.
    8880023    1    1    2    0    0 -0.93529447190E+02  0.15749055780E+03  0.58052278596E+02  0.68609861288E+03  0.65864270000E+03 0. -1.
    8880022    1    1    2    0    0  0.93529447190E+02 -0.15749055780E+03 -0.62525219189E+03  0.66924060678E+03  0.15294330000E+03 0.  0.
<mgrwt>
<rscale>  0 0.52547191E+03</rscale>
<asrwt>0</asrwt>
<pdfrwt beam="1">  1        1 0.60626101E-01 0.68363824E+03</pdfrwt>
<pdfrwt beam="2">  1       -1 0.14788762E+00 0.68363824E+03</pdfrwt>
<totfact> 0.22899689E+01</totfact>
</mgrwt>
</event>
<event>
 4    1  0.8114601E-008  0.1034796E+04  0.7818608E-02  0.9337386E-01
          1   -1    0    0  501    0  0.00000000000E+00  0.00000000000E+00  0.16757865894E+04  0.16757865894E+04  0.50400000000E-02 0. -1.
         -1   -1    0    0    0  501 -0.00000000000E+00 -0.00000000000E+00 -0.16599525896E+04  0.16599525896E+04  0.50400000000E-02 0.  1.
    8880023    1    1    2    0    0 -0.31071369262E+03  0.73515313554E+03  0.13938352630E+04  0.17359666120E+04  0.65864270000E+03 0. -1.
    8880022    1    1    2    0    0  0.31071369262E+03 -0.73515313554E+03 -0.13780012632E+04  0.15997725669E+04  0.15294330000E+03 0.  0.
<mgrwt>
<rscale>  0 0.97412744E+03</rscale>
<asrwt>0</asrwt>
<pdfrwt beam="1">  1        1 0.25781332E+00 0.10347963E+04</pdfrwt>
<pdfrwt beam="2">  1       -1 0.25537732E+00 0.10347963E+04</pdfrwt>
<totfact> 0.32071241E-01</totfact>
</mgrwt>
</event>
<event>
 4    1  0.8114601E-008  0.7939105E+03  0.7818608E-02  0.9724121E-01
         -1   -1    0    0    0  501 -0.00000000000E+00  0.00000000000E+00  0.44211539678E+03  0.44211539681E+03  0.50400000000E-02 0.  1.
          1   -1    0    0  501    0  0.00000000000E+00 -0.00000000000E+00 -0.11358012701E+04  0.11358012701E+04  0.50400000000E-02 0. -1.
    8880023    1    1    2    0    0  0.41330702543E+03 -0.16019056773E+03 -0.76631258786E+03  0.11034169220E+04  0.65864270000E+03 0.  0.
    8880022    1    1    2    0    0 -0.41330702543E+03  0.16019056773E+03  0.72626714508E+02  0.47449974492E+03  0.15294330000E+03 0.  0.
<mgrwt>
<rscale>  0 0.69598638E+03</rscale>
<asrwt>0</asrwt>
<pdfrwt beam="1">  1        1 0.17473866E+00 0.79391052E+03</pdfrwt>
<pdfrwt beam="2">  1       -1 0.68017754E-01 0.79391052E+03</pdfrwt>
<totfact> 0.26703149E+01</totfact>
</mgrwt>
</event>
<event>
 4    1  0.8114601E-008  0.9884575E+03  0.7818608E-02  0.9396817E-01
          1   -1    0    0  501    0  0.00000000000E+00  0.00000000000E+00  0.11916552390E+04  0.11916552390E+04  0.50400000000E-02 0. -1.
         -1   -1    0    0    0  501 -0.00000000000E+00 -0.00000000000E+00 -0.18248594614E+04  0.18248594614E+04  0.50400000000E-02 0.  1.
    8880023    1    1    2    0    0  0.63617601777E+03 -0.37218006605E+03  0.88192090929E+03  0.13247009563E+04  0.65864270000E+03 0. -1.
    8880022    1    1    2    0    0 -0.63617601777E+03  0.37218006605E+03 -0.15151251316E+04  0.16918137441E+04  0.15294330000E+03 0.  0.
<mgrwt>
<rscale>  0 0.92338091E+03</rscale>
<asrwt>0</asrwt>
<pdfrwt beam="1">  1        1 0.18333158E+00 0.98845745E+03</pdfrwt>
<pdfrwt beam="2">  1       -1 0.28074761E+00 0.98845745E+03</pdfrwt>
<totfact> 0.48385304E-01</totfact>
</mgrwt>
</event>
<event>
 4    1  0.8114601E-008  0.1093265E+04  0.7818608E-02  0.9268592E-01
         -1   -1    0    0    0  501 -0.00000000000E+00  0.00000000000E+00  0.21626960247E+04  0.21626960248E+04  0.50400000000E-02 0.  1.
          1   -1    0    0  501    0  0.00000000000E+00 -0.00000000000E+00 -0.83505178063E+03  0.83505178065E+03  0.50400000000E-02 0. -1.
    8880023    1    1    2    0    0 -0.13494941671E+03 -0.86209406432E+03 -0.30954643358E+03  0.11362423692E+04  0.65864270000E+03 0.  1.
    8880022    1    1    2    0    0  0.13494941671E+03  0.86209406432E+03  0.16371906777E+04  0.18615054362E+04  0.15294330000E+03 0.  0.
<mgrwt>
<rscale>  0 0.10372645E+04</rscale>
<asrwt>0</asrwt>
<pdfrwt beam="1">  1        1 0.12846950E+00 0.10932647E+04</pdfrwt>
<pdfrwt beam="2">  1       -1 0.33272247E+00 0.10932647E+04</pdfrwt>
<totfact> 0.41819989E-01</totfact>
</mgrwt>
</event>
<event>
 4    1  0.8114601E-008  0.7305917E+03  0.7818608E-02  0.9888252E-01
         -1   -1    0    0    0  501 -0.00000000000E+00  0.00000000000E+00  0.25018620053E+03  0.25018620058E+03  0.50400000000E-02 0.  1.
          1   -1    0    0  501    0  0.00000000000E+00 -0.00000000000E+00 -0.14661953681E+04  0.14661953681E+04  0.50400000000E-02 0. -1.
    8880023    1    1    2    0    0 -0.21956843447E+03 -0.22747240466E+03 -0.11447498075E+04  0.13580192636E+04  0.65864270000E+03 0. -1.
    8880022    1    1    2    0    0  0.21956843447E+03  0.22747240466E+03 -0.71259360076E+02  0.35836230509E+03  0.15294330000E+03 0.  0.
<mgrwt>
<rscale>  0 0.60834020E+03</rscale>
<asrwt>0</asrwt>
<pdfrwt beam="1">  1        1 0.22556851E+00 0.73059168E+03</pdfrwt>
<pdfrwt beam="2">  1       -1 0.38490185E-01 0.73059168E+03</pdfrwt>
<totfact> 0.46499293E+01</totfact>
</mgrwt>
</event>
<event>
 4    1  0.8114601E-008  0.8121801E+03  0.7818608E-02  0.9685054E-01
         -1   -1    0    0    0  501 -0.00000000000E+00  0.00000000000E+00  0.55090775154E+03  0.55090775156E+03  0.50400000000E-02 0.  1.
          1   -1    0    0  501    0  0.00000000000E+00 -0.00000000000E+00 -0.10922344955E+04  0.10922344955E+04  0.50400000000E-02 0. -1.
    8880023    1    1    2    0    0  0.43758065056E+03  0.18533594059E+03 -0.74676095125E+03  0.11033079177E+04  0.65864270000E+03 0. -1.
    8880022    1    1    2    0    0 -0.43758065056E+03 -0.18533594059E+03  0.20543420732E+03  0.53983432937E+03  0.15294330000E+03 0.  1.
<mgrwt>
<rscale>  0 0.71913701E+03</rscale>
<asrwt>0</asrwt>
<pdfrwt beam="1">  1        1 0.16803608E+00 0.81218006E+03</pdfrwt>
<pdfrwt beam="2">  1       -1 0.84755038E-01 0.81218006E+03</pdfrwt>
<totfact> 0.18108954E+01</totfact>
</mgrwt>
</event>
<event>
 4    1  0.8114601E-008  0.9125540E+03  0.7818608E-02  0.9506172E-01
          1   -1    0    0  501    0  0.00000000000E+00  0.00000000000E+00  0.13710608721E+04  0.13710608721E+04  0.50400000000E-02 0. -1.
         -1   -1    0    0    0  501 -0.00000000000E+00 -0.00000000000E+00 -0.88875019305E+03  0.88875019307E+03  0.50400000000E-02 0.  1.
    8880023    1    1    2    0    0  0.61908428378E+03  0.12521699969E+03  0.10540790159E+04  0.13942157027E+04  0.65864270000E+03 0. -1.
    8880022    1    1    2    0    0 -0.61908428378E+03 -0.12521699969E+03 -0.57176833692E+03  0.86559536249E+03  0.15294330000E+03 0.  0.
<mgrwt>
<rscale>  0 0.83830343E+03</rscale>
<asrwt>0</asrwt>
<pdfrwt beam="1">  1        1 0.21093244E+00 0.91255403E+03</pdfrwt>
<pdfrwt beam="2">  1       -1 0.13673080E+00 0.91255403E+03</pdfrwt>
<totfact> 0.36472233E+00</totfact>
</mgrwt>
</event>
<event>
 4    1  0.8114601E-008  0.8893705E+03  0.7818608E-02  0.9543315E-01
          1   -1    0    0  501    0  0.00000000000E+00  0.00000000000E+00  0.13852936316E+04  0.13852936316E+04  0.50400000000E-02 0. -1.
         -1   -1    0    0    0  501 -0.00000000000E+00 -0.00000000000E+00 -0.76264647301E+03  0.76264647303E+03  0.50400000000E-02 0.  1.
    8880023    1    1    2    0    0  0.49242394380E+03 -0.33865655835E+03  0.10659768988E+04  0.13882674670E+04  0.65864270000E+03 0.  0.
    8880022    1    1    2    0    0 -0.49242394380E+03  0.33865655835E+03 -0.44332974014E+03  0.75967263768E+03  0.15294330000E+03 0.  0.
<mgrwt>
<rscale>  0 0.81164309E+03</rscale>
<asrwt>0</asrwt>
<pdfrwt beam="1">  1        1 0.21312209E+00 0.88937046E+03</pdfrwt>
<pdfrwt beam="2">  1       -1 0.11733023E+00 0.88937046E+03</pdfrwt>
<totfact> 0.52422618E+00</totfact>
</mgrwt>
</event>
<event>
 4    1  0.8114601E-008  0.9257632E+03  0.7818608E-02  0.9485878E-01
          1   -1    0    0  501    0  0.00000000000E+00  0.00000000000E+00  0.82825204894E+03  0.82825204895E+03  0.50400000000E-02 0. -1.
         -1   -1    0    0    0  501 -0.00000000000E+00 -0.00000000000E+00 -0.11097992185E+04  0.11097992185E+04  0.50400000000E-02 0.  1.
    8880023    1    1    2    0    0 -0.64975461104E+03 -0.32346150065E+02  0.37720687662E+03  0.99966122363E+03  0.65864270000E+03 0. -1.
    8880022    1    1    2    0    0  0.64975461104E+03  0.32346150065E+02 -0.65875404618E+03  0.93839004383E+03  0.15294330000E+03 0.  0.
<mgrwt>
<rscale>  0 0.85333015E+03</rscale>
<asrwt>0</asrwt>
<pdfrwt beam="1">  1        1 0.12742339E+00 0.92576322E+03</pdfrwt>
<pdfrwt beam="2">  1       -1 0.17073834E+00 0.92576322E+03</pdfrwt>
<totfact> 0.51367542E+00</totfact>
</mgrwt>
</event>
<event>
 4    1  0.1100114E-007  0.1348102E+04  0.7818608E-02  0.9025096E-01
          1   -1    0    0  501    0  0.00000000000E+00  0.00000000000E+00  0.26388716787E+04  0.26388716787E+04  0.50400000000E-02 0. -1.
         -1   -1    0    0    0  501 -0.00000000000E+00 -0.00000000000E+00 -0.31219902857E+04  0.31219902857E+04  0.50400000000E-02 0.  1.
    8880023    1    1    2    0    0 -0.35885791147E+03 -0.11201734814E+04  0.23389536007E+04  0.26996447510E+04  0.65864270000E+03 0.  0.
    8880022    1    1    2    0    0  0.35885791147E+03  0.11201734814E+04 -0.28220722077E+04  0.30612172134E+04  0.15294330000E+03 0.  0.
<mgrwt>
<rscale>  0 0.13056511E+04</rscale>
<asrwt>0</asrwt>
<pdfrwt beam="1">  1        1 0.40598026E+00 0.13481016E+04</pdfrwt>
<pdfrwt beam="2">  1       -1 0.48030620E+00 0.13481016E+04</pdfrwt>
<totfact> 0.21030486E-03</totfact>
</mgrwt>
</event>
<event>
 4    1  0.8114601E-008  0.1041830E+04  0.7818608E-02  0.9328768E-01
         -1   -1    0    0    0  501 -0.00000000000E+00  0.00000000000E+00  0.53178937723E+03  0.53178937726E+03  0.50400000000E-02 0.  1.
          1   -1    0    0  501    0  0.00000000000E+00 -0.00000000000E+00 -0.23875411932E+04  0.23875411932E+04  0.50400000000E-02 0. -1.
    8880023    1    1    2    0    0  0.78462788855E+03  0.18962512189E+03 -0.18586485026E+03  0.10582790554E+04  0.65864270000E+03 0.  1.
    8880022    1    1    2    0    0 -0.78462788855E+03 -0.18962512189E+03 -0.16698869657E+04  0.18610515150E+04  0.15294330000E+03 0.  0.
<mgrwt>
<rscale>  0 0.98176985E+03</rscale>
<asrwt>0</asrwt>
<pdfrwt beam="1">  1        1 0.36731402E+00 0.10418296E+04</pdfrwt>
<pdfrwt beam="2">  1       -1 0.81813752E-01 0.10418296E+04</pdfrwt>
<totfact> 0.24356320E+00</totfact>
</mgrwt>
</event>
<event>
 4    1  0.8114601E-008  0.1572738E+04  0.7818608E-02  0.8859910E-01
         -1   -1    0    0    0  501 -0.00000000000E+00  0.00000000000E+00  0.97786479860E+03  0.97786479861E+03  0.50400000000E-02 0.  1.
          1   -1    0    0  501    0  0.00000000000E+00 -0.00000000000E+00 -0.36730362719E+04  0.36730362720E+04  0.50400000000E-02 0. -1.
    8880023    1    1    2    0    0  0.11830443524E+04  0.80006349081E+03 -0.27992280553E+04  0.32107917156E+04  0.65864270000E+03 0.  0.
    8880022    1    1    2    0    0 -0.11830443524E+04 -0.80006349081E+03  0.10405658195E+03  0.14401093550E+04  0.15294330000E+03 0.  0.
<mgrwt>
<rscale>  0 0.15374714E+04</rscale>
<asrwt>0</asrwt>
<pdfrwt beam="1">  1        1 0.56508250E+00 0.15727383E+04</pdfrwt>
<pdfrwt beam="2">  1       -1 0.15044074E+00 0.15727383E+04</pdfrwt>
<totfact> 0.59602459E-02</totfact>
</mgrwt>
</event>
<event>
 4    1  0.8114601E-008  0.9156968E+03  0.7818608E-02  0.9501289E-01
         -1   -1    0    0    0  501 -0.00000000000E+00  0.00000000000E+00  0.45930598260E+03  0.45930598263E+03  0.50400000000E-02 0.  1.
          1   -1    0    0  501    0  0.00000000000E+00 -0.00000000000E+00 -0.16234296958E+04  0.16234296958E+04  0.50400000000E-02 0. -1.
    8880023    1    1    2    0    0 -0.54937023933E+03  0.32075339020E+03 -0.10910447154E+04  0.14243872979E+04  0.65864270000E+03 0. -1.
    8880022    1    1    2    0    0  0.54937023933E+03 -0.32075339020E+03 -0.73078997783E+02  0.65834838051E+03  0.15294330000E+03 0.  0.
<mgrwt>
<rscale>  0 0.84188863E+03</rscale>
<asrwt>0</asrwt>
<pdfrwt beam="1">  1        1 0.24975841E+00 0.91569679E+03</pdfrwt>
<pdfrwt beam="2">  1       -1 0.70662460E-01 0.91569679E+03</pdfrwt>
<totfact> 0.11064261E+01</totfact>
</mgrwt>
</event>
<event>
 4    1  0.8114601E-008  0.7351056E+03  0.7818608E-02  0.9874441E-01
          1   -1    0    0  501    0  0.00000000000E+00  0.00000000000E+00  0.14435687795E+04  0.14435687795E+04  0.50400000000E-02 0. -1.
         -1   -1    0    0    0  501 -0.00000000000E+00 -0.00000000000E+00 -0.31542148743E+03  0.31542148747E+03  0.50400000000E-02 0.  1.
    8880023    1    1    2    0    0  0.31827911830E+03  0.72583585770E+02  0.11845441513E+04  0.13941036643E+04  0.65864270000E+03 0.  0.
    8880022    1    1    2    0    0 -0.31827911830E+03 -0.72583585770E+02 -0.56396859270E+02  0.36488660268E+03  0.15294330000E+03 0.  0.
<mgrwt>
<rscale>  0 0.61516154E+03</rscale>
<asrwt>0</asrwt>
<pdfrwt beam="1">  1        1 0.22208751E+00 0.73510556E+03</pdfrwt>
<pdfrwt beam="2">  1       -1 0.48526383E-01 0.73510556E+03</pdfrwt>
<totfact> 0.31425377E+01</totfact>
</mgrwt>
</event>
<event>
 4    1  0.8114601E-008  0.1028293E+04  0.7818608E-02  0.9345443E-01
          1   -1    0    0  501    0  0.00000000000E+00  0.00000000000E+00  0.49787696842E+03  0.49787696844E+03  0.50400000000E-02 0. -1.
         -1   -1    0    0    0  501 -0.00000000000E+00 -0.00000000000E+00 -0.18962592910E+04  0.18962592911E+04  0.50400000000E-02 0.  1.
    8880023    1    1    2    0    0 -0.77037800657E+03 -0.17347836170E+03 -0.37963952976E+03  0.10961356640E+04  0.65864270000E+03 0.  0.
    8880022    1    1    2    0    0  0.77037800657E+03  0.17347836170E+03 -0.10187427929E+04  0.12980005955E+04  0.15294330000E+03 0.  0.
<mgrwt>
<rscale>  0 0.96704833E+03</rscale>
<asrwt>0</asrwt>
<pdfrwt beam="1">  1        1 0.76596458E-01 0.10282934E+04</pdfrwt>
<pdfrwt beam="2">  1       -1 0.29173219E+00 0.10282934E+04</pdfrwt>
<totfact> 0.16819298E+00</totfact>
</mgrwt>
</event>
<event>
 4    1  0.8114601E-008  0.8920777E+03  0.7818608E-02  0.9538871E-01
          1   -1    0    0  501    0  0.00000000000E+00  0.00000000000E+00  0.13728172395E+04  0.13728172395E+04  0.50400000000E-02 0. -1.
         -1   -1    0    0    0  501 -0.00000000000E+00 -0.00000000000E+00 -0.55979238219E+03  0.55979238222E+03  0.50400000000E-02 0.  1.
    8880023    1    1    2    0    0 -0.56481069436E+03 -0.20731923524E+03  0.94327982158E+03  0.12982986613E+04  0.65864270000E+03 0.  0.
    8880022    1    1    2    0    0  0.56481069436E+03  0.20731923524E+03 -0.13025496432E+03  0.63431096042E+03  0.15294330000E+03 0.  0.
<mgrwt>
<rscale>  0 0.81477693E+03</rscale>
<asrwt>0</asrwt>
<pdfrwt beam="1">  1        1 0.21120265E+00 0.89207768E+03</pdfrwt>
<pdfrwt beam="2">  1       -1 0.86121907E-01 0.89207768E+03</pdfrwt>
<totfact> 0.10865948E+01</totfact>
</mgrwt>
</event>
<event>
 4    1  0.8114601E-008  0.9435769E+03  0.7818608E-02  0.9459416E-01
          1   -1    0    0  501    0  0.00000000000E+00  0.00000000000E+00  0.25422647179E+04  0.25422647179E+04  0.50400000000E-02 0. -1.
         -1   -1    0    0    0  501 -0.00000000000E+00 -0.00000000000E+00 -0.28202889299E+03  0.28202889304E+03  0.50400000000E-02 0.  1.
    8880023    1    1    2    0    0  0.51071340409E+03  0.44237874386E+03  0.93203574705E+03  0.13262835195E+04  0.65864270000E+03 0.  0.
    8880022    1    1    2    0    0 -0.51071340409E+03 -0.44237874386E+03  0.13282000778E+04  0.14980100914E+04  0.15294330000E+03 0.  0.
<mgrwt>
<rscale>  0 0.87343168E+03</rscale>
<asrwt>0</asrwt>
<pdfrwt beam="1">  1        1 0.39111766E+00 0.94357689E+03</pdfrwt>
<pdfrwt beam="2">  1       -1 0.43389059E-01 0.94357689E+03</pdfrwt>
<totfact> 0.68111463E+00</totfact>
</mgrwt>
</event>
<event>
 4    1  0.8114601E-008  0.7405249E+03  0.7818608E-02  0.9858421E-01
          1   -1    0    0  501    0  0.00000000000E+00  0.00000000000E+00  0.13238754339E+04  0.13238754339E+04  0.50400000000E-02 0. -1.
         -1   -1    0    0    0  501 -0.00000000000E+00 -0.00000000000E+00 -0.56834649146E+03  0.56834649148E+03  0.50400000000E-02 0.  1.
    8880023    1    1    2    0    0  0.30805034143E+03  0.14025679044E+03  0.11388683843E+04  0.13584544097E+04  0.65864270000E+03 0. -1.
    8880022    1    1    2    0    0 -0.30805034143E+03 -0.14025679044E+03 -0.38333944188E+03  0.53376751572E+03  0.15294330000E+03 0.  0.
<mgrwt>
<rscale>  0 0.62319416E+03</rscale>
<asrwt>0</asrwt>
<pdfrwt beam="1">  1        1 0.20367314E+00 0.74052494E+03</pdfrwt>
<pdfrwt beam="2">  1       -1 0.87437923E-01 0.74052494E+03</pdfrwt>
<totfact> 0.11607000E+01</totfact>
</mgrwt>
</event>
<event>
 4    1  0.8114601E-008  0.8832588E+03  0.7818608E-02  0.9553459E-01
         -1   -1    0    0    0  501 -0.00000000000E+00  0.00000000000E+00  0.85012968556E+03  0.85012968558E+03  0.50400000000E-02 0.  1.
          1   -1    0    0  501    0  0.00000000000E+00 -0.00000000000E+00 -0.11638052256E+04  0.11638052256E+04  0.50400000000E-02 0. -1.
    8880023    1    1    2    0    0 -0.58847688548E+03  0.55503231839E+01  0.48694109650E+03  0.10085919336E+04  0.65864270000E+03 0.  1.
    8880022    1    1    2    0    0  0.58847688548E+03 -0.55503231839E+01 -0.80061663651E+03  0.10053429775E+04  0.15294330000E+03 0.  0.
<mgrwt>
<rscale>  0 0.80454657E+03</rscale>
<asrwt>0</asrwt>
<pdfrwt beam="1">  1        1 0.17904696E+00 0.88325877E+03</pdfrwt>
<pdfrwt beam="2">  1       -1 0.13078918E+00 0.88325877E+03</pdfrwt>
<totfact> 0.57735696E+00</totfact>
</mgrwt>
</event>
<event>
 4    1  0.8114601E-008  0.7745112E+03  0.7818608E-02  0.9768892E-01
          1   -1    0    0  501    0  0.00000000000E+00  0.00000000000E+00  0.14617695377E+04  0.14617695377E+04  0.50400000000E-02 0. -1.
         -1   -1    0    0    0  501 -0.00000000000E+00 -0.00000000000E+00 -0.53603513645E+03  0.53603513648E+03  0.50400000000E-02 0.  1.
    8880023    1    1    2    0    0 -0.40067470991E+03 -0.74277546482E+02  0.12392623271E+04  0.14613824615E+04  0.65864270000E+03 0.  0.
    8880022    1    1    2    0    0  0.40067470991E+03  0.74277546482E+02 -0.31352792580E+03  0.53642221276E+03  0.15294330000E+03 0.  1.
<mgrwt>
<rscale>  0 0.67059038E+03</rscale>
<asrwt>0</asrwt>
<pdfrwt beam="1">  1        1 0.22488762E+00 0.77451119E+03</pdfrwt>
<pdfrwt beam="2">  1       -1 0.82466946E-01 0.77451119E+03</pdfrwt>
<totfact> 0.10510804E+01</totfact>
</mgrwt>
</event>
<event>
 4    1  0.8114601E-008  0.1480390E+04  0.7818608E-02  0.8923609E-01
         -1   -1    0    0    0  501 -0.00000000000E+00  0.00000000000E+00  0.13116581849E+04  0.13116581849E+04  0.50400000000E-02 0.  1.
          1   -1    0    0  501    0  0.00000000000E+00 -0.00000000000E+00 -0.19446489707E+04  0.19446489707E+04  0.50400000000E-02 0. -1.
    8880023    1    1    2    0    0  0.68036660269E+03 -0.11379130526E+04 -0.10978760237E+04  0.18430645130E+04  0.65864270000E+03 0.  0.
    8880022    1    1    2    0    0 -0.68036660269E+03  0.11379130526E+04  0.46488523794E+03  0.14132426426E+04  0.15294330000E+03 0.  0.
<mgrwt>
<rscale>  0 0.14425115E+04</rscale>
<asrwt>0</asrwt>
<pdfrwt beam="1">  1        1 0.29917676E+00 0.14803902E+04</pdfrwt>
<pdfrwt beam="2">  1       -1 0.20179357E+00 0.14803902E+04</pdfrwt>
<totfact> 0.45037165E-01</totfact>
</mgrwt>
</event>
<event>
 4    1  0.8114601E-008  0.6812836E+03  0.7818608E-02  0.1008607E+00
         -1   -1    0    0    0  501 -0.00000000000E+00  0.00000000000E+00  0.51827403536E+03  0.51827403539E+03  0.50400000000E-02 0.  1.
          1   -1    0    0  501    0  0.00000000000E+00 -0.00000000000E+00 -0.17212724758E+04  0.17212724758E+04  0.50400000000E-02 0. -1.
    8880023    1    1    2    0    0  0.37929784197E+02 -0.16999538489E+03 -0.16227973074E+04  0.17600052292E+04  0.65864270000E+03 0. -1.
    8880022    1    1    2    0    0 -0.37929784197E+02  0.16999538489E+03  0.41979886700E+03  0.47954128202E+03  0.15294330000E+03 0.  0.
<mgrwt>
<rscale>  0 0.52032151E+03</rscale>
<asrwt>0</asrwt>
<pdfrwt beam="1">  1        1 0.26481115E+00 0.68128357E+03</pdfrwt>
<pdfrwt beam="2">  1       -1 0.79734468E-01 0.68128357E+03</pdfrwt>
<totfact> 0.76417150E+00</totfact>
</mgrwt>
</event>
<event>
 4    1  0.8114601E-008  0.7670902E+03  0.7818608E-02  0.9787086E-01
         -1   -1    0    0    0  501 -0.00000000000E+00  0.00000000000E+00  0.82438352712E+03  0.82438352714E+03  0.50400000000E-02 0.  1.
          1   -1    0    0  501    0  0.00000000000E+00 -0.00000000000E+00 -0.61315746749E+03  0.61315746751E+03  0.50400000000E-02 0. -1.
    8880023    1    1    2    0    0 -0.39320986533E+03 -0.17742617482E+01 -0.25536703723E+03  0.80847985514E+03  0.65864270000E+03 0. -1.
    8880022    1    1    2    0    0  0.39320986533E+03  0.17742617482E+01  0.46659309686E+03  0.62906113952E+03  0.15294330000E+03 0.  0.
<mgrwt>
<rscale>  0 0.66060218E+03</rscale>
<asrwt>0</asrwt>
<pdfrwt beam="1">  1        1 0.94331918E-01 0.76709019E+03</pdfrwt>
<pdfrwt beam="2">  1       -1 0.12682823E+00 0.76709019E+03</pdfrwt>
<totfact> 0.18357136E+01</totfact>
</mgrwt>
</event>
<event>
 4    1  0.8114601E-008  0.1128352E+04  0.7818608E-02  0.9230127E-01
         -1   -1    0    0    0  501 -0.00000000000E+00  0.00000000000E+00  0.13597600147E+04  0.13597600147E+04  0.50400000000E-02 0.  1.
          1   -1    0    0  501    0  0.00000000000E+00 -0.00000000000E+00 -0.19270173915E+04  0.19270173915E+04  0.50400000000E-02 0. -1.
    8880023    1    1    2    0    0 -0.35287026039E+03  0.84548864125E+03 -0.15612698028E+04  0.19263286497E+04  0.65864270000E+03 0.  0.
    8880022    1    1    2    0    0  0.35287026039E+03 -0.84548864125E+03  0.99401242600E+03  0.13604487566E+04  0.15294330000E+03 0.  0.
<mgrwt>
<rscale>  0 0.10747805E+04</rscale>
<asrwt>0</asrwt>
<pdfrwt beam="1">  1        1 0.29646422E+00 0.11283522E+04</pdfrwt>
<pdfrwt beam="2">  1       -1 0.20919385E+00 0.11283522E+04</pdfrwt>
<totfact> 0.43122162E-01</totfact>
</mgrwt>
</event>
<event>
 4    1  0.8114601E-008  0.7043452E+03  0.7818608E-02  0.9979631E-01
         -1   -1    0    0    0  501 -0.00000000000E+00  0.00000000000E+00  0.13281741332E+04  0.13281741332E+04  0.50400000000E-02 0.  1.
          1   -1    0    0  501    0  0.00000000000E+00 -0.00000000000E+00 -0.11306908695E+04  0.11306908695E+04  0.50400000000E-02 0. -1.
    8880023    1    1    2    0    0 -0.24715777794E+03  0.34713415299E+02 -0.10016608720E+04  0.12245107992E+04  0.65864270000E+03 0.  0.
    8880022    1    1    2    0    0  0.24715777794E+03 -0.34713415299E+02  0.11991441358E+04  0.12343542035E+04  0.15294330000E+03 0.  0.
<mgrwt>
<rscale>  0 0.56552449E+03</rscale>
<asrwt>0</asrwt>
<pdfrwt beam="1">  1        1 0.17395244E+00 0.70434522E+03</pdfrwt>
<pdfrwt beam="2">  1       -1 0.20433448E+00 0.70434522E+03</pdfrwt>
<totfact> 0.17823615E+00</totfact>
</mgrwt>
</event>
<event>
 4    1  0.8114601E-008  0.6660600E+03  0.7818608E-02  0.1018660E+00
         -1   -1    0    0    0  501 -0.00000000000E+00  0.00000000000E+00  0.50640123835E+03  0.50640123837E+03  0.50400000000E-02 0.  1.
          1   -1    0    0  501    0  0.00000000000E+00 -0.00000000000E+00 -0.14326296384E+04  0.14326296384E+04  0.50400000000E-02 0. -1.
    8880023    1    1    2    0    0 -0.93649441303E+02 -0.32489139227E+02 -0.13347439485E+04  0.14917028445E+04  0.65864270000E+03 0. -1.
    8880022    1    1    2    0    0  0.93649441303E+02  0.32489139227E+02  0.40851554850E+03  0.44732803221E+03  0.15294330000E+03 0.  0.
<mgrwt>
<rscale>  0 0.48173229E+03</rscale>
<asrwt>0</asrwt>
<pdfrwt beam="1">  1        1 0.22040456E+00 0.66606003E+03</pdfrwt>
<pdfrwt beam="2">  1       -1 0.77907883E-01 0.66606003E+03</pdfrwt>
<totfact> 0.12625274E+01</totfact>
</mgrwt>
</event>
<event>
 4    1  0.8114601E-008  0.7113017E+03  0.7818608E-02  0.9953199E-01
         -1   -1    0    0    0  501 -0.00000000000E+00  0.00000000000E+00  0.29915737224E+03  0.29915737229E+03  0.50400000000E-02 0.  1.
          1   -1    0    0  501    0  0.00000000000E+00 -0.00000000000E+00 -0.17679939946E+04  0.17679939946E+04  0.50400000000E-02 0. -1.
    8880023    1    1    2    0    0 -0.97650890596E+02  0.25020820838E+03 -0.15847403133E+04  0.17370526506E+04  0.65864270000E+03 0.  0.
    8880022    1    1    2    0    0  0.97650890596E+02 -0.25020820838E+03  0.11590369089E+03  0.33009871638E+03  0.15294330000E+03 0.  0.
<mgrwt>
<rscale>  0 0.57750891E+03</rscale>
<asrwt>0</asrwt>
<pdfrwt beam="1">  1        1 0.27199907E+00 0.71130166E+03</pdfrwt>
<pdfrwt beam="2">  1       -1 0.46024212E-01 0.71130166E+03</pdfrwt>
<totfact> 0.20980333E+01</totfact>
</mgrwt>
</event>
<event>
 4    1  0.8114601E-008  0.9427914E+03  0.7818608E-02  0.9460562E-01
          1   -1    0    0  501    0  0.00000000000E+00  0.00000000000E+00  0.18274189428E+04  0.18274189428E+04  0.50400000000E-02 0. -1.
         -1   -1    0    0    0  501 -0.00000000000E+00 -0.00000000000E+00 -0.39938099973E+03  0.39938099976E+03  0.50400000000E-02 0.  1.
    8880023    1    1    2    0    0 -0.25390417402E+03 -0.62496246921E+03  0.11352689537E+04  0.14757002477E+04  0.65864270000E+03 0.  0.
    8880022    1    1    2    0    0  0.25390417402E+03  0.62496246921E+03  0.29276898937E+03  0.75109969488E+03  0.15294330000E+03 0.  0.
<mgrwt>
<rscale>  0 0.87254897E+03</rscale>
<asrwt>0</asrwt>
<pdfrwt beam="1">  1        1 0.28114137E+00 0.94279140E+03</pdfrwt>
<pdfrwt beam="2">  1       -1 0.61443232E-01 0.94279140E+03</pdfrwt>
<totfact> 0.10652271E+01</totfact>
</mgrwt>
</event>
<event>
 4    1  0.8114601E-008  0.9025621E+03  0.7818608E-02  0.9521931E-01
         -1   -1    0    0    0  501 -0.00000000000E+00  0.00000000000E+00  0.10552007166E+04  0.10552007166E+04  0.50400000000E-02 0.  1.
          1   -1    0    0  501    0  0.00000000000E+00 -0.00000000000E+00 -0.11762031776E+04  0.11762031776E+04  0.50400000000E-02 0. -1.
    8880023    1    1    2    0    0  0.61518089463E+03 -0.48585954279E+02 -0.86680922803E+03  0.12513898562E+04  0.65864270000E+03 0. -1.
    8880022    1    1    2    0    0 -0.61518089463E+03  0.48585954279E+02  0.74580676701E+03  0.98001403806E+03  0.15294330000E+03 0.  0.
<mgrwt>
<rscale>  0 0.82686065E+03</rscale>
<asrwt>0</asrwt>
<pdfrwt beam="1">  1        1 0.18095433E+00 0.90256209E+03</pdfrwt>
<pdfrwt beam="2">  1       -1 0.16233857E+00 0.90256209E+03</pdfrwt>
<totfact> 0.31731322E+00</totfact>
</mgrwt>
</event>
<event>
 4    1  0.8114601E-008  0.8460806E+03  0.7818608E-02  0.9618820E-01
          1   -1    0    0  501    0  0.00000000000E+00  0.00000000000E+00  0.32890691560E+04  0.32890691560E+04  0.50400000000E-02 0. -1.
         -1   -1    0    0    0  501 -0.00000000000E+00 -0.00000000000E+00 -0.76732264201E+03  0.76732264203E+03  0.50400000000E-02 0.  1.
    8880023    1    1    2    0    0 -0.27286745291E+03  0.45561563529E+03  0.31254366414E+04  0.32379324668E+04  0.65864270000E+03 0. -1.
    8880022    1    1    2    0    0  0.27286745291E+03 -0.45561563529E+03 -0.60369012739E+03  0.81845933124E+03  0.15294330000E+03 0.  0.
<mgrwt>
<rscale>  0 0.76063005E+03</rscale>
<asrwt>0</asrwt>
<pdfrwt beam="1">  1        1 0.50601066E+00 0.84608065E+03</pdfrwt>
<pdfrwt beam="2">  1       -1 0.11804963E+00 0.84608065E+03</pdfrwt>
<totfact> 0.25052277E-01</totfact>
</mgrwt>
</event>
<event>
 4    1  0.8114601E-008  0.1669213E+04  0.7818608E-02  0.8798557E-01
         -1   -1    0    0    0  501 -0.00000000000E+00  0.00000000000E+00  0.16080953866E+04  0.16080953866E+04  0.50400000000E-02 0.  1.
          1   -1    0    0  501    0  0.00000000000E+00 -0.00000000000E+00 -0.18026908065E+04  0.18026908065E+04  0.50400000000E-02 0. -1.
    8880023    1    1    2    0    0 -0.13103803946E+04 -0.79709727063E+03  0.46716556799E+03  0.17333536026E+04  0.65864270000E+03 0.  0.
    8880022    1    1    2    0    0  0.13103803946E+04  0.79709727063E+03 -0.66176098794E+03  0.16774325905E+04  0.15294330000E+03 0.  0.
<mgrwt>
<rscale>  0 0.16362935E+04</rscale>
<asrwt>0</asrwt>
<pdfrwt beam="1">  1        1 0.27733705E+00 0.16692127E+04</pdfrwt>
<pdfrwt beam="2">  1       -1 0.24739929E+00 0.16692127E+04</pdfrwt>
<totfact> 0.27263366E-01</totfact>
</mgrwt>
</event>
<event>
 4    1  0.8114601E-008  0.2150935E+04  0.7818608E-02  0.8549831E-01
         -1   -1    0    0    0  501 -0.00000000000E+00  0.00000000000E+00  0.20741359152E+04  0.20741359152E+04  0.50400000000E-02 0.  1.
          1   -1    0    0  501    0  0.00000000000E+00 -0.00000000000E+00 -0.38227134773E+04  0.38227134773E+04  0.50400000000E-02 0. -1.
    8880023    1    1    2    0    0 -0.88521072931E+02  0.20456972123E+04 -0.28470082978E+04  0.35681899500E+04  0.65864270000E+03 0.  0.
    8880022    1    1    2    0    0  0.88521072931E+02 -0.20456972123E+04  0.10984307357E+04  0.23286594425E+04  0.15294330000E+03 0.  0.
<mgrwt>
<rscale>  0 0.21261038E+04</rscale>
<asrwt>0</asrwt>
<pdfrwt beam="1">  1        1 0.58810976E+00 0.21509354E+04</pdfrwt>
<pdfrwt beam="2">  1       -1 0.31909783E+00 0.21509354E+04</pdfrwt>
<totfact> 0.29385206E-03</totfact>
</mgrwt>
</event>
<event>
 4    1  0.8114601E-008  0.7911059E+03  0.7818608E-02  0.9730367E-01
         -1   -1    0    0    0  501 -0.00000000000E+00  0.00000000000E+00  0.11024593260E+04  0.11024593260E+04  0.50400000000E-02 0.  1.
          1   -1    0    0  501    0  0.00000000000E+00 -0.00000000000E+00 -0.10193797990E+04  0.10193797990E+04  0.50400000000E-02 0. -1.
    8880023    1    1    2    0    0  0.38552268699E+03 -0.20835203799E+03 -0.79944418512E+03  0.11247041946E+04  0.65864270000E+03 0.  0.
    8880022    1    1    2    0    0 -0.38552268699E+03  0.20835203799E+03  0.88252371216E+03  0.99713493042E+03  0.15294330000E+03 0.  0.
<mgrwt>
<rscale>  0 0.69237157E+03</rscale>
<asrwt>0</asrwt>
<pdfrwt beam="1">  1        1 0.15682766E+00 0.79110588E+03</pdfrwt>
<pdfrwt beam="2">  1       -1 0.16960913E+00 0.79110588E+03</pdfrwt>
<totfact> 0.37355884E+00</totfact>
</mgrwt>
</event>
<event>
 4    1  0.8114601E-008  0.6700889E+03  0.7818608E-02  0.1015599E+00
          1   -1    0    0  501    0  0.00000000000E+00  0.00000000000E+00  0.20113791260E+04  0.20113791261E+04  0.50400000000E-02 0. -1.
         -1   -1    0    0    0  501 -0.00000000000E+00 -0.00000000000E+00 -0.95529307637E+02  0.95529307770E+02  0.50400000000E-02 0.  1.
    8880023    1    1    2    0    0 -0.58653653647E+02 -0.10848337973E+03  0.16038209257E+04  0.17381773968E+04  0.65864270000E+03 0.  0.
    8880022    1    1    2    0    0  0.58653653647E+02  0.10848337973E+03  0.31202889271E+03  0.36873103702E+03  0.15294330000E+03 0.  0.
<mgrwt>
<rscale>  0 0.49308693E+03</rscale>
<asrwt>0</asrwt>
<pdfrwt beam="1">  1        1 0.30944296E+00 0.67008888E+03</pdfrwt>
<pdfrwt beam="2">  1       -1 0.14696816E-01 0.67008888E+03</pdfrwt>
<totfact> 0.10344647E+02</totfact>
</mgrwt>
</event>
<event>
 4    1  0.8114601E-008  0.7370070E+03  0.7818608E-02  0.9868753E-01
         -1   -1    0    0    0  501 -0.00000000000E+00  0.00000000000E+00  0.38672255721E+03  0.38672255725E+03  0.50400000000E-02 0.  1.
          1   -1    0    0  501    0  0.00000000000E+00 -0.00000000000E+00 -0.97744189690E+03  0.97744189691E+03  0.50400000000E-02 0. -1.
    8880023    1    1    2    0    0 -0.27757533368E+03 -0.17978054428E+03 -0.66457550057E+03  0.99239100771E+03  0.65864270000E+03 0. -1.
    8880022    1    1    2    0    0  0.27757533368E+03  0.17978054428E+03  0.73856160883E+02  0.37177344645E+03  0.15294330000E+03 0.  0.
<mgrwt>
<rscale>  0 0.61799851E+03</rscale>
<asrwt>0</asrwt>
<pdfrwt beam="1">  1        1 0.15037567E+00 0.73700700E+03</pdfrwt>
<pdfrwt beam="2">  1       -1 0.59495779E-01 0.73700700E+03</pdfrwt>
<totfact> 0.46304775E+01</totfact>
</mgrwt>
</event>
<event>
 4    1  0.8114601E-008  0.9396205E+03  0.7818608E-02  0.9465208E-01
          1   -1    0    0  501    0  0.00000000000E+00  0.00000000000E+00  0.29124079661E+04  0.29124079661E+04  0.50400000000E-02 0. -1.
         -1   -1    0    0    0  501 -0.00000000000E+00 -0.00000000000E+00 -0.96679878012E+03  0.96679878014E+03  0.50400000000E-02 0.  1.
    8880023    1    1    2    0    0  0.47560286796E+03  0.47209990615E+03  0.26998844986E+04  0.28587170062E+04  0.65864270000E+03 0.  0.
    8880022    1    1    2    0    0 -0.47560286796E+03 -0.47209990615E+03 -0.75427531260E+03  0.10204897401E+04  0.15294330000E+03 0.  0.
<mgrwt>
<rscale>  0 0.86898225E+03</rscale>
<asrwt>0</asrwt>
<pdfrwt beam="1">  1        1 0.44806276E+00 0.93962046E+03</pdfrwt>
<pdfrwt beam="2">  1       -1 0.14873828E+00 0.93962046E+03</pdfrwt>
<totfact> 0.25647563E-01</totfact>
</mgrwt>
</event>
<event>
 4    1  0.8114601E-008  0.9843574E+03  0.7818608E-02  0.9402315E-01
         -1   -1    0    0    0  501 -0.00000000000E+00  0.00000000000E+00  0.95775559645E+03  0.95775559646E+03  0.50400000000E-02 0.  1.
          1   -1    0    0  501    0  0.00000000000E+00 -0.00000000000E+00 -0.23617810044E+04  0.23617810044E+04  0.50400000000E-02 0. -1.
    8880023    1    1    2    0    0 -0.53448951012E+03 -0.49947001361E+03 -0.20867606673E+04  0.23072775342E+04  0.65864270000E+03 0.  0.
    8880022    1    1    2    0    0  0.53448951012E+03  0.49947001361E+03  0.68273525928E+03  0.10122590667E+04  0.15294330000E+03 0.  0.
<mgrwt>
<rscale>  0 0.91885397E+03</rscale>
<asrwt>0</asrwt>
<pdfrwt beam="1">  1        1 0.36335092E+00 0.98435742E+03</pdfrwt>
<pdfrwt beam="2">  1       -1 0.14734702E+00 0.98435742E+03</pdfrwt>
<totfact> 0.62961008E-01</totfact>
</mgrwt>
</event>
<event>
 4    1  0.8114601E-008  0.1048123E+04  0.7818608E-02  0.9321142E-01
          1   -1    0    0  501    0  0.00000000000E+00  0.00000000000E+00  0.23253806356E+04  0.23253806356E+04  0.50400000000E-02 0. -1.
         -1   -1    0    0    0  501 -0.00000000000E+00 -0.00000000000E+00 -0.45333986411E+03  0.45333986413E+03  0.50400000000E-02 0.  1.
    8880023    1    1    2    0    0 -0.44012942374E+03 -0.68632128336E+03  0.15864027210E+04  0.19013770307E+04  0.65864270000E+03 0. -1.
    8880022    1    1    2    0    0  0.44012942374E+03  0.68632128336E+03  0.28563805049E+03  0.87734346897E+03  0.15294330000E+03 0.  0.
<mgrwt>
<rscale>  0 0.98859604E+03</rscale>
<asrwt>0</asrwt>
<pdfrwt beam="1">  1        1 0.35775086E+00 0.10481226E+04</pdfrwt>
<pdfrwt beam="2">  1       -1 0.69744595E-01 0.10481226E+04</pdfrwt>
<totfact> 0.37523470E+00</totfact>
</mgrwt>
</event>
<event>
 4    1  0.8114601E-008  0.7967318E+03  0.7818608E-02  0.9717908E-01
         -1   -1    0    0    0  501 -0.00000000000E+00  0.00000000000E+00  0.23891526642E+03  0.23891526648E+03  0.50400000000E-02 0.  1.
          1   -1    0    0  501    0  0.00000000000E+00 -0.00000000000E+00 -0.24075113377E+04  0.24075113377E+04  0.50400000000E-02 0. -1.
    8880023    1    1    2    0    0  0.11920314167E+03 -0.43215958325E+03 -0.57133257015E+03  0.98040930553E+03  0.65864270000E+03 0.  1.
    8880022    1    1    2    0    0 -0.11920314167E+03  0.43215958325E+03 -0.15972635011E+04  0.16660172986E+04  0.15294330000E+03 0.  0.
<mgrwt>
<rscale>  0 0.69960514E+03</rscale>
<asrwt>0</asrwt>
<pdfrwt beam="1">  1        1 0.37038634E+00 0.79673176E+03</pdfrwt>
<pdfrwt beam="2">  1       -1 0.36756196E-01 0.79673176E+03</pdfrwt>
<totfact> 0.11636402E+01</totfact>
</mgrwt>
</event>
<event>
 4    1  0.8114601E-008  0.9217474E+03  0.7818608E-02  0.9491985E-01
          1   -1    0    0  501    0  0.00000000000E+00  0.00000000000E+00  0.11624688301E+04  0.11624688301E+04  0.50400000000E-02 0. -1.
         -1   -1    0    0    0  501 -0.00000000000E+00 -0.00000000000E+00 -0.98463020539E+03  0.98463020541E+03  0.50400000000E-02 0.  1.
    8880023    1    1    2    0    0 -0.43788401545E+03 -0.47335565240E+03  0.81306721576E+03  0.12291039371E+04  0.65864270000E+03 0. -1.
    8880022    1    1    2    0    0  0.43788401545E+03  0.47335565240E+03 -0.63522859109E+03  0.91799509835E+03  0.15294330000E+03 0.  0.
<mgrwt>
<rscale>  0 0.84877323E+03</rscale>
<asrwt>0</asrwt>
<pdfrwt beam="1">  1        1 0.17884136E+00 0.92174736E+03</pdfrwt>
<pdfrwt beam="2">  1       -1 0.15148157E+00 0.92174736E+03</pdfrwt>
<totfact> 0.39201028E+00</totfact>
</mgrwt>
</event>
<event>
 4    1  0.8114601E-008  0.6687871E+03  0.7818608E-02  0.1016548E+00
          1   -1    0    0  501    0  0.00000000000E+00  0.00000000000E+00  0.32412755167E+03  0.32412755171E+03  0.50400000000E-02 0. -1.
         -1   -1    0    0    0  501 -0.00000000000E+00 -0.00000000000E+00 -0.91995365542E+03  0.91995365543E+03  0.50400000000E-02 0.  1.
    8880023    1    1    2    0    0  0.70652246319E+02  0.92055873448E+02 -0.55993944770E+02  0.67112707579E+03  0.65864270000E+03 0. -1.
    8880022    1    1    2    0    0 -0.70652246319E+02 -0.92055873448E+02 -0.53983215898E+03  0.57295413135E+03  0.15294330000E+03 0.  0.
<mgrwt>
<rscale>  0 0.48953295E+03</rscale>
<asrwt>0</asrwt>
<pdfrwt beam="1">  1        1 0.49865778E-01 0.66878713E+03</pdfrwt>
<pdfrwt beam="2">  1       -1 0.14153133E+00 0.66878713E+03</pdfrwt>
<totfact> 0.33255273E+01</totfact>
</mgrwt>
</event>
<event>
 4    1  0.8114601E-008  0.9590699E+03  0.7818608E-02  0.9437183E-01
          1   -1    0    0  501    0  0.00000000000E+00  0.00000000000E+00  0.13367754609E+04  0.13367754609E+04  0.50400000000E-02 0. -1.
         -1   -1    0    0    0  501 -0.00000000000E+00 -0.00000000000E+00 -0.58821932459E+03  0.58821932461E+03  0.50400000000E-02 0.  1.
    8880023    1    1    2    0    0  0.33905418280E+03 -0.60913634933E+03  0.73975654552E+03  0.12112203697E+04  0.65864270000E+03 0.  0.
    8880022    1    1    2    0    0 -0.33905418280E+03  0.60913634933E+03  0.87995907979E+01  0.71377441588E+03  0.15294330000E+03 0.  0.
<mgrwt>
<rscale>  0 0.89077841E+03</rscale>
<asrwt>0</asrwt>
<pdfrwt beam="1">  1        1 0.20565776E+00 0.95906988E+03</pdfrwt>
<pdfrwt beam="2">  1       -1 0.90495280E-01 0.95906988E+03</pdfrwt>
<totfact> 0.10253244E+01</totfact>
</mgrwt>
</event>
<event>
 4    1  0.8114601E-008  0.1986200E+04  0.7818608E-02  0.8625979E-01
         -1   -1    0    0    0  501 -0.00000000000E+00  0.00000000000E+00  0.20849488182E+04  0.20849488183E+04  0.50400000000E-02 0.  1.
          1   -1    0    0  501    0  0.00000000000E+00 -0.00000000000E+00 -0.27780524239E+04  0.27780524239E+04  0.50400000000E-02 0. -1.
    8880023    1    1    2    0    0 -0.18621295825E+04 -0.20893524352E+03  0.10953165542E+04  0.22681951147E+04  0.65864270000E+03 0.  0.
    8880022    1    1    2    0    0  0.18621295825E+04  0.20893524352E+03 -0.17884201598E+04  0.25948061275E+04  0.15294330000E+03 0.  0.
<mgrwt>
<rscale>  0 0.19591124E+04</rscale>
<asrwt>0</asrwt>
<pdfrwt beam="1">  1        1 0.42739268E+00 0.19862001E+04</pdfrwt>
<pdfrwt beam="2">  1       -1 0.32076136E+00 0.19862001E+04</pdfrwt>
<totfact> 0.18536872E-02</totfact>
</mgrwt>
</event>
<event>
 4    1  0.8114601E-008  0.9375587E+03  0.7818608E-02  0.9468245E-01
         -1   -1    0    0    0  501 -0.00000000000E+00  0.00000000000E+00  0.69577019794E+03  0.69577019796E+03  0.50400000000E-02 0.  1.
          1   -1    0    0  501    0  0.00000000000E+00 -0.00000000000E+00 -0.10857316578E+04  0.10857316578E+04  0.50400000000E-02 0. -1.
    8880023    1    1    2    0    0  0.65236701986E+03 -0.14008363927E+03 -0.53825645917E+03  0.10810811148E+04  0.65864270000E+03 0.  0.
    8880022    1    1    2    0    0 -0.65236701986E+03  0.14008363927E+03  0.14829499931E+03  0.70042074100E+03  0.15294330000E+03 0.  0.
<mgrwt>
<rscale>  0 0.86666028E+03</rscale>
<asrwt>0</asrwt>
<pdfrwt beam="1">  1        1 0.16703564E+00 0.93755872E+03</pdfrwt>
<pdfrwt beam="2">  1       -1 0.10704157E+00 0.93755872E+03</pdfrwt>
<totfact> 0.10679031E+01</totfact>
</mgrwt>
</event>
<event>
 4    1  0.8114601E-008  0.9597583E+03  0.7818608E-02  0.9436211E-01
         -1   -1    0    0    0  501 -0.00000000000E+00  0.00000000000E+00  0.75069861168E+03  0.75069861170E+03  0.50400000000E-02 0.  1.
          1   -1    0    0  501    0  0.00000000000E+00 -0.00000000000E+00 -0.22031677831E+04  0.22031677831E+04  0.50400000000E-02 0. -1.
    8880023    1    1    2    0    0  0.61855912297E+03 -0.32358990422E+03 -0.18873072806E+04  0.21173249142E+04  0.65864270000E+03 0. -1.
    8880022    1    1    2    0    0 -0.61855912297E+03  0.32358990422E+03  0.43483810910E+03  0.83654148066E+03  0.15294330000E+03 0.  0.
<mgrwt>
<rscale>  0 0.89154650E+03</rscale>
<asrwt>0</asrwt>
<pdfrwt beam="1">  1        1 0.33894889E+00 0.95975831E+03</pdfrwt>
<pdfrwt beam="2">  1       -1 0.11549210E+00 0.95975831E+03</pdfrwt>
<totfact> 0.15024656E+00</totfact>
</mgrwt>
</event>
<event>
 4    1  0.8114601E-008  0.9444602E+03  0.7818608E-02  0.9458130E-01
          1   -1    0    0  501    0  0.00000000000E+00  0.00000000000E+00  0.29313044221E+04  0.29313044221E+04  0.50400000000E-02 0. -1.
         -1   -1    0    0    0  501 -0.00000000000E+00 -0.00000000000E+00 -0.11310563481E+04  0.11310563481E+04  0.50400000000E-02 0.  1.
    8880023    1    1    2    0    0 -0.99674653691E+02  0.66952210294E+03  0.27376799323E+04  0.28960138986E+04  0.65864270000E+03 0. -1.
    8880022    1    1    2    0    0  0.99674653691E+02 -0.66952210294E+03 -0.93743185833E+03  0.11663468716E+04  0.15294330000E+03 0.  0.
<mgrwt>
<rscale>  0 0.87442394E+03</rscale>
<asrwt>0</asrwt>
<pdfrwt beam="1">  1        1 0.45096990E+00 0.94446021E+03</pdfrwt>
<pdfrwt beam="2">  1       -1 0.17400867E+00 0.94446021E+03</pdfrwt>
<totfact> 0.16020772E-01</totfact>
</mgrwt>
</event>
<event>
 4    1  0.8114601E-008  0.7429105E+03  0.7818608E-02  0.9851549E-01
          1   -1    0    0  501    0  0.00000000000E+00  0.00000000000E+00  0.14721836148E+04  0.14721836148E+04  0.50400000000E-02 0. -1.
         -1   -1    0    0    0  501 -0.00000000000E+00 -0.00000000000E+00 -0.34132941715E+03  0.34132941719E+03  0.50400000000E-02 0.  1.
    8880023    1    1    2    0    0 -0.26894757746E+03 -0.21394639996E+03  0.12186482830E+04  0.14272419926E+04  0.65864270000E+03 0. -1.
    8880022    1    1    2    0    0  0.26894757746E+03  0.21394639996E+03 -0.87794085323E+02  0.38627103944E+03  0.15294330000E+03 0.  0.
<mgrwt>
<rscale>  0 0.62668022E+03</rscale>
<asrwt>0</asrwt>
<pdfrwt beam="1">  1        1 0.22648979E+00 0.74291054E+03</pdfrwt>
<pdfrwt beam="2">  1       -1 0.52512218E-01 0.74291054E+03</pdfrwt>
<totfact> 0.25829882E+01</totfact>
</mgrwt>
</event>
<event>
 4    1  0.8114601E-008  0.1683508E+04  0.7818608E-02  0.8789869E-01
         -1   -1    0    0    0  501 -0.00000000000E+00  0.00000000000E+00  0.12299337850E+04  0.12299337850E+04  0.50400000000E-02 0.  1.
          1   -1    0    0  501    0  0.00000000000E+00 -0.00000000000E+00 -0.23731983915E+04  0.23731983915E+04  0.50400000000E-02 0. -1.
    8880023    1    1    2    0    0  0.15348035866E+04  0.21157810444E+03 -0.20454373120E+02  0.16836317683E+04  0.65864270000E+03 0.  0.
    8880022    1    1    2    0    0 -0.15348035866E+04 -0.21157810444E+03 -0.11228102334E+04  0.19195004082E+04  0.15294330000E+03 0.  0.
<mgrwt>
<rscale>  0 0.16509082E+04</rscale>
<asrwt>0</asrwt>
<pdfrwt beam="1">  1        1 0.36510744E+00 0.16835075E+04</pdfrwt>
<pdfrwt beam="2">  1       -1 0.18922058E+00 0.16835075E+04</pdfrwt>
<totfact> 0.27500519E-01</totfact>
</mgrwt>
</event>
<event>
 4    1  0.8114601E-008  0.7227458E+03  0.7818608E-02  0.9913402E-01
          1   -1    0    0  501    0  0.00000000000E+00  0.00000000000E+00  0.59594467675E+03  0.59594467677E+03  0.50400000000E-02 0. -1.
         -1   -1    0    0    0  501 -0.00000000000E+00 -0.00000000000E+00 -0.94454971544E+03  0.94454971545E+03  0.50400000000E-02 0.  1.
    8880023    1    1    2    0    0  0.26109779575E+03 -0.14275572652E+03  0.32186804725E+03  0.79117665695E+03  0.65864270000E+03 0. -1.
    8880022    1    1    2    0    0 -0.26109779575E+03  0.14275572652E+03 -0.67047308594E+03  0.74931773527E+03  0.15294330000E+03 0.  0.
<mgrwt>
<rscale>  0 0.59616125E+03</rscale>
<asrwt>0</asrwt>
<pdfrwt beam="1">  1        1 0.91683796E-01 0.72274578E+03</pdfrwt>
<pdfrwt beam="2">  1       -1 0.14531534E+00 0.72274578E+03</pdfrwt>
<totfact> 0.13559077E+01</totfact>
</mgrwt>
</event>
<event>
 4    1  0.8114601E-008  0.7791323E+03  0.7818608E-02  0.9757879E-01
          1   -1    0    0  501    0  0.00000000000E+00  0.00000000000E+00  0.63589411611E+03  0.63589411613E+03  0.50400000000E-02 0. -1.
         -1   -1    0    0    0  501 -0.00000000000E+00 -0.00000000000E+00 -0.63292023313E+03  0.63292023315E+03  0.50400000000E-02 0.  1.
    8880023    1    1    2    0    0  0.38482316555E+03 -0.15858144368E+03  0.16554334015E+03  0.79652479356E+03  0.65864270000E+03 0.  0.
    8880022    1    1    2    0    0 -0.38482316555E+03  0.15858144368E+03 -0.16256945717E+03  0.47228955572E+03  0.15294330000E+03 0.  0.
<mgrwt>
<rscale>  0 0.67672815E+03</rscale>
<asrwt>0</asrwt>
<pdfrwt beam="1">  1        1 0.97829864E-01 0.77913231E+03</pdfrwt>
<pdfrwt beam="2">  1       -1 0.97372343E-01 0.77913231E+03</pdfrwt>
<totfact> 0.32539128E+01</totfact>
</mgrwt>
</event>
<event>
 4    1  0.8114601E-008  0.9141901E+03  0.7818608E-02  0.9503625E-01
         -1   -1    0    0    0  501 -0.00000000000E+00  0.00000000000E+00  0.13764145189E+04  0.13764145189E+04  0.50400000000E-02 0.  1.
          1   -1    0    0  501    0  0.00000000000E+00 -0.00000000000E+00 -0.16320710473E+04  0.16320710473E+04  0.50400000000E-02 0. -1.
    8880023    1    1    2    0    0  0.54278470706E+03 -0.32759434887E+03 -0.14112998909E+04  0.16815204084E+04  0.65864270000E+03 0.  0.
    8880022    1    1    2    0    0 -0.54278470706E+03  0.32759434887E+03  0.11556433625E+04  0.13269651578E+04  0.15294330000E+03 0.  0.
<mgrwt>
<rscale>  0 0.84017061E+03</rscale>
<asrwt>0</asrwt>
<pdfrwt beam="1">  1        1 0.25108785E+00 0.91419008E+03</pdfrwt>
<pdfrwt beam="2">  1       -1 0.21175608E+00 0.91419008E+03</pdfrwt>
<totfact> 0.67934111E-01</totfact>
</mgrwt>
</event>
<event>
 4    1  0.8114601E-008  0.1134987E+04  0.7818608E-02  0.9223067E-01
         -1   -1    0    0    0  501 -0.00000000000E+00  0.00000000000E+00  0.96500541667E+03  0.96500541669E+03  0.50400000000E-02 0.  1.
          1   -1    0    0  501    0  0.00000000000E+00 -0.00000000000E+00 -0.15517419869E+04  0.15517419870E+04  0.50400000000E-02 0. -1.
    8880023    1    1    2    0    0  0.57408400762E+03 -0.72444035527E+03 -0.98108303668E+03  0.15002401165E+04  0.65864270000E+03 0. -1.
    8880022    1    1    2    0    0 -0.57408400762E+03  0.72444035527E+03  0.39434646640E+03  0.10165072871E+04  0.15294330000E+03 0.  0.
<mgrwt>
<rscale>  0 0.10818483E+04</rscale>
<asrwt>0</asrwt>
<pdfrwt beam="1">  1        1 0.23872954E+00 0.11349874E+04</pdfrwt>
<pdfrwt beam="2">  1       -1 0.14846237E+00 0.11349874E+04</pdfrwt>
<totfact> 0.21364503E+00</totfact>
</mgrwt>
</event>
<event>
 4    1  0.8114601E-008  0.1119366E+04  0.7818608E-02  0.9239795E-01
          1   -1    0    0  501    0  0.00000000000E+00  0.00000000000E+00  0.28627422926E+04  0.28627422926E+04  0.50400000000E-02 0. -1.
         -1   -1    0    0    0  501 -0.00000000000E+00 -0.00000000000E+00 -0.52055474356E+03  0.52055474358E+03  0.50400000000E-02 0.  1.
    8880023    1    1    2    0    0  0.89361249582E+03 -0.14361726671E+03  0.21808097717E+04  0.24513079526E+04  0.65864270000E+03 0.  1.
    8880022    1    1    2    0    0 -0.89361249582E+03  0.14361726671E+03  0.16137777743E+03  0.93198908365E+03  0.15294330000E+03 0.  0.
<mgrwt>
<rscale>  0 0.10651950E+04</rscale>
<asrwt>0</asrwt>
<pdfrwt beam="1">  1        1 0.44042190E+00 0.11193656E+04</pdfrwt>
<pdfrwt beam="2">  1       -1 0.80085344E-01 0.11193656E+04</pdfrwt>
<totfact> 0.11779735E+00</totfact>
</mgrwt>
</event>
<event>
 4    1  0.8114601E-008  0.7878995E+03  0.7818608E-02  0.9737598E-01
          1   -1    0    0  501    0  0.00000000000E+00  0.00000000000E+00  0.15368663685E+04  0.15368663685E+04  0.50400000000E-02 0. -1.
         -1   -1    0    0    0  501 -0.00000000000E+00 -0.00000000000E+00 -0.62783036339E+03  0.62783036341E+03  0.50400000000E-02 0.  1.
    8880023    1    1    2    0    0  0.37598264877E+02  0.43076887391E+03  0.13275759904E+04  0.15437757832E+04  0.65864270000E+03 0. -1.
    8880022    1    1    2    0    0 -0.37598264877E+02 -0.43076887391E+03 -0.41853998529E+03  0.62092094871E+03  0.15294330000E+03 0.  0.
<mgrwt>
<rscale>  0 0.68821694E+03</rscale>
<asrwt>0</asrwt>
<pdfrwt beam="1">  1        1 0.23644098E+00 0.78789952E+03</pdfrwt>
<pdfrwt beam="2">  1       -1 0.96589288E-01 0.78789952E+03</pdfrwt>
<totfact> 0.65842559E+00</totfact>
</mgrwt>
</event>
<event>
 4    1  0.8114601E-008  0.1391892E+04  0.7818608E-02  0.8990008E-01
         -1   -1    0    0    0  501 -0.00000000000E+00  0.00000000000E+00  0.12745391101E+04  0.12745391101E+04  0.50400000000E-02 0.  1.
          1   -1    0    0  501    0  0.00000000000E+00 -0.00000000000E+00 -0.27608360128E+04  0.27608360128E+04  0.50400000000E-02 0. -1.
    8880023    1    1    2    0    0 -0.67114245396E+03 -0.10262171317E+04 -0.22037448298E+04  0.26065024987E+04  0.65864270000E+03 0.  0.
    8880022    1    1    2    0    0  0.67114245396E+03  0.10262171317E+04  0.71744792710E+03  0.14288726241E+04  0.15294330000E+03 0.  0.
<mgrwt>
<rscale>  0 0.13510834E+04</rscale>
<asrwt>0</asrwt>
<pdfrwt beam="1">  1        1 0.42474400E+00 0.13918922E+04</pdfrwt>
<pdfrwt beam="2">  1       -1 0.19608294E+00 0.13918922E+04</pdfrwt>
<totfact> 0.13674485E-01</totfact>
</mgrwt>
</event>
<event>
 4    1  0.8114601E-008  0.1367760E+04  0.7818608E-02  0.9009148E-01
          1   -1    0    0  501    0  0.00000000000E+00  0.00000000000E+00  0.41776864369E+04  0.41776864369E+04  0.50400000000E-02 0. -1.
         -1   -1    0    0    0  501 -0.00000000000E+00 -0.00000000000E+00 -0.67384314045E+03  0.67384314047E+03  0.50400000000E-02 0.  1.
    8880023    1    1    2    0    0  0.23902208914E+03 -0.11746598090E+04  0.33684128915E+04  0.36355154847E+04  0.65864270000E+03 0.  0.
    8880022    1    1    2    0    0 -0.23902208914E+03  0.11746598090E+04  0.13543040501E+03  0.12160140927E+04  0.15294330000E+03 0.  0.
<mgrwt>
<rscale>  0 0.13260641E+04</rscale>
<asrwt>0</asrwt>
<pdfrwt beam="1">  1        1 0.64272098E+00 0.13677600E+04</pdfrwt>
<pdfrwt beam="2">  1       -1 0.10366818E+00 0.13677600E+04</pdfrwt>
<totfact> 0.57661186E-02</totfact>
</mgrwt>
</event>
<event>
 4    1  0.8114601E-008  0.1102540E+04  0.7818608E-02  0.9258233E-01
         -1   -1    0    0    0  501 -0.00000000000E+00  0.00000000000E+00  0.14683081829E+04  0.14683081829E+04  0.50400000000E-02 0.  1.
          1   -1    0    0  501    0  0.00000000000E+00 -0.00000000000E+00 -0.14736606389E+04  0.14736606389E+04  0.50400000000E-02 0. -1.
    8880023    1    1    2    0    0  0.72878655841E+03  0.50065479916E+03 -0.10790332244E+04  0.15426950383E+04  0.65864270000E+03 0. -1.
    8880022    1    1    2    0    0 -0.72878655841E+03 -0.50065479916E+03  0.10736807685E+04  0.13992737835E+04  0.15294330000E+03 0.  0.
<mgrwt>
<rscale>  0 0.10472064E+04</rscale>
<asrwt>0</asrwt>
<pdfrwt beam="1">  1        1 0.22671702E+00 0.11025404E+04</pdfrwt>
<pdfrwt beam="2">  1       -1 0.22589357E+00 0.11025404E+04</pdfrwt>
<totfact> 0.68124560E-01</totfact>
</mgrwt>
</event>
<event>
 4    1  0.8114601E-008  0.1724747E+04  0.7818608E-02  0.8765347E-01
         -1   -1    0    0    0  501 -0.00000000000E+00  0.00000000000E+00  0.11789033454E+04  0.11789033454E+04  0.50400000000E-02 0.  1.
          1   -1    0    0  501    0  0.00000000000E+00 -0.00000000000E+00 -0.25959651821E+04  0.25959651821E+04  0.50400000000E-02 0. -1.
    8880023    1    1    2    0    0  0.61332182884E+03  0.14713189583E+04 -0.14699767451E+03  0.17310001922E+04  0.65864270000E+03 0.  0.
    8880022    1    1    2    0    0 -0.61332182884E+03 -0.14713189583E+04 -0.12700641622E+04  0.20438683353E+04  0.15294330000E+03 0.  0.
<mgrwt>
<rscale>  0 0.16930351E+04</rscale>
<asrwt>0</asrwt>
<pdfrwt beam="1">  1        1 0.39937926E+00 0.17247473E+04</pdfrwt>
<pdfrwt beam="2">  1       -1 0.18136975E+00 0.17247473E+04</pdfrwt>
<totfact> 0.21821707E-01</totfact>
</mgrwt>
</event>
<event>
 4    1  0.8114601E-008  0.2056118E+04  0.7818608E-02  0.8592704E-01
          1   -1    0    0  501    0  0.00000000000E+00  0.00000000000E+00  0.37138939820E+04  0.37138939820E+04  0.50400000000E-02 0. -1.
         -1   -1    0    0    0  501 -0.00000000000E+00 -0.00000000000E+00 -0.14281866475E+04  0.14281866475E+04  0.50400000000E-02 0.  1.
    8880023    1    1    2    0    0 -0.10863145001E+02 -0.19477403481E+04  0.24297985780E+04  0.31830082952E+04  0.65864270000E+03 0.  0.
    8880022    1    1    2    0    0  0.10863145001E+02  0.19477403481E+04 -0.14409124357E+03  0.19590723343E+04  0.15294330000E+03 0.  0.
<mgrwt>
<rscale>  0 0.20300379E+04</rscale>
<asrwt>0</asrwt>
<pdfrwt beam="1">  1        1 0.57136830E+00 0.20561179E+04</pdfrwt>
<pdfrwt beam="2">  1       -1 0.21972103E+00 0.20561179E+04</pdfrwt>
<totfact> 0.16472193E-02</totfact>
</mgrwt>
</event>
<event>
 4    1  0.8114601E-008  0.8738260E+03  0.7818608E-02  0.9569428E-01
         -1   -1    0    0    0  501 -0.00000000000E+00  0.00000000000E+00  0.32665527023E+03  0.32665527027E+03  0.50400000000E-02 0.  1.
          1   -1    0    0  501    0  0.00000000000E+00 -0.00000000000E+00 -0.30409955706E+04  0.30409955706E+04  0.50400000000E-02 0. -1.
    8880023    1    1    2    0    0 -0.56706752429E+03  0.90531893146E+02 -0.26251048280E+04  0.27667213747E+04  0.65864270000E+03 0.  0.
    8880022    1    1    2    0    0  0.56706752429E+03 -0.90531893146E+02 -0.89235472334E+02  0.60092946617E+03  0.15294330000E+03 0.  0.
<mgrwt>
<rscale>  0 0.79353139E+03</rscale>
<asrwt>0</asrwt>
<pdfrwt beam="1">  1        1 0.46784545E+00 0.87382596E+03</pdfrwt>
<pdfrwt beam="2">  1       -1 0.50254659E-01 0.87382596E+03</pdfrwt>
<totfact> 0.23275461E+00</totfact>
</mgrwt>
</event>
<event>
 4    1  0.8114601E-008  0.7270313E+03  0.7818608E-02  0.9899475E-01
          1   -1    0    0  501    0  0.00000000000E+00  0.00000000000E+00  0.14289025495E+04  0.14289025495E+04  0.50400000000E-02 0. -1.
         -1   -1    0    0    0  501 -0.00000000000E+00 -0.00000000000E+00 -0.55811618155E+03  0.55811618157E+03  0.50400000000E-02 0.  1.
    8880023    1    1    2    0    0 -0.21980354444E+03 -0.21552430941E+03  0.12680501943E+04  0.14616859539E+04  0.65864270000E+03 0. -1.
    8880022    1    1    2    0    0  0.21980354444E+03  0.21552430941E+03 -0.39726382636E+03  0.52533277724E+03  0.15294330000E+03 0.  0.
<mgrwt>
<rscale>  0 0.60286740E+03</rscale>
<asrwt>0</asrwt>
<pdfrwt beam="1">  1        1 0.21983116E+00 0.72703131E+03</pdfrwt>
<pdfrwt beam="2">  1       -1 0.85864030E-01 0.72703131E+03</pdfrwt>
<totfact> 0.10222153E+01</totfact>
</mgrwt>
</event>
<event>
 4    1  0.8114601E-008  0.8091712E+03  0.7818608E-02  0.9691306E-01
         -1   -1    0    0    0  501 -0.00000000000E+00  0.00000000000E+00  0.56639658084E+03  0.56639658087E+03  0.50400000000E-02 0.  1.
          1   -1    0    0  501    0  0.00000000000E+00 -0.00000000000E+00 -0.12141431906E+04  0.12141431906E+04  0.50400000000E-02 0. -1.
    8880023    1    1    2    0    0  0.45905332009E+03  0.10108366656E+03 -0.91266368548E+03  0.12197184377E+04  0.65864270000E+03 0. -1.
    8880022    1    1    2    0    0 -0.45905332009E+03 -0.10108366656E+03  0.26491707573E+03  0.56082133372E+03  0.15294330000E+03 0.  0.
<mgrwt>
<rscale>  0 0.71536804E+03</rscale>
<asrwt>0</asrwt>
<pdfrwt beam="1">  1        1 0.18679126E+00 0.80917122E+03</pdfrwt>
<pdfrwt beam="2">  1       -1 0.87137936E-01 0.80917122E+03</pdfrwt>
<totfact> 0.13874242E+01</totfact>
</mgrwt>
</event>
<event>
 4    1  0.8114601E-008  0.9974049E+03  0.7818608E-02  0.9384961E-01
          1   -1    0    0  501    0  0.00000000000E+00  0.00000000000E+00  0.17695422241E+04  0.17695422241E+04  0.50400000000E-02 0. -1.
         -1   -1    0    0    0  501 -0.00000000000E+00 -0.00000000000E+00 -0.10622420704E+04  0.10622420704E+04  0.50400000000E-02 0.  1.
    8880023    1    1    2    0    0 -0.36852945821E+03 -0.65206781339E+03  0.14539626250E+04  0.17631857293E+04  0.65864270000E+03 0.  0.
    8880022    1    1    2    0    0  0.36852945821E+03  0.65206781339E+03 -0.74666247119E+03  0.10685985653E+04  0.15294330000E+03 0.  0.
<mgrwt>
<rscale>  0 0.93323760E+03</rscale>
<asrwt>0</asrwt>
<pdfrwt beam="1">  1        1 0.27223727E+00 0.99740493E+03</pdfrwt>
<pdfrwt beam="2">  1       -1 0.16342186E+00 0.99740493E+03</pdfrwt>
<totfact> 0.11871894E+00</totfact>
</mgrwt>
</event>
<event>
 4    1  0.8114601E-008  0.9788076E+03  0.7818608E-02  0.9409824E-01
          1   -1    0    0  501    0  0.00000000000E+00  0.00000000000E+00  0.23207477665E+04  0.23207477665E+04  0.50400000000E-02 0. -1.
         -1   -1    0    0    0  501 -0.00000000000E+00 -0.00000000000E+00 -0.72138525434E+03  0.72138525436E+03  0.50400000000E-02 0.  1.
    8880023    1    1    2    0    0 -0.48205030956E+03 -0.54026067742E+03  0.19809039051E+04  0.22095349257E+04  0.65864270000E+03 0. -1.
    8880022    1    1    2    0    0  0.48205030956E+03  0.54026067742E+03 -0.38154139293E+03  0.83259809515E+03  0.15294330000E+03 0.  0.
<mgrwt>
<rscale>  0 0.91271558E+03</rscale>
<asrwt>0</asrwt>
<pdfrwt beam="1">  1        1 0.35703812E+00 0.97880759E+03</pdfrwt>
<pdfrwt beam="2">  1       -1 0.11098235E+00 0.97880759E+03</pdfrwt>
<totfact> 0.13715284E+00</totfact>
</mgrwt>
</event>
<event>
 4    1  0.8114601E-008  0.7207695E+03  0.7818608E-02  0.9919991E-01
          1   -1    0    0  501    0  0.00000000000E+00  0.00000000000E+00  0.62685716211E+03  0.62685716213E+03  0.50400000000E-02 0. -1.
         -1   -1    0    0    0  501 -0.00000000000E+00 -0.00000000000E+00 -0.71657426073E+03  0.71657426074E+03  0.50400000000E-02 0.  1.
    8880023    1    1    2    0    0 -0.26982758124E+03 -0.11354069726E+03  0.34368892115E+03  0.79851781089E+03  0.65864270000E+03 0.  0.
    8880022    1    1    2    0    0  0.26982758124E+03  0.11354069726E+03 -0.43340601977E+03  0.54491361198E+03  0.15294330000E+03 0.  1.
<mgrwt>
<rscale>  0 0.59302149E+03</rscale>
<asrwt>0</asrwt>
<pdfrwt beam="1">  1        1 0.96439563E-01 0.72076946E+03</pdfrwt>
<pdfrwt beam="2">  1       -1 0.11024219E+00 0.72076946E+03</pdfrwt>
<totfact> 0.25091793E+01</totfact>
</mgrwt>
</event>
<event>
 4    1  0.8114601E-008  0.1073007E+04  0.7818608E-02  0.9291722E-01
         -1   -1    0    0    0  501 -0.00000000000E+00  0.00000000000E+00  0.14189115625E+04  0.14189115625E+04  0.50400000000E-02 0.  1.
          1   -1    0    0  501    0  0.00000000000E+00 -0.00000000000E+00 -0.17676024346E+04  0.17676024346E+04  0.50400000000E-02 0. -1.
    8880023    1    1    2    0    0  0.84685920263E+03  0.19049363683E+02 -0.14404915168E+04  0.17962069490E+04  0.65864270000E+03 0. -1.
    8880022    1    1    2    0    0 -0.84685920263E+03 -0.19049363683E+02  0.10918006447E+04  0.13903070482E+04  0.15294330000E+03 0.  0.
<mgrwt>
<rscale>  0 0.10154853E+04</rscale>
<asrwt>0</asrwt>
<pdfrwt beam="1">  1        1 0.27193884E+00 0.10730068E+04</pdfrwt>
<pdfrwt beam="2">  1       -1 0.21829409E+00 0.10730068E+04</pdfrwt>
<totfact> 0.48388783E-01</totfact>
</mgrwt>
</event>
<event>
 4    1  0.8114601E-008  0.9811962E+03  0.7818608E-02  0.9406583E-01
          1   -1    0    0  501    0  0.00000000000E+00  0.00000000000E+00  0.15021583348E+04  0.15021583348E+04  0.50400000000E-02 0. -1.
         -1   -1    0    0    0  501 -0.00000000000E+00 -0.00000000000E+00 -0.98439587426E+03  0.98439587427E+03  0.50400000000E-02 0.  1.
    8880023    1    1    2    0    0  0.30486607654E+03 -0.66029723458E+03  0.11493750649E+04  0.15112276496E+04  0.65864270000E+03 0. -1.
    8880022    1    1    2    0    0 -0.30486607654E+03  0.66029723458E+03 -0.63161260441E+03  0.97532655951E+03  0.15294330000E+03 0.  0.
<mgrwt>
<rscale>  0 0.91535902E+03</rscale>
<asrwt>0</asrwt>
<pdfrwt beam="1">  1        1 0.23110128E+00 0.98119619E+03</pdfrwt>
<pdfrwt beam="2">  1       -1 0.15144552E+00 0.98119619E+03</pdfrwt>
<totfact> 0.22344613E+00</totfact>
</mgrwt>
</event>
<event>
 4    1  0.8114601E-008  0.6739626E+03  0.7818608E-02  0.1012968E+00
          1   -1    0    0  501    0  0.00000000000E+00  0.00000000000E+00  0.44220633845E+03  0.44220633848E+03  0.50400000000E-02 0. -1.
         -1   -1    0    0    0  501 -0.00000000000E+00 -0.00000000000E+00 -0.10565368784E+04  0.10565368784E+04  0.50400000000E-02 0.  1.
    8880023    1    1    2    0    0 -0.74653853000E+02  0.12182829249E+03  0.16327841896E+03  0.69345899589E+03  0.65864270000E+03 0. -1.
    8880022    1    1    2    0    0  0.74653853000E+02 -0.12182829249E+03 -0.77760895888E+03  0.80528422098E+03  0.15294330000E+03 0.  0.
<mgrwt>
<rscale>  0 0.50311788E+03</rscale>
<asrwt>0</asrwt>
<pdfrwt beam="1">  1        1 0.68031744E-01 0.67396256E+03</pdfrwt>
<pdfrwt beam="2">  1       -1 0.16254414E+00 0.67396256E+03</pdfrwt>
<totfact> 0.15203086E+01</totfact>
</mgrwt>
</event>
<event>
 4    1  0.8114601E-008  0.6981245E+03  0.7818608E-02  0.1000507E+00
         -1   -1    0    0    0  501 -0.00000000000E+00  0.00000000000E+00  0.52071172158E+03  0.52071172160E+03  0.50400000000E-02 0.  1.
          1   -1    0    0  501    0  0.00000000000E+00 -0.00000000000E+00 -0.13028653128E+04  0.13028653128E+04  0.50400000000E-02 0. -1.
    8880023    1    1    2    0    0  0.38822767281E+01  0.23141423053E+03 -0.11605719672E+04  0.13543652075E+04  0.65864270000E+03 0. -1.
    8880022    1    1    2    0    0 -0.38822767281E+01 -0.23141423053E+03  0.37841837597E+03  0.46921182684E+03  0.15294330000E+03 0.  0.
<mgrwt>
<rscale>  0 0.55428392E+03</rscale>
<asrwt>0</asrwt>
<pdfrwt beam="1">  1        1 0.20044082E+00 0.69812450E+03</pdfrwt>
<pdfrwt beam="2">  1       -1 0.80109496E-01 0.69812450E+03</pdfrwt>
<totfact> 0.14585143E+01</totfact>
</mgrwt>
</event>
<event>
 4    1  0.8114601E-008  0.6985501E+03  0.7818608E-02  0.1000327E+00
         -1   -1    0    0    0  501 -0.00000000000E+00  0.00000000000E+00  0.34492520698E+03  0.34492520702E+03  0.50400000000E-02 0.  1.
          1   -1    0    0  501    0  0.00000000000E+00 -0.00000000000E+00 -0.11701727040E+04  0.11701727040E+04  0.50400000000E-02 0. -1.
    8880023    1    1    2    0    0  0.19477498100E+03 -0.12737664564E+03 -0.97460111344E+03  0.11990911724E+04  0.65864270000E+03 0. -1.
    8880022    1    1    2    0    0 -0.19477498100E+03  0.12737664564E+03  0.14935361648E+03  0.31600673861E+03  0.15294330000E+03 0.  0.
<mgrwt>
<rscale>  0 0.55507101E+03</rscale>
<asrwt>0</asrwt>
<pdfrwt beam="1">  1        1 0.18002657E+00 0.69855015E+03</pdfrwt>
<pdfrwt beam="2">  1       -1 0.53065417E-01 0.69855015E+03</pdfrwt>
<totfact> 0.41552531E+01</totfact>
</mgrwt>
</event>
<event>
 4    1  0.8114601E-008  0.8303918E+03  0.7818608E-02  0.9648571E-01
         -1   -1    0    0    0  501 -0.00000000000E+00  0.00000000000E+00  0.44767560685E+03  0.44767560688E+03  0.50400000000E-02 0.  1.
          1   -1    0    0  501    0  0.00000000000E+00 -0.00000000000E+00 -0.12058503932E+04  0.12058503932E+04  0.50400000000E-02 0. -1.
    8880023    1    1    2    0    0 -0.39708663729E+03 -0.31314943280E+03 -0.75928522820E+03  0.11251953736E+04  0.65864270000E+03 0. -1.
    8880022    1    1    2    0    0  0.39708663729E+03  0.31314943280E+03  0.11104418473E+01  0.52833062648E+03  0.15294330000E+03 0.  0.
<mgrwt>
<rscale>  0 0.74163207E+03</rscale>
<asrwt>0</asrwt>
<pdfrwt beam="1">  1        1 0.18551544E+00 0.83039182E+03</pdfrwt>
<pdfrwt beam="2">  1       -1 0.68873171E-01 0.83039182E+03</pdfrwt>
<totfact> 0.23040943E+01</totfact>
</mgrwt>
</event>
<event>
 4    1  0.8114601E-008  0.6608300E+03  0.7818608E-02  0.1023322E+00
         -1   -1    0    0    0  501 -0.00000000000E+00  0.00000000000E+00  0.89274297589E+03  0.89274297591E+03  0.50400000000E-02 0.  1.
          1   -1    0    0  501    0  0.00000000000E+00 -0.00000000000E+00 -0.33142911082E+04  0.33142911082E+04  0.50400000000E-02 0. -1.
    8880023    1    1    2    0    0  0.46818372206E+02 -0.26345514936E+02 -0.32736332937E+04  0.33396663297E+04  0.65864270000E+03 0. -1.
    8880022    1    1    2    0    0 -0.46818372206E+02  0.26345514936E+02  0.85208516137E+03  0.86736775440E+03  0.15294330000E+03 0.  0.
<mgrwt>
<rscale>  0 0.46506721E+03</rscale>
<asrwt>0</asrwt>
<pdfrwt beam="1">  1        1 0.50989093E+00 0.66082997E+03</pdfrwt>
<pdfrwt beam="2">  1       -1 0.13734507E+00 0.66082997E+03</pdfrwt>
<totfact> 0.17268070E-01</totfact>
</mgrwt>
</event>
<event>
 4    1  0.8114601E-008  0.1301261E+04  0.7818608E-02  0.9064472E-01
         -1   -1    0    0    0  501 -0.00000000000E+00  0.00000000000E+00  0.29573521691E+04  0.29573521691E+04  0.50400000000E-02 0.  1.
          1   -1    0    0  501    0  0.00000000000E+00 -0.00000000000E+00 -0.16451513663E+04  0.16451513663E+04  0.50400000000E-02 0. -1.
    8880023    1    1    2    0    0 -0.11016973861E+04  0.21385350955E+03  0.25878481030E+04  0.28965908349E+04  0.65864270000E+03 0.  0.
    8880022    1    1    2    0    0  0.11016973861E+04 -0.21385350955E+03 -0.12756473002E+04  0.17059127005E+04  0.15294330000E+03 0.  0.
<mgrwt>
<rscale>  0 0.12568859E+04</rscale>
<asrwt>0</asrwt>
<pdfrwt beam="1">  1        1 0.25310021E+00 0.13012612E+04</pdfrwt>
<pdfrwt beam="2">  1       -1 0.45497726E+00 0.13012612E+04</pdfrwt>
<totfact> 0.15117846E-02</totfact>
</mgrwt>
</event>
<event>
 4    1  0.8114601E-008  0.8595260E+03  0.7818608E-02  0.9594407E-01
          1   -1    0    0  501    0  0.00000000000E+00  0.00000000000E+00  0.21382210677E+04  0.21382210677E+04  0.50400000000E-02 0. -1.
         -1   -1    0    0    0  501 -0.00000000000E+00 -0.00000000000E+00 -0.66119799001E+03  0.66119799003E+03  0.50400000000E-02 0.  1.
    8880023    1    1    2    0    0 -0.53283154421E+03  0.14513905863E+03  0.19012034784E+04  0.20864706261E+04  0.65864270000E+03 0. -1.
    8880022    1    1    2    0    0  0.53283154421E+03 -0.14513905863E+03 -0.42418040072E+03  0.71294843167E+03  0.15294330000E+03 0.  0.
<mgrwt>
<rscale>  0 0.77667464E+03</rscale>
<asrwt>0</asrwt>
<pdfrwt beam="1">  1        1 0.32895709E+00 0.85952604E+03</pdfrwt>
<pdfrwt beam="2">  1       -1 0.10172277E+00 0.85952604E+03</pdfrwt>
<totfact> 0.22774358E+00</totfact>
</mgrwt>
</event>
<event>
 4    1  0.8114601E-008  0.6863357E+03  0.7818608E-02  0.1005945E+00
         -1   -1    0    0    0  501 -0.00000000000E+00  0.00000000000E+00  0.87493968908E+03  0.87493968910E+03  0.50400000000E-02 0.  1.
          1   -1    0    0  501    0  0.00000000000E+00 -0.00000000000E+00 -0.98376847380E+03  0.98376847381E+03  0.50400000000E-02 0. -1.
    8880023    1    1    2    0    0  0.10799416585E+02 -0.19269103472E+03 -0.84142007413E+03  0.10858381139E+04  0.65864270000E+03 0. -1.
    8880022    1    1    2    0    0 -0.10799416585E+02  0.19269103472E+03  0.73259128942E+03  0.77287004898E+03  0.15294330000E+03 0.  0.
<mgrwt>
<rscale>  0 0.53118481E+03</rscale>
<asrwt>0</asrwt>
<pdfrwt beam="1">  1        1 0.15134900E+00 0.68633568E+03</pdfrwt>
<pdfrwt beam="2">  1       -1 0.13460611E+00 0.68633568E+03</pdfrwt>
<totfact> 0.75503250E+00</totfact>
</mgrwt>
</event>
<event>
 4    1  0.8114601E-008  0.1158545E+04  0.7818608E-02  0.9198512E-01
         -1   -1    0    0    0  501 -0.00000000000E+00  0.00000000000E+00  0.15452799240E+04  0.15452799240E+04  0.50400000000E-02 0.  1.
          1   -1    0    0  501    0  0.00000000000E+00 -0.00000000000E+00 -0.10668389853E+04  0.10668389853E+04  0.50400000000E-02 0. -1.
    8880023    1    1    2    0    0 -0.52414295641E+03 -0.79604672254E+03 -0.47795130822E+03  0.12532612986E+04  0.65864270000E+03 0.  0.
    8880022    1    1    2    0    0  0.52414295641E+03  0.79604672254E+03  0.95639224693E+03  0.13588576107E+04  0.15294330000E+03 0.  0.
<mgrwt>
<rscale>  0 0.11068798E+04</rscale>
<asrwt>0</asrwt>
<pdfrwt beam="1">  1        1 0.16412908E+00 0.11585450E+04</pdfrwt>
<pdfrwt beam="2">  1       -1 0.23773537E+00 0.11585450E+04</pdfrwt>
<totfact> 0.11118056E+00</totfact>
</mgrwt>
</event>
<event>
 4    1  0.8114601E-008  0.6708843E+03  0.7818608E-02  0.1015037E+00
         -1   -1    0    0    0  501 -0.00000000000E+00  0.00000000000E+00  0.65679203836E+03  0.65679203838E+03  0.50400000000E-02 0.  1.
          1   -1    0    0  501    0  0.00000000000E+00 -0.00000000000E+00 -0.74958075955E+03  0.74958075956E+03  0.50400000000E-02 0. -1.
    8880023    1    1    2    0    0 -0.66406221383E+02  0.10892992897E+03 -0.57568012876E+03  0.88402111546E+03  0.65864270000E+03 0. -1.
    8880022    1    1    2    0    0  0.66406221383E+02 -0.10892992897E+03  0.48289140758E+03  0.52235168248E+03  0.15294330000E+03 0.  0.
<mgrwt>
<rscale>  0 0.49521024E+03</rscale>
<asrwt>0</asrwt>
<pdfrwt beam="1">  1        1 0.11532012E+00 0.67088428E+03</pdfrwt>
<pdfrwt beam="2">  1       -1 0.10104493E+00 0.67088428E+03</pdfrwt>
<totfact> 0.23633001E+01</totfact>
</mgrwt>
</event>
<event>
 4    1  0.8114601E-008  0.1501840E+04  0.7818608E-02  0.8908338E-01
         -1   -1    0    0    0  501 -0.00000000000E+00  0.00000000000E+00  0.63255720372E+03  0.63255720374E+03  0.50400000000E-02 0.  1.
          1   -1    0    0  501    0  0.00000000000E+00 -0.00000000000E+00 -0.41628963118E+04  0.41628963118E+04  0.50400000000E-02 0. -1.
    8880023    1    1    2    0    0 -0.12537547012E+04  0.49981125675E+03 -0.29659696029E+04  0.33245297464E+04  0.65864270000E+03 0.  0.
    8880022    1    1    2    0    0  0.12537547012E+04 -0.49981125675E+03 -0.56436950520E+03  0.14709237691E+04  0.15294330000E+03 0.  0.
<mgrwt>
<rscale>  0 0.14646042E+04</rscale>
<asrwt>0</asrwt>
<pdfrwt beam="1">  1        1 0.64044557E+00 0.15018397E+04</pdfrwt>
<pdfrwt beam="2">  1       -1 0.97316496E-01 0.15018397E+04</pdfrwt>
<totfact> 0.67491398E-02</totfact>
</mgrwt>
</event>
<event>
 4    1  0.8114601E-008  0.7934677E+03  0.7818608E-02  0.9725102E-01
          1   -1    0    0  501    0  0.00000000000E+00  0.00000000000E+00  0.16021699012E+04  0.16021699012E+04  0.50400000000E-02 0. -1.
         -1   -1    0    0    0  501 -0.00000000000E+00 -0.00000000000E+00 -0.97315614279E+03  0.97315614280E+03  0.50400000000E-02 0.  1.
    8880023    1    1    2    0    0  0.44245443421E+03  0.38567568128E+01  0.14369985790E+04  0.16415102569E+04  0.65864270000E+03 0.  0.
    8880022    1    1    2    0    0 -0.44245443421E+03 -0.38567568128E+01 -0.80798482064E+03  0.93381578715E+03  0.15294330000E+03 0.  1.
<mgrwt>
<rscale>  0 0.69541682E+03</rscale>
<asrwt>0</asrwt>
<pdfrwt beam="1">  1        1 0.24648768E+00 0.79346771E+03</pdfrwt>
<pdfrwt beam="2">  1       -1 0.14971633E+00 0.79346771E+03</pdfrwt>
<totfact> 0.20281491E+00</totfact>
</mgrwt>
</event>
<event>
 4    1  0.8114601E-008  0.1935538E+04  0.7818608E-02  0.8651049E-01
          1   -1    0    0  501    0  0.00000000000E+00  0.00000000000E+00  0.44351145594E+04  0.44351145594E+04  0.50400000000E-02 0. -1.
         -1   -1    0    0    0  501 -0.00000000000E+00 -0.00000000000E+00 -0.13628776462E+04  0.13628776463E+04  0.50400000000E-02 0.  1.
    8880023    1    1    2    0    0  0.68652252296E+03  0.16855807996E+04 -0.30412061466E+03  0.19592844003E+04  0.65864270000E+03 0.  0.
    8880022    1    1    2    0    0 -0.68652252296E+03 -0.16855807996E+04  0.33763575278E+04  0.38387078054E+04  0.15294330000E+03 0.  0.
<mgrwt>
<rscale>  0 0.19076673E+04</rscale>
<asrwt>0</asrwt>
<pdfrwt beam="1">  1        1 0.68232533E+00 0.19355377E+04</pdfrwt>
<pdfrwt beam="2">  1       -1 0.20967348E+00 0.19355377E+04</pdfrwt>
<totfact> 0.43820569E-03</totfact>
</mgrwt>
</event>
<event>
 4    1  0.8114601E-008  0.8381748E+03  0.7818608E-02  0.9633631E-01
         -1   -1    0    0    0  501 -0.00000000000E+00  0.00000000000E+00  0.11819903962E+04  0.11819903962E+04  0.50400000000E-02 0.  1.
          1   -1    0    0  501    0  0.00000000000E+00 -0.00000000000E+00 -0.87493054822E+03  0.87493054823E+03  0.50400000000E-02 0. -1.
    8880023    1    1    2    0    0 -0.21449822791E+03  0.47192938285E+03 -0.57922126368E+03  0.10188396884E+04  0.65864270000E+03 0.  0.
    8880022    1    1    2    0    0  0.21449822791E+03 -0.47192938285E+03  0.88628111166E+03  0.10380812560E+04  0.15294330000E+03 0.  0.
<mgrwt>
<rscale>  0 0.75109668E+03</rscale>
<asrwt>0</asrwt>
<pdfrwt beam="1">  1        1 0.13460470E+00 0.83817483E+03</pdfrwt>
<pdfrwt beam="2">  1       -1 0.18184468E+00 0.83817483E+03</pdfrwt>
<totfact> 0.39460773E+00</totfact>
</mgrwt>
</event>
<event>
 4    1  0.8114601E-008  0.7210994E+03  0.7818608E-02  0.9918884E-01
         -1   -1    0    0    0  501 -0.00000000000E+00  0.00000000000E+00  0.56224143018E+03  0.56224143020E+03  0.50400000000E-02 0.  1.
          1   -1    0    0  501    0  0.00000000000E+00 -0.00000000000E+00 -0.20082796701E+04  0.20082796701E+04  0.50400000000E-02 0. -1.
    8880023    1    1    2    0    0 -0.23120295398E+03  0.18088469521E+03 -0.18864577478E+04  0.20195809267E+04  0.65864270000E+03 0. -1.
    8880022    1    1    2    0    0  0.23120295398E+03 -0.18088469521E+03  0.44041950793E+03  0.55094017358E+03  0.15294330000E+03 0.  0.
<mgrwt>
<rscale>  0 0.59354777E+03</rscale>
<asrwt>0</asrwt>
<pdfrwt beam="1">  1        1 0.30896610E+00 0.72109936E+03</pdfrwt>
<pdfrwt beam="2">  1       -1 0.86498683E-01 0.72109936E+03</pdfrwt>
<totfact> 0.40965146E+00</totfact>
</mgrwt>
</event>
<event>
 4    1  0.8114601E-008  0.8367603E+03  0.7818608E-02  0.9636319E-01
          1   -1    0    0  501    0  0.00000000000E+00  0.00000000000E+00  0.23613774327E+04  0.23613774328E+04  0.50400000000E-02 0. -1.
         -1   -1    0    0    0  501 -0.00000000000E+00 -0.00000000000E+00 -0.95200125060E+03  0.95200125061E+03  0.50400000000E-02 0.  1.
    8880023    1    1    2    0    0  0.50397211671E+03  0.11121927636E+03  0.22017894521E+04  0.23554287550E+04  0.65864270000E+03 0. -1.
    8880022    1    1    2    0    0 -0.50397211671E+03 -0.11121927636E+03 -0.79241326999E+03  0.95794992841E+03  0.15294330000E+03 0.  0.
<mgrwt>
<rscale>  0 0.74938259E+03</rscale>
<asrwt>0</asrwt>
<pdfrwt beam="1">  1        1 0.36328884E+00 0.83676032E+03</pdfrwt>
<pdfrwt beam="2">  1       -1 0.14646173E+00 0.83676032E+03</pdfrwt>
<totfact> 0.65810577E-01</totfact>
</mgrwt>
</event>
<event>
 4    1  0.8114601E-008  0.1327554E+04  0.7818608E-02  0.9042123E-01
          1   -1    0    0  501    0  0.00000000000E+00  0.00000000000E+00  0.30202865159E+04  0.30202865159E+04  0.50400000000E-02 0. -1.
         -1   -1    0    0    0  501 -0.00000000000E+00 -0.00000000000E+00 -0.64750098598E+03  0.64750098600E+03  0.50400000000E-02 0.  1.
    8880023    1    1    2    0    0 -0.10815199703E+04 -0.39862849206E+03  0.20819921660E+04  0.24692289700E+04  0.65864270000E+03 0. -1.
    8880022    1    1    2    0    0  0.10815199703E+04  0.39862849206E+03  0.29079336392E+03  0.11985585319E+04  0.15294330000E+03 0.  0.
<mgrwt>
<rscale>  0 0.12842825E+04</rscale>
<asrwt>0</asrwt>
<pdfrwt beam="1">  1        1 0.46465946E+00 0.13275543E+04</pdfrwt>
<pdfrwt beam="2">  1       -1 0.99615538E-01 0.13275543E+04</pdfrwt>
<totfact> 0.54400379E-01</totfact>
</mgrwt>
</event>
<event>
 4    1  0.8114601E-008  0.9862975E+03  0.7818608E-02  0.9399708E-01
         -1   -1    0    0    0  501 -0.00000000000E+00  0.00000000000E+00  0.37720770055E+03  0.37720770058E+03  0.50400000000E-02 0.  1.
          1   -1    0    0  501    0  0.00000000000E+00 -0.00000000000E+00 -0.23412295708E+04  0.23412295708E+04  0.50400000000E-02 0. -1.
    8880023    1    1    2    0    0 -0.63558577364E+03 -0.36742803091E+03 -0.16125122198E+04  0.18902323928E+04  0.65864270000E+03 0.  0.
    8880022    1    1    2    0    0  0.63558577364E+03  0.36742803091E+03 -0.35150965049E+03  0.82820487861E+03  0.15294330000E+03 0.  0.
<mgrwt>
<rscale>  0 0.92099692E+03</rscale>
<asrwt>0</asrwt>
<pdfrwt beam="1">  1        1 0.36018916E+00 0.98629754E+03</pdfrwt>
<pdfrwt beam="2">  1       -1 0.58031955E-01 0.98629754E+03</pdfrwt>
<totfact> 0.53402831E+00</totfact>
</mgrwt>
</event>
<event>
 4    1  0.8114601E-008  0.1408587E+04  0.7818608E-02  0.8977039E-01
          1   -1    0    0  501    0  0.00000000000E+00  0.00000000000E+00  0.11511570221E+04  0.11511570221E+04  0.50400000000E-02 0. -1.
         -1   -1    0    0    0  501 -0.00000000000E+00 -0.00000000000E+00 -0.19789267201E+04  0.19789267201E+04  0.50400000000E-02 0.  1.
    8880023    1    1    2    0    0  0.26812731004E+03  0.12159012590E+04  0.30344166968E+03  0.14409008221E+04  0.65864270000E+03 0. -1.
    8880022    1    1    2    0    0 -0.26812731004E+03 -0.12159012590E+04 -0.11312113677E+04  0.16891829201E+04  0.15294330000E+03 0.  0.
<mgrwt>
<rscale>  0 0.13683685E+04</rscale>
<asrwt>0</asrwt>
<pdfrwt beam="1">  1        1 0.17710108E+00 0.14085874E+04</pdfrwt>
<pdfrwt beam="2">  1       -1 0.30445026E+00 0.14085874E+04</pdfrwt>
<totfact> 0.34410762E-01</totfact>
</mgrwt>
</event>
<event>
 4    1  0.8114601E-008  0.6721243E+03  0.7818608E-02  0.1014184E+00
          1   -1    0    0  501    0  0.00000000000E+00  0.00000000000E+00  0.51725613685E+03  0.51725613687E+03  0.50400000000E-02 0. -1.
         -1   -1    0    0    0  501 -0.00000000000E+00 -0.00000000000E+00 -0.66966830732E+03  0.66966830734E+03  0.50400000000E-02 0.  1.
    8880023    1    1    2    0    0 -0.13377284769E+03 -0.67592001438E+01  0.26512250621E+03  0.72252405574E+03  0.65864270000E+03 0. -1.
    8880022    1    1    2    0    0  0.13377284769E+03  0.67592001438E+01 -0.41753467668E+03  0.46440038847E+03  0.15294330000E+03 0.  0.
<mgrwt>
<rscale>  0 0.49845238E+03</rscale>
<asrwt>0</asrwt>
<pdfrwt beam="1">  1        1 0.79577868E-01 0.67212429E+03</pdfrwt>
<pdfrwt beam="2">  1       -1 0.10302589E+00 0.67212429E+03</pdfrwt>
<totfact> 0.38765858E+01</totfact>
</mgrwt>
</event>
<event>
 4    1  0.8114601E-008  0.1504946E+04  0.7818608E-02  0.8906151E-01
         -1   -1    0    0    0  501 -0.00000000000E+00  0.00000000000E+00  0.12143271868E+04  0.12143271868E+04  0.50400000000E-02 0.  1.
          1   -1    0    0  501    0  0.00000000000E+00 -0.00000000000E+00 -0.36112243474E+04  0.36112243474E+04  0.50400000000E-02 0. -1.
    8880023    1    1    2    0    0  0.96412415974E+03  0.94948209538E+03 -0.29844508431E+04  0.33424255693E+04  0.65864270000E+03 0.  0.
    8880022    1    1    2    0    0 -0.96412415974E+03 -0.94948209538E+03  0.58755368254E+03  0.14831259649E+04  0.15294330000E+03 0.  0.
<mgrwt>
<rscale>  0 0.14678015E+04</rscale>
<asrwt>0</asrwt>
<pdfrwt beam="1">  1        1 0.55557297E+00 0.15049458E+04</pdfrwt>
<pdfrwt beam="2">  1       -1 0.18681957E+00 0.15049458E+04</pdfrwt>
<totfact> 0.36129254E-02</totfact>
</mgrwt>
</event>
<event>
 4    1  0.8114601E-008  0.8234211E+03  0.7818608E-02  0.9662271E-01
         -1   -1    0    0    0  501 -0.00000000000E+00  0.00000000000E+00  0.76735371846E+03  0.76735371848E+03  0.50400000000E-02 0.  1.
          1   -1    0    0  501    0  0.00000000000E+00 -0.00000000000E+00 -0.11713878706E+04  0.11713878706E+04  0.50400000000E-02 0. -1.
    8880023    1    1    2    0    0 -0.43840322039E+03 -0.22806747070E+03 -0.90157072255E+03  0.12210045573E+04  0.65864270000E+03 0. -1.
    8880022    1    1    2    0    0  0.43840322039E+03  0.22806747070E+03  0.49753657045E+03  0.71773703178E+03  0.15294330000E+03 0.  0.
<mgrwt>
<rscale>  0 0.73308282E+03</rscale>
<asrwt>0</asrwt>
<pdfrwt beam="1">  1        1 0.18021352E+00 0.82342113E+03</pdfrwt>
<pdfrwt beam="2">  1       -1 0.11805442E+00 0.82342113E+03</pdfrwt>
<totfact> 0.74074159E+00</totfact>
</mgrwt>
</event>
<event>
 4    1  0.8114601E-008  0.7595734E+03  0.7818608E-02  0.9806213E-01
         -1   -1    0    0    0  501 -0.00000000000E+00  0.00000000000E+00  0.37966266713E+03  0.37966266717E+03  0.50400000000E-02 0.  1.
          1   -1    0    0  501    0  0.00000000000E+00 -0.00000000000E+00 -0.11708306644E+04  0.11708306645E+04  0.50400000000E-02 0. -1.
    8880023    1    1    2    0    0 -0.35829207370E+03 -0.12152505549E+03 -0.84802914762E+03  0.11384661570E+04  0.65864270000E+03 0. -1.
    8880022    1    1    2    0    0  0.35829207370E+03  0.12152505549E+03  0.56861150306E+02  0.41202717461E+03  0.15294330000E+03 0.  0.
<mgrwt>
<rscale>  0 0.65030174E+03</rscale>
<asrwt>0</asrwt>
<pdfrwt beam="1">  1        1 0.18012779E+00 0.75957340E+03</pdfrwt>
<pdfrwt beam="2">  1       -1 0.58409642E-01 0.75957340E+03</pdfrwt>
<totfact> 0.34234212E+01</totfact>
</mgrwt>
</event>
<event>
 4    1  0.8114601E-008  0.6825396E+03  0.7818608E-02  0.1007922E+00
          1   -1    0    0  501    0  0.00000000000E+00  0.00000000000E+00  0.52883355845E+03  0.52883355848E+03  0.50400000000E-02 0. -1.
         -1   -1    0    0    0  501 -0.00000000000E+00 -0.00000000000E+00 -0.55384057866E+03  0.55384057869E+03  0.50400000000E-02 0.  1.
    8880023    1    1    2    0    0 -0.14271697305E+03  0.10808309630E+03  0.24430428166E+03  0.72494474162E+03  0.65864270000E+03 0. -1.
    8880022    1    1    2    0    0  0.14271697305E+03 -0.10808309630E+03 -0.26931130187E+03  0.35772939554E+03  0.15294330000E+03 0.  0.
<mgrwt>
<rscale>  0 0.52308889E+03</rscale>
<asrwt>0</asrwt>
<pdfrwt beam="1">  1        1 0.81359009E-01 0.68253959E+03</pdfrwt>
<pdfrwt beam="2">  1       -1 0.85206243E-01 0.68253959E+03</pdfrwt>
<totfact> 0.57322935E+01</totfact>
</mgrwt>
</event>
<event>
 4    1  0.8114601E-008  0.9313172E+03  0.7818608E-02  0.9477520E-01
          1   -1    0    0  501    0  0.00000000000E+00  0.00000000000E+00  0.27772913842E+04  0.27772913842E+04  0.50400000000E-02 0. -1.
         -1   -1    0    0    0  501 -0.00000000000E+00 -0.00000000000E+00 -0.91723926704E+03  0.91723926705E+03  0.50400000000E-02 0.  1.
    8880023    1    1    2    0    0  0.61157857410E+03  0.24395318332E+03  0.25583847230E+04  0.27226244885E+04  0.65864270000E+03 0. -1.
    8880022    1    1    2    0    0 -0.61157857410E+03 -0.24395318332E+03 -0.69833260583E+03  0.97190616282E+03  0.15294330000E+03 0.  0.
<mgrwt>
<rscale>  0 0.85961661E+03</rscale>
<asrwt>0</asrwt>
<pdfrwt beam="1">  1        1 0.42727560E+00 0.93131719E+03</pdfrwt>
<pdfrwt beam="2">  1       -1 0.14111373E+00 0.93131719E+03</pdfrwt>
<totfact> 0.36817312E-01</totfact>
</mgrwt>
</event>
<event>
 4    1  0.8114601E-008  0.1223157E+04  0.7818608E-02  0.9134935E-01
          1   -1    0    0  501    0  0.00000000000E+00  0.00000000000E+00  0.21702630913E+04  0.21702630913E+04  0.50400000000E-02 0. -1.
         -1   -1    0    0    0  501 -0.00000000000E+00 -0.00000000000E+00 -0.84011302379E+03  0.84011302381E+03  0.50400000000E-02 0.  1.
    8880023    1    1    2    0    0  0.59525740041E+03 -0.84140993071E+03  0.15202367199E+04  0.19512129395E+04  0.65864270000E+03 0.  0.
    8880022    1    1    2    0    0 -0.59525740041E+03  0.84140993071E+03 -0.19008665242E+03  0.10591631757E+04  0.15294330000E+03 0.  0.
<mgrwt>
<rscale>  0 0.11751004E+04</rscale>
<asrwt>0</asrwt>
<pdfrwt beam="1">  1        1 0.33388663E+00 0.12231567E+04</pdfrwt>
<pdfrwt beam="2">  1       -1 0.12924816E+00 0.12231567E+04</pdfrwt>
<totfact> 0.11538851E+00</totfact>
</mgrwt>
</event>
<event>
 4    1  0.8114601E-008  0.7913039E+03  0.7818608E-02  0.9729924E-01
          1   -1    0    0  501    0  0.00000000000E+00  0.00000000000E+00  0.10558055395E+04  0.10558055395E+04  0.50400000000E-02 0. -1.
         -1   -1    0    0    0  501 -0.00000000000E+00 -0.00000000000E+00 -0.55020239895E+03  0.55020239898E+03  0.50400000000E-02 0.  1.
    8880023    1    1    2    0    0 -0.25640639397E+03 -0.35581929611E+03  0.74205254671E+03  0.10848058806E+04  0.65864270000E+03 0.  0.
    8880022    1    1    2    0    0  0.25640639397E+03  0.35581929611E+03 -0.23644940620E+03  0.52120205780E+03  0.15294330000E+03 0.  0.
<mgrwt>
<rscale>  0 0.69262733E+03</rscale>
<asrwt>0</asrwt>
<pdfrwt beam="1">  1        1 0.16243162E+00 0.79130387E+03</pdfrwt>
<pdfrwt beam="2">  1       -1 0.84646523E-01 0.79130387E+03</pdfrwt>
<totfact> 0.19392526E+01</totfact>
</mgrwt>
</event>
<event>
 4    1  0.8114601E-008  0.7387164E+03  0.7818608E-02  0.9863702E-01
          1   -1    0    0  501    0  0.00000000000E+00  0.00000000000E+00  0.14685705271E+04  0.14685705271E+04  0.50400000000E-02 0. -1.
         -1   -1    0    0    0  501 -0.00000000000E+00 -0.00000000000E+00 -0.22803043435E+03  0.22803043441E+03  0.50400000000E-02 0.  1.
    8880023    1    1    2    0    0 -0.37818601007E+02 -0.33235753680E+03  0.57475045671E+03  0.93597012378E+03  0.65864270000E+03 0.  1.
    8880022    1    1    2    0    0  0.37818601007E+02  0.33235753680E+03  0.66578963600E+03  0.76063083771E+03  0.15294330000E+03 0.  0.
<mgrwt>
<rscale>  0 0.62053160E+03</rscale>
<asrwt>0</asrwt>
<pdfrwt beam="1">  1        1 0.22593393E+00 0.73871644E+03</pdfrwt>
<pdfrwt beam="2">  1       -1 0.35081604E-01 0.73871644E+03</pdfrwt>
<totfact> 0.54657960E+01</totfact>
</mgrwt>
</event>
<event>
 4    1  0.8114601E-008  0.9719667E+03  0.7818608E-02  0.9419189E-01
         -1   -1    0    0    0  501 -0.00000000000E+00  0.00000000000E+00  0.88421518090E+03  0.88421518091E+03  0.50400000000E-02 0.  1.
          1   -1    0    0  501    0  0.00000000000E+00 -0.00000000000E+00 -0.10940723255E+04  0.10940723255E+04  0.50400000000E-02 0. -1.
    8880023    1    1    2    0    0  0.76827841846E+02  0.71063808858E+03 -0.60746921767E+03  0.11461841331E+04  0.65864270000E+03 0. -1.
    8880022    1    1    2    0    0 -0.76827841846E+02 -0.71063808858E+03  0.39761207309E+03  0.83210337333E+03  0.15294330000E+03 0.  0.
<mgrwt>
<rscale>  0 0.90513164E+03</rscale>
<asrwt>0</asrwt>
<pdfrwt beam="1">  1        1 0.16831882E+00 0.97196667E+03</pdfrwt>
<pdfrwt beam="2">  1       -1 0.13603311E+00 0.97196667E+03</pdfrwt>
<totfact> 0.58212453E+00</totfact>
</mgrwt>
</event>
<event>
 4    1  0.8114601E-008  0.7277033E+03  0.7818608E-02  0.9897333E-01
          1   -1    0    0  501    0  0.00000000000E+00  0.00000000000E+00  0.67078715495E+03  0.67078715497E+03  0.50400000000E-02 0. -1.
         -1   -1    0    0    0  501 -0.00000000000E+00 -0.00000000000E+00 -0.75565412580E+03  0.75565412582E+03  0.50400000000E-02 0.  1.
    8880023    1    1    2    0    0  0.22127214996E+03  0.21628813222E+03  0.40067597967E+03  0.83071858498E+03  0.65864270000E+03 0. -1.
    8880022    1    1    2    0    0 -0.22127214996E+03 -0.21628813222E+03 -0.48554295052E+03  0.59572269581E+03  0.15294330000E+03 0.  0.
<mgrwt>
<rscale>  0 0.60390697E+03</rscale>
<asrwt>0</asrwt>
<pdfrwt beam="1">  1        1 0.10319802E+00 0.72770332E+03</pdfrwt>
<pdfrwt beam="2">  1       -1 0.11625448E+00 0.72770332E+03</pdfrwt>
<totfact> 0.20001655E+01</totfact>
</mgrwt>
</event>
<event>
 4    1  0.8114601E-008  0.9398287E+03  0.7818608E-02  0.9464902E-01
          1   -1    0    0  501    0  0.00000000000E+00  0.00000000000E+00  0.21530550111E+04  0.21530550111E+04  0.50400000000E-02 0. -1.
         -1   -1    0    0    0  501 -0.00000000000E+00 -0.00000000000E+00 -0.15762198821E+04  0.15762198821E+04  0.50400000000E-02 0.  1.
    8880023    1    1    2    0    0  0.59568357004E+03 -0.30761814349E+03 -0.13718027162E+04  0.16628652189E+04  0.65864270000E+03 0.  0.
    8880022    1    1    2    0    0 -0.59568357004E+03  0.30761814349E+03  0.19486378452E+04  0.20664096744E+04  0.15294330000E+03 0.  0.
<mgrwt>
<rscale>  0 0.86921668E+03</rscale>
<asrwt>0</asrwt>
<pdfrwt beam="1">  1        1 0.33123923E+00 0.93982873E+03</pdfrwt>
<pdfrwt beam="2">  1       -1 0.24249537E+00 0.93982873E+03</pdfrwt>
<totfact> 0.18863837E-01</totfact>
</mgrwt>
</event>
<event>
 4    1  0.8114601E-008  0.7128861E+03  0.7818608E-02  0.9947436E-01
         -1   -1    0    0    0  501 -0.00000000000E+00  0.00000000000E+00  0.28338895732E+03  0.28338895736E+03  0.50400000000E-02 0.  1.
          1   -1    0    0  501    0  0.00000000000E+00 -0.00000000000E+00 -0.21862103032E+04  0.21862103032E+04  0.50400000000E-02 0. -1.
    8880023    1    1    2    0    0 -0.15540795632E+03 -0.22415327630E+03 -0.20296143664E+03  0.74121513422E+03  0.65864270000E+03 0.  0.
    8880022    1    1    2    0    0  0.15540795632E+03  0.22415327630E+03 -0.16998599093E+04  0.17283841264E+04  0.15294330000E+03 0.  0.
<mgrwt>
<rscale>  0 0.58016400E+03</rscale>
<asrwt>0</asrwt>
<pdfrwt beam="1">  1        1 0.33634004E+00 0.71288606E+03</pdfrwt>
<pdfrwt beam="2">  1       -1 0.43598302E-01 0.71288606E+03</pdfrwt>
<totfact> 0.12184206E+01</totfact>
</mgrwt>
</event>
<event>
 4    1  0.8114601E-008  0.1549968E+04  0.7818608E-02  0.8875135E-01
          1   -1    0    0  501    0  0.00000000000E+00  0.00000000000E+00  0.19529848457E+04  0.19529848458E+04  0.50400000000E-02 0. -1.
         -1   -1    0    0    0  501 -0.00000000000E+00 -0.00000000000E+00 -0.11567769133E+04  0.11567769133E+04  0.50400000000E-02 0.  1.
    8880023    1    1    2    0    0  0.83424704036E+03 -0.11281053805E+04  0.14914207828E+03  0.15571266614E+04  0.65864270000E+03 0.  0.
    8880022    1    1    2    0    0 -0.83424704036E+03  0.11281053805E+04  0.64706585421E+03  0.15526350977E+04  0.15294330000E+03 0.  0.
<mgrwt>
<rscale>  0 0.15140934E+04</rscale>
<asrwt>0</asrwt>
<pdfrwt beam="1">  1        1 0.30045920E+00 0.15499678E+04</pdfrwt>
<pdfrwt beam="2">  1       -1 0.17796568E+00 0.15499678E+04</pdfrwt>
<totfact> 0.65052699E-01</totfact>
</mgrwt>
</event>
<event>
 4    1  0.8114601E-008  0.7639899E+03  0.7818608E-02  0.9794886E-01
         -1   -1    0    0    0  501 -0.00000000000E+00  0.00000000000E+00  0.47146757142E+03  0.47146757145E+03  0.50400000000E-02 0.  1.
          1   -1    0    0  501    0  0.00000000000E+00 -0.00000000000E+00 -0.22217750779E+04  0.22217750779E+04  0.50400000000E-02 0. -1.
    8880023    1    1    2    0    0  0.36998678491E+01  0.38711319500E+03 -0.20451238121E+04  0.21831655750E+04  0.65864270000E+03 0. -1.
    8880022    1    1    2    0    0 -0.36998678491E+01 -0.38711319500E+03  0.29481630559E+03  0.51007707439E+03  0.15294330000E+03 0.  0.
<mgrwt>
<rscale>  0 0.65637738E+03</rscale>
<asrwt>0</asrwt>
<pdfrwt beam="1">  1        1 0.34181154E+00 0.76398987E+03</pdfrwt>
<pdfrwt beam="2">  1       -1 0.72533474E-01 0.76398987E+03</pdfrwt>
<totfact> 0.42458346E+00</totfact>
</mgrwt>
</event>
<event>
 4    1  0.8114601E-008  0.1059055E+04  0.7818608E-02  0.9308074E-01
         -1   -1    0    0    0  501 -0.00000000000E+00  0.00000000000E+00  0.93109795690E+03  0.93109795691E+03  0.50400000000E-02 0.  1.
          1   -1    0    0  501    0  0.00000000000E+00 -0.00000000000E+00 -0.15090005204E+04  0.15090005204E+04  0.50400000000E-02 0. -1.
    8880023    1    1    2    0    0 -0.74768389885E+03  0.35882735583E+03 -0.10350443567E+04  0.14808495232E+04  0.65864270000E+03 0.  0.
    8880022    1    1    2    0    0  0.74768389885E+03 -0.35882735583E+03  0.45714179317E+03  0.95924895411E+03  0.15294330000E+03 0.  0.
<mgrwt>
<rscale>  0 0.10004295E+04</rscale>
<asrwt>0</asrwt>
<pdfrwt beam="1">  1        1 0.23215393E+00 0.10590555E+04</pdfrwt>
<pdfrwt beam="2">  1       -1 0.14324584E+00 0.10590555E+04</pdfrwt>
<totfact> 0.25390315E+00</totfact>
</mgrwt>
</event>
<event>
 4    1  0.8114601E-008  0.8559854E+03  0.7818608E-02  0.9600745E-01
          1   -1    0    0  501    0  0.00000000000E+00  0.00000000000E+00  0.14867941355E+04  0.14867941355E+04  0.50400000000E-02 0. -1.
         -1   -1    0    0    0  501 -0.00000000000E+00 -0.00000000000E+00 -0.49819499983E+03  0.49819499985E+03  0.50400000000E-02 0.  1.
    8880023    1    1    2    0    0 -0.43387978199E+03  0.33263968257E+03  0.11127187701E+04  0.14038711092E+04  0.65864270000E+03 0. -1.
    8880022    1    1    2    0    0  0.43387978199E+03 -0.33263968257E+03 -0.12411963443E+03  0.58111802615E+03  0.15294330000E+03 0.  0.
<mgrwt>
<rscale>  0 0.77246897E+03</rscale>
<asrwt>0</asrwt>
<pdfrwt beam="1">  1        1 0.22873755E+00 0.85598541E+03</pdfrwt>
<pdfrwt beam="2">  1       -1 0.76645386E-01 0.85598541E+03</pdfrwt>
<totfact> 0.11671448E+01</totfact>
</mgrwt>
</event>
<event>
 4    1  0.8114601E-008  0.8851724E+03  0.7818608E-02  0.9550267E-01
         -1   -1    0    0    0  501 -0.00000000000E+00  0.00000000000E+00  0.93214421020E+03  0.93214421022E+03  0.50400000000E-02 0.  1.
          1   -1    0    0  501    0  0.00000000000E+00 -0.00000000000E+00 -0.24059757136E+04  0.24059757136E+04  0.50400000000E-02 0. -1.
    8880023    1    1    2    0    0 -0.58724418156E+02 -0.58844830321E+03 -0.22105041146E+04  0.23811464906E+04  0.65864270000E+03 0. -1.
    8880022    1    1    2    0    0  0.58724418156E+02  0.58844830321E+03  0.73667261118E+03  0.95697343323E+03  0.15294330000E+03 0.  0.
<mgrwt>
<rscale>  0 0.80677186E+03</rscale>
<asrwt>0</asrwt>
<pdfrwt beam="1">  1        1 0.37015011E+00 0.88517240E+03</pdfrwt>
<pdfrwt beam="2">  1       -1 0.14340680E+00 0.88517240E+03</pdfrwt>
<totfact> 0.64278056E-01</totfact>
</mgrwt>
</event>
<event>
 4    1  0.8114601E-008  0.1347107E+04  0.7818608E-02  0.9025912E-01
         -1   -1    0    0    0  501 -0.00000000000E+00  0.00000000000E+00  0.15485487831E+04  0.15485487831E+04  0.50400000000E-02 0.  1.
          1   -1    0    0  501    0  0.00000000000E+00 -0.00000000000E+00 -0.18712958551E+04  0.18712958551E+04  0.50400000000E-02 0. -1.
    8880023    1    1    2    0    0  0.73663919679E+03  0.91555927436E+03 -0.13088181735E+04  0.18782175882E+04  0.65864270000E+03 0.  0.
    8880022    1    1    2    0    0 -0.73663919679E+03 -0.91555927436E+03  0.98607110152E+03  0.15416270500E+04  0.15294330000E+03 0.  0.
<mgrwt>
<rscale>  0 0.13046172E+04</rscale>
<asrwt>0</asrwt>
<pdfrwt beam="1">  1        1 0.28789167E+00 0.13471066E+04</pdfrwt>
<pdfrwt beam="2">  1       -1 0.23823827E+00 0.13471066E+04</pdfrwt>
<totfact> 0.29188351E-01</totfact>
</mgrwt>
</event>
<event>
 4    1  0.8114601E-008  0.8653315E+03  0.7818608E-02  0.9584149E-01
         -1   -1    0    0    0  501 -0.00000000000E+00  0.00000000000E+00  0.68036402021E+03  0.68036402022E+03  0.50400000000E-02 0.  1.
          1   -1    0    0  501    0  0.00000000000E+00 -0.00000000000E+00 -0.35817887003E+04  0.35817887003E+04  0.50400000000E-02 0. -1.
    8880023    1    1    2    0    0 -0.34482705268E+03  0.44281227065E+03 -0.33923505556E+04  0.35009771353E+04  0.65864270000E+03 0. -1.
    8880022    1    1    2    0    0  0.34482705268E+03 -0.44281227065E+03  0.49092587553E+03  0.76117558524E+03  0.15294330000E+03 0.  0.
<mgrwt>
<rscale>  0 0.78354236E+03</rscale>
<asrwt>0</asrwt>
<pdfrwt beam="1">  1        1 0.55104441E+00 0.86533150E+03</pdfrwt>
<pdfrwt beam="2">  1       -1 0.10467139E+00 0.86533150E+03</pdfrwt>
<totfact> 0.19776500E-01</totfact>
</mgrwt>
</event>
<event>
 4    1  0.8114601E-008  0.1096829E+04  0.7818608E-02  0.9264595E-01
          1   -1    0    0  501    0  0.00000000000E+00  0.00000000000E+00  0.27937376338E+04  0.27937376338E+04  0.50400000000E-02 0. -1.
         -1   -1    0    0    0  501 -0.00000000000E+00 -0.00000000000E+00 -0.52280272565E+03  0.52280272567E+03  0.50400000000E-02 0.  1.
    8880023    1    1    2    0    0  0.36894854454E+02  0.87627744832E+03  0.21558720038E+04  0.24188463572E+04  0.65864270000E+03 0.  0.
    8880022    1    1    2    0    0 -0.36894854454E+02 -0.87627744832E+03  0.11506290435E+03  0.89769400226E+03  0.15294330000E+03 0.  0.
<mgrwt>
<rscale>  0 0.10410868E+04</rscale>
<asrwt>0</asrwt>
<pdfrwt beam="1">  1        1 0.42980579E+00 0.10968289E+04</pdfrwt>
<pdfrwt beam="2">  1       -1 0.80431188E-01 0.10968289E+04</pdfrwt>
<totfact> 0.13105305E+00</totfact>
</mgrwt>
</event>
<event>
 4    1  0.8114601E-008  0.1673257E+04  0.7818608E-02  0.8796089E-01
         -1   -1    0    0    0  501 -0.00000000000E+00  0.00000000000E+00  0.17718942504E+04  0.17718942504E+04  0.50400000000E-02 0.  1.
          1   -1    0    0  501    0  0.00000000000E+00 -0.00000000000E+00 -0.17424449658E+04  0.17424449658E+04  0.50400000000E-02 0. -1.
    8880023    1    1    2    0    0  0.14790174989E+04  0.42247773700E+03 -0.68926582163E+03  0.18096623385E+04  0.65864270000E+03 0.  0.
    8880022    1    1    2    0    0 -0.14790174989E+04 -0.42247773700E+03  0.71871510615E+03  0.17046768777E+04  0.15294330000E+03 0.  0.
<mgrwt>
<rscale>  0 0.16404294E+04</rscale>
<asrwt>0</asrwt>
<pdfrwt beam="1">  1        1 0.26806846E+00 0.16732574E+04</pdfrwt>
<pdfrwt beam="2">  1       -1 0.27259911E+00 0.16732574E+04</pdfrwt>
<totfact> 0.20519551E-01</totfact>
</mgrwt>
</event>
<event>
 4    1  0.8114601E-008  0.8402754E+03  0.7818608E-02  0.9629661E-01
         -1   -1    0    0    0  501 -0.00000000000E+00  0.00000000000E+00  0.27939993179E+04  0.27939993179E+04  0.50400000000E-02 0.  1.
          1   -1    0    0  501    0  0.00000000000E+00 -0.00000000000E+00 -0.44476749387E+03  0.44476749389E+03  0.50400000000E-02 0. -1.
    8880023    1    1    2    0    0  0.29368107771E+03 -0.43128173685E+03  0.13292469179E+02  0.84038051378E+03  0.65864270000E+03 0.  0.
    8880022    1    1    2    0    0 -0.29368107771E+03  0.43128173685E+03  0.23359393549E+04  0.23983862980E+04  0.15294330000E+03 0.  0.
<mgrwt>
<rscale>  0 0.75363732E+03</rscale>
<asrwt>0</asrwt>
<pdfrwt beam="1">  1        1 0.68425766E-01 0.84027538E+03</pdfrwt>
<pdfrwt beam="2">  1       -1 0.42984606E+00 0.84027538E+03</pdfrwt>
<totfact> 0.24494530E-01</totfact>
</mgrwt>
</event>
<event>
 4    1  0.8114601E-008  0.6681208E+03  0.7818608E-02  0.1017047E+00
         -1   -1    0    0    0  501 -0.00000000000E+00  0.00000000000E+00  0.51373693928E+03  0.51373693930E+03  0.50400000000E-02 0.  1.
          1   -1    0    0  501    0  0.00000000000E+00 -0.00000000000E+00 -0.36228113733E+03  0.36228113737E+03  0.50400000000E-02 0. -1.
    8880023    1    1    2    0    0 -0.82500904416E+02  0.75952808838E+02  0.78075380845E+02  0.67266722810E+03  0.65864270000E+03 0. -1.
    8880022    1    1    2    0    0  0.82500904416E+02 -0.75952808838E+02  0.73380421100E+02  0.20335084857E+03  0.15294330000E+03 0.  1.
<mgrwt>
<rscale>  0 0.48767344E+03</rscale>
<asrwt>0</asrwt>
<pdfrwt beam="1">  1        1 0.55735559E-01 0.66812082E+03</pdfrwt>
<pdfrwt beam="2">  1       -1 0.79036453E-01 0.66812082E+03</pdfrwt>
<totfact> 0.11192924E+02</totfact>
</mgrwt>
</event>
<event>
 4    1  0.8114601E-008  0.7473072E+03  0.7818608E-02  0.9839151E-01
          1   -1    0    0  501    0  0.00000000000E+00  0.00000000000E+00  0.19303778475E+04  0.19303778475E+04  0.50400000000E-02 0. -1.
         -1   -1    0    0    0  501 -0.00000000000E+00 -0.00000000000E+00 -0.31549137181E+03  0.31549137185E+03  0.50400000000E-02 0.  1.
    8880023    1    1    2    0    0 -0.25453253033E+03 -0.24468571295E+03  0.16953720151E+04  0.18527693820E+04  0.65864270000E+03 0. -1.
    8880022    1    1    2    0    0  0.25453253033E+03  0.24468571295E+03 -0.80485539336E+02  0.39309983741E+03  0.15294330000E+03 0.  0.
<mgrwt>
<rscale>  0 0.63303144E+03</rscale>
<asrwt>0</asrwt>
<pdfrwt beam="1">  1        1 0.29698121E+00 0.74730724E+03</pdfrwt>
<pdfrwt beam="2">  1       -1 0.48537134E-01 0.74730724E+03</pdfrwt>
<totfact> 0.14712984E+01</totfact>
</mgrwt>
</event>
<event>
 4    1  0.8114601E-008  0.8543023E+03  0.7818608E-02  0.9603780E-01
          1   -1    0    0  501    0  0.00000000000E+00  0.00000000000E+00  0.22836281847E+04  0.22836281847E+04  0.50400000000E-02 0. -1.
         -1   -1    0    0    0  501 -0.00000000000E+00 -0.00000000000E+00 -0.27788190882E+03  0.27788190887E+03  0.50400000000E-02 0.  1.
    8880023    1    1    2    0    0 -0.94884585663E+02  0.53574168898E+03  0.59309129829E+03  0.10399950655E+04  0.65864270000E+03 0.  0.
    8880022    1    1    2    0    0  0.94884585663E+02 -0.53574168898E+03  0.14126549776E+04  0.15215150280E+04  0.15294330000E+03 0.  0.
<mgrwt>
<rscale>  0 0.77046500E+03</rscale>
<asrwt>0</asrwt>
<pdfrwt beam="1">  1        1 0.35132741E+00 0.85430232E+03</pdfrwt>
<pdfrwt beam="2">  1       -1 0.42751063E-01 0.85430232E+03</pdfrwt>
<totfact> 0.10634616E+01</totfact>
</mgrwt>
</event>
<event>
 4    1  0.8114601E-008  0.9765300E+03  0.7818608E-02  0.9412929E-01
         -1   -1    0    0    0  501 -0.00000000000E+00  0.00000000000E+00  0.31796625382E+03  0.31796625386E+03  0.50400000000E-02 0.  1.
          1   -1    0    0  501    0  0.00000000000E+00 -0.00000000000E+00 -0.29887921739E+04  0.29887921739E+04  0.50400000000E-02 0. -1.
    8880023    1    1    2    0    0  0.71353546081E+03 -0.10328541113E+03 -0.22623654543E+04  0.24641242633E+04  0.65864270000E+03 0.  0.
    8880022    1    1    2    0    0 -0.71353546081E+03  0.10328541113E+03 -0.40846046580E+03  0.84263416447E+03  0.15294330000E+03 0.  0.
<mgrwt>
<rscale>  0 0.91019285E+03</rscale>
<asrwt>0</asrwt>
<pdfrwt beam="1">  1        1 0.45981416E+00 0.97653005E+03</pdfrwt>
<pdfrwt beam="2">  1       -1 0.48917887E-01 0.97653005E+03</pdfrwt>
<totfact> 0.26281741E+00</totfact>
</mgrwt>
</event>
<event>
 4    1  0.8114601E-008  0.9991576E+03  0.7818608E-02  0.9382661E-01
          1   -1    0    0  501    0  0.00000000000E+00  0.00000000000E+00  0.30984844258E+04  0.30984844258E+04  0.50400000000E-02 0. -1.
         -1   -1    0    0    0  501 -0.00000000000E+00 -0.00000000000E+00 -0.29654484696E+03  0.29654484700E+03  0.50400000000E-02 0.  1.
    8880023    1    1    2    0    0  0.75128161149E+03 -0.90314228100E+01  0.22133404096E+04  0.24284133918E+04  0.65864270000E+03 0.  0.
    8880022    1    1    2    0    0 -0.75128161149E+03  0.90314228100E+01  0.58859916918E+03  0.96661588097E+03  0.15294330000E+03 0.  0.
<mgrwt>
<rscale>  0 0.93516483E+03</rscale>
<asrwt>0</asrwt>
<pdfrwt beam="1">  1        1 0.47668992E+00 0.99915756E+03</pdfrwt>
<pdfrwt beam="2">  1       -1 0.45622284E-01 0.99915756E+03</pdfrwt>
<totfact> 0.24868782E+00</totfact>
</mgrwt>
</event>
<event>
 4    1  0.8114601E-008  0.1689209E+04  0.7818608E-02  0.8786432E-01
          1   -1    0    0  501    0  0.00000000000E+00  0.00000000000E+00  0.29762932871E+04  0.29762932871E+04  0.50400000000E-02 0. -1.
         -1   -1    0    0    0  501 -0.00000000000E+00 -0.00000000000E+00 -0.12875481181E+04  0.12875481181E+04  0.50400000000E-02 0.  1.
    8880023    1    1    2    0    0  0.12826913674E+04  0.87995378175E+03  0.20533310609E+04  0.26588708984E+04  0.65864270000E+03 0.  0.
    8880022    1    1    2    0    0 -0.12826913674E+04 -0.87995378175E+03 -0.36458589192E+03  0.16049705068E+04  0.15294330000E+03 0.  0.
<mgrwt>
<rscale>  0 0.16567351E+04</rscale>
<asrwt>0</asrwt>
<pdfrwt beam="1">  1        1 0.45789127E+00 0.16892087E+04</pdfrwt>
<pdfrwt beam="2">  1       -1 0.19808433E+00 0.16892087E+04</pdfrwt>
<totfact> 0.89330533E-02</totfact>
</mgrwt>
</event>
<event>
 4    1  0.8114601E-008  0.7175381E+03  0.7818608E-02  0.9931006E-01
          1   -1    0    0  501    0  0.00000000000E+00  0.00000000000E+00  0.38704572231E+04  0.38704572231E+04  0.50400000000E-02 0. -1.
         -1   -1    0    0    0  501 -0.00000000000E+00 -0.00000000000E+00 -0.88861865953E+02  0.88861866096E+02  0.50400000000E-02 0.  1.
    8880023    1    1    2    0    0 -0.36937976103E+02 -0.28228768714E+03  0.33147804331E+04  0.33915527827E+04  0.65864270000E+03 0. -1.
    8880022    1    1    2    0    0  0.36937976103E+02  0.28228768714E+03  0.46681492404E+03  0.56776630642E+03  0.15294330000E+03 0.  0.
<mgrwt>
<rscale>  0 0.58781863E+03</rscale>
<asrwt>0</asrwt>
<pdfrwt beam="1">  1        1 0.59545489E+00 0.71753812E+03</pdfrwt>
<pdfrwt beam="2">  1       -1 0.13671058E-01 0.71753812E+03</pdfrwt>
<totfact> 0.52161208E+00</totfact>
</mgrwt>
</event>
<event>
 4    1  0.8114601E-008  0.1104559E+04  0.7818608E-02  0.9255997E-01
         -1   -1    0    0    0  501 -0.00000000000E+00  0.00000000000E+00  0.13939407411E+04  0.13939407411E+04  0.50400000000E-02 0.  1.
          1   -1    0    0  501    0  0.00000000000E+00 -0.00000000000E+00 -0.75014244220E+03  0.75014244222E+03  0.50400000000E-02 0. -1.
    8880023    1    1    2    0    0  0.78002775400E+03 -0.42166070304E+03  0.56545531215E+03  0.12408831379E+04  0.65864270000E+03 0.  0.
    8880022    1    1    2    0    0 -0.78002775400E+03  0.42166070304E+03  0.78342986702E+02  0.90320004544E+03  0.15294330000E+03 0.  0.
<mgrwt>
<rscale>  0 0.10493679E+04</rscale>
<asrwt>0</asrwt>
<pdfrwt beam="1">  1        1 0.11540653E+00 0.11045593E+04</pdfrwt>
<pdfrwt beam="2">  1       -1 0.21445242E+00 0.11045593E+04</pdfrwt>
<totfact> 0.29162064E+00</totfact>
</mgrwt>
</event>
<event>
 4    1  0.8114601E-008  0.1030627E+04  0.7818608E-02  0.9342542E-01
         -1   -1    0    0    0  501 -0.00000000000E+00  0.00000000000E+00  0.65912553100E+03  0.65912553102E+03  0.50400000000E-02 0.  1.
          1   -1    0    0  501    0  0.00000000000E+00 -0.00000000000E+00 -0.27564231108E+04  0.27564231108E+04  0.50400000000E-02 0. -1.
    8880023    1    1    2    0    0  0.65701063787E+03 -0.44352934603E+03 -0.23529052302E+04  0.25687262384E+04  0.65864270000E+03 0. -1.
    8880022    1    1    2    0    0 -0.65701063787E+03  0.44352934603E+03  0.25560765039E+03  0.84682240347E+03  0.15294330000E+03 0.  0.
<mgrwt>
<rscale>  0 0.96958992E+03</rscale>
<asrwt>0</asrwt>
<pdfrwt beam="1">  1        1 0.42406509E+00 0.10306267E+04</pdfrwt>
<pdfrwt beam="2">  1       -1 0.10140393E+00 0.10306267E+04</pdfrwt>
<totfact> 0.84108354E-01</totfact>
</mgrwt>
</event>
<event>
 4    1  0.8114601E-008  0.1709402E+04  0.7818608E-02  0.8774380E-01
          1   -1    0    0  501    0  0.00000000000E+00  0.00000000000E+00  0.18964627487E+04  0.18964627487E+04  0.50400000000E-02 0. -1.
         -1   -1    0    0    0  501 -0.00000000000E+00 -0.00000000000E+00 -0.14586181534E+04  0.14586181535E+04  0.50400000000E-02 0.  1.
    8880023    1    1    2    0    0 -0.11485129223E+04 -0.10812783012E+04  0.45962909685E+03  0.17701168917E+04  0.65864270000E+03 0.  1.
    8880022    1    1    2    0    0  0.11485129223E+04  0.10812783012E+04 -0.21784501567E+02  0.15849640105E+04  0.15294330000E+03 0. -1.
<mgrwt>
<rscale>  0 0.16773656E+04</rscale>
<asrwt>0</asrwt>
<pdfrwt beam="1">  1        1 0.29176350E+00 0.17094019E+04</pdfrwt>
<pdfrwt beam="2">  1       -1 0.22440279E+00 0.17094019E+04</pdfrwt>
<totfact> 0.33284004E-01</totfact>
</mgrwt>
</event>
<event>
 4    1  0.8114601E-008  0.7274897E+03  0.7818608E-02  0.9898013E-01
         -1   -1    0    0    0  501 -0.00000000000E+00  0.00000000000E+00  0.13294413094E+04  0.13294413094E+04  0.50400000000E-02 0.  1.
          1   -1    0    0  501    0  0.00000000000E+00 -0.00000000000E+00 -0.90513519650E+03  0.90513519651E+03  0.50400000000E-02 0. -1.
    8880023    1    1    2    0    0 -0.30885122231E+03  0.64775369589E+01 -0.72957855809E+03  0.10303038943E+04  0.65864270000E+03 0. -1.
    8880022    1    1    2    0    0  0.30885122231E+03 -0.64775369589E+01  0.11538846710E+04  0.12042726115E+04  0.15294330000E+03 0.  0.
<mgrwt>
<rscale>  0 0.60357682E+03</rscale>
<asrwt>0</asrwt>
<pdfrwt beam="1">  1        1 0.13925157E+00 0.72748969E+03</pdfrwt>
<pdfrwt beam="2">  1       -1 0.20452943E+00 0.72748969E+03</pdfrwt>
<totfact> 0.26397059E+00</totfact>
</mgrwt>
</event>
<event>
 4    1  0.1439420E-007  0.1201235E+04  0.7818608E-02  0.9155923E-01
         -1   -1    0    0    0  501 -0.00000000000E+00  0.00000000000E+00  0.17377510134E+04  0.17377510134E+04  0.50400000000E-02 0.  1.
          1   -1    0    0  501    0  0.00000000000E+00 -0.00000000000E+00 -0.22242254021E+04  0.22242254021E+04  0.50400000000E-02 0. -1.
    8880023    1    1    2    0    0  0.73828017654E+03 -0.68124732550E+03 -0.18838229400E+04  0.22342234922E+04  0.65864270000E+03 0. -1.
    8880022    1    1    2    0    0 -0.73828017654E+03  0.68124732550E+03  0.13973485512E+04  0.17277529234E+04  0.15294330000E+03 0.  0.
<mgrwt>
<rscale>  0 0.11520193E+04</rscale>
<asrwt>0</asrwt>
<pdfrwt beam="1">  1        1 0.34218852E+00 0.12012351E+04</pdfrwt>
<pdfrwt beam="2">  1       -1 0.26734631E+00 0.12012351E+04</pdfrwt>
<totfact> 0.11105936E-01</totfact>
</mgrwt>
</event>
<event>
 4    1  0.8114601E-008  0.7239456E+03  0.7818608E-02  0.9909455E-01
         -1   -1    0    0    0  501 -0.00000000000E+00  0.00000000000E+00  0.11485549747E+04  0.11485549747E+04  0.50400000000E-02 0.  1.
          1   -1    0    0  501    0  0.00000000000E+00 -0.00000000000E+00 -0.66785591545E+03  0.66785591547E+03  0.50400000000E-02 0. -1.
    8880023    1    1    2    0    0 -0.18998580557E+03 -0.23279268257E+03 -0.43226460380E+03  0.84317847064E+03  0.65864270000E+03 0.  0.
    8880022    1    1    2    0    0  0.18998580557E+03  0.23279268257E+03  0.91296366301E+03  0.97323241950E+03  0.15294330000E+03 0.  0.
<mgrwt>
<rscale>  0 0.59805254E+03</rscale>
<asrwt>0</asrwt>
<pdfrwt beam="1">  1        1 0.10274707E+00 0.72394561E+03</pdfrwt>
<pdfrwt beam="2">  1       -1 0.17670076E+00 0.72394561E+03</pdfrwt>
<totfact> 0.66708685E+00</totfact>
</mgrwt>
</event>
<event>
 4    1  0.8325649E-008  0.1238408E+04  0.7818608E-02  0.9120662E-01
         -1   -1    0    0    0  501 -0.00000000000E+00  0.00000000000E+00  0.15842579664E+04  0.15842579664E+04  0.50400000000E-02 0.  1.
          1   -1    0    0  501    0  0.00000000000E+00 -0.00000000000E+00 -0.22120668744E+04  0.22120668744E+04  0.50400000000E-02 0. -1.
    8880023    1    1    2    0    0  0.88005751330E+03 -0.57038866502E+03 -0.18198620508E+04  0.22012615805E+04  0.65864270000E+03 0. -1.
    8880022    1    1    2    0    0 -0.88005751330E+03  0.57038866502E+03  0.11920531428E+04  0.15950632603E+04  0.15294330000E+03 0.  0.
<mgrwt>
<rscale>  0 0.11911233E+04</rscale>
<asrwt>0</asrwt>
<pdfrwt beam="1">  1        1 0.34031798E+00 0.12384081E+04</pdfrwt>
<pdfrwt beam="2">  1       -1 0.24373199E+00 0.12384081E+04</pdfrwt>
<totfact> 0.16021156E-01</totfact>
</mgrwt>
</event>
<event>
 4    1  0.8114601E-008  0.1884294E+04  0.7818608E-02  0.8677287E-01
          1   -1    0    0  501    0  0.00000000000E+00  0.00000000000E+00  0.20807323412E+04  0.20807323412E+04  0.50400000000E-02 0. -1.
         -1   -1    0    0    0  501 -0.00000000000E+00 -0.00000000000E+00 -0.25386055020E+04  0.25386055020E+04  0.50400000000E-02 0.  1.
    8880023    1    1    2    0    0  0.17650011151E+04 -0.39049931614E+02  0.11659142396E+04  0.22158339409E+04  0.65864270000E+03 0. -1.
    8880022    1    1    2    0    0 -0.17650011151E+04  0.39049931614E+02 -0.16237874005E+04  0.24035039023E+04  0.15294330000E+03 0.  0.
<mgrwt>
<rscale>  0 0.18555823E+04</rscale>
<asrwt>0</asrwt>
<pdfrwt beam="1">  1        1 0.32011267E+00 0.18842940E+04</pdfrwt>
<pdfrwt beam="2">  1       -1 0.39055469E+00 0.18842940E+04</pdfrwt>
<totfact> 0.19579165E-02</totfact>
</mgrwt>
</event>
<event>
 4    1  0.8114601E-008  0.6783195E+03  0.7818608E-02  0.1010291E+00
          1   -1    0    0  501    0  0.00000000000E+00  0.00000000000E+00  0.70425786410E+03  0.70425786412E+03  0.50400000000E-02 0. -1.
         -1   -1    0    0    0  501 -0.00000000000E+00 -0.00000000000E+00 -0.52391526222E+03  0.52391526225E+03  0.50400000000E-02 0.  1.
    8880023    1    1    2    0    0 -0.13514613258E+03  0.89681038430E+02  0.49700320959E+03  0.84090996094E+03  0.65864270000E+03 0. -1.
    8880022    1    1    2    0    0  0.13514613258E+03 -0.89681038430E+02 -0.31666060771E+03  0.38726316542E+03  0.15294330000E+03 0.  0.
<mgrwt>
<rscale>  0 0.51359288E+03</rscale>
<asrwt>0</asrwt>
<pdfrwt beam="1">  1        1 0.10834736E+00 0.67831952E+03</pdfrwt>
<pdfrwt beam="2">  1       -1 0.80602349E-01 0.67831952E+03</pdfrwt>
<totfact> 0.42701346E+01</totfact>
</mgrwt>
</event>
<event>
 4    1  0.8114601E-008  0.1132868E+04  0.7818608E-02  0.9225315E-01
         -1   -1    0    0    0  501 -0.00000000000E+00  0.00000000000E+00  0.10684838621E+04  0.10684838621E+04  0.50400000000E-02 0.  1.
          1   -1    0    0  501    0  0.00000000000E+00 -0.00000000000E+00 -0.14011414206E+04  0.14011414206E+04  0.50400000000E-02 0. -1.
    8880023    1    1    2    0    0  0.89338121674E+03  0.22682587860E+03 -0.83637791199E+03  0.14081612818E+04  0.65864270000E+03 0.  0.
    8880022    1    1    2    0    0 -0.89338121674E+03 -0.22682587860E+03  0.50372035352E+03  0.10614640009E+04  0.15294330000E+03 0.  0.
<mgrwt>
<rscale>  0 0.10795917E+04</rscale>
<asrwt>0</asrwt>
<pdfrwt beam="1">  1        1 0.21556022E+00 0.11328681E+04</pdfrwt>
<pdfrwt beam="2">  1       -1 0.16438213E+00 0.11328681E+04</pdfrwt>
<totfact> 0.20523771E+00</totfact>
</mgrwt>
</event>
<event>
 4    1  0.8114601E-008  0.8960005E+03  0.7818608E-02  0.9532483E-01
         -1   -1    0    0    0  501 -0.00000000000E+00  0.00000000000E+00  0.18818581679E+04  0.18818581679E+04  0.50400000000E-02 0.  1.
          1   -1    0    0  501    0  0.00000000000E+00 -0.00000000000E+00 -0.36366240646E+03  0.36366240650E+03  0.50400000000E-02 0. -1.
    8880023    1    1    2    0    0  0.53178706190E+03 -0.29361413141E+03  0.43916186470E+03  0.99783770576E+03  0.65864270000E+03 0.  0.
    8880022    1    1    2    0    0 -0.53178706190E+03  0.29361413141E+03  0.10790338967E+04  0.12476828686E+04  0.15294330000E+03 0.  0.
<mgrwt>
<rscale>  0 0.81930782E+03</rscale>
<asrwt>0</asrwt>
<pdfrwt beam="1">  1        1 0.55948062E-01 0.89600053E+03</pdfrwt>
<pdfrwt beam="2">  1       -1 0.28951664E+00 0.89600053E+03</pdfrwt>
<totfact> 0.26986363E+00</totfact>
</mgrwt>
</event>
<event>
 4    1  0.8114601E-008  0.1194926E+04  0.7818608E-02  0.9162070E-01
          1   -1    0    0  501    0  0.00000000000E+00  0.00000000000E+00  0.14774261818E+04  0.14774261818E+04  0.50400000000E-02 0. -1.
         -1   -1    0    0    0  501 -0.00000000000E+00 -0.00000000000E+00 -0.12825422444E+04  0.12825422444E+04  0.50400000000E-02 0.  1.
    8880023    1    1    2    0    0 -0.52440759543E+03  0.84795924487E+03  0.92805133720E+03  0.15129863508E+04  0.65864270000E+03 0.  0.
    8880022    1    1    2    0    0  0.52440759543E+03 -0.84795924487E+03 -0.73316739980E+03  0.12469820754E+04  0.15294330000E+03 0.  0.
<mgrwt>
<rscale>  0 0.11453648E+04</rscale>
<asrwt>0</asrwt>
<pdfrwt beam="1">  1        1 0.22729634E+00 0.11949261E+04</pdfrwt>
<pdfrwt beam="2">  1       -1 0.19731419E+00 0.11949261E+04</pdfrwt>
<totfact> 0.10446016E+00</totfact>
</mgrwt>
</event>
<event>
 4    1  0.8114601E-008  0.7390627E+03  0.7818608E-02  0.9862686E-01
         -1   -1    0    0    0  501 -0.00000000000E+00  0.00000000000E+00  0.23701049910E+04  0.23701049910E+04  0.50400000000E-02 0.  1.
          1   -1    0    0  501    0  0.00000000000E+00 -0.00000000000E+00 -0.46831016947E+03  0.46831016950E+03  0.50400000000E-02 0. -1.
    8880023    1    1    2    0    0 -0.86933779534E+02  0.32379921503E+03 -0.14971272652E+03  0.75407394891E+03  0.65864270000E+03 0. -1.
    8880022    1    1    2    0    0  0.86933779534E+02 -0.32379921503E+03  0.20515075481E+04  0.20843412116E+04  0.15294330000E+03 0.  0.
<mgrwt>
<rscale>  0 0.62104268E+03</rscale>
<asrwt>0</asrwt>
<pdfrwt beam="1">  1        1 0.72047719E-01 0.73906266E+03</pdfrwt>
<pdfrwt beam="2">  1       -1 0.36463154E+00 0.73906266E+03</pdfrwt>
<totfact> 0.64364461E-01</totfact>
</mgrwt>
</event>
<event>
 4    1  0.8114601E-008  0.7273773E+03  0.7818608E-02  0.9898371E-01
         -1   -1    0    0    0  501 -0.00000000000E+00  0.00000000000E+00  0.16030210879E+03  0.16030210887E+03  0.50400000000E-02 0.  1.
          1   -1    0    0  501    0  0.00000000000E+00 -0.00000000000E+00 -0.24188894363E+04  0.24188894363E+04  0.50400000000E-02 0. -1.
    8880023    1    1    2    0    0  0.17679583892E+03  0.25300352626E+03 -0.20529766836E+04  0.21780245689E+04  0.65864270000E+03 0. -1.
    8880022    1    1    2    0    0 -0.17679583892E+03 -0.25300352626E+03 -0.20561064389E+03  0.40116697628E+03  0.15294330000E+03 0.  0.
<mgrwt>
<rscale>  0 0.60340304E+03</rscale>
<asrwt>0</asrwt>
<pdfrwt beam="1">  1        1 0.37213681E+00 0.72737732E+03</pdfrwt>
<pdfrwt beam="2">  1       -1 0.24661865E-01 0.72737732E+03</pdfrwt>
<totfact> 0.23181662E+01</totfact>
</mgrwt>
</event>
<event>
 4    1  0.8114601E-008  0.8144606E+03  0.7818608E-02  0.9680360E-01
          1   -1    0    0  501    0  0.00000000000E+00  0.00000000000E+00  0.92069520423E+03  0.92069520425E+03  0.50400000000E-02 0. -1.
         -1   -1    0    0    0  501 -0.00000000000E+00 -0.00000000000E+00 -0.95850254455E+03  0.95850254457E+03  0.50400000000E-02 0.  1.
    8880023    1    1    2    0    0 -0.35765331819E+03  0.31877876169E+03  0.63954828717E+03  0.10355520329E+04  0.65864270000E+03 0.  0.
    8880022    1    1    2    0    0  0.35765331819E+03 -0.31877876169E+03 -0.67735562749E+03  0.84364571594E+03  0.15294330000E+03 0.  0.
<mgrwt>
<rscale>  0 0.72198311E+03</rscale>
<asrwt>0</asrwt>
<pdfrwt beam="1">  1        1 0.14164542E+00 0.81446056E+03</pdfrwt>
<pdfrwt beam="2">  1       -1 0.14746193E+00 0.81446056E+03</pdfrwt>
<totfact> 0.65532702E+00</totfact>
</mgrwt>
</event>
<event>
 4    1  0.8114601E-008  0.1889069E+04  0.7818608E-02  0.8674804E-01
         -1   -1    0    0    0  501 -0.00000000000E+00  0.00000000000E+00  0.20920649964E+04  0.20920649964E+04  0.50400000000E-02 0.  1.
          1   -1    0    0  501    0  0.00000000000E+00 -0.00000000000E+00 -0.17402578930E+04  0.17402578930E+04  0.50400000000E-02 0. -1.
    8880023    1    1    2    0    0  0.17703188561E+04 -0.27217020928E+02 -0.35077385789E+03  0.19213594469E+04  0.65864270000E+03 0.  0.
    8880022    1    1    2    0    0 -0.17703188561E+04  0.27217020928E+02  0.70258096134E+03  0.19109634425E+04  0.15294330000E+03 0.  0.
<mgrwt>
<rscale>  0 0.18604374E+04</rscale>
<asrwt>0</asrwt>
<pdfrwt beam="1">  1        1 0.26773198E+00 0.18890685E+04</pdfrwt>
<pdfrwt beam="2">  1       -1 0.32185615E+00 0.18890685E+04</pdfrwt>
<totfact> 0.96259376E-02</totfact>
</mgrwt>
</event>
<event>
 4    1  0.8114601E-008  0.7823660E+03  0.7818608E-02  0.9750308E-01
         -1   -1    0    0    0  501 -0.00000000000E+00  0.00000000000E+00  0.15840288725E+04  0.15840288725E+04  0.50400000000E-02 0.  1.
          1   -1    0    0  501    0  0.00000000000E+00 -0.00000000000E+00 -0.13962129279E+04  0.13962129279E+04  0.50400000000E-02 0. -1.
    8880023    1    1    2    0    0 -0.21062404725E+03 -0.36595606029E+03 -0.12495965267E+04  0.14743093342E+04  0.65864270000E+03 0. -1.
    8880022    1    1    2    0    0  0.21062404725E+03  0.36595606029E+03  0.14374124712E+04  0.15059324662E+04  0.15294330000E+03 0.  0.
<mgrwt>
<rscale>  0 0.68098850E+03</rscale>
<asrwt>0</asrwt>
<pdfrwt beam="1">  1        1 0.21480199E+00 0.78236598E+03</pdfrwt>
<pdfrwt beam="2">  1       -1 0.24369675E+00 0.78236598E+03</pdfrwt>
<totfact> 0.62275929E-01</totfact>
</mgrwt>
</event>
<event>
 4    1  0.8114601E-008  0.1043575E+04  0.7818608E-02  0.9326645E-01
          1   -1    0    0  501    0  0.00000000000E+00  0.00000000000E+00  0.26556795281E+04  0.26556795281E+04  0.50400000000E-02 0. -1.
         -1   -1    0    0    0  501 -0.00000000000E+00 -0.00000000000E+00 -0.42167301176E+03  0.42167301179E+03  0.50400000000E-02 0.  1.
    8880023    1    1    2    0    0  0.52963342774E+03 -0.61214913320E+03  0.19396274601E+04  0.22025446690E+04  0.65864270000E+03 0.  0.
    8880022    1    1    2    0    0 -0.52963342774E+03  0.61214913320E+03  0.29437905624E+03  0.87480787081E+03  0.15294330000E+03 0.  0.
<mgrwt>
<rscale>  0 0.98366405E+03</rscale>
<asrwt>0</asrwt>
<pdfrwt beam="1">  1        1 0.40856608E+00 0.10435748E+04</pdfrwt>
<pdfrwt beam="2">  1       -1 0.64872770E-01 0.10435748E+04</pdfrwt>
<totfact> 0.25792674E+00</totfact>
</mgrwt>
</event>
<event>
 4    1  0.8114601E-008  0.1161225E+04  0.7818608E-02  0.9195768E-01
         -1   -1    0    0    0  501 -0.00000000000E+00  0.00000000000E+00  0.12285640925E+04  0.12285640925E+04  0.50400000000E-02 0.  1.
          1   -1    0    0  501    0  0.00000000000E+00 -0.00000000000E+00 -0.15472388591E+04  0.15472388592E+04  0.50400000000E-02 0. -1.
    8880023    1    1    2    0    0 -0.71095386652E+03 -0.63967079908E+03 -0.10473574461E+04  0.15637781037E+04  0.65864270000E+03 0. -1.
    8880022    1    1    2    0    0  0.71095386652E+03  0.63967079908E+03  0.72868267945E+03  0.12120248479E+04  0.15294330000E+03 0.  0.
<mgrwt>
<rscale>  0 0.11097221E+04</rscale>
<asrwt>0</asrwt>
<pdfrwt beam="1">  1        1 0.23803675E+00 0.11612254E+04</pdfrwt>
<pdfrwt beam="2">  1       -1 0.18900986E+00 0.11612254E+04</pdfrwt>
<totfact> 0.10728539E+00</totfact>
</mgrwt>
</event>
<event>
 4    1  0.8114601E-008  0.1374177E+04  0.7818608E-02  0.9004012E-01
         -1   -1    0    0    0  501 -0.00000000000E+00  0.00000000000E+00  0.11883975818E+04  0.11883975818E+04  0.50400000000E-02 0.  1.
          1   -1    0    0  501    0  0.00000000000E+00 -0.00000000000E+00 -0.19043335766E+04  0.19043335767E+04  0.50400000000E-02 0. -1.
    8880023    1    1    2    0    0  0.11824563175E+04 -0.23737920177E+03 -0.11601402305E+04  0.17984124635E+04  0.65864270000E+03 0.  0.
    8880022    1    1    2    0    0 -0.11824563175E+04  0.23737920177E+03  0.44420423557E+03  0.12943186949E+04  0.15294330000E+03 0.  0.
<mgrwt>
<rscale>  0 0.13327209E+04</rscale>
<asrwt>0</asrwt>
<pdfrwt beam="1">  1        1 0.29297440E+00 0.13741769E+04</pdfrwt>
<pdfrwt beam="2">  1       -1 0.18283040E+00 0.13741769E+04</pdfrwt>
<totfact> 0.66000590E-01</totfact>
</mgrwt>
</event>
<event>
 4    1  0.8114601E-008  0.6928783E+03  0.7818608E-02  0.1002813E+00
          1   -1    0    0  501    0  0.00000000000E+00  0.00000000000E+00  0.17895245321E+04  0.17895245321E+04  0.50400000000E-02 0. -1.
         -1   -1    0    0    0  501 -0.00000000000E+00 -0.00000000000E+00 -0.15344835615E+04  0.15344835615E+04  0.50400000000E-02 0.  1.
    8880023    1    1    2    0    0 -0.14112661445E+03 -0.16233747441E+03  0.17101367411E+04  0.18451688422E+04  0.65864270000E+03 0. -1.
    8880022    1    1    2    0    0  0.14112661445E+03  0.16233747441E+03 -0.14550957706E+04  0.14788392514E+04  0.15294330000E+03 0.  0.
<mgrwt>
<rscale>  0 0.54433605E+03</rscale>
<asrwt>0</asrwt>
<pdfrwt beam="1">  1        1 0.27531146E+00 0.69287833E+03</pdfrwt>
<pdfrwt beam="2">  1       -1 0.23607440E+00 0.69287833E+03</pdfrwt>
<totfact> 0.38520323E-01</totfact>
</mgrwt>
</event>
<event>
 4    1  0.8114601E-008  0.1244731E+04  0.7818608E-02  0.9114821E-01
         -1   -1    0    0    0  501 -0.00000000000E+00  0.00000000000E+00  0.11275593814E+04  0.11275593814E+04  0.50400000000E-02 0.  1.
          1   -1    0    0  501    0  0.00000000000E+00 -0.00000000000E+00 -0.12626025740E+04  0.12626025740E+04  0.50400000000E-02 0. -1.
    8880023    1    1    2    0    0  0.41266460234E+03  0.97224178886E+03 -0.36765971605E+03  0.12978944653E+04  0.65864270000E+03 0.  0.
    8880022    1    1    2    0    0 -0.41266460234E+03 -0.97224178886E+03  0.23261652342E+03  0.10922674901E+04  0.15294330000E+03 0.  0.
<mgrwt>
<rscale>  0 0.11977585E+04</rscale>
<asrwt>0</asrwt>
<pdfrwt beam="1">  1        1 0.19424655E+00 0.12447314E+04</pdfrwt>
<pdfrwt beam="2">  1       -1 0.17347067E+00 0.12447314E+04</pdfrwt>
<totfact> 0.21787151E+00</totfact>
</mgrwt>
</event>
<event>
 4    1  0.8114601E-008  0.1180494E+04  0.7818608E-02  0.9176321E-01
         -1   -1    0    0    0  501 -0.00000000000E+00  0.00000000000E+00  0.20685566198E+04  0.20685566198E+04  0.50400000000E-02 0.  1.
          1   -1    0    0  501    0  0.00000000000E+00 -0.00000000000E+00 -0.65642884297E+03  0.65642884299E+03  0.50400000000E-02 0. -1.
    8880023    1    1    2    0    0 -0.57182750814E+02  0.97800104479E+03  0.26714149920E+03  0.12103432147E+04  0.65864270000E+03 0.  0.
    8880022    1    1    2    0    0  0.57182750814E+02 -0.97800104479E+03  0.11449862776E+04  0.15146422480E+04  0.15294330000E+03 0.  0.
<mgrwt>
<rscale>  0 0.11301216E+04</rscale>
<asrwt>0</asrwt>
<pdfrwt beam="1">  1        1 0.10098905E+00 0.11804940E+04</pdfrwt>
<pdfrwt beam="2">  1       -1 0.31823947E+00 0.11804940E+04</pdfrwt>
<totfact> 0.74849135E-01</totfact>
</mgrwt>
</event>
<event>
 4    1  0.8114601E-008  0.7282163E+03  0.7818608E-02  0.9895706E-01
          1   -1    0    0  501    0  0.00000000000E+00  0.00000000000E+00  0.26821486407E+03  0.26821486412E+03  0.50400000000E-02 0. -1.
         -1   -1    0    0    0  501 -0.00000000000E+00 -0.00000000000E+00 -0.12891685730E+04  0.12891685730E+04  0.50400000000E-02 0.  1.
    8880023    1    1    2    0    0 -0.30877776404E+03 -0.33838185958E+02 -0.36251319776E+03  0.81345851474E+03  0.65864270000E+03 0. -1.
    8880022    1    1    2    0    0  0.30877776404E+03  0.33838185958E+02 -0.65844051119E+03  0.74392492241E+03  0.15294330000E+03 0.  0.
<mgrwt>
<rscale>  0 0.60469837E+03</rscale>
<asrwt>0</asrwt>
<pdfrwt beam="1">  1        1 0.41263826E-01 0.72821627E+03</pdfrwt>
<pdfrwt beam="2">  1       -1 0.19833362E+00 0.72821627E+03</pdfrwt>
<totfact> 0.16157225E+01</totfact>
</mgrwt>
</event>
<event>
 4    1  0.8114601E-008  0.6602883E+03  0.7818608E-02  0.1023863E+00
          1   -1    0    0  501    0  0.00000000000E+00  0.00000000000E+00  0.20768420616E+04  0.20768420616E+04  0.50400000000E-02 0. -1.
         -1   -1    0    0    0  501 -0.00000000000E+00 -0.00000000000E+00 -0.50492193087E+03  0.50492193090E+03  0.50400000000E-02 0.  1.
    8880023    1    1    2    0    0  0.44885386468E+02 -0.12480121008E+02  0.20098654093E+04  0.21155471210E+04  0.65864270000E+03 0. -1.
    8880022    1    1    2    0    0 -0.44885386468E+02  0.12480121008E+02 -0.43794527853E+03  0.46621687157E+03  0.15294330000E+03 0.  0.
<mgrwt>
<rscale>  0 0.46317998E+03</rscale>
<asrwt>0</asrwt>
<pdfrwt beam="1">  1        1 0.31951417E+00 0.66028831E+03</pdfrwt>
<pdfrwt beam="2">  1       -1 0.77680296E-01 0.66028831E+03</pdfrwt>
<totfact> 0.46941084E+00</totfact>
</mgrwt>
</event>
<event>
 4    1  0.8114601E-008  0.7965371E+03  0.7818608E-02  0.9718334E-01
         -1   -1    0    0    0  501 -0.00000000000E+00  0.00000000000E+00  0.74123558251E+03  0.74123558253E+03  0.50400000000E-02 0.  1.
          1   -1    0    0  501    0  0.00000000000E+00 -0.00000000000E+00 -0.14299139212E+04  0.14299139212E+04  0.50400000000E-02 0. -1.
    8880023    1    1    2    0    0  0.29376163359E+03  0.33817927557E+03 -0.12216124796E+04  0.14583581097E+04  0.65864270000E+03 0. -1.
    8880022    1    1    2    0    0 -0.29376163359E+03 -0.33817927557E+03  0.53293414088E+03  0.71279139397E+03  0.15294330000E+03 0.  0.
<mgrwt>
<rscale>  0 0.69935598E+03</rscale>
<asrwt>0</asrwt>
<pdfrwt beam="1">  1        1 0.21998676E+00 0.79653708E+03</pdfrwt>
<pdfrwt beam="2">  1       -1 0.11403624E+00 0.79653708E+03</pdfrwt>
<totfact> 0.52966058E+00</totfact>
</mgrwt>
</event>
<event>
 4    1  0.8114601E-008  0.8237373E+03  0.7818608E-02  0.9661643E-01
         -1   -1    0    0    0  501 -0.00000000000E+00  0.00000000000E+00  0.50462551415E+03  0.50462551418E+03  0.50400000000E-02 0.  1.
          1   -1    0    0  501    0  0.00000000000E+00 -0.00000000000E+00 -0.16894363548E+04  0.16894363548E+04  0.50400000000E-02 0. -1.
    8880023    1    1    2    0    0  0.37300924094E+03 -0.32495701084E+03 -0.14071596159E+04  0.16305340670E+04  0.65864270000E+03 0. -1.
    8880022    1    1    2    0    0 -0.37300924094E+03  0.32495701084E+03  0.22234877527E+03  0.56352780198E+03  0.15294330000E+03 0.  0.
<mgrwt>
<rscale>  0 0.73347217E+03</rscale>
<asrwt>0</asrwt>
<pdfrwt beam="1">  1        1 0.25991328E+00 0.82373731E+03</pdfrwt>
<pdfrwt beam="2">  1       -1 0.77634695E-01 0.82373731E+03</pdfrwt>
<totfact> 0.83039259E+00</totfact>
</mgrwt>
</event>
<event>
 4    1  0.8114601E-008  0.7332311E+03  0.7818608E-02  0.9880122E-01
          1   -1    0    0  501    0  0.00000000000E+00  0.00000000000E+00  0.13557837369E+04  0.13557837369E+04  0.50400000000E-02 0. -1.
         -1   -1    0    0    0  501 -0.00000000000E+00 -0.00000000000E+00 -0.43884449699E+03  0.43884449702E+03  0.50400000000E-02 0.  1.
    8880023    1    1    2    0    0 -0.10114311316E+03 -0.30592107608E+03  0.11533759496E+04  0.13667128160E+04  0.65864270000E+03 0. -1.
    8880022    1    1    2    0    0  0.10114311316E+03  0.30592107608E+03 -0.23643670972E+03  0.42791541786E+03  0.15294330000E+03 0.  0.
<mgrwt>
<rscale>  0 0.61234406E+03</rscale>
<asrwt>0</asrwt>
<pdfrwt beam="1">  1        1 0.20858211E+00 0.73323110E+03</pdfrwt>
<pdfrwt beam="2">  1       -1 0.67514538E-01 0.73323110E+03</pdfrwt>
<totfact> 0.18991433E+01</totfact>
</mgrwt>
</event>
<event>
 4    1  0.8114601E-008  0.8650689E+03  0.7818608E-02  0.9584610E-01
         -1   -1    0    0    0  501 -0.00000000000E+00  0.00000000000E+00  0.90083007780E+03  0.90083007782E+03  0.50400000000E-02 0.  1.
          1   -1    0    0  501    0  0.00000000000E+00 -0.00000000000E+00 -0.23048910369E+04  0.23048910369E+04  0.50400000000E-02 0. -1.
    8880023    1    1    2    0    0  0.42393096467E+03  0.36717361832E+03 -0.21163526151E+04  0.22863273008E+04  0.65864270000E+03 0.  0.
    8880022    1    1    2    0    0 -0.42393096467E+03 -0.36717361832E+03  0.71229165601E+03  0.91939381389E+03  0.15294330000E+03 0.  0.
<mgrwt>
<rscale>  0 0.78323240E+03</rscale>
<asrwt>0</asrwt>
<pdfrwt beam="1">  1        1 0.35459862E+00 0.86506886E+03</pdfrwt>
<pdfrwt beam="2">  1       -1 0.13858924E+00 0.86506886E+03</pdfrwt>
<totfact> 0.82645628E-01</totfact>
</mgrwt>
</event>
<event>
 4    1  0.8114601E-008  0.6892080E+03  0.7818608E-02  0.1004531E+00
         -1   -1    0    0    0  501 -0.00000000000E+00  0.00000000000E+00  0.28529095746E+03  0.28529095751E+03  0.50400000000E-02 0.  1.
          1   -1    0    0  501    0  0.00000000000E+00 -0.00000000000E+00 -0.89198038238E+03  0.89198038239E+03  0.50400000000E-02 0. -1.
    8880023    1    1    2    0    0 -0.65065193007E+02  0.19226029253E+03 -0.61397375275E+03  0.92302300879E+03  0.65864270000E+03 0.  0.
    8880022    1    1    2    0    0  0.65065193007E+02 -0.19226029253E+03  0.72843278380E+01  0.25424833111E+03  0.15294330000E+03 0.  0.
<mgrwt>
<rscale>  0 0.53707223E+03</rscale>
<asrwt>0</asrwt>
<pdfrwt beam="1">  1        1 0.13722775E+00 0.68920803E+03</pdfrwt>
<pdfrwt beam="2">  1       -1 0.43890917E-01 0.68920803E+03</pdfrwt>
<totfact> 0.97082731E+01</totfact>
</mgrwt>
</event>
<event>
 4    1  0.1731288E-007  0.8478427E+03  0.7818608E-02  0.9615566E-01
          1   -1    0    0  501    0  0.00000000000E+00  0.00000000000E+00  0.21298612556E+04  0.21298612556E+04  0.50400000000E-02 0. -1.
         -1   -1    0    0    0  501 -0.00000000000E+00 -0.00000000000E+00 -0.18807559559E+04  0.18807559559E+04  0.50400000000E-02 0.  1.
    8880023    1    1    2    0    0  0.43336725571E+03  0.31180099457E+03  0.20007843077E+04  0.21730106053E+04  0.65864270000E+03 0. -1.
    8880022    1    1    2    0    0 -0.43336725571E+03 -0.31180099457E+03 -0.17516790081E+04  0.18376066061E+04  0.15294330000E+03 0.  0.
<mgrwt>
<rscale>  0 0.76274444E+03</rscale>
<asrwt>0</asrwt>
<pdfrwt beam="1">  1        1 0.32767096E+00 0.84784270E+03</pdfrwt>
<pdfrwt beam="2">  1       -1 0.28934707E+00 0.84784270E+03</pdfrwt>
<totfact> 0.99646547E-02</totfact>
</mgrwt>
</event>
<event>
 4    1  0.8114601E-008  0.1846642E+04  0.7818608E-02  0.8697165E-01
          1   -1    0    0  501    0  0.00000000000E+00  0.00000000000E+00  0.18382759614E+04  0.18382759614E+04  0.50400000000E-02 0. -1.
         -1   -1    0    0    0  501 -0.00000000000E+00 -0.00000000000E+00 -0.18381862375E+04  0.18381862375E+04  0.50400000000E-02 0.  1.
    8880023    1    1    2    0    0 -0.15989154869E+04 -0.64787910819E+03  0.42115204639E+03  0.18940584272E+04  0.65864270000E+03 0.  0.
    8880022    1    1    2    0    0  0.15989154869E+04  0.64787910819E+03 -0.42106232242E+03  0.17824037717E+04  0.15294330000E+03 0.  0.
<mgrwt>
<rscale>  0 0.18172777E+04</rscale>
<asrwt>0</asrwt>
<pdfrwt beam="1">  1        1 0.28281169E+00 0.18466424E+04</pdfrwt>
<pdfrwt beam="2">  1       -1 0.28279788E+00 0.18466424E+04</pdfrwt>
<totfact> 0.14878038E-01</totfact>
</mgrwt>
</event>
<event>
 4    1  0.8114601E-008  0.8169087E+03  0.7818608E-02  0.9675362E-01
          1   -1    0    0  501    0  0.00000000000E+00  0.00000000000E+00  0.23443196786E+04  0.23443196786E+04  0.50400000000E-02 0. -1.
         -1   -1    0    0    0  501 -0.00000000000E+00 -0.00000000000E+00 -0.23799459875E+03  0.23799459881E+03  0.50400000000E-02 0.  1.
    8880023    1    1    2    0    0  0.32484180564E+03 -0.35778125280E+03  0.18321948977E+04  0.20060603114E+04  0.65864270000E+03 0.  0.
    8880022    1    1    2    0    0 -0.32484180564E+03  0.35778125280E+03  0.27413018211E+03  0.57625396598E+03  0.15294330000E+03 0.  0.
<mgrwt>
<rscale>  0 0.72502862E+03</rscale>
<asrwt>0</asrwt>
<pdfrwt beam="1">  1        1 0.36066456E+00 0.81690870E+03</pdfrwt>
<pdfrwt beam="2">  1       -1 0.36614555E-01 0.81690870E+03</pdfrwt>
<totfact> 0.12894866E+01</totfact>
</mgrwt>
</event>
<event>
 4    1  0.8114601E-008  0.9976622E+03  0.7818608E-02  0.9384623E-01
         -1   -1    0    0    0  501 -0.00000000000E+00  0.00000000000E+00  0.10571385501E+04  0.10571385501E+04  0.50400000000E-02 0.  1.
          1   -1    0    0  501    0  0.00000000000E+00 -0.00000000000E+00 -0.90716082627E+03  0.90716082629E+03  0.50400000000E-02 0. -1.
    8880023    1    1    2    0    0 -0.28009294950E+02 -0.74882256722E+03 -0.34231894751E+03  0.10547569511E+04  0.65864270000E+03 0.  0.
    8880022    1    1    2    0    0  0.28009294950E+02  0.74882256722E+03  0.49229667130E+03  0.90954242527E+03  0.15294330000E+03 0.  0.
<mgrwt>
<rscale>  0 0.93352062E+03</rscale>
<asrwt>0</asrwt>
<pdfrwt beam="1">  1        1 0.13956320E+00 0.99766225E+03</pdfrwt>
<pdfrwt beam="2">  1       -1 0.16263670E+00 0.99766225E+03</pdfrwt>
<totfact> 0.50258144E+00</totfact>
</mgrwt>
</event>
<event>
 4    1  0.8114601E-008  0.1319293E+04  0.7818608E-02  0.9049076E-01
         -1   -1    0    0    0  501 -0.00000000000E+00  0.00000000000E+00  0.12129782012E+04  0.12129782012E+04  0.50400000000E-02 0.  1.
          1   -1    0    0  501    0  0.00000000000E+00 -0.00000000000E+00 -0.24571513725E+04  0.24571513725E+04  0.50400000000E-02 0. -1.
    8880023    1    1    2    0    0  0.11196959544E+04 -0.23022850601E+03 -0.19228686086E+04  0.23319429855E+04  0.65864270000E+03 0. -1.
    8880022    1    1    2    0    0 -0.11196959544E+04  0.23022850601E+03  0.67869543735E+03  0.13381865882E+04  0.15294330000E+03 0.  0.
<mgrwt>
<rscale>  0 0.12756812E+04</rscale>
<asrwt>0</asrwt>
<pdfrwt beam="1">  1        1 0.37802329E+00 0.13192931E+04</pdfrwt>
<pdfrwt beam="2">  1       -1 0.18661203E+00 0.13192931E+04</pdfrwt>
<totfact> 0.26230147E-01</totfact>
</mgrwt>
</event>
<event>
 4    1  0.8114601E-008  0.9183317E+03  0.7818608E-02  0.9497222E-01
         -1   -1    0    0    0  501 -0.00000000000E+00  0.00000000000E+00  0.12581628491E+04  0.12581628491E+04  0.50400000000E-02 0.  1.
          1   -1    0    0  501    0  0.00000000000E+00 -0.00000000000E+00 -0.66080923200E+03  0.66080923202E+03  0.50400000000E-02 0. -1.
    8880023    1    1    2    0    0  0.23898272991E+03 -0.59364149235E+03 -0.14200019241E+03  0.92924551522E+03  0.65864270000E+03 0.  0.
    8880022    1    1    2    0    0 -0.23898272991E+03  0.59364149235E+03  0.73935380952E+03  0.98972656593E+03  0.15294330000E+03 0.  0.
<mgrwt>
<rscale>  0 0.84488962E+03</rscale>
<asrwt>0</asrwt>
<pdfrwt beam="1">  1        1 0.10166296E+00 0.91833173E+03</pdfrwt>
<pdfrwt beam="2">  1       -1 0.19356351E+00 0.91833173E+03</pdfrwt>
<totfact> 0.50228090E+00</totfact>
</mgrwt>
</event>
<event>
 4    1  0.8114601E-008  0.1433983E+04  0.7818608E-02  0.8957717E-01
          1   -1    0    0  501    0  0.00000000000E+00  0.00000000000E+00  0.26641591586E+04  0.26641591586E+04  0.50400000000E-02 0. -1.
         -1   -1    0    0    0  501 -0.00000000000E+00 -0.00000000000E+00 -0.73934606353E+03  0.73934606355E+03  0.50400000000E-02 0.  1.
    8880023    1    1    2    0    0 -0.96190930826E+03  0.83500143510E+03  0.58559317762E+03  0.15489436690E+04  0.65864270000E+03 0.  0.
    8880022    1    1    2    0    0  0.96190930826E+03 -0.83500143510E+03  0.13392199174E+04  0.18545615531E+04  0.15294330000E+03 0.  0.
<mgrwt>
<rscale>  0 0.13946269E+04</rscale>
<asrwt>0</asrwt>
<pdfrwt beam="1">  1        1 0.40987064E+00 0.14339830E+04</pdfrwt>
<pdfrwt beam="2">  1       -1 0.11374555E+00 0.14339830E+04</pdfrwt>
<totfact> 0.70538024E-01</totfact>
</mgrwt>
</event>
<event>
 4    1  0.8114601E-008  0.7631543E+03  0.7818608E-02  0.9797009E-01
          1   -1    0    0  501    0  0.00000000000E+00  0.00000000000E+00  0.61971427275E+03  0.61971427277E+03  0.50400000000E-02 0. -1.
         -1   -1    0    0    0  501 -0.00000000000E+00 -0.00000000000E+00 -0.65884458226E+03  0.65884458228E+03  0.50400000000E-02 0.  1.
    8880023    1    1    2    0    0 -0.38429903836E+03  0.30141507038E+02  0.21413513572E+03  0.79262748120E+03  0.65864270000E+03 0.  0.
    8880022    1    1    2    0    0  0.38429903836E+03 -0.30141507038E+02 -0.25326544524E+03  0.48593137386E+03  0.15294330000E+03 0.  0.
<mgrwt>
<rscale>  0 0.65523317E+03</rscale>
<asrwt>0</asrwt>
<pdfrwt beam="1">  1        1 0.95340656E-01 0.76315429E+03</pdfrwt>
<pdfrwt beam="2">  1       -1 0.10136071E+00 0.76315429E+03</pdfrwt>
<totfact> 0.30883284E+01</totfact>
</mgrwt>
</event>
<event>
 4    1  0.8114601E-008  0.8988472E+03  0.7818608E-02  0.9527885E-01
          1   -1    0    0  501    0  0.00000000000E+00  0.00000000000E+00  0.16371199165E+04  0.16371199165E+04  0.50400000000E-02 0. -1.
         -1   -1    0    0    0  501 -0.00000000000E+00 -0.00000000000E+00 -0.43886102364E+03  0.43886102367E+03  0.50400000000E-02 0.  1.
    8880023    1    1    2    0    0  0.40879817894E+03  0.45497262636E+03  0.11269081766E+04  0.14414743448E+04  0.65864270000E+03 0.  0.
    8880022    1    1    2    0    0 -0.40879817894E+03 -0.45497262636E+03  0.71350716179E+02  0.63450659536E+03  0.15294330000E+03 0.  0.
<mgrwt>
<rscale>  0 0.82258841E+03</rscale>
<asrwt>0</asrwt>
<pdfrwt beam="1">  1        1 0.25186461E+00 0.89884718E+03</pdfrwt>
<pdfrwt beam="2">  1       -1 0.67517079E-01 0.89884718E+03</pdfrwt>
<totfact> 0.11911588E+01</totfact>
</mgrwt>
</event>
<event>
 4    1  0.8114601E-008  0.1117435E+04  0.7818608E-02  0.9241888E-01
          1   -1    0    0  501    0  0.00000000000E+00  0.00000000000E+00  0.23051268062E+04  0.23051268062E+04  0.50400000000E-02 0. -1.
         -1   -1    0    0    0  501 -0.00000000000E+00 -0.00000000000E+00 -0.12015973341E+04  0.12015973341E+04  0.50400000000E-02 0.  1.
    8880023    1    1    2    0    0 -0.33323804411E+03 -0.83892983720E+03  0.19579728718E+04  0.22543998844E+04  0.65864270000E+03 0. -1.
    8880022    1    1    2    0    0  0.33323804411E+03  0.83892983720E+03 -0.85444339967E+03  0.12523242560E+04  0.15294330000E+03 0.  0.
<mgrwt>
<rscale>  0 0.10631338E+04</rscale>
<asrwt>0</asrwt>
<pdfrwt beam="1">  1        1 0.35463489E+00 0.11174350E+04</pdfrwt>
<pdfrwt beam="2">  1       -1 0.18486113E+00 0.11174350E+04</pdfrwt>
<totfact> 0.35341800E-01</totfact>
</mgrwt>
</event>
<event>
 4    1  0.8114601E-008  0.7763300E+03  0.7818608E-02  0.9764530E-01
          1   -1    0    0  501    0  0.00000000000E+00  0.00000000000E+00  0.96164644681E+03  0.96164644682E+03  0.50400000000E-02 0. -1.
         -1   -1    0    0    0  501 -0.00000000000E+00 -0.00000000000E+00 -0.80673148498E+03  0.80673148500E+03  0.50400000000E-02 0.  1.
    8880023    1    1    2    0    0 -0.41090526043E+03 -0.59094165610E+01  0.71612246347E+03  0.10561816336E+04  0.65864270000E+03 0. -1.
    8880022    1    1    2    0    0  0.41090526043E+03  0.59094165610E+01 -0.56120750164E+03  0.71219629820E+03  0.15294330000E+03 0.  0.
<mgrwt>
<rscale>  0 0.67301328E+03</rscale>
<asrwt>0</asrwt>
<pdfrwt beam="1">  1        1 0.14794561E+00 0.77632999E+03</pdfrwt>
<pdfrwt beam="2">  1       -1 0.12411254E+00 0.77632999E+03</pdfrwt>
<totfact> 0.95082306E+00</totfact>
</mgrwt>
</event>
<event>
 4    1  0.8114601E-008  0.1408859E+04  0.7818608E-02  0.8976829E-01
         -1   -1    0    0    0  501 -0.00000000000E+00  0.00000000000E+00  0.15143017802E+04  0.15143017802E+04  0.50400000000E-02 0.  1.
          1   -1    0    0  501    0  0.00000000000E+00 -0.00000000000E+00 -0.13095443726E+04  0.13095443726E+04  0.50400000000E-02 0. -1.
    8880023    1    1    2    0    0  0.13328387019E+03  0.12382689923E+04  0.56569507780E+03  0.15181883331E+04  0.65864270000E+03 0.  0.
    8880022    1    1    2    0    0 -0.13328387019E+03 -0.12382689923E+04 -0.36093767024E+03  0.13056578197E+04  0.15294330000E+03 0.  0.
<mgrwt>
<rscale>  0 0.13686501E+04</rscale>
<asrwt>0</asrwt>
<pdfrwt beam="1">  1        1 0.20146836E+00 0.14088594E+04</pdfrwt>
<pdfrwt beam="2">  1       -1 0.23296951E+00 0.14088594E+04</pdfrwt>
<totfact> 0.76872419E-01</totfact>
</mgrwt>
</event>
<event>
 4    1  0.8114601E-008  0.8700036E+03  0.7818608E-02  0.9576011E-01
          1   -1    0    0  501    0  0.00000000000E+00  0.00000000000E+00  0.56075687040E+03  0.56075687042E+03  0.50400000000E-02 0. -1.
         -1   -1    0    0    0  501 -0.00000000000E+00 -0.00000000000E+00 -0.10491204952E+04  0.10491204952E+04  0.50400000000E-02 0.  1.
    8880023    1    1    2    0    0 -0.37821441809E+03 -0.42432298239E+03 -0.53176529388E+03  0.10196473280E+04  0.65864270000E+03 0.  0.
    8880022    1    1    2    0    0  0.37821441809E+03  0.42432298239E+03  0.43401669080E+02  0.59023003764E+03  0.15294330000E+03 0.  0.
<mgrwt>
<rscale>  0 0.78904505E+03</rscale>
<asrwt>0</asrwt>
<pdfrwt beam="1">  1        1 0.86270288E-01 0.87000365E+03</pdfrwt>
<pdfrwt beam="2">  1       -1 0.16140315E+00 0.87000365E+03</pdfrwt>
<totfact> 0.10932601E+01</totfact>
</mgrwt>
</event>
<event>
 4    1  0.8114601E-008  0.7673039E+03  0.7818608E-02  0.9786553E-01
          1   -1    0    0  501    0  0.00000000000E+00  0.00000000000E+00  0.16509586070E+04  0.16509586070E+04  0.50400000000E-02 0. -1.
         -1   -1    0    0    0  501 -0.00000000000E+00 -0.00000000000E+00 -0.47420013061E+03  0.47420013064E+03  0.50400000000E-02 0.  1.
    8880023    1    1    2    0    0  0.25822503591E+03 -0.29709402440E+03  0.14370614773E+04  0.16290797784E+04  0.65864270000E+03 0. -1.
    8880022    1    1    2    0    0 -0.25822503591E+03  0.29709402440E+03 -0.26030300093E+03  0.49607895925E+03  0.15294330000E+03 0.  0.
<mgrwt>
<rscale>  0 0.66089220E+03</rscale>
<asrwt>0</asrwt>
<pdfrwt beam="1">  1        1 0.25399363E+00 0.76730387E+03</pdfrwt>
<pdfrwt beam="2">  1       -1 0.72953866E-01 0.76730387E+03</pdfrwt>
<totfact> 0.10121330E+01</totfact>
</mgrwt>
</event>
<event>
 4    1  0.8114601E-008  0.6869892E+03  0.7818608E-02  0.1005618E+00
          1   -1    0    0  501    0  0.00000000000E+00  0.00000000000E+00  0.32711574227E+04  0.32711574227E+04  0.50400000000E-02 0. -1.
         -1   -1    0    0    0  501 -0.00000000000E+00 -0.00000000000E+00 -0.65611780695E+03  0.65611780697E+03  0.50400000000E-02 0.  1.
    8880023    1    1    2    0    0 -0.18505475240E+03  0.62439213780E+02  0.32099904486E+04  0.32826807343E+04  0.65864270000E+03 0. -1.
    8880022    1    1    2    0    0  0.18505475240E+03 -0.62439213780E+02 -0.59495083292E+03  0.64459449533E+03  0.15294330000E+03 0.  0.
<mgrwt>
<rscale>  0 0.53254118E+03</rscale>
<asrwt>0</asrwt>
<pdfrwt beam="1">  1        1 0.50325498E+00 0.68698917E+03</pdfrwt>
<pdfrwt beam="2">  1       -1 0.10094120E+00 0.68698917E+03</pdfrwt>
<totfact> 0.38858046E-01</totfact>
</mgrwt>
</event>
<event>
 4    1  0.8341330E-008  0.7651470E+03  0.7818608E-02  0.9791960E-01
         -1   -1    0    0    0  501 -0.00000000000E+00  0.00000000000E+00  0.93599243192E+03  0.93599243194E+03  0.50400000000E-02 0.  1.
          1   -1    0    0  501    0  0.00000000000E+00 -0.00000000000E+00 -0.20480132188E+04  0.20480132188E+04  0.50400000000E-02 0. -1.
    8880023    1    1    2    0    0 -0.31545480615E+03 -0.22831560222E+03 -0.19240114759E+04  0.20705724123E+04  0.65864270000E+03 0. -1.
    8880022    1    1    2    0    0  0.31545480615E+03  0.22831560222E+03  0.81199068904E+03  0.91343323842E+03  0.15294330000E+03 0.  0.
<mgrwt>
<rscale>  0 0.65795799E+03</rscale>
<asrwt>0</asrwt>
<pdfrwt beam="1">  1        1 0.31507896E+00 0.76514702E+03</pdfrwt>
<pdfrwt beam="2">  1       -1 0.14399884E+00 0.76514702E+03</pdfrwt>
<totfact> 0.11352825E+00</totfact>
</mgrwt>
</event>
<event>
 4    1  0.8114601E-008  0.6892537E+03  0.7818608E-02  0.1004509E+00
         -1   -1    0    0    0  501 -0.00000000000E+00  0.00000000000E+00  0.81695023539E+03  0.81695023540E+03  0.50400000000E-02 0.  1.
          1   -1    0    0  501    0  0.00000000000E+00 -0.00000000000E+00 -0.82098769181E+03  0.82098769183E+03  0.50400000000E-02 0. -1.
    8880023    1    1    2    0    0 -0.18674488699E+03 -0.79917904694E+02 -0.64772946365E+03  0.94584575310E+03  0.65864270000E+03 0. -1.
    8880022    1    1    2    0    0  0.18674488699E+03  0.79917904694E+02  0.64369200723E+03  0.69209217413E+03  0.15294330000E+03 0.  0.
<mgrwt>
<rscale>  0 0.53716443E+03</rscale>
<asrwt>0</asrwt>
<pdfrwt beam="1">  1        1 0.12630580E+00 0.68925375E+03</pdfrwt>
<pdfrwt beam="2">  1       -1 0.12568465E+00 0.68925375E+03</pdfrwt>
<totfact> 0.12157669E+01</totfact>
</mgrwt>
</event>
<event>
 4    1  0.8138353E-008  0.6820316E+03  0.7818608E-02  0.1008197E+00
          1   -1    0    0  501    0  0.00000000000E+00  0.00000000000E+00  0.12279871224E+04  0.12279871224E+04  0.50400000000E-02 0. -1.
         -1   -1    0    0    0  501 -0.00000000000E+00 -0.00000000000E+00 -0.93197348689E+03  0.93197348690E+03  0.50400000000E-02 0.  1.
    8880023    1    1    2    0    0 -0.17634784180E+03 -0.16071985315E+02  0.11156340048E+04  0.13075956213E+04  0.65864270000E+03 0. -1.
    8880022    1    1    2    0    0  0.17634784180E+03  0.16071985315E+02 -0.81962036926E+03  0.85236498799E+03  0.15294330000E+03 0.  0.
<mgrwt>
<rscale>  0 0.52197525E+03</rscale>
<asrwt>0</asrwt>
<pdfrwt beam="1">  1        1 0.18892110E+00 0.68203158E+03</pdfrwt>
<pdfrwt beam="2">  1       -1 0.14338054E+00 0.68203158E+03</pdfrwt>
<totfact> 0.42216821E+00</totfact>
</mgrwt>
</event>
<event>
 4    1  0.8114601E-008  0.7683635E+03  0.7818608E-02  0.9783917E-01
         -1   -1    0    0    0  501 -0.00000000000E+00  0.00000000000E+00  0.87407754156E+03  0.87407754158E+03  0.50400000000E-02 0.  1.
          1   -1    0    0  501    0  0.00000000000E+00 -0.00000000000E+00 -0.12192787408E+04  0.12192787408E+04  0.50400000000E-02 0. -1.
    8880023    1    1    2    0    0  0.14194296675E+03 -0.36935675590E+03 -0.10316840973E+04  0.12863726139E+04  0.65864270000E+03 0. -1.
    8880022    1    1    2    0    0 -0.14194296675E+03  0.36935675590E+03  0.68648289803E+03  0.80698366851E+03  0.15294330000E+03 0.  0.
<mgrwt>
<rscale>  0 0.66232813E+03</rscale>
<asrwt>0</asrwt>
<pdfrwt beam="1">  1        1 0.18758134E+00 0.76836347E+03</pdfrwt>
<pdfrwt beam="2">  1       -1 0.13447347E+00 0.76836347E+03</pdfrwt>
<totfact> 0.49838810E+00</totfact>
</mgrwt>
</event>
<event>
 4    1  0.8114601E-008  0.1087239E+04  0.7818608E-02  0.9275398E-01
         -1   -1    0    0    0  501 -0.00000000000E+00  0.00000000000E+00  0.13428675720E+04  0.13428675720E+04  0.50400000000E-02 0.  1.
          1   -1    0    0  501    0  0.00000000000E+00 -0.00000000000E+00 -0.11335743513E+04  0.11335743513E+04  0.50400000000E-02 0. -1.
    8880023    1    1    2    0    0 -0.12609422704E+03  0.85579139687E+03 -0.63412125892E+03  0.12586495328E+04  0.65864270000E+03 0. -1.
    8880022    1    1    2    0    0  0.12609422704E+03 -0.85579139687E+03  0.84341447958E+03  0.12177923905E+04  0.15294330000E+03 0.  0.
<mgrwt>
<rscale>  0 0.10307961E+04</rscale>
<asrwt>0</asrwt>
<pdfrwt beam="1">  1        1 0.17439605E+00 0.10872391E+04</pdfrwt>
<pdfrwt beam="2">  1       -1 0.20659501E+00 0.10872391E+04</pdfrwt>
<totfact> 0.16122099E+00</totfact>
</mgrwt>
</event>
<event>
 4    1  0.8114601E-008  0.6673046E+03  0.7818608E-02  0.1017674E+00
         -1   -1    0    0    0  501 -0.00000000000E+00  0.00000000000E+00  0.10205864326E+04  0.10205864326E+04  0.50400000000E-02 0.  1.
          1   -1    0    0  501    0  0.00000000000E+00 -0.00000000000E+00 -0.25925749322E+04  0.25925749322E+04  0.50400000000E-02 0. -1.
    8880023    1    1    2    0    0 -0.98075688400E+02 -0.43201508242E+02 -0.25405672666E+04  0.26267427459E+04  0.65864270000E+03 0. -1.
    8880022    1    1    2    0    0  0.98075688400E+02  0.43201508242E+02  0.96857876694E+03  0.98641861892E+03  0.15294330000E+03 0.  0.
<mgrwt>
<rscale>  0 0.48535584E+03</rscale>
<asrwt>0</asrwt>
<pdfrwt beam="1">  1        1 0.39885768E+00 0.66730459E+03</pdfrwt>
<pdfrwt beam="2">  1       -1 0.15701330E+00 0.66730459E+03</pdfrwt>
<totfact> 0.39510128E-01</totfact>
</mgrwt>
</event>
<event>
 4    1  0.8114601E-008  0.6954052E+03  0.7818608E-02  0.1001682E+00
          1   -1    0    0  501    0  0.00000000000E+00  0.00000000000E+00  0.10709637070E+04  0.10709637070E+04  0.50400000000E-02 0. -1.
         -1   -1    0    0    0  501 -0.00000000000E+00 -0.00000000000E+00 -0.11106605695E+04  0.11106605695E+04  0.50400000000E-02 0.  1.
    8880023    1    1    2    0    0 -0.14126836934E+03 -0.17268897695E+03  0.93773782300E+03  0.11674504983E+04  0.65864270000E+03 0. -1.
    8880022    1    1    2    0    0  0.14126836934E+03  0.17268897695E+03 -0.97743468555E+03  0.10141737782E+04  0.15294330000E+03 0.  0.
<mgrwt>
<rscale>  0 0.54918671E+03</rscale>
<asrwt>0</asrwt>
<pdfrwt beam="1">  1        1 0.16476365E+00 0.69540524E+03</pdfrwt>
<pdfrwt beam="2">  1       -1 0.17087086E+00 0.69540524E+03</pdfrwt>
<totfact> 0.33948941E+00</totfact>
</mgrwt>
</event>
<event>
 4    1  0.8114601E-008  0.9958707E+03  0.7818608E-02  0.9386980E-01
          1   -1    0    0  501    0  0.00000000000E+00  0.00000000000E+00  0.11172817248E+04  0.11172817248E+04  0.50400000000E-02 0. -1.
         -1   -1    0    0    0  501 -0.00000000000E+00 -0.00000000000E+00 -0.75497140928E+03  0.75497140930E+03  0.50400000000E-02 0.  1.
    8880023    1    1    2    0    0 -0.59776131945E+03  0.44791708230E+03 -0.65415176689E+02  0.99801686321E+03  0.65864270000E+03 0.  1.
    8880022    1    1    2    0    0  0.59776131945E+03 -0.44791708230E+03  0.42772549219E+03  0.87423627089E+03  0.15294330000E+03 0.  0.
<mgrwt>
<rscale>  0 0.93154963E+03</rscale>
<asrwt>0</asrwt>
<pdfrwt beam="1">  1        1 0.17188950E+00 0.99587073E+03</pdfrwt>
<pdfrwt beam="2">  1       -1 0.11614945E+00 0.99587073E+03</pdfrwt>
<totfact> 0.82743760E+00</totfact>
</mgrwt>
</event>
<event>
 4    1  0.8114601E-008  0.7167579E+03  0.7818608E-02  0.9933713E-01
         -1   -1    0    0    0  501 -0.00000000000E+00  0.00000000000E+00  0.63657344300E+03  0.63657344302E+03  0.50400000000E-02 0.  1.
          1   -1    0    0  501    0  0.00000000000E+00 -0.00000000000E+00 -0.19610814814E+04  0.19610814815E+04  0.50400000000E-02 0. -1.
    8880023    1    1    2    0    0  0.27136573445E+03 -0.79324483705E+02 -0.18486841764E+04  0.19827695594E+04  0.65864270000E+03 0. -1.
    8880022    1    1    2    0    0 -0.27136573445E+03  0.79324483705E+02  0.52417613793E+03  0.61488536504E+03  0.15294330000E+03 0.  0.
<mgrwt>
<rscale>  0 0.58654889E+03</rscale>
<asrwt>0</asrwt>
<pdfrwt beam="1">  1        1 0.30170484E+00 0.71675794E+03</pdfrwt>
<pdfrwt beam="2">  1       -1 0.97934377E-01 0.71675794E+03</pdfrwt>
<totfact> 0.33486887E+00</totfact>
</mgrwt>
</event>
<event>
 4    1  0.8114601E-008  0.8796908E+03  0.7818608E-02  0.9559454E-01
         -1   -1    0    0    0  501 -0.00000000000E+00  0.00000000000E+00  0.34648190597E+03  0.34648190600E+03  0.50400000000E-02 0.  1.
          1   -1    0    0  501    0  0.00000000000E+00 -0.00000000000E+00 -0.28119123734E+04  0.28119123734E+04  0.50400000000E-02 0. -1.
    8880023    1    1    2    0    0 -0.10329590709E+03 -0.57391262308E+03 -0.23949873360E+04  0.25514349471E+04  0.65864270000E+03 0.  0.
    8880022    1    1    2    0    0  0.10329590709E+03  0.57391262308E+03 -0.70443131482E+02  0.60695933237E+03  0.15294330000E+03 0.  0.
<mgrwt>
<rscale>  0 0.80038925E+03</rscale>
<asrwt>0</asrwt>
<pdfrwt beam="1">  1        1 0.43260189E+00 0.87969083E+03</pdfrwt>
<pdfrwt beam="2">  1       -1 0.53304911E-01 0.87969083E+03</pdfrwt>
<totfact> 0.30266230E+00</totfact>
</mgrwt>
</event>
<event>
 4    1  0.8114601E-008  0.8400828E+03  0.7818608E-02  0.9630024E-01
         -1   -1    0    0    0  501 -0.00000000000E+00  0.00000000000E+00  0.28107919965E+03  0.28107919970E+03  0.50400000000E-02 0.  1.
          1   -1    0    0  501    0  0.00000000000E+00 -0.00000000000E+00 -0.26691182405E+04  0.26691182405E+04  0.50400000000E-02 0. -1.
    8880023    1    1    2    0    0 -0.46587071491E+03  0.23429321467E+03 -0.48272109659E+03  0.96889560676E+03  0.65864270000E+03 0.  1.
    8880022    1    1    2    0    0  0.46587071491E+03 -0.23429321467E+03 -0.19053179443E+04  0.19813018335E+04  0.15294330000E+03 0.  0.
<mgrwt>
<rscale>  0 0.75340457E+03</rscale>
<asrwt>0</asrwt>
<pdfrwt beam="1">  1        1 0.41063356E+00 0.84008276E+03</pdfrwt>
<pdfrwt beam="2">  1       -1 0.43242956E-01 0.84008276E+03</pdfrwt>
<totfact> 0.56861793E+00</totfact>
</mgrwt>
</event>
<event>
 4    1  0.8114601E-008  0.1086262E+04  0.7818608E-02  0.9276508E-01
          1   -1    0    0  501    0  0.00000000000E+00  0.00000000000E+00  0.13768023217E+04  0.13768023218E+04  0.50400000000E-02 0. -1.
         -1   -1    0    0    0  501 -0.00000000000E+00 -0.00000000000E+00 -0.91357358443E+03  0.91357358444E+03  0.50400000000E-02 0.  1.
    8880023    1    1    2    0    0  0.44540168704E+03 -0.74011695049E+03  0.80173628564E+03  0.13500914936E+04  0.65864270000E+03 0. -1.
    8880022    1    1    2    0    0 -0.44540168704E+03  0.74011695049E+03 -0.33850754832E+03  0.94028441256E+03  0.15294330000E+03 0.  0.
<mgrwt>
<rscale>  0 0.10297469E+04</rscale>
<asrwt>0</asrwt>
<pdfrwt beam="1">  1        1 0.21181574E+00 0.10862624E+04</pdfrwt>
<pdfrwt beam="2">  1       -1 0.14054978E+00 0.10862624E+04</pdfrwt>
<totfact> 0.32895355E+00</totfact>
</mgrwt>
</event>
<event>
 4    1  0.8114601E-008  0.9623162E+03  0.7818608E-02  0.9432611E-01
         -1   -1    0    0    0  501 -0.00000000000E+00  0.00000000000E+00  0.12887662524E+04  0.12887662524E+04  0.50400000000E-02 0.  1.
          1   -1    0    0  501    0  0.00000000000E+00 -0.00000000000E+00 -0.14398435978E+04  0.14398435978E+04  0.50400000000E-02 0. -1.
    8880023    1    1    2    0    0 -0.69569253098E+03 -0.90852774348E+02 -0.11492756565E+04  0.14989619959E+04  0.65864270000E+03 0. -1.
    8880022    1    1    2    0    0  0.69569253098E+03  0.90852774348E+02  0.99819831109E+03  0.12296478543E+04  0.15294330000E+03 0.  0.
<mgrwt>
<rscale>  0 0.89439847E+03</rscale>
<asrwt>0</asrwt>
<pdfrwt beam="1">  1        1 0.22151440E+00 0.96231623E+03</pdfrwt>
<pdfrwt beam="2">  1       -1 0.19827173E+00 0.96231623E+03</pdfrwt>
<totfact> 0.11283745E+00</totfact>
</mgrwt>
</event>
<event>
 4    1  0.8114601E-008  0.8878909E+03  0.7818608E-02  0.9545757E-01
         -1   -1    0    0    0  501 -0.00000000000E+00  0.00000000000E+00  0.47806280677E+03  0.47806280679E+03  0.50400000000E-02 0.  1.
          1   -1    0    0  501    0  0.00000000000E+00 -0.00000000000E+00 -0.16867160298E+04  0.16867160298E+04  0.50400000000E-02 0. -1.
    8880023    1    1    2    0    0 -0.57173905514E+02  0.59268138783E+03 -0.95321509290E+02  0.89299298953E+03  0.65864270000E+03 0.  0.
    8880022    1    1    2    0    0  0.57173905514E+02 -0.59268138783E+03 -0.11133317137E+04  0.12717858470E+04  0.15294330000E+03 0.  0.
<mgrwt>
<rscale>  0 0.80992794E+03</rscale>
<asrwt>0</asrwt>
<pdfrwt beam="1">  1        1 0.25949477E+00 0.88789092E+03</pdfrwt>
<pdfrwt beam="2">  1       -1 0.73548125E-01 0.88789092E+03</pdfrwt>
<totfact> 0.92578918E+00</totfact>
</mgrwt>
</event>
<event>
 4    1  0.8114601E-008  0.1037380E+04  0.7818608E-02  0.9334209E-01
         -1   -1    0    0    0  501 -0.00000000000E+00  0.00000000000E+00  0.53724909697E+03  0.53724909700E+03  0.50400000000E-02 0.  1.
          1   -1    0    0  501    0  0.00000000000E+00 -0.00000000000E+00 -0.21651870066E+04  0.21651870066E+04  0.50400000000E-02 0. -1.
    8880023    1    1    2    0    0  0.58559459413E+03 -0.54719753840E+03 -0.15735050985E+04  0.18846948495E+04  0.65864270000E+03 0.  0.
    8880022    1    1    2    0    0 -0.58559459413E+03  0.54719753840E+03 -0.54432811189E+02  0.81774125410E+03  0.15294330000E+03 0.  0.
<mgrwt>
<rscale>  0 0.97693614E+03</rscale>
<asrwt>0</asrwt>
<pdfrwt beam="1">  1        1 0.33310569E+00 0.10373796E+04</pdfrwt>
<pdfrwt beam="2">  1       -1 0.82653708E-01 0.10373796E+04</pdfrwt>
<totfact> 0.33752259E+00</totfact>
</mgrwt>
</event>
<event>
 4    1  0.8114601E-008  0.7219268E+03  0.7818608E-02  0.9916119E-01
         -1   -1    0    0    0  501 -0.00000000000E+00  0.00000000000E+00  0.13403396263E+04  0.13403396263E+04  0.50400000000E-02 0.  1.
          1   -1    0    0  501    0  0.00000000000E+00 -0.00000000000E+00 -0.77245823275E+03  0.77245823276E+03  0.50400000000E-02 0. -1.
    8880023    1    1    2    0    0 -0.30574698195E+02 -0.29399548073E+03 -0.57469299510E+03  0.92274070016E+03  0.65864270000E+03 0. -1.
    8880022    1    1    2    0    0  0.30574698195E+02  0.29399548073E+03  0.11425743887E+04  0.11900571589E+04  0.15294330000E+03 0.  0.
<mgrwt>
<rscale>  0 0.59486397E+03</rscale>
<asrwt>0</asrwt>
<pdfrwt beam="1">  1        1 0.11883973E+00 0.72192684E+03</pdfrwt>
<pdfrwt beam="2">  1       -1 0.20620609E+00 0.72192684E+03</pdfrwt>
<totfact> 0.33315752E+00</totfact>
</mgrwt>
</event>
<event>
 4    1  0.8114601E-008  0.9500274E+03  0.7818608E-02  0.9450075E-01
         -1   -1    0    0    0  501 -0.00000000000E+00  0.00000000000E+00  0.10269334706E+04  0.10269334706E+04  0.50400000000E-02 0.  1.
          1   -1    0    0  501    0  0.00000000000E+00 -0.00000000000E+00 -0.92753844801E+03  0.92753844802E+03  0.50400000000E-02 0. -1.
    8880023    1    1    2    0    0  0.66300625657E+03  0.17077616017E+03 -0.46159247351E+03  0.10562289577E+04  0.65864270000E+03 0. -1.
    8880022    1    1    2    0    0 -0.66300625657E+03 -0.17077616017E+03  0.56098749609E+03  0.89824296096E+03  0.15294330000E+03 0.  0.
<mgrwt>
<rscale>  0 0.88066847E+03</rscale>
<asrwt>0</asrwt>
<pdfrwt beam="1">  1        1 0.14269822E+00 0.95002737E+03</pdfrwt>
<pdfrwt beam="2">  1       -1 0.15798976E+00 0.95002737E+03</pdfrwt>
<totfact> 0.52745622E+00</totfact>
</mgrwt>
</event>
<event>
 4    1  0.8114601E-008  0.7208664E+03  0.7818608E-02  0.9919665E-01
         -1   -1    0    0    0  501 -0.00000000000E+00  0.00000000000E+00  0.22736819889E+03  0.22736819895E+03  0.50400000000E-02 0.  1.
          1   -1    0    0  501    0  0.00000000000E+00 -0.00000000000E+00 -0.29801111204E+04  0.29801111204E+04  0.50400000000E-02 0. -1.
    8880023    1    1    2    0    0 -0.28855556150E+03 -0.50733755366E+02 -0.27837093577E+04  0.28755323369E+04  0.65864270000E+03 0. -1.
    8880022    1    1    2    0    0  0.28855556150E+03  0.50733755366E+02  0.30966436165E+02  0.33194698250E+03  0.15294330000E+03 0.  0.
<mgrwt>
<rscale>  0 0.59317630E+03</rscale>
<asrwt>0</asrwt>
<pdfrwt beam="1">  1        1 0.45847861E+00 0.72086645E+03</pdfrwt>
<pdfrwt beam="2">  1       -1 0.34979725E-01 0.72086645E+03</pdfrwt>
<totfact> 0.51509277E+00</totfact>
</mgrwt>
</event>
<event>
 4    1  0.8114601E-008  0.8254534E+03  0.7818608E-02  0.9658244E-01
         -1   -1    0    0    0  501 -0.00000000000E+00  0.00000000000E+00  0.76819569436E+03  0.76819569438E+03  0.50400000000E-02 0.  1.
          1   -1    0    0  501    0  0.00000000000E+00 -0.00000000000E+00 -0.18669158602E+04  0.18669158602E+04  0.50400000000E-02 0. -1.
    8880023    1    1    2    0    0 -0.19647575340E+03  0.45712177475E+03 -0.16696226416E+04  0.18625286603E+04  0.65864270000E+03 0. -1.
    8880022    1    1    2    0    0  0.19647575340E+03 -0.45712177475E+03  0.57090247582E+03  0.77258289428E+03  0.15294330000E+03 0.  0.
<mgrwt>
<rscale>  0 0.73558267E+03</rscale>
<asrwt>0</asrwt>
<pdfrwt beam="1">  1        1 0.28721782E+00 0.82545336E+03</pdfrwt>
<pdfrwt beam="2">  1       -1 0.11818395E+00 0.82545336E+03</pdfrwt>
<totfact> 0.24448376E+00</totfact>
</mgrwt>
</event>
<event>
 4    1  0.8114601E-008  0.7135730E+03  0.7818608E-02  0.9944965E-01
         -1   -1    0    0    0  501 -0.00000000000E+00  0.00000000000E+00  0.31270772093E+03  0.31270772097E+03  0.50400000000E-02 0.  1.
          1   -1    0    0  501    0  0.00000000000E+00 -0.00000000000E+00 -0.99477412022E+03  0.99477412024E+03  0.50400000000E-02 0. -1.
    8880023    1    1    2    0    0 -0.26801784195E+03 -0.59520708943E+02 -0.69068190172E+03  0.99309011375E+03  0.65864270000E+03 0. -1.
    8880022    1    1    2    0    0  0.26801784195E+03  0.59520708943E+02  0.86155024195E+01  0.31439172746E+03  0.15294330000E+03 0. -1.
<mgrwt>
<rscale>  0 0.58130736E+03</rscale>
<asrwt>0</asrwt>
<pdfrwt beam="1">  1        1 0.15304217E+00 0.71357304E+03</pdfrwt>
<pdfrwt beam="2">  1       -1 0.48108881E-01 0.71357304E+03</pdfrwt>
<totfact> 0.67652103E+01</totfact>
</mgrwt>
</event>
<event>
 4    1  0.8114601E-008  0.6976332E+03  0.7818608E-02  0.1000716E+00
          1   -1    0    0  501    0  0.00000000000E+00  0.00000000000E+00  0.14044766497E+04  0.14044766497E+04  0.50400000000E-02 0. -1.
         -1   -1    0    0    0  501 -0.00000000000E+00 -0.00000000000E+00 -0.43784520728E+03  0.43784520731E+03  0.50400000000E-02 0.  1.
    8880023    1    1    2    0    0 -0.20854308786E+03  0.96910780754E+02  0.12594813569E+04  0.14397865861E+04  0.65864270000E+03 0. -1.
    8880022    1    1    2    0    0  0.20854308786E+03 -0.96910780754E+02 -0.29284991446E+03  0.40253527092E+03  0.15294330000E+03 0.  0.
<mgrwt>
<rscale>  0 0.55337194E+03</rscale>
<asrwt>0</asrwt>
<pdfrwt beam="1">  1        1 0.21607333E+00 0.69763323E+03</pdfrwt>
<pdfrwt beam="2">  1       -1 0.67360803E-01 0.69763323E+03</pdfrwt>
<totfact> 0.17735053E+01</totfact>
</mgrwt>
</event>
<event>
 4    1  0.8114601E-008  0.1040506E+04  0.7818608E-02  0.9330382E-01
          1   -1    0    0  501    0  0.00000000000E+00  0.00000000000E+00  0.96559109180E+03  0.96559109181E+03  0.50400000000E-02 0. -1.
         -1   -1    0    0    0  501 -0.00000000000E+00 -0.00000000000E+00 -0.21640011631E+04  0.21640011631E+04  0.50400000000E-02 0.  1.
    8880023    1    1    2    0    0 -0.30754384450E+02  0.80492024517E+03  0.56563965154E+03  0.11843145084E+04  0.65864270000E+03 0. -1.
    8880022    1    1    2    0    0  0.30754384450E+02 -0.80492024517E+03 -0.17640497228E+04  0.19452777465E+04  0.15294330000E+03 0.  0.
<mgrwt>
<rscale>  0 0.98033271E+03</rscale>
<asrwt>0</asrwt>
<pdfrwt beam="1">  1        1 0.14855248E+00 0.10405060E+04</pdfrwt>
<pdfrwt beam="2">  1       -1 0.33292325E+00 0.10405060E+04</pdfrwt>
<totfact> 0.32817131E-01</totfact>
</mgrwt>
</event>
<event>
 4    1  0.8114601E-008  0.9084334E+03  0.7818608E-02  0.9512627E-01
         -1   -1    0    0    0  501 -0.00000000000E+00  0.00000000000E+00  0.92459244353E+03  0.92459244355E+03  0.50400000000E-02 0.  1.
          1   -1    0    0  501    0  0.00000000000E+00 -0.00000000000E+00 -0.98991625965E+03  0.98991625966E+03  0.50400000000E-02 0. -1.
    8880023    1    1    2    0    0  0.61144470886E+03  0.13257598594E+03 -0.59047769246E+03  0.10834736432E+04  0.65864270000E+03 0.  0.
    8880022    1    1    2    0    0 -0.61144470886E+03 -0.13257598594E+03  0.52515387634E+03  0.83103505997E+03  0.15294330000E+03 0.  0.
<mgrwt>
<rscale>  0 0.83359277E+03</rscale>
<asrwt>0</asrwt>
<pdfrwt beam="1">  1        1 0.15229481E+00 0.90843339E+03</pdfrwt>
<pdfrwt beam="2">  1       -1 0.14224499E+00 0.90843339E+03</pdfrwt>
<totfact> 0.62759664E+00</totfact>
</mgrwt>
</event>
<event>
 4    1  0.8114601E-008  0.8335524E+03  0.7818608E-02  0.9642460E-01
         -1   -1    0    0    0  501 -0.00000000000E+00  0.00000000000E+00  0.14642243199E+04  0.14642243199E+04  0.50400000000E-02 0.  1.
          1   -1    0    0  501    0  0.00000000000E+00 -0.00000000000E+00 -0.76740529484E+03  0.76740529486E+03  0.50400000000E-02 0. -1.
    8880023    1    1    2    0    0 -0.50086603620E+03 -0.10066083093E+03 -0.46412890764E+03  0.95405725105E+03  0.65864270000E+03 0. -1.
    8880022    1    1    2    0    0  0.50086603620E+03  0.10066083093E+03  0.11609479327E+04  0.12775723638E+04  0.15294330000E+03 0.  0.
<mgrwt>
<rscale>  0 0.74548544E+03</rscale>
<asrwt>0</asrwt>
<pdfrwt beam="1">  1        1 0.11806235E+00 0.83355240E+03</pdfrwt>
<pdfrwt beam="2">  1       -1 0.22526528E+00 0.83355240E+03</pdfrwt>
<totfact> 0.24669283E+00</totfact>
</mgrwt>
</event>
<event>
 4    1  0.8114601E-008  0.9032932E+03  0.7818608E-02  0.9520766E-01
          1   -1    0    0  501    0  0.00000000000E+00  0.00000000000E+00  0.63857936311E+03  0.63857936313E+03  0.50400000000E-02 0. -1.
         -1   -1    0    0    0  501 -0.00000000000E+00 -0.00000000000E+00 -0.10018270941E+04  0.10018270941E+04  0.50400000000E-02 0.  1.
    8880023    1    1    2    0    0 -0.59390329358E+03 -0.17148532971E+03  0.79191252791E+01  0.90332788025E+03  0.65864270000E+03 0.  0.
    8880022    1    1    2    0    0  0.59390329358E+03  0.17148532971E+03 -0.37116685626E+03  0.73707857698E+03  0.15294330000E+03 0. -1.
<mgrwt>
<rscale>  0 0.82770023E+03</rscale>
<asrwt>0</asrwt>
<pdfrwt beam="1">  1        1 0.98242979E-01 0.90329317E+03</pdfrwt>
<pdfrwt beam="2">  1       -1 0.15412725E+00 0.90329317E+03</pdfrwt>
<totfact> 0.10257577E+01</totfact>
</mgrwt>
</event>
<event>
 4    1  0.8114601E-008  0.8612978E+03  0.7818608E-02  0.9591259E-01
          1   -1    0    0  501    0  0.00000000000E+00  0.00000000000E+00  0.87559382841E+03  0.87559382842E+03  0.50400000000E-02 0. -1.
         -1   -1    0    0    0  501 -0.00000000000E+00 -0.00000000000E+00 -0.90909281481E+03  0.90909281482E+03  0.50400000000E-02 0.  1.
    8880023    1    1    2    0    0 -0.52745899739E+03 -0.17265754279E+03  0.50329203425E+03  0.99756538583E+03  0.65864270000E+03 0. -1.
    8880022    1    1    2    0    0  0.52745899739E+03  0.17265754279E+03 -0.53679102065E+03  0.78712125742E+03  0.15294330000E+03 0.  0.
<mgrwt>
<rscale>  0 0.77877419E+03</rscale>
<asrwt>0</asrwt>
<pdfrwt beam="1">  1        1 0.13470674E+00 0.86129776E+03</pdfrwt>
<pdfrwt beam="2">  1       -1 0.13986043E+00 0.86129776E+03</pdfrwt>
<totfact> 0.81540712E+00</totfact>
</mgrwt>
</event>
<event>
 4    1  0.8114601E-008  0.1245705E+04  0.7818608E-02  0.9113925E-01
         -1   -1    0    0    0  501 -0.00000000000E+00  0.00000000000E+00  0.13324907046E+04  0.13324907046E+04  0.50400000000E-02 0.  1.
          1   -1    0    0  501    0  0.00000000000E+00 -0.00000000000E+00 -0.10937132277E+04  0.10937132277E+04  0.50400000000E-02 0. -1.
    8880023    1    1    2    0    0  0.29044771019E+03  0.10166671175E+04 -0.21741284272E+03  0.12645356660E+04  0.65864270000E+03 0. -1.
    8880022    1    1    2    0    0 -0.29044771019E+03 -0.10166671175E+04  0.45619031965E+03  0.11616682663E+04  0.15294330000E+03 0.  0.
<mgrwt>
<rscale>  0 0.11987801E+04</rscale>
<asrwt>0</asrwt>
<pdfrwt beam="1">  1        1 0.16826357E+00 0.12457055E+04</pdfrwt>
<pdfrwt beam="2">  1       -1 0.20499857E+00 0.12457055E+04</pdfrwt>
<totfact> 0.17390570E+00</totfact>
</mgrwt>
</event>
<event>
 4    1  0.8114601E-008  0.8872805E+03  0.7818608E-02  0.9546767E-01
         -1   -1    0    0    0  501 -0.00000000000E+00  0.00000000000E+00  0.10747613115E+04  0.10747613115E+04  0.50400000000E-02 0.  1.
          1   -1    0    0  501    0  0.00000000000E+00 -0.00000000000E+00 -0.15418795166E+04  0.15418795166E+04  0.50400000000E-02 0. -1.
    8880023    1    1    2    0    0 -0.52878263206E+03  0.27174496922E+03 -0.13049246119E+04  0.15780034377E+04  0.65864270000E+03 0. -1.
    8880022    1    1    2    0    0  0.52878263206E+03 -0.27174496922E+03  0.83780640686E+03  0.10386373904E+04  0.15294330000E+03 0.  0.
<mgrwt>
<rscale>  0 0.80921974E+03</rscale>
<asrwt>0</asrwt>
<pdfrwt beam="1">  1        1 0.23721223E+00 0.88728046E+03</pdfrwt>
<pdfrwt beam="2">  1       -1 0.16534789E+00 0.88728046E+03</pdfrwt>
<totfact> 0.16685410E+00</totfact>
</mgrwt>
</event>
<event>
 4    1  0.8114601E-008  0.1007456E+04  0.7818608E-02  0.9371867E-01
         -1   -1    0    0    0  501 -0.00000000000E+00  0.00000000000E+00  0.59627423524E+03  0.59627423526E+03  0.50400000000E-02 0.  1.
          1   -1    0    0  501    0  0.00000000000E+00 -0.00000000000E+00 -0.14426199002E+04  0.14426199002E+04  0.50400000000E-02 0. -1.
    8880023    1    1    2    0    0 -0.18066752426E+03 -0.74061903960E+03 -0.74883212299E+03  0.12552756951E+04  0.65864270000E+03 0.  0.
    8880022    1    1    2    0    0  0.18066752426E+03  0.74061903960E+03 -0.97513541983E+02  0.78361844033E+03  0.15294330000E+03 0.  0.
<mgrwt>
<rscale>  0 0.94427500E+03</rscale>
<asrwt>0</asrwt>
<pdfrwt beam="1">  1        1 0.22194152E+00 0.10074560E+04</pdfrwt>
<pdfrwt beam="2">  1       -1 0.91734499E-01 0.10074560E+04</pdfrwt>
<totfact> 0.83410099E+00</totfact>
</mgrwt>
</event>
<event>
 4    1  0.1599364E-007  0.7764541E+03  0.7818608E-02  0.9764233E-01
          1   -1    0    0  501    0  0.00000000000E+00  0.00000000000E+00  0.18916137309E+04  0.18916137310E+04  0.50400000000E-02 0. -1.
         -1   -1    0    0    0  501 -0.00000000000E+00 -0.00000000000E+00 -0.18124278916E+04  0.18124278916E+04  0.50400000000E-02 0.  1.
    8880023    1    1    2    0    0  0.41079774142E+03 -0.17777663501E+02  0.17829602772E+04  0.19446923628E+04  0.65864270000E+03 0. -1.
    8880022    1    1    2    0    0 -0.41079774142E+03  0.17777663501E+02 -0.17037744379E+04  0.17593492598E+04  0.15294330000E+03 0.  0.
<mgrwt>
<rscale>  0 0.67317832E+03</rscale>
<asrwt>0</asrwt>
<pdfrwt beam="1">  1        1 0.29101750E+00 0.77645414E+03</pdfrwt>
<pdfrwt beam="2">  1       -1 0.27883506E+00 0.77645414E+03</pdfrwt>
<totfact> 0.17102927E-01</totfact>
</mgrwt>
</event>
<event>
 4    1  0.8114601E-008  0.8239646E+03  0.7818608E-02  0.9661191E-01
         -1   -1    0    0    0  501 -0.00000000000E+00  0.00000000000E+00  0.87254125708E+03  0.87254125710E+03  0.50400000000E-02 0.  1.
          1   -1    0    0  501    0  0.00000000000E+00 -0.00000000000E+00 -0.59758595292E+03  0.59758595294E+03  0.50400000000E-02 0. -1.
    8880023    1    1    2    0    0 -0.39134426089E+03 -0.30324444393E+03 -0.10072730108E+03  0.83009861990E+03  0.65864270000E+03 0.  0.
    8880022    1    1    2    0    0  0.39134426089E+03  0.30324444393E+03  0.37568260524E+03  0.64002859014E+03  0.15294330000E+03 0.  0.
<mgrwt>
<rscale>  0 0.73375201E+03</rscale>
<asrwt>0</asrwt>
<pdfrwt beam="1">  1        1 0.91936301E-01 0.82396464E+03</pdfrwt>
<pdfrwt beam="2">  1       -1 0.13423712E+00 0.82396464E+03</pdfrwt>
<totfact> 0.16409694E+01</totfact>
</mgrwt>
</event>
<event>
 4    1  0.8114601E-008  0.1263520E+04  0.7818608E-02  0.9097721E-01
          1   -1    0    0  501    0  0.00000000000E+00  0.00000000000E+00  0.19860835288E+04  0.19860835288E+04  0.50400000000E-02 0. -1.
         -1   -1    0    0    0  501 -0.00000000000E+00 -0.00000000000E+00 -0.10126585810E+04  0.10126585811E+04  0.50400000000E-02 0.  1.
    8880023    1    1    2    0    0  0.10076244707E+04  0.38388251540E+03  0.13474981667E+04  0.18472234232E+04  0.65864270000E+03 0. -1.
    8880022    1    1    2    0    0 -0.10076244707E+04 -0.38388251540E+03 -0.37407321897E+03  0.11515186867E+04  0.15294330000E+03 0.  0.
<mgrwt>
<rscale>  0 0.12174473E+04</rscale>
<asrwt>0</asrwt>
<pdfrwt beam="1">  1        1 0.30555132E+00 0.12635201E+04</pdfrwt>
<pdfrwt beam="2">  1       -1 0.15579363E+00 0.12635201E+04</pdfrwt>
<totfact> 0.93401227E-01</totfact>
</mgrwt>
</event>
<event>
 4    1  0.8114601E-008  0.1047969E+04  0.7818608E-02  0.9321327E-01
          1   -1    0    0  501    0  0.00000000000E+00  0.00000000000E+00  0.18693822080E+04  0.18693822081E+04  0.50400000000E-02 0. -1.
         -1   -1    0    0    0  501 -0.00000000000E+00 -0.00000000000E+00 -0.95031661062E+03  0.95031661064E+03  0.50400000000E-02 0.  1.
    8880023    1    1    2    0    0 -0.66612204388E+03  0.46979843808E+03 -0.51148457277E+03  0.11661285625E+04  0.65864270000E+03 0.  1.
    8880022    1    1    2    0    0  0.66612204388E+03 -0.46979843808E+03  0.14305501702E+04  0.16535702562E+04  0.15294330000E+03 0.  0.
<mgrwt>
<rscale>  0 0.98842971E+03</rscale>
<asrwt>0</asrwt>
<pdfrwt beam="1">  1        1 0.28759726E+00 0.10479692E+04</pdfrwt>
<pdfrwt beam="2">  1       -1 0.14620256E+00 0.10479692E+04</pdfrwt>
<totfact> 0.13691484E+00</totfact>
</mgrwt>
</event>
<event>
 4    1  0.8114601E-008  0.1090384E+04  0.7818608E-02  0.9271839E-01
          1   -1    0    0  501    0  0.00000000000E+00  0.00000000000E+00  0.11183509608E+04  0.11183509609E+04  0.50400000000E-02 0. -1.
         -1   -1    0    0    0  501 -0.00000000000E+00 -0.00000000000E+00 -0.11288532939E+04  0.11288532939E+04  0.50400000000E-02 0.  1.
    8880023    1    1    2    0    0  0.45880220423E+03  0.73798885973E+03  0.53011265416E+03  0.12124176888E+04  0.65864270000E+03 0. -1.
    8880022    1    1    2    0    0 -0.45880220423E+03 -0.73798885973E+03 -0.54061498718E+03  0.10347865660E+04  0.15294330000E+03 0.  0.
<mgrwt>
<rscale>  0 0.10341731E+04</rscale>
<asrwt>0</asrwt>
<pdfrwt beam="1">  1        1 0.17205399E+00 0.10903840E+04</pdfrwt>
<pdfrwt beam="2">  1       -1 0.17366974E+00 0.10903840E+04</pdfrwt>
<totfact> 0.28199516E+00</totfact>
</mgrwt>
</event>
<event>
 4    1  0.8114601E-008  0.9604732E+03  0.7818608E-02  0.9435203E-01
         -1   -1    0    0    0  501 -0.00000000000E+00  0.00000000000E+00  0.77506677773E+03  0.77506677774E+03  0.50400000000E-02 0.  1.
          1   -1    0    0  501    0  0.00000000000E+00 -0.00000000000E+00 -0.14433984383E+04  0.14433984383E+04  0.50400000000E-02 0. -1.
    8880023    1    1    2    0    0  0.67326406398E+03 -0.18818648761E+03 -0.10370113618E+04  0.14134714092E+04  0.65864270000E+03 0.  0.
    8880022    1    1    2    0    0 -0.67326406398E+03  0.18818648761E+03  0.36867970120E+03  0.80499380685E+03  0.15294330000E+03 0.  0.
<mgrwt>
<rscale>  0 0.89234393E+03</rscale>
<asrwt>0</asrwt>
<pdfrwt beam="1">  1        1 0.22206130E+00 0.96047325E+03</pdfrwt>
<pdfrwt beam="2">  1       -1 0.11924104E+00 0.96047325E+03</pdfrwt>
<totfact> 0.45490362E+00</totfact>
</mgrwt>
</event>
<event>
 4    1  0.8114601E-008  0.7968569E+03  0.7818608E-02  0.9717634E-01
          1   -1    0    0  501    0  0.00000000000E+00  0.00000000000E+00  0.26695646620E+03  0.26695646625E+03  0.50400000000E-02 0. -1.
         -1   -1    0    0    0  501 -0.00000000000E+00 -0.00000000000E+00 -0.16673400869E+04  0.16673400869E+04  0.50400000000E-02 0.  1.
    8880023    1    1    2    0    0 -0.43386490341E+03  0.11371905240E+03 -0.57536190510E+03  0.98286433722E+03  0.65864270000E+03 0.  0.
    8880022    1    1    2    0    0  0.43386490341E+03 -0.11371905240E+03 -0.82502171562E+03  0.95143221595E+03  0.15294330000E+03 0.  0.
<mgrwt>
<rscale>  0 0.69976531E+03</rscale>
<asrwt>0</asrwt>
<pdfrwt beam="1">  1        1 0.41070227E-01 0.79685694E+03</pdfrwt>
<pdfrwt beam="2">  1       -1 0.25651385E+00 0.79685694E+03</pdfrwt>
<totfact> 0.66602864E+00</totfact>
</mgrwt>
</event>
<event>
 4    1  0.8114601E-008  0.7312935E+03  0.7818608E-02  0.9886075E-01
         -1   -1    0    0    0  501 -0.00000000000E+00  0.00000000000E+00  0.62831024155E+03  0.62831024157E+03  0.50400000000E-02 0.  1.
          1   -1    0    0  501    0  0.00000000000E+00 -0.00000000000E+00 -0.73191688370E+03  0.73191688372E+03  0.50400000000E-02 0. -1.
    8880023    1    1    2    0    0  0.25079919249E+03 -0.19514017042E+03 -0.45588750562E+03  0.86175608214E+03  0.65864270000E+03 0. -1.
    8880022    1    1    2    0    0 -0.25079919249E+03  0.19514017042E+03  0.35228086348E+03  0.49847104314E+03  0.15294330000E+03 0.  0.
<mgrwt>
<rscale>  0 0.60940906E+03</rscale>
<asrwt>0</asrwt>
<pdfrwt beam="1">  1        1 0.11260260E+00 0.73129346E+03</pdfrwt>
<pdfrwt beam="2">  1       -1 0.96663114E-01 0.73129346E+03</pdfrwt>
<totfact> 0.26920445E+01</totfact>
</mgrwt>
</event>
<event>
 4    1  0.8114601E-008  0.9397730E+03  0.7818608E-02  0.9464984E-01
         -1   -1    0    0    0  501 -0.00000000000E+00  0.00000000000E+00  0.63866515877E+03  0.63866515879E+03  0.50400000000E-02 0.  1.
          1   -1    0    0  501    0  0.00000000000E+00 -0.00000000000E+00 -0.13139492369E+04  0.13139492369E+04  0.50400000000E-02 0. -1.
    8880023    1    1    2    0    0 -0.23237186585E+03  0.62878168976E+03 -0.82317680377E+03  0.12493171551E+04  0.65864270000E+03 0.  0.
    8880022    1    1    2    0    0  0.23237186585E+03 -0.62878168976E+03  0.14789272562E+03  0.70329724066E+03  0.15294330000E+03 0.  0.
<mgrwt>
<rscale>  0 0.86915396E+03</rscale>
<asrwt>0</asrwt>
<pdfrwt beam="1">  1        1 0.20214604E+00 0.93977301E+03</pdfrwt>
<pdfrwt beam="2">  1       -1 0.98256179E-01 0.93977301E+03</pdfrwt>
<totfact> 0.88680685E+00</totfact>
</mgrwt>
</event>
<event>
 4    1  0.8114601E-008  0.7653684E+03  0.7818608E-02  0.9791402E-01
         -1   -1    0    0    0  501 -0.00000000000E+00  0.00000000000E+00  0.13187791713E+04  0.13187791713E+04  0.50400000000E-02 0.  1.
          1   -1    0    0  501    0  0.00000000000E+00 -0.00000000000E+00 -0.34445146560E+03  0.34445146564E+03  0.50400000000E-02 0. -1.
    8880023    1    1    2    0    0 -0.25511782070E+02  0.38900866812E+03  0.21320634352E+03  0.79450975203E+03  0.65864270000E+03 0.  0.
    8880022    1    1    2    0    0  0.25511782070E+02 -0.38900866812E+03  0.76112136215E+03  0.86872088488E+03  0.15294330000E+03 0.  0.
<mgrwt>
<rscale>  0 0.65825988E+03</rscale>
<asrwt>0</asrwt>
<pdfrwt beam="1">  1        1 0.52992534E-01 0.76536841E+03</pdfrwt>
<pdfrwt beam="2">  1       -1 0.20288910E+00 0.76536841E+03</pdfrwt>
<totfact> 0.10821335E+01</totfact>
</mgrwt>
</event>
<event>
 4    1  0.8114601E-008  0.6603608E+03  0.7818608E-02  0.1023790E+00
          1   -1    0    0  501    0  0.00000000000E+00  0.00000000000E+00  0.28284280649E+04  0.28284280649E+04  0.50400000000E-02 0. -1.
         -1   -1    0    0    0  501 -0.00000000000E+00 -0.00000000000E+00 -0.14025062871E+03  0.14025062880E+03  0.50400000000E-02 0.  1.
    8880023    1    1    2    0    0  0.14267556831E+02 -0.45415749037E+02  0.27253739840E+04  0.28042360301E+04  0.65864270000E+03 0. -1.
    8880022    1    1    2    0    0 -0.14267556831E+02  0.45415749037E+02 -0.37196547810E+02  0.16444266363E+03  0.15294330000E+03 0.  0.
<mgrwt>
<rscale>  0 0.46343454E+03</rscale>
<asrwt>0</asrwt>
<pdfrwt beam="1">  1        1 0.43514275E+00 0.66036078E+03</pdfrwt>
<pdfrwt beam="2">  1       -1 0.21577021E-01 0.66036078E+03</pdfrwt>
<totfact> 0.15339107E+01</totfact>
</mgrwt>
</event>
<event>
 4    1  0.8114601E-008  0.8356381E+03  0.7818608E-02  0.9638460E-01
         -1   -1    0    0    0  501 -0.00000000000E+00  0.00000000000E+00  0.51047721486E+03  0.51047721489E+03  0.50400000000E-02 0.  1.
          1   -1    0    0  501    0  0.00000000000E+00 -0.00000000000E+00 -0.10408478210E+04  0.10408478210E+04  0.50400000000E-02 0. -1.
    8880023    1    1    2    0    0  0.86770607552E+02 -0.50690400066E+03 -0.59985454317E+02  0.83778831767E+03  0.65864270000E+03 0.  0.
    8880022    1    1    2    0    0 -0.86770607552E+02  0.50690400066E+03 -0.47038515185E+03  0.71353671827E+03  0.15294330000E+03 0.  0.
<mgrwt>
<rscale>  0 0.74802082E+03</rscale>
<asrwt>0</asrwt>
<pdfrwt beam="1">  1        1 0.16013043E+00 0.83563809E+03</pdfrwt>
<pdfrwt beam="2">  1       -1 0.78534956E-01 0.83563809E+03</pdfrwt>
<totfact> 0.23252693E+01</totfact>
</mgrwt>
</event>
<event>
 4    1  0.8114601E-008  0.7009865E+03  0.7818608E-02  0.9993133E-01
          1   -1    0    0  501    0  0.00000000000E+00  0.00000000000E+00  0.67675985355E+03  0.67675985357E+03  0.50400000000E-02 0. -1.
         -1   -1    0    0    0  501 -0.00000000000E+00 -0.00000000000E+00 -0.15523119162E+04  0.15523119162E+04  0.50400000000E-02 0.  1.
    8880023    1    1    2    0    0  0.17673819512E+03 -0.16228223504E+03  0.47636889508E+03  0.84753138224E+03  0.65864270000E+03 0. -1.
    8880022    1    1    2    0    0 -0.17673819512E+03  0.16228223504E+03 -0.13519209578E+04  0.13815403876E+04  0.15294330000E+03 0.  0.
<mgrwt>
<rscale>  0 0.55952367E+03</rscale>
<asrwt>0</asrwt>
<pdfrwt beam="1">  1        1 0.10411690E+00 0.70098653E+03</pdfrwt>
<pdfrwt beam="2">  1       -1 0.23881722E+00 0.70098653E+03</pdfrwt>
<totfact> 0.24909335E+00</totfact>
</mgrwt>
</event>
<event>
 4    1  0.8114601E-008  0.1148691E+04  0.7818608E-02  0.9208687E-01
         -1   -1    0    0    0  501 -0.00000000000E+00  0.00000000000E+00  0.66628246122E+03  0.66628246123E+03  0.50400000000E-02 0.  1.
          1   -1    0    0  501    0  0.00000000000E+00 -0.00000000000E+00 -0.36285294625E+04  0.36285294625E+04  0.50400000000E-02 0. -1.
    8880023    1    1    2    0    0  0.23707564612E+03 -0.91075607909E+03 -0.31233143146E+04  0.33278497580E+04  0.65864270000E+03 0.  0.
    8880022    1    1    2    0    0 -0.23707564612E+03  0.91075607909E+03  0.16106731332E+03  0.96696216576E+03  0.15294330000E+03 0.  0.
<mgrwt>
<rscale>  0 0.10964210E+04</rscale>
<asrwt>0</asrwt>
<pdfrwt beam="1">  1        1 0.55823529E+00 0.11486913E+04</pdfrwt>
<pdfrwt beam="2">  1       -1 0.10250500E+00 0.11486913E+04</pdfrwt>
<totfact> 0.18031008E-01</totfact>
</mgrwt>
</event>
<event>
 4    1  0.8114601E-008  0.1042195E+04  0.7818608E-02  0.9328323E-01
          1   -1    0    0  501    0  0.00000000000E+00  0.00000000000E+00  0.81421225840E+03  0.81421225841E+03  0.50400000000E-02 0. -1.
         -1   -1    0    0    0  501 -0.00000000000E+00 -0.00000000000E+00 -0.22297686627E+04  0.22297686627E+04  0.50400000000E-02 0.  1.
    8880023    1    1    2    0    0  0.66354944299E+03  0.46050213219E+03  0.34757971727E+03  0.10986272995E+04  0.65864270000E+03 0.  0.
    8880022    1    1    2    0    0 -0.66354944299E+03 -0.46050213219E+03 -0.17631361216E+04  0.19453536216E+04  0.15294330000E+03 0.  0.
<mgrwt>
<rscale>  0 0.98216649E+03</rscale>
<asrwt>0</asrwt>
<pdfrwt beam="1">  1        1 0.12526342E+00 0.10421949E+04</pdfrwt>
<pdfrwt beam="2">  1       -1 0.34304133E+00 0.10421949E+04</pdfrwt>
<totfact> 0.37595492E-01</totfact>
</mgrwt>
</event>
<event>
 4    1  0.8114601E-008  0.1016334E+04  0.7818608E-02  0.9360493E-01
         -1   -1    0    0    0  501 -0.00000000000E+00  0.00000000000E+00  0.56726113989E+03  0.56726113992E+03  0.50400000000E-02 0.  1.
          1   -1    0    0  501    0  0.00000000000E+00 -0.00000000000E+00 -0.37632584567E+04  0.37632584567E+04  0.50400000000E-02 0. -1.
    8880023    1    1    2    0    0  0.23830478192E+03  0.73643453671E+03 -0.33722513810E+04  0.35220753227E+04  0.65864270000E+03 0. -1.
    8880022    1    1    2    0    0 -0.23830478192E+03 -0.73643453671E+03  0.17625406415E+03  0.80844427395E+03  0.15294330000E+03 0.  0.
<mgrwt>
<rscale>  0 0.95399539E+03</rscale>
<asrwt>0</asrwt>
<pdfrwt beam="1">  1        1 0.57896282E+00 0.10163342E+04</pdfrwt>
<pdfrwt beam="2">  1       -1 0.87270947E-01 0.10163342E+04</pdfrwt>
<totfact> 0.20637726E-01</totfact>
</mgrwt>
</event>
<event>
 4    1  0.8114601E-008  0.7321399E+03  0.7818608E-02  0.9883464E-01
          1   -1    0    0  501    0  0.00000000000E+00  0.00000000000E+00  0.11545561704E+04  0.11545561704E+04  0.50400000000E-02 0. -1.
         -1   -1    0    0    0  501 -0.00000000000E+00 -0.00000000000E+00 -0.37822232520E+03  0.37822232524E+03  0.50400000000E-02 0.  1.
    8880023    1    1    2    0    0  0.21331806719E+03 -0.23814697676E+03  0.89747899601E+03  0.11582302599E+04  0.65864270000E+03 0.  0.
    8880022    1    1    2    0    0 -0.21331806719E+03  0.23814697676E+03 -0.12114515083E+03  0.37454823577E+03  0.15294330000E+03 0.  0.
<mgrwt>
<rscale>  0 0.61069402E+03</rscale>
<asrwt>0</asrwt>
<pdfrwt beam="1">  1        1 0.17762402E+00 0.73213987E+03</pdfrwt>
<pdfrwt beam="2">  1       -1 0.58188051E-01 0.73213987E+03</pdfrwt>
<totfact> 0.35556520E+01</totfact>
</mgrwt>
</event>
<event>
 4    1  0.8114601E-008  0.7793720E+03  0.7818608E-02  0.9757314E-01
         -1   -1    0    0    0  501 -0.00000000000E+00  0.00000000000E+00  0.61436801275E+03  0.61436801277E+03  0.50400000000E-02 0.  1.
          1   -1    0    0  501    0  0.00000000000E+00 -0.00000000000E+00 -0.18611230722E+04  0.18611230722E+04  0.50400000000E-02 0. -1.
    8880023    1    1    2    0    0 -0.13858663052E+03 -0.39294301309E+03 -0.16820347788E+04  0.18538235269E+04  0.65864270000E+03 0. -1.
    8880022    1    1    2    0    0  0.13858663052E+03  0.39294301309E+03  0.43527971931E+03  0.62166755807E+03  0.15294330000E+03 0.  0.
<mgrwt>
<rscale>  0 0.67704487E+03</rscale>
<asrwt>0</asrwt>
<pdfrwt beam="1">  1        1 0.28632662E+00 0.77937197E+03</pdfrwt>
<pdfrwt beam="2">  1       -1 0.94518157E-01 0.77937197E+03</pdfrwt>
<totfact> 0.41827605E+00</totfact>
</mgrwt>
</event>
<event>
 4    1  0.8114601E-008  0.9119666E+03  0.7818608E-02  0.9507088E-01
         -1   -1    0    0    0  501 -0.00000000000E+00  0.00000000000E+00  0.18187009703E+04  0.18187009704E+04  0.50400000000E-02 0.  1.
          1   -1    0    0  501    0  0.00000000000E+00 -0.00000000000E+00 -0.76669931800E+03  0.76669931802E+03  0.50400000000E-02 0. -1.
    8880023    1    1    2    0    0  0.47568306001E+03 -0.41424448134E+03 -0.39931841459E+03  0.99555927317E+03  0.65864270000E+03 0. -1.
    8880022    1    1    2    0    0 -0.47568306001E+03  0.41424448134E+03  0.14513200669E+04  0.15898410152E+04  0.15294330000E+03 0.  0.
<mgrwt>
<rscale>  0 0.83763257E+03</rscale>
<asrwt>0</asrwt>
<pdfrwt beam="1">  1        1 0.11795374E+00 0.91196659E+03</pdfrwt>
<pdfrwt beam="2">  1       -1 0.27980015E+00 0.91196659E+03</pdfrwt>
<totfact> 0.10821088E+00</totfact>
</mgrwt>
</event>
<event>
 4    1  0.8114601E-008  0.1048806E+04  0.7818608E-02  0.9320318E-01
         -1   -1    0    0    0  501 -0.00000000000E+00  0.00000000000E+00  0.74162382887E+03  0.74162382889E+03  0.50400000000E-02 0.  1.
          1   -1    0    0  501    0  0.00000000000E+00 -0.00000000000E+00 -0.21906844741E+04  0.21906844741E+04  0.50400000000E-02 0. -1.
    8880023    1    1    2    0    0 -0.31519468520E+03 -0.75288473729E+03 -0.17573460708E+04  0.20465235244E+04  0.65864270000E+03 0.  0.
    8880022    1    1    2    0    0  0.31519468520E+03  0.75288473729E+03  0.30828542561E+03  0.88578477853E+03  0.15294330000E+03 0.  0.
<mgrwt>
<rscale>  0 0.98933629E+03</rscale>
<asrwt>0</asrwt>
<pdfrwt beam="1">  1        1 0.33702838E+00 0.10488057E+04</pdfrwt>
<pdfrwt beam="2">  1       -1 0.11409597E+00 0.10488057E+04</pdfrwt>
<totfact> 0.15562045E+00</totfact>
</mgrwt>
</event>
<event>
 4    1  0.8114601E-008  0.1741754E+04  0.7818608E-02  0.8755459E-01
         -1   -1    0    0    0  501 -0.00000000000E+00  0.00000000000E+00  0.17407729515E+04  0.17407729515E+04  0.50400000000E-02 0.  1.
          1   -1    0    0  501    0  0.00000000000E+00 -0.00000000000E+00 -0.19583264608E+04  0.19583264608E+04  0.50400000000E-02 0. -1.
    8880023    1    1    2    0    0  0.14071688344E+04 -0.78725733057E+03  0.65320502675E+03  0.18602110757E+04  0.65864270000E+03 0.  0.
    8880022    1    1    2    0    0 -0.14071688344E+04  0.78725733057E+03 -0.87075853607E+03  0.18388883365E+04  0.15294330000E+03 0.  0.
<mgrwt>
<rscale>  0 0.17103933E+04</rscale>
<asrwt>0</asrwt>
<pdfrwt beam="1">  1        1 0.30128099E+00 0.17417544E+04</pdfrwt>
<pdfrwt beam="2">  1       -1 0.26781122E+00 0.17417544E+04</pdfrwt>
<totfact> 0.15583697E-01</totfact>
</mgrwt>
</event>
<event>
 4    1  0.8114601E-008  0.7999432E+03  0.7818608E-02  0.9710919E-01
          1   -1    0    0  501    0  0.00000000000E+00  0.00000000000E+00  0.10891016393E+04  0.10891016394E+04  0.50400000000E-02 0. -1.
         -1   -1    0    0    0  501 -0.00000000000E+00 -0.00000000000E+00 -0.43715354082E+03  0.43715354085E+03  0.50400000000E-02 0.  1.
    8880023    1    1    2    0    0  0.44919193484E+03 -0.65768566795E+02  0.11748964160E+03  0.80852515165E+03  0.65864270000E+03 0.  0.
    8880022    1    1    2    0    0 -0.44919193484E+03  0.65768566795E+02  0.53445845693E+03  0.71773002856E+03  0.15294330000E+03 0.  0.
<mgrwt>
<rscale>  0 0.70370390E+03</rscale>
<asrwt>0</asrwt>
<pdfrwt beam="1">  1        1 0.16755409E+00 0.79994319E+03</pdfrwt>
<pdfrwt beam="2">  1       -1 0.67254392E-01 0.79994319E+03</pdfrwt>
<totfact> 0.29580274E+01</totfact>
</mgrwt>
</event>
<event>
 4    1  0.8114601E-008  0.8108333E+03  0.7818608E-02  0.9687844E-01
         -1   -1    0    0    0  501 -0.00000000000E+00  0.00000000000E+00  0.43911695148E+03  0.43911695150E+03  0.50400000000E-02 0.  1.
          1   -1    0    0  501    0  0.00000000000E+00 -0.00000000000E+00 -0.16968727038E+04  0.16968727038E+04  0.50400000000E-02 0. -1.
    8880023    1    1    2    0    0  0.24665789037E+03  0.40348525900E+03 -0.14010150121E+04  0.16187321395E+04  0.65864270000E+03 0.  0.
    8880022    1    1    2    0    0 -0.24665789037E+03 -0.40348525900E+03  0.14325925978E+03  0.51725751579E+03  0.15294330000E+03 0.  0.
<mgrwt>
<rscale>  0 0.71745203E+03</rscale>
<asrwt>0</asrwt>
<pdfrwt beam="1">  1        1 0.26105734E+00 0.81083332E+03</pdfrwt>
<pdfrwt beam="2">  1       -1 0.67556455E-01 0.81083332E+03</pdfrwt>
<totfact> 0.10964110E+01</totfact>
</mgrwt>
</event>
<event>
 4    1  0.8114601E-008  0.1081309E+04  0.7818608E-02  0.9282157E-01
          1   -1    0    0  501    0  0.00000000000E+00  0.00000000000E+00  0.17352608300E+04  0.17352608300E+04  0.50400000000E-02 0. -1.
         -1   -1    0    0    0  501 -0.00000000000E+00 -0.00000000000E+00 -0.63109297496E+03  0.63109297498E+03  0.50400000000E-02 0.  1.
    8880023    1    1    2    0    0  0.83961618275E+03  0.17454067566E+03  0.10279153525E+04  0.14919249176E+04  0.65864270000E+03 0.  0.
    8880022    1    1    2    0    0 -0.83961618275E+03 -0.17454067566E+03  0.76252502547E+02  0.87442888730E+03  0.15294330000E+03 0.  0.
<mgrwt>
<rscale>  0 0.10244227E+04</rscale>
<asrwt>0</asrwt>
<pdfrwt beam="1">  1        1 0.26696320E+00 0.10813094E+04</pdfrwt>
<pdfrwt beam="2">  1       -1 0.97091227E-01 0.10813094E+04</pdfrwt>
<totfact> 0.45878530E+00</totfact>
</mgrwt>
</event>
<event>
 4    1  0.8114601E-008  0.1036585E+04  0.7818608E-02  0.9335185E-01
         -1   -1    0    0    0  501 -0.00000000000E+00  0.00000000000E+00  0.14157577374E+04  0.14157577374E+04  0.50400000000E-02 0.  1.
          1   -1    0    0  501    0  0.00000000000E+00 -0.00000000000E+00 -0.97274354198E+03  0.97274354199E+03  0.50400000000E-02 0. -1.
    8880023    1    1    2    0    0  0.66759317642E+03  0.44160697494E+03 -0.49266201977E+03  0.11477035512E+04  0.65864270000E+03 0.  0.
    8880022    1    1    2    0    0 -0.66759317642E+03 -0.44160697494E+03  0.93567621516E+03  0.12407977281E+04  0.15294330000E+03 0.  0.
<mgrwt>
<rscale>  0 0.97607197E+03</rscale>
<asrwt>0</asrwt>
<pdfrwt beam="1">  1        1 0.14965285E+00 0.10365846E+04</pdfrwt>
<pdfrwt beam="2">  1       -1 0.21780888E+00 0.10365846E+04</pdfrwt>
<totfact> 0.18108093E+00</totfact>
</mgrwt>
</event>
<event>
 4    1  0.8114601E-008  0.9054125E+03  0.7818608E-02  0.9517398E-01
          1   -1    0    0  501    0  0.00000000000E+00  0.00000000000E+00  0.32042524329E+04  0.32042524329E+04  0.50400000000E-02 0. -1.
         -1   -1    0    0    0  501 -0.00000000000E+00 -0.00000000000E+00 -0.59094141912E+03  0.59094141914E+03  0.50400000000E-02 0.  1.
    8880023    1    1    2    0    0 -0.62125547990E+03  0.17725595148E+01  0.29403886012E+04  0.30766307620E+04  0.65864270000E+03 0. -1.
    8880022    1    1    2    0    0  0.62125547990E+03 -0.17725595148E+01 -0.32707758738E+03  0.71856309010E+03  0.15294330000E+03 0.  0.
<mgrwt>
<rscale>  0 0.83013193E+03</rscale>
<asrwt>0</asrwt>
<pdfrwt beam="1">  1        1 0.49296190E+00 0.90541246E+03</pdfrwt>
<pdfrwt beam="2">  1       -1 0.90914067E-01 0.90541246E+03</pdfrwt>
<totfact> 0.52382045E-01</totfact>
</mgrwt>
</event>
<event>
 4    1  0.8114601E-008  0.8000122E+03  0.7818608E-02  0.9710770E-01
          1   -1    0    0  501    0  0.00000000000E+00  0.00000000000E+00  0.11926642055E+04  0.11926642055E+04  0.50400000000E-02 0. -1.
         -1   -1    0    0    0  501 -0.00000000000E+00 -0.00000000000E+00 -0.39557672699E+03  0.39557672702E+03  0.50400000000E-02 0.  1.
    8880023    1    1    2    0    0  0.14589876005E+03 -0.43002652606E+03  0.76674496123E+03  0.11081143006E+04  0.65864270000E+03 0.  0.
    8880022    1    1    2    0    0 -0.14589876005E+03  0.43002652606E+03  0.30342517232E+02  0.48012663191E+03  0.15294330000E+03 0.  0.
<mgrwt>
<rscale>  0 0.70379171E+03</rscale>
<asrwt>0</asrwt>
<pdfrwt beam="1">  1        1 0.18348680E+00 0.80001217E+03</pdfrwt>
<pdfrwt beam="2">  1       -1 0.60857958E-01 0.80001217E+03</pdfrwt>
<totfact> 0.30305683E+01</totfact>
</mgrwt>
</event>
<event>
 4    1  0.8114601E-008  0.7639898E+03  0.7818608E-02  0.9794886E-01
          1   -1    0    0  501    0  0.00000000000E+00  0.00000000000E+00  0.24522474573E+04  0.24522474573E+04  0.50400000000E-02 0. -1.
         -1   -1    0    0    0  501 -0.00000000000E+00 -0.00000000000E+00 -0.38806449862E+03  0.38806449866E+03  0.50400000000E-02 0.  1.
    8880023    1    1    2    0    0 -0.36953911014E+03  0.11537369377E+03  0.22561040947E+04  0.23819500699E+04  0.65864270000E+03 0. -1.
    8880022    1    1    2    0    0  0.36953911014E+03 -0.11537369377E+03 -0.19192113601E+03  0.45836188606E+03  0.15294330000E+03 0.  0.
<mgrwt>
<rscale>  0 0.65637731E+03</rscale>
<asrwt>0</asrwt>
<pdfrwt beam="1">  1        1 0.37726882E+00 0.76398982E+03</pdfrwt>
<pdfrwt beam="2">  1       -1 0.59702233E-01 0.76398982E+03</pdfrwt>
<totfact> 0.43915349E+00</totfact>
</mgrwt>
</event>
<event>
 4    1  0.8114601E-008  0.8392231E+03  0.7818608E-02  0.9631647E-01
         -1   -1    0    0    0  501 -0.00000000000E+00  0.00000000000E+00  0.12797771926E+04  0.12797771926E+04  0.50400000000E-02 0.  1.
          1   -1    0    0  501    0  0.00000000000E+00 -0.00000000000E+00 -0.18673068223E+04  0.18673068223E+04  0.50400000000E-02 0. -1.
    8880023    1    1    2    0    0 -0.45701036549E+03  0.24824747280E+03 -0.17076235666E+04  0.19027016932E+04  0.65864270000E+03 0. -1.
    8880022    1    1    2    0    0  0.45701036549E+03 -0.24824747280E+03  0.11200939369E+04  0.12443823217E+04  0.15294330000E+03 0.  0.
<mgrwt>
<rscale>  0 0.75236534E+03</rscale>
<asrwt>0</asrwt>
<pdfrwt beam="1">  1        1 0.28727797E+00 0.83922315E+03</pdfrwt>
<pdfrwt beam="2">  1       -1 0.19688880E+00 0.83922315E+03</pdfrwt>
<totfact> 0.60368093E-01</totfact>
</mgrwt>
</event>
<event>
 4    1  0.8114601E-008  0.9805050E+03  0.7818608E-02  0.9407520E-01
         -1   -1    0    0    0  501 -0.00000000000E+00  0.00000000000E+00  0.69124183039E+03  0.69124183041E+03  0.50400000000E-02 0.  1.
          1   -1    0    0  501    0  0.00000000000E+00 -0.00000000000E+00 -0.10734944527E+04  0.10734944527E+04  0.50400000000E-02 0. -1.
    8880023    1    1    2    0    0  0.72602157644E+03 -0.21736014519E+02 -0.22486909868E+03  0.10059602883E+04  0.65864270000E+03 0.  1.
    8880022    1    1    2    0    0 -0.72602157644E+03  0.21736014519E+02 -0.15738352359E+03  0.75877599481E+03  0.15294330000E+03 0. -1.
<mgrwt>
<rscale>  0 0.91459429E+03</rscale>
<asrwt>0</asrwt>
<pdfrwt beam="1">  1        1 0.16515299E+00 0.98050497E+03</pdfrwt>
<pdfrwt beam="2">  1       -1 0.10634490E+00 0.98050497E+03</pdfrwt>
<totfact> 0.11027111E+01</totfact>
</mgrwt>
</event>
<event>
 4    1  0.8114601E-008  0.6868836E+03  0.7818608E-02  0.1005670E+00
          1   -1    0    0  501    0  0.00000000000E+00  0.00000000000E+00  0.14086815949E+04  0.14086815949E+04  0.50400000000E-02 0. -1.
         -1   -1    0    0    0  501 -0.00000000000E+00 -0.00000000000E+00 -0.27238925078E+03  0.27238925083E+03  0.50400000000E-02 0.  1.
    8880023    1    1    2    0    0 -0.97677738952E+02  0.16869494112E+03  0.12359610235E+04  0.14140045197E+04  0.65864270000E+03 0. -1.
    8880022    1    1    2    0    0  0.97677738952E+02 -0.16869494112E+03 -0.99668679373E+02  0.26706632605E+03  0.15294330000E+03 0.  0.
<mgrwt>
<rscale>  0 0.53232283E+03</rscale>
<asrwt>0</asrwt>
<pdfrwt beam="1">  1        1 0.21672024E+00 0.68688364E+03</pdfrwt>
<pdfrwt beam="2">  1       -1 0.41906039E-01 0.68688364E+03</pdfrwt>
<totfact> 0.43869659E+01</totfact>
</mgrwt>
</event>
<event>
 4    1  0.8114601E-008  0.7539250E+03  0.7818608E-02  0.9821097E-01
         -1   -1    0    0    0  501 -0.00000000000E+00  0.00000000000E+00  0.32809315152E+03  0.32809315156E+03  0.50400000000E-02 0.  1.
          1   -1    0    0  501    0  0.00000000000E+00 -0.00000000000E+00 -0.23812547895E+04  0.23812547895E+04  0.50400000000E-02 0. -1.
    8880023    1    1    2    0    0 -0.32269919037E+03 -0.17452183145E+03 -0.21682204245E+04  0.22955571551E+04  0.65864270000E+03 0. -1.
    8880022    1    1    2    0    0  0.32269919037E+03  0.17452183145E+03  0.11505878652E+03  0.41379078590E+03  0.15294330000E+03 0.  0.
<mgrwt>
<rscale>  0 0.64242558E+03</rscale>
<asrwt>0</asrwt>
<pdfrwt beam="1">  1        1 0.36634688E+00 0.75392496E+03</pdfrwt>
<pdfrwt beam="2">  1       -1 0.50475871E-01 0.75392496E+03</pdfrwt>
<totfact> 0.67991107E+00</totfact>
</mgrwt>
</event>
<event>
 4    1  0.8114601E-008  0.8127300E+03  0.7818608E-02  0.9683918E-01
          1   -1    0    0  501    0  0.00000000000E+00  0.00000000000E+00  0.34312264023E+04  0.34312264023E+04  0.50400000000E-02 0. -1.
         -1   -1    0    0    0  501 -0.00000000000E+00 -0.00000000000E+00 -0.39221575723E+03  0.39221575726E+03  0.50400000000E-02 0.  1.
    8880023    1    1    2    0    0 -0.40403526602E+03  0.25194312865E+03  0.31972215472E+04  0.32989021908E+04  0.65864270000E+03 0. -1.
    8880022    1    1    2    0    0  0.40403526602E+03 -0.25194312865E+03 -0.15821090214E+03  0.52453996877E+03  0.15294330000E+03 0.  0.
<mgrwt>
<rscale>  0 0.71982416E+03</rscale>
<asrwt>0</asrwt>
<pdfrwt beam="1">  1        1 0.52788100E+00 0.81272999E+03</pdfrwt>
<pdfrwt beam="2">  1       -1 0.60340884E-01 0.81272999E+03</pdfrwt>
<totfact> 0.84754933E-01</totfact>
</mgrwt>
</event>
<event>
 4    1  0.8114601E-008  0.1901224E+04  0.7818608E-02  0.8668517E-01
         -1   -1    0    0    0  501 -0.00000000000E+00  0.00000000000E+00  0.20857575128E+04  0.20857575128E+04  0.50400000000E-02 0.  1.
          1   -1    0    0  501    0  0.00000000000E+00 -0.00000000000E+00 -0.17322971984E+04  0.17322971984E+04  0.50400000000E-02 0. -1.
    8880023    1    1    2    0    0  0.67664500725E+03 -0.16501493218E+04  0.63826783235E+03  0.20055017532E+04  0.65864270000E+03 0.  0.
    8880022    1    1    2    0    0 -0.67664500725E+03  0.16501493218E+04 -0.28480751799E+03  0.18125529580E+04  0.15294330000E+03 0.  0.
<mgrwt>
<rscale>  0 0.18727958E+04</rscale>
<asrwt>0</asrwt>
<pdfrwt beam="1">  1        1 0.26650726E+00 0.19012237E+04</pdfrwt>
<pdfrwt beam="2">  1       -1 0.32088577E+00 0.19012237E+04</pdfrwt>
<totfact> 0.98800369E-02</totfact>
</mgrwt>
</event>
<event>
 4    1  0.8114601E-008  0.1015359E+04  0.7818608E-02  0.9361734E-01
          1   -1    0    0  501    0  0.00000000000E+00  0.00000000000E+00  0.85345984365E+03  0.85345984366E+03  0.50400000000E-02 0. -1.
         -1   -1    0    0    0  501 -0.00000000000E+00 -0.00000000000E+00 -0.23028192688E+04  0.23028192688E+04  0.50400000000E-02 0.  1.
    8880023    1    1    2    0    0 -0.76882508684E+03  0.77789382327E+02  0.44202997047E+03  0.11074041282E+04  0.65864270000E+03 0.  0.
    8880022    1    1    2    0    0  0.76882508684E+03 -0.77789382327E+02 -0.18913893956E+04  0.20488749842E+04  0.15294330000E+03 0.  0.
<mgrwt>
<rscale>  0 0.95292871E+03</rscale>
<asrwt>0</asrwt>
<pdfrwt beam="1">  1        1 0.13130152E+00 0.10153588E+04</pdfrwt>
<pdfrwt beam="2">  1       -1 0.35427989E+00 0.10153588E+04</pdfrwt>
<totfact> 0.29482011E-01</totfact>
</mgrwt>
</event>
<event>
 4    1  0.8114601E-008  0.8523279E+03  0.7818608E-02  0.9607359E-01
         -1   -1    0    0    0  501 -0.00000000000E+00  0.00000000000E+00  0.49433021762E+03  0.49433021765E+03  0.50400000000E-02 0.  1.
          1   -1    0    0  501    0  0.00000000000E+00 -0.00000000000E+00 -0.34143320338E+04  0.34143320338E+04  0.50400000000E-02 0. -1.
    8880023    1    1    2    0    0  0.12326081683E+03 -0.52674415818E+03 -0.31778543376E+04  0.32901703655E+04  0.65864270000E+03 0.  0.
    8880022    1    1    2    0    0 -0.12326081683E+03  0.52674415818E+03  0.25785252139E+03  0.61849188592E+03  0.15294330000E+03 0.  0.
<mgrwt>
<rscale>  0 0.76811018E+03</rscale>
<asrwt>0</asrwt>
<pdfrwt beam="1">  1        1 0.52528184E+00 0.85232790E+03</pdfrwt>
<pdfrwt beam="2">  1       -1 0.76050805E-01 0.85232790E+03</pdfrwt>
<totfact> 0.54069268E-01</totfact>
</mgrwt>
</event>
<event>
 4    1  0.8114601E-008  0.1654671E+04  0.7818608E-02  0.8807496E-01
         -1   -1    0    0    0  501 -0.00000000000E+00  0.00000000000E+00  0.13919407533E+04  0.13919407533E+04  0.50400000000E-02 0.  1.
          1   -1    0    0  501    0  0.00000000000E+00 -0.00000000000E+00 -0.28705851285E+04  0.28705851285E+04  0.50400000000E-02 0. -1.
    8880023    1    1    2    0    0 -0.67752659170E+03 -0.13583391542E+04 -0.20490739738E+04  0.26337505381E+04  0.65864270000E+03 0.  0.
    8880022    1    1    2    0    0  0.67752659170E+03  0.13583391542E+04  0.57042959869E+03  0.16287753437E+04  0.15294330000E+03 0.  0.
<mgrwt>
<rscale>  0 0.16214199E+04</rscale>
<asrwt>0</asrwt>
<pdfrwt beam="1">  1        1 0.44162848E+00 0.16546715E+04</pdfrwt>
<pdfrwt beam="2">  1       -1 0.21414473E+00 0.16546715E+04</pdfrwt>
<totfact> 0.82933806E-02</totfact>
</mgrwt>
</event>
<event>
 4    1  0.8114601E-008  0.7153928E+03  0.7818608E-02  0.9938495E-01
          1   -1    0    0  501    0  0.00000000000E+00  0.00000000000E+00  0.24333430625E+04  0.24333430625E+04  0.50400000000E-02 0. -1.
         -1   -1    0    0    0  501 -0.00000000000E+00 -0.00000000000E+00 -0.36382582947E+03  0.36382582951E+03  0.50400000000E-02 0.  1.
    8880023    1    1    2    0    0 -0.15678353033E+03  0.23107485141E+03  0.22970274501E+04  0.24058516112E+04  0.65864270000E+03 0. -1.
    8880022    1    1    2    0    0  0.15678353033E+03 -0.23107485141E+03 -0.22751021711E+03  0.39131728078E+03  0.15294330000E+03 0.  0.
<mgrwt>
<rscale>  0 0.58431388E+03</rscale>
<asrwt>0</asrwt>
<pdfrwt beam="1">  1        1 0.37436047E+00 0.71539281E+03</pdfrwt>
<pdfrwt beam="2">  1       -1 0.55973205E-01 0.71539281E+03</pdfrwt>
<totfact> 0.51764938E+00</totfact>
</mgrwt>
</event>
<event>
 4    1  0.8114601E-008  0.9416505E+03  0.7818608E-02  0.9462230E-01
         -1   -1    0    0    0  501 -0.00000000000E+00  0.00000000000E+00  0.10549701459E+04  0.10549701459E+04  0.50400000000E-02 0.  1.
          1   -1    0    0  501    0  0.00000000000E+00 -0.00000000000E+00 -0.13158099763E+04  0.13158099763E+04  0.50400000000E-02 0. -1.
    8880023    1    1    2    0    0  0.33389728862E+03 -0.58430129577E+03 -0.99034201416E+03  0.13665587857E+04  0.65864270000E+03 0.  0.
    8880022    1    1    2    0    0 -0.33389728862E+03  0.58430129577E+03  0.72950218370E+03  0.10042213365E+04  0.15294330000E+03 0.  0.
<mgrwt>
<rscale>  0 0.87126625E+03</rscale>
<asrwt>0</asrwt>
<pdfrwt beam="1">  1        1 0.20243230E+00 0.94165047E+03</pdfrwt>
<pdfrwt beam="2">  1       -1 0.16230310E+00 0.94165047E+03</pdfrwt>
<totfact> 0.25050743E+00</totfact>
</mgrwt>
</event>
<event>
 4    1  0.8114601E-008  0.1084426E+04  0.7818608E-02  0.9278598E-01
          1   -1    0    0  501    0  0.00000000000E+00  0.00000000000E+00  0.17619341735E+04  0.17619341735E+04  0.50400000000E-02 0. -1.
         -1   -1    0    0    0  501 -0.00000000000E+00 -0.00000000000E+00 -0.10722008693E+04  0.10722008693E+04  0.50400000000E-02 0.  1.
    8880023    1    1    2    0    0  0.84961063500E+03  0.14258423062E+03  0.13546163646E+04  0.17352130115E+04  0.65864270000E+03 0. -1.
    8880022    1    1    2    0    0 -0.84961063500E+03 -0.14258423062E+03 -0.66488306031E+03  0.10989220313E+04  0.15294330000E+03 0.  0.
<mgrwt>
<rscale>  0 0.10277730E+04</rscale>
<asrwt>0</asrwt>
<pdfrwt beam="1">  1        1 0.27106680E+00 0.10844255E+04</pdfrwt>
<pdfrwt beam="2">  1       -1 0.16495398E+00 0.10844255E+04</pdfrwt>
<totfact> 0.11553170E+00</totfact>
</mgrwt>
</event>
<event>
 4    1  0.8114601E-008  0.1863273E+04  0.7818608E-02  0.8688320E-01
          1   -1    0    0  501    0  0.00000000000E+00  0.00000000000E+00  0.22881802127E+04  0.22881802127E+04  0.50400000000E-02 0. -1.
         -1   -1    0    0    0  501 -0.00000000000E+00 -0.00000000000E+00 -0.16890209986E+04  0.16890209986E+04  0.50400000000E-02 0.  1.
    8880023    1    1    2    0    0  0.17222330978E+04  0.26812336691E+03  0.10916792649E+04  0.21595255976E+04  0.65864270000E+03 0.  0.
    8880022    1    1    2    0    0 -0.17222330978E+04 -0.26812336691E+03 -0.49252005077E+03  0.18176756137E+04  0.15294330000E+03 0.  0.
<mgrwt>
<rscale>  0 0.18342007E+04</rscale>
<asrwt>0</asrwt>
<pdfrwt beam="1">  1        1 0.35202773E+00 0.18632732E+04</pdfrwt>
<pdfrwt beam="2">  1       -1 0.25984938E+00 0.18632732E+04</pdfrwt>
<totfact> 0.10313000E-01</totfact>
</mgrwt>
</event>
<event>
 4    1  0.8114601E-008  0.7049084E+03  0.7818608E-02  0.9977418E-01
         -1   -1    0    0    0  501 -0.00000000000E+00  0.00000000000E+00  0.50510339089E+03  0.50510339092E+03  0.50400000000E-02 0.  1.
          1   -1    0    0  501    0  0.00000000000E+00 -0.00000000000E+00 -0.94271540374E+03  0.94271540376E+03  0.50400000000E-02 0. -1.
    8880023    1    1    2    0    0  0.10107538427E+03  0.22993358727E+03 -0.74278011226E+03  0.10240206000E+04  0.65864270000E+03 0.  0.
    8880022    1    1    2    0    0 -0.10107538427E+03 -0.22993358727E+03  0.30516809942E+03  0.42379819464E+03  0.15294330000E+03 0.  0.
<mgrwt>
<rscale>  0 0.56651618E+03</rscale>
<asrwt>0</asrwt>
<pdfrwt beam="1">  1        1 0.14503314E+00 0.70490843E+03</pdfrwt>
<pdfrwt beam="2">  1       -1 0.77708214E-01 0.70490843E+03</pdfrwt>
<totfact> 0.28769136E+01</totfact>
</mgrwt>
</event>
<event>
 4    1  0.8114601E-008  0.8965640E+03  0.7818608E-02  0.9531570E-01
         -1   -1    0    0    0  501 -0.00000000000E+00  0.00000000000E+00  0.10507192549E+04  0.10507192549E+04  0.50400000000E-02 0.  1.
          1   -1    0    0  501    0  0.00000000000E+00 -0.00000000000E+00 -0.11306428278E+04  0.11306428278E+04  0.50400000000E-02 0. -1.
    8880023    1    1    2    0    0 -0.94339678912E+02  0.60092991856E+03 -0.81738769548E+03  0.12132392975E+04  0.65864270000E+03 0. -1.
    8880022    1    1    2    0    0  0.94339678912E+02 -0.60092991856E+03  0.73746412263E+03  0.96812278519E+03  0.15294330000E+03 0.  0.
<mgrwt>
<rscale>  0 0.81995763E+03</rscale>
<asrwt>0</asrwt>
<pdfrwt beam="1">  1        1 0.17394505E+00 0.89656397E+03</pdfrwt>
<pdfrwt beam="2">  1       -1 0.16164912E+00 0.89656397E+03</pdfrwt>
<totfact> 0.34724122E+00</totfact>
</mgrwt>
</event>
<event>
 4    1  0.8114601E-008  0.8603822E+03  0.7818608E-02  0.9592884E-01
         -1   -1    0    0    0  501 -0.00000000000E+00  0.00000000000E+00  0.14920719744E+04  0.14920719744E+04  0.50400000000E-02 0.  1.
          1   -1    0    0  501    0  0.00000000000E+00 -0.00000000000E+00 -0.41465124224E+03  0.41465124227E+03  0.50400000000E-02 0. -1.
    8880023    1    1    2    0    0  0.54674021217E+03 -0.86731949327E+02  0.24350874670E+03  0.89417783836E+03  0.65864270000E+03 0. -1.
    8880022    1    1    2    0    0 -0.54674021217E+03  0.86731949327E+02  0.83391198546E+03  0.10125453783E+04  0.15294330000E+03 0.  0.
<mgrwt>
<rscale>  0 0.77768961E+03</rscale>
<asrwt>0</asrwt>
<pdfrwt beam="1">  1        1 0.63792500E-01 0.86038218E+03</pdfrwt>
<pdfrwt beam="2">  1       -1 0.22954953E+00 0.86038218E+03</pdfrwt>
<totfact> 0.55564530E+00</totfact>
</mgrwt>
</event>
<event>
 4    1  0.8114601E-008  0.6720501E+03  0.7818608E-02  0.1014234E+00
          1   -1    0    0  501    0  0.00000000000E+00  0.00000000000E+00  0.21249914319E+04  0.21249914319E+04  0.50400000000E-02 0. -1.
         -1   -1    0    0    0  501 -0.00000000000E+00 -0.00000000000E+00 -0.47045664687E+03  0.47045664689E+03  0.50400000000E-02 0.  1.
    8880023    1    1    2    0    0  0.90476803429E+02 -0.98260079948E+02  0.20464919495E+04  0.21540149955E+04  0.65864270000E+03 0.  0.
    8880022    1    1    2    0    0 -0.90476803429E+02  0.98260079948E+02 -0.39195716444E+03  0.44143308331E+03  0.15294330000E+03 0.  1.
<mgrwt>
<rscale>  0 0.49826056E+03</rscale>
<asrwt>0</asrwt>
<pdfrwt beam="1">  1        1 0.32692177E+00 0.67205007E+03</pdfrwt>
<pdfrwt beam="2">  1       -1 0.72377944E-01 0.67205007E+03</pdfrwt>
<totfact> 0.50378486E+00</totfact>
</mgrwt>
</event>
<event>
 4    1  0.8114601E-008  0.1033148E+04  0.7818608E-02  0.9339419E-01
          1   -1    0    0  501    0  0.00000000000E+00  0.00000000000E+00  0.19922870886E+04  0.19922870886E+04  0.50400000000E-02 0. -1.
         -1   -1    0    0    0  501 -0.00000000000E+00 -0.00000000000E+00 -0.52343561966E+03  0.52343561969E+03  0.50400000000E-02 0.  1.
    8880023    1    1    2    0    0  0.16237210300E+03 -0.77924364639E+03  0.13446454372E+04  0.16957201769E+04  0.65864270000E+03 0. -1.
    8880022    1    1    2    0    0 -0.16237210300E+03  0.77924364639E+03  0.12420603181E+03  0.82000253147E+03  0.15294330000E+03 0.  0.
<mgrwt>
<rscale>  0 0.97233472E+03</rscale>
<asrwt>0</asrwt>
<pdfrwt beam="1">  1        1 0.30650570E+00 0.10331484E+04</pdfrwt>
<pdfrwt beam="2">  1       -1 0.80528558E-01 0.10331484E+04</pdfrwt>
<totfact> 0.46715746E+00</totfact>
</mgrwt>
</event>
<event>
 4    1  0.8114601E-008  0.6739691E+03  0.7818608E-02  0.1012964E+00
         -1   -1    0    0    0  501 -0.00000000000E+00  0.00000000000E+00  0.23611060964E+03  0.23611060969E+03  0.50400000000E-02 0.  1.
          1   -1    0    0  501    0  0.00000000000E+00 -0.00000000000E+00 -0.95507064904E+03  0.95507064905E+03  0.50400000000E-02 0. -1.
    8880023    1    1    2    0    0  0.96847313499E+02 -0.10509414704E+03 -0.71392846296E+03  0.98179847136E+03  0.65864270000E+03 0.  0.
    8880022    1    1    2    0    0 -0.96847313499E+02  0.10509414704E+03 -0.50315764331E+01  0.20938278738E+03  0.15294330000E+03 0.  0.
<mgrwt>
<rscale>  0 0.50313426E+03</rscale>
<asrwt>0</asrwt>
<pdfrwt beam="1">  1        1 0.14693394E+00 0.67396913E+03</pdfrwt>
<pdfrwt beam="2">  1       -1 0.36324710E-01 0.67396913E+03</pdfrwt>
<totfact> 0.12198711E+02</totfact>
</mgrwt>
</event>
<event>
 4    1  0.8114601E-008  0.1043976E+04  0.7818608E-02  0.9326158E-01
         -1   -1    0    0    0  501 -0.00000000000E+00  0.00000000000E+00  0.24214701218E+04  0.24214701218E+04  0.50400000000E-02 0.  1.
          1   -1    0    0  501    0  0.00000000000E+00 -0.00000000000E+00 -0.11293798413E+04  0.11293798413E+04  0.50400000000E-02 0. -1.
    8880023    1    1    2    0    0 -0.68354302536E+03  0.43456239098E+03 -0.79152205380E+03  0.13101117918E+04  0.65864270000E+03 0.  0.
    8880022    1    1    2    0    0  0.68354302536E+03 -0.43456239098E+03  0.20836123343E+04  0.22407381712E+04  0.15294330000E+03 0.  0.
<mgrwt>
<rscale>  0 0.98409931E+03</rscale>
<asrwt>0</asrwt>
<pdfrwt beam="1">  1        1 0.17375075E+00 0.10439759E+04</pdfrwt>
<pdfrwt beam="2">  1       -1 0.37253386E+00 0.10439759E+04</pdfrwt>
<totfact> 0.13445727E-01</totfact>
</mgrwt>
</event>
<event>
 4    1  0.8114601E-008  0.7047973E+03  0.7818608E-02  0.9977853E-01
          1   -1    0    0  501    0  0.00000000000E+00  0.00000000000E+00  0.14386332868E+04  0.14386332868E+04  0.50400000000E-02 0. -1.
         -1   -1    0    0    0  501 -0.00000000000E+00 -0.00000000000E+00 -0.30155415608E+03  0.30155415612E+03  0.50400000000E-02 0.  1.
    8880023    1    1    2    0    0  0.11140629025E+03  0.22476139355E+03  0.12421405917E+04  0.14281640317E+04  0.65864270000E+03 0. -1.
    8880022    1    1    2    0    0 -0.11140629025E+03 -0.22476139355E+03 -0.10506146103E+03  0.31202341121E+03  0.15294330000E+03 0.  0.
<mgrwt>
<rscale>  0 0.56632085E+03</rscale>
<asrwt>0</asrwt>
<pdfrwt beam="1">  1        1 0.22132820E+00 0.70479731E+03</pdfrwt>
<pdfrwt beam="2">  1       -1 0.46392948E-01 0.70479731E+03</pdfrwt>
<totfact> 0.34585670E+01</totfact>
</mgrwt>
</event>
<event>
 4    1  0.8619044E-008  0.1149904E+04  0.7818608E-02  0.9207427E-01
         -1   -1    0    0    0  501 -0.00000000000E+00  0.00000000000E+00  0.13166129435E+04  0.13166129435E+04  0.50400000000E-02 0.  1.
          1   -1    0    0  501    0  0.00000000000E+00 -0.00000000000E+00 -0.27721360556E+04  0.27721360556E+04  0.50400000000E-02 0. -1.
    8880023    1    1    2    0    0 -0.94248619695E+03 -0.13764730185E+02 -0.24522153134E+04  0.27084386367E+04  0.65864270000E+03 0.  0.
    8880022    1    1    2    0    0  0.94248619695E+03  0.13764730185E+02  0.99669220134E+03  0.13803103624E+04  0.15294330000E+03 0.  0.
<mgrwt>
<rscale>  0 0.10977094E+04</rscale>
<asrwt>0</asrwt>
<pdfrwt beam="1">  1        1 0.42648247E+00 0.11499043E+04</pdfrwt>
<pdfrwt beam="2">  1       -1 0.20255584E+00 0.11499043E+04</pdfrwt>
<totfact> 0.12571200E-01</totfact>
</mgrwt>
</event>
<event>
 4    1  0.8114601E-008  0.7177856E+03  0.7818608E-02  0.9930151E-01
          1   -1    0    0  501    0  0.00000000000E+00  0.00000000000E+00  0.72724849844E+03  0.72724849846E+03  0.50400000000E-02 0. -1.
         -1   -1    0    0    0  501 -0.00000000000E+00 -0.00000000000E+00 -0.96474218327E+03  0.96474218328E+03  0.50400000000E-02 0.  1.
    8880023    1    1    2    0    0  0.57727703880E+02 -0.27941621955E+03  0.50791957356E+03  0.87931701394E+03  0.65864270000E+03 0. -1.
    8880022    1    1    2    0    0 -0.57727703880E+02  0.27941621955E+03 -0.74541325838E+03  0.81267366780E+03  0.15294330000E+03 0.  0.
<mgrwt>
<rscale>  0 0.58822021E+03</rscale>
<asrwt>0</asrwt>
<pdfrwt beam="1">  1        1 0.11188438E+00 0.71778557E+03</pdfrwt>
<pdfrwt beam="2">  1       -1 0.14842187E+00 0.71778557E+03</pdfrwt>
<totfact> 0.95522708E+00</totfact>
</mgrwt>
</event>
<event>
 4    1  0.8114601E-008  0.9524038E+03  0.7818608E-02  0.9446664E-01
          1   -1    0    0  501    0  0.00000000000E+00  0.00000000000E+00  0.17133672203E+04  0.17133672203E+04  0.50400000000E-02 0. -1.
         -1   -1    0    0    0  501 -0.00000000000E+00 -0.00000000000E+00 -0.89968613902E+03  0.89968613903E+03  0.50400000000E-02 0.  1.
    8880023    1    1    2    0    0 -0.68537476631E+03 -0.59365009314E+02  0.14020878838E+04  0.16949700336E+04  0.65864270000E+03 0. -1.
    8880022    1    1    2    0    0  0.68537476631E+03  0.59365009314E+02 -0.58840680256E+03  0.91808332571E+03  0.15294330000E+03 0.  0.
<mgrwt>
<rscale>  0 0.88332928E+03</rscale>
<asrwt>0</asrwt>
<pdfrwt beam="1">  1        1 0.26359495E+00 0.95240379E+03</pdfrwt>
<pdfrwt beam="2">  1       -1 0.13841325E+00 0.95240379E+03</pdfrwt>
<totfact> 0.20445492E+00</totfact>
</mgrwt>
</event>
<event>
 4    1  0.8350125E-008  0.1600378E+04  0.7818608E-02  0.8841826E-01
          1   -1    0    0  501    0  0.00000000000E+00  0.00000000000E+00  0.24920745379E+04  0.24920745379E+04  0.50400000000E-02 0. -1.
         -1   -1    0    0    0  501 -0.00000000000E+00 -0.00000000000E+00 -0.16340209227E+04  0.16340209227E+04  0.50400000000E-02 0.  1.
    8880023    1    1    2    0    0 -0.11864987723E+04  0.84830347035E+03  0.17801261444E+04  0.23937538325E+04  0.65864270000E+03 0.  0.
    8880022    1    1    2    0    0  0.11864987723E+04 -0.84830347035E+03 -0.92207252920E+03  0.17323416281E+04  0.15294330000E+03 0.  0.
<mgrwt>
<rscale>  0 0.15658191E+04</rscale>
<asrwt>0</asrwt>
<pdfrwt beam="1">  1        1 0.38339608E+00 0.16003776E+04</pdfrwt>
<pdfrwt beam="2">  1       -1 0.25138783E+00 0.16003776E+04</pdfrwt>
<totfact> 0.87258090E-02</totfact>
</mgrwt>
</event>
<event>
 4    1  0.8114601E-008  0.8344554E+03  0.7818608E-02  0.9640725E-01
          1   -1    0    0  501    0  0.00000000000E+00  0.00000000000E+00  0.39221116049E+03  0.39221116053E+03  0.50400000000E-02 0. -1.
         -1   -1    0    0    0  501 -0.00000000000E+00 -0.00000000000E+00 -0.12276328881E+04  0.12276328881E+04  0.50400000000E-02 0.  1.
    8880023    1    1    2    0    0  0.14736841112E+03 -0.49070178207E+03 -0.37754019216E+03  0.91588890728E+03  0.65864270000E+03 0. -1.
    8880022    1    1    2    0    0 -0.14736841112E+03  0.49070178207E+03 -0.45788153543E+03  0.70395514134E+03  0.15294330000E+03 0.  1.
<mgrwt>
<rscale>  0 0.74658392E+03</rscale>
<asrwt>0</asrwt>
<pdfrwt beam="1">  1        1 0.60340179E-01 0.83445545E+03</pdfrwt>
<pdfrwt beam="2">  1       -1 0.18886660E+00 0.83445545E+03</pdfrwt>
<totfact> 0.11310627E+01</totfact>
</mgrwt>
</event>
<event>
 4    1  0.8114601E-008  0.8669999E+03  0.7818608E-02  0.9581231E-01
         -1   -1    0    0    0  501 -0.00000000000E+00  0.00000000000E+00  0.27132096781E+03  0.27132096785E+03  0.50400000000E-02 0.  1.
          1   -1    0    0  501    0  0.00000000000E+00 -0.00000000000E+00 -0.23984076477E+04  0.23984076477E+04  0.50400000000E-02 0. -1.
    8880023    1    1    2    0    0  0.30598353523E+03  0.47355319938E+03 -0.18055035132E+04  0.20028808499E+04  0.65864270000E+03 0.  0.
    8880022    1    1    2    0    0 -0.30598353523E+03 -0.47355319938E+03 -0.32158316674E+03  0.66684776570E+03  0.15294330000E+03 0.  0.
<mgrwt>
<rscale>  0 0.78550973E+03</rscale>
<asrwt>0</asrwt>
<pdfrwt beam="1">  1        1 0.36898578E+00 0.86699986E+03</pdfrwt>
<pdfrwt beam="2">  1       -1 0.41741689E-01 0.86699986E+03</pdfrwt>
<totfact> 0.92730501E+00</totfact>
</mgrwt>
</event>
<event>
 4    1  0.8114601E-008  0.9510102E+03  0.7818608E-02  0.9448662E-01
         -1   -1    0    0    0  501 -0.00000000000E+00  0.00000000000E+00  0.55809658321E+03  0.55809658323E+03  0.50400000000E-02 0.  1.
          1   -1    0    0  501    0  0.00000000000E+00 -0.00000000000E+00 -0.19140355211E+04  0.19140355211E+04  0.50400000000E-02 0. -1.
    8880023    1    1    2    0    0  0.67162777592E+03  0.13973687005E+03 -0.14792155304E+04  0.17585502705E+04  0.65864270000E+03 0.  0.
    8880022    1    1    2    0    0 -0.67162777592E+03 -0.13973687005E+03  0.12327659255E+03  0.71358183380E+03  0.15294330000E+03 0.  0.
<mgrwt>
<rscale>  0 0.88176930E+03</rscale>
<asrwt>0</asrwt>
<pdfrwt beam="1">  1        1 0.29446700E+00 0.95101024E+03</pdfrwt>
<pdfrwt beam="2">  1       -1 0.85861014E-01 0.95101024E+03</pdfrwt>
<totfact> 0.46420049E+00</totfact>
</mgrwt>
</event>
<event>
 4    1  0.8114601E-008  0.7230599E+03  0.7818608E-02  0.9912365E-01
          1   -1    0    0  501    0  0.00000000000E+00  0.00000000000E+00  0.21191504266E+04  0.21191504266E+04  0.50400000000E-02 0. -1.
         -1   -1    0    0    0  501 -0.00000000000E+00 -0.00000000000E+00 -0.29503378366E+03  0.29503378370E+03  0.50400000000E-02 0.  1.
    8880023    1    1    2    0    0  0.17000354895E+03 -0.24516150534E+03  0.19312957090E+04  0.20622120871E+04  0.65864270000E+03 0. -1.
    8880022    1    1    2    0    0 -0.17000354895E+03  0.24516150534E+03 -0.10717906599E+03  0.35197212327E+03  0.15294330000E+03 0.  0.
<mgrwt>
<rscale>  0 0.59665742E+03</rscale>
<asrwt>0</asrwt>
<pdfrwt beam="1">  1        1 0.32602315E+00 0.72305987E+03</pdfrwt>
<pdfrwt beam="2">  1       -1 0.45389812E-01 0.72305987E+03</pdfrwt>
<totfact> 0.12519857E+01</totfact>
</mgrwt>
</event>
<event>
 4    1  0.8114601E-008  0.1089196E+04  0.7818608E-02  0.9273181E-01
         -1   -1    0    0    0  501 -0.00000000000E+00  0.00000000000E+00  0.25027479438E+04  0.25027479438E+04  0.50400000000E-02 0.  1.
          1   -1    0    0  501    0  0.00000000000E+00 -0.00000000000E+00 -0.81243817458E+03  0.81243817459E+03  0.50400000000E-02 0. -1.
    8880023    1    1    2    0    0 -0.41952080911E+03 -0.75930230464E+03 -0.30752530479E+03  0.11317772389E+04  0.65864270000E+03 0. -1.
    8880022    1    1    2    0    0  0.41952080911E+03  0.75930230464E+03  0.19978350740E+04  0.21834088795E+04  0.15294330000E+03 0.  0.
<mgrwt>
<rscale>  0 0.10328977E+04</rscale>
<asrwt>0</asrwt>
<pdfrwt beam="1">  1        1 0.12499049E+00 0.10891960E+04</pdfrwt>
<pdfrwt beam="2">  1       -1 0.38503814E+00 0.10891960E+04</pdfrwt>
<totfact> 0.19688659E-01</totfact>
</mgrwt>
</event>
<event>
 4    1  0.8114601E-008  0.1071991E+04  0.7818608E-02  0.9292901E-01
         -1   -1    0    0    0  501 -0.00000000000E+00  0.00000000000E+00  0.14451687990E+04  0.14451687990E+04  0.50400000000E-02 0.  1.
          1   -1    0    0  501    0  0.00000000000E+00 -0.00000000000E+00 -0.75789419937E+03  0.75789419938E+03  0.50400000000E-02 0. -1.
    8880023    1    1    2    0    0 -0.81211959208E+03  0.23625274495E+03 -0.46420197290E+02  0.10729951688E+04  0.65864270000E+03 0.  0.
    8880022    1    1    2    0    0  0.81211959208E+03 -0.23625274495E+03  0.73369479690E+03  0.11300678295E+04  0.15294330000E+03 0.  0.
<mgrwt>
<rscale>  0 0.10143902E+04</rscale>
<asrwt>0</asrwt>
<pdfrwt beam="1">  1        1 0.11659911E+00 0.10719906E+04</pdfrwt>
<pdfrwt beam="2">  1       -1 0.22233366E+00 0.10719906E+04</pdfrwt>
<totfact> 0.25501375E+00</totfact>
</mgrwt>
</event>
<event>
 4    1  0.8114601E-008  0.7314845E+03  0.7818608E-02  0.9885484E-01
         -1   -1    0    0    0  501 -0.00000000000E+00  0.00000000000E+00  0.95745683213E+03  0.95745683214E+03  0.50400000000E-02 0.  1.
          1   -1    0    0  501    0  0.00000000000E+00 -0.00000000000E+00 -0.63226450207E+03  0.63226450209E+03  0.50400000000E-02 0. -1.
    8880023    1    1    2    0    0 -0.66402529481E+02 -0.31120750153E+03 -0.36273536136E+03  0.81648426413E+03  0.65864270000E+03 0. -1.
    8880022    1    1    2    0    0  0.66402529481E+02  0.31120750153E+03  0.68792769142E+03  0.77323707009E+03  0.15294330000E+03 0.  0.
<mgrwt>
<rscale>  0 0.60969952E+03</rscale>
<asrwt>0</asrwt>
<pdfrwt beam="1">  1        1 0.97271462E-01 0.73148453E+03</pdfrwt>
<pdfrwt beam="2">  1       -1 0.14730105E+00 0.73148453E+03</pdfrwt>
<totfact> 0.11993533E+01</totfact>
</mgrwt>
</event>
<event>
 4    1  0.8114601E-008  0.8065857E+03  0.7818608E-02  0.9696733E-01
          1   -1    0    0  501    0  0.00000000000E+00  0.00000000000E+00  0.17389157143E+04  0.17389157143E+04  0.50400000000E-02 0. -1.
         -1   -1    0    0    0  501 -0.00000000000E+00 -0.00000000000E+00 -0.76293091528E+03  0.76293091529E+03  0.50400000000E-02 0.  1.
    8880023    1    1    2    0    0  0.21355234805E+03  0.41372183758E+03  0.15498693409E+04  0.17471907579E+04  0.65864270000E+03 0. -1.
    8880022    1    1    2    0    0 -0.21355234805E+03 -0.41372183758E+03 -0.57388454190E+03  0.75465587171E+03  0.15294330000E+03 0.  0.
<mgrwt>
<rscale>  0 0.71211634E+03</rscale>
<asrwt>0</asrwt>
<pdfrwt beam="1">  1        1 0.26752549E+00 0.80658575E+03</pdfrwt>
<pdfrwt beam="2">  1       -1 0.11737399E+00 0.80658575E+03</pdfrwt>
<totfact> 0.30397014E+00</totfact>
</mgrwt>
</event>
<event>
 4    1  0.8114601E-008  0.1029421E+04  0.7818608E-02  0.9344040E-01
          1   -1    0    0  501    0  0.00000000000E+00  0.00000000000E+00  0.17377760247E+04  0.17377760247E+04  0.50400000000E-02 0. -1.
         -1   -1    0    0    0  501 -0.00000000000E+00 -0.00000000000E+00 -0.82641639623E+03  0.82641639625E+03  0.50400000000E-02 0.  1.
    8880023    1    1    2    0    0 -0.71801950743E+03 -0.33218199786E+03  0.13092809915E+04  0.16655100761E+04  0.65864270000E+03 0.  0.
    8880022    1    1    2    0    0  0.71801950743E+03  0.33218199786E+03 -0.39792136301E+03  0.89868234483E+03  0.15294330000E+03 0.  0.
<mgrwt>
<rscale>  0 0.96827654E+03</rscale>
<asrwt>0</asrwt>
<pdfrwt beam="1">  1        1 0.26735015E+00 0.10294208E+04</pdfrwt>
<pdfrwt beam="2">  1       -1 0.12714099E+00 0.10294208E+04</pdfrwt>
<totfact> 0.24179906E+00</totfact>
</mgrwt>
</event>
<event>
 4    1  0.8114601E-008  0.8097997E+03  0.7818608E-02  0.9689994E-01
         -1   -1    0    0    0  501 -0.00000000000E+00  0.00000000000E+00  0.37117865366E+03  0.37117865370E+03  0.50400000000E-02 0.  1.
          1   -1    0    0  501    0  0.00000000000E+00 -0.00000000000E+00 -0.19348847728E+04  0.19348847728E+04  0.50400000000E-02 0. -1.
    8880023    1    1    2    0    0  0.46970246826E+03  0.36674464069E+02 -0.16164270681E+04  0.18079303354E+04  0.65864270000E+03 0.  0.
    8880022    1    1    2    0    0 -0.46970246826E+03 -0.36674464069E+02  0.52720948911E+02  0.49813309112E+03  0.15294330000E+03 0.  0.
<mgrwt>
<rscale>  0 0.71615669E+03</rscale>
<asrwt>0</asrwt>
<pdfrwt beam="1">  1        1 0.29767458E+00 0.80979975E+03</pdfrwt>
<pdfrwt beam="2">  1       -1 0.57104409E-01 0.80979975E+03</pdfrwt>
<totfact> 0.10605084E+01</totfact>
</mgrwt>
</event>
<event>
 4    1  0.8114601E-008  0.1029787E+04  0.7818608E-02  0.9343584E-01
          1   -1    0    0  501    0  0.00000000000E+00  0.00000000000E+00  0.13348554520E+04  0.13348554520E+04  0.50400000000E-02 0. -1.
         -1   -1    0    0    0  501 -0.00000000000E+00 -0.00000000000E+00 -0.12925064670E+04  0.12925064671E+04  0.50400000000E-02 0.  1.
    8880023    1    1    2    0    0 -0.19574866736E+03  0.76702943222E+03  0.95858880763E+03  0.14068953049E+04  0.65864270000E+03 0.  0.
    8880022    1    1    2    0    0  0.19574866736E+03 -0.76702943222E+03 -0.91623982265E+03  0.12204666142E+04  0.15294330000E+03 0.  0.
<mgrwt>
<rscale>  0 0.96867578E+03</rscale>
<asrwt>0</asrwt>
<pdfrwt beam="1">  1        1 0.20536238E+00 0.10297873E+04</pdfrwt>
<pdfrwt beam="2">  1       -1 0.19884715E+00 0.10297873E+04</pdfrwt>
<totfact> 0.13115323E+00</totfact>
</mgrwt>
</event>
<event>
 4    1  0.8114601E-008  0.9084005E+03  0.7818608E-02  0.9512678E-01
          1   -1    0    0  501    0  0.00000000000E+00  0.00000000000E+00  0.18322270416E+04  0.18322270416E+04  0.50400000000E-02 0. -1.
         -1   -1    0    0    0  501 -0.00000000000E+00 -0.00000000000E+00 -0.72778974690E+03  0.72778974692E+03  0.50400000000E-02 0.  1.
    8880023    1    1    2    0    0 -0.24928792780E+03  0.57379165142E+03  0.15361757744E+04  0.17846645472E+04  0.65864270000E+03 0. -1.
    8880022    1    1    2    0    0  0.24928792780E+03 -0.57379165142E+03 -0.43173847968E+03  0.77535224127E+03  0.15294330000E+03 0.  0.
<mgrwt>
<rscale>  0 0.83355516E+03</rscale>
<asrwt>0</asrwt>
<pdfrwt beam="1">  1        1 0.28188108E+00 0.90840054E+03</pdfrwt>
<pdfrwt beam="2">  1       -1 0.11196765E+00 0.90840054E+03</pdfrwt>
<totfact> 0.28975226E+00</totfact>
</mgrwt>
</event>
<event>
 4    1  0.1063103E-007  0.8064095E+03  0.7818608E-02  0.9697105E-01
          1   -1    0    0  501    0  0.00000000000E+00  0.00000000000E+00  0.13799094905E+04  0.13799094905E+04  0.50400000000E-02 0. -1.
         -1   -1    0    0    0  501 -0.00000000000E+00 -0.00000000000E+00 -0.13065843014E+04  0.13065843014E+04  0.50400000000E-02 0.  1.
    8880023    1    1    2    0    0  0.69011399693E+02 -0.46013415663E+03  0.12069685642E+04  0.14515747782E+04  0.65864270000E+03 0.  0.
    8880022    1    1    2    0    0 -0.69011399693E+02  0.46013415663E+03 -0.11336433752E+04  0.12349190137E+04  0.15294330000E+03 0.  0.
<mgrwt>
<rscale>  0 0.71189417E+03</rscale>
<asrwt>0</asrwt>
<pdfrwt beam="1">  1        1 0.21229377E+00 0.80640946E+03</pdfrwt>
<pdfrwt beam="2">  1       -1 0.20101297E+00 0.80640946E+03</pdfrwt>
<totfact> 0.12213164E+00</totfact>
</mgrwt>
</event>
<event>
 4    1  0.8114601E-008  0.8567030E+03  0.7818608E-02  0.9599455E-01
          1   -1    0    0  501    0  0.00000000000E+00  0.00000000000E+00  0.20863516950E+04  0.20863516950E+04  0.50400000000E-02 0. -1.
         -1   -1    0    0    0  501 -0.00000000000E+00 -0.00000000000E+00 -0.40742962380E+03  0.40742962384E+03  0.50400000000E-02 0.  1.
    8880023    1    1    2    0    0 -0.49863346262E+03  0.22692415578E+03  0.17220268915E+04  0.19233607888E+04  0.65864270000E+03 0.  0.
    8880022    1    1    2    0    0  0.49863346262E+03 -0.22692415578E+03 -0.43104820340E+02  0.57042053002E+03  0.15294330000E+03 0.  0.
<mgrwt>
<rscale>  0 0.77332248E+03</rscale>
<asrwt>0</asrwt>
<pdfrwt beam="1">  1        1 0.32097719E+00 0.85670305E+03</pdfrwt>
<pdfrwt beam="2">  1       -1 0.62681479E-01 0.85670305E+03</pdfrwt>
<totfact> 0.69365757E+00</totfact>
</mgrwt>
</event>
<event>
 4    1  0.8114601E-008  0.8311687E+03  0.7818608E-02  0.9647063E-01
         -1   -1    0    0    0  501 -0.00000000000E+00  0.00000000000E+00  0.46638786200E+03  0.46638786203E+03  0.50400000000E-02 0.  1.
          1   -1    0    0  501    0  0.00000000000E+00 -0.00000000000E+00 -0.19284767201E+04  0.19284767201E+04  0.50400000000E-02 0. -1.
    8880023    1    1    2    0    0 -0.48594310770E+03  0.14453548079E+03 -0.16380392967E+04  0.18368489739E+04  0.65864270000E+03 0. -1.
    8880022    1    1    2    0    0  0.48594310770E+03 -0.14453548079E+03  0.17595043864E+03  0.55801560820E+03  0.15294330000E+03 0.  0.
<mgrwt>
<rscale>  0 0.74258054E+03</rscale>
<asrwt>0</asrwt>
<pdfrwt beam="1">  1        1 0.29668872E+00 0.83116870E+03</pdfrwt>
<pdfrwt beam="2">  1       -1 0.71751980E-01 0.83116870E+03</pdfrwt>
<totfact> 0.67539278E+00</totfact>
</mgrwt>
</event>
<event>
 4    1  0.8114601E-008  0.7284280E+03  0.7818608E-02  0.9895036E-01
         -1   -1    0    0    0  501 -0.00000000000E+00  0.00000000000E+00  0.59391621672E+03  0.59391621674E+03  0.50400000000E-02 0.  1.
          1   -1    0    0  501    0  0.00000000000E+00 -0.00000000000E+00 -0.85728424108E+03  0.85728424109E+03  0.50400000000E-02 0. -1.
    8880023    1    1    2    0    0 -0.53391564021E+02 -0.30650697006E+03 -0.61799942132E+03  0.95526471348E+03  0.65864270000E+03 0. -1.
    8880022    1    1    2    0    0  0.53391564021E+02  0.30650697006E+03  0.35463139696E+03  0.49593574435E+03  0.15294330000E+03 0.  0.
<mgrwt>
<rscale>  0 0.60502455E+03</rscale>
<asrwt>0</asrwt>
<pdfrwt beam="1">  1        1 0.13188988E+00 0.72842803E+03</pdfrwt>
<pdfrwt beam="2">  1       -1 0.91371725E-01 0.72842803E+03</pdfrwt>
<totfact> 0.23750125E+01</totfact>
</mgrwt>
</event>
<event>
 4    1  0.8114601E-008  0.7915886E+03  0.7818608E-02  0.9729287E-01
          1   -1    0    0  501    0  0.00000000000E+00  0.00000000000E+00  0.64240061322E+03  0.64240061324E+03  0.50400000000E-02 0. -1.
         -1   -1    0    0    0  501 -0.00000000000E+00 -0.00000000000E+00 -0.86312192203E+03  0.86312192204E+03  0.50400000000E-02 0.  1.
    8880023    1    1    2    0    0  0.30443609323E+03 -0.31641885654E+03  0.26341742748E+03  0.83426684880E+03  0.65864270000E+03 0. -1.
    8880022    1    1    2    0    0 -0.30443609323E+03  0.31641885654E+03 -0.48413873629E+03  0.67125568648E+03  0.15294330000E+03 0.  0.
<mgrwt>
<rscale>  0 0.69299492E+03</rscale>
<asrwt>0</asrwt>
<pdfrwt beam="1">  1        1 0.98830863E-01 0.79158855E+03</pdfrwt>
<pdfrwt beam="2">  1       -1 0.13278799E+00 0.79158855E+03</pdfrwt>
<totfact> 0.15237539E+01</totfact>
</mgrwt>
</event>
<event>
 4    1  0.8114601E-008  0.9941404E+03  0.7818608E-02  0.9389264E-01
         -1   -1    0    0    0  501 -0.00000000000E+00  0.00000000000E+00  0.83953210610E+03  0.83953210612E+03  0.50400000000E-02 0.  1.
          1   -1    0    0  501    0  0.00000000000E+00 -0.00000000000E+00 -0.98139519631E+03  0.98139519633E+03  0.50400000000E-02 0. -1.
    8880023    1    1    2    0    0  0.24487491684E+03 -0.70323623060E+03 -0.31195413558E+03  0.10419359433E+04  0.65864270000E+03 0.  0.
    8880022    1    1    2    0    0 -0.24487491684E+03  0.70323623060E+03  0.17009104537E+03  0.77899135917E+03  0.15294330000E+03 0.  0.
<mgrwt>
<rscale>  0 0.92964482E+03</rscale>
<asrwt>0</asrwt>
<pdfrwt beam="1">  1        1 0.15098388E+00 0.99414040E+03</pdfrwt>
<pdfrwt beam="2">  1       -1 0.12915878E+00 0.99414040E+03</pdfrwt>
<totfact> 0.80923313E+00</totfact>
</mgrwt>
</event>
<event>
 4    1  0.8114601E-008  0.7244948E+03  0.7818608E-02  0.9907661E-01
          1   -1    0    0  501    0  0.00000000000E+00  0.00000000000E+00  0.98064951129E+03  0.98064951130E+03  0.50400000000E-02 0. -1.
         -1   -1    0    0    0  501 -0.00000000000E+00 -0.00000000000E+00 -0.34471704195E+03  0.34471704199E+03  0.50400000000E-02 0.  1.
    8880023    1    1    2    0    0 -0.26526328628E+03 -0.14393691450E+03  0.66807453032E+03  0.98550303436E+03  0.65864270000E+03 0.  0.
    8880022    1    1    2    0    0  0.26526328628E+03  0.14393691450E+03 -0.32142060983E+02  0.33986351893E+03  0.15294330000E+03 0.  0.
<mgrwt>
<rscale>  0 0.59891452E+03</rscale>
<asrwt>0</asrwt>
<pdfrwt beam="1">  1        1 0.15086915E+00 0.72449476E+03</pdfrwt>
<pdfrwt beam="2">  1       -1 0.53033391E-01 0.72449476E+03</pdfrwt>
<totfact> 0.57616145E+01</totfact>
</mgrwt>
</event>
<event>
 4    1  0.8114601E-008  0.7554506E+03  0.7818608E-02  0.9817031E-01
          1   -1    0    0  501    0  0.00000000000E+00  0.00000000000E+00  0.30700290094E+03  0.30700290098E+03  0.50400000000E-02 0. -1.
         -1   -1    0    0    0  501 -0.00000000000E+00 -0.00000000000E+00 -0.29715153605E+04  0.29715153605E+04  0.50400000000E-02 0.  1.
    8880023    1    1    2    0    0  0.29819658143E+03  0.21903016559E+03 -0.19969647454E+03  0.78139893961E+03  0.65864270000E+03 0.  0.
    8880022    1    1    2    0    0 -0.29819658143E+03 -0.21903016559E+03 -0.24648159850E+04  0.24971193219E+04  0.15294330000E+03 0.  0.
<mgrwt>
<rscale>  0 0.64456522E+03</rscale>
<asrwt>0</asrwt>
<pdfrwt beam="1">  1        1 0.47231218E-01 0.75545061E+03</pdfrwt>
<pdfrwt beam="2">  1       -1 0.45715619E+00 0.75545061E+03</pdfrwt>
<totfact> 0.26308079E-01</totfact>
</mgrwt>
</event>
<event>
 4    1  0.8114601E-008  0.8998429E+03  0.7818608E-02  0.9526284E-01
          1   -1    0    0  501    0  0.00000000000E+00  0.00000000000E+00  0.13729287026E+04  0.13729287026E+04  0.50400000000E-02 0. -1.
         -1   -1    0    0    0  501 -0.00000000000E+00 -0.00000000000E+00 -0.13563362163E+04  0.13563362163E+04  0.50400000000E-02 0.  1.
    8880023    1    1    2    0    0 -0.86467805305E+02  0.60698466971E+03  0.11327396343E+04  0.14466569587E+04  0.65864270000E+03 0. -1.
    8880022    1    1    2    0    0  0.86467805305E+02 -0.60698466971E+03 -0.11161471480E+04  0.12826079602E+04  0.15294330000E+03 0.  0.
<mgrwt>
<rscale>  0 0.82373452E+03</rscale>
<asrwt>0</asrwt>
<pdfrwt beam="1">  1        1 0.21121980E+00 0.89984292E+03</pdfrwt>
<pdfrwt beam="2">  1       -1 0.20866711E+00 0.89984292E+03</pdfrwt>
<totfact> 0.10777792E+00</totfact>
</mgrwt>
</event>
<event>
 4    1  0.8114601E-008  0.1064080E+04  0.7818608E-02  0.9302143E-01
         -1   -1    0    0    0  501 -0.00000000000E+00  0.00000000000E+00  0.14550639903E+04  0.14550639903E+04  0.50400000000E-02 0.  1.
          1   -1    0    0  501    0  0.00000000000E+00 -0.00000000000E+00 -0.65986315258E+03  0.65986315260E+03  0.50400000000E-02 0. -1.
    8880023    1    1    2    0    0 -0.53461745359E+03 -0.64237134993E+03  0.21358805050E+03  0.10853049500E+04  0.65864270000E+03 0. -1.
    8880022    1    1    2    0    0  0.53461745359E+03  0.64237134993E+03  0.58161278726E+03  0.10296221929E+04  0.15294330000E+03 0.  0.
<mgrwt>
<rscale>  0 0.10058578E+04</rscale>
<asrwt>0</asrwt>
<pdfrwt beam="1">  1        1 0.10151741E+00 0.10640803E+04</pdfrwt>
<pdfrwt beam="2">  1       -1 0.22385600E+00 0.10640803E+04</pdfrwt>
<totfact> 0.30836836E+00</totfact>
</mgrwt>
</event>
<event>
 4    1  0.8114601E-008  0.1139135E+04  0.7818608E-02  0.9218686E-01
          1   -1    0    0  501    0  0.00000000000E+00  0.00000000000E+00  0.36930328093E+04  0.36930328093E+04  0.50400000000E-02 0. -1.
         -1   -1    0    0    0  501 -0.00000000000E+00 -0.00000000000E+00 -0.38167087140E+03  0.38167087143E+03  0.50400000000E-02 0.  1.
    8880023    1    1    2    0    0  0.85304220190E+03 -0.36896859898E+03  0.27538594738E+04  0.29801629206E+04  0.65864270000E+03 0.  0.
    8880022    1    1    2    0    0 -0.85304220190E+03  0.36896859898E+03  0.55750246411E+03  0.10945407602E+04  0.15294330000E+03 0.  0.
<mgrwt>
<rscale>  0 0.10862625E+04</rscale>
<asrwt>0</asrwt>
<pdfrwt beam="1">  1        1 0.56815889E+00 0.11391352E+04</pdfrwt>
<pdfrwt beam="2">  1       -1 0.58718596E-01 0.11391352E+04</pdfrwt>
<totfact> 0.52476368E-01</totfact>
</mgrwt>
</event>
<event>
 4    1  0.8114601E-008  0.7782429E+03  0.7818608E-02  0.9759981E-01
         -1   -1    0    0    0  501 -0.00000000000E+00  0.00000000000E+00  0.99975555948E+03  0.99975555949E+03  0.50400000000E-02 0.  1.
          1   -1    0    0  501    0  0.00000000000E+00 -0.00000000000E+00 -0.83662681296E+03  0.83662681298E+03  0.50400000000E-02 0. -1.
    8880023    1    1    2    0    0  0.35378701480E+03 -0.21607081268E+03 -0.58083161720E+03  0.97109598997E+03  0.65864270000E+03 0.  0.
    8880022    1    1    2    0    0 -0.35378701480E+03  0.21607081268E+03  0.74396036372E+03  0.86528638250E+03  0.15294330000E+03 0.  0.
<mgrwt>
<rscale>  0 0.67555150E+03</rscale>
<asrwt>0</asrwt>
<pdfrwt beam="1">  1        1 0.12871182E+00 0.77824293E+03</pdfrwt>
<pdfrwt beam="2">  1       -1 0.15380855E+00 0.77824293E+03</pdfrwt>
<totfact> 0.68984260E+00</totfact>
</mgrwt>
</event>
<event>
 4    1  0.8114601E-008  0.9457410E+03  0.7818608E-02  0.9456269E-01
         -1   -1    0    0    0  501 -0.00000000000E+00  0.00000000000E+00  0.46623942166E+03  0.46623942169E+03  0.50400000000E-02 0.  1.
          1   -1    0    0  501    0  0.00000000000E+00 -0.00000000000E+00 -0.20942030335E+04  0.20942030335E+04  0.50400000000E-02 0. -1.
    8880023    1    1    2    0    0 -0.12618218752E+03 -0.66685369788E+03 -0.16067380692E+04  0.18644123010E+04  0.65864270000E+03 0. -1.
    8880022    1    1    2    0    0  0.12618218752E+03  0.66685369788E+03 -0.21225542601E+02  0.69603015416E+03  0.15294330000E+03 0.  0.
<mgrwt>
<rscale>  0 0.87586196E+03</rscale>
<asrwt>0</asrwt>
<pdfrwt beam="1">  1        1 0.32218508E+00 0.94574098E+03</pdfrwt>
<pdfrwt beam="2">  1       -1 0.71729143E-01 0.94574098E+03</pdfrwt>
<totfact> 0.51462845E+00</totfact>
</mgrwt>
</event>
<event>
 4    1  0.8114601E-008  0.7159546E+03  0.7818608E-02  0.9936520E-01
          1   -1    0    0  501    0  0.00000000000E+00  0.00000000000E+00  0.20059206408E+04  0.20059206408E+04  0.50400000000E-02 0. -1.
         -1   -1    0    0    0  501 -0.00000000000E+00 -0.00000000000E+00 -0.15222768195E+04  0.15222768195E+04  0.50400000000E-02 0.  1.
    8880023    1    1    2    0    0  0.26576857555E+03  0.90265101718E+02  0.19239516335E+04  0.20528470032E+04  0.65864270000E+03 0. -1.
    8880022    1    1    2    0    0 -0.26576857555E+03 -0.90265101718E+02 -0.14403078122E+04  0.14753504571E+04  0.15294330000E+03 0.  0.
<mgrwt>
<rscale>  0 0.58523566E+03</rscale>
<asrwt>0</asrwt>
<pdfrwt beam="1">  1        1 0.30860317E+00 0.71595456E+03</pdfrwt>
<pdfrwt beam="2">  1       -1 0.23419644E+00 0.71595456E+03</pdfrwt>
<totfact> 0.28234662E-01</totfact>
</mgrwt>
</event>
<event>
 4    1  0.8114601E-008  0.1251346E+04  0.7818608E-02  0.9108758E-01
          1   -1    0    0  501    0  0.00000000000E+00  0.00000000000E+00  0.16998105348E+04  0.16998105348E+04  0.50400000000E-02 0. -1.
         -1   -1    0    0    0  501 -0.00000000000E+00 -0.00000000000E+00 -0.14090915650E+04  0.14090915650E+04  0.50400000000E-02 0.  1.
    8880023    1    1    2    0    0 -0.39883702700E+03 -0.98639981740E+03  0.11753502739E+04  0.17167743144E+04  0.65864270000E+03 0.  0.
    8880022    1    1    2    0    0  0.39883702700E+03  0.98639981740E+03 -0.88463130409E+03  0.13921277855E+04  0.15294330000E+03 0.  0.
<mgrwt>
<rscale>  0 0.12046939E+04</rscale>
<asrwt>0</asrwt>
<pdfrwt beam="1">  1        1 0.26150931E+00 0.12513456E+04</pdfrwt>
<pdfrwt beam="2">  1       -1 0.21678332E+00 0.12513456E+04</pdfrwt>
<totfact> 0.53692300E-01</totfact>
</mgrwt>
</event>
<event>
 4    1  0.8114601E-008  0.9945942E+03  0.7818608E-02  0.9388665E-01
         -1   -1    0    0    0  501 -0.00000000000E+00  0.00000000000E+00  0.54540567984E+03  0.54540567986E+03  0.50400000000E-02 0.  1.
          1   -1    0    0  501    0  0.00000000000E+00 -0.00000000000E+00 -0.27548780459E+04  0.27548780459E+04  0.50400000000E-02 0. -1.
    8880023    1    1    2    0    0  0.69953929005E+03  0.25700616664E+03 -0.23268408372E+04  0.25304951839E+04  0.65864270000E+03 0.  0.
    8880022    1    1    2    0    0 -0.69953929005E+03 -0.25700616664E+03  0.11736847118E+03  0.76978854178E+03  0.15294330000E+03 0.  0.
<mgrwt>
<rscale>  0 0.93014448E+03</rscale>
<asrwt>0</asrwt>
<pdfrwt beam="1">  1        1 0.42382738E+00 0.99459419E+03</pdfrwt>
<pdfrwt beam="2">  1       -1 0.83908567E-01 0.99459419E+03</pdfrwt>
<totfact> 0.12940687E+00</totfact>
</mgrwt>
</event>
<event>
 4    1  0.8886306E-008  0.8764953E+03  0.7818608E-02  0.9564869E-01
         -1   -1    0    0    0  501 -0.00000000000E+00  0.00000000000E+00  0.12023631499E+04  0.12023631499E+04  0.50400000000E-02 0.  1.
          1   -1    0    0  501    0  0.00000000000E+00 -0.00000000000E+00 -0.15432260193E+04  0.15432260193E+04  0.50400000000E-02 0. -1.
    8880023    1    1    2    0    0  0.37522773859E+03 -0.44004310551E+03 -0.13281061408E+04  0.15912604809E+04  0.65864270000E+03 0. -1.
    8880022    1    1    2    0    0 -0.37522773859E+03  0.44004310551E+03  0.98724327148E+03  0.11543286883E+04  0.15294330000E+03 0.  0.
<mgrwt>
<rscale>  0 0.79665648E+03</rscale>
<asrwt>0</asrwt>
<pdfrwt beam="1">  1        1 0.23741939E+00 0.87649529E+03</pdfrwt>
<pdfrwt beam="2">  1       -1 0.18497895E+00 0.87649529E+03</pdfrwt>
<totfact> 0.12022779E+00</totfact>
</mgrwt>
</event>
<event>
 4    1  0.8114601E-008  0.7893562E+03  0.7818608E-02  0.9734301E-01
          1   -1    0    0  501    0  0.00000000000E+00  0.00000000000E+00  0.61699377806E+03  0.61699377808E+03  0.50400000000E-02 0. -1.
         -1   -1    0    0    0  501 -0.00000000000E+00 -0.00000000000E+00 -0.80600978606E+03  0.80600978607E+03  0.50400000000E-02 0.  1.
    8880023    1    1    2    0    0  0.43495311211E+03  0.94260112464E+01  0.20600139604E+03  0.81579399413E+03  0.65864270000E+03 0. -1.
    8880022    1    1    2    0    0 -0.43495311211E+03 -0.94260112464E+01 -0.39501740404E+03  0.60720957002E+03  0.15294330000E+03 0.  0.
<mgrwt>
<rscale>  0 0.69010744E+03</rscale>
<asrwt>0</asrwt>
<pdfrwt beam="1">  1        1 0.94922120E-01 0.78935623E+03</pdfrwt>
<pdfrwt beam="2">  1       -1 0.12400151E+00 0.78935623E+03</pdfrwt>
<totfact> 0.19193524E+01</totfact>
</mgrwt>
</event>
<event>
 4    1  0.8114601E-008  0.7033944E+03  0.7818608E-02  0.9983401E-01
          1   -1    0    0  501    0  0.00000000000E+00  0.00000000000E+00  0.42437966558E+03  0.42437966561E+03  0.50400000000E-02 0. -1.
         -1   -1    0    0    0  501 -0.00000000000E+00 -0.00000000000E+00 -0.13066242255E+04  0.13066242255E+04  0.50400000000E-02 0.  1.
    8880023    1    1    2    0    0  0.63133200786E+02  0.23867888310E+03  0.96588434858E+02  0.70999502977E+03  0.65864270000E+03 0. -1.
    8880022    1    1    2    0    0 -0.63133200786E+02 -0.23867888310E+03 -0.97883299480E+03  0.10210088614E+04  0.15294330000E+03 0.  0.
<mgrwt>
<rscale>  0 0.56384095E+03</rscale>
<asrwt>0</asrwt>
<pdfrwt beam="1">  1        1 0.65289180E-01 0.70339435E+03</pdfrwt>
<pdfrwt beam="2">  1       -1 0.20101911E+00 0.70339435E+03</pdfrwt>
<totfact> 0.85271084E+00</totfact>
</mgrwt>
</event>
<event>
 4    1  0.8114601E-008  0.7461514E+03  0.7818608E-02  0.9842378E-01
         -1   -1    0    0    0  501 -0.00000000000E+00  0.00000000000E+00  0.35250797722E+03  0.35250797726E+03  0.50400000000E-02 0.  1.
          1   -1    0    0  501    0  0.00000000000E+00 -0.00000000000E+00 -0.16862825524E+04  0.16862825525E+04  0.50400000000E-02 0. -1.
    8880023    1    1    2    0    0 -0.74227268432E+01 -0.35053758966E+03 -0.14569703559E+04  0.16369192169E+04  0.65864270000E+03 0. -1.
    8880022    1    1    2    0    0  0.74227268432E+01  0.35053758966E+03  0.12319578065E+03  0.40187131277E+03  0.15294330000E+03 0.  0.
<mgrwt>
<rscale>  0 0.63137070E+03</rscale>
<asrwt>0</asrwt>
<pdfrwt beam="1">  1        1 0.25942808E+00 0.74615140E+03</pdfrwt>
<pdfrwt beam="2">  1       -1 0.54231998E-01 0.74615140E+03</pdfrwt>
<totfact> 0.17362875E+01</totfact>
</mgrwt>
</event>
<event>
 4    1  0.8114601E-008  0.9873574E+03  0.7818608E-02  0.9398288E-01
          1   -1    0    0  501    0  0.00000000000E+00  0.00000000000E+00  0.16025459046E+04  0.16025459046E+04  0.50400000000E-02 0. -1.
         -1   -1    0    0    0  501 -0.00000000000E+00 -0.00000000000E+00 -0.49507180578E+03  0.49507180580E+03  0.50400000000E-02 0.  1.
    8880023    1    1    2    0    0  0.73545857134E+03  0.12853609177E+02  0.85178149155E+03  0.13039963348E+04  0.65864270000E+03 0. -1.
    8880022    1    1    2    0    0 -0.73545857134E+03 -0.12853609177E+02  0.25569260723E+03  0.79362137562E+03  0.15294330000E+03 0.  0.
<mgrwt>
<rscale>  0 0.92216702E+03</rscale>
<asrwt>0</asrwt>
<pdfrwt beam="1">  1        1 0.24654553E+00 0.98735745E+03</pdfrwt>
<pdfrwt beam="2">  1       -1 0.76164892E-01 0.98735745E+03</pdfrwt>
<totfact> 0.96996227E+00</totfact>
</mgrwt>
</event>
<event>
 4    1  0.8114601E-008  0.6927221E+03  0.7818608E-02  0.1002885E+00
          1   -1    0    0  501    0  0.00000000000E+00  0.00000000000E+00  0.90303677398E+03  0.90303677399E+03  0.50400000000E-02 0. -1.
         -1   -1    0    0    0  501 -0.00000000000E+00 -0.00000000000E+00 -0.74585503473E+03  0.74585503475E+03  0.50400000000E-02 0.  1.
    8880023    1    1    2    0    0 -0.11801348960E+03 -0.17923877059E+03  0.73733335248E+03  0.10116938270E+04  0.65864270000E+03 0. -1.
    8880022    1    1    2    0    0  0.11801348960E+03  0.17923877059E+03 -0.58015161323E+03  0.63719798176E+03  0.15294330000E+03 0.  0.
<mgrwt>
<rscale>  0 0.54403232E+03</rscale>
<asrwt>0</asrwt>
<pdfrwt beam="1">  1        1 0.13892873E+00 0.69272211E+03</pdfrwt>
<pdfrwt beam="2">  1       -1 0.11474693E+00 0.69272211E+03</pdfrwt>
<totfact> 0.12965004E+01</totfact>
</mgrwt>
</event>
<event>
 4    1  0.8114601E-008  0.6777395E+03  0.7818608E-02  0.1010632E+00
          1   -1    0    0  501    0  0.00000000000E+00  0.00000000000E+00  0.95136139850E+03  0.95136139851E+03  0.50400000000E-02 0. -1.
         -1   -1    0    0    0  501 -0.00000000000E+00 -0.00000000000E+00 -0.10517086829E+04  0.10517086829E+04  0.50400000000E-02 0.  1.
    8880023    1    1    2    0    0  0.10662731712E+03 -0.11895895469E+03  0.81580679673E+03  0.10605996198E+04  0.65864270000E+03 0. -1.
    8880022    1    1    2    0    0 -0.10662731712E+03  0.11895895469E+03 -0.91615408113E+03  0.94247046163E+03  0.15294330000E+03 0.  0.
<mgrwt>
<rscale>  0 0.51224099E+03</rscale>
<asrwt>0</asrwt>
<pdfrwt beam="1">  1        1 0.14636329E+00 0.67773950E+03</pdfrwt>
<pdfrwt beam="2">  1       -1 0.16180134E+00 0.67773950E+03</pdfrwt>
<totfact> 0.49113317E+00</totfact>
</mgrwt>
</event>
<event>
 4    1  0.1243098E-007  0.1109151E+04  0.7818608E-02  0.9250936E-01
         -1   -1    0    0    0  501 -0.00000000000E+00  0.00000000000E+00  0.15730998511E+04  0.15730998511E+04  0.50400000000E-02 0.  1.
          1   -1    0    0  501    0  0.00000000000E+00 -0.00000000000E+00 -0.24122256030E+04  0.24122256030E+04  0.50400000000E-02 0. -1.
    8880023    1    1    2    0    0 -0.87595498277E+03  0.17061123467E+03 -0.21341549734E+04  0.24051679737E+04  0.65864270000E+03 0.  0.
    8880022    1    1    2    0    0  0.87595498277E+03 -0.17061123467E+03  0.12950292215E+04  0.15801574804E+04  0.15294330000E+03 0.  0.
<mgrwt>
<rscale>  0 0.10542807E+04</rscale>
<asrwt>0</asrwt>
<pdfrwt beam="1">  1        1 0.37111163E+00 0.11091508E+04</pdfrwt>
<pdfrwt beam="2">  1       -1 0.24201536E+00 0.11091508E+04</pdfrwt>
<totfact> 0.12267328E-01</totfact>
</mgrwt>
</event>
<event>
 4    1  0.8114601E-008  0.7765059E+03  0.7818608E-02  0.9764110E-01
          1   -1    0    0  501    0  0.00000000000E+00  0.00000000000E+00  0.16331864487E+04  0.16331864487E+04  0.50400000000E-02 0. -1.
         -1   -1    0    0    0  501 -0.00000000000E+00 -0.00000000000E+00 -0.32572060561E+03  0.32572060565E+03  0.50400000000E-02 0.  1.
    8880023    1    1    2    0    0 -0.41125900546E+03 -0.41578243243E+01  0.13068172406E+04  0.15201094578E+04  0.65864270000E+03 0.  1.
    8880022    1    1    2    0    0  0.41125900546E+03  0.41578243243E+01  0.64860251120E+00  0.43879759660E+03  0.15294330000E+03 0.  0.
<mgrwt>
<rscale>  0 0.67324715E+03</rscale>
<asrwt>0</asrwt>
<pdfrwt beam="1">  1        1 0.25125946E+00 0.77650593E+03</pdfrwt>
<pdfrwt beam="2">  1       -1 0.50110862E-01 0.77650593E+03</pdfrwt>
<totfact> 0.21842335E+01</totfact>
</mgrwt>
</event>
<event>
 4    1  0.8114601E-008  0.8402816E+03  0.7818608E-02  0.9629650E-01
         -1   -1    0    0    0  501 -0.00000000000E+00  0.00000000000E+00  0.41384494778E+03  0.41384494781E+03  0.50400000000E-02 0.  1.
          1   -1    0    0  501    0  0.00000000000E+00 -0.00000000000E+00 -0.15209372079E+04  0.15209372079E+04  0.50400000000E-02 0. -1.
    8880023    1    1    2    0    0 -0.27270217054E+03 -0.44485549828E+03 -0.11085649163E+04  0.13910389168E+04  0.65864270000E+03 0.  1.
    8880022    1    1    2    0    0  0.27270217054E+03  0.44485549828E+03  0.14726561261E+01  0.54374323895E+03  0.15294330000E+03 0.  0.
<mgrwt>
<rscale>  0 0.75364478E+03</rscale>
<asrwt>0</asrwt>
<pdfrwt beam="1">  1        1 0.23399034E+00 0.84028156E+03</pdfrwt>
<pdfrwt beam="2">  1       -1 0.63668454E-01 0.84028156E+03</pdfrwt>
<totfact> 0.16208742E+01</totfact>
</mgrwt>
</event>
<event>
 4    1  0.8114601E-008  0.8214676E+03  0.7818608E-02  0.9666168E-01
          1   -1    0    0  501    0  0.00000000000E+00  0.00000000000E+00  0.91297416623E+03  0.91297416625E+03  0.50400000000E-02 0. -1.
         -1   -1    0    0    0  501 -0.00000000000E+00 -0.00000000000E+00 -0.10781980234E+04  0.10781980234E+04  0.50400000000E-02 0.  1.
    8880023    1    1    2    0    0 -0.48684162619E+03 -0.63119284380E+02  0.63617326287E+03  0.10390021365E+04  0.65864270000E+03 0. -1.
    8880022    1    1    2    0    0  0.48684162619E+03  0.63119284380E+02 -0.80139712006E+03  0.95217005315E+03  0.15294330000E+03 0.  0.
<mgrwt>
<rscale>  0 0.73067383E+03</rscale>
<asrwt>0</asrwt>
<pdfrwt beam="1">  1        1 0.14045756E+00 0.82146760E+03</pdfrwt>
<pdfrwt beam="2">  1       -1 0.16587662E+00 0.82146760E+03</pdfrwt>
<totfact> 0.48073020E+00</totfact>
</mgrwt>
</event>
<event>
 4    1  0.8114601E-008  0.7098639E+03  0.7818608E-02  0.9958507E-01
          1   -1    0    0  501    0  0.00000000000E+00  0.00000000000E+00  0.12847645647E+04  0.12847645647E+04  0.50400000000E-02 0. -1.
         -1   -1    0    0    0  501 -0.00000000000E+00 -0.00000000000E+00 -0.60923120366E+03  0.60923120368E+03  0.50400000000E-02 0.  1.
    8880023    1    1    2    0    0  0.84249039374E+02 -0.25099527804E+03  0.11370145832E+04  0.13404137044E+04  0.65864270000E+03 0. -1.
    8880022    1    1    2    0    0 -0.84249039374E+02  0.25099527804E+03 -0.46148122213E+03  0.55358206404E+03  0.15294330000E+03 0.  0.
<mgrwt>
<rscale>  0 0.57507687E+03</rscale>
<asrwt>0</asrwt>
<pdfrwt beam="1">  1        1 0.19765609E+00 0.70986389E+03</pdfrwt>
<pdfrwt beam="2">  1       -1 0.93727878E-01 0.70986389E+03</pdfrwt>
<totfact> 0.10661955E+01</totfact>
</mgrwt>
</event>
<event>
 4    1  0.9965772E-008  0.6920411E+03  0.7818608E-02  0.1003197E+00
         -1   -1    0    0    0  501 -0.00000000000E+00  0.00000000000E+00  0.92296691040E+03  0.92296691041E+03  0.50400000000E-02 0.  1.
          1   -1    0    0  501    0  0.00000000000E+00 -0.00000000000E+00 -0.12584382901E+04  0.12584382901E+04  0.50400000000E-02 0. -1.
    8880023    1    1    2    0    0 -0.22940536688E+02 -0.21115020641E+03 -0.11409757499E+04  0.13344461570E+04  0.65864270000E+03 0. -1.
    8880022    1    1    2    0    0  0.22940536688E+02  0.21115020641E+03  0.80550437021E+03  0.84695904348E+03  0.15294330000E+03 0.  0.
<mgrwt>
<rscale>  0 0.54270283E+03</rscale>
<asrwt>0</asrwt>
<pdfrwt beam="1">  1        1 0.19360589E+00 0.69204110E+03</pdfrwt>
<pdfrwt beam="2">  1       -1 0.14199491E+00 0.69204110E+03</pdfrwt>
<totfact> 0.41113979E+00</totfact>
</mgrwt>
</event>
<event>
 4    1  0.8114601E-008  0.7543865E+03  0.7818608E-02  0.9819863E-01
         -1   -1    0    0    0  501 -0.00000000000E+00  0.00000000000E+00  0.32957009646E+03  0.32957009650E+03  0.50400000000E-02 0.  1.
          1   -1    0    0  501    0  0.00000000000E+00 -0.00000000000E+00 -0.14808651559E+04  0.14808651560E+04  0.50400000000E-02 0. -1.
    8880023    1    1    2    0    0 -0.36781601939E+03 -0.36635672150E+00 -0.11913162715E+04  0.14100827718E+04  0.65864270000E+03 0.  0.
    8880022    1    1    2    0    0  0.36781601939E+03  0.36635672150E+00  0.40021212007E+02  0.40035248065E+03  0.15294330000E+03 0.  1.
<mgrwt>
<rscale>  0 0.64307383E+03</rscale>
<asrwt>0</asrwt>
<pdfrwt beam="1">  1        1 0.22782541E+00 0.75438648E+03</pdfrwt>
<pdfrwt beam="2">  1       -1 0.50703092E-01 0.75438648E+03</pdfrwt>
<totfact> 0.27199795E+01</totfact>
</mgrwt>
</event>
<event>
 4    1  0.1245487E-007  0.7711021E+03  0.7818608E-02  0.9777169E-01
          1   -1    0    0  501    0  0.00000000000E+00  0.00000000000E+00  0.12223398988E+04  0.12223398988E+04  0.50400000000E-02 0. -1.
         -1   -1    0    0    0  501 -0.00000000000E+00 -0.00000000000E+00 -0.10147236000E+04  0.10147236000E+04  0.50400000000E-02 0.  1.
    8880023    1    1    2    0    0 -0.28796042508E+03  0.27904661294E+03  0.10434715407E+04  0.12974711100E+04  0.65864270000E+03 0. -1.
    8880022    1    1    2    0    0  0.28796042508E+03 -0.27904661294E+03 -0.83585524195E+03  0.93959238881E+03  0.15294330000E+03 0.  0.
<mgrwt>
<rscale>  0 0.66602293E+03</rscale>
<asrwt>0</asrwt>
<pdfrwt beam="1">  1        1 0.18805229E+00 0.77110208E+03</pdfrwt>
<pdfrwt beam="2">  1       -1 0.15611132E+00 0.77110208E+03</pdfrwt>
<totfact> 0.33404336E+00</totfact>
</mgrwt>
</event>
<event>
 4    1  0.8114601E-008  0.6751897E+03  0.7818608E-02  0.1012187E+00
         -1   -1    0    0    0  501 -0.00000000000E+00  0.00000000000E+00  0.22732017610E+03  0.22732017616E+03  0.50400000000E-02 0.  1.
          1   -1    0    0  501    0  0.00000000000E+00 -0.00000000000E+00 -0.18896177139E+04  0.18896177139E+04  0.50400000000E-02 0. -1.
    8880023    1    1    2    0    0  0.63858889392E+02 -0.13413809936E+03 -0.17580182109E+04  0.18832177845E+04  0.65864270000E+03 0. -1.
    8880022    1    1    2    0    0 -0.63858889392E+02  0.13413809936E+03  0.95720673182E+02  0.23372010556E+03  0.15294330000E+03 0.  0.
<mgrwt>
<rscale>  0 0.50614647E+03</rscale>
<asrwt>0</asrwt>
<pdfrwt beam="1">  1        1 0.29071041E+00 0.67518975E+03</pdfrwt>
<pdfrwt beam="2">  1       -1 0.34972336E-01 0.67518975E+03</pdfrwt>
<totfact> 0.28818473E+01</totfact>
</mgrwt>
</event>
<event>
 4    1  0.8114601E-008  0.8149686E+03  0.7818608E-02  0.9679319E-01
          1   -1    0    0  501    0  0.00000000000E+00  0.00000000000E+00  0.16715671643E+04  0.16715671643E+04  0.50400000000E-02 0. -1.
         -1   -1    0    0    0  501 -0.00000000000E+00 -0.00000000000E+00 -0.38620911357E+03  0.38620911360E+03  0.50400000000E-02 0.  1.
    8880023    1    1    2    0    0  0.31955241338E+03  0.35811994860E+03  0.13216625093E+04  0.15527284493E+04  0.65864270000E+03 0.  0.
    8880022    1    1    2    0    0 -0.31955241338E+03 -0.35811994860E+03 -0.36304458557E+02  0.50504782863E+03  0.15294330000E+03 0.  0.
<mgrwt>
<rscale>  0 0.72261597E+03</rscale>
<asrwt>0</asrwt>
<pdfrwt beam="1">  1        1 0.25716418E+00 0.81496862E+03</pdfrwt>
<pdfrwt beam="2">  1       -1 0.59416786E-01 0.81496862E+03</pdfrwt>
<totfact> 0.14733753E+01</totfact>
</mgrwt>
</event>
<event>
 4    1  0.8114601E-008  0.6797534E+03  0.7818608E-02  0.1009464E+00
          1   -1    0    0  501    0  0.00000000000E+00  0.00000000000E+00  0.96004550232E+03  0.96004550234E+03  0.50400000000E-02 0. -1.
         -1   -1    0    0    0  501 -0.00000000000E+00 -0.00000000000E+00 -0.11723275261E+04  0.11723275261E+04  0.50400000000E-02 0.  1.
    8880023    1    1    2    0    0  0.11780185340E+03  0.11990480637E+03  0.82586988580E+03  0.10696381228E+04  0.65864270000E+03 0. -1.
    8880022    1    1    2    0    0 -0.11780185340E+03 -0.11990480637E+03 -0.10381519096E+04  0.10627349057E+04  0.15294330000E+03 0.  0.
<mgrwt>
<rscale>  0 0.51688415E+03</rscale>
<asrwt>0</asrwt>
<pdfrwt beam="1">  1        1 0.14769931E+00 0.67975337E+03</pdfrwt>
<pdfrwt beam="2">  1       -1 0.18035808E+00 0.67975337E+03</pdfrwt>
<totfact> 0.35404116E+00</totfact>
</mgrwt>
</event>
<event>
 4    1  0.8114601E-008  0.9521490E+03  0.7818608E-02  0.9447029E-01
          1   -1    0    0  501    0  0.00000000000E+00  0.00000000000E+00  0.84776660748E+03  0.84776660749E+03  0.50400000000E-02 0. -1.
         -1   -1    0    0    0  501 -0.00000000000E+00 -0.00000000000E+00 -0.25826153287E+04  0.25826153287E+04  0.50400000000E-02 0.  1.
    8880023    1    1    2    0    0  0.65636565903E+03  0.20484538505E+03  0.50823322097E+03  0.10793001081E+04  0.65864270000E+03 0. -1.
    8880022    1    1    2    0    0 -0.65636565903E+03 -0.20484538505E+03 -0.22430819422E+04  0.23510818282E+04  0.15294330000E+03 0.  0.
<mgrwt>
<rscale>  0 0.88304413E+03</rscale>
<asrwt>0</asrwt>
<pdfrwt beam="1">  1        1 0.13042563E+00 0.95214900E+03</pdfrwt>
<pdfrwt beam="2">  1       -1 0.39732543E+00 0.95214900E+03</pdfrwt>
<totfact> 0.15522469E-01</totfact>
</mgrwt>
</event>
<event>
 4    1  0.8114601E-008  0.8612289E+03  0.7818608E-02  0.9591381E-01
         -1   -1    0    0    0  501 -0.00000000000E+00  0.00000000000E+00  0.15063377630E+04  0.15063377630E+04  0.50400000000E-02 0.  1.
          1   -1    0    0  501    0  0.00000000000E+00 -0.00000000000E+00 -0.80213441446E+03  0.80213441448E+03  0.50400000000E-02 0. -1.
    8880023    1    1    2    0    0 -0.46316798849E+03  0.30558201231E+03 -0.48420540750E+03  0.98801317538E+03  0.65864270000E+03 0. -1.
    8880022    1    1    2    0    0  0.46316798849E+03 -0.30558201231E+03  0.11884087560E+04  0.13204590021E+04  0.15294330000E+03 0.  0.
<mgrwt>
<rscale>  0 0.77869262E+03</rscale>
<asrwt>0</asrwt>
<pdfrwt beam="1">  1        1 0.12340530E+00 0.86122887E+03</pdfrwt>
<pdfrwt beam="2">  1       -1 0.23174427E+00 0.86122887E+03</pdfrwt>
<totfact> 0.20755938E+00</totfact>
</mgrwt>
</event>
<event>
 4    1  0.8114601E-008  0.7329694E+03  0.7818608E-02  0.9880921E-01
          1   -1    0    0  501    0  0.00000000000E+00  0.00000000000E+00  0.41093669682E+03  0.41093669685E+03  0.50400000000E-02 0. -1.
         -1   -1    0    0    0  501 -0.00000000000E+00 -0.00000000000E+00 -0.11200056145E+04  0.11200056145E+04  0.50400000000E-02 0.  1.
    8880023    1    1    2    0    0  0.80096757038E+02  0.31147773813E+03  0.50095032122E+01  0.73298647547E+03  0.65864270000E+03 0. -1.
    8880022    1    1    2    0    0 -0.80096757038E+02 -0.31147773813E+03 -0.71407842087E+03  0.79795583587E+03  0.15294330000E+03 0.  0.
<mgrwt>
<rscale>  0 0.61194895E+03</rscale>
<asrwt>0</asrwt>
<pdfrwt beam="1">  1        1 0.63221031E-01 0.73296936E+03</pdfrwt>
<pdfrwt beam="2">  1       -1 0.17230856E+00 0.73296936E+03</pdfrwt>
<totfact> 0.14110381E+01</totfact>
</mgrwt>
</event>
<event>
 4    1  0.8114601E-008  0.2046521E+04  0.7818608E-02  0.8597185E-01
         -1   -1    0    0    0  501 -0.00000000000E+00  0.00000000000E+00  0.45992809068E+04  0.45992809068E+04  0.50400000000E-02 0.  1.
          1   -1    0    0  501    0  0.00000000000E+00 -0.00000000000E+00 -0.13235972893E+04  0.13235972893E+04  0.50400000000E-02 0. -1.
    8880023    1    1    2    0    0  0.75648650582E+03 -0.17838621942E+04 -0.76515272122E+02  0.20479504277E+04  0.65864270000E+03 0. -1.
    8880022    1    1    2    0    0 -0.75648650582E+03  0.17838621942E+04  0.33521988897E+04  0.38749277684E+04  0.15294330000E+03 0.  0.
<mgrwt>
<rscale>  0 0.20203069E+04</rscale>
<asrwt>0</asrwt>
<pdfrwt beam="1">  1        1 0.20363036E+00 0.20465206E+04</pdfrwt>
<pdfrwt beam="2">  1       -1 0.70758167E+00 0.20465206E+04</pdfrwt>
<totfact> 0.14303906E-03</totfact>
</mgrwt>
</event>
<event>
 4    1  0.8114601E-008  0.8980763E+03  0.7818608E-02  0.9529127E-01
          1   -1    0    0  501    0  0.00000000000E+00  0.00000000000E+00  0.21228409861E+04  0.21228409861E+04  0.50400000000E-02 0. -1.
         -1   -1    0    0    0  501 -0.00000000000E+00 -0.00000000000E+00 -0.36146168680E+03  0.36146168683E+03  0.50400000000E-02 0.  1.
    8880023    1    1    2    0    0  0.46396314320E+03  0.39682372286E+03  0.15995927819E+04  0.18344585412E+04  0.65864270000E+03 0. -1.
    8880022    1    1    2    0    0 -0.46396314320E+03 -0.39682372286E+03  0.16178651738E+03  0.64984413169E+03  0.15294330000E+03 0.  0.
<mgrwt>
<rscale>  0 0.82170064E+03</rscale>
<asrwt>0</asrwt>
<pdfrwt beam="1">  1        1 0.32659093E+00 0.89807632E+03</pdfrwt>
<pdfrwt beam="2">  1       -1 0.55609488E-01 0.89807632E+03</pdfrwt>
<totfact> 0.82509080E+00</totfact>
</mgrwt>
</event>
<event>
 4    1  0.8114601E-008  0.1553718E+04  0.7818608E-02  0.8872607E-01
          1   -1    0    0  501    0  0.00000000000E+00  0.00000000000E+00  0.13958230484E+04  0.13958230484E+04  0.50400000000E-02 0. -1.
         -1   -1    0    0    0  501 -0.00000000000E+00 -0.00000000000E+00 -0.18836888987E+04  0.18836888987E+04  0.50400000000E-02 0.  1.
    8880023    1    1    2    0    0 -0.14054127400E+04  0.71019035566E+02 -0.91229721414E+03  0.18017561118E+04  0.65864270000E+03 0.  0.
    8880022    1    1    2    0    0  0.14054127400E+04 -0.71019035566E+02  0.42443136383E+03  0.14777558353E+04  0.15294330000E+03 0.  0.
<mgrwt>
<rscale>  0 0.15179450E+04</rscale>
<asrwt>0</asrwt>
<pdfrwt beam="1">  1        1 0.21474201E+00 0.15537178E+04</pdfrwt>
<pdfrwt beam="2">  1       -1 0.28979829E+00 0.15537178E+04</pdfrwt>
<totfact> 0.27986229E-01</totfact>
</mgrwt>
</event>
<event>
 4    1  0.8114601E-008  0.9853490E+03  0.7818608E-02  0.9400982E-01
          1   -1    0    0  501    0  0.00000000000E+00  0.00000000000E+00  0.25203314667E+04  0.25203314667E+04  0.50400000000E-02 0. -1.
         -1   -1    0    0    0  501 -0.00000000000E+00 -0.00000000000E+00 -0.43801077330E+03  0.43801077333E+03  0.50400000000E-02 0.  1.
    8880023    1    1    2    0    0 -0.52229616067E+03  0.51411008841E+03  0.19681453999E+04  0.22010245305E+04  0.65864270000E+03 0. -1.
    8880022    1    1    2    0    0  0.52229616067E+03 -0.51411008841E+03  0.11417529345E+03  0.75731770949E+03  0.15294330000E+03 0.  0.
<mgrwt>
<rscale>  0 0.91994941E+03</rscale>
<asrwt>0</asrwt>
<pdfrwt beam="1">  1        1 0.38774330E+00 0.98534901E+03</pdfrwt>
<pdfrwt beam="2">  1       -1 0.67386273E-01 0.98534901E+03</pdfrwt>
<totfact> 0.29874092E+00</totfact>
</mgrwt>
</event>
<event>
 4    1  0.8114601E-008  0.1564625E+04  0.7818608E-02  0.8865301E-01
          1   -1    0    0  501    0  0.00000000000E+00  0.00000000000E+00  0.21941830334E+04  0.21941830335E+04  0.50400000000E-02 0. -1.
         -1   -1    0    0    0  501 -0.00000000000E+00 -0.00000000000E+00 -0.14984835380E+04  0.14984835380E+04  0.50400000000E-02 0.  1.
    8880023    1    1    2    0    0 -0.10203905096E+04  0.98642971424E+03  0.14012433091E+04  0.21003650613E+04  0.65864270000E+03 0.  0.
    8880022    1    1    2    0    0  0.10203905096E+04 -0.98642971424E+03 -0.70554381367E+03  0.15923015102E+04  0.15294330000E+03 0.  0.
<mgrwt>
<rscale>  0 0.15291439E+04</rscale>
<asrwt>0</asrwt>
<pdfrwt beam="1">  1        1 0.33756662E+00 0.15646247E+04</pdfrwt>
<pdfrwt beam="2">  1       -1 0.23053593E+00 0.15646247E+04</pdfrwt>
<totfact> 0.19276406E-01</totfact>
</mgrwt>
</event>
<event>
 4    1  0.8114601E-008  0.6651533E+03  0.7818608E-02  0.1019405E+00
          1   -1    0    0  501    0  0.00000000000E+00  0.00000000000E+00  0.84093345305E+03  0.84093345306E+03  0.50400000000E-02 0. -1.
         -1   -1    0    0    0  501 -0.00000000000E+00 -0.00000000000E+00 -0.29353558342E+03  0.29353558346E+03  0.50400000000E-02 0.  1.
    8880023    1    1    2    0    0 -0.82093803759E+02  0.43350704663E+02  0.64849754105E+03  0.92896606139E+03  0.65864270000E+03 0.  0.
    8880022    1    1    2    0    0  0.82093803759E+02 -0.43350704663E+02 -0.10109967142E+03  0.20550297513E+03  0.15294330000E+03 0.  0.
<mgrwt>
<rscale>  0 0.47901881E+03</rscale>
<asrwt>0</asrwt>
<pdfrwt beam="1">  1        1 0.12937438E+00 0.66515328E+03</pdfrwt>
<pdfrwt beam="2">  1       -1 0.45159321E-01 0.66515328E+03</pdfrwt>
<totfact> 0.10171349E+02</totfact>
</mgrwt>
</event>
<event>
 4    1  0.8114601E-008  0.7093810E+03  0.7818608E-02  0.9960307E-01
         -1   -1    0    0    0  501 -0.00000000000E+00  0.00000000000E+00  0.17758126254E+03  0.17758126261E+03  0.50400000000E-02 0.  1.
          1   -1    0    0  501    0  0.00000000000E+00 -0.00000000000E+00 -0.22919790316E+04  0.22919790316E+04  0.50400000000E-02 0. -1.
    8880023    1    1    2    0    0  0.26025345460E+03 -0.40979492032E+02 -0.20344939129E+04  0.21546198893E+04  0.65864270000E+03 0. -1.
    8880022    1    1    2    0    0 -0.26025345460E+03  0.40979492032E+02 -0.79903856116E+02  0.31494040489E+03  0.15294330000E+03 0.  0.
<mgrwt>
<rscale>  0 0.57425504E+03</rscale>
<asrwt>0</asrwt>
<pdfrwt beam="1">  1        1 0.35261214E+00 0.70938099E+03</pdfrwt>
<pdfrwt beam="2">  1       -1 0.27320196E-01 0.70938099E+03</pdfrwt>
<totfact> 0.23766956E+01</totfact>
</mgrwt>
</event>
<event>
 4    1  0.8114601E-008  0.1209814E+04  0.7818608E-02  0.9147641E-01
          1   -1    0    0  501    0  0.00000000000E+00  0.00000000000E+00  0.12452815490E+04  0.12452815490E+04  0.50400000000E-02 0. -1.
         -1   -1    0    0    0  501 -0.00000000000E+00 -0.00000000000E+00 -0.11699901056E+04  0.11699901056E+04  0.50400000000E-02 0.  1.
    8880023    1    1    2    0    0 -0.86505009604E+03  0.53059203833E+03  0.49411675019E+03  0.13068286609E+04  0.65864270000E+03 0.  0.
    8880022    1    1    2    0    0  0.86505009604E+03 -0.53059203833E+03 -0.41882530683E+03  0.11084429938E+04  0.15294330000E+03 0.  0.
<mgrwt>
<rscale>  0 0.11610593E+04</rscale>
<asrwt>0</asrwt>
<pdfrwt beam="1">  1        1 0.19158178E+00 0.12098139E+04</pdfrwt>
<pdfrwt beam="2">  1       -1 0.17999848E+00 0.12098139E+04</pdfrwt>
<totfact> 0.20183133E+00</totfact>
</mgrwt>
</event>
<event>
 4    1  0.8114601E-008  0.6674650E+03  0.7818608E-02  0.1017549E+00
          1   -1    0    0  501    0  0.00000000000E+00  0.00000000000E+00  0.14923545511E+04  0.14923545511E+04  0.50400000000E-02 0. -1.
         -1   -1    0    0    0  501 -0.00000000000E+00 -0.00000000000E+00 -0.20323949166E+03  0.20323949172E+03  0.50400000000E-02 0.  1.
    8880023    1    1    2    0    0  0.94865709363E+02  0.51960345693E+02  0.13438113454E+04  0.15004461065E+04  0.65864270000E+03 0. -1.
    8880022    1    1    2    0    0 -0.94865709363E+02 -0.51960345693E+02 -0.54696285939E+02  0.19514793631E+03  0.15294330000E+03 0.  0.
<mgrwt>
<rscale>  0 0.48581499E+03</rscale>
<asrwt>0</asrwt>
<pdfrwt beam="1">  1        1 0.22959301E+00 0.66746505E+03</pdfrwt>
<pdfrwt beam="2">  1       -1 0.31267613E-01 0.66746505E+03</pdfrwt>
<totfact> 0.65018763E+01</totfact>
</mgrwt>
</event>
<event>
 4    1  0.8114601E-008  0.7389550E+03  0.7818608E-02  0.9863002E-01
         -1   -1    0    0    0  501 -0.00000000000E+00  0.00000000000E+00  0.12476674328E+04  0.12476674328E+04  0.50400000000E-02 0.  1.
          1   -1    0    0  501    0  0.00000000000E+00 -0.00000000000E+00 -0.36588711449E+03  0.36588711452E+03  0.50400000000E-02 0. -1.
    8880023    1    1    2    0    0 -0.27037249657E+03  0.19784589627E+03  0.95248407042E+02  0.74506828605E+03  0.65864270000E+03 0. -1.
    8880022    1    1    2    0    0  0.27037249657E+03 -0.19784589627E+03  0.78653191129E+03  0.86848626130E+03  0.15294330000E+03 0.  0.
<mgrwt>
<rscale>  0 0.62088382E+03</rscale>
<asrwt>0</asrwt>
<pdfrwt beam="1">  1        1 0.56290325E-01 0.73895500E+03</pdfrwt>
<pdfrwt beam="2">  1       -1 0.19194884E+00 0.73895500E+03</pdfrwt>
<totfact> 0.11925502E+01</totfact>
</mgrwt>
</event>
<event>
 4    1  0.8114601E-008  0.8337271E+03  0.7818608E-02  0.9642124E-01
          1   -1    0    0  501    0  0.00000000000E+00  0.00000000000E+00  0.15055054135E+04  0.15055054135E+04  0.50400000000E-02 0. -1.
         -1   -1    0    0    0  501 -0.00000000000E+00 -0.00000000000E+00 -0.45931490332E+03  0.45931490334E+03  0.50400000000E-02 0.  1.
    8880023    1    1    2    0    0  0.29197763288E+03  0.41957096547E+03  0.11508350949E+04  0.14210989955E+04  0.65864270000E+03 0. -1.
    8880022    1    1    2    0    0 -0.29197763288E+03 -0.41957096547E+03 -0.10464458470E+03  0.54372132135E+03  0.15294330000E+03 0.  0.
<mgrwt>
<rscale>  0 0.74569809E+03</rscale>
<asrwt>0</asrwt>
<pdfrwt beam="1">  1        1 0.23161622E+00 0.83372714E+03</pdfrwt>
<pdfrwt beam="2">  1       -1 0.70663832E-01 0.83372714E+03</pdfrwt>
<totfact> 0.13453643E+01</totfact>
</mgrwt>
</event>
<event>
 4    1  0.8114601E-008  0.9499626E+03  0.7818608E-02  0.9450168E-01
          1   -1    0    0  501    0  0.00000000000E+00  0.00000000000E+00  0.25354219224E+04  0.25354219224E+04  0.50400000000E-02 0. -1.
         -1   -1    0    0    0  501 -0.00000000000E+00 -0.00000000000E+00 -0.34847016704E+03  0.34847016707E+03  0.50400000000E-02 0.  1.
    8880023    1    1    2    0    0  0.24431470684E+03  0.63947564181E+03  0.53748129992E+03  0.10914738322E+04  0.65864270000E+03 0.  0.
    8880022    1    1    2    0    0 -0.24431470684E+03 -0.63947564181E+03  0.16494704554E+04  0.17924182572E+04  0.15294330000E+03 0.  0.
<mgrwt>
<rscale>  0 0.88059593E+03</rscale>
<asrwt>0</asrwt>
<pdfrwt beam="1">  1        1 0.39006492E+00 0.94996262E+03</pdfrwt>
<pdfrwt beam="2">  1       -1 0.53610793E-01 0.94996262E+03</pdfrwt>
<totfact> 0.46123112E+00</totfact>
</mgrwt>
</event>
<event>
 4    1  0.8114601E-008  0.7768035E+03  0.7818608E-02  0.9763400E-01
         -1   -1    0    0    0  501 -0.00000000000E+00  0.00000000000E+00  0.70080389502E+03  0.70080389504E+03  0.50400000000E-02 0.  1.
          1   -1    0    0  501    0  0.00000000000E+00 -0.00000000000E+00 -0.17709083218E+04  0.17709083218E+04  0.50400000000E-02 0. -1.
    8880023    1    1    2    0    0  0.30993079649E+03  0.27121272188E+03 -0.16028635828E+04  0.17811780681E+04  0.65864270000E+03 0. -1.
    8880022    1    1    2    0    0 -0.30993079649E+03 -0.27121272188E+03  0.53275915605E+03  0.69053414868E+03  0.15294330000E+03 0.  0.
<mgrwt>
<rscale>  0 0.67364248E+03</rscale>
<asrwt>0</asrwt>
<pdfrwt beam="1">  1        1 0.27244743E+00 0.77680348E+03</pdfrwt>
<pdfrwt beam="2">  1       -1 0.10781598E+00 0.77680348E+03</pdfrwt>
<totfact> 0.35580638E+00</totfact>
</mgrwt>
</event>
<event>
 4    1  0.8114601E-008  0.7155766E+03  0.7818608E-02  0.9937847E-01
          1   -1    0    0  501    0  0.00000000000E+00  0.00000000000E+00  0.91064286297E+03  0.91064286299E+03  0.50400000000E-02 0. -1.
         -1   -1    0    0    0  501 -0.00000000000E+00 -0.00000000000E+00 -0.11627239165E+04  0.11627239165E+04  0.50400000000E-02 0.  1.
    8880023    1    1    2    0    0 -0.10925191578E+03 -0.25749510980E+03  0.74115456484E+03  0.10302232806E+04  0.65864270000E+03 0. -1.
    8880022    1    1    2    0    0  0.10925191578E+03  0.25749510980E+03 -0.99323561832E+03  0.10431434988E+04  0.15294330000E+03 0.  0.
<mgrwt>
<rscale>  0 0.58461585E+03</rscale>
<asrwt>0</asrwt>
<pdfrwt beam="1">  1        1 0.14009890E+00 0.71557663E+03</pdfrwt>
<pdfrwt beam="2">  1       -1 0.17888060E+00 0.71557663E+03</pdfrwt>
<totfact> 0.39468441E+00</totfact>
</mgrwt>
</event>
<event>
 4    1  0.8114601E-008  0.7691995E+03  0.7818608E-02  0.9781848E-01
         -1   -1    0    0    0  501 -0.00000000000E+00  0.00000000000E+00  0.26757239098E+03  0.26757239103E+03  0.50400000000E-02 0.  1.
          1   -1    0    0  501    0  0.00000000000E+00 -0.00000000000E+00 -0.20371273190E+04  0.20371273190E+04  0.50400000000E-02 0. -1.
    8880023    1    1    2    0    0 -0.14913447373E+03  0.36826158782E+03 -0.17097185395E+04  0.18747814216E+04  0.65864270000E+03 0.  0.
    8880022    1    1    2    0    0  0.14913447373E+03 -0.36826158782E+03 -0.59836388543E+02  0.42991828843E+03  0.15294330000E+03 0.  0.
<mgrwt>
<rscale>  0 0.66345857E+03</rscale>
<asrwt>0</asrwt>
<pdfrwt beam="1">  1        1 0.31340419E+00 0.76919952E+03</pdfrwt>
<pdfrwt beam="2">  1       -1 0.41164985E-01 0.76919952E+03</pdfrwt>
<totfact> 0.16893743E+01</totfact>
</mgrwt>
</event>
<event>
 4    1  0.8114601E-008  0.8066054E+03  0.7818608E-02  0.9696692E-01
          1   -1    0    0  501    0  0.00000000000E+00  0.00000000000E+00  0.14715508051E+04  0.14715508051E+04  0.50400000000E-02 0. -1.
         -1   -1    0    0    0  501 -0.00000000000E+00 -0.00000000000E+00 -0.11127793464E+04  0.11127793464E+04  0.50400000000E-02 0.  1.
    8880023    1    1    2    0    0  0.21790270362E+03  0.41148575269E+03  0.12961077347E+04  0.15266000063E+04  0.65864270000E+03 0.  0.
    8880022    1    1    2    0    0 -0.21790270362E+03 -0.41148575269E+03 -0.93733627597E+03  0.10577301452E+04  0.15294330000E+03 0.  0.
<mgrwt>
<rscale>  0 0.71214113E+03</rscale>
<asrwt>0</asrwt>
<pdfrwt beam="1">  1        1 0.22639243E+00 0.80660543E+03</pdfrwt>
<pdfrwt beam="2">  1       -1 0.17119682E+00 0.80660543E+03</pdfrwt>
<totfact> 0.17121757E+00</totfact>
</mgrwt>
</event>
<event>
 4    1  0.8114601E-008  0.1162292E+04  0.7818608E-02  0.9194678E-01
         -1   -1    0    0    0  501 -0.00000000000E+00  0.00000000000E+00  0.10737226187E+04  0.10737226188E+04  0.50400000000E-02 0.  1.
          1   -1    0    0  501    0  0.00000000000E+00 -0.00000000000E+00 -0.14763896285E+04  0.14763896285E+04  0.50400000000E-02 0. -1.
    8880023    1    1    2    0    0 -0.54712624945E+03  0.78598051295E+03 -0.89080346247E+03  0.14643952727E+04  0.65864270000E+03 0.  0.
    8880022    1    1    2    0    0  0.54712624945E+03 -0.78598051295E+03  0.48813645268E+03  0.10857169746E+04  0.15294330000E+03 0.  0.
<mgrwt>
<rscale>  0 0.11108528E+04</rscale>
<asrwt>0</asrwt>
<pdfrwt beam="1">  1        1 0.22713687E+00 0.11622920E+04</pdfrwt>
<pdfrwt beam="2">  1       -1 0.16518809E+00 0.11622920E+04</pdfrwt>
<totfact> 0.17870930E+00</totfact>
</mgrwt>
</event>
<event>
 4    1  0.9404106E-008  0.6634561E+03  0.7818608E-02  0.1020865E+00
         -1   -1    0    0    0  501 -0.00000000000E+00  0.00000000000E+00  0.88055959288E+03  0.88055959290E+03  0.50400000000E-02 0.  1.
          1   -1    0    0  501    0  0.00000000000E+00 -0.00000000000E+00 -0.11295908552E+04  0.11295908552E+04  0.50400000000E-02 0. -1.
    8880023    1    1    2    0    0  0.79679356461E+02  0.38790901303E+01 -0.10218361009E+04  0.12183279815E+04  0.65864270000E+03 0. -1.
    8880022    1    1    2    0    0 -0.79679356461E+02 -0.38790901303E+01  0.77280483854E+03  0.79182246663E+03  0.15294330000E+03 0.  0.
<mgrwt>
<rscale>  0 0.47375638E+03</rscale>
<asrwt>0</asrwt>
<pdfrwt beam="1">  1        1 0.17378321E+00 0.66345614E+03</pdfrwt>
<pdfrwt beam="2">  1       -1 0.13547071E+00 0.66345614E+03</pdfrwt>
<totfact> 0.57846463E+00</totfact>
</mgrwt>
</event>
<event>
 4    1  0.8114601E-008  0.1282610E+04  0.7818608E-02  0.9080724E-01
         -1   -1    0    0    0  501 -0.00000000000E+00  0.00000000000E+00  0.20299216380E+04  0.20299216381E+04  0.50400000000E-02 0.  1.
          1   -1    0    0  501    0  0.00000000000E+00 -0.00000000000E+00 -0.92165314928E+03  0.92165314930E+03  0.50400000000E-02 0. -1.
    8880023    1    1    2    0    0 -0.10720804184E+04  0.24884272297E+03 -0.12842296131E+03  0.12890235791E+04  0.65864270000E+03 0.  0.
    8880022    1    1    2    0    0  0.10720804184E+04 -0.24884272297E+03  0.12366914501E+04  0.16625512082E+04  0.15294330000E+03 0.  0.
<mgrwt>
<rscale>  0 0.12374138E+04</rscale>
<asrwt>0</asrwt>
<pdfrwt beam="1">  1        1 0.14179279E+00 0.12826104E+04</pdfrwt>
<pdfrwt beam="2">  1       -1 0.31229564E+00 0.12826104E+04</pdfrwt>
<totfact> 0.46873030E-01</totfact>
</mgrwt>
</event>
<event>
 4    1  0.8961736E-008  0.7174546E+03  0.7818608E-02  0.9931295E-01
         -1   -1    0    0    0  501 -0.00000000000E+00  0.00000000000E+00  0.11338613714E+04  0.11338613714E+04  0.50400000000E-02 0.  1.
          1   -1    0    0  501    0  0.00000000000E+00 -0.00000000000E+00 -0.14552014823E+04  0.14552014823E+04  0.50400000000E-02 0. -1.
    8880023    1    1    2    0    0  0.23549453041E+02  0.28350728525E+03 -0.13402412268E+04  0.15201933133E+04  0.65864270000E+03 0. -1.
    8880022    1    1    2    0    0 -0.23549453041E+02 -0.28350728525E+03  0.10189011158E+04  0.10688695404E+04  0.15294330000E+03 0.  0.
<mgrwt>
<rscale>  0 0.58768302E+03</rscale>
<asrwt>0</asrwt>
<pdfrwt beam="1">  1        1 0.22387715E+00 0.71745464E+03</pdfrwt>
<pdfrwt beam="2">  1       -1 0.17444021E+00 0.71745464E+03</pdfrwt>
<totfact> 0.16927160E+00</totfact>
</mgrwt>
</event>
<event>
 4    1  0.8114601E-008  0.8648363E+03  0.7818608E-02  0.9585018E-01
          1   -1    0    0  501    0  0.00000000000E+00  0.00000000000E+00  0.21057621091E+04  0.21057621091E+04  0.50400000000E-02 0. -1.
         -1   -1    0    0    0  501 -0.00000000000E+00 -0.00000000000E+00 -0.51320576393E+03  0.51320576395E+03  0.50400000000E-02 0.  1.
    8880023    1    1    2    0    0 -0.55519302436E+03 -0.76760922782E+02  0.18041042782E+04  0.20006833798E+04  0.65864270000E+03 0. -1.
    8880022    1    1    2    0    0  0.55519302436E+03  0.76760922782E+02 -0.21154793301E+03  0.61828449321E+03  0.15294330000E+03 0.  0.
<mgrwt>
<rscale>  0 0.78295782E+03</rscale>
<asrwt>0</asrwt>
<pdfrwt beam="1">  1        1 0.32396341E+00 0.86483625E+03</pdfrwt>
<pdfrwt beam="2">  1       -1 0.78954732E-01 0.86483625E+03</pdfrwt>
<totfact> 0.41832825E+00</totfact>
</mgrwt>
</event>
<event>
 4    1  0.8114601E-008  0.7739610E+03  0.7818608E-02  0.9770219E-01
         -1   -1    0    0    0  501 -0.00000000000E+00  0.00000000000E+00  0.42497751836E+03  0.42497751839E+03  0.50400000000E-02 0.  1.
          1   -1    0    0  501    0  0.00000000000E+00 -0.00000000000E+00 -0.16046944345E+04  0.16046944345E+04  0.50400000000E-02 0. -1.
    8880023    1    1    2    0    0  0.31007452020E+03  0.26279124506E+03 -0.13557180685E+04  0.15610852424E+04  0.65864270000E+03 0. -1.
    8880022    1    1    2    0    0 -0.31007452020E+03 -0.26279124506E+03  0.17600115239E+03  0.46858671046E+03  0.15294330000E+03 0.  0.
<mgrwt>
<rscale>  0 0.66985560E+03</rscale>
<asrwt>0</asrwt>
<pdfrwt beam="1">  1        1 0.24687606E+00 0.77396102E+03</pdfrwt>
<pdfrwt beam="2">  1       -1 0.65381158E-01 0.77396102E+03</pdfrwt>
<totfact> 0.13591481E+01</totfact>
</mgrwt>
</event>
<event>
 4    1  0.8114601E-008  0.7617735E+03  0.7818608E-02  0.9800538E-01
         -1   -1    0    0    0  501 -0.00000000000E+00  0.00000000000E+00  0.40597312666E+03  0.40597312669E+03  0.50400000000E-02 0.  1.
          1   -1    0    0  501    0  0.00000000000E+00 -0.00000000000E+00 -0.18224269443E+04  0.18224269443E+04  0.50400000000E-02 0. -1.
    8880023    1    1    2    0    0  0.38193228849E+03  0.24827161186E+02 -0.16039013797E+04  0.17756121488E+04  0.65864270000E+03 0.  0.
    8880022    1    1    2    0    0 -0.38193228849E+03 -0.24827161186E+02  0.18744756208E+03  0.45278792217E+03  0.15294330000E+03 0.  0.
<mgrwt>
<rscale>  0 0.65333704E+03</rscale>
<asrwt>0</asrwt>
<pdfrwt beam="1">  1        1 0.28037337E+00 0.76177350E+03</pdfrwt>
<pdfrwt beam="2">  1       -1 0.62457405E-01 0.76177350E+03</pdfrwt>
<totfact> 0.10646081E+01</totfact>
</mgrwt>
</event>
<event>
 4    1  0.8114601E-008  0.6837225E+03  0.7818608E-02  0.1007292E+00
         -1   -1    0    0    0  501 -0.00000000000E+00  0.00000000000E+00  0.44729509442E+03  0.44729509445E+03  0.50400000000E-02 0.  1.
          1   -1    0    0  501    0  0.00000000000E+00 -0.00000000000E+00 -0.15048201703E+04  0.15048201703E+04  0.50400000000E-02 0. -1.
    8880023    1    1    2    0    0 -0.15296944024E+03 -0.10132430260E+03 -0.13862942935E+04  0.15457322984E+04  0.65864270000E+03 0. -1.
    8880022    1    1    2    0    0  0.15296944024E+03  0.10132430260E+03  0.32876921756E+03  0.40638296639E+03  0.15294330000E+03 0.  0.
<mgrwt>
<rscale>  0 0.52565330E+03</rscale>
<asrwt>0</asrwt>
<pdfrwt beam="1">  1        1 0.23151079E+00 0.68372251E+03</pdfrwt>
<pdfrwt beam="2">  1       -1 0.68814631E-01 0.68372251E+03</pdfrwt>
<totfact> 0.14519791E+01</totfact>
</mgrwt>
</event>
<event>
 4    1  0.8114601E-008  0.7661799E+03  0.7818608E-02  0.9789363E-01
         -1   -1    0    0    0  501 -0.00000000000E+00  0.00000000000E+00  0.76621867864E+03  0.76621867865E+03  0.50400000000E-02 0.  1.
          1   -1    0    0  501    0  0.00000000000E+00 -0.00000000000E+00 -0.58096434440E+03  0.58096434443E+03  0.50400000000E-02 0. -1.
    8880023    1    1    2    0    0  0.25799069609E+03  0.29438454091E+03 -0.18376359329E+03  0.78790908211E+03  0.65864270000E+03 0. -1.
    8880022    1    1    2    0    0 -0.25799069609E+03 -0.29438454091E+03  0.36901792752E+03  0.55927394096E+03  0.15294330000E+03 0.  0.
<mgrwt>
<rscale>  0 0.65936508E+03</rscale>
<asrwt>0</asrwt>
<pdfrwt beam="1">  1        1 0.89379130E-01 0.76617992E+03</pdfrwt>
<pdfrwt beam="2">  1       -1 0.11787980E+00 0.76617992E+03</pdfrwt>
<totfact> 0.23749603E+01</totfact>
</mgrwt>
</event>
<event>
 4    1  0.8114601E-008  0.7500839E+03  0.7818608E-02  0.9831491E-01
          1   -1    0    0  501    0  0.00000000000E+00  0.00000000000E+00  0.23038144700E+04  0.23038144700E+04  0.50400000000E-02 0. -1.
         -1   -1    0    0    0  501 -0.00000000000E+00 -0.00000000000E+00 -0.32399537425E+03  0.32399537429E+03  0.50400000000E-02 0.  1.
    8880023    1    1    2    0    0  0.30275162475E+03 -0.19276183350E+03  0.20915545804E+04  0.22219870477E+04  0.65864270000E+03 0. -1.
    8880022    1    1    2    0    0 -0.30275162475E+03  0.19276183350E+03 -0.11173548466E+03  0.40582279666E+03  0.15294330000E+03 0.  0.
<mgrwt>
<rscale>  0 0.63699619E+03</rscale>
<asrwt>0</asrwt>
<pdfrwt beam="1">  1        1 0.35443298E+00 0.75008391E+03</pdfrwt>
<pdfrwt beam="2">  1       -1 0.49845444E-01 0.75008391E+03</pdfrwt>
<totfact> 0.78599416E+00</totfact>
</mgrwt>
</event>
<event>
 4    1  0.8114601E-008  0.8555232E+03  0.7818608E-02  0.9601577E-01
         -1   -1    0    0    0  501 -0.00000000000E+00  0.00000000000E+00  0.17876071248E+04  0.17876071248E+04  0.50400000000E-02 0.  1.
          1   -1    0    0  501    0  0.00000000000E+00 -0.00000000000E+00 -0.88372182110E+03  0.88372182111E+03  0.50400000000E-02 0. -1.
    8880023    1    1    2    0    0  0.21749326757E+03  0.50080573532E+03 -0.61264796343E+03  0.10522630086E+04  0.65864270000E+03 0. -1.
    8880022    1    1    2    0    0 -0.21749326757E+03 -0.50080573532E+03  0.15165332671E+04  0.16190659373E+04  0.15294330000E+03 0.  0.
<mgrwt>
<rscale>  0 0.77191892E+03</rscale>
<asrwt>0</asrwt>
<pdfrwt beam="1">  1        1 0.13595721E+00 0.85552318E+03</pdfrwt>
<pdfrwt beam="2">  1       -1 0.27501648E+00 0.85552318E+03</pdfrwt>
<totfact> 0.93044612E-01</totfact>
</mgrwt>
</event>
<event>
 4    1  0.8114601E-008  0.7767515E+03  0.7818608E-02  0.9763524E-01
          1   -1    0    0  501    0  0.00000000000E+00  0.00000000000E+00  0.25992828518E+03  0.25992828523E+03  0.50400000000E-02 0. -1.
         -1   -1    0    0    0  501 -0.00000000000E+00 -0.00000000000E+00 -0.24540310246E+04  0.24540310246E+04  0.50400000000E-02 0.  1.
    8880023    1    1    2    0    0 -0.40330838268E+03  0.82916206079E+02 -0.41344987516E+03  0.87993394883E+03  0.65864270000E+03 0. -1.
    8880022    1    1    2    0    0  0.40330838268E+03 -0.82916206079E+02 -0.17806528643E+04  0.18340253610E+04  0.15294330000E+03 0.  0.
<mgrwt>
<rscale>  0 0.67357349E+03</rscale>
<asrwt>0</asrwt>
<pdfrwt beam="1">  1        1 0.39988969E-01 0.77675154E+03</pdfrwt>
<pdfrwt beam="2">  1       -1 0.37754322E+00 0.77675154E+03</pdfrwt>
<totfact> 0.11375697E+00</totfact>
</mgrwt>
</event>
<event>
 4    1  0.8114601E-008  0.1194372E+04  0.7818608E-02  0.9162613E-01
          1   -1    0    0  501    0  0.00000000000E+00  0.00000000000E+00  0.28857938951E+04  0.28857938951E+04  0.50400000000E-02 0. -1.
         -1   -1    0    0    0  501 -0.00000000000E+00 -0.00000000000E+00 -0.42225122958E+03  0.42225122961E+03  0.50400000000E-02 0.  1.
    8880023    1    1    2    0    0  0.33460024701E+03 -0.93848616717E+03  0.12208360017E+04  0.17079122813E+04  0.65864270000E+03 0. -1.
    8880022    1    1    2    0    0 -0.33460024701E+03  0.93848616717E+03  0.12427066637E+04  0.16001328434E+04  0.15294330000E+03 0.  1.
<mgrwt>
<rscale>  0 0.11447798E+04</rscale>
<asrwt>0</asrwt>
<pdfrwt beam="1">  1        1 0.44396828E+00 0.11943717E+04</pdfrwt>
<pdfrwt beam="2">  1       -1 0.64961729E-01 0.11943717E+04</pdfrwt>
<totfact> 0.17353216E+00</totfact>
</mgrwt>
</event>
<event>
 4    1  0.8114601E-008  0.8682113E+03  0.7818608E-02  0.9579121E-01
         -1   -1    0    0    0  501 -0.00000000000E+00  0.00000000000E+00  0.19080785756E+04  0.19080785757E+04  0.50400000000E-02 0.  1.
          1   -1    0    0  501    0  0.00000000000E+00 -0.00000000000E+00 -0.72247132551E+03  0.72247132553E+03  0.50400000000E-02 0. -1.
    8880023    1    1    2    0    0 -0.37854912897E+03  0.42033454838E+03 -0.38830824794E+03  0.95109099317E+03  0.65864270000E+03 0. -1.
    8880022    1    1    2    0    0  0.37854912897E+03 -0.42033454838E+03  0.15739154981E+04  0.16794589080E+04  0.15294330000E+03 0.  0.
<mgrwt>
<rscale>  0 0.78693653E+03</rscale>
<asrwt>0</asrwt>
<pdfrwt beam="1">  1        1 0.11114944E+00 0.86821125E+03</pdfrwt>
<pdfrwt beam="2">  1       -1 0.29355055E+00 0.86821125E+03</pdfrwt>
<totfact> 0.97560341E-01</totfact>
</mgrwt>
</event>
<event>
 4    1  0.8114601E-008  0.7800123E+03  0.7818608E-02  0.9755808E-01
          1   -1    0    0  501    0  0.00000000000E+00  0.00000000000E+00  0.37567494617E+04  0.37567494617E+04  0.50400000000E-02 0. -1.
         -1   -1    0    0    0  501 -0.00000000000E+00 -0.00000000000E+00 -0.39894653832E+03  0.39894653836E+03  0.50400000000E-02 0.  1.
    8880023    1    1    2    0    0 -0.26288918167E+03  0.32480499736E+03  0.35760165805E+04  0.36600975121E+04  0.65864270000E+03 0. -1.
    8880022    1    1    2    0    0  0.26288918167E+03 -0.32480499736E+03 -0.21821365705E+03  0.49559848798E+03  0.15294330000E+03 0.  0.
<mgrwt>
<rscale>  0 0.67789031E+03</rscale>
<asrwt>0</asrwt>
<pdfrwt beam="1">  1        1 0.57796146E+00 0.78001232E+03</pdfrwt>
<pdfrwt beam="2">  1       -1 0.61376390E-01 0.78001232E+03</pdfrwt>
<totfact> 0.45704129E-01</totfact>
</mgrwt>
</event>
<event>
 4    1  0.8114601E-008  0.1189959E+04  0.7818608E-02  0.9166945E-01
          1   -1    0    0  501    0  0.00000000000E+00  0.00000000000E+00  0.34873078092E+04  0.34873078092E+04  0.50400000000E-02 0. -1.
         -1   -1    0    0    0  501 -0.00000000000E+00 -0.00000000000E+00 -0.46510482968E+03  0.46510482970E+03  0.50400000000E-02 0.  1.
    8880023    1    1    2    0    0  0.72425214784E+03  0.67649922067E+03  0.26095147892E+04  0.28680254550E+04  0.65864270000E+03 0. -1.
    8880022    1    1    2    0    0 -0.72425214784E+03 -0.67649922067E+03  0.41268819036E+03  0.10843871839E+04  0.15294330000E+03 0.  0.
<mgrwt>
<rscale>  0 0.11401220E+04</rscale>
<asrwt>0</asrwt>
<pdfrwt beam="1">  1        1 0.53650889E+00 0.11899591E+04</pdfrwt>
<pdfrwt beam="2">  1       -1 0.71554590E-01 0.11899591E+04</pdfrwt>
<totfact> 0.50833538E-01</totfact>
</mgrwt>
</event>
<event>
 4    1  0.8114601E-008  0.7327897E+03  0.7818608E-02  0.9881471E-01
         -1   -1    0    0    0  501 -0.00000000000E+00  0.00000000000E+00  0.10472542041E+04  0.10472542042E+04  0.50400000000E-02 0.  1.
          1   -1    0    0  501    0  0.00000000000E+00 -0.00000000000E+00 -0.15246299096E+04  0.15246299096E+04  0.50400000000E-02 0. -1.
    8880023    1    1    2    0    0 -0.31133677314E+03 -0.78993520351E+02 -0.14015741586E+04  0.15815786072E+04  0.65864270000E+03 0.  0.
    8880022    1    1    2    0    0  0.31133677314E+03  0.78993520351E+02  0.92419845311E+03  0.99030550655E+03  0.15294330000E+03 0.  0.
<mgrwt>
<rscale>  0 0.61167754E+03</rscale>
<asrwt>0</asrwt>
<pdfrwt beam="1">  1        1 0.23455845E+00 0.73278972E+03</pdfrwt>
<pdfrwt beam="2">  1       -1 0.16111603E+00 0.73278972E+03</pdfrwt>
<totfact> 0.18953524E+00</totfact>
</mgrwt>
</event>
<event>
 4    1  0.8114601E-008  0.1047269E+04  0.7818608E-02  0.9322172E-01
         -1   -1    0    0    0  501 -0.00000000000E+00  0.00000000000E+00  0.63761351072E+03  0.63761351074E+03  0.50400000000E-02 0.  1.
          1   -1    0    0  501    0  0.00000000000E+00 -0.00000000000E+00 -0.15786775657E+04  0.15786775657E+04  0.50400000000E-02 0. -1.
    8880023    1    1    2    0    0 -0.80910653228E+03  0.91147197611E+02 -0.90975316420E+03  0.13872354588E+04  0.65864270000E+03 0.  0.
    8880022    1    1    2    0    0  0.80910653228E+03 -0.91147197611E+02 -0.31310890781E+02  0.82905561762E+03  0.15294330000E+03 0.  0.
<mgrwt>
<rscale>  0 0.98767025E+03</rscale>
<asrwt>0</asrwt>
<pdfrwt beam="1">  1        1 0.24287347E+00 0.10472685E+04</pdfrwt>
<pdfrwt beam="2">  1       -1 0.98094387E-01 0.10472685E+04</pdfrwt>
<totfact> 0.57523758E+00</totfact>
</mgrwt>
</event>
<event>
 4    1  0.8114601E-008  0.7976653E+03  0.7818608E-02  0.9715867E-01
         -1   -1    0    0    0  501 -0.00000000000E+00  0.00000000000E+00  0.74730044017E+03  0.74730044019E+03  0.50400000000E-02 0.  1.
          1   -1    0    0  501    0  0.00000000000E+00 -0.00000000000E+00 -0.12125151757E+04  0.12125151757E+04  0.50400000000E-02 0. -1.
    8880023    1    1    2    0    0 -0.26198877183E+03  0.36581630542E+03 -0.97709127476E+03  0.12613394671E+04  0.65864270000E+03 0.  1.
    8880022    1    1    2    0    0  0.26198877183E+03 -0.36581630542E+03  0.51187653927E+03  0.69847614873E+03  0.15294330000E+03 0.  0.
<mgrwt>
<rscale>  0 0.70079880E+03</rscale>
<asrwt>0</asrwt>
<pdfrwt beam="1">  1        1 0.18654080E+00 0.79766528E+03</pdfrwt>
<pdfrwt beam="2">  1       -1 0.11496930E+00 0.79766528E+03</pdfrwt>
<totfact> 0.73955621E+00</totfact>
</mgrwt>
</event>
<event>
 4    1  0.8114601E-008  0.2211608E+04  0.7818608E-02  0.8523644E-01
          1   -1    0    0  501    0  0.00000000000E+00  0.00000000000E+00  0.22654202174E+04  0.22654202174E+04  0.50400000000E-02 0. -1.
         -1   -1    0    0    0  501 -0.00000000000E+00 -0.00000000000E+00 -0.21091680627E+04  0.21091680627E+04  0.50400000000E-02 0.  1.
    8880023    1    1    2    0    0  0.20300453054E+04  0.57992667054E+03 -0.22756573325E+03  0.22232847894E+04  0.65864270000E+03 0.  0.
    8880022    1    1    2    0    0 -0.20300453054E+04 -0.57992667054E+03  0.38381788793E+03  0.21513034908E+04  0.15294330000E+03 0.  0.
<mgrwt>
<rscale>  0 0.21875119E+04</rscale>
<asrwt>0</asrwt>
<pdfrwt beam="1">  1        1 0.34852619E+00 0.22116078E+04</pdfrwt>
<pdfrwt beam="2">  1       -1 0.32448739E+00 0.22116078E+04</pdfrwt>
<totfact> 0.39119800E-02</totfact>
</mgrwt>
</event>
<event>
 4    1  0.8114601E-008  0.1117099E+04  0.7818608E-02  0.9242253E-01
         -1   -1    0    0    0  501 -0.00000000000E+00  0.00000000000E+00  0.50564099697E+03  0.50564099699E+03  0.50400000000E-02 0.  1.
          1   -1    0    0  501    0  0.00000000000E+00 -0.00000000000E+00 -0.28956382949E+04  0.28956382949E+04  0.50400000000E-02 0. -1.
    8880023    1    1    2    0    0 -0.45247713904E+03 -0.78061849214E+03 -0.21989079237E+04  0.24663955593E+04  0.65864270000E+03 0.  0.
    8880022    1    1    2    0    0  0.45247713904E+03  0.78061849214E+03 -0.19108937427E+03  0.93488373266E+03  0.15294330000E+03 0.  0.
<mgrwt>
<rscale>  0 0.10627753E+04</rscale>
<asrwt>0</asrwt>
<pdfrwt beam="1">  1        1 0.44548280E+00 0.11170994E+04</pdfrwt>
<pdfrwt beam="2">  1       -1 0.77790924E-01 0.11170994E+04</pdfrwt>
<totfact> 0.11876869E+00</totfact>
</mgrwt>
</event>
<event>
 4    1  0.8114601E-008  0.1493668E+04  0.7818608E-02  0.8914120E-01
          1   -1    0    0  501    0  0.00000000000E+00  0.00000000000E+00  0.18069968008E+04  0.18069968008E+04  0.50400000000E-02 0. -1.
         -1   -1    0    0    0  501 -0.00000000000E+00 -0.00000000000E+00 -0.16743842577E+04  0.16743842577E+04  0.50400000000E-02 0.  1.
    8880023    1    1    2    0    0  0.12536459216E+04  0.47498061003E+03  0.10709064682E+04  0.18379024856E+04  0.65864270000E+03 0.  0.
    8880022    1    1    2    0    0 -0.12536459216E+04 -0.47498061003E+03 -0.93829392507E+03  0.16434785729E+04  0.15294330000E+03 0.  0.
<mgrwt>
<rscale>  0 0.14561906E+04</rscale>
<asrwt>0</asrwt>
<pdfrwt beam="1">  1        1 0.27799951E+00 0.14936683E+04</pdfrwt>
<pdfrwt beam="2">  1       -1 0.25759758E+00 0.14936683E+04</pdfrwt>
<totfact> 0.23675923E-01</totfact>
</mgrwt>
</event>
<event>
 4    1  0.8114601E-008  0.9363858E+03  0.7818608E-02  0.9469979E-01
          1   -1    0    0  501    0  0.00000000000E+00  0.00000000000E+00  0.16730010113E+04  0.16730010114E+04  0.50400000000E-02 0. -1.
         -1   -1    0    0    0  501 -0.00000000000E+00 -0.00000000000E+00 -0.71220664270E+03  0.71220664271E+03  0.50400000000E-02 0.  1.
    8880023    1    1    2    0    0  0.46816451885E+03 -0.47310696637E+03  0.13162211307E+04  0.16153193151E+04  0.65864270000E+03 0. -1.
    8880022    1    1    2    0    0 -0.46816451885E+03  0.47310696637E+03 -0.35542676208E+03  0.76988833902E+03  0.15294330000E+03 0.  0.
<mgrwt>
<rscale>  0 0.86533830E+03</rscale>
<asrwt>0</asrwt>
<pdfrwt beam="1">  1        1 0.25738477E+00 0.93638583E+03</pdfrwt>
<pdfrwt beam="2">  1       -1 0.10957025E+00 0.93638583E+03</pdfrwt>
<totfact> 0.38910219E+00</totfact>
</mgrwt>
</event>
