<event>
 4    1  0.4639964E-008  0.2045362E+03  0.7818608E-02  0.1145967E+00
         -2   -1    0    0    0  501 -0.00000000000E+00  0.00000000000E+00  0.58700683734E+02  0.58700683789E+02  0.25500000000E-02 0.  1.
          2   -1    0    0  501    0  0.00000000000E+00 -0.00000000000E+00 -0.90788759549E+03  0.90788759550E+03  0.25500000000E-02 0. -1.
    8880022    1    1    2    0    0  0.66587250650E+02 -0.11836198284E+03 -0.20049507692E+03  0.28641464665E+03  0.15294330000E+03 0.  0.
    8880022    1    1    2    0    0 -0.66587250650E+02  0.11836198284E+03 -0.64869183484E+03  0.68017363264E+03  0.15294330000E+03 0.  0.
<mgrwt>
<rscale>  0 0.20453624E+03</rscale>
<asrwt>0</asrwt>
<pdfrwt beam="1">  1        2 0.13967500E+00 0.20453624E+03</pdfrwt>
<pdfrwt beam="2">  1       -2 0.90308751E-02 0.20453624E+03</pdfrwt>
<totfact> 0.23324461E+03</totfact>
</mgrwt>
</event>
<event>
 4    1  0.4639964E-008  0.3379823E+03  0.7818608E-02  0.1067659E+00
          2   -1    0    0  501    0  0.00000000000E+00  0.00000000000E+00  0.84595327099E+03  0.84595327100E+03  0.25500000000E-02 0. -1.
         -2   -1    0    0    0  501 -0.00000000000E+00 -0.00000000000E+00 -0.19817778950E+03  0.19817778951E+03  0.25500000000E-02 0.  1.
    8880022    1    1    2    0    0  0.22008318597E+03 -0.20592183749E+03  0.61857708494E+03  0.70488983177E+03  0.15294330000E+03 0. -1.
    8880022    1    1    2    0    0 -0.22008318597E+03  0.20592183749E+03  0.29198396558E+02  0.33924122874E+03  0.15294330000E+03 0.  0.
<mgrwt>
<rscale>  0 0.33798234E+03</rscale>
<asrwt>0</asrwt>
<pdfrwt beam="1">  1        2 0.13014666E+00 0.33798234E+03</pdfrwt>
<pdfrwt beam="2">  1       -2 0.30488890E-01 0.33798234E+03</pdfrwt>
<totfact> 0.32798596E+02</totfact>
</mgrwt>
</event>
<event>
 4    1  0.4639964E-008  0.3279518E+03  0.7818608E-02  0.1072047E+00
         -2   -1    0    0    0  501 -0.00000000000E+00  0.00000000000E+00  0.50762101366E+02  0.50762101430E+02  0.25500000000E-02 0.  1.
          2   -1    0    0  501    0  0.00000000000E+00 -0.00000000000E+00 -0.24713181361E+04  0.24713181361E+04  0.25500000000E-02 0. -1.
    8880022    1    1    2    0    0 -0.16457835013E+03  0.23890317061E+03 -0.73397473969E+03  0.80391002592E+03  0.15294330000E+03 0.  1.
    8880022    1    1    2    0    0  0.16457835013E+03 -0.23890317061E+03 -0.16865812950E+04  0.17181702116E+04  0.15294330000E+03 0. -1.
<mgrwt>
<rscale>  0 0.32795184E+03</rscale>
<asrwt>0</asrwt>
<pdfrwt beam="1">  1        2 0.38020270E+00 0.32795184E+03</pdfrwt>
<pdfrwt beam="2">  1       -2 0.78095560E-02 0.32795184E+03</pdfrwt>
<totfact> 0.40402916E+02</totfact>
</mgrwt>
</event>
<event>
 4    1  0.4639964E-008  0.1401798E+04  0.7818608E-02  0.8952518E-01
          2   -1    0    0  501    0  0.00000000000E+00  0.00000000000E+00  0.21255246384E+04  0.21255246384E+04  0.25500000000E-02 0. -1.
         -2   -1    0    0    0  501 -0.00000000000E+00 -0.00000000000E+00 -0.13985528336E+04  0.13985528336E+04  0.25500000000E-02 0.  1.
    8880022    1    1    2    0    0  0.33291599682E+03 -0.13530750950E+04  0.13893543463E+04  0.19736621864E+04  0.15294330000E+03 0.  0.
    8880022    1    1    2    0    0 -0.33291599682E+03  0.13530750950E+04 -0.66238254148E+03  0.15504152856E+04  0.15294330000E+03 0.  0.
<mgrwt>
<rscale>  0 0.14017977E+04</rscale>
<asrwt>0</asrwt>
<pdfrwt beam="1">  1        2 0.32700379E+00 0.14017977E+04</pdfrwt>
<pdfrwt beam="2">  1       -2 0.21516198E+00 0.14017977E+04</pdfrwt>
<totfact> 0.57218540E-01</totfact>
</mgrwt>
</event>
<event>
 4    1  0.4639964E-008  0.6590349E+03  0.7818608E-02  0.9789972E-01
         -2   -1    0    0    0  501 -0.00000000000E+00  0.00000000000E+00  0.61981960320E+03  0.61981960320E+03  0.25500000000E-02 0.  1.
          2   -1    0    0  501    0  0.00000000000E+00 -0.00000000000E+00 -0.28812862531E+04  0.28812862531E+04  0.25500000000E-02 0. -1.
    8880022    1    1    2    0    0 -0.19270864251E+03  0.61139082745E+03 -0.26536128834E+04  0.27342253661E+04  0.15294330000E+03 0.  0.
    8880022    1    1    2    0    0  0.19270864251E+03 -0.61139082745E+03  0.39214623348E+03  0.76688049019E+03  0.15294330000E+03 0.  0.
<mgrwt>
<rscale>  0 0.65903491E+03</rscale>
<asrwt>0</asrwt>
<pdfrwt beam="1">  1        2 0.44327480E+00 0.65903491E+03</pdfrwt>
<pdfrwt beam="2">  1       -2 0.95356864E-01 0.65903491E+03</pdfrwt>
<totfact> 0.20680009E+00</totfact>
</mgrwt>
</event>
<event>
 4    1  0.4639964E-008  0.7785578E+03  0.7818608E-02  0.9591583E-01
         -2   -1    0    0    0  501 -0.00000000000E+00  0.00000000000E+00  0.74662908217E+03  0.74662908217E+03  0.25500000000E-02 0.  1.
          2   -1    0    0  501    0  0.00000000000E+00 -0.00000000000E+00 -0.23860872760E+04  0.23860872760E+04  0.25500000000E-02 0. -1.
    8880022    1    1    2    0    0  0.24554777042E+03  0.72281873459E+03 -0.20920092203E+04  0.22321861171E+04  0.15294330000E+03 0.  0.
    8880022    1    1    2    0    0 -0.24554777042E+03 -0.72281873459E+03  0.45255102641E+03  0.90053024111E+03  0.15294330000E+03 0.  0.
<mgrwt>
<rscale>  0 0.77855782E+03</rscale>
<asrwt>0</asrwt>
<pdfrwt beam="1">  1        2 0.36709035E+00 0.77855782E+03</pdfrwt>
<pdfrwt beam="2">  1       -2 0.11486601E+00 0.77855782E+03</pdfrwt>
<totfact> 0.24940423E+00</totfact>
</mgrwt>
</event>
<event>
 4    1  0.4639964E-008  0.5758730E+03  0.7818608E-02  0.9956766E-01
         -2   -1    0    0    0  501 -0.00000000000E+00  0.00000000000E+00  0.72601398934E+03  0.72601398935E+03  0.25500000000E-02 0.  1.
          2   -1    0    0  501    0  0.00000000000E+00 -0.00000000000E+00 -0.19611177775E+04  0.19611177775E+04  0.25500000000E-02 0. -1.
    8880022    1    1    2    0    0  0.44005592686E+03 -0.33850968720E+03  0.55918564815E+03  0.80269438095E+03  0.15294330000E+03 0.  0.
    8880022    1    1    2    0    0 -0.44005592686E+03  0.33850968720E+03 -0.17942894364E+04  0.18844373859E+04  0.15294330000E+03 0.  0.
<mgrwt>
<rscale>  0 0.57587297E+03</rscale>
<asrwt>0</asrwt>
<pdfrwt beam="1">  1        2 0.30171042E+00 0.57587297E+03</pdfrwt>
<pdfrwt beam="2">  1       -2 0.11169446E+00 0.57587297E+03</pdfrwt>
<totfact> 0.47573307E+00</totfact>
</mgrwt>
</event>
<event>
 4    1  0.4639964E-008  0.2545763E+03  0.7818608E-02  0.1110446E+00
          2   -1    0    0  501    0  0.00000000000E+00  0.00000000000E+00  0.51388361209E+03  0.51388361209E+03  0.25500000000E-02 0. -1.
         -2   -1    0    0    0  501 -0.00000000000E+00 -0.00000000000E+00 -0.21433964501E+03  0.21433964502E+03  0.25500000000E-02 0.  1.
    8880022    1    1    2    0    0  0.16462168069E+03  0.11965420459E+03  0.38337322856E+03  0.46020007803E+03  0.15294330000E+03 0.  0.
    8880022    1    1    2    0    0 -0.16462168069E+03 -0.11965420459E+03 -0.83829261483E+02  0.26802317908E+03  0.15294330000E+03 0.  0.
<mgrwt>
<rscale>  0 0.25457627E+03</rscale>
<asrwt>0</asrwt>
<pdfrwt beam="1">  1        2 0.79059016E-01 0.25457627E+03</pdfrwt>
<pdfrwt beam="2">  1       -2 0.32975331E-01 0.25457627E+03</pdfrwt>
<totfact> 0.52114363E+02</totfact>
</mgrwt>
</event>
<event>
 4    1  0.4639964E-008  0.6417970E+03  0.7818608E-02  0.9822294E-01
         -2   -1    0    0    0  501 -0.00000000000E+00  0.00000000000E+00  0.20773569313E+03  0.20773569315E+03  0.25500000000E-02 0.  1.
          2   -1    0    0  501    0  0.00000000000E+00 -0.00000000000E+00 -0.20798780116E+04  0.20798780116E+04  0.25500000000E-02 0. -1.
    8880022    1    1    2    0    0 -0.10869956096E+03  0.61375574382E+03 -0.11831525566E+04  0.13460138680E+04  0.15294330000E+03 0.  0.
    8880022    1    1    2    0    0  0.10869956096E+03 -0.61375574382E+03 -0.68898976190E+03  0.94159983679E+03  0.15294330000E+03 0.  0.
<mgrwt>
<rscale>  0 0.64179698E+03</rscale>
<asrwt>0</asrwt>
<pdfrwt beam="1">  1        2 0.31998122E+00 0.64179698E+03</pdfrwt>
<pdfrwt beam="2">  1       -2 0.31959339E-01 0.64179698E+03</pdfrwt>
<totfact> 0.57383595E+01</totfact>
</mgrwt>
</event>
<event>
 4    1  0.4639964E-008  0.4625800E+03  0.7818608E-02  0.1024036E+00
          2   -1    0    0  501    0  0.00000000000E+00  0.00000000000E+00  0.36567171147E+03  0.36567171148E+03  0.25500000000E-02 0. -1.
         -2   -1    0    0    0  501 -0.00000000000E+00 -0.00000000000E+00 -0.91386392958E+03  0.91386392958E+03  0.25500000000E-02 0.  1.
    8880022    1    1    2    0    0 -0.16848786156E+03 -0.40274120317E+03  0.10959094996E+03  0.47538454492E+03  0.15294330000E+03 0.  0.
    8880022    1    1    2    0    0  0.16848786156E+03  0.40274120317E+03 -0.65778316806E+03  0.80415109614E+03  0.15294330000E+03 0.  0.
<mgrwt>
<rscale>  0 0.46258004E+03</rscale>
<asrwt>0</asrwt>
<pdfrwt beam="1">  1        2 0.56257187E-01 0.46258004E+03</pdfrwt>
<pdfrwt beam="2">  1       -2 0.14059445E+00 0.46258004E+03</pdfrwt>
<totfact> 0.32444590E+01</totfact>
</mgrwt>
</event>
<event>
 4    1  0.4639964E-008  0.2810647E+03  0.7818608E-02  0.1095109E+00
          2   -1    0    0  501    0  0.00000000000E+00  0.00000000000E+00  0.10691380661E+04  0.10691380661E+04  0.25500000000E-02 0. -1.
         -2   -1    0    0    0  501 -0.00000000000E+00 -0.00000000000E+00 -0.22233497782E+03  0.22233497783E+03  0.25500000000E-02 0.  1.
    8880022    1    1    2    0    0  0.15753378459E+03  0.17546737995E+03 -0.10423630151E+03  0.29977083628E+03  0.15294330000E+03 0.  0.
    8880022    1    1    2    0    0 -0.15753378459E+03 -0.17546737995E+03  0.95103938979E+03  0.99170220765E+03  0.15294330000E+03 0. -1.
<mgrwt>
<rscale>  0 0.28106467E+03</rscale>
<asrwt>0</asrwt>
<pdfrwt beam="1">  1        2 0.16448278E+00 0.28106467E+03</pdfrwt>
<pdfrwt beam="2">  1       -2 0.34205381E-01 0.28106467E+03</pdfrwt>
<totfact> 0.19276209E+02</totfact>
</mgrwt>
</event>
<event>
 4    1  0.4639964E-008  0.4439215E+03  0.7818608E-02  0.1029550E+00
         -2   -1    0    0    0  501 -0.00000000000E+00  0.00000000000E+00  0.11404473833E+03  0.11404473836E+03  0.25500000000E-02 0.  1.
          2   -1    0    0  501    0  0.00000000000E+00 -0.00000000000E+00 -0.19807133559E+04  0.19807133559E+04  0.25500000000E-02 0. -1.
    8880022    1    1    2    0    0  0.30588318226E+03  0.28303736695E+03 -0.55919819152E+03  0.71398105205E+03  0.15294330000E+03 0.  0.
    8880022    1    1    2    0    0 -0.30588318226E+03 -0.28303736695E+03 -0.13074704260E+04  0.13807770422E+04  0.15294330000E+03 0.  0.
<mgrwt>
<rscale>  0 0.44392153E+03</rscale>
<asrwt>0</asrwt>
<pdfrwt beam="1">  1        2 0.30472511E+00 0.44392153E+03</pdfrwt>
<pdfrwt beam="2">  1       -2 0.17545346E-01 0.44392153E+03</pdfrwt>
<totfact> 0.19465588E+02</totfact>
</mgrwt>
</event>
<event>
 4    1  0.4639964E-008  0.2634687E+03  0.7818608E-02  0.1105077E+00
          2   -1    0    0  501    0  0.00000000000E+00  0.00000000000E+00  0.15970083288E+04  0.15970083288E+04  0.25500000000E-02 0. -1.
         -2   -1    0    0    0  501 -0.00000000000E+00 -0.00000000000E+00 -0.23972695234E+03  0.23972695235E+03  0.25500000000E-02 0.  1.
    8880022    1    1    2    0    0  0.21292236163E+03  0.26232862575E+02  0.15095908254E+04  0.15324099349E+04  0.15294330000E+03 0.  0.
    8880022    1    1    2    0    0 -0.21292236163E+03 -0.26232862575E+02 -0.15230944895E+03  0.30432534633E+03  0.15294330000E+03 0.  0.
<mgrwt>
<rscale>  0 0.26346869E+03</rscale>
<asrwt>0</asrwt>
<pdfrwt beam="1">  1        2 0.24569359E+00 0.26346869E+03</pdfrwt>
<pdfrwt beam="2">  1       -2 0.36881069E-01 0.26346869E+03</pdfrwt>
<totfact> 0.85520221E+01</totfact>
</mgrwt>
</event>
<event>
 4    1  0.4639964E-008  0.4864692E+03  0.7818608E-02  0.1017372E+00
         -2   -1    0    0    0  501 -0.00000000000E+00  0.00000000000E+00  0.11916472911E+04  0.11916472911E+04  0.25500000000E-02 0.  1.
          2   -1    0    0  501    0  0.00000000000E+00 -0.00000000000E+00 -0.40677109220E+03  0.40677109221E+03  0.25500000000E-02 0. -1.
    8880022    1    1    2    0    0  0.45970458191E+03 -0.43958401745E+02  0.96418443668E+03  0.10799555198E+04  0.15294330000E+03 0.  1.
    8880022    1    1    2    0    0 -0.45970458191E+03  0.43958401745E+02 -0.17930823780E+03  0.51846286354E+03  0.15294330000E+03 0.  0.
<mgrwt>
<rscale>  0 0.48646921E+03</rscale>
<asrwt>0</asrwt>
<pdfrwt beam="1">  1        2 0.62580169E-01 0.48646921E+03</pdfrwt>
<pdfrwt beam="2">  1       -2 0.18333035E+00 0.48646921E+03</pdfrwt>
<totfact> 0.14063033E+01</totfact>
</mgrwt>
</event>
<event>
 4    1  0.4639964E-008  0.7152680E+03  0.7818608E-02  0.9691472E-01
          2   -1    0    0  501    0  0.00000000000E+00  0.00000000000E+00  0.14010969028E+04  0.14010969028E+04  0.25500000000E-02 0. -1.
         -2   -1    0    0    0  501 -0.00000000000E+00 -0.00000000000E+00 -0.62168152672E+03  0.62168152672E+03  0.25500000000E-02 0.  1.
    8880022    1    1    2    0    0  0.57853566005E+03 -0.39180750509E+03 -0.25998214285E+03  0.76105124572E+03  0.15294330000E+03 0.  0.
    8880022    1    1    2    0    0 -0.57853566005E+03  0.39180750509E+03  0.10393975189E+04  0.12617271838E+04  0.15294330000E+03 0.  0.
<mgrwt>
<rscale>  0 0.71526798E+03</rscale>
<asrwt>0</asrwt>
<pdfrwt beam="1">  1        2 0.21555337E+00 0.71526798E+03</pdfrwt>
<pdfrwt beam="2">  1       -2 0.95643313E-01 0.71526798E+03</pdfrwt>
<totfact> 0.13617052E+01</totfact>
</mgrwt>
</event>
<event>
 4    1  0.4639964E-008  0.3570317E+03  0.7818608E-02  0.1059765E+00
          2   -1    0    0  501    0  0.00000000000E+00  0.00000000000E+00  0.26244275798E+04  0.26244275798E+04  0.25500000000E-02 0. -1.
         -2   -1    0    0    0  501 -0.00000000000E+00 -0.00000000000E+00 -0.38672540546E+03  0.38672540547E+03  0.25500000000E-02 0.  1.
    8880022    1    1    2    0    0 -0.22897684489E+03  0.22726538734E+03  0.25267091359E+04  0.25518092919E+04  0.15294330000E+03 0. -1.
    8880022    1    1    2    0    0  0.22897684489E+03 -0.22726538734E+03 -0.28900696157E+03  0.45934369336E+03  0.15294330000E+03 0.  0.
<mgrwt>
<rscale>  0 0.35703166E+03</rscale>
<asrwt>0</asrwt>
<pdfrwt beam="1">  1        2 0.40375808E+00 0.35703166E+03</pdfrwt>
<pdfrwt beam="2">  1       -2 0.59496217E-01 0.35703166E+03</pdfrwt>
<totfact> 0.90199488E+00</totfact>
</mgrwt>
</event>
<event>
 4    1  0.4639964E-008  0.8677489E+03  0.7818608E-02  0.9466820E-01
         -2   -1    0    0    0  501 -0.00000000000E+00  0.00000000000E+00  0.12947024377E+04  0.12947024377E+04  0.25500000000E-02 0.  1.
          2   -1    0    0  501    0  0.00000000000E+00 -0.00000000000E+00 -0.64334488508E+03  0.64334488508E+03  0.25500000000E-02 0. -1.
    8880022    1    1    2    0    0 -0.81372414430E+03 -0.25971058601E+03  0.62590045404E+03  0.10699250454E+04  0.15294330000E+03 0.  0.
    8880022    1    1    2    0    0  0.81372414430E+03  0.25971058601E+03  0.25457098578E+02  0.86812227732E+03  0.15294330000E+03 0.  0.
<mgrwt>
<rscale>  0 0.86774894E+03</rscale>
<asrwt>0</asrwt>
<pdfrwt beam="1">  1        2 0.98976138E-01 0.86774894E+03</pdfrwt>
<pdfrwt beam="2">  1       -2 0.19918499E+00 0.86774894E+03</pdfrwt>
<totfact> 0.61737215E+00</totfact>
</mgrwt>
</event>
<event>
 4    1  0.4639964E-008  0.9816800E+03  0.7818608E-02  0.9328869E-01
          2   -1    0    0  501    0  0.00000000000E+00  0.00000000000E+00  0.25297760075E+04  0.25297760075E+04  0.25500000000E-02 0. -1.
         -2   -1    0    0    0  501 -0.00000000000E+00 -0.00000000000E+00 -0.84919040784E+03  0.84919040784E+03  0.25500000000E-02 0.  1.
    8880022    1    1    2    0    0  0.45399306721E+03 -0.85685139511E+03 -0.41426278656E+03  0.10655089524E+04  0.15294330000E+03 0.  0.
    8880022    1    1    2    0    0 -0.45399306721E+03  0.85685139511E+03  0.20948483863E+04  0.23134574629E+04  0.15294330000E+03 0.  0.
<mgrwt>
<rscale>  0 0.98168002E+03</rscale>
<asrwt>0</asrwt>
<pdfrwt beam="1">  1        2 0.38919631E+00 0.98168002E+03</pdfrwt>
<pdfrwt beam="2">  1       -2 0.13064468E+00 0.98168002E+03</pdfrwt>
<totfact> 0.14489290E+00</totfact>
</mgrwt>
</event>
<event>
 4    1  0.4639964E-008  0.4940561E+03  0.7818608E-02  0.1015342E+00
         -2   -1    0    0    0  501 -0.00000000000E+00  0.00000000000E+00  0.45921250665E+03  0.45921250666E+03  0.25500000000E-02 0.  1.
          2   -1    0    0  501    0  0.00000000000E+00 -0.00000000000E+00 -0.45795652220E+04  0.45795652220E+04  0.25500000000E-02 0. -1.
    8880022    1    1    2    0    0  0.25981373631E+03 -0.39140332201E+03  0.30849332834E+03  0.58245989106E+03  0.15294330000E+03 0.  1.
    8880022    1    1    2    0    0 -0.25981373631E+03  0.39140332201E+03 -0.44288460437E+04  0.44563178376E+04  0.15294330000E+03 0.  0.
<mgrwt>
<rscale>  0 0.49405606E+03</rscale>
<asrwt>0</asrwt>
<pdfrwt beam="1">  1        2 0.70454846E+00 0.49405606E+03</pdfrwt>
<pdfrwt beam="2">  1       -2 0.70648081E-01 0.49405606E+03</pdfrwt>
<totfact> 0.23606542E-01</totfact>
</mgrwt>
</event>
<event>
 4    1  0.4639964E-008  0.4246118E+03  0.7818608E-02  0.1035576E+00
         -2   -1    0    0    0  501 -0.00000000000E+00  0.00000000000E+00  0.70616860228E+03  0.70616860228E+03  0.25500000000E-02 0.  1.
          2   -1    0    0  501    0  0.00000000000E+00 -0.00000000000E+00 -0.27454331871E+03  0.27454331873E+03  0.25500000000E-02 0. -1.
    8880022    1    1    2    0    0 -0.32309816002E+03  0.22915295937E+03  0.86040576897E+02  0.43324142656E+03  0.15294330000E+03 0.  0.
    8880022    1    1    2    0    0  0.32309816002E+03 -0.22915295937E+03  0.34558470667E+03  0.54747049445E+03  0.15294330000E+03 0.  0.
<mgrwt>
<rscale>  0 0.42461177E+03</rscale>
<asrwt>0</asrwt>
<pdfrwt beam="1">  1        2 0.42237434E-01 0.42461177E+03</pdfrwt>
<pdfrwt beam="2">  1       -2 0.10864132E+00 0.42461177E+03</pdfrwt>
<totfact> 0.84474207E+01</totfact>
</mgrwt>
</event>
<event>
 4    1  0.4639964E-008  0.1149704E+04  0.7818608E-02  0.9158057E-01
          2   -1    0    0  501    0  0.00000000000E+00  0.00000000000E+00  0.23924565253E+04  0.23924565253E+04  0.25500000000E-02 0. -1.
         -2   -1    0    0    0  501 -0.00000000000E+00 -0.00000000000E+00 -0.13005727289E+04  0.13005727289E+04  0.25500000000E-02 0.  1.
    8880022    1    1    2    0    0  0.95318094422E+03  0.62439869806E+03 -0.85448005717E+03  0.14324648225E+04  0.15294330000E+03 0.  0.
    8880022    1    1    2    0    0 -0.95318094422E+03 -0.62439869806E+03  0.19463638535E+04  0.22605644317E+04  0.15294330000E+03 0.  0.
<mgrwt>
<rscale>  0 0.11497040E+04</rscale>
<asrwt>0</asrwt>
<pdfrwt beam="1">  1        2 0.36807023E+00 0.11497040E+04</pdfrwt>
<pdfrwt beam="2">  1       -2 0.20008811E+00 0.11497040E+04</pdfrwt>
<totfact> 0.52350149E-01</totfact>
</mgrwt>
</event>
<event>
 4    1  0.4639964E-008  0.3232199E+03  0.7818608E-02  0.1074177E+00
          2   -1    0    0  501    0  0.00000000000E+00  0.00000000000E+00  0.79523799812E+03  0.79523799812E+03  0.25500000000E-02 0. -1.
         -2   -1    0    0    0  501 -0.00000000000E+00 -0.00000000000E+00 -0.26599650737E+03  0.26599650738E+03  0.25500000000E-02 0.  1.
    8880022    1    1    2    0    0  0.24116795398E+03  0.15138509506E+03  0.64211238512E+03  0.71887370043E+03  0.15294330000E+03 0.  0.
    8880022    1    1    2    0    0 -0.24116795398E+03 -0.15138509506E+03 -0.11287089437E+03  0.34236080506E+03  0.15294330000E+03 0.  1.
<mgrwt>
<rscale>  0 0.32321987E+03</rscale>
<asrwt>0</asrwt>
<pdfrwt beam="1">  1        2 0.12234431E+00 0.32321987E+03</pdfrwt>
<pdfrwt beam="2">  1       -2 0.40922540E-01 0.32321987E+03</pdfrwt>
<totfact> 0.20456974E+02</totfact>
</mgrwt>
</event>
<event>
 4    1  0.4639964E-008  0.6399842E+03  0.7818608E-02  0.9825757E-01
          2   -1    0    0  501    0  0.00000000000E+00  0.00000000000E+00  0.17567205048E+04  0.17567205048E+04  0.25500000000E-02 0. -1.
         -2   -1    0    0    0  501 -0.00000000000E+00 -0.00000000000E+00 -0.29383405292E+03  0.29383405294E+03  0.25500000000E-02 0.  1.
    8880022    1    1    2    0    0  0.22110256102E+03 -0.58077692226E+03  0.11973796440E+04  0.13576810527E+04  0.15294330000E+03 0.  0.
    8880022    1    1    2    0    0 -0.22110256102E+03  0.58077692226E+03  0.26550680781E+03  0.69287350500E+03  0.15294330000E+03 0.  0.
<mgrwt>
<rscale>  0 0.63998424E+03</rscale>
<asrwt>0</asrwt>
<pdfrwt beam="1">  1        2 0.27026470E+00 0.63998424E+03</pdfrwt>
<pdfrwt beam="2">  1       -2 0.45205238E-01 0.63998424E+03</pdfrwt>
<totfact> 0.44040623E+01</totfact>
</mgrwt>
</event>
<event>
 4    1  0.4639964E-008  0.5697968E+03  0.7818608E-02  0.9970128E-01
          2   -1    0    0  501    0  0.00000000000E+00  0.00000000000E+00  0.29387174955E+04  0.29387174955E+04  0.25500000000E-02 0. -1.
         -2   -1    0    0    0  501 -0.00000000000E+00 -0.00000000000E+00 -0.23044626444E+03  0.23044626445E+03  0.25500000000E-02 0.  1.
    8880022    1    1    2    0    0 -0.46210465874E+03  0.29620265121E+03  0.21083585424E+03  0.60755257934E+03  0.15294330000E+03 0.  0.
    8880022    1    1    2    0    0  0.46210465874E+03 -0.29620265121E+03  0.24974353768E+04  0.25616111806E+04  0.15294330000E+03 0.  0.
<mgrwt>
<rscale>  0 0.56979679E+03</rscale>
<asrwt>0</asrwt>
<pdfrwt beam="1">  1        2 0.45211039E+00 0.56979679E+03</pdfrwt>
<pdfrwt beam="2">  1       -2 0.35453271E-01 0.56979679E+03</pdfrwt>
<totfact> 0.15589700E+01</totfact>
</mgrwt>
</event>
<event>
 4    1  0.4639964E-008  0.8147499E+03  0.7818608E-02  0.9538909E-01
          2   -1    0    0  501    0  0.00000000000E+00  0.00000000000E+00  0.18071735948E+04  0.18071735948E+04  0.25500000000E-02 0. -1.
         -2   -1    0    0    0  501 -0.00000000000E+00 -0.00000000000E+00 -0.87995805288E+03  0.87995805289E+03  0.25500000000E-02 0.  1.
    8880022    1    1    2    0    0 -0.77013462707E+03 -0.21752811341E+03  0.14890988021E+04  0.16974194294E+04  0.15294330000E+03 0.  0.
    8880022    1    1    2    0    0  0.77013462707E+03  0.21752811341E+03 -0.56188326017E+03  0.98971221828E+03  0.15294330000E+03 0.  0.
<mgrwt>
<rscale>  0 0.81474995E+03</rscale>
<asrwt>0</asrwt>
<pdfrwt beam="1">  1        2 0.27802670E+00 0.81474995E+03</pdfrwt>
<pdfrwt beam="2">  1       -2 0.13537816E+00 0.81474995E+03</pdfrwt>
<totfact> 0.34215792E+00</totfact>
</mgrwt>
</event>
<event>
 4    1  0.4639964E-008  0.4749028E+03  0.7818608E-02  0.1020546E+00
          2   -1    0    0  501    0  0.00000000000E+00  0.00000000000E+00  0.41939652651E+03  0.41939652651E+03  0.25500000000E-02 0. -1.
         -2   -1    0    0    0  501 -0.00000000000E+00 -0.00000000000E+00 -0.12681644171E+04  0.12681644171E+04  0.25500000000E-02 0.  1.
    8880022    1    1    2    0    0 -0.22472794820E+03  0.38940766171E+03  0.21597699503E+03  0.52170747848E+03  0.15294330000E+03 0.  0.
    8880022    1    1    2    0    0  0.22472794820E+03 -0.38940766171E+03 -0.10647448857E+04  0.11658534652E+04  0.15294330000E+03 0.  0.
<mgrwt>
<rscale>  0 0.47490276E+03</rscale>
<asrwt>0</asrwt>
<pdfrwt beam="1">  1        2 0.64522543E-01 0.47490276E+03</pdfrwt>
<pdfrwt beam="2">  1       -2 0.19510222E+00 0.47490276E+03</pdfrwt>
<totfact> 0.11381025E+01</totfact>
</mgrwt>
</event>
<event>
 4    1  0.4639964E-008  0.3983208E+03  0.7818608E-02  0.1044363E+00
          2   -1    0    0  501    0  0.00000000000E+00  0.00000000000E+00  0.17668323861E+04  0.17668323861E+04  0.25500000000E-02 0. -1.
         -2   -1    0    0    0  501 -0.00000000000E+00 -0.00000000000E+00 -0.21656779544E+03  0.21656779546E+03  0.25500000000E-02 0.  1.
    8880022    1    1    2    0    0 -0.29303231005E+03  0.22226087554E+03  0.16397703132E+02  0.39865821102E+03  0.15294330000E+03 0.  0.
    8880022    1    1    2    0    0  0.29303231005E+03 -0.22226087554E+03  0.15338668875E+04  0.15847419705E+04  0.15294330000E+03 0.  0.
<mgrwt>
<rscale>  0 0.39832083E+03</rscale>
<asrwt>0</asrwt>
<pdfrwt beam="1">  1        2 0.27182038E+00 0.39832083E+03</pdfrwt>
<pdfrwt beam="2">  1       -2 0.33318121E-01 0.39832083E+03</pdfrwt>
<totfact> 0.81461052E+01</totfact>
</mgrwt>
</event>
<event>
 4    1  0.4639964E-008  0.1211868E+04  0.7818608E-02  0.9102532E-01
         -2   -1    0    0    0  501 -0.00000000000E+00  0.00000000000E+00  0.71311421758E+03  0.71311421759E+03  0.25500000000E-02 0.  1.
          2   -1    0    0  501    0  0.00000000000E+00 -0.00000000000E+00 -0.26417575372E+04  0.26417575372E+04  0.25500000000E-02 0. -1.
    8880022    1    1    2    0    0 -0.78286564294E+03  0.91233417711E+03 -0.17677695680E+03  0.12246934356E+04  0.15294330000E+03 0.  0.
    8880022    1    1    2    0    0  0.78286564294E+03 -0.91233417711E+03 -0.17518663629E+04  0.21301783193E+04  0.15294330000E+03 0.  0.
<mgrwt>
<rscale>  0 0.12118679E+04</rscale>
<asrwt>0</asrwt>
<pdfrwt beam="1">  1        2 0.40642423E+00 0.12118679E+04</pdfrwt>
<pdfrwt beam="2">  1       -2 0.10970988E+00 0.12118679E+04</pdfrwt>
<totfact> 0.18679630E+00</totfact>
</mgrwt>
</event>
<event>
 4    1  0.4639964E-008  0.1094471E+04  0.7818608E-02  0.9210597E-01
         -2   -1    0    0    0  501 -0.00000000000E+00  0.00000000000E+00  0.11284051244E+04  0.11284051244E+04  0.25500000000E-02 0.  1.
          2   -1    0    0  501    0  0.00000000000E+00 -0.00000000000E+00 -0.15347590099E+04  0.15347590099E+04  0.25500000000E-02 0. -1.
    8880022    1    1    2    0    0  0.37369050381E+03  0.10172667233E+04 -0.94256176792E+03  0.14443997087E+04  0.15294330000E+03 0.  0.
    8880022    1    1    2    0    0 -0.37369050381E+03 -0.10172667233E+04  0.53620788243E+03  0.12187644257E+04  0.15294330000E+03 0.  0.
<mgrwt>
<rscale>  0 0.10944715E+04</rscale>
<asrwt>0</asrwt>
<pdfrwt beam="1">  1        2 0.23611677E+00 0.10944715E+04</pdfrwt>
<pdfrwt beam="2">  1       -2 0.17360079E+00 0.10944715E+04</pdfrwt>
<totfact> 0.23941750E+00</totfact>
</mgrwt>
</event>
<event>
 4    1  0.4639964E-008  0.3816355E+03  0.7818608E-02  0.1050331E+00
          2   -1    0    0  501    0  0.00000000000E+00  0.00000000000E+00  0.32392820313E+04  0.32392820313E+04  0.25500000000E-02 0. -1.
         -2   -1    0    0    0  501 -0.00000000000E+00 -0.00000000000E+00 -0.24251456544E+03  0.24251456546E+03  0.25500000000E-02 0.  1.
    8880022    1    1    2    0    0 -0.57684723963E+02  0.34485722557E+03 -0.72866861082E+02  0.38852962032E+03  0.15294330000E+03 0.  0.
    8880022    1    1    2    0    0  0.57684723963E+02 -0.34485722557E+03  0.30696343270E+04  0.30932669765E+04  0.15294330000E+03 0.  0.
<mgrwt>
<rscale>  0 0.38163554E+03</rscale>
<asrwt>0</asrwt>
<pdfrwt beam="1">  1        2 0.49835105E+00 0.38163554E+03</pdfrwt>
<pdfrwt beam="2">  1       -2 0.37309935E-01 0.38163554E+03</pdfrwt>
<totfact> 0.97753066E+00</totfact>
</mgrwt>
</event>
<event>
 4    1  0.4639964E-008  0.6114320E+03  0.7818608E-02  0.9881968E-01
          2   -1    0    0  501    0  0.00000000000E+00  0.00000000000E+00  0.88945805200E+03  0.88945805200E+03  0.25500000000E-02 0. -1.
         -2   -1    0    0    0  501 -0.00000000000E+00 -0.00000000000E+00 -0.10488693633E+04  0.10488693633E+04  0.25500000000E-02 0.  1.
    8880022    1    1    2    0    0 -0.58031540476E+03  0.11701043008E+03  0.67054990710E+03  0.90746142654E+03  0.15294330000E+03 0. -1.
    8880022    1    1    2    0    0  0.58031540476E+03 -0.11701043008E+03 -0.82996121843E+03  0.10308659888E+04  0.15294330000E+03 0.  0.
<mgrwt>
<rscale>  0 0.61143198E+03</rscale>
<asrwt>0</asrwt>
<pdfrwt beam="1">  1        2 0.13683970E+00 0.61143198E+03</pdfrwt>
<pdfrwt beam="2">  1       -2 0.16136452E+00 0.61143198E+03</pdfrwt>
<totfact> 0.76118957E+00</totfact>
</mgrwt>
</event>
<event>
 4    1  0.4639964E-008  0.3761386E+03  0.7818608E-02  0.1052370E+00
          2   -1    0    0  501    0  0.00000000000E+00  0.00000000000E+00  0.15720276186E+04  0.15720276186E+04  0.25500000000E-02 0. -1.
         -2   -1    0    0    0  501 -0.00000000000E+00 -0.00000000000E+00 -0.29186407372E+03  0.29186407373E+03  0.25500000000E-02 0.  1.
    8880022    1    1    2    0    0  0.15938378197E+03  0.30444277110E+03  0.14151347833E+04  0.14642700225E+04  0.15294330000E+03 0.  0.
    8880022    1    1    2    0    0 -0.15938378197E+03 -0.30444277110E+03 -0.13497123838E+03  0.39962166988E+03  0.15294330000E+03 0.  0.
<mgrwt>
<rscale>  0 0.37613860E+03</rscale>
<asrwt>0</asrwt>
<pdfrwt beam="1">  1        2 0.24185039E+00 0.37613860E+03</pdfrwt>
<pdfrwt beam="2">  1       -2 0.44902167E-01 0.37613860E+03</pdfrwt>
<totfact> 0.58710463E+01</totfact>
</mgrwt>
</event>
<event>
 4    1  0.4639964E-008  0.3195996E+03  0.7818608E-02  0.1075834E+00
         -2   -1    0    0    0  501 -0.00000000000E+00  0.00000000000E+00  0.45360195055E+03  0.45360195055E+03  0.25500000000E-02 0.  1.
          2   -1    0    0  501    0  0.00000000000E+00 -0.00000000000E+00 -0.92701004944E+03  0.92701004944E+03  0.25500000000E-02 0. -1.
    8880022    1    1    2    0    0  0.27547355238E+03  0.53540571792E+02  0.36393581616E+03  0.48434822410E+03  0.15294330000E+03 0.  0.
    8880022    1    1    2    0    0 -0.27547355238E+03 -0.53540571792E+02 -0.83734391506E+03  0.89626377590E+03  0.15294330000E+03 0. -1.
<mgrwt>
<rscale>  0 0.31959963E+03</rscale>
<asrwt>0</asrwt>
<pdfrwt beam="1">  1        2 0.14261693E+00 0.31959963E+03</pdfrwt>
<pdfrwt beam="2">  1       -2 0.69784915E-01 0.31959963E+03</pdfrwt>
<totfact> 0.56286859E+01</totfact>
</mgrwt>
</event>
<event>
 4    1  0.4639964E-008  0.5555951E+03  0.7818608E-02  0.1000207E+00
          2   -1    0    0  501    0  0.00000000000E+00  0.00000000000E+00  0.17150386899E+04  0.17150386899E+04  0.25500000000E-02 0. -1.
         -2   -1    0    0    0  501 -0.00000000000E+00 -0.00000000000E+00 -0.13974317378E+04  0.13974317378E+04  0.25500000000E-02 0.  1.
    8880022    1    1    2    0    0 -0.46769623642E+03  0.25798150260E+03 -0.12937577244E+04  0.14080109829E+04  0.15294330000E+03 0.  0.
    8880022    1    1    2    0    0  0.46769623642E+03 -0.25798150260E+03  0.16113646765E+04  0.17044594448E+04  0.15294330000E+03 0.  0.
<mgrwt>
<rscale>  0 0.55559507E+03</rscale>
<asrwt>0</asrwt>
<pdfrwt beam="1">  1        2 0.26385210E+00 0.55559507E+03</pdfrwt>
<pdfrwt beam="2">  1       -2 0.21498950E+00 0.55559507E+03</pdfrwt>
<totfact> 0.11125995E+00</totfact>
</mgrwt>
</event>
<event>
 4    1  0.4639964E-008  0.3577069E+03  0.7818608E-02  0.1059496E+00
          2   -1    0    0  501    0  0.00000000000E+00  0.00000000000E+00  0.23866316063E+04  0.23866316063E+04  0.25500000000E-02 0. -1.
         -2   -1    0    0    0  501 -0.00000000000E+00 -0.00000000000E+00 -0.46190697393E+03  0.46190697394E+03  0.25500000000E-02 0.  1.
    8880022    1    1    2    0    0 -0.30480601522E+03  0.10796220417E+03  0.23014265142E+04  0.23290595092E+04  0.15294330000E+03 0.  0.
    8880022    1    1    2    0    0  0.30480601522E+03 -0.10796220417E+03 -0.37670188180E+03  0.51947907100E+03  0.15294330000E+03 0.  1.
<mgrwt>
<rscale>  0 0.35770686E+03</rscale>
<asrwt>0</asrwt>
<pdfrwt beam="1">  1        2 0.36717409E+00 0.35770686E+03</pdfrwt>
<pdfrwt beam="2">  1       -2 0.71062612E-01 0.35770686E+03</pdfrwt>
<totfact> 0.83740718E+00</totfact>
</mgrwt>
</event>
<event>
 4    1  0.4639964E-008  0.5087729E+03  0.7818608E-02  0.1011514E+00
          2   -1    0    0  501    0  0.00000000000E+00  0.00000000000E+00  0.35073241571E+04  0.35073241571E+04  0.25500000000E-02 0. -1.
         -2   -1    0    0    0  501 -0.00000000000E+00 -0.00000000000E+00 -0.14686077435E+03  0.14686077438E+03  0.25500000000E-02 0.  1.
    8880022    1    1    2    0    0  0.24417674640E+03 -0.41932793269E+03  0.39156130127E+03  0.64200475410E+03  0.15294330000E+03 0.  0.
    8880022    1    1    2    0    0 -0.24417674640E+03  0.41932793269E+03  0.29689020814E+04  0.30121801774E+04  0.15294330000E+03 0.  0.
<mgrwt>
<rscale>  0 0.50877289E+03</rscale>
<asrwt>0</asrwt>
<pdfrwt beam="1">  1        2 0.53958836E+00 0.50877289E+03</pdfrwt>
<pdfrwt beam="2">  1       -2 0.22593964E-01 0.50877289E+03</pdfrwt>
<totfact> 0.15719046E+01</totfact>
</mgrwt>
</event>
<event>
 4    1  0.4639964E-008  0.4470322E+03  0.7818608E-02  0.1028611E+00
          2   -1    0    0  501    0  0.00000000000E+00  0.00000000000E+00  0.16254662565E+04  0.16254662565E+04  0.25500000000E-02 0. -1.
         -2   -1    0    0    0  501 -0.00000000000E+00 -0.00000000000E+00 -0.19160641650E+03  0.19160641651E+03  0.25500000000E-02 0.  1.
    8880022    1    1    2    0    0  0.38210210600E+03  0.17448244307E+03  0.17304917568E+03  0.47935770837E+03  0.15294330000E+03 0.  0.
    8880022    1    1    2    0    0 -0.38210210600E+03 -0.17448244307E+03  0.12608106644E+04  0.13377149647E+04  0.15294330000E+03 0.  0.
<mgrwt>
<rscale>  0 0.44703221E+03</rscale>
<asrwt>0</asrwt>
<pdfrwt beam="1">  1        2 0.25007173E+00 0.44703221E+03</pdfrwt>
<pdfrwt beam="2">  1       -2 0.29477910E-01 0.44703221E+03</pdfrwt>
<totfact> 0.12067638E+02</totfact>
</mgrwt>
</event>
<event>
 4    1  0.4639964E-008  0.5107419E+03  0.7818608E-02  0.1011013E+00
          2   -1    0    0  501    0  0.00000000000E+00  0.00000000000E+00  0.10722695011E+04  0.10722695011E+04  0.25500000000E-02 0. -1.
         -2   -1    0    0    0  501 -0.00000000000E+00 -0.00000000000E+00 -0.28562930606E+03  0.28562930607E+03  0.25500000000E-02 0.  1.
    8880022    1    1    2    0    0  0.25502427293E+02  0.48663667668E+03  0.65476514522E+03  0.83040633265E+03  0.15294330000E+03 0.  0.
    8880022    1    1    2    0    0 -0.25502427293E+02 -0.48663667668E+03  0.13187504982E+03  0.52749247452E+03  0.15294330000E+03 0.  0.
<mgrwt>
<rscale>  0 0.51074189E+03</rscale>
<asrwt>0</asrwt>
<pdfrwt beam="1">  1        2 0.16496454E+00 0.51074189E+03</pdfrwt>
<pdfrwt beam="2">  1       -2 0.43942971E-01 0.51074189E+03</pdfrwt>
<totfact> 0.11523079E+02</totfact>
</mgrwt>
</event>
<event>
 4    1  0.4639964E-008  0.2452315E+03  0.7818608E-02  0.1116356E+00
         -2   -1    0    0    0  501 -0.00000000000E+00  0.00000000000E+00  0.14821329979E+03  0.14821329982E+03  0.25500000000E-02 0.  1.
          2   -1    0    0  501    0  0.00000000000E+00 -0.00000000000E+00 -0.20507120016E+04  0.20507120016E+04  0.25500000000E-02 0. -1.
    8880022    1    1    2    0    0 -0.14036705910E+03 -0.13055229606E+03 -0.19359523486E+04  0.19514225483E+04  0.15294330000E+03 0.  0.
    8880022    1    1    2    0    0  0.14036705910E+03  0.13055229606E+03  0.33453646744E+02  0.24750275308E+03  0.15294330000E+03 0.  1.
<mgrwt>
<rscale>  0 0.24523145E+03</rscale>
<asrwt>0</asrwt>
<pdfrwt beam="1">  1        2 0.31549413E+00 0.24523145E+03</pdfrwt>
<pdfrwt beam="2">  1       -2 0.22802048E-01 0.24523145E+03</pdfrwt>
<totfact> 0.11874461E+02</totfact>
</mgrwt>
</event>
<event>
 4    1  0.4639964E-008  0.7784386E+03  0.7818608E-02  0.9591762E-01
          2   -1    0    0  501    0  0.00000000000E+00  0.00000000000E+00  0.97211764367E+03  0.97211764368E+03  0.25500000000E-02 0. -1.
         -2   -1    0    0    0  501 -0.00000000000E+00 -0.00000000000E+00 -0.14184989440E+04  0.14184989440E+04  0.25500000000E-02 0.  1.
    8880022    1    1    2    0    0  0.15714379119E+03  0.74691421554E+03  0.67174224595E+03  0.10282044128E+04  0.15294330000E+03 0.  0.
    8880022    1    1    2    0    0 -0.15714379119E+03 -0.74691421554E+03 -0.11181235463E+04  0.13624121749E+04  0.15294330000E+03 0.  0.
<mgrwt>
<rscale>  0 0.77843861E+03</rscale>
<asrwt>0</asrwt>
<pdfrwt beam="1">  1        2 0.14955656E+00 0.77843861E+03</pdfrwt>
<pdfrwt beam="2">  1       -2 0.21823061E+00 0.77843861E+03</pdfrwt>
<totfact> 0.27234242E+00</totfact>
</mgrwt>
</event>
<event>
 4    1  0.4639964E-008  0.2700371E+03  0.7818608E-02  0.1101258E+00
         -2   -1    0    0    0  501 -0.00000000000E+00  0.00000000000E+00  0.11268543704E+03  0.11268543707E+03  0.25500000000E-02 0.  1.
          2   -1    0    0  501    0  0.00000000000E+00 -0.00000000000E+00 -0.10469577834E+04  0.10469577834E+04  0.25500000000E-02 0. -1.
    8880022    1    1    2    0    0  0.13454469091E+03  0.17727413018E+03 -0.82546053445E+03  0.86850741968E+03  0.15294330000E+03 0.  0.
    8880022    1    1    2    0    0 -0.13454469091E+03 -0.17727413018E+03 -0.10881181191E+03  0.29113580080E+03  0.15294330000E+03 0.  0.
<mgrwt>
<rscale>  0 0.27003712E+03</rscale>
<asrwt>0</asrwt>
<pdfrwt beam="1">  1        2 0.16107042E+00 0.27003712E+03</pdfrwt>
<pdfrwt beam="2">  1       -2 0.17336222E-01 0.27003712E+03</pdfrwt>
<totfact> 0.66218907E+02</totfact>
</mgrwt>
</event>
<event>
 4    1  0.4639964E-008  0.6219824E+03  0.7818608E-02  0.9860821E-01
          2   -1    0    0  501    0  0.00000000000E+00  0.00000000000E+00  0.22298593587E+04  0.22298593587E+04  0.25500000000E-02 0. -1.
         -2   -1    0    0    0  501 -0.00000000000E+00 -0.00000000000E+00 -0.20600605580E+03  0.20600605581E+03  0.25500000000E-02 0.  1.
    8880022    1    1    2    0    0 -0.16765938024E+03  0.57910338868E+03  0.14957880570E+04  0.16199518409E+04  0.15294330000E+03 0.  0.
    8880022    1    1    2    0    0  0.16765938024E+03 -0.57910338868E+03  0.52806524590E+03  0.81591357355E+03  0.15294330000E+03 0.  0.
<mgrwt>
<rscale>  0 0.62198236E+03</rscale>
<asrwt>0</asrwt>
<pdfrwt beam="1">  1        2 0.34305529E+00 0.62198236E+03</pdfrwt>
<pdfrwt beam="2">  1       -2 0.31693239E-01 0.62198236E+03</pdfrwt>
<totfact> 0.48399970E+01</totfact>
</mgrwt>
</event>
<event>
 4    1  0.4639964E-008  0.9656878E+03  0.7818608E-02  0.9347000E-01
         -2   -1    0    0    0  501 -0.00000000000E+00  0.00000000000E+00  0.25274120680E+03  0.25274120682E+03  0.25500000000E-02 0.  1.
          2   -1    0    0  501    0  0.00000000000E+00 -0.00000000000E+00 -0.51038505979E+04  0.51038505979E+04  0.25500000000E-02 0. -1.
    8880022    1    1    2    0    0 -0.83840310000E+03 -0.45413826613E+03 -0.10157821131E+04  0.14015585172E+04  0.15294330000E+03 0.  0.
    8880022    1    1    2    0    0  0.83840310000E+03  0.45413826613E+03 -0.38353272780E+04  0.39550332876E+04  0.15294330000E+03 0.  0.
<mgrwt>
<rscale>  0 0.96568783E+03</rscale>
<asrwt>0</asrwt>
<pdfrwt beam="1">  1        2 0.78520771E+00 0.96568783E+03</pdfrwt>
<pdfrwt beam="2">  1       -2 0.38883266E-01 0.96568783E+03</pdfrwt>
<totfact> 0.17606505E-01</totfact>
</mgrwt>
</event>
<event>
 4    1  0.4639964E-008  0.1934287E+03  0.7818608E-02  0.1155405E+00
          2   -1    0    0  501    0  0.00000000000E+00  0.00000000000E+00  0.50905730340E+03  0.50905730341E+03  0.25500000000E-02 0. -1.
         -2   -1    0    0    0  501 -0.00000000000E+00 -0.00000000000E+00 -0.19054215718E+03  0.19054215720E+03  0.25500000000E-02 0.  1.
    8880022    1    1    2    0    0 -0.11244809237E+03 -0.37127225682E+02 -0.11489917060E+03  0.22498105872E+03  0.15294330000E+03 0.  1.
    8880022    1    1    2    0    0  0.11244809237E+03  0.37127225682E+02  0.43341431682E+03  0.47461840188E+03  0.15294330000E+03 0.  0.
<mgrwt>
<rscale>  0 0.19342869E+03</rscale>
<asrwt>0</asrwt>
<pdfrwt beam="1">  1        2 0.78316508E-01 0.19342869E+03</pdfrwt>
<pdfrwt beam="2">  1       -2 0.29314178E-01 0.19342869E+03</pdfrwt>
<totfact> 0.65382908E+02</totfact>
</mgrwt>
</event>
<event>
 4    1  0.4639964E-008  0.4990741E+03  0.7818608E-02  0.1014021E+00
          2   -1    0    0  501    0  0.00000000000E+00  0.00000000000E+00  0.19310493871E+04  0.19310493871E+04  0.25500000000E-02 0. -1.
         -2   -1    0    0    0  501 -0.00000000000E+00 -0.00000000000E+00 -0.61449097590E+03  0.61449097590E+03  0.25500000000E-02 0.  1.
    8880022    1    1    2    0    0 -0.45463337238E+03  0.13781060638E+03  0.17896106845E+04  0.18578970159E+04  0.15294330000E+03 0.  0.
    8880022    1    1    2    0    0  0.45463337238E+03 -0.13781060638E+03 -0.47305227332E+03  0.68764334711E+03  0.15294330000E+03 0.  0.
<mgrwt>
<rscale>  0 0.49907406E+03</rscale>
<asrwt>0</asrwt>
<pdfrwt beam="1">  1        2 0.29708452E+00 0.49907406E+03</pdfrwt>
<pdfrwt beam="2">  1       -2 0.94537074E-01 0.49907406E+03</pdfrwt>
<totfact> 0.74652778E+00</totfact>
</mgrwt>
</event>
<event>
 4    1  0.4639964E-008  0.5757413E+03  0.7818608E-02  0.9957054E-01
         -2   -1    0    0    0  501 -0.00000000000E+00  0.00000000000E+00  0.56396037587E+03  0.56396037588E+03  0.25500000000E-02 0.  1.
          2   -1    0    0  501    0  0.00000000000E+00 -0.00000000000E+00 -0.11778237650E+04  0.11778237650E+04  0.25500000000E-02 0. -1.
    8880022    1    1    2    0    0  0.27830195553E+03  0.48024411757E+03  0.30947960351E+03  0.65364797018E+03  0.15294330000E+03 0.  0.
    8880022    1    1    2    0    0 -0.27830195553E+03 -0.48024411757E+03 -0.92334299266E+03  0.10881361707E+04  0.15294330000E+03 0.  0.
<mgrwt>
<rscale>  0 0.57574130E+03</rscale>
<asrwt>0</asrwt>
<pdfrwt beam="1">  1        2 0.18120366E+00 0.57574130E+03</pdfrwt>
<pdfrwt beam="2">  1       -2 0.86763135E-01 0.57574130E+03</pdfrwt>
<totfact> 0.23371898E+01</totfact>
</mgrwt>
</event>
<event>
 4    1  0.4639964E-008  0.3954854E+03  0.7818608E-02  0.1045354E+00
         -2   -1    0    0    0  501 -0.00000000000E+00  0.00000000000E+00  0.72315079400E+02  0.72315079445E+02  0.25500000000E-02 0.  1.
          2   -1    0    0  501    0  0.00000000000E+00 -0.00000000000E+00 -0.22180017622E+04  0.22180017622E+04  0.25500000000E-02 0. -1.
    8880022    1    1    2    0    0  0.21666503132E+03 -0.29338258881E+03 -0.12533744253E+04  0.13142892308E+04  0.15294330000E+03 0.  0.
    8880022    1    1    2    0    0 -0.21666503132E+03  0.29338258881E+03 -0.89231225753E+03  0.97602761086E+03  0.15294330000E+03 0.  0.
<mgrwt>
<rscale>  0 0.39548544E+03</rscale>
<asrwt>0</asrwt>
<pdfrwt beam="1">  1        2 0.34123099E+00 0.39548544E+03</pdfrwt>
<pdfrwt beam="2">  1       -2 0.11125399E-01 0.39548544E+03</pdfrwt>
<totfact> 0.31176541E+02</totfact>
</mgrwt>
</event>
<event>
 4    1  0.4639964E-008  0.5766535E+03  0.7818608E-02  0.9955063E-01
         -2   -1    0    0    0  501 -0.00000000000E+00  0.00000000000E+00  0.15165141065E+03  0.15165141067E+03  0.25500000000E-02 0.  1.
          2   -1    0    0  501    0  0.00000000000E+00 -0.00000000000E+00 -0.27381488833E+04  0.27381488833E+04  0.25500000000E-02 0. -1.
    8880022    1    1    2    0    0 -0.55587263976E+03 -0.11965241422E+02 -0.19381274318E+04  0.20220947440E+04  0.15294330000E+03 0.  0.
    8880022    1    1    2    0    0  0.55587263976E+03  0.11965241422E+02 -0.64837004084E+03  0.86770555001E+03  0.15294330000E+03 0.  0.
<mgrwt>
<rscale>  0 0.57665346E+03</rscale>
<asrwt>0</asrwt>
<pdfrwt beam="1">  1        2 0.42125364E+00 0.57665346E+03</pdfrwt>
<pdfrwt beam="2">  1       -2 0.23330988E-01 0.57665346E+03</pdfrwt>
<totfact> 0.44091286E+01</totfact>
</mgrwt>
</event>
<event>
 4    1  0.4639964E-008  0.3330542E+03  0.7818608E-02  0.1069793E+00
         -2   -1    0    0    0  501 -0.00000000000E+00  0.00000000000E+00  0.18758072170E+03  0.18758072172E+03  0.25500000000E-02 0.  1.
          2   -1    0    0  501    0  0.00000000000E+00 -0.00000000000E+00 -0.99316305662E+03  0.99316305663E+03  0.25500000000E-02 0. -1.
    8880022    1    1    2    0    0  0.13837552719E+02 -0.29553672034E+03 -0.77830820791E+03  0.84657471640E+03  0.15294330000E+03 0.  0.
    8880022    1    1    2    0    0 -0.13837552719E+02  0.29553672034E+03 -0.27274127013E+02  0.33416906194E+03  0.15294330000E+03 0.  0.
<mgrwt>
<rscale>  0 0.33305418E+03</rscale>
<asrwt>0</asrwt>
<pdfrwt beam="1">  1        2 0.15279431E+00 0.33305418E+03</pdfrwt>
<pdfrwt beam="2">  1       -2 0.28858573E-01 0.33305418E+03</pdfrwt>
<totfact> 0.29129720E+02</totfact>
</mgrwt>
</event>
<event>
 4    1  0.4639964E-008  0.1583119E+03  0.7818608E-02  0.1190616E+00
         -2   -1    0    0    0  501 -0.00000000000E+00  0.00000000000E+00  0.21691501737E+02  0.21691501887E+02  0.25500000000E-02 0.  1.
          2   -1    0    0  501    0  0.00000000000E+00 -0.00000000000E+00 -0.13159579729E+04  0.13159579729E+04  0.25500000000E-02 0. -1.
    8880022    1    1    2    0    0  0.85337027354E+01 -0.39977093897E+02 -0.41352424546E+03  0.44279221619E+03  0.15294330000E+03 0.  0.
    8880022    1    1    2    0    0 -0.85337027354E+01  0.39977093897E+02 -0.88074222568E+03  0.89485725858E+03  0.15294330000E+03 0. -1.
<mgrwt>
<rscale>  0 0.15831186E+03</rscale>
<asrwt>0</asrwt>
<pdfrwt beam="1">  1        2 0.20245501E+00 0.15831186E+03</pdfrwt>
<pdfrwt beam="2">  1       -2 0.33371551E-02 0.15831186E+03</pdfrwt>
<totfact> 0.61113992E+03</totfact>
</mgrwt>
</event>
<event>
 4    1  0.4639964E-008  0.1479064E+04  0.7818608E-02  0.8898495E-01
          2   -1    0    0  501    0  0.00000000000E+00  0.00000000000E+00  0.13223142987E+04  0.13223142987E+04  0.25500000000E-02 0. -1.
         -2   -1    0    0    0  501 -0.00000000000E+00 -0.00000000000E+00 -0.28017010118E+04  0.28017010118E+04  0.25500000000E-02 0.  1.
    8880022    1    1    2    0    0 -0.91754224046E+02 -0.14682713770E+04  0.57983536573E+03  0.15886599316E+04  0.15294330000E+03 0.  0.
    8880022    1    1    2    0    0  0.91754224046E+02  0.14682713770E+04 -0.20592220789E+04  0.25353553789E+04  0.15294330000E+03 0.  0.
<mgrwt>
<rscale>  0 0.14790643E+04</rscale>
<asrwt>0</asrwt>
<pdfrwt beam="1">  1        2 0.20343297E+00 0.14790643E+04</pdfrwt>
<pdfrwt beam="2">  1       -2 0.43103092E+00 0.14790643E+04</pdfrwt>
<totfact> 0.70372254E-02</totfact>
</mgrwt>
</event>
<event>
 4    1  0.4639964E-008  0.6547697E+03  0.7818608E-02  0.9797870E-01
         -2   -1    0    0    0  501 -0.00000000000E+00  0.00000000000E+00  0.95881038306E+03  0.95881038307E+03  0.25500000000E-02 0.  1.
          2   -1    0    0  501    0  0.00000000000E+00 -0.00000000000E+00 -0.28262974471E+04  0.28262974471E+04  0.25500000000E-02 0. -1.
    8880022    1    1    2    0    0 -0.57037251590E+03 -0.28285500016E+03 -0.26701477417E+04  0.27492566948E+04  0.15294330000E+03 0.  0.
    8880022    1    1    2    0    0  0.57037251590E+03  0.28285500016E+03  0.80266067774E+03  0.10358511354E+04  0.15294330000E+03 0.  0.
<mgrwt>
<rscale>  0 0.65476974E+03</rscale>
<asrwt>0</asrwt>
<pdfrwt beam="1">  1        2 0.43481499E+00 0.65476974E+03</pdfrwt>
<pdfrwt beam="2">  1       -2 0.14750929E+00 0.65476974E+03</pdfrwt>
<totfact> 0.75983673E-01</totfact>
</mgrwt>
</event>
<event>
 4    1  0.4639964E-008  0.8733738E+03  0.7818608E-02  0.9459492E-01
         -2   -1    0    0    0  501 -0.00000000000E+00  0.00000000000E+00  0.76611503155E+03  0.76611503155E+03  0.25500000000E-02 0.  1.
          2   -1    0    0  501    0  0.00000000000E+00 -0.00000000000E+00 -0.16883562989E+04  0.16883562989E+04  0.25500000000E-02 0. -1.
    8880022    1    1    2    0    0 -0.58656849467E+03  0.62875074334E+03 -0.12472079053E+04  0.15225995233E+04  0.15294330000E+03 0.  0.
    8880022    1    1    2    0    0  0.58656849467E+03 -0.62875074334E+03  0.32496663797E+03  0.93187180717E+03  0.15294330000E+03 0.  0.
<mgrwt>
<rscale>  0 0.87337377E+03</rscale>
<asrwt>0</asrwt>
<pdfrwt beam="1">  1        2 0.25974712E+00 0.87337377E+03</pdfrwt>
<pdfrwt beam="2">  1       -2 0.11786385E+00 0.87337377E+03</pdfrwt>
<totfact> 0.55876467E+00</totfact>
</mgrwt>
</event>
<event>
 4    1  0.4639964E-008  0.1992934E+03  0.7818608E-02  0.1150337E+00
         -2   -1    0    0    0  501 -0.00000000000E+00  0.00000000000E+00  0.33685003389E+03  0.33685003390E+03  0.25500000000E-02 0.  1.
          2   -1    0    0  501    0  0.00000000000E+00 -0.00000000000E+00 -0.41192356525E+03  0.41192356526E+03  0.25500000000E-02 0. -1.
    8880022    1    1    2    0    0  0.97550389384E+02 -0.82523420220E+02 -0.35383458843E+03  0.40609944883E+03  0.15294330000E+03 0.  0.
    8880022    1    1    2    0    0 -0.97550389384E+02  0.82523420220E+02  0.27876105706E+03  0.34267415033E+03  0.15294330000E+03 0.  0.
<mgrwt>
<rscale>  0 0.19929337E+03</rscale>
<asrwt>0</asrwt>
<pdfrwt beam="1">  1        2 0.63372856E-01 0.19929337E+03</pdfrwt>
<pdfrwt beam="2">  1       -2 0.51823082E-01 0.19929337E+03</pdfrwt>
<totfact> 0.27948932E+02</totfact>
</mgrwt>
</event>
<event>
 4    1  0.4639964E-008  0.9023384E+03  0.7818608E-02  0.9422663E-01
          2   -1    0    0  501    0  0.00000000000E+00  0.00000000000E+00  0.19077822489E+04  0.19077822489E+04  0.25500000000E-02 0. -1.
         -2   -1    0    0    0  501 -0.00000000000E+00 -0.00000000000E+00 -0.70213168154E+03  0.70213168155E+03  0.25500000000E-02 0.  1.
    8880022    1    1    2    0    0 -0.13836695870E+03 -0.87845174602E+03  0.14200210899E+04  0.16824608269E+04  0.15294330000E+03 0.  0.
    8880022    1    1    2    0    0  0.13836695870E+03  0.87845174602E+03 -0.21437052251E+03  0.92745310355E+03  0.15294330000E+03 0.  0.
<mgrwt>
<rscale>  0 0.90233837E+03</rscale>
<asrwt>0</asrwt>
<pdfrwt beam="1">  1        2 0.29350496E+00 0.90233837E+03</pdfrwt>
<pdfrwt beam="2">  1       -2 0.10802026E+00 0.90233837E+03</pdfrwt>
<totfact> 0.52187110E+00</totfact>
</mgrwt>
</event>
<event>
 4    1  0.4639964E-008  0.9773360E+03  0.7818608E-02  0.9333758E-01
         -2   -1    0    0    0  501 -0.00000000000E+00  0.00000000000E+00  0.31674666335E+03  0.31674666336E+03  0.25500000000E-02 0.  1.
          2   -1    0    0  501    0  0.00000000000E+00 -0.00000000000E+00 -0.42183279751E+04  0.42183279751E+04  0.25500000000E-02 0. -1.
    8880022    1    1    2    0    0  0.26239401836E+03 -0.92894748200E+03 -0.31615712060E+04  0.33091869378E+04  0.15294330000E+03 0.  0.
    8880022    1    1    2    0    0 -0.26239401836E+03  0.92894748200E+03 -0.74001010574E+03  0.12258877007E+04  0.15294330000E+03 0.  0.
<mgrwt>
<rscale>  0 0.97733602E+03</rscale>
<asrwt>0</asrwt>
<pdfrwt beam="1">  1        2 0.64897349E+00 0.97733602E+03</pdfrwt>
<pdfrwt beam="2">  1       -2 0.48730259E-01 0.97733602E+03</pdfrwt>
<totfact> 0.95496490E-01</totfact>
</mgrwt>
</event>
<event>
 4    1  0.4929656E-008  0.9301966E+03  0.7818608E-02  0.9388602E-01
          2   -1    0    0  501    0  0.00000000000E+00  0.00000000000E+00  0.18398863917E+04  0.18398863917E+04  0.25500000000E-02 0. -1.
         -2   -1    0    0    0  501 -0.00000000000E+00 -0.00000000000E+00 -0.13455727461E+04  0.13455727461E+04  0.25500000000E-02 0.  1.
    8880022    1    1    2    0    0 -0.82920401924E+03  0.39280364024E+03 -0.10374333414E+04  0.13933892479E+04  0.15294330000E+03 0.  0.
    8880022    1    1    2    0    0  0.82920401924E+03 -0.39280364024E+03  0.15317469869E+04  0.17920698899E+04  0.15294330000E+03 0.  0.
<mgrwt>
<rscale>  0 0.93019657E+03</rscale>
<asrwt>0</asrwt>
<pdfrwt beam="1">  1        2 0.28305944E+00 0.93019657E+03</pdfrwt>
<pdfrwt beam="2">  1       -2 0.20701119E+00 0.93019657E+03</pdfrwt>
<totfact> 0.98938312E-01</totfact>
</mgrwt>
</event>
<event>
 4    1  0.6129387E-008  0.9270850E+03  0.7818608E-02  0.9392343E-01
         -2   -1    0    0    0  501 -0.00000000000E+00  0.00000000000E+00  0.13708843282E+04  0.13708843282E+04  0.25500000000E-02 0.  1.
          2   -1    0    0  501    0  0.00000000000E+00 -0.00000000000E+00 -0.15035172137E+04  0.15035172137E+04  0.25500000000E-02 0. -1.
    8880022    1    1    2    0    0  0.91419514361E+03  0.18495753539E+02  0.10310557200E+04  0.13865649658E+04  0.15294330000E+03 0.  0.
    8880022    1    1    2    0    0 -0.91419514361E+03 -0.18495753539E+02 -0.11636886055E+04  0.14878365761E+04  0.15294330000E+03 0.  0.
<mgrwt>
<rscale>  0 0.92708495E+03</rscale>
<asrwt>0</asrwt>
<pdfrwt beam="1">  1        2 0.23131034E+00 0.92708495E+03</pdfrwt>
<pdfrwt beam="2">  1       -2 0.21090528E+00 0.92708495E+03</pdfrwt>
<totfact> 0.14342862E+00</totfact>
</mgrwt>
</event>
<event>
 4    1  0.4639964E-008  0.1779328E+03  0.7818608E-02  0.1169819E+00
         -2   -1    0    0    0  501 -0.00000000000E+00  0.00000000000E+00  0.37391799576E+02  0.37391799663E+02  0.25500000000E-02 0.  1.
          2   -1    0    0  501    0  0.00000000000E+00 -0.00000000000E+00 -0.90967464253E+03  0.90967464253E+03  0.25500000000E-02 0. -1.
    8880022    1    1    2    0    0  0.75078848948E+02  0.51298978852E+02 -0.31156090139E+03  0.35879000416E+03  0.15294330000E+03 0. -1.
    8880022    1    1    2    0    0 -0.75078848948E+02 -0.51298978852E+02 -0.56072194156E+03  0.58827643804E+03  0.15294330000E+03 0.  0.
<mgrwt>
<rscale>  0 0.17793277E+03</rscale>
<asrwt>0</asrwt>
<pdfrwt beam="1">  1        2 0.13994993E+00 0.17793277E+03</pdfrwt>
<pdfrwt beam="2">  1       -2 0.57525853E-02 0.17793277E+03</pdfrwt>
<totfact> 0.46578220E+03</totfact>
</mgrwt>
</event>
<event>
 4    1  0.4639964E-008  0.1149299E+04  0.7818608E-02  0.9158430E-01
         -2   -1    0    0    0  501 -0.00000000000E+00  0.00000000000E+00  0.83202539247E+03  0.83202539248E+03  0.25500000000E-02 0.  1.
          2   -1    0    0  501    0  0.00000000000E+00 -0.00000000000E+00 -0.22489401313E+04  0.22489401313E+04  0.25500000000E-02 0. -1.
    8880022    1    1    2    0    0  0.11231070311E+04  0.19007345184E+03 -0.15438563952E+04  0.19246769969E+04  0.15294330000E+03 0.  0.
    8880022    1    1    2    0    0 -0.11231070311E+04 -0.19007345184E+03  0.12694165635E+03  0.11562885269E+04  0.15294330000E+03 0.  0.
<mgrwt>
<rscale>  0 0.11492993E+04</rscale>
<asrwt>0</asrwt>
<pdfrwt beam="1">  1        2 0.34599079E+00 0.11492993E+04</pdfrwt>
<pdfrwt beam="2">  1       -2 0.12800391E+00 0.11492993E+04</pdfrwt>
<totfact> 0.21515827E+00</totfact>
</mgrwt>
</event>
<event>
 4    1  0.4639964E-008  0.1996549E+03  0.7818608E-02  0.1150030E+00
          2   -1    0    0  501    0  0.00000000000E+00  0.00000000000E+00  0.82103551144E+03  0.82103551145E+03  0.25500000000E-02 0. -1.
         -2   -1    0    0    0  501 -0.00000000000E+00 -0.00000000000E+00 -0.13696863914E+03  0.13696863916E+03  0.25500000000E-02 0.  1.
    8880022    1    1    2    0    0  0.60484620705E+02 -0.11319031991E+03 -0.42820820640E+02  0.20419528290E+03  0.15294330000E+03 0.  0.
    8880022    1    1    2    0    0 -0.60484620705E+02  0.11319031991E+03  0.72688769295E+03  0.75380886771E+03  0.15294330000E+03 0.  0.
<mgrwt>
<rscale>  0 0.19965493E+03</rscale>
<asrwt>0</asrwt>
<pdfrwt beam="1">  1        2 0.12631316E+00 0.19965493E+03</pdfrwt>
<pdfrwt beam="2">  1       -2 0.21072098E-01 0.19965493E+03</pdfrwt>
<totfact> 0.66376878E+02</totfact>
</mgrwt>
</event>
<event>
 4    1  0.4639964E-008  0.6011408E+03  0.7818608E-02  0.9903042E-01
         -2   -1    0    0    0  501 -0.00000000000E+00  0.00000000000E+00  0.30617090039E+03  0.30617090040E+03  0.25500000000E-02 0.  1.
          2   -1    0    0  501    0  0.00000000000E+00 -0.00000000000E+00 -0.25664593456E+04  0.25664593456E+04  0.25500000000E-02 0. -1.
    8880022    1    1    2    0    0  0.57885722130E+03  0.53879159229E+02 -0.21857232718E+04  0.22668825555E+04  0.15294330000E+03 0.  0.
    8880022    1    1    2    0    0 -0.57885722130E+03 -0.53879159229E+02 -0.74565173390E+02  0.60574769050E+03  0.15294330000E+03 0.  0.
<mgrwt>
<rscale>  0 0.60114083E+03</rscale>
<asrwt>0</asrwt>
<pdfrwt beam="1">  1        2 0.39483988E+00 0.60114083E+03</pdfrwt>
<pdfrwt beam="2">  1       -2 0.47103217E-01 0.60114083E+03</pdfrwt>
<totfact> 0.14659347E+01</totfact>
</mgrwt>
</event>
<event>
 4    1  0.4639964E-008  0.4092418E+03  0.7818608E-02  0.1040626E+00
         -2   -1    0    0    0  501 -0.00000000000E+00  0.00000000000E+00  0.27608681893E+03  0.27608681894E+03  0.25500000000E-02 0.  1.
          2   -1    0    0  501    0  0.00000000000E+00 -0.00000000000E+00 -0.62145474834E+03  0.62145474834E+03  0.25500000000E-02 0. -1.
    8880022    1    1    2    0    0  0.99347486168E+02  0.36635675012E+03 -0.10333981379E+03  0.42208762301E+03  0.15294330000E+03 0.  1.
    8880022    1    1    2    0    0 -0.99347486168E+02 -0.36635675012E+03 -0.24202811561E+03  0.47545394428E+03  0.15294330000E+03 0. -1.
<mgrwt>
<rscale>  0 0.40924179E+03</rscale>
<asrwt>0</asrwt>
<pdfrwt beam="1">  1        2 0.95608422E-01 0.40924179E+03</pdfrwt>
<pdfrwt beam="2">  1       -2 0.42474895E-01 0.40924179E+03</pdfrwt>
<totfact> 0.25622077E+02</totfact>
</mgrwt>
</event>
<event>
 4    1  0.4639964E-008  0.4438962E+03  0.7818608E-02  0.1029558E+00
          2   -1    0    0  501    0  0.00000000000E+00  0.00000000000E+00  0.16991307346E+04  0.16991307346E+04  0.25500000000E-02 0. -1.
         -2   -1    0    0    0  501 -0.00000000000E+00 -0.00000000000E+00 -0.23618184742E+03  0.23618184743E+03  0.25500000000E-02 0.  1.
    8880022    1    1    2    0    0  0.14210632280E+03  0.39173708621E+03  0.14218353112E+04  0.14895165178E+04  0.15294330000E+03 0.  0.
    8880022    1    1    2    0    0 -0.14210632280E+03 -0.39173708621E+03  0.41113575949E+02  0.44579606418E+03  0.15294330000E+03 0.  0.
<mgrwt>
<rscale>  0 0.44389616E+03</rscale>
<asrwt>0</asrwt>
<pdfrwt beam="1">  1        2 0.26140473E+00 0.44389616E+03</pdfrwt>
<pdfrwt beam="2">  1       -2 0.36335669E-01 0.44389616E+03</pdfrwt>
<totfact> 0.74572417E+01</totfact>
</mgrwt>
</event>
<event>
 4    1  0.4639964E-008  0.2129758E+03  0.7818608E-02  0.1139231E+00
          2   -1    0    0  501    0  0.00000000000E+00  0.00000000000E+00  0.37361515559E+03  0.37361515560E+03  0.25500000000E-02 0. -1.
         -2   -1    0    0    0  501 -0.00000000000E+00 -0.00000000000E+00 -0.12495907374E+04  0.12495907374E+04  0.25500000000E-02 0.  1.
    8880022    1    1    2    0    0 -0.13922983335E+03  0.50814176924E+02 -0.12091576623E+04  0.12277707165E+04  0.15294330000E+03 0.  0.
    8880022    1    1    2    0    0  0.13922983335E+03 -0.50814176924E+02  0.33318208045E+03  0.39543517651E+03  0.15294330000E+03 0. -1.
<mgrwt>
<rscale>  0 0.21297577E+03</rscale>
<asrwt>0</asrwt>
<pdfrwt beam="1">  1        2 0.57479255E-01 0.21297577E+03</pdfrwt>
<pdfrwt beam="2">  1       -2 0.19224473E+00 0.21297577E+03</pdfrwt>
<totfact> 0.14295255E+01</totfact>
</mgrwt>
</event>
<event>
 4    1  0.4639964E-008  0.2520321E+03  0.7818608E-02  0.1112027E+00
          2   -1    0    0  501    0  0.00000000000E+00  0.00000000000E+00  0.30318386200E+04  0.30318386200E+04  0.25500000000E-02 0. -1.
         -2   -1    0    0    0  501 -0.00000000000E+00 -0.00000000000E+00 -0.12594487419E+03  0.12594487421E+03  0.25500000000E-02 0.  1.
    8880022    1    1    2    0    0  0.20026452463E+03 -0.47573756830E+01  0.11349412167E+02  0.25228748408E+03  0.15294330000E+03 0.  0.
    8880022    1    1    2    0    0 -0.20026452463E+03  0.47573756830E+01  0.28945443336E+04  0.29054960101E+04  0.15294330000E+03 0. -1.
<mgrwt>
<rscale>  0 0.25203207E+03</rscale>
<asrwt>0</asrwt>
<pdfrwt beam="1">  1        2 0.46643672E+00 0.25203207E+03</pdfrwt>
<pdfrwt beam="2">  1       -2 0.19376134E-01 0.25203207E+03</pdfrwt>
<totfact> 0.44981922E+01</totfact>
</mgrwt>
</event>
<event>
 4    1  0.4639964E-008  0.8790097E+03  0.7818608E-02  0.9452207E-01
         -2   -1    0    0    0  501 -0.00000000000E+00  0.00000000000E+00  0.22963181396E+04  0.22963181396E+04  0.25500000000E-02 0.  1.
          2   -1    0    0  501    0  0.00000000000E+00 -0.00000000000E+00 -0.78518213537E+03  0.78518213537E+03  0.25500000000E-02 0. -1.
    8880022    1    1    2    0    0  0.86500916907E+03  0.32024755784E+02 -0.40916815971E+03  0.96957551717E+03  0.15294330000E+03 0.  0.
    8880022    1    1    2    0    0 -0.86500916907E+03 -0.32024755784E+02  0.19203041639E+04  0.21119247578E+04  0.15294330000E+03 0.  0.
<mgrwt>
<rscale>  0 0.87900973E+03</rscale>
<asrwt>0</asrwt>
<pdfrwt beam="1">  1        2 0.12079725E+00 0.87900973E+03</pdfrwt>
<pdfrwt beam="2">  1       -2 0.35327972E+00 0.87900973E+03</pdfrwt>
<totfact> 0.54069235E-01</totfact>
</mgrwt>
</event>
<event>
 4    1  0.4639964E-008  0.8873925E+03  0.7818608E-02  0.9441480E-01
          2   -1    0    0  501    0  0.00000000000E+00  0.00000000000E+00  0.68525914034E+03  0.68525914035E+03  0.25500000000E-02 0. -1.
         -2   -1    0    0    0  501 -0.00000000000E+00 -0.00000000000E+00 -0.12765210727E+04  0.12765210727E+04  0.25500000000E-02 0.  1.
    8880022    1    1    2    0    0 -0.70327089305E+03  0.51911833671E+03 -0.60547418161E+03  0.10742739102E+04  0.15294330000E+03 0.  0.
    8880022    1    1    2    0    0  0.70327089305E+03 -0.51911833671E+03  0.14212249270E+02  0.88750630283E+03  0.15294330000E+03 0.  0.
<mgrwt>
<rscale>  0 0.88739250E+03</rscale>
<asrwt>0</asrwt>
<pdfrwt beam="1">  1        2 0.10542448E+00 0.88739250E+03</pdfrwt>
<pdfrwt beam="2">  1       -2 0.19638786E+00 0.88739250E+03</pdfrwt>
<totfact> 0.59402512E+00</totfact>
</mgrwt>
</event>
<event>
 4    1  0.4639964E-008  0.1148546E+04  0.7818608E-02  0.9159126E-01
          2   -1    0    0  501    0  0.00000000000E+00  0.00000000000E+00  0.22501339115E+04  0.22501339115E+04  0.25500000000E-02 0. -1.
         -2   -1    0    0    0  501 -0.00000000000E+00 -0.00000000000E+00 -0.69688249335E+03  0.69688249335E+03  0.25500000000E-02 0.  1.
    8880022    1    1    2    0    0  0.54051673519E+03  0.10018021496E+04  0.13637089815E+04  0.17829357047E+04  0.15294330000E+03 0.  0.
    8880022    1    1    2    0    0 -0.54051673519E+03 -0.10018021496E+04  0.18954243662E+03  0.11640807001E+04  0.15294330000E+03 0.  0.
<mgrwt>
<rscale>  0 0.11485458E+04</rscale>
<asrwt>0</asrwt>
<pdfrwt beam="1">  1        2 0.34617445E+00 0.11485458E+04</pdfrwt>
<pdfrwt beam="2">  1       -2 0.10721269E+00 0.11485458E+04</pdfrwt>
<totfact> 0.33332675E+00</totfact>
</mgrwt>
</event>
<event>
 4    1  0.4639964E-008  0.1565928E+03  0.7818608E-02  0.1192598E+00
          2   -1    0    0  501    0  0.00000000000E+00  0.00000000000E+00  0.20600597171E+04  0.20600597171E+04  0.25500000000E-02 0. -1.
         -2   -1    0    0    0  501 -0.00000000000E+00 -0.00000000000E+00 -0.24137639234E+03  0.24137639235E+03  0.25500000000E-02 0.  1.
    8880022    1    1    2    0    0  0.28447975322E+02  0.17899089961E+02 -0.21264450610E+03  0.26408143386E+03  0.15294330000E+03 0.  1.
    8880022    1    1    2    0    0 -0.28447975322E+02 -0.17899089961E+02  0.20313278309E+04  0.20373546756E+04  0.15294330000E+03 0.  0.
<mgrwt>
<rscale>  0 0.15659284E+03</rscale>
<asrwt>0</asrwt>
<pdfrwt beam="1">  1        2 0.31693227E+00 0.15659284E+03</pdfrwt>
<pdfrwt beam="2">  1       -2 0.37134829E-01 0.15659284E+03</pdfrwt>
<totfact> 0.50655487E+01</totfact>
</mgrwt>
</event>
<event>
 4    1  0.4639964E-008  0.6539690E+03  0.7818608E-02  0.9799360E-01
          2   -1    0    0  501    0  0.00000000000E+00  0.00000000000E+00  0.88405534299E+03  0.88405534299E+03  0.25500000000E-02 0. -1.
         -2   -1    0    0    0  501 -0.00000000000E+00 -0.00000000000E+00 -0.11756935776E+04  0.11756935776E+04  0.25500000000E-02 0.  1.
    8880022    1    1    2    0    0 -0.15369209674E+03 -0.61697851281E+03 -0.93589302516E+03  0.11417404054E+04  0.15294330000E+03 0.  0.
    8880022    1    1    2    0    0  0.15369209674E+03  0.61697851281E+03  0.64425479050E+03  0.91800851520E+03  0.15294330000E+03 0.  0.
<mgrwt>
<rscale>  0 0.65396896E+03</rscale>
<asrwt>0</asrwt>
<pdfrwt beam="1">  1        2 0.13600851E+00 0.65396896E+03</pdfrwt>
<pdfrwt beam="2">  1       -2 0.18087594E+00 0.65396896E+03</pdfrwt>
<totfact> 0.55588703E+00</totfact>
</mgrwt>
</event>
<event>
 4    1  0.4639964E-008  0.5807045E+03  0.7818608E-02  0.9946267E-01
          2   -1    0    0  501    0  0.00000000000E+00  0.00000000000E+00  0.27786492822E+04  0.27786492822E+04  0.25500000000E-02 0. -1.
         -2   -1    0    0    0  501 -0.00000000000E+00 -0.00000000000E+00 -0.18973618580E+03  0.18973618582E+03  0.25500000000E-02 0.  1.
    8880022    1    1    2    0    0 -0.38150298787E+03  0.41022125699E+03  0.40347900912E+03  0.70711595460E+03  0.15294330000E+03 0.  0.
    8880022    1    1    2    0    0  0.38150298787E+03 -0.41022125699E+03  0.21854340873E+04  0.22612695134E+04  0.15294330000E+03 0.  0.
<mgrwt>
<rscale>  0 0.58070445E+03</rscale>
<asrwt>0</asrwt>
<pdfrwt beam="1">  1        2 0.42748447E+00 0.58070445E+03</pdfrwt>
<pdfrwt beam="2">  1       -2 0.29190185E-01 0.58070445E+03</pdfrwt>
<totfact> 0.27825134E+01</totfact>
</mgrwt>
</event>
<event>
 4    1  0.4639964E-008  0.9381886E+03  0.7818608E-02  0.9379064E-01
          2   -1    0    0  501    0  0.00000000000E+00  0.00000000000E+00  0.28045632047E+04  0.28045632047E+04  0.25500000000E-02 0. -1.
         -2   -1    0    0    0  501 -0.00000000000E+00 -0.00000000000E+00 -0.50904641475E+03  0.50904641476E+03  0.25500000000E-02 0.  1.
    8880022    1    1    2    0    0  0.90298918418E+03  0.20351083584E+03  0.12178930198E+03  0.94606047066E+03  0.15294330000E+03 0.  0.
    8880022    1    1    2    0    0 -0.90298918418E+03 -0.20351083584E+03  0.21737274880E+04  0.23675491488E+04  0.15294330000E+03 0.  0.
<mgrwt>
<rscale>  0 0.93818856E+03</rscale>
<asrwt>0</asrwt>
<pdfrwt beam="1">  1        2 0.43147126E+00 0.93818856E+03</pdfrwt>
<pdfrwt beam="2">  1       -2 0.78314834E-01 0.93818856E+03</pdfrwt>
<totfact> 0.34188451E+00</totfact>
</mgrwt>
</event>
<event>
 4    1  0.4639964E-008  0.5632983E+03  0.7818608E-02  0.9984619E-01
         -2   -1    0    0    0  501 -0.00000000000E+00  0.00000000000E+00  0.26314476631E+03  0.26314476632E+03  0.25500000000E-02 0.  1.
          2   -1    0    0  501    0  0.00000000000E+00 -0.00000000000E+00 -0.24680012480E+04  0.24680012480E+04  0.25500000000E-02 0. -1.
    8880022    1    1    2    0    0  0.24088591257E+03 -0.48568231853E+03 -0.20789979501E+04  0.21539585574E+04  0.15294330000E+03 0.  0.
    8880022    1    1    2    0    0 -0.24088591257E+03  0.48568231853E+03 -0.12585853154E+03  0.57718745688E+03  0.15294330000E+03 0.  0.
<mgrwt>
<rscale>  0 0.56329831E+03</rscale>
<asrwt>0</asrwt>
<pdfrwt beam="1">  1        2 0.37969248E+00 0.56329831E+03</pdfrwt>
<pdfrwt beam="2">  1       -2 0.40483812E-01 0.56329831E+03</pdfrwt>
<totfact> 0.22639516E+01</totfact>
</mgrwt>
</event>
<event>
 4    1  0.4639964E-008  0.7723036E+03  0.7818608E-02  0.9600995E-01
         -2   -1    0    0    0  501 -0.00000000000E+00  0.00000000000E+00  0.92309303408E+03  0.92309303408E+03  0.25500000000E-02 0.  1.
          2   -1    0    0  501    0  0.00000000000E+00 -0.00000000000E+00 -0.79968781915E+03  0.79968781915E+03  0.25500000000E-02 0. -1.
    8880022    1    1    2    0    0 -0.75158031761E+03 -0.90488759816E+02  0.43914718088E+03  0.88842731214E+03  0.15294330000E+03 0.  0.
    8880022    1    1    2    0    0  0.75158031761E+03  0.90488759816E+02 -0.31574196594E+03  0.83435354109E+03  0.15294330000E+03 0. -1.
<mgrwt>
<rscale>  0 0.77230359E+03</rscale>
<asrwt>0</asrwt>
<pdfrwt beam="1">  1        2 0.12302890E+00 0.77230359E+03</pdfrwt>
<pdfrwt beam="2">  1       -2 0.14201431E+00 0.77230359E+03</pdfrwt>
<totfact> 0.12083544E+01</totfact>
</mgrwt>
</event>
<event>
 4    1  0.4639964E-008  0.2181831E+03  0.7818608E-02  0.1135245E+00
         -2   -1    0    0    0  501 -0.00000000000E+00  0.00000000000E+00  0.30221886065E+02  0.30221886172E+02  0.25500000000E-02 0.  1.
          2   -1    0    0  501    0  0.00000000000E+00 -0.00000000000E+00 -0.15933086880E+04  0.15933086880E+04  0.25500000000E-02 0. -1.
    8880022    1    1    2    0    0  0.12949370830E+03  0.86276281451E+02 -0.86821476554E+03  0.89520989122E+03  0.15294330000E+03 0.  1.
    8880022    1    1    2    0    0 -0.12949370830E+03 -0.86276281451E+02 -0.69487203638E+03  0.72832068293E+03  0.15294330000E+03 0. -1.
<mgrwt>
<rscale>  0 0.21818311E+03</rscale>
<asrwt>0</asrwt>
<pdfrwt beam="1">  1        2 0.24512435E+00 0.21818311E+03</pdfrwt>
<pdfrwt beam="2">  1       -2 0.46495222E-02 0.21818311E+03</pdfrwt>
<totfact> 0.26615108E+03</totfact>
</mgrwt>
</event>
<event>
 4    1  0.4639964E-008  0.6458915E+03  0.7818608E-02  0.9814519E-01
          2   -1    0    0  501    0  0.00000000000E+00  0.00000000000E+00  0.14936386180E+04  0.14936386180E+04  0.25500000000E-02 0. -1.
         -2   -1    0    0    0  501 -0.00000000000E+00 -0.00000000000E+00 -0.96111408149E+03  0.96111408149E+03  0.25500000000E-02 0.  1.
    8880022    1    1    2    0    0  0.27247958394E+02 -0.62693042539E+03 -0.76750484034E+03  0.10031149199E+04  0.15294330000E+03 0.  0.
    8880022    1    1    2    0    0 -0.27247958394E+02  0.62693042539E+03  0.13000293768E+04  0.14516377796E+04  0.15294330000E+03 0.  0.
<mgrwt>
<rscale>  0 0.64589153E+03</rscale>
<asrwt>0</asrwt>
<pdfrwt beam="1">  1        2 0.22979056E+00 0.64589153E+03</pdfrwt>
<pdfrwt beam="2">  1       -2 0.14786371E+00 0.64589153E+03</pdfrwt>
<totfact> 0.41604034E+00</totfact>
</mgrwt>
</event>
<event>
 4    1  0.4639964E-008  0.9787018E+03  0.7818608E-02  0.9332218E-01
          2   -1    0    0  501    0  0.00000000000E+00  0.00000000000E+00  0.13575506084E+04  0.13575506084E+04  0.25500000000E-02 0. -1.
         -2   -1    0    0    0  501 -0.00000000000E+00 -0.00000000000E+00 -0.12975297041E+04  0.12975297041E+04  0.25500000000E-02 0.  1.
    8880022    1    1    2    0    0 -0.13264661703E+03 -0.95753353455E+03 -0.86665886859E+03  0.13072699960E+04  0.15294330000E+03 0.  0.
    8880022    1    1    2    0    0  0.13264661703E+03  0.95753353455E+03  0.92667977294E+03  0.13478103165E+04  0.15294330000E+03 0.  0.
<mgrwt>
<rscale>  0 0.97870182E+03</rscale>
<asrwt>0</asrwt>
<pdfrwt beam="1">  1        2 0.20885394E+00 0.97870182E+03</pdfrwt>
<pdfrwt beam="2">  1       -2 0.19961995E+00 0.97870182E+03</pdfrwt>
<totfact> 0.20383943E+00</totfact>
</mgrwt>
</event>
<event>
 4    1  0.4639964E-008  0.1224158E+04  0.7818608E-02  0.9091970E-01
         -2   -1    0    0    0  501 -0.00000000000E+00  0.00000000000E+00  0.12792442581E+04  0.12792442581E+04  0.25500000000E-02 0.  1.
          2   -1    0    0  501    0  0.00000000000E+00 -0.00000000000E+00 -0.19841740877E+04  0.19841740877E+04  0.25500000000E-02 0. -1.
    8880022    1    1    2    0    0  0.72379364825E+02 -0.12124080144E+04 -0.13967664346E+04  0.18572883707E+04  0.15294330000E+03 0.  0.
    8880022    1    1    2    0    0 -0.72379364825E+02  0.12124080144E+04  0.69183660502E+03  0.14061299751E+04  0.15294330000E+03 0.  0.
<mgrwt>
<rscale>  0 0.12241583E+04</rscale>
<asrwt>0</asrwt>
<pdfrwt beam="1">  1        2 0.30525755E+00 0.12241583E+04</pdfrwt>
<pdfrwt beam="2">  1       -2 0.19680681E+00 0.12241583E+04</pdfrwt>
<totfact> 0.92179679E-01</totfact>
</mgrwt>
</event>
<event>
 4    1  0.4639964E-008  0.8801593E+03  0.7818608E-02  0.9450729E-01
         -2   -1    0    0    0  501 -0.00000000000E+00  0.00000000000E+00  0.41548390062E+03  0.41548390063E+03  0.25500000000E-02 0.  1.
          2   -1    0    0  501    0  0.00000000000E+00 -0.00000000000E+00 -0.19547088180E+04  0.19547088180E+04  0.25500000000E-02 0. -1.
    8880022    1    1    2    0    0 -0.33712841754E+03 -0.79851938704E+03 -0.51506127930E+03  0.10197884858E+04  0.15294330000E+03 0.  0.
    8880022    1    1    2    0    0  0.33712841754E+03  0.79851938704E+03 -0.10241636381E+04  0.13504042328E+04  0.15294330000E+03 0.  0.
<mgrwt>
<rscale>  0 0.88015932E+03</rscale>
<asrwt>0</asrwt>
<pdfrwt beam="1">  1        2 0.30072443E+00 0.88015932E+03</pdfrwt>
<pdfrwt beam="2">  1       -2 0.63920601E-01 0.88015932E+03</pdfrwt>
<totfact> 0.16283720E+01</totfact>
</mgrwt>
</event>
<event>
 4    1  0.4639964E-008  0.6306369E+03  0.7818608E-02  0.9843807E-01
          2   -1    0    0  501    0  0.00000000000E+00  0.00000000000E+00  0.25404966929E+04  0.25404966929E+04  0.25500000000E-02 0. -1.
         -2   -1    0    0    0  501 -0.00000000000E+00 -0.00000000000E+00 -0.49024757070E+03  0.49024757071E+03  0.25500000000E-02 0.  1.
    8880022    1    1    2    0    0 -0.45337090349E+03 -0.41081143770E+03  0.22753580830E+04  0.23611347425E+04  0.15294330000E+03 0.  0.
    8880022    1    1    2    0    0  0.45337090349E+03  0.41081143770E+03 -0.22510896081E+03  0.66960952108E+03  0.15294330000E+03 0.  0.
<mgrwt>
<rscale>  0 0.63063687E+03</rscale>
<asrwt>0</asrwt>
<pdfrwt beam="1">  1        2 0.39084564E+00 0.63063687E+03</pdfrwt>
<pdfrwt beam="2">  1       -2 0.75422703E-01 0.63063687E+03</pdfrwt>
<totfact> 0.55944449E+00</totfact>
</mgrwt>
</event>
<event>
 4    1  0.4639964E-008  0.5846319E+03  0.7818608E-02  0.9937813E-01
         -2   -1    0    0    0  501 -0.00000000000E+00  0.00000000000E+00  0.81904715563E+03  0.81904715564E+03  0.25500000000E-02 0.  1.
          2   -1    0    0  501    0  0.00000000000E+00 -0.00000000000E+00 -0.78677170445E+03  0.78677170445E+03  0.25500000000E-02 0. -1.
    8880022    1    1    2    0    0  0.54336884701E+03 -0.15216154437E+03 -0.53407216986E+03  0.79185072781E+03  0.15294330000E+03 0.  0.
    8880022    1    1    2    0    0 -0.54336884701E+03  0.15216154437E+03  0.56634762105E+03  0.81396813228E+03  0.15294330000E+03 0.  0.
<mgrwt>
<rscale>  0 0.58463193E+03</rscale>
<asrwt>0</asrwt>
<pdfrwt beam="1">  1        2 0.12104180E+00 0.58463193E+03</pdfrwt>
<pdfrwt beam="2">  1       -2 0.12600725E+00 0.58463193E+03</pdfrwt>
<totfact> 0.17112296E+01</totfact>
</mgrwt>
</event>
<event>
 4    1  0.4639964E-008  0.7735162E+03  0.7818608E-02  0.9599163E-01
          2   -1    0    0  501    0  0.00000000000E+00  0.00000000000E+00  0.94497289764E+03  0.94497289764E+03  0.25500000000E-02 0. -1.
         -2   -1    0    0    0  501 -0.00000000000E+00 -0.00000000000E+00 -0.70548956485E+03  0.70548956486E+03  0.25500000000E-02 0.  1.
    8880022    1    1    2    0    0  0.41991805700E+03 -0.63135131800E+03 -0.14447608666E+03  0.78689303846E+03  0.15294330000E+03 0.  0.
    8880022    1    1    2    0    0 -0.41991805700E+03  0.63135131800E+03  0.38395941945E+03  0.86356942404E+03  0.15294330000E+03 0.  0.
<mgrwt>
<rscale>  0 0.77351620E+03</rscale>
<asrwt>0</asrwt>
<pdfrwt beam="1">  1        2 0.14538045E+00 0.77351620E+03</pdfrwt>
<pdfrwt beam="2">  1       -2 0.10853686E+00 0.77351620E+03</pdfrwt>
<totfact> 0.18818787E+01</totfact>
</mgrwt>
</event>
<event>
 4    1  0.4639964E-008  0.8593937E+03  0.7818608E-02  0.9477815E-01
         -2   -1    0    0    0  501 -0.00000000000E+00  0.00000000000E+00  0.53035145484E+03  0.53035145485E+03  0.25500000000E-02 0.  1.
          2   -1    0    0  501    0  0.00000000000E+00 -0.00000000000E+00 -0.28292672681E+04  0.28292672681E+04  0.25500000000E-02 0. -1.
    8880022    1    1    2    0    0  0.73081692817E+02  0.84251113850E+03  0.47568992714E+02  0.86070925080E+03  0.15294330000E+03 0.  0.
    8880022    1    1    2    0    0 -0.73081692817E+02 -0.84251113850E+03 -0.23464848060E+04  0.24989094722E+04  0.15294330000E+03 0.  0.
<mgrwt>
<rscale>  0 0.85939374E+03</rscale>
<asrwt>0</asrwt>
<pdfrwt beam="1">  1        2 0.43527188E+00 0.85939374E+03</pdfrwt>
<pdfrwt beam="2">  1       -2 0.81592533E-01 0.85939374E+03</pdfrwt>
<totfact> 0.30516888E+00</totfact>
</mgrwt>
</event>
<event>
 4    1  0.4639964E-008  0.5745341E+03  0.7818608E-02  0.9959695E-01
          2   -1    0    0  501    0  0.00000000000E+00  0.00000000000E+00  0.11678164793E+04  0.11678164793E+04  0.25500000000E-02 0. -1.
         -2   -1    0    0    0  501 -0.00000000000E+00 -0.00000000000E+00 -0.41963405914E+03  0.41963405915E+03  0.25500000000E-02 0.  1.
    8880022    1    1    2    0    0  0.55379796281E+03 -0.23718844835E+01  0.82757475212E+03  0.10074569136E+04  0.15294330000E+03 0.  0.
    8880022    1    1    2    0    0 -0.55379796281E+03  0.23718844835E+01 -0.79392331963E+02  0.57999362482E+03  0.15294330000E+03 0.  0.
<mgrwt>
<rscale>  0 0.57453413E+03</rscale>
<asrwt>0</asrwt>
<pdfrwt beam="1">  1        2 0.17966407E+00 0.57453413E+03</pdfrwt>
<pdfrwt beam="2">  1       -2 0.64559088E-01 0.57453413E+03</pdfrwt>
<totfact> 0.45503225E+01</totfact>
</mgrwt>
</event>
<event>
 4    1  0.4639964E-008  0.4712667E+03  0.7818608E-02  0.1021563E+00
         -2   -1    0    0    0  501 -0.00000000000E+00  0.00000000000E+00  0.32715306419E+03  0.32715306420E+03  0.25500000000E-02 0.  1.
          2   -1    0    0  501    0  0.00000000000E+00 -0.00000000000E+00 -0.25257506974E+04  0.25257506974E+04  0.25500000000E-02 0. -1.
    8880022    1    1    2    0    0  0.14710404770E+03 -0.42078627325E+03  0.12048269482E+03  0.48642411677E+03  0.15294330000E+03 0.  0.
    8880022    1    1    2    0    0 -0.14710404770E+03  0.42078627325E+03 -0.23190803280E+04  0.23664796448E+04  0.15294330000E+03 0. -1.
<mgrwt>
<rscale>  0 0.47126674E+03</rscale>
<asrwt>0</asrwt>
<pdfrwt beam="1">  1        2 0.38857702E+00 0.47126674E+03</pdfrwt>
<pdfrwt beam="2">  1       -2 0.50331242E-01 0.47126674E+03</pdfrwt>
<totfact> 0.13936239E+01</totfact>
</mgrwt>
</event>
<event>
 4    1  0.4639964E-008  0.6998577E+03  0.7818608E-02  0.9717476E-01
         -2   -1    0    0    0  501 -0.00000000000E+00  0.00000000000E+00  0.33373289808E+03  0.33373289809E+03  0.25500000000E-02 0.  1.
          2   -1    0    0  501    0  0.00000000000E+00 -0.00000000000E+00 -0.21463649468E+04  0.21463649468E+04  0.25500000000E-02 0. -1.
    8880022    1    1    2    0    0 -0.16428798495E+02  0.68274393957E+03 -0.16036372618E+04  0.17497009210E+04  0.15294330000E+03 0.  0.
    8880022    1    1    2    0    0  0.16428798495E+02 -0.68274393957E+03 -0.20899478688E+03  0.73039692387E+03  0.15294330000E+03 0.  0.
<mgrwt>
<rscale>  0 0.69985773E+03</rscale>
<asrwt>0</asrwt>
<pdfrwt beam="1">  1        2 0.33020998E+00 0.69985773E+03</pdfrwt>
<pdfrwt beam="2">  1       -2 0.51343524E-01 0.69985773E+03</pdfrwt>
<totfact> 0.20728324E+01</totfact>
</mgrwt>
</event>
<event>
 4    1  0.5046398E-008  0.7726127E+03  0.7818608E-02  0.9600528E-01
          2   -1    0    0  501    0  0.00000000000E+00  0.00000000000E+00  0.30162314816E+04  0.30162314816E+04  0.25500000000E-02 0. -1.
         -2   -1    0    0    0  501 -0.00000000000E+00 -0.00000000000E+00 -0.98717769269E+03  0.98717769269E+03  0.25500000000E-02 0.  1.
    8880022    1    1    2    0    0  0.73576676256E+03  0.17940456878E+03 -0.77531873147E+03  0.10945544831E+04  0.15294330000E+03 0.  0.
    8880022    1    1    2    0    0 -0.73576676256E+03 -0.17940456878E+03  0.28043725204E+04  0.29088546911E+04  0.15294330000E+03 0.  0.
<mgrwt>
<rscale>  0 0.77261270E+03</rscale>
<asrwt>0</asrwt>
<pdfrwt beam="1">  1        2 0.46403560E+00 0.77261270E+03</pdfrwt>
<pdfrwt beam="2">  1       -2 0.15187349E+00 0.77261270E+03</pdfrwt>
<totfact> 0.52506404E-01</totfact>
</mgrwt>
</event>
<event>
 4    1  0.4639964E-008  0.5439293E+03  0.7818608E-02  0.1002909E+00
          2   -1    0    0  501    0  0.00000000000E+00  0.00000000000E+00  0.39836613815E+04  0.39836613815E+04  0.25500000000E-02 0. -1.
         -2   -1    0    0    0  501 -0.00000000000E+00 -0.00000000000E+00 -0.22549669247E+03  0.22549669248E+03  0.25500000000E-02 0.  1.
    8880022    1    1    2    0    0  0.50703084922E+03 -0.12404508590E+03  0.36025853725E+04  0.36434160461E+04  0.15294330000E+03 0.  0.
    8880022    1    1    2    0    0 -0.50703084922E+03  0.12404508590E+03  0.15557931649E+03  0.56574202790E+03  0.15294330000E+03 0.  0.
<mgrwt>
<rscale>  0 0.54392933E+03</rscale>
<asrwt>0</asrwt>
<pdfrwt beam="1">  1        2 0.61287097E+00 0.54392933E+03</pdfrwt>
<pdfrwt beam="2">  1       -2 0.34691800E-01 0.54392933E+03</pdfrwt>
<totfact> 0.32144507E+00</totfact>
</mgrwt>
</event>
<event>
 4    1  0.4639964E-008  0.2616886E+03  0.7818608E-02  0.1106133E+00
          2   -1    0    0  501    0  0.00000000000E+00  0.00000000000E+00  0.27959786653E+04  0.27959786653E+04  0.25500000000E-02 0. -1.
         -2   -1    0    0    0  501 -0.00000000000E+00 -0.00000000000E+00 -0.30842867343E+02  0.30842867449E+02  0.25500000000E-02 0.  1.
    8880022    1    1    2    0    0  0.19832553468E+03 -0.75869883905E+02  0.74123203799E+03  0.78606987231E+03  0.15294330000E+03 0.  0.
    8880022    1    1    2    0    0 -0.19832553468E+03  0.75869883905E+02  0.20239037600E+04  0.20407516605E+04  0.15294330000E+03 0. -1.
<mgrwt>
<rscale>  0 0.26168857E+03</rscale>
<asrwt>0</asrwt>
<pdfrwt beam="1">  1        2 0.43015046E+00 0.26168857E+03</pdfrwt>
<pdfrwt beam="2">  1       -2 0.47450577E-02 0.26168857E+03</pdfrwt>
<totfact> 0.58216633E+02</totfact>
</mgrwt>
</event>
<event>
 4    1  0.4639964E-008  0.5048931E+03  0.7818608E-02  0.1012510E+00
          2   -1    0    0  501    0  0.00000000000E+00  0.00000000000E+00  0.71028349951E+03  0.71028349952E+03  0.25500000000E-02 0. -1.
         -2   -1    0    0    0  501 -0.00000000000E+00 -0.00000000000E+00 -0.35993977737E+03  0.35993977738E+03  0.25500000000E-02 0.  1.
    8880022    1    1    2    0    0 -0.40790232014E+03 -0.25522752241E+03  0.14633911570E+03  0.52567307403E+03  0.15294330000E+03 0. -1.
    8880022    1    1    2    0    0  0.40790232014E+03  0.25522752241E+03  0.20400460644E+03  0.54455020286E+03  0.15294330000E+03 0.  1.
<mgrwt>
<rscale>  0 0.50489310E+03</rscale>
<asrwt>0</asrwt>
<pdfrwt beam="1">  1        2 0.10927438E+00 0.50489310E+03</pdfrwt>
<pdfrwt beam="2">  1       -2 0.55375350E-01 0.50489310E+03</pdfrwt>
<totfact> 0.12681204E+02</totfact>
</mgrwt>
</event>
<event>
 4    1  0.4639964E-008  0.1937551E+03  0.7818608E-02  0.1155117E+00
          2   -1    0    0  501    0  0.00000000000E+00  0.00000000000E+00  0.31583240043E+04  0.31583240043E+04  0.25500000000E-02 0. -1.
         -2   -1    0    0    0  501 -0.00000000000E+00 -0.00000000000E+00 -0.41567912387E+02  0.41567912466E+02  0.25500000000E-02 0.  1.
    8880022    1    1    2    0    0 -0.68946895711E+02  0.96931379523E+02  0.29103553818E+04  0.29167978107E+04  0.15294330000E+03 0. -1.
    8880022    1    1    2    0    0  0.68946895711E+02 -0.96931379523E+02  0.20640071005E+03  0.28309410606E+03  0.15294330000E+03 0.  0.
<mgrwt>
<rscale>  0 0.19375505E+03</rscale>
<asrwt>0</asrwt>
<pdfrwt beam="1">  1        2 0.48589587E+00 0.19375505E+03</pdfrwt>
<pdfrwt beam="2">  1       -2 0.63950652E-02 0.19375505E+03</pdfrwt>
<totfact> 0.23102832E+02</totfact>
</mgrwt>
</event>
<event>
 4    1  0.4639964E-008  0.7354271E+03  0.7818608E-02  0.9658494E-01
         -2   -1    0    0    0  501 -0.00000000000E+00  0.00000000000E+00  0.75529862682E+03  0.75529862683E+03  0.25500000000E-02 0.  1.
          2   -1    0    0  501    0  0.00000000000E+00 -0.00000000000E+00 -0.20608158915E+04  0.20608158915E+04  0.25500000000E-02 0. -1.
    8880022    1    1    2    0    0  0.71917657116E+03  0.15699335906E+02 -0.17901749873E+04  0.19353499807E+04  0.15294330000E+03 0.  0.
    8880022    1    1    2    0    0 -0.71917657116E+03 -0.15699335906E+02  0.48465772261E+03  0.88076453764E+03  0.15294330000E+03 0.  0.
<mgrwt>
<rscale>  0 0.73542713E+03</rscale>
<asrwt>0</asrwt>
<pdfrwt beam="1">  1        2 0.31704860E+00 0.73542713E+03</pdfrwt>
<pdfrwt beam="2">  1       -2 0.11619979E+00 0.73542713E+03</pdfrwt>
<totfact> 0.36965333E+00</totfact>
</mgrwt>
</event>
<event>
 4    1  0.4639964E-008  0.8318945E+03  0.7818608E-02  0.9514965E-01
         -2   -1    0    0    0  501 -0.00000000000E+00  0.00000000000E+00  0.17020723481E+04  0.17020723481E+04  0.25500000000E-02 0.  1.
          2   -1    0    0  501    0  0.00000000000E+00 -0.00000000000E+00 -0.66061322107E+03  0.66061322108E+03  0.25500000000E-02 0. -1.
    8880022    1    1    2    0    0  0.25835393626E+03 -0.77582857605E+03  0.12532801311E+04  0.15042471459E+04  0.15294330000E+03 0.  0.
    8880022    1    1    2    0    0 -0.25835393626E+03  0.77582857605E+03 -0.21182100410E+03  0.85843842330E+03  0.15294330000E+03 0.  0.
<mgrwt>
<rscale>  0 0.83189446E+03</rscale>
<asrwt>0</asrwt>
<pdfrwt beam="1">  1        2 0.10163280E+00 0.83189446E+03</pdfrwt>
<pdfrwt beam="2">  1       -2 0.26185728E+00 0.83189446E+03</pdfrwt>
<totfact> 0.24455847E+00</totfact>
</mgrwt>
</event>
<event>
 4    1  0.4639964E-008  0.4667324E+03  0.7818608E-02  0.1022847E+00
         -2   -1    0    0    0  501 -0.00000000000E+00  0.00000000000E+00  0.68882372559E+03  0.68882372560E+03  0.25500000000E-02 0.  1.
          2   -1    0    0  501    0  0.00000000000E+00 -0.00000000000E+00 -0.45727968882E+03  0.45727968883E+03  0.25500000000E-02 0. -1.
    8880022    1    1    2    0    0 -0.15628970839E+03  0.41233602215E+03  0.43401674653E+03  0.63734579107E+03  0.15294330000E+03 0.  0.
    8880022    1    1    2    0    0  0.15628970839E+03 -0.41233602215E+03 -0.20247270975E+03  0.50875762335E+03  0.15294330000E+03 0.  0.
<mgrwt>
<rscale>  0 0.46673239E+03</rscale>
<asrwt>0</asrwt>
<pdfrwt beam="1">  1        2 0.70350722E-01 0.46673239E+03</pdfrwt>
<pdfrwt beam="2">  1       -2 0.10597288E+00 0.46673239E+03</pdfrwt>
<totfact> 0.50806348E+01</totfact>
</mgrwt>
</event>
<event>
 4    1  0.4639964E-008  0.2718414E+03  0.7818608E-02  0.1100230E+00
          2   -1    0    0  501    0  0.00000000000E+00  0.00000000000E+00  0.15909280155E+04  0.15909280155E+04  0.25500000000E-02 0. -1.
         -2   -1    0    0    0  501 -0.00000000000E+00 -0.00000000000E+00 -0.14370388473E+03  0.14370388476E+03  0.25500000000E-02 0.  1.
    8880022    1    1    2    0    0  0.14419735032E+03  0.17237526673E+03  0.14371182529E+04  0.14626026919E+04  0.15294330000E+03 0.  0.
    8880022    1    1    2    0    0 -0.14419735032E+03 -0.17237526673E+03  0.10105877836E+02  0.27202920836E+03  0.15294330000E+03 0.  1.
<mgrwt>
<rscale>  0 0.27184143E+03</rscale>
<asrwt>0</asrwt>
<pdfrwt beam="1">  1        2 0.24475816E+00 0.27184143E+03</pdfrwt>
<pdfrwt beam="2">  1       -2 0.22108290E-01 0.27184143E+03</pdfrwt>
<totfact> 0.21714141E+02</totfact>
</mgrwt>
</event>
<event>
 4    1  0.4639964E-008  0.2017791E+03  0.7818608E-02  0.1148247E+00
          2   -1    0    0  501    0  0.00000000000E+00  0.00000000000E+00  0.17704093059E+03  0.17704093061E+03  0.25500000000E-02 0. -1.
         -2   -1    0    0    0  501 -0.00000000000E+00 -0.00000000000E+00 -0.51172093352E+03  0.51172093353E+03  0.25500000000E-02 0.  1.
    8880022    1    1    2    0    0  0.10921180297E+03 -0.73456997225E+02 -0.42287603316E+03  0.46854982743E+03  0.15294330000E+03 0.  0.
    8880022    1    1    2    0    0 -0.10921180297E+03  0.73456997225E+02  0.88196030228E+02  0.22021203671E+03  0.15294330000E+03 0. -1.
<mgrwt>
<rscale>  0 0.20177909E+03</rscale>
<asrwt>0</asrwt>
<pdfrwt beam="1">  1        2 0.27237066E-01 0.20177909E+03</pdfrwt>
<pdfrwt beam="2">  1       -2 0.78726297E-01 0.20177909E+03</pdfrwt>
<totfact> 0.28981620E+02</totfact>
</mgrwt>
</event>
<event>
 4    1  0.4639964E-008  0.9840164E+03  0.7818608E-02  0.9326251E-01
          2   -1    0    0  501    0  0.00000000000E+00  0.00000000000E+00  0.16040720317E+04  0.16040720317E+04  0.25500000000E-02 0. -1.
         -2   -1    0    0    0  501 -0.00000000000E+00 -0.00000000000E+00 -0.11874738482E+04  0.11874738482E+04  0.25500000000E-02 0.  1.
    8880022    1    1    2    0    0  0.86291064881E+03  0.44752849354E+03 -0.77039272238E+03  0.12497172240E+04  0.15294330000E+03 0.  0.
    8880022    1    1    2    0    0 -0.86291064881E+03 -0.44752849354E+03  0.11869909058E+04  0.15418286558E+04  0.15294330000E+03 0.  0.
<mgrwt>
<rscale>  0 0.98401636E+03</rscale>
<asrwt>0</asrwt>
<pdfrwt beam="1">  1        2 0.24678031E+00 0.98401636E+03</pdfrwt>
<pdfrwt beam="2">  1       -2 0.18268828E+00 0.98401636E+03</pdfrwt>
<totfact> 0.19193711E+00</totfact>
</mgrwt>
</event>
<event>
 4    1  0.4639964E-008  0.2371651E+03  0.7818608E-02  0.1121696E+00
          2   -1    0    0  501    0  0.00000000000E+00  0.00000000000E+00  0.21634298583E+04  0.21634298583E+04  0.25500000000E-02 0. -1.
         -2   -1    0    0    0  501 -0.00000000000E+00 -0.00000000000E+00 -0.16108886785E+03  0.16108886787E+03  0.25500000000E-02 0.  1.
    8880022    1    1    2    0    0  0.17642335637E+03 -0.41598277764E+02  0.20655131957E+04  0.20790844215E+04  0.15294330000E+03 0. -1.
    8880022    1    1    2    0    0 -0.17642335637E+03  0.41598277764E+02 -0.63172205180E+02  0.24543430467E+03  0.15294330000E+03 0.  0.
<mgrwt>
<rscale>  0 0.23716507E+03</rscale>
<asrwt>0</asrwt>
<pdfrwt beam="1">  1        2 0.33283536E+00 0.23716507E+03</pdfrwt>
<pdfrwt beam="2">  1       -2 0.24782903E-01 0.23716507E+03</pdfrwt>
<totfact> 0.89734301E+01</totfact>
</mgrwt>
</event>
<event>
 4    1  0.4639964E-008  0.4282084E+03  0.7818608E-02  0.1034427E+00
          2   -1    0    0  501    0  0.00000000000E+00  0.00000000000E+00  0.17349998033E+04  0.17349998033E+04  0.25500000000E-02 0. -1.
         -2   -1    0    0    0  501 -0.00000000000E+00 -0.00000000000E+00 -0.24492783610E+03  0.24492783611E+03  0.25500000000E-02 0.  1.
    8880022    1    1    2    0    0 -0.39466308857E+03  0.64898487366E+02 -0.13914788901E+01  0.42821064486E+03  0.15294330000E+03 0.  0.
    8880022    1    1    2    0    0  0.39466308857E+03 -0.64898487366E+02  0.14914634461E+04  0.15517169946E+04  0.15294330000E+03 0.  0.
<mgrwt>
<rscale>  0 0.42820838E+03</rscale>
<asrwt>0</asrwt>
<pdfrwt beam="1">  1        2 0.26692305E+00 0.42820838E+03</pdfrwt>
<pdfrwt beam="2">  1       -2 0.37681205E-01 0.42820838E+03</pdfrwt>
<totfact> 0.66752883E+01</totfact>
</mgrwt>
</event>
<event>
 4    1  0.4639964E-008  0.3089995E+03  0.7818608E-02  0.1080826E+00
         -2   -1    0    0    0  501 -0.00000000000E+00  0.00000000000E+00  0.37520025387E+03  0.37520025388E+03  0.25500000000E-02 0.  1.
          2   -1    0    0  501    0  0.00000000000E+00 -0.00000000000E+00 -0.24273426312E+04  0.24273426312E+04  0.25500000000E-02 0. -1.
    8880022    1    1    2    0    0 -0.96243791285E+02  0.25065149587E+03 -0.23518556861E+04  0.23720678450E+04  0.15294330000E+03 0.  0.
    8880022    1    1    2    0    0  0.96243791285E+02 -0.25065149587E+03  0.29971330875E+03  0.43047504016E+03  0.15294330000E+03 0.  1.
<mgrwt>
<rscale>  0 0.30899950E+03</rscale>
<asrwt>0</asrwt>
<pdfrwt beam="1">  1        2 0.37343732E+00 0.30899950E+03</pdfrwt>
<pdfrwt beam="2">  1       -2 0.57723118E-01 0.30899950E+03</pdfrwt>
<totfact> 0.12587047E+01</totfact>
</mgrwt>
</event>
<event>
 4    1  0.4639964E-008  0.7225612E+03  0.7818608E-02  0.9679409E-01
          2   -1    0    0  501    0  0.00000000000E+00  0.00000000000E+00  0.12052199040E+04  0.12052199040E+04  0.25500000000E-02 0. -1.
         -2   -1    0    0    0  501 -0.00000000000E+00 -0.00000000000E+00 -0.70423841432E+03  0.70423841432E+03  0.25500000000E-02 0.  1.
    8880022    1    1    2    0    0  0.68217730914E+02  0.70288641117E+03  0.84278861587E+03  0.11101293933E+04  0.15294330000E+03 0.  0.
    8880022    1    1    2    0    0 -0.68217730914E+02 -0.70288641117E+03 -0.34180712620E+03  0.79932892501E+03  0.15294330000E+03 0.  0.
<mgrwt>
<rscale>  0 0.72256115E+03</rscale>
<asrwt>0</asrwt>
<pdfrwt beam="1">  1        2 0.18541845E+00 0.72256115E+03</pdfrwt>
<pdfrwt beam="2">  1       -2 0.10834437E+00 0.72256115E+03</pdfrwt>
<totfact> 0.13112469E+01</totfact>
</mgrwt>
</event>
<event>
 4    1  0.4639964E-008  0.1600716E+04  0.7818608E-02  0.8820108E-01
          2   -1    0    0  501    0  0.00000000000E+00  0.00000000000E+00  0.29535982773E+04  0.29535982773E+04  0.25500000000E-02 0. -1.
         -2   -1    0    0    0  501 -0.00000000000E+00 -0.00000000000E+00 -0.11086824831E+04  0.11086824831E+04  0.25500000000E-02 0.  1.
    8880022    1    1    2    0    0  0.15918648744E+04  0.69750874252E+02 -0.24860086637E+02  0.16009086918E+04  0.15294330000E+03 0.  0.
    8880022    1    1    2    0    0 -0.15918648744E+04 -0.69750874252E+02  0.18697758808E+04  0.24613720686E+04  0.15294330000E+03 0.  0.
<mgrwt>
<rscale>  0 0.16007157E+04</rscale>
<asrwt>0</asrwt>
<pdfrwt beam="1">  1        2 0.45439974E+00 0.16007157E+04</pdfrwt>
<pdfrwt beam="2">  1       -2 0.17056654E+00 0.16007157E+04</pdfrwt>
<totfact> 0.36717177E-01</totfact>
</mgrwt>
</event>
<event>
 4    1  0.4639964E-008  0.8247445E+03  0.7818608E-02  0.9524875E-01
          2   -1    0    0  501    0  0.00000000000E+00  0.00000000000E+00  0.34923241218E+04  0.34923241218E+04  0.25500000000E-02 0. -1.
         -2   -1    0    0    0  501 -0.00000000000E+00 -0.00000000000E+00 -0.21960234594E+03  0.21960234595E+03  0.25500000000E-02 0.  1.
    8880022    1    1    2    0    0  0.27939157177E+03  0.76075761491E+03  0.10122654110E+04  0.13057123398E+04  0.15294330000E+03 0.  0.
    8880022    1    1    2    0    0 -0.27939157177E+03 -0.76075761491E+03  0.22604563648E+04  0.24062141279E+04  0.15294330000E+03 0. -1.
<mgrwt>
<rscale>  0 0.82474448E+03</rscale>
<asrwt>0</asrwt>
<pdfrwt beam="1">  1        2 0.53728062E+00 0.82474448E+03</pdfrwt>
<pdfrwt beam="2">  1       -2 0.33784977E-01 0.82474448E+03</pdfrwt>
<totfact> 0.71920878E+00</totfact>
</mgrwt>
</event>
<event>
 4    1  0.4639964E-008  0.2041907E+03  0.7818608E-02  0.1146251E+00
         -2   -1    0    0    0  501 -0.00000000000E+00  0.00000000000E+00  0.16179432501E+03  0.16179432503E+03  0.25500000000E-02 0.  1.
          2   -1    0    0  501    0  0.00000000000E+00 -0.00000000000E+00 -0.91324931438E+03  0.91324931439E+03  0.25500000000E-02 0. -1.
    8880022    1    1    2    0    0 -0.62331153586E+02 -0.12007080707E+03 -0.83114034203E+03  0.85585518201E+03  0.15294330000E+03 0.  0.
    8880022    1    1    2    0    0  0.62331153586E+02  0.12007080707E+03  0.79685352652E+02  0.21918845740E+03  0.15294330000E+03 0.  1.
<mgrwt>
<rscale>  0 0.20419066E+03</rscale>
<asrwt>0</asrwt>
<pdfrwt beam="1">  1        2 0.14049989E+00 0.20419066E+03</pdfrwt>
<pdfrwt beam="2">  1       -2 0.24891435E-01 0.20419066E+03</pdfrwt>
<totfact> 0.43216075E+02</totfact>
</mgrwt>
</event>
<event>
 4    1  0.4639964E-008  0.4314649E+03  0.7818608E-02  0.1033398E+00
         -2   -1    0    0    0  501 -0.00000000000E+00  0.00000000000E+00  0.15877600573E+03  0.15877600575E+03  0.25500000000E-02 0.  1.
          2   -1    0    0  501    0  0.00000000000E+00 -0.00000000000E+00 -0.22037480378E+04  0.22037480378E+04  0.25500000000E-02 0. -1.
    8880022    1    1    2    0    0 -0.40342408362E+03 -0.43913434567E+01 -0.18305592779E+04  0.18807203934E+04  0.15294330000E+03 0.  0.
    8880022    1    1    2    0    0  0.40342408362E+03  0.43913434567E+01 -0.21441275413E+03  0.48180365014E+03  0.15294330000E+03 0.  0.
<mgrwt>
<rscale>  0 0.43146486E+03</rscale>
<asrwt>0</asrwt>
<pdfrwt beam="1">  1        2 0.33903814E+00 0.43146486E+03</pdfrwt>
<pdfrwt beam="2">  1       -2 0.24427079E-01 0.43146486E+03</pdfrwt>
<totfact> 0.83149489E+01</totfact>
</mgrwt>
</event>
<event>
 4    1  0.4639964E-008  0.1611595E+03  0.7818608E-02  0.1187394E+00
          2   -1    0    0  501    0  0.00000000000E+00  0.00000000000E+00  0.83372378735E+03  0.83372378735E+03  0.25500000000E-02 0. -1.
         -2   -1    0    0    0  501 -0.00000000000E+00 -0.00000000000E+00 -0.48090811154E+03  0.48090811155E+03  0.25500000000E-02 0.  1.
    8880022    1    1    2    0    0  0.19330814741E+01  0.50763967287E+02  0.81207757510E+03  0.82791446307E+03  0.15294330000E+03 0.  0.
    8880022    1    1    2    0    0 -0.19330814741E+01 -0.50763967287E+02 -0.45926189929E+03  0.48671743582E+03  0.15294330000E+03 0.  1.
<mgrwt>
<rscale>  0 0.16115946E+03</rscale>
<asrwt>0</asrwt>
<pdfrwt beam="1">  1        2 0.12826520E+00 0.16115946E+03</pdfrwt>
<pdfrwt beam="2">  1       -2 0.73985863E-01 0.16115946E+03</pdfrwt>
<totfact> 0.59428534E+01</totfact>
</mgrwt>
</event>
<event>
 4    1  0.4639964E-008  0.5832326E+03  0.7818608E-02  0.9940817E-01
          2   -1    0    0  501    0  0.00000000000E+00  0.00000000000E+00  0.27586896172E+04  0.27586896172E+04  0.25500000000E-02 0. -1.
         -2   -1    0    0    0  501 -0.00000000000E+00 -0.00000000000E+00 -0.26290781819E+03  0.26290781821E+03  0.25500000000E-02 0.  1.
    8880022    1    1    2    0    0 -0.26429322168E+03 -0.49690816997E+03  0.23488011426E+04  0.24201295620E+04  0.15294330000E+03 0.  0.
    8880022    1    1    2    0    0  0.26429322168E+03  0.49690816997E+03  0.14698065646E+03  0.60146787346E+03  0.15294330000E+03 0.  0.
<mgrwt>
<rscale>  0 0.58323262E+03</rscale>
<asrwt>0</asrwt>
<pdfrwt beam="1">  1        2 0.42441377E+00 0.58323262E+03</pdfrwt>
<pdfrwt beam="2">  1       -2 0.40447359E-01 0.58323262E+03</pdfrwt>
<totfact> 0.15413849E+01</totfact>
</mgrwt>
</event>
<event>
 4    1  0.4639964E-008  0.2339009E+03  0.7818608E-02  0.1123924E+00
         -2   -1    0    0    0  501 -0.00000000000E+00  0.00000000000E+00  0.28541311840E+03  0.28541311841E+03  0.25500000000E-02 0.  1.
          2   -1    0    0  501    0  0.00000000000E+00 -0.00000000000E+00 -0.19814373662E+03  0.19814373664E+03  0.25500000000E-02 0. -1.
    8880022    1    1    2    0    0 -0.14527358888E+03  0.10106226917E+03 -0.14199618478E-01  0.23390094290E+03  0.15294330000E+03 0.  0.
    8880022    1    1    2    0    0  0.14527358888E+03 -0.10106226917E+03  0.87283581398E+02  0.24965591215E+03  0.15294330000E+03 0.  0.
<mgrwt>
<rscale>  0 0.23390094E+03</rscale>
<asrwt>0</asrwt>
<pdfrwt beam="1">  1        2 0.30483652E-01 0.23390094E+03</pdfrwt>
<pdfrwt beam="2">  1       -2 0.43909711E-01 0.23390094E+03</pdfrwt>
<totfact> 0.85582285E+02</totfact>
</mgrwt>
</event>
<event>
 4    1  0.4639964E-008  0.1829101E+03  0.7818608E-02  0.1165016E+00
          2   -1    0    0  501    0  0.00000000000E+00  0.00000000000E+00  0.93561882501E+03  0.93561882501E+03  0.25500000000E-02 0. -1.
         -2   -1    0    0    0  501 -0.00000000000E+00 -0.00000000000E+00 -0.52913982038E+02  0.52913982099E+02  0.25500000000E-02 0.  1.
    8880022    1    1    2    0    0  0.48989178558E+02  0.87547173277E+02  0.15991594598E+03  0.24295927634E+03  0.15294330000E+03 0.  0.
    8880022    1    1    2    0    0 -0.48989178558E+02 -0.87547173277E+02  0.72278889699E+03  0.74557353077E+03  0.15294330000E+03 0.  0.
<mgrwt>
<rscale>  0 0.18291009E+03</rscale>
<asrwt>0</asrwt>
<pdfrwt beam="1">  1        2 0.14394135E+00 0.18291009E+03</pdfrwt>
<pdfrwt beam="2">  1       -2 0.81406129E-02 0.18291009E+03</pdfrwt>
<totfact> 0.26304897E+03</totfact>
</mgrwt>
</event>
<event>
 4    1  0.4639964E-008  0.7617318E+03  0.7818608E-02  0.9617123E-01
          2   -1    0    0  501    0  0.00000000000E+00  0.00000000000E+00  0.24038829590E+04  0.24038829590E+04  0.25500000000E-02 0. -1.
         -2   -1    0    0    0  501 -0.00000000000E+00 -0.00000000000E+00 -0.38773302447E+03  0.38773302448E+03  0.25500000000E-02 0.  1.
    8880022    1    1    2    0    0  0.23778743441E+03  0.70731948426E+03  0.15050667802E+03  0.77645838905E+03  0.15294330000E+03 0.  0.
    8880022    1    1    2    0    0 -0.23778743441E+03 -0.70731948426E+03  0.18656432565E+04  0.20151575944E+04  0.15294330000E+03 0.  0.
<mgrwt>
<rscale>  0 0.76173182E+03</rscale>
<asrwt>0</asrwt>
<pdfrwt beam="1">  1        2 0.36982815E+00 0.76173182E+03</pdfrwt>
<pdfrwt beam="2">  1       -2 0.59651233E-01 0.76173182E+03</pdfrwt>
<totfact> 0.10824055E+01</totfact>
</mgrwt>
</event>
<event>
 4    1  0.4639964E-008  0.6298977E+03  0.7818608E-02  0.9845249E-01
         -2   -1    0    0    0  501 -0.00000000000E+00  0.00000000000E+00  0.57451280983E+03  0.57451280983E+03  0.25500000000E-02 0.  1.
          2   -1    0    0  501    0  0.00000000000E+00 -0.00000000000E+00 -0.12460146086E+04  0.12460146086E+04  0.25500000000E-02 0. -1.
    8880022    1    1    2    0    0  0.21360804438E+03 -0.57249543149E+03  0.27197226266E+03  0.68610493394E+03  0.15294330000E+03 0.  0.
    8880022    1    1    2    0    0 -0.21360804438E+03  0.57249543149E+03 -0.94347406143E+03  0.11344224845E+04  0.15294330000E+03 0.  0.
<mgrwt>
<rscale>  0 0.62989767E+03</rscale>
<asrwt>0</asrwt>
<pdfrwt beam="1">  1        2 0.19169455E+00 0.62989767E+03</pdfrwt>
<pdfrwt beam="2">  1       -2 0.88386587E-01 0.62989767E+03</pdfrwt>
<totfact> 0.20281833E+01</totfact>
</mgrwt>
</event>
<event>
 4    1  0.4639964E-008  0.7476321E+03  0.7818608E-02  0.9639073E-01
         -2   -1    0    0    0  501 -0.00000000000E+00  0.00000000000E+00  0.63436339055E+03  0.63436339056E+03  0.25500000000E-02 0.  1.
          2   -1    0    0  501    0  0.00000000000E+00 -0.00000000000E+00 -0.20818820974E+04  0.20818820974E+04  0.25500000000E-02 0. -1.
    8880022    1    1    2    0    0  0.39838514108E+03 -0.61388221032E+03 -0.17551862511E+04  0.19077820939E+04  0.15294330000E+03 0.  0.
    8880022    1    1    2    0    0 -0.39838514108E+03  0.61388221032E+03  0.30766754422E+03  0.80846339408E+03  0.15294330000E+03 0.  0.
<mgrwt>
<rscale>  0 0.74763209E+03</rscale>
<asrwt>0</asrwt>
<pdfrwt beam="1">  1        2 0.32028955E+00 0.74763209E+03</pdfrwt>
<pdfrwt beam="2">  1       -2 0.97594369E-01 0.74763209E+03</pdfrwt>
<totfact> 0.54644656E+00</totfact>
</mgrwt>
</event>
<event>
 4    1  0.4639964E-008  0.4430747E+03  0.7818608E-02  0.1029808E+00
         -2   -1    0    0    0  501 -0.00000000000E+00  0.00000000000E+00  0.62101173897E+03  0.62101173897E+03  0.25500000000E-02 0.  1.
          2   -1    0    0  501    0  0.00000000000E+00 -0.00000000000E+00 -0.97498068867E+03  0.97498068867E+03  0.25500000000E-02 0. -1.
    8880022    1    1    2    0    0 -0.41352978774E+03  0.43779671259E+02 -0.83297732910E+03  0.94348631616E+03  0.15294330000E+03 0. -1.
    8880022    1    1    2    0    0  0.41352978774E+03 -0.43779671259E+02  0.47900837940E+03  0.65250611148E+03  0.15294330000E+03 0.  0.
<mgrwt>
<rscale>  0 0.44307471E+03</rscale>
<asrwt>0</asrwt>
<pdfrwt beam="1">  1        2 0.14999703E+00 0.44307471E+03</pdfrwt>
<pdfrwt beam="2">  1       -2 0.95540267E-01 0.44307471E+03</pdfrwt>
<totfact> 0.25416544E+01</totfact>
</mgrwt>
</event>
<event>
 4    1  0.4639964E-008  0.5008471E+03  0.7818608E-02  0.1013558E+00
         -2   -1    0    0    0  501 -0.00000000000E+00  0.00000000000E+00  0.73812317347E+03  0.73812317347E+03  0.25500000000E-02 0.  1.
          2   -1    0    0  501    0  0.00000000000E+00 -0.00000000000E+00 -0.36748695794E+03  0.36748695795E+03  0.25500000000E-02 0. -1.
    8880022    1    1    2    0    0  0.42440019940E+03 -0.21757906897E+03  0.33706804958E+02  0.50198006157E+03  0.15294330000E+03 0.  0.
    8880022    1    1    2    0    0 -0.42440019940E+03  0.21757906897E+03  0.33692941057E+03  0.60363006985E+03  0.15294330000E+03 0.  0.
<mgrwt>
<rscale>  0 0.50084712E+03</rscale>
<asrwt>0</asrwt>
<pdfrwt beam="1">  1        2 0.56536456E-01 0.50084712E+03</pdfrwt>
<pdfrwt beam="2">  1       -2 0.11355741E+00 0.50084712E+03</pdfrwt>
<totfact> 0.54749921E+01</totfact>
</mgrwt>
</event>
<event>
 4    1  0.4639964E-008  0.3867219E+03  0.7818608E-02  0.1048477E+00
          2   -1    0    0  501    0  0.00000000000E+00  0.00000000000E+00  0.16124570311E+04  0.16124570311E+04  0.25500000000E-02 0. -1.
         -2   -1    0    0    0  501 -0.00000000000E+00 -0.00000000000E+00 -0.10987486353E+03  0.10987486356E+03  0.25500000000E-02 0.  1.
    8880022    1    1    2    0    0  0.34934100862E+03  0.64210823859E+02  0.10912790548E+04  0.11577753662E+04  0.15294330000E+03 0. -1.
    8880022    1    1    2    0    0 -0.34934100862E+03 -0.64210823859E+02  0.41130311277E+03  0.56455652843E+03  0.15294330000E+03 0.  0.
<mgrwt>
<rscale>  0 0.38672189E+03</rscale>
<asrwt>0</asrwt>
<pdfrwt beam="1">  1        2 0.24807031E+00 0.38672189E+03</pdfrwt>
<pdfrwt beam="2">  1       -2 0.16903825E-01 0.38672189E+03</pdfrwt>
<totfact> 0.32906892E+02</totfact>
</mgrwt>
</event>
<event>
 4    1  0.4639964E-008  0.2518354E+03  0.7818608E-02  0.1112150E+00
         -2   -1    0    0    0  501 -0.00000000000E+00  0.00000000000E+00  0.42855407018E+02  0.42855407094E+02  0.25500000000E-02 0.  1.
          2   -1    0    0  501    0  0.00000000000E+00 -0.00000000000E+00 -0.29865789868E+04  0.29865789868E+04  0.25500000000E-02 0. -1.
    8880022    1    1    2    0    0  0.37199391387E+02 -0.19658495351E+03 -0.39599866636E+03  0.46929312315E+03  0.15294330000E+03 0.  1.
    8880022    1    1    2    0    0 -0.37199391387E+02  0.19658495351E+03 -0.25477249134E+04  0.25601412707E+04  0.15294330000E+03 0.  0.
<mgrwt>
<rscale>  0 0.25183545E+03</rscale>
<asrwt>0</asrwt>
<pdfrwt beam="1">  1        2 0.45947353E+00 0.25183545E+03</pdfrwt>
<pdfrwt beam="2">  1       -2 0.65931419E-02 0.25183545E+03</pdfrwt>
<totfact> 0.27323687E+02</totfact>
</mgrwt>
</event>
<event>
 4    1  0.4639964E-008  0.8692393E+03  0.7818608E-02  0.9464872E-01
          2   -1    0    0  501    0  0.00000000000E+00  0.00000000000E+00  0.20970484407E+04  0.20970484407E+04  0.25500000000E-02 0. -1.
         -2   -1    0    0    0  501 -0.00000000000E+00 -0.00000000000E+00 -0.47443942260E+03  0.47443942261E+03  0.25500000000E-02 0.  1.
    8880022    1    1    2    0    0  0.29853368613E+03 -0.80191204285E+03  0.14419314379E+04  0.16836695670E+04  0.15294330000E+03 0.  0.
    8880022    1    1    2    0    0 -0.29853368613E+03  0.80191204285E+03  0.18067758016E+03  0.88781829628E+03  0.15294330000E+03 0.  0.
<mgrwt>
<rscale>  0 0.86923929E+03</rscale>
<asrwt>0</asrwt>
<pdfrwt beam="1">  1        2 0.32262284E+00 0.86923929E+03</pdfrwt>
<pdfrwt beam="2">  1       -2 0.72990680E-01 0.86923929E+03</pdfrwt>
<totfact> 0.10203998E+01</totfact>
</mgrwt>
</event>
<event>
 4    1  0.4639964E-008  0.4537288E+03  0.7818608E-02  0.1026616E+00
         -2   -1    0    0    0  501 -0.00000000000E+00  0.00000000000E+00  0.27971777437E+03  0.27971777438E+03  0.25500000000E-02 0.  1.
          2   -1    0    0  501    0  0.00000000000E+00 -0.00000000000E+00 -0.75801271711E+03  0.75801271711E+03  0.25500000000E-02 0. -1.
    8880022    1    1    2    0    0  0.19750763201E+03 -0.37877294050E+03 -0.32758541241E+03  0.55962671541E+03  0.15294330000E+03 0.  0.
    8880022    1    1    2    0    0 -0.19750763201E+03  0.37877294050E+03 -0.15070953033E+03  0.47810377608E+03  0.15294330000E+03 0.  0.
<mgrwt>
<rscale>  0 0.45372884E+03</rscale>
<asrwt>0</asrwt>
<pdfrwt beam="1">  1        2 0.11661734E+00 0.45372884E+03</pdfrwt>
<pdfrwt beam="2">  1       -2 0.43033504E-01 0.45372884E+03</pdfrwt>
<totfact> 0.19483227E+02</totfact>
</mgrwt>
</event>
<event>
 4    1  0.4639964E-008  0.6863426E+03  0.7818608E-02  0.9740877E-01
          2   -1    0    0  501    0  0.00000000000E+00  0.00000000000E+00  0.23715411642E+04  0.23715411642E+04  0.25500000000E-02 0. -1.
         -2   -1    0    0    0  501 -0.00000000000E+00 -0.00000000000E+00 -0.41686304402E+03  0.41686304403E+03  0.25500000000E-02 0.  1.
    8880022    1    1    2    0    0 -0.48455396915E+03  0.46139136147E+03  0.19860956092E+04  0.21013428943E+04  0.15294330000E+03 0.  0.
    8880022    1    1    2    0    0  0.48455396915E+03 -0.46139136147E+03 -0.31417489040E+02  0.68706131393E+03  0.15294330000E+03 0.  1.
<mgrwt>
<rscale>  0 0.68634262E+03</rscale>
<asrwt>0</asrwt>
<pdfrwt beam="1">  1        2 0.36485248E+00 0.68634262E+03</pdfrwt>
<pdfrwt beam="2">  1       -2 0.64132777E-01 0.68634262E+03</pdfrwt>
<totfact> 0.97990067E+00</totfact>
</mgrwt>
</event>
<event>
 4    1  0.4639964E-008  0.5284863E+03  0.7818608E-02  0.1006600E+00
          2   -1    0    0  501    0  0.00000000000E+00  0.00000000000E+00  0.12133555831E+04  0.12133555831E+04  0.25500000000E-02 0. -1.
         -2   -1    0    0    0  501 -0.00000000000E+00 -0.00000000000E+00 -0.37285162222E+03  0.37285162222E+03  0.25500000000E-02 0.  1.
    8880022    1    1    2    0    0 -0.46234922833E+03 -0.20527864639E+03 -0.70340824734E+02  0.53314689931E+03  0.15294330000E+03 0.  0.
    8880022    1    1    2    0    0  0.46234922833E+03  0.20527864639E+03  0.91084478559E+03  0.10530603060E+04  0.15294330000E+03 0. -1.
<mgrwt>
<rscale>  0 0.52848631E+03</rscale>
<asrwt>0</asrwt>
<pdfrwt beam="1">  1        2 0.18667009E+00 0.52848631E+03</pdfrwt>
<pdfrwt beam="2">  1       -2 0.57361788E-01 0.52848631E+03</pdfrwt>
<totfact> 0.55222644E+01</totfact>
</mgrwt>
</event>
<event>
 4    1  0.4639964E-008  0.3115265E+03  0.7818608E-02  0.1079617E+00
          2   -1    0    0  501    0  0.00000000000E+00  0.00000000000E+00  0.21414905325E+04  0.21414905325E+04  0.25500000000E-02 0. -1.
         -2   -1    0    0    0  501 -0.00000000000E+00 -0.00000000000E+00 -0.19819129160E+03  0.19819129161E+03  0.25500000000E-02 0.  1.
    8880022    1    1    2    0    0  0.80621454633E+02  0.25914718479E+03 -0.55774807573E+02  0.31647995909E+03  0.15294330000E+03 0.  0.
    8880022    1    1    2    0    0 -0.80621454633E+02 -0.25914718479E+03  0.19990740485E+04  0.20232018650E+04  0.15294330000E+03 0. -1.
<mgrwt>
<rscale>  0 0.31152646E+03</rscale>
<asrwt>0</asrwt>
<pdfrwt beam="1">  1        2 0.32946009E+00 0.31152646E+03</pdfrwt>
<pdfrwt beam="2">  1       -2 0.30490968E-01 0.31152646E+03</pdfrwt>
<totfact> 0.61958761E+01</totfact>
</mgrwt>
</event>
<event>
 4    1  0.4639964E-008  0.8262376E+03  0.7818608E-02  0.9522797E-01
         -2   -1    0    0    0  501 -0.00000000000E+00  0.00000000000E+00  0.40186343907E+03  0.40186343908E+03  0.25500000000E-02 0.  1.
          2   -1    0    0  501    0  0.00000000000E+00 -0.00000000000E+00 -0.29750635917E+04  0.29750635917E+04  0.25500000000E-02 0. -1.
    8880022    1    1    2    0    0  0.94726784077E+02 -0.80641410593E+03 -0.23925131115E+04  0.25311632732E+04  0.15294330000E+03 0.  0.
    8880022    1    1    2    0    0 -0.94726784077E+02  0.80641410593E+03 -0.18068704118E+03  0.84576375764E+03  0.15294330000E+03 0.  0.
<mgrwt>
<rscale>  0 0.82623757E+03</rscale>
<asrwt>0</asrwt>
<pdfrwt beam="1">  1        2 0.45770208E+00 0.82623757E+03</pdfrwt>
<pdfrwt beam="2">  1       -2 0.61825146E-01 0.82623757E+03</pdfrwt>
<totfact> 0.46076992E+00</totfact>
</mgrwt>
</event>
<event>
 4    1  0.4639964E-008  0.2286374E+03  0.7818608E-02  0.1127603E+00
         -2   -1    0    0    0  501 -0.00000000000E+00  0.00000000000E+00  0.10853810600E+03  0.10853810603E+03  0.25500000000E-02 0.  1.
          2   -1    0    0  501    0  0.00000000000E+00 -0.00000000000E+00 -0.13788475533E+04  0.13788475533E+04  0.25500000000E-02 0. -1.
    8880022    1    1    2    0    0  0.15343062981E+03 -0.73092053742E+02 -0.12350627600E+04  0.12560474039E+04  0.15294330000E+03 0. -1.
    8880022    1    1    2    0    0 -0.15343062981E+03  0.73092053742E+02 -0.35246687302E+02  0.23133825551E+03  0.15294330000E+03 0.  0.
<mgrwt>
<rscale>  0 0.22863740E+03</rscale>
<asrwt>0</asrwt>
<pdfrwt beam="1">  1        2 0.21213038E+00 0.22863740E+03</pdfrwt>
<pdfrwt beam="2">  1       -2 0.16698171E-01 0.22863740E+03</pdfrwt>
<totfact> 0.45896523E+02</totfact>
</mgrwt>
</event>
<event>
 4    1  0.4639964E-008  0.7000356E+03  0.7818608E-02  0.9717171E-01
          2   -1    0    0  501    0  0.00000000000E+00  0.00000000000E+00  0.18821744571E+04  0.18821744571E+04  0.25500000000E-02 0. -1.
         -2   -1    0    0    0  501 -0.00000000000E+00 -0.00000000000E+00 -0.49711764732E+03  0.49711764733E+03  0.25500000000E-02 0.  1.
    8880022    1    1    2    0    0 -0.68270955037E+03  0.23786512054E+02 -0.12845967655E+03  0.71172443392E+03  0.15294330000E+03 0.  0.
    8880022    1    1    2    0    0  0.68270955037E+03 -0.23786512054E+02  0.15135164863E+04  0.16675676705E+04  0.15294330000E+03 0.  0.
<mgrwt>
<rscale>  0 0.70003556E+03</rscale>
<asrwt>0</asrwt>
<pdfrwt beam="1">  1        2 0.28956530E+00 0.70003556E+03</pdfrwt>
<pdfrwt beam="2">  1       -2 0.76479637E-01 0.70003556E+03</pdfrwt>
<totfact> 0.12353570E+01</totfact>
</mgrwt>
</event>
<event>
 4    1  0.4639964E-008  0.3015142E+03  0.7818608E-02  0.1084486E+00
          2   -1    0    0  501    0  0.00000000000E+00  0.00000000000E+00  0.32791764228E+03  0.32791764229E+03  0.25500000000E-02 0. -1.
         -2   -1    0    0    0  501 -0.00000000000E+00 -0.00000000000E+00 -0.66478484884E+03  0.66478484884E+03  0.25500000000E-02 0.  1.
    8880022    1    1    2    0    0  0.14533140183E+03  0.21540187294E+03 -0.54740928222E+03  0.62495420512E+03  0.15294330000E+03 0.  0.
    8880022    1    1    2    0    0 -0.14533140183E+03 -0.21540187294E+03  0.21054207567E+03  0.36774828601E+03  0.15294330000E+03 0.  0.
<mgrwt>
<rscale>  0 0.30151424E+03</rscale>
<asrwt>0</asrwt>
<pdfrwt beam="1">  1        2 0.50448868E-01 0.30151424E+03</pdfrwt>
<pdfrwt beam="2">  1       -2 0.10227459E+00 0.30151424E+03</pdfrwt>
<totfact> 0.81221143E+01</totfact>
</mgrwt>
</event>
<event>
 4    1  0.4639964E-008  0.6375078E+03  0.7818608E-02  0.9830506E-01
         -2   -1    0    0    0  501 -0.00000000000E+00  0.00000000000E+00  0.10183762654E+04  0.10183762654E+04  0.25500000000E-02 0.  1.
          2   -1    0    0  501    0  0.00000000000E+00 -0.00000000000E+00 -0.84666822147E+03  0.84666822147E+03  0.25500000000E-02 0. -1.
    8880022    1    1    2    0    0  0.49744598834E+03  0.36820113646E+03  0.76387110532E+03  0.99494487625E+03  0.15294330000E+03 0.  0.
    8880022    1    1    2    0    0 -0.49744598834E+03 -0.36820113646E+03 -0.59216306136E+03  0.87009961066E+03  0.15294330000E+03 0.  0.
<mgrwt>
<rscale>  0 0.63750784E+03</rscale>
<asrwt>0</asrwt>
<pdfrwt beam="1">  1        2 0.13025665E+00 0.63750784E+03</pdfrwt>
<pdfrwt beam="2">  1       -2 0.15667327E+00 0.63750784E+03</pdfrwt>
<totfact> 0.87817820E+00</totfact>
</mgrwt>
</event>
<event>
 4    1  0.4639964E-008  0.8842335E+03  0.7818608E-02  0.9445508E-01
          2   -1    0    0  501    0  0.00000000000E+00  0.00000000000E+00  0.79588971387E+03  0.79588971388E+03  0.25500000000E-02 0. -1.
         -2   -1    0    0    0  501 -0.00000000000E+00 -0.00000000000E+00 -0.24678294681E+04  0.24678294681E+04  0.25500000000E-02 0.  1.
    8880022    1    1    2    0    0 -0.84187973850E+03 -0.22297016457E+03 -0.21020280468E+04  0.22804365264E+04  0.15294330000E+03 0.  0.
    8880022    1    1    2    0    0  0.84187973850E+03  0.22297016457E+03  0.43008829256E+03  0.98328265559E+03  0.15294330000E+03 0.  0.
<mgrwt>
<rscale>  0 0.88423348E+03</rscale>
<asrwt>0</asrwt>
<pdfrwt beam="1">  1        2 0.12244457E+00 0.88423348E+03</pdfrwt>
<pdfrwt beam="2">  1       -2 0.37966607E+00 0.88423348E+03</pdfrwt>
<totfact> 0.36139116E-01</totfact>
</mgrwt>
</event>
<event>
 4    1  0.4639964E-008  0.8067167E+03  0.7818608E-02  0.9550346E-01
          2   -1    0    0  501    0  0.00000000000E+00  0.00000000000E+00  0.13700351225E+04  0.13700351225E+04  0.25500000000E-02 0. -1.
         -2   -1    0    0    0  501 -0.00000000000E+00 -0.00000000000E+00 -0.53620092548E+03  0.53620092549E+03  0.25500000000E-02 0.  1.
    8880022    1    1    2    0    0 -0.71441393164E+03 -0.34207141308E+03  0.73887339077E+03  0.10939495683E+04  0.15294330000E+03 0.  0.
    8880022    1    1    2    0    0  0.71441393164E+03  0.34207141308E+03  0.94960806256E+02  0.81228647970E+03  0.15294330000E+03 0.  0.
<mgrwt>
<rscale>  0 0.80671666E+03</rscale>
<asrwt>0</asrwt>
<pdfrwt beam="1">  1        2 0.21077463E+00 0.80671666E+03</pdfrwt>
<pdfrwt beam="2">  1       -2 0.82492451E-01 0.80671666E+03</pdfrwt>
<totfact> 0.19712953E+01</totfact>
</mgrwt>
</event>
<event>
 4    1  0.4639964E-008  0.2460965E+03  0.7818608E-02  0.1115797E+00
          2   -1    0    0  501    0  0.00000000000E+00  0.00000000000E+00  0.87634789151E+03  0.87634789152E+03  0.25500000000E-02 0. -1.
         -2   -1    0    0    0  501 -0.00000000000E+00 -0.00000000000E+00 -0.13710530288E+03  0.13710530291E+03  0.25500000000E-02 0.  1.
    8880022    1    1    2    0    0 -0.18776753796E+03  0.43762625551E+02  0.12768226876E+02  0.24642746669E+03  0.15294330000E+03 0.  0.
    8880022    1    1    2    0    0  0.18776753796E+03 -0.43762625551E+02  0.72647436175E+03  0.76702572773E+03  0.15294330000E+03 0. -1.
<mgrwt>
<rscale>  0 0.24609646E+03</rscale>
<asrwt>0</asrwt>
<pdfrwt beam="1">  1        2 0.13482275E+00 0.24609646E+03</pdfrwt>
<pdfrwt beam="2">  1       -2 0.21093124E-01 0.24609646E+03</pdfrwt>
<totfact> 0.60713193E+02</totfact>
</mgrwt>
</event>
<event>
 4    1  0.4639964E-008  0.1269485E+04  0.7818608E-02  0.9054120E-01
         -2   -1    0    0    0  501 -0.00000000000E+00  0.00000000000E+00  0.81834991060E+03  0.81834991060E+03  0.25500000000E-02 0.  1.
          2   -1    0    0  501    0  0.00000000000E+00 -0.00000000000E+00 -0.21571558858E+04  0.21571558858E+04  0.25500000000E-02 0. -1.
    8880022    1    1    2    0    0  0.12485519358E+04 -0.17122575741E+03 -0.23038660055E+03  0.12902208474E+04  0.15294330000E+03 0.  0.
    8880022    1    1    2    0    0 -0.12485519358E+04  0.17122575741E+03 -0.11084193747E+04  0.16852849490E+04  0.15294330000E+03 0.  0.
<mgrwt>
<rscale>  0 0.12694849E+04</rscale>
<asrwt>0</asrwt>
<pdfrwt beam="1">  1        2 0.33187013E+00 0.12694849E+04</pdfrwt>
<pdfrwt beam="2">  1       -2 0.12589999E+00 0.12694849E+04</pdfrwt>
<totfact> 0.24915803E+00</totfact>
</mgrwt>
</event>
<event>
 4    1  0.4639964E-008  0.1826274E+03  0.7818608E-02  0.1165284E+00
          2   -1    0    0  501    0  0.00000000000E+00  0.00000000000E+00  0.19937904656E+03  0.19937904657E+03  0.25500000000E-02 0. -1.
         -2   -1    0    0    0  501 -0.00000000000E+00 -0.00000000000E+00 -0.24770004336E+03  0.24770004337E+03  0.25500000000E-02 0.  1.
    8880022    1    1    2    0    0  0.95943247231E+02 -0.27495271442E+02 -0.15152987959E+03  0.23730582391E+03  0.15294330000E+03 0.  0.
    8880022    1    1    2    0    0 -0.95943247231E+02  0.27495271442E+02  0.10320888279E+03  0.20977326603E+03  0.15294330000E+03 0.  0.
<mgrwt>
<rscale>  0 0.18262735E+03</rscale>
<asrwt>0</asrwt>
<pdfrwt beam="1">  1        2 0.30673700E-01 0.18262735E+03</pdfrwt>
<pdfrwt beam="2">  1       -2 0.38107699E-01 0.18262735E+03</pdfrwt>
<totfact> 0.11099961E+03</totfact>
</mgrwt>
</event>
<event>
 4    1  0.4639964E-008  0.3726150E+03  0.7818608E-02  0.1053698E+00
          2   -1    0    0  501    0  0.00000000000E+00  0.00000000000E+00  0.20948065302E+04  0.20948065302E+04  0.25500000000E-02 0. -1.
         -2   -1    0    0    0  501 -0.00000000000E+00 -0.00000000000E+00 -0.68839587365E+02  0.68839587412E+02  0.25500000000E-02 0.  1.
    8880022    1    1    2    0    0 -0.22444013002E+03  0.25510177155E+03  0.80434398287E+03  0.88645991540E+03  0.15294330000E+03 0.  0.
    8880022    1    1    2    0    0  0.22444013002E+03 -0.25510177155E+03  0.12216229600E+04  0.12771862022E+04  0.15294330000E+03 0.  1.
<mgrwt>
<rscale>  0 0.37261500E+03</rscale>
<asrwt>0</asrwt>
<pdfrwt beam="1">  1        2 0.32227797E+00 0.37261500E+03</pdfrwt>
<pdfrwt beam="2">  1       -2 0.10590704E-01 0.37261500E+03</pdfrwt>
<totfact> 0.39464423E+02</totfact>
</mgrwt>
</event>
<event>
 4    1  0.4639964E-008  0.5664119E+03  0.7818608E-02  0.9977650E-01
         -2   -1    0    0    0  501 -0.00000000000E+00  0.00000000000E+00  0.98934814735E+03  0.98934814736E+03  0.25500000000E-02 0.  1.
          2   -1    0    0  501    0  0.00000000000E+00 -0.00000000000E+00 -0.72724018690E+03  0.72724018690E+03  0.25500000000E-02 0. -1.
    8880022    1    1    2    0    0  0.42372458679E+03 -0.34334863714E+03  0.76994991051E+03  0.95584796374E+03  0.15294330000E+03 0.  0.
    8880022    1    1    2    0    0 -0.42372458679E+03  0.34334863714E+03 -0.50784195006E+03  0.76074037052E+03  0.15294330000E+03 0.  0.
<mgrwt>
<rscale>  0 0.56641192E+03</rscale>
<asrwt>0</asrwt>
<pdfrwt beam="1">  1        2 0.11188311E+00 0.56641192E+03</pdfrwt>
<pdfrwt beam="2">  1       -2 0.15220741E+00 0.56641192E+03</pdfrwt>
<totfact> 0.11685264E+01</totfact>
</mgrwt>
</event>
<event>
 4    1  0.4639964E-008  0.3709674E+03  0.7818608E-02  0.1054324E+00
          2   -1    0    0  501    0  0.00000000000E+00  0.00000000000E+00  0.33704518911E+04  0.33704518911E+04  0.25500000000E-02 0. -1.
         -2   -1    0    0    0  501 -0.00000000000E+00 -0.00000000000E+00 -0.89979087099E+02  0.89979087135E+02  0.25500000000E-02 0.  1.
    8880022    1    1    2    0    0  0.89025932207E+02  0.32603608170E+03  0.36148683562E+03  0.51796672530E+03  0.15294330000E+03 0.  1.
    8880022    1    1    2    0    0 -0.89025932207E+02 -0.32603608170E+03  0.29189859684E+04  0.29424642530E+04  0.15294330000E+03 0.  0.
<mgrwt>
<rscale>  0 0.37096738E+03</rscale>
<asrwt>0</asrwt>
<pdfrwt beam="1">  1        2 0.51853103E+00 0.37096738E+03</pdfrwt>
<pdfrwt beam="2">  1       -2 0.13842937E-01 0.37096738E+03</pdfrwt>
<totfact> 0.46597499E+01</totfact>
</mgrwt>
</event>
<event>
 4    1  0.4639964E-008  0.4284657E+03  0.7818608E-02  0.1034346E+00
         -2   -1    0    0    0  501 -0.00000000000E+00  0.00000000000E+00  0.42588882448E+03  0.42588882449E+03  0.25500000000E-02 0.  1.
          2   -1    0    0  501    0  0.00000000000E+00 -0.00000000000E+00 -0.10370363863E+04  0.10370363863E+04  0.25500000000E-02 0. -1.
    8880022    1    1    2    0    0  0.15948228022E+02  0.39992104865E+03  0.25357019276E+03  0.49787617618E+03  0.15294330000E+03 0.  0.
    8880022    1    1    2    0    0 -0.15948228022E+02 -0.39992104865E+03 -0.86471775461E+03  0.96504903465E+03  0.15294330000E+03 0.  0.
<mgrwt>
<rscale>  0 0.42846569E+03</rscale>
<asrwt>0</asrwt>
<pdfrwt beam="1">  1        2 0.15954406E+00 0.42846569E+03</pdfrwt>
<pdfrwt beam="2">  1       -2 0.65521358E-01 0.42846569E+03</pdfrwt>
<totfact> 0.53940179E+01</totfact>
</mgrwt>
</event>
<event>
 4    1  0.4639964E-008  0.5159032E+03  0.7818608E-02  0.1009709E+00
         -2   -1    0    0    0  501 -0.00000000000E+00  0.00000000000E+00  0.21872522872E+03  0.21872522874E+03  0.25500000000E-02 0.  1.
          2   -1    0    0  501    0  0.00000000000E+00 -0.00000000000E+00 -0.16241074426E+04  0.16241074426E+04  0.25500000000E-02 0. -1.
    8880022    1    1    2    0    0  0.44678457670E+03 -0.20772097428E+03 -0.24128614020E+03  0.56953938898E+03  0.15294330000E+03 0.  0.
    8880022    1    1    2    0    0 -0.44678457670E+03  0.20772097428E+03 -0.11640960737E+04  0.12732932824E+04  0.15294330000E+03 0.  0.
<mgrwt>
<rscale>  0 0.51590320E+03</rscale>
<asrwt>0</asrwt>
<pdfrwt beam="1">  1        2 0.24986268E+00 0.51590320E+03</pdfrwt>
<pdfrwt beam="2">  1       -2 0.33650036E-01 0.51590320E+03</pdfrwt>
<totfact> 0.93587749E+01</totfact>
</mgrwt>
</event>
<event>
 4    1  0.4639964E-008  0.5303368E+03  0.7818608E-02  0.1006150E+00
         -2   -1    0    0    0  501 -0.00000000000E+00  0.00000000000E+00  0.50801068569E+03  0.50801068570E+03  0.25500000000E-02 0.  1.
          2   -1    0    0  501    0  0.00000000000E+00 -0.00000000000E+00 -0.17916403361E+04  0.17916403361E+04  0.25500000000E-02 0. -1.
    8880022    1    1    2    0    0  0.29437429739E+03 -0.41377441805E+03  0.31398330383E+03  0.61631377081E+03  0.15294330000E+03 0.  0.
    8880022    1    1    2    0    0 -0.29437429739E+03  0.41377441805E+03 -0.15976129542E+04  0.16833372510E+04  0.15294330000E+03 0.  0.
<mgrwt>
<rscale>  0 0.53033683E+03</rscale>
<asrwt>0</asrwt>
<pdfrwt beam="1">  1        2 0.27563697E+00 0.53033683E+03</pdfrwt>
<pdfrwt beam="2">  1       -2 0.78155491E-01 0.53033683E+03</pdfrwt>
<totfact> 0.13577558E+01</totfact>
</mgrwt>
</event>
<event>
 4    1  0.4639964E-008  0.7551623E+03  0.7818608E-02  0.9627286E-01
         -2   -1    0    0    0  501 -0.00000000000E+00  0.00000000000E+00  0.46576645326E+03  0.46576645327E+03  0.25500000000E-02 0.  1.
          2   -1    0    0  501    0  0.00000000000E+00 -0.00000000000E+00 -0.14498606611E+04  0.14498606611E+04  0.25500000000E-02 0. -1.
    8880022    1    1    2    0    0  0.44778835303E+03  0.58852706248E+03 -0.86977821960E+03  0.11518612402E+04  0.15294330000E+03 0.  0.
    8880022    1    1    2    0    0 -0.44778835303E+03 -0.58852706248E+03 -0.11431598824E+03  0.76376587418E+03  0.15294330000E+03 0.  0.
<mgrwt>
<rscale>  0 0.75516234E+03</rscale>
<asrwt>0</asrwt>
<pdfrwt beam="1">  1        2 0.22305548E+00 0.75516234E+03</pdfrwt>
<pdfrwt beam="2">  1       -2 0.71656378E-01 0.75516234E+03</pdfrwt>
<totfact> 0.24465379E+01</totfact>
</mgrwt>
</event>
<event>
 4    1  0.4639964E-008  0.4165696E+03  0.7818608E-02  0.1038189E+00
         -2   -1    0    0    0  501 -0.00000000000E+00  0.00000000000E+00  0.11748018312E+03  0.11748018314E+03  0.25500000000E-02 0.  1.
          2   -1    0    0  501    0  0.00000000000E+00 -0.00000000000E+00 -0.17376932818E+04  0.17376932818E+04  0.25500000000E-02 0. -1.
    8880022    1    1    2    0    0  0.22989919622E+03 -0.31190531464E+03 -0.45089700231E+03  0.61387158708E+03  0.15294330000E+03 0.  0.
    8880022    1    1    2    0    0 -0.22989919622E+03  0.31190531464E+03 -0.11693160964E+04  0.12413018778E+04  0.15294330000E+03 0.  0.
<mgrwt>
<rscale>  0 0.41656958E+03</rscale>
<asrwt>0</asrwt>
<pdfrwt beam="1">  1        2 0.26733741E+00 0.41656958E+03</pdfrwt>
<pdfrwt beam="2">  1       -2 0.18073876E-01 0.41656958E+03</pdfrwt>
<totfact> 0.25058763E+02</totfact>
</mgrwt>
</event>
<event>
 4    1  0.4639964E-008  0.6124917E+03  0.7818608E-02  0.9879823E-01
          2   -1    0    0  501    0  0.00000000000E+00  0.00000000000E+00  0.11791942974E+04  0.11791942974E+04  0.25500000000E-02 0. -1.
         -2   -1    0    0    0  501 -0.00000000000E+00 -0.00000000000E+00 -0.55105837937E+03  0.55105837938E+03  0.25500000000E-02 0.  1.
    8880022    1    1    2    0    0  0.16731223980E+03  0.56900004092E+03 -0.24838319650E+03  0.66093895140E+03  0.15294330000E+03 0.  0.
    8880022    1    1    2    0    0 -0.16731223980E+03 -0.56900004092E+03  0.87651911457E+03  0.10693137254E+04  0.15294330000E+03 0.  0.
<mgrwt>
<rscale>  0 0.61249170E+03</rscale>
<asrwt>0</asrwt>
<pdfrwt beam="1">  1        2 0.18141451E+00 0.61249170E+03</pdfrwt>
<pdfrwt beam="2">  1       -2 0.84778213E-01 0.61249170E+03</pdfrwt>
<totfact> 0.24465414E+01</totfact>
</mgrwt>
</event>
<event>
 4    1  0.4639964E-008  0.1816726E+03  0.7818608E-02  0.1166194E+00
         -2   -1    0    0    0  501 -0.00000000000E+00  0.00000000000E+00  0.16477312272E+03  0.16477312274E+03  0.25500000000E-02 0.  1.
          2   -1    0    0  501    0  0.00000000000E+00 -0.00000000000E+00 -0.18732451287E+04  0.18732451287E+04  0.25500000000E-02 0. -1.
    8880022    1    1    2    0    0  0.58845576927E+01  0.97870663549E+02 -0.18172240878E+04  0.18262826542E+04  0.15294330000E+03 0.  0.
    8880022    1    1    2    0    0 -0.58845576927E+01 -0.97870663549E+02  0.10875208184E+03  0.21173559720E+03  0.15294330000E+03 0.  1.
<mgrwt>
<rscale>  0 0.18167264E+03</rscale>
<asrwt>0</asrwt>
<pdfrwt beam="1">  1        2 0.28819154E+00 0.18167264E+03</pdfrwt>
<pdfrwt beam="2">  1       -2 0.25349712E-01 0.18167264E+03</pdfrwt>
<totfact> 0.12484620E+02</totfact>
</mgrwt>
</event>
<event>
 4    1  0.4639964E-008  0.5644419E+03  0.7818608E-02  0.9982054E-01
          2   -1    0    0  501    0  0.00000000000E+00  0.00000000000E+00  0.20568752319E+04  0.20568752319E+04  0.25500000000E-02 0. -1.
         -2   -1    0    0    0  501 -0.00000000000E+00 -0.00000000000E+00 -0.76520308546E+03  0.76520308546E+03  0.25500000000E-02 0.  1.
    8880022    1    1    2    0    0  0.34342656632E+03 -0.42102394293E+03 -0.61432525739E+03  0.83426023629E+03  0.15294330000E+03 0.  0.
    8880022    1    1    2    0    0 -0.34342656632E+03  0.42102394293E+03  0.19059974038E+04  0.19878180810E+04  0.15294330000E+03 0.  0.
<mgrwt>
<rscale>  0 0.56444187E+03</rscale>
<asrwt>0</asrwt>
<pdfrwt beam="1">  1        2 0.31644234E+00 0.56444187E+03</pdfrwt>
<pdfrwt beam="2">  1       -2 0.11772355E+00 0.56444187E+03</pdfrwt>
<totfact> 0.37257024E+00</totfact>
</mgrwt>
</event>
<event>
 4    1  0.4639964E-008  0.1552867E+03  0.7818608E-02  0.1194123E+00
          2   -1    0    0  501    0  0.00000000000E+00  0.00000000000E+00  0.99370175904E+03  0.99370175904E+03  0.25500000000E-02 0. -1.
         -2   -1    0    0    0  501 -0.00000000000E+00 -0.00000000000E+00 -0.28922430544E+02  0.28922430656E+02  0.25500000000E-02 0.  1.
    8880022    1    1    2    0    0  0.20648899361E+02 -0.17202234193E+02  0.68753357468E+03  0.70485201513E+03  0.15294330000E+03 0.  0.
    8880022    1    1    2    0    0 -0.20648899361E+02  0.17202234193E+02  0.27724575382E+03  0.31777217457E+03  0.15294330000E+03 0.  0.
<mgrwt>
<rscale>  0 0.15528666E+03</rscale>
<asrwt>0</asrwt>
<pdfrwt beam="1">  1        2 0.15287717E+00 0.15528666E+03</pdfrwt>
<pdfrwt beam="2">  1       -2 0.44496053E-02 0.15528666E+03</pdfrwt>
<totfact> 0.60612089E+03</totfact>
</mgrwt>
</event>
<event>
 4    1  0.4639964E-008  0.8919975E+03  0.7818608E-02  0.9435641E-01
         -2   -1    0    0    0  501 -0.00000000000E+00  0.00000000000E+00  0.12852432545E+04  0.12852432545E+04  0.25500000000E-02 0.  1.
          2   -1    0    0  501    0  0.00000000000E+00 -0.00000000000E+00 -0.14331432860E+04  0.14331432860E+04  0.25500000000E-02 0. -1.
    8880022    1    1    2    0    0 -0.85924993203E+03 -0.18427551264E+03 -0.10983447230E+04  0.14149278051E+04  0.15294330000E+03 0.  0.
    8880022    1    1    2    0    0  0.85924993203E+03  0.18427551264E+03  0.95044469151E+03  0.13034587354E+04  0.15294330000E+03 0.  0.
<mgrwt>
<rscale>  0 0.89199751E+03</rscale>
<asrwt>0</asrwt>
<pdfrwt beam="1">  1        2 0.22048358E+00 0.89199751E+03</pdfrwt>
<pdfrwt beam="2">  1       -2 0.19772973E+00 0.89199751E+03</pdfrwt>
<totfact> 0.19218590E+00</totfact>
</mgrwt>
</event>
<event>
 4    1  0.4639964E-008  0.3934451E+03  0.7818608E-02  0.1046073E+00
          2   -1    0    0  501    0  0.00000000000E+00  0.00000000000E+00  0.11989454140E+04  0.11989454140E+04  0.25500000000E-02 0. -1.
         -2   -1    0    0    0  501 -0.00000000000E+00 -0.00000000000E+00 -0.26198603035E+03  0.26198603036E+03  0.25500000000E-02 0.  1.
    8880022    1    1    2    0    0  0.34248533680E+03  0.11879063628E+03 -0.51731499927E+02  0.39683147845E+03  0.15294330000E+03 0.  0.
    8880022    1    1    2    0    0 -0.34248533680E+03 -0.11879063628E+03  0.98869088362E+03  0.10640999660E+04  0.15294330000E+03 0.  0.
<mgrwt>
<rscale>  0 0.39344513E+03</rscale>
<asrwt>0</asrwt>
<pdfrwt beam="1">  1        2 0.18445314E+00 0.39344513E+03</pdfrwt>
<pdfrwt beam="2">  1       -2 0.40305543E-01 0.39344513E+03</pdfrwt>
<totfact> 0.11641615E+02</totfact>
</mgrwt>
</event>
<event>
 4    1  0.4639964E-008  0.7245152E+03  0.7818608E-02  0.9676203E-01
         -2   -1    0    0    0  501 -0.00000000000E+00  0.00000000000E+00  0.62809449750E+03  0.62809449751E+03  0.25500000000E-02 0.  1.
          2   -1    0    0  501    0  0.00000000000E+00 -0.00000000000E+00 -0.87192190273E+03  0.87192190273E+03  0.25500000000E-02 0. -1.
    8880022    1    1    2    0    0 -0.69508001658E+03  0.13562619382E+03  0.30873086146E+02  0.72517273415E+03  0.15294330000E+03 0.  0.
    8880022    1    1    2    0    0  0.69508001658E+03 -0.13562619382E+03 -0.27470049138E+03  0.77484366609E+03  0.15294330000E+03 0.  0.
<mgrwt>
<rscale>  0 0.72451525E+03</rscale>
<asrwt>0</asrwt>
<pdfrwt beam="1">  1        2 0.13414183E+00 0.72451525E+03</pdfrwt>
<pdfrwt beam="2">  1       -2 0.96629923E-01 0.72451525E+03</pdfrwt>
<totfact> 0.27921384E+01</totfact>
</mgrwt>
</event>
<event>
 4    1  0.4639964E-008  0.2684967E+03  0.7818608E-02  0.1102143E+00
         -2   -1    0    0    0  501 -0.00000000000E+00  0.00000000000E+00  0.26873272675E+03  0.26873272676E+03  0.25500000000E-02 0.  1.
          2   -1    0    0  501    0  0.00000000000E+00 -0.00000000000E+00 -0.63466900630E+03  0.63466900631E+03  0.25500000000E-02 0. -1.
    8880022    1    1    2    0    0  0.14284633209E+03 -0.16820741843E+03 -0.52617808119E+03  0.59072314695E+03  0.15294330000E+03 0.  0.
    8880022    1    1    2    0    0 -0.14284633209E+03  0.16820741843E+03  0.16024180164E+03  0.31267858612E+03  0.15294330000E+03 0.  1.
<mgrwt>
<rscale>  0 0.26849667E+03</rscale>
<asrwt>0</asrwt>
<pdfrwt beam="1">  1        2 0.97641385E-01 0.26849667E+03</pdfrwt>
<pdfrwt beam="2">  1       -2 0.41343497E-01 0.26849667E+03</pdfrwt>
<totfact> 0.26623424E+02</totfact>
</mgrwt>
</event>
<event>
 4    1  0.4639964E-008  0.2777572E+03  0.7818608E-02  0.1096920E+00
          2   -1    0    0  501    0  0.00000000000E+00  0.00000000000E+00  0.23486668925E+03  0.23486668927E+03  0.25500000000E-02 0. -1.
         -2   -1    0    0    0  501 -0.00000000000E+00 -0.00000000000E+00 -0.54460061324E+03  0.54460061324E+03  0.25500000000E-02 0.  1.
    8880022    1    1    2    0    0 -0.14468018344E+03 -0.18117683076E+03  0.90647318031E+02  0.29217458611E+03  0.15294330000E+03 0.  0.
    8880022    1    1    2    0    0  0.14468018344E+03  0.18117683076E+03 -0.40038124201E+03  0.48729271640E+03  0.15294330000E+03 0.  0.
<mgrwt>
<rscale>  0 0.27775718E+03</rscale>
<asrwt>0</asrwt>
<pdfrwt beam="1">  1        2 0.36133337E-01 0.27775718E+03</pdfrwt>
<pdfrwt beam="2">  1       -2 0.83784710E-01 0.27775718E+03</pdfrwt>
<totfact> 0.18465968E+02</totfact>
</mgrwt>
</event>
<event>
 4    1  0.4639964E-008  0.1094363E+04  0.7818608E-02  0.9210703E-01
         -2   -1    0    0    0  501 -0.00000000000E+00  0.00000000000E+00  0.69265678477E+03  0.69265678478E+03  0.25500000000E-02 0.  1.
          2   -1    0    0  501    0  0.00000000000E+00 -0.00000000000E+00 -0.28664381915E+04  0.28664381915E+04  0.25500000000E-02 0. -1.
    8880022    1    1    2    0    0 -0.69153249467E+03  0.83427966778E+03 -0.22078620828E+04  0.24642009628E+04  0.15294330000E+03 0.  0.
    8880022    1    1    2    0    0  0.69153249467E+03 -0.83427966778E+03  0.34080676100E+02  0.10948940135E+04  0.15294330000E+03 0.  0.
<mgrwt>
<rscale>  0 0.10943635E+04</rscale>
<asrwt>0</asrwt>
<pdfrwt beam="1">  1        2 0.44099048E+00 0.10943635E+04</pdfrwt>
<pdfrwt beam="2">  1       -2 0.10656258E+00 0.10943635E+04</pdfrwt>
<totfact> 0.14970302E+00</totfact>
</mgrwt>
</event>
<event>
 4    1  0.4639964E-008  0.7417351E+03  0.7818608E-02  0.9648407E-01
          2   -1    0    0  501    0  0.00000000000E+00  0.00000000000E+00  0.42824378365E+04  0.42824378365E+04  0.25500000000E-02 0. -1.
         -2   -1    0    0    0  501 -0.00000000000E+00 -0.00000000000E+00 -0.24257024141E+03  0.24257024143E+03  0.25500000000E-02 0.  1.
    8880022    1    1    2    0    0 -0.56535772260E+03  0.45513732308E+03  0.35716458330E+04  0.36478521004E+04  0.15294330000E+03 0.  0.
    8880022    1    1    2    0    0  0.56535772260E+03 -0.45513732308E+03  0.46822176214E+03  0.87715597753E+03  0.15294330000E+03 0.  0.
<mgrwt>
<rscale>  0 0.74173512E+03</rscale>
<asrwt>0</asrwt>
<pdfrwt beam="1">  1        2 0.65883658E+00 0.74173512E+03</pdfrwt>
<pdfrwt beam="2">  1       -2 0.37318499E-01 0.74173512E+03</pdfrwt>
<totfact> 0.15009328E+00</totfact>
</mgrwt>
</event>
<event>
 4    1  0.4639964E-008  0.6799827E+03  0.7818608E-02  0.9752090E-01
          2   -1    0    0  501    0  0.00000000000E+00  0.00000000000E+00  0.40771001714E+03  0.40771001714E+03  0.25500000000E-02 0. -1.
         -2   -1    0    0    0  501 -0.00000000000E+00 -0.00000000000E+00 -0.16400844097E+04  0.16400844097E+04  0.25500000000E-02 0.  1.
    8880022    1    1    2    0    0 -0.27029487606E+03 -0.60491771422E+03 -0.47465573539E+02  0.68163728968E+03  0.15294330000E+03 0.  0.
    8880022    1    1    2    0    0  0.27029487606E+03  0.60491771422E+03 -0.11849088190E+04  0.13661571371E+04  0.15294330000E+03 0.  0.
<mgrwt>
<rscale>  0 0.67998266E+03</rscale>
<asrwt>0</asrwt>
<pdfrwt beam="1">  1        2 0.62724619E-01 0.67998266E+03</pdfrwt>
<pdfrwt beam="2">  1       -2 0.25232068E+00 0.67998266E+03</pdfrwt>
<totfact> 0.50258263E+00</totfact>
</mgrwt>
</event>
<event>
 4    1  0.4639964E-008  0.6278311E+03  0.7818608E-02  0.9849290E-01
          2   -1    0    0  501    0  0.00000000000E+00  0.00000000000E+00  0.13372153488E+04  0.13372153488E+04  0.25500000000E-02 0. -1.
         -2   -1    0    0    0  501 -0.00000000000E+00 -0.00000000000E+00 -0.30025015822E+03  0.30025015823E+03  0.25500000000E-02 0.  1.
    8880022    1    1    2    0    0 -0.59042134122E+03  0.14893933205E+03  0.62908596602E+03  0.88877505053E+03  0.15294330000E+03 0.  0.
    8880022    1    1    2    0    0  0.59042134122E+03 -0.14893933205E+03  0.40787922453E+03  0.74869045648E+03  0.15294330000E+03 0.  0.
<mgrwt>
<rscale>  0 0.62783114E+03</rscale>
<asrwt>0</asrwt>
<pdfrwt beam="1">  1        2 0.20572544E+00 0.62783114E+03</pdfrwt>
<pdfrwt beam="2">  1       -2 0.46192333E-01 0.62783114E+03</pdfrwt>
<totfact> 0.72032964E+01</totfact>
</mgrwt>
</event>
<event>
 4    1  0.4639964E-008  0.2542111E+03  0.7818608E-02  0.1110672E+00
          2   -1    0    0  501    0  0.00000000000E+00  0.00000000000E+00  0.62595411401E+03  0.62595411402E+03  0.25500000000E-02 0. -1.
         -2   -1    0    0    0  501 -0.00000000000E+00 -0.00000000000E+00 -0.39982822603E+03  0.39982822604E+03  0.25500000000E-02 0.  1.
    8880022    1    1    2    0    0  0.11427256663E+03  0.16784940232E+03  0.55480189363E+03  0.61026915008E+03  0.15294330000E+03 0.  0.
    8880022    1    1    2    0    0 -0.11427256663E+03 -0.16784940232E+03 -0.32867600565E+03  0.41551318998E+03  0.15294330000E+03 0.  1.
<mgrwt>
<rscale>  0 0.25421112E+03</rscale>
<asrwt>0</asrwt>
<pdfrwt beam="1">  1        2 0.96300632E-01 0.25421112E+03</pdfrwt>
<pdfrwt beam="2">  1       -2 0.61512035E-01 0.25421112E+03</pdfrwt>
<totfact> 0.12216917E+02</totfact>
</mgrwt>
</event>
<event>
 4    1  0.4639964E-008  0.3302998E+03  0.7818608E-02  0.1071004E+00
          2   -1    0    0  501    0  0.00000000000E+00  0.00000000000E+00  0.25957713307E+04  0.25957713307E+04  0.25500000000E-02 0. -1.
         -2   -1    0    0    0  501 -0.00000000000E+00 -0.00000000000E+00 -0.76100828759E+02  0.76100828802E+02  0.25500000000E-02 0.  1.
    8880022    1    1    2    0    0  0.28919313028E+03 -0.45537372987E+02  0.36593723215E+03  0.49295844635E+03  0.15294330000E+03 0. -1.
    8880022    1    1    2    0    0 -0.28919313028E+03  0.45537372987E+02  0.21537332698E+04  0.21789137132E+04  0.15294330000E+03 0.  0.
<mgrwt>
<rscale>  0 0.33029982E+03</rscale>
<asrwt>0</asrwt>
<pdfrwt beam="1">  1        2 0.39934950E+00 0.33029982E+03</pdfrwt>
<pdfrwt beam="2">  1       -2 0.11707818E-01 0.33029982E+03</pdfrwt>
<totfact> 0.18040684E+02</totfact>
</mgrwt>
</event>
<event>
 4    1  0.4639964E-008  0.3455196E+03  0.7818608E-02  0.1064469E+00
         -2   -1    0    0    0  501 -0.00000000000E+00  0.00000000000E+00  0.53731379672E+03  0.53731379672E+03  0.25500000000E-02 0.  1.
          2   -1    0    0  501    0  0.00000000000E+00 -0.00000000000E+00 -0.54941426475E+03  0.54941426476E+03  0.25500000000E-02 0. -1.
    8880022    1    1    2    0    0  0.78033743528E+02  0.29983810537E+03 -0.42539002335E+03  0.54803328324E+03  0.15294330000E+03 0. -1.
    8880022    1    1    2    0    0 -0.78033743528E+02 -0.29983810537E+03  0.41328955532E+03  0.53869477824E+03  0.15294330000E+03 0.  0.
<mgrwt>
<rscale>  0 0.34551962E+03</rscale>
<asrwt>0</asrwt>
<pdfrwt beam="1">  1        2 0.84525271E-01 0.34551962E+03</pdfrwt>
<pdfrwt beam="2">  1       -2 0.82663661E-01 0.34551962E+03</pdfrwt>
<totfact> 0.74141872E+01</totfact>
</mgrwt>
</event>
<event>
 4    1  0.4639964E-008  0.4370799E+03  0.7818608E-02  0.1031647E+00
         -2   -1    0    0    0  501 -0.00000000000E+00  0.00000000000E+00  0.22806702083E+03  0.22806702084E+03  0.25500000000E-02 0.  1.
          2   -1    0    0  501    0  0.00000000000E+00 -0.00000000000E+00 -0.17322734716E+04  0.17322734716E+04  0.25500000000E-02 0. -1.
    8880022    1    1    2    0    0 -0.39315174832E+03  0.11436303078E+03 -0.47710252987E+02  0.43967615499E+03  0.15294330000E+03 0.  0.
    8880022    1    1    2    0    0  0.39315174832E+03 -0.11436303078E+03 -0.14564961978E+04  0.15206643375E+04  0.15294330000E+03 0.  0.
<mgrwt>
<rscale>  0 0.43707992E+03</rscale>
<asrwt>0</asrwt>
<pdfrwt beam="1">  1        2 0.26650360E+00 0.43707992E+03</pdfrwt>
<pdfrwt beam="2">  1       -2 0.35087235E-01 0.43707992E+03</pdfrwt>
<totfact> 0.76572956E+01</totfact>
</mgrwt>
</event>
<event>
 4    1  0.4639964E-008  0.3413170E+03  0.7818608E-02  0.1066236E+00
         -2   -1    0    0    0  501 -0.00000000000E+00  0.00000000000E+00  0.20103858764E+03  0.20103858766E+03  0.25500000000E-02 0.  1.
          2   -1    0    0  501    0  0.00000000000E+00 -0.00000000000E+00 -0.61437757660E+03  0.61437757660E+03  0.25500000000E-02 0. -1.
    8880022    1    1    2    0    0  0.15438418145E+03 -0.26319412953E+03 -0.10949625407E+03  0.35845042610E+03  0.15294330000E+03 0.  0.
    8880022    1    1    2    0    0 -0.15438418145E+03  0.26319412953E+03 -0.30384273489E+03  0.45696573816E+03  0.15294330000E+03 0.  0.
<mgrwt>
<rscale>  0 0.34131698E+03</rscale>
<asrwt>0</asrwt>
<pdfrwt beam="1">  1        2 0.94519626E-01 0.34131698E+03</pdfrwt>
<pdfrwt beam="2">  1       -2 0.30929014E-01 0.34131698E+03</pdfrwt>
<totfact> 0.47563955E+02</totfact>
</mgrwt>
</event>
<event>
 4    1  0.4639964E-008  0.1190006E+04  0.7818608E-02  0.9121649E-01
         -2   -1    0    0    0  501 -0.00000000000E+00  0.00000000000E+00  0.16448105255E+04  0.16448105255E+04  0.25500000000E-02 0.  1.
          2   -1    0    0  501    0  0.00000000000E+00 -0.00000000000E+00 -0.97738894901E+03  0.97738894902E+03  0.25500000000E-02 0. -1.
    8880022    1    1    2    0    0 -0.11713937450E+04 -0.14338781655E+03 -0.11880495393E+03  0.11959220885E+04  0.15294330000E+03 0.  0.
    8880022    1    1    2    0    0  0.11713937450E+04  0.14338781655E+03  0.78622653043E+03  0.14262773860E+04  0.15294330000E+03 0.  0.
<mgrwt>
<rscale>  0 0.11900063E+04</rscale>
<asrwt>0</asrwt>
<pdfrwt beam="1">  1        2 0.15036753E+00 0.11900063E+04</pdfrwt>
<pdfrwt beam="2">  1       -2 0.25304777E+00 0.11900063E+04</pdfrwt>
<totfact> 0.15643942E+00</totfact>
</mgrwt>
</event>
<event>
 4    1  0.4639964E-008  0.7595936E+03  0.7818608E-02  0.9620419E-01
          2   -1    0    0  501    0  0.00000000000E+00  0.00000000000E+00  0.11491759864E+04  0.11491759864E+04  0.25500000000E-02 0. -1.
         -2   -1    0    0    0  501 -0.00000000000E+00 -0.00000000000E+00 -0.67614162885E+03  0.67614162886E+03  0.25500000000E-02 0.  1.
    8880022    1    1    2    0    0  0.54868681424E+03  0.50252713743E+03  0.69957653427E+03  0.10326614761E+04  0.15294330000E+03 0.  0.
    8880022    1    1    2    0    0 -0.54868681424E+03 -0.50252713743E+03 -0.22654217675E+03  0.79265613910E+03  0.15294330000E+03 0.  0.
<mgrwt>
<rscale>  0 0.75959357E+03</rscale>
<asrwt>0</asrwt>
<pdfrwt beam="1">  1        2 0.17679631E+00 0.75959357E+03</pdfrwt>
<pdfrwt beam="2">  1       -2 0.10402179E+00 0.75959357E+03</pdfrwt>
<totfact> 0.15548475E+01</totfact>
</mgrwt>
</event>
<event>
 4    1  0.4639964E-008  0.5342119E+03  0.7818608E-02  0.1005216E+00
          2   -1    0    0  501    0  0.00000000000E+00  0.00000000000E+00  0.14196822083E+04  0.14196822083E+04  0.25500000000E-02 0. -1.
         -2   -1    0    0    0  501 -0.00000000000E+00 -0.00000000000E+00 -0.24149943636E+03  0.24149943637E+03  0.25500000000E-02 0.  1.
    8880022    1    1    2    0    0  0.42089787366E+03 -0.29126569975E+03  0.92915046078E+03  0.10717756107E+04  0.15294330000E+03 0.  0.
    8880022    1    1    2    0    0 -0.42089787366E+03  0.29126569975E+03  0.24903231120E+03  0.58940603402E+03  0.15294330000E+03 0.  0.
<mgrwt>
<rscale>  0 0.53421193E+03</rscale>
<asrwt>0</asrwt>
<pdfrwt beam="1">  1        2 0.21841265E+00 0.53421193E+03</pdfrwt>
<pdfrwt beam="2">  1       -2 0.37153759E-01 0.53421193E+03</pdfrwt>
<totfact> 0.10018621E+02</totfact>
</mgrwt>
</event>
<event>
 4    1  0.4639964E-008  0.7354693E+03  0.7818608E-02  0.9658427E-01
          2   -1    0    0  501    0  0.00000000000E+00  0.00000000000E+00  0.16160677918E+04  0.16160677918E+04  0.25500000000E-02 0. -1.
         -2   -1    0    0    0  501 -0.00000000000E+00 -0.00000000000E+00 -0.77981576832E+03  0.77981576832E+03  0.25500000000E-02 0.  1.
    8880022    1    1    2    0    0 -0.69219092273E+03  0.19594669277E+03 -0.48692075305E+03  0.88204696739E+03  0.15294330000E+03 0.  0.
    8880022    1    1    2    0    0  0.69219092273E+03 -0.19594669277E+03  0.13231727765E+04  0.15138365927E+04  0.15294330000E+03 0.  0.
<mgrwt>
<rscale>  0 0.73546926E+03</rscale>
<asrwt>0</asrwt>
<pdfrwt beam="1">  1        2 0.24862581E+00 0.73546926E+03</pdfrwt>
<pdfrwt beam="2">  1       -2 0.11997166E+00 0.73546926E+03</pdfrwt>
<totfact> 0.59760807E+00</totfact>
</mgrwt>
</event>
<event>
 4    1  0.4639964E-008  0.8877180E+03  0.7818608E-02  0.9441066E-01
         -2   -1    0    0    0  501 -0.00000000000E+00  0.00000000000E+00  0.13330061414E+04  0.13330061414E+04  0.25500000000E-02 0.  1.
          2   -1    0    0  501    0  0.00000000000E+00 -0.00000000000E+00 -0.76695155635E+03  0.76695155636E+03  0.25500000000E-02 0. -1.
    8880022    1    1    2    0    0  0.86561532052E+03 -0.12394221876E+03  0.78568691178E+03  0.11854733793E+04  0.15294330000E+03 0.  0.
    8880022    1    1    2    0    0 -0.86561532052E+03  0.12394221876E+03 -0.21963232674E+03  0.91448431844E+03  0.15294330000E+03 0.  0.
<mgrwt>
<rscale>  0 0.88771798E+03</rscale>
<asrwt>0</asrwt>
<pdfrwt beam="1">  1        2 0.11799255E+00 0.88771798E+03</pdfrwt>
<pdfrwt beam="2">  1       -2 0.20507787E+00 0.88771798E+03</pdfrwt>
<totfact> 0.45112854E+00</totfact>
</mgrwt>
</event>
<event>
 4    1  0.4639964E-008  0.5261332E+03  0.7818608E-02  0.1007174E+00
         -2   -1    0    0    0  501 -0.00000000000E+00  0.00000000000E+00  0.27301768548E+03  0.27301768550E+03  0.25500000000E-02 0.  1.
          2   -1    0    0  501    0  0.00000000000E+00 -0.00000000000E+00 -0.16504326750E+04  0.16504326750E+04  0.25500000000E-02 0. -1.
    8880022    1    1    2    0    0 -0.50187320501E+03 -0.39342033130E+02 -0.91454935735E+02  0.53402262852E+03  0.15294330000E+03 0.  0.
    8880022    1    1    2    0    0  0.50187320501E+03  0.39342033130E+02 -0.12859600538E+04  0.13894277320E+04  0.15294330000E+03 0.  0.
<mgrwt>
<rscale>  0 0.52613322E+03</rscale>
<asrwt>0</asrwt>
<pdfrwt beam="1">  1        2 0.25391271E+00 0.52613322E+03</pdfrwt>
<pdfrwt beam="2">  1       -2 0.42002722E-01 0.52613322E+03</pdfrwt>
<totfact> 0.59105927E+01</totfact>
</mgrwt>
</event>
<event>
 4    1  0.4639964E-008  0.2497531E+03  0.7818608E-02  0.1113461E+00
         -2   -1    0    0    0  501 -0.00000000000E+00  0.00000000000E+00  0.14384078526E+04  0.14384078526E+04  0.25500000000E-02 0.  1.
          2   -1    0    0  501    0  0.00000000000E+00 -0.00000000000E+00 -0.10453487646E+03  0.10453487650E+03  0.25500000000E-02 0. -1.
    8880022    1    1    2    0    0 -0.76623721100E+01  0.19729741150E+03  0.76792731237E+02  0.26129247429E+03  0.15294330000E+03 0.  0.
    8880022    1    1    2    0    0  0.76623721100E+01 -0.19729741150E+03  0.12570802449E+04  0.12816502548E+04  0.15294330000E+03 0.  1.
<mgrwt>
<rscale>  0 0.24975315E+03</rscale>
<asrwt>0</asrwt>
<pdfrwt beam="1">  1        2 0.16082287E-01 0.24975315E+03</pdfrwt>
<pdfrwt beam="2">  1       -2 0.22129353E+00 0.24975315E+03</pdfrwt>
<totfact> 0.38376368E+01</totfact>
</mgrwt>
</event>
<event>
 4    1  0.4639964E-008  0.2005589E+03  0.7818608E-02  0.1149268E+00
         -2   -1    0    0    0  501 -0.00000000000E+00  0.00000000000E+00  0.24909988233E+02  0.24909988363E+02  0.25500000000E-02 0.  1.
          2   -1    0    0  501    0  0.00000000000E+00 -0.00000000000E+00 -0.26001281362E+04  0.26001281362E+04  0.25500000000E-02 0. -1.
    8880022    1    1    2    0    0 -0.12704765613E+03  0.26289075022E+02 -0.20955982282E+04  0.21051735817E+04  0.15294330000E+03 0.  0.
    8880022    1    1    2    0    0  0.12704765613E+03 -0.26289075022E+02 -0.47961991984E+03  0.51986454285E+03  0.15294330000E+03 0.  1.
<mgrwt>
<rscale>  0 0.20055891E+03</rscale>
<asrwt>0</asrwt>
<pdfrwt beam="1">  1        2 0.40001950E+00 0.20055891E+03</pdfrwt>
<pdfrwt beam="2">  1       -2 0.38323080E-02 0.20055891E+03</pdfrwt>
<totfact> 0.10482890E+03</totfact>
</mgrwt>
</event>
<event>
 4    1  0.4639964E-008  0.6645690E+03  0.7818608E-02  0.9779819E-01
         -2   -1    0    0    0  501 -0.00000000000E+00  0.00000000000E+00  0.22723148389E+04  0.22723148389E+04  0.25500000000E-02 0.  1.
          2   -1    0    0  501    0  0.00000000000E+00 -0.00000000000E+00 -0.81175300285E+03  0.81175300285E+03  0.25500000000E-02 0. -1.
    8880022    1    1    2    0    0  0.64091748483E+03  0.86516179045E+02  0.20750944856E+04  0.21789146493E+04  0.15294330000E+03 0.  1.
    8880022    1    1    2    0    0 -0.64091748483E+03 -0.86516179045E+02 -0.61453264952E+03  0.90515319252E+03  0.15294330000E+03 0.  0.
<mgrwt>
<rscale>  0 0.66456898E+03</rscale>
<asrwt>0</asrwt>
<pdfrwt beam="1">  1        2 0.12488508E+00 0.66456898E+03</pdfrwt>
<pdfrwt beam="2">  1       -2 0.34958689E+00 0.66456898E+03</pdfrwt>
<totfact> 0.56912625E-01</totfact>
</mgrwt>
</event>
<event>
 4    1  0.4639964E-008  0.7587189E+03  0.7818608E-02  0.9621770E-01
          2   -1    0    0  501    0  0.00000000000E+00  0.00000000000E+00  0.22047387634E+04  0.22047387634E+04  0.25500000000E-02 0. -1.
         -2   -1    0    0    0  501 -0.00000000000E+00 -0.00000000000E+00 -0.58540723551E+03  0.58540723551E+03  0.25500000000E-02 0.  1.
    8880022    1    1    2    0    0  0.29923173612E+03  0.68023750611E+03  0.18480237390E+04  0.19977102116E+04  0.15294330000E+03 0.  0.
    8880022    1    1    2    0    0 -0.29923173612E+03 -0.68023750611E+03 -0.22869221108E+03  0.79243578734E+03  0.15294330000E+03 0.  0.
<mgrwt>
<rscale>  0 0.75871889E+03</rscale>
<asrwt>0</asrwt>
<pdfrwt beam="1">  1        2 0.33919058E+00 0.75871889E+03</pdfrwt>
<pdfrwt beam="2">  1       -2 0.90062652E-01 0.75871889E+03</pdfrwt>
<totfact> 0.56302259E+00</totfact>
</mgrwt>
</event>
<event>
 4    1  0.4639964E-008  0.5209021E+03  0.7818608E-02  0.1008463E+00
         -2   -1    0    0    0  501 -0.00000000000E+00  0.00000000000E+00  0.38905996937E+03  0.38905996938E+03  0.25500000000E-02 0.  1.
          2   -1    0    0  501    0  0.00000000000E+00 -0.00000000000E+00 -0.14711757561E+04  0.14711757561E+04  0.25500000000E-02 0. -1.
    8880022    1    1    2    0    0 -0.42358753973E+03  0.26176504420E+03  0.13348113214E+03  0.53773246864E+03  0.15294330000E+03 0.  0.
    8880022    1    1    2    0    0  0.42358753973E+03 -0.26176504420E+03 -0.12155969189E+04  0.13225032568E+04  0.15294330000E+03 0.  0.
<mgrwt>
<rscale>  0 0.52090210E+03</rscale>
<asrwt>0</asrwt>
<pdfrwt beam="1">  1        2 0.22633473E+00 0.52090210E+03</pdfrwt>
<pdfrwt beam="2">  1       -2 0.59855381E-01 0.52090210E+03</pdfrwt>
<totfact> 0.36160136E+01</totfact>
</mgrwt>
</event>
<event>
 4    1  0.4639964E-008  0.6527937E+03  0.7818608E-02  0.9801551E-01
          2   -1    0    0  501    0  0.00000000000E+00  0.00000000000E+00  0.73253535285E+03  0.73253535285E+03  0.25500000000E-02 0. -1.
         -2   -1    0    0    0  501 -0.00000000000E+00 -0.00000000000E+00 -0.78946742795E+03  0.78946742795E+03  0.25500000000E-02 0.  1.
    8880022    1    1    2    0    0 -0.25877207309E+03  0.57946954421E+03 -0.41883308295E+03  0.77560347012E+03  0.15294330000E+03 0.  0.
    8880022    1    1    2    0    0  0.25877207309E+03 -0.57946954421E+03  0.36190100785E+03  0.74639931068E+03  0.15294330000E+03 0.  0.
<mgrwt>
<rscale>  0 0.65279368E+03</rscale>
<asrwt>0</asrwt>
<pdfrwt beam="1">  1        2 0.11269775E+00 0.65279368E+03</pdfrwt>
<pdfrwt beam="2">  1       -2 0.12145653E+00 0.65279368E+03</pdfrwt>
<totfact> 0.20401958E+01</totfact>
</mgrwt>
</event>
<event>
 4    1  0.4639964E-008  0.7474656E+03  0.7818608E-02  0.9639335E-01
          2   -1    0    0  501    0  0.00000000000E+00  0.00000000000E+00  0.29539531936E+04  0.29539531936E+04  0.25500000000E-02 0. -1.
         -2   -1    0    0    0  501 -0.00000000000E+00 -0.00000000000E+00 -0.59917171524E+03  0.59917171524E+03  0.25500000000E-02 0.  1.
    8880022    1    1    2    0    0 -0.70824325656E+03 -0.18358817472E+03 -0.29226161628E+03  0.80257188695E+03  0.15294330000E+03 0.  0.
    8880022    1    1    2    0    0  0.70824325656E+03  0.18358817472E+03  0.26470430947E+04  0.27505530219E+04  0.15294330000E+03 0.  0.
<mgrwt>
<rscale>  0 0.74746557E+03</rscale>
<asrwt>0</asrwt>
<pdfrwt beam="1">  1        2 0.45445434E+00 0.74746557E+03</pdfrwt>
<pdfrwt beam="2">  1       -2 0.92180264E-01 0.74746557E+03</pdfrwt>
<totfact> 0.19836005E+00</totfact>
</mgrwt>
</event>
<event>
 4    1  0.4639964E-008  0.8018973E+03  0.7818608E-02  0.9557275E-01
         -2   -1    0    0    0  501 -0.00000000000E+00  0.00000000000E+00  0.42250504648E+03  0.42250504649E+03  0.25500000000E-02 0.  1.
          2   -1    0    0  501    0  0.00000000000E+00 -0.00000000000E+00 -0.18398782107E+04  0.18398782107E+04  0.25500000000E-02 0. -1.
    8880022    1    1    2    0    0 -0.60792129779E+03 -0.50007937536E+03 -0.11788984588E+04  0.14257773021E+04  0.15294330000E+03 0.  0.
    8880022    1    1    2    0    0  0.60792129779E+03  0.50007937536E+03 -0.23847470542E+03  0.83660595510E+03  0.15294330000E+03 0.  0.
<mgrwt>
<rscale>  0 0.80189734E+03</rscale>
<asrwt>0</asrwt>
<pdfrwt beam="1">  1        2 0.28305818E+00 0.80189734E+03</pdfrwt>
<pdfrwt beam="2">  1       -2 0.65000777E-01 0.80189734E+03</pdfrwt>
<totfact> 0.18327987E+01</totfact>
</mgrwt>
</event>
<event>
 4    1  0.4639964E-008  0.1915657E+03  0.7818608E-02  0.1157057E+00
          2   -1    0    0  501    0  0.00000000000E+00  0.00000000000E+00  0.59483033737E+03  0.59483033737E+03  0.25500000000E-02 0. -1.
         -2   -1    0    0    0  501 -0.00000000000E+00 -0.00000000000E+00 -0.71965237525E+03  0.71965237525E+03  0.25500000000E-02 0.  1.
    8880022    1    1    2    0    0  0.11468610846E+03 -0.12363243821E+02  0.56602742233E+03  0.59756543500E+03  0.15294330000E+03 0.  0.
    8880022    1    1    2    0    0 -0.11468610846E+03  0.12363243821E+02 -0.69084946020E+03  0.71691727762E+03  0.15294330000E+03 0.  1.
<mgrwt>
<rscale>  0 0.19156567E+03</rscale>
<asrwt>0</asrwt>
<pdfrwt beam="1">  1        2 0.91512359E-01 0.19156567E+03</pdfrwt>
<pdfrwt beam="2">  1       -2 0.11071575E+00 0.19156567E+03</pdfrwt>
<totfact> 0.35539099E+01</totfact>
</mgrwt>
</event>
<event>
 4    1  0.4639964E-008  0.3320912E+03  0.7818608E-02  0.1070215E+00
         -2   -1    0    0    0  501 -0.00000000000E+00  0.00000000000E+00  0.12757726063E+03  0.12757726065E+03  0.25500000000E-02 0.  1.
          2   -1    0    0  501    0  0.00000000000E+00 -0.00000000000E+00 -0.96500637770E+03  0.96500637771E+03  0.25500000000E-02 0. -1.
    8880022    1    1    2    0    0  0.28507231875E+03  0.75011164181E+02 -0.59505737985E+03  0.68145274231E+03  0.15294330000E+03 0. -1.
    8880022    1    1    2    0    0 -0.28507231875E+03 -0.75011164181E+02 -0.24237173722E+03  0.41113089605E+03  0.15294330000E+03 0.  0.
<mgrwt>
<rscale>  0 0.33209118E+03</rscale>
<asrwt>0</asrwt>
<pdfrwt beam="1">  1        2 0.14846252E+00 0.33209118E+03</pdfrwt>
<pdfrwt beam="2">  1       -2 0.19627271E-01 0.33209118E+03</pdfrwt>
<totfact> 0.59957810E+02</totfact>
</mgrwt>
</event>
<event>
 4    1  0.4639964E-008  0.8018334E+03  0.7818608E-02  0.9557367E-01
         -2   -1    0    0    0  501 -0.00000000000E+00  0.00000000000E+00  0.33402083146E+03  0.33402083147E+03  0.25500000000E-02 0.  1.
          2   -1    0    0  501    0  0.00000000000E+00 -0.00000000000E+00 -0.21995159216E+04  0.21995159216E+04  0.25500000000E-02 0. -1.
    8880022    1    1    2    0    0  0.28013758038E+03  0.73557325231E+03 -0.48509218447E+03  0.93715055029E+03  0.15294330000E+03 0.  0.
    8880022    1    1    2    0    0 -0.28013758038E+03 -0.73557325231E+03 -0.13804029056E+04  0.15963862028E+04  0.15294330000E+03 0.  0.
<mgrwt>
<rscale>  0 0.80183335E+03</rscale>
<asrwt>0</asrwt>
<pdfrwt beam="1">  1        2 0.33838706E+00 0.80183335E+03</pdfrwt>
<pdfrwt beam="2">  1       -2 0.51387822E-01 0.80183335E+03</pdfrwt>
<totfact> 0.19063478E+01</totfact>
</mgrwt>
</event>
<event>
 4    1  0.4639964E-008  0.4049608E+03  0.7818608E-02  0.1042075E+00
         -2   -1    0    0    0  501 -0.00000000000E+00  0.00000000000E+00  0.21163597834E+03  0.21163597835E+03  0.25500000000E-02 0.  1.
          2   -1    0    0  501    0  0.00000000000E+00 -0.00000000000E+00 -0.16386215239E+04  0.16386215239E+04  0.25500000000E-02 0. -1.
    8880022    1    1    2    0    0  0.30318993492E+01  0.37495650716E+03 -0.41825991505E+02  0.40711502215E+03  0.15294330000E+03 0.  1.
    8880022    1    1    2    0    0 -0.30318993492E+01 -0.37495650716E+03 -0.13851595540E+04  0.14431424801E+04  0.15294330000E+03 0.  0.
<mgrwt>
<rscale>  0 0.40496077E+03</rscale>
<asrwt>0</asrwt>
<pdfrwt beam="1">  1        2 0.25209561E+00 0.40496077E+03</pdfrwt>
<pdfrwt beam="2">  1       -2 0.32559382E-01 0.40496077E+03</pdfrwt>
<totfact> 0.99476471E+01</totfact>
</mgrwt>
</event>
<event>
 4    1  0.4639964E-008  0.6407913E+03  0.7818608E-02  0.9824214E-01
         -2   -1    0    0    0  501 -0.00000000000E+00  0.00000000000E+00  0.67874983916E+03  0.67874983917E+03  0.25500000000E-02 0.  1.
          2   -1    0    0  501    0  0.00000000000E+00 -0.00000000000E+00 -0.80206100785E+03  0.80206100786E+03  0.25500000000E-02 0. -1.
    8880022    1    1    2    0    0  0.53402296401E+03  0.31943899312E+03 -0.42869716612E+03  0.77096997975E+03  0.15294330000E+03 0.  0.
    8880022    1    1    2    0    0 -0.53402296401E+03 -0.31943899312E+03  0.30538599743E+03  0.70984086728E+03  0.15294330000E+03 0.  0.
<mgrwt>
<rscale>  0 0.64079127E+03</rscale>
<asrwt>0</asrwt>
<pdfrwt beam="1">  1        2 0.12339400E+00 0.64079127E+03</pdfrwt>
<pdfrwt beam="2">  1       -2 0.10442305E+00 0.64079127E+03</pdfrwt>
<totfact> 0.26220066E+01</totfact>
</mgrwt>
</event>
<event>
 4    1  0.4639964E-008  0.2391976E+03  0.7818608E-02  0.1120329E+00
         -2   -1    0    0    0  501 -0.00000000000E+00  0.00000000000E+00  0.48841442759E+02  0.48841442825E+02  0.25500000000E-02 0.  1.
          2   -1    0    0  501    0  0.00000000000E+00 -0.00000000000E+00 -0.17313776674E+04  0.17313776674E+04  0.25500000000E-02 0. -1.
    8880022    1    1    2    0    0 -0.92833158940E+02  0.15876341919E+03 -0.13474565523E+04  0.13685227919E+04  0.15294330000E+03 0. -1.
    8880022    1    1    2    0    0  0.92833158940E+02 -0.15876341919E+03 -0.33507967235E+03  0.41169631831E+03  0.15294330000E+03 0.  0.
<mgrwt>
<rscale>  0 0.23919756E+03</rscale>
<asrwt>0</asrwt>
<pdfrwt beam="1">  1        2 0.26636575E+00 0.23919756E+03</pdfrwt>
<pdfrwt beam="2">  1       -2 0.75140695E-02 0.23919756E+03</pdfrwt>
<totfact> 0.10770694E+03</totfact>
</mgrwt>
</event>
<event>
 4    1  0.4639964E-008  0.2529950E+03  0.7818608E-02  0.1111427E+00
          2   -1    0    0  501    0  0.00000000000E+00  0.00000000000E+00  0.19022444702E+03  0.19022444704E+03  0.25500000000E-02 0. -1.
         -2   -1    0    0    0  501 -0.00000000000E+00 -0.00000000000E+00 -0.95276324942E+03  0.95276324943E+03  0.25500000000E-02 0.  1.
    8880022    1    1    2    0    0  0.16384021802E+03  0.11735086071E+03 -0.84090077402E+03  0.87813473129E+03  0.15294330000E+03 0.  1.
    8880022    1    1    2    0    0 -0.16384021802E+03 -0.11735086071E+03  0.78361971614E+02  0.26485296517E+03  0.15294330000E+03 0.  0.
<mgrwt>
<rscale>  0 0.25299505E+03</rscale>
<asrwt>0</asrwt>
<pdfrwt beam="1">  1        2 0.29265300E-01 0.25299505E+03</pdfrwt>
<pdfrwt beam="2">  1       -2 0.14657896E+00 0.25299505E+03</pdfrwt>
<totfact> 0.61215531E+01</totfact>
</mgrwt>
</event>
<event>
 4    1  0.4639964E-008  0.4038335E+03  0.7818608E-02  0.1042460E+00
         -2   -1    0    0    0  501 -0.00000000000E+00  0.00000000000E+00  0.22590588251E+03  0.22590588252E+03  0.25500000000E-02 0.  1.
          2   -1    0    0  501    0  0.00000000000E+00 -0.00000000000E+00 -0.17143464942E+04  0.17143464942E+04  0.25500000000E-02 0. -1.
    8880022    1    1    2    0    0  0.32959724781E+03 -0.17622566700E+03 -0.14823496154E+04  0.15363729582E+04  0.15294330000E+03 0.  0.
    8880022    1    1    2    0    0 -0.32959724781E+03  0.17622566700E+03 -0.60909963476E+01  0.40387941855E+03  0.15294330000E+03 0.  0.
<mgrwt>
<rscale>  0 0.40383349E+03</rscale>
<asrwt>0</asrwt>
<pdfrwt beam="1">  1        2 0.26374561E+00 0.40383349E+03</pdfrwt>
<pdfrwt beam="2">  1       -2 0.34754752E-01 0.40383349E+03</pdfrwt>
<totfact> 0.80194757E+01</totfact>
</mgrwt>
</event>
<event>
 4    1  0.4639964E-008  0.3657358E+03  0.7818608E-02  0.1056336E+00
          2   -1    0    0  501    0  0.00000000000E+00  0.00000000000E+00  0.14792099421E+04  0.14792099421E+04  0.25500000000E-02 0. -1.
         -2   -1    0    0    0  501 -0.00000000000E+00 -0.00000000000E+00 -0.96258739834E+02  0.96258739868E+02  0.25500000000E-02 0.  1.
    8880022    1    1    2    0    0 -0.19792383376E+03  0.26682798371E+03  0.88534290695E+03  0.95791165186E+03  0.15294330000E+03 0. -1.
    8880022    1    1    2    0    0  0.19792383376E+03 -0.26682798371E+03  0.49760829530E+03  0.61755703010E+03  0.15294330000E+03 0.  1.
<mgrwt>
<rscale>  0 0.36573579E+03</rscale>
<asrwt>0</asrwt>
<pdfrwt beam="1">  1        2 0.22757075E+00 0.36573579E+03</pdfrwt>
<pdfrwt beam="2">  1       -2 0.14809038E-01 0.36573579E+03</pdfrwt>
<totfact> 0.48630419E+02</totfact>
</mgrwt>
</event>
<event>
 4    1  0.4639964E-008  0.5328928E+03  0.7818608E-02  0.1005533E+00
          2   -1    0    0  501    0  0.00000000000E+00  0.00000000000E+00  0.19256840164E+04  0.19256840164E+04  0.25500000000E-02 0. -1.
         -2   -1    0    0    0  501 -0.00000000000E+00 -0.00000000000E+00 -0.37691229622E+03  0.37691229623E+03  0.25500000000E-02 0.  1.
    8880022    1    1    2    0    0  0.14837176088E+03 -0.48843515239E+03  0.16726566796E+04  0.17554928363E+04  0.15294330000E+03 0.  0.
    8880022    1    1    2    0    0 -0.14837176088E+03  0.48843515239E+03 -0.12388495949E+03  0.54710347625E+03  0.15294330000E+03 0.  0.
<mgrwt>
<rscale>  0 0.53289279E+03</rscale>
<asrwt>0</asrwt>
<pdfrwt beam="1">  1        2 0.29625908E+00 0.53289279E+03</pdfrwt>
<pdfrwt beam="2">  1       -2 0.57986507E-01 0.53289279E+03</pdfrwt>
<totfact> 0.21861004E+01</totfact>
</mgrwt>
</event>
<event>
 4    1  0.4639964E-008  0.3583969E+03  0.7818608E-02  0.1059220E+00
          2   -1    0    0  501    0  0.00000000000E+00  0.00000000000E+00  0.99423835268E+03  0.99423835268E+03  0.25500000000E-02 0. -1.
         -2   -1    0    0    0  501 -0.00000000000E+00 -0.00000000000E+00 -0.39009160056E+03  0.39009160057E+03  0.25500000000E-02 0.  1.
    8880022    1    1    2    0    0  0.28229192547E+03  0.15927316462E+03  0.86813336077E+03  0.93920384223E+03  0.15294330000E+03 0. -1.
    8880022    1    1    2    0    0 -0.28229192547E+03 -0.15927316462E+03 -0.26398660866E+03  0.44512611103E+03  0.15294330000E+03 0.  0.
<mgrwt>
<rscale>  0 0.35839688E+03</rscale>
<asrwt>0</asrwt>
<pdfrwt beam="1">  1        2 0.15295975E+00 0.35839688E+03</pdfrwt>
<pdfrwt beam="2">  1       -2 0.60014092E-01 0.35839688E+03</pdfrwt>
<totfact> 0.69786019E+01</totfact>
</mgrwt>
</event>
<event>
 4    1  0.4639964E-008  0.4557608E+03  0.7818608E-02  0.1026018E+00
         -2   -1    0    0    0  501 -0.00000000000E+00  0.00000000000E+00  0.36020419166E+03  0.36020419167E+03  0.25500000000E-02 0.  1.
          2   -1    0    0  501    0  0.00000000000E+00 -0.00000000000E+00 -0.23002516794E+04  0.23002516794E+04  0.25500000000E-02 0. -1.
    8880022    1    1    2    0    0 -0.25160604666E+03 -0.34788020188E+03  0.18145172815E+03  0.49055338164E+03  0.15294330000E+03 0.  0.
    8880022    1    1    2    0    0  0.25160604666E+03  0.34788020188E+03 -0.21214992159E+04  0.21699024895E+04  0.15294330000E+03 0.  0.
<mgrwt>
<rscale>  0 0.45576078E+03</rscale>
<asrwt>0</asrwt>
<pdfrwt beam="1">  1        2 0.35388486E+00 0.45576078E+03</pdfrwt>
<pdfrwt beam="2">  1       -2 0.55416031E-01 0.45576078E+03</pdfrwt>
<totfact> 0.15319269E+01</totfact>
</mgrwt>
</event>
<event>
 4    1  0.4639964E-008  0.7879420E+03  0.7818608E-02  0.9577636E-01
          2   -1    0    0  501    0  0.00000000000E+00  0.00000000000E+00  0.92338240638E+03  0.92338240638E+03  0.25500000000E-02 0. -1.
         -2   -1    0    0    0  501 -0.00000000000E+00 -0.00000000000E+00 -0.12723720583E+04  0.12723720583E+04  0.25500000000E-02 0.  1.
    8880022    1    1    2    0    0  0.37579459597E+03  0.67545492332E+03  0.57942278516E+03  0.97805079048E+03  0.15294330000E+03 0.  0.
    8880022    1    1    2    0    0 -0.37579459597E+03 -0.67545492332E+03 -0.92841243705E+03  0.12177036742E+04  0.15294330000E+03 0.  0.
<mgrwt>
<rscale>  0 0.78794199E+03</rscale>
<asrwt>0</asrwt>
<pdfrwt beam="1">  1        2 0.14205883E+00 0.78794199E+03</pdfrwt>
<pdfrwt beam="2">  1       -2 0.19574955E+00 0.78794199E+03</pdfrwt>
<totfact> 0.40814321E+00</totfact>
</mgrwt>
</event>
<event>
 4    1  0.4639964E-008  0.1004294E+04  0.7818608E-02  0.9303847E-01
          2   -1    0    0  501    0  0.00000000000E+00  0.00000000000E+00  0.29916758414E+04  0.29916758414E+04  0.25500000000E-02 0. -1.
         -2   -1    0    0    0  501 -0.00000000000E+00 -0.00000000000E+00 -0.76208104503E+03  0.76208104504E+03  0.25500000000E-02 0.  1.
    8880022    1    1    2    0    0 -0.81183420196E+03  0.57108711962E+03 -0.28672823953E+03  0.10444232887E+04  0.15294330000E+03 0.  0.
    8880022    1    1    2    0    0  0.81183420196E+03 -0.57108711962E+03  0.25163230359E+04  0.27093335977E+04  0.15294330000E+03 0.  0.
<mgrwt>
<rscale>  0 0.10042942E+04</rscale>
<asrwt>0</asrwt>
<pdfrwt beam="1">  1        2 0.46025783E+00 0.10042942E+04</pdfrwt>
<pdfrwt beam="2">  1       -2 0.11724324E+00 0.10042942E+04</pdfrwt>
<totfact> 0.10082278E+00</totfact>
</mgrwt>
</event>
<event>
 4    1  0.4639964E-008  0.1271183E+04  0.7818608E-02  0.9052735E-01
          2   -1    0    0  501    0  0.00000000000E+00  0.00000000000E+00  0.28900058769E+04  0.28900058769E+04  0.25500000000E-02 0. -1.
         -2   -1    0    0    0  501 -0.00000000000E+00 -0.00000000000E+00 -0.11376774256E+04  0.11376774256E+04  0.25500000000E-02 0.  1.
    8880022    1    1    2    0    0  0.80223591131E+03  0.97413120811E+03  0.23122588543E+04  0.26386448663E+04  0.15294330000E+03 0.  0.
    8880022    1    1    2    0    0 -0.80223591131E+03 -0.97413120811E+03 -0.55993040296E+03  0.13890384362E+04  0.15294330000E+03 0.  0.
<mgrwt>
<rscale>  0 0.12711828E+04</rscale>
<asrwt>0</asrwt>
<pdfrwt beam="1">  1        2 0.44461629E+00 0.12711828E+04</pdfrwt>
<pdfrwt beam="2">  1       -2 0.17502730E+00 0.12711828E+04</pdfrwt>
<totfact> 0.38882936E-01</totfact>
</mgrwt>
</event>
<event>
 4    1  0.4639964E-008  0.3511410E+03  0.7818608E-02  0.1062148E+00
         -2   -1    0    0    0  501 -0.00000000000E+00  0.00000000000E+00  0.74345187898E+02  0.74345187942E+02  0.25500000000E-02 0.  1.
          2   -1    0    0  501    0  0.00000000000E+00 -0.00000000000E+00 -0.33561219331E+04  0.33561219331E+04  0.25500000000E-02 0. -1.
    8880022    1    1    2    0    0  0.30058141578E+03 -0.97771135286E+02 -0.42097947572E+03  0.54820046917E+03  0.15294330000E+03 0.  0.
    8880022    1    1    2    0    0 -0.30058141578E+03  0.97771135286E+02 -0.28607972695E+04  0.28822666519E+04  0.15294330000E+03 0.  0.
<mgrwt>
<rscale>  0 0.35114105E+03</rscale>
<asrwt>0</asrwt>
<pdfrwt beam="1">  1        2 0.51632633E+00 0.35114105E+03</pdfrwt>
<pdfrwt beam="2">  1       -2 0.11437724E-01 0.35114105E+03</pdfrwt>
<totfact> 0.65502295E+01</totfact>
</mgrwt>
</event>
<event>
 4    1  0.4639964E-008  0.5865741E+03  0.7818608E-02  0.9933659E-01
         -2   -1    0    0    0  501 -0.00000000000E+00  0.00000000000E+00  0.76589621333E+03  0.76589621333E+03  0.25500000000E-02 0.  1.
          2   -1    0    0  501    0  0.00000000000E+00 -0.00000000000E+00 -0.12596018304E+04  0.12596018304E+04  0.25500000000E-02 0. -1.
    8880022    1    1    2    0    0 -0.53212802214E+03 -0.19369384592E+03 -0.10591695190E+04  0.12107473976E+04  0.15294330000E+03 0. -1.
    8880022    1    1    2    0    0  0.53212802214E+03  0.19369384592E+03  0.56546390193E+03  0.81475064609E+03  0.15294330000E+03 0.  0.
<mgrwt>
<rscale>  0 0.58657411E+03</rscale>
<asrwt>0</asrwt>
<pdfrwt beam="1">  1        2 0.19378490E+00 0.58657411E+03</pdfrwt>
<pdfrwt beam="2">  1       -2 0.11783019E+00 0.58657411E+03</pdfrwt>
<totfact> 0.10137168E+01</totfact>
</mgrwt>
</event>
<event>
 4    1  0.5126526E-008  0.5877659E+03  0.7818608E-02  0.9931118E-01
         -2   -1    0    0    0  501 -0.00000000000E+00  0.00000000000E+00  0.12578971785E+04  0.12578971785E+04  0.25500000000E-02 0.  1.
          2   -1    0    0  501    0  0.00000000000E+00 -0.00000000000E+00 -0.20609784777E+04  0.20609784777E+04  0.25500000000E-02 0. -1.
    8880022    1    1    2    0    0  0.95193029145E+02 -0.55947776215E+03 -0.19464611943E+04  0.20332682836E+04  0.15294330000E+03 0. -1.
    8880022    1    1    2    0    0 -0.95193029145E+02  0.55947776215E+03  0.11433798951E+04  0.12856073727E+04  0.15294330000E+03 0.  0.
<mgrwt>
<rscale>  0 0.58776588E+03</rscale>
<asrwt>0</asrwt>
<pdfrwt beam="1">  1        2 0.31707361E+00 0.58776588E+03</pdfrwt>
<pdfrwt beam="2">  1       -2 0.19352264E+00 0.58776588E+03</pdfrwt>
<totfact> 0.98417263E-01</totfact>
</mgrwt>
</event>
<event>
 4    1  0.4639964E-008  0.1050296E+04  0.7818608E-02  0.9255038E-01
         -2   -1    0    0    0  501 -0.00000000000E+00  0.00000000000E+00  0.53954177380E+03  0.53954177380E+03  0.25500000000E-02 0.  1.
          2   -1    0    0  501    0  0.00000000000E+00 -0.00000000000E+00 -0.28848366808E+04  0.28848366808E+04  0.25500000000E-02 0. -1.
    8880022    1    1    2    0    0 -0.85628014398E+03  0.58865519530E+03 -0.24857960954E+03  0.10793118637E+04  0.15294330000E+03 0.  0.
    8880022    1    1    2    0    0  0.85628014398E+03 -0.58865519530E+03 -0.20967152975E+04  0.23450665909E+04  0.15294330000E+03 0.  0.
<mgrwt>
<rscale>  0 0.10502963E+04</rscale>
<asrwt>0</asrwt>
<pdfrwt beam="1">  1        2 0.44382102E+00 0.10502963E+04</pdfrwt>
<pdfrwt beam="2">  1       -2 0.83006428E-01 0.10502963E+04</pdfrwt>
<totfact> 0.26384411E+00</totfact>
</mgrwt>
</event>
<event>
 4    1  0.4639964E-008  0.8825025E+03  0.7818608E-02  0.9447722E-01
          2   -1    0    0  501    0  0.00000000000E+00  0.00000000000E+00  0.13189782711E+04  0.13189782711E+04  0.25500000000E-02 0. -1.
         -2   -1    0    0    0  501 -0.00000000000E+00 -0.00000000000E+00 -0.11786467505E+04  0.11786467505E+04  0.25500000000E-02 0.  1.
    8880022    1    1    2    0    0 -0.55660734408E+03  0.66753822053E+03  0.95235374299E+03  0.12983791111E+04  0.15294330000E+03 0.  0.
    8880022    1    1    2    0    0  0.55660734408E+03 -0.66753822053E+03 -0.81202222237E+03  0.11992459106E+04  0.15294330000E+03 0.  0.
<mgrwt>
<rscale>  0 0.88250250E+03</rscale>
<asrwt>0</asrwt>
<pdfrwt beam="1">  1        2 0.20291973E+00 0.88250250E+03</pdfrwt>
<pdfrwt beam="2">  1       -2 0.18133027E+00 0.88250250E+03</pdfrwt>
<totfact> 0.28800395E+00</totfact>
</mgrwt>
</event>
<event>
 4    1  0.4639964E-008  0.2588798E+03  0.7818608E-02  0.1107818E+00
          2   -1    0    0  501    0  0.00000000000E+00  0.00000000000E+00  0.90298353553E+03  0.90298353553E+03  0.25500000000E-02 0. -1.
         -2   -1    0    0    0  501 -0.00000000000E+00 -0.00000000000E+00 -0.46335752763E+03  0.46335752763E+03  0.25500000000E-02 0.  1.
    8880022    1    1    2    0    0 -0.19998087432E+03 -0.60288927844E+02 -0.40625713672E+03  0.48172981957E+03  0.15294330000E+03 0.  0.
    8880022    1    1    2    0    0  0.19998087432E+03  0.60288927844E+02  0.84588314462E+03  0.88461124359E+03  0.15294330000E+03 0. -1.
<mgrwt>
<rscale>  0 0.25887981E+03</rscale>
<asrwt>0</asrwt>
<pdfrwt beam="1">  1        2 0.13892054E+00 0.25887981E+03</pdfrwt>
<pdfrwt beam="2">  1       -2 0.71285774E-01 0.25887981E+03</pdfrwt>
<totfact> 0.56432909E+01</totfact>
</mgrwt>
</event>
<event>
 4    1  0.4639964E-008  0.4963053E+03  0.7818608E-02  0.1014748E+00
         -2   -1    0    0    0  501 -0.00000000000E+00  0.00000000000E+00  0.41468301278E+03  0.41468301279E+03  0.25500000000E-02 0.  1.
          2   -1    0    0  501    0  0.00000000000E+00 -0.00000000000E+00 -0.20472322782E+04  0.20472322782E+04  0.25500000000E-02 0. -1.
    8880022    1    1    2    0    0 -0.47064056840E+03  0.37745913171E+02  0.22084310371E+03  0.54322244804E+03  0.15294330000E+03 0.  0.
    8880022    1    1    2    0    0  0.47064056840E+03 -0.37745913171E+02 -0.18533923691E+04  0.19186928429E+04  0.15294330000E+03 0.  0.
<mgrwt>
<rscale>  0 0.49630530E+03</rscale>
<asrwt>0</asrwt>
<pdfrwt beam="1">  1        2 0.31495880E+00 0.49630530E+03</pdfrwt>
<pdfrwt beam="2">  1       -2 0.63797388E-01 0.49630530E+03</pdfrwt>
<totfact> 0.15491863E+01</totfact>
</mgrwt>
</event>
<event>
 4    1  0.4639964E-008  0.7554302E+03  0.7818608E-02  0.9626870E-01
         -2   -1    0    0    0  501 -0.00000000000E+00  0.00000000000E+00  0.12117212844E+04  0.12117212844E+04  0.25500000000E-02 0.  1.
          2   -1    0    0  501    0  0.00000000000E+00 -0.00000000000E+00 -0.14212497952E+04  0.14212497952E+04  0.25500000000E-02 0. -1.
    8880022    1    1    2    0    0 -0.73350022931E+03  0.96231491136E+02 -0.11812504142E+04  0.14021509478E+04  0.15294330000E+03 0.  0.
    8880022    1    1    2    0    0  0.73350022931E+03 -0.96231491136E+02  0.97172190337E+03  0.12308201318E+04  0.15294330000E+03 0.  0.
<mgrwt>
<rscale>  0 0.75543017E+03</rscale>
<asrwt>0</asrwt>
<pdfrwt beam="1">  1        2 0.21865381E+00 0.75543017E+03</pdfrwt>
<pdfrwt beam="2">  1       -2 0.18641866E+00 0.75543017E+03</pdfrwt>
<totfact> 0.23703113E+00</totfact>
</mgrwt>
</event>
<event>
 4    1  0.4639964E-008  0.3139744E+03  0.7818608E-02  0.1078456E+00
          2   -1    0    0  501    0  0.00000000000E+00  0.00000000000E+00  0.10820434819E+04  0.10820434819E+04  0.25500000000E-02 0. -1.
         -2   -1    0    0    0  501 -0.00000000000E+00 -0.00000000000E+00 -0.71767268460E+03  0.71767268460E+03  0.25500000000E-02 0.  1.
    8880022    1    1    2    0    0 -0.26243254413E+03 -0.79482213207E+02  0.10229892643E+04  0.10700873564E+04  0.15294330000E+03 0.  0.
    8880022    1    1    2    0    0  0.26243254413E+03  0.79482213207E+02 -0.65861846701E+03  0.72962881010E+03  0.15294330000E+03 0.  1.
<mgrwt>
<rscale>  0 0.31397439E+03</rscale>
<asrwt>0</asrwt>
<pdfrwt beam="1">  1        2 0.16646823E+00 0.31397439E+03</pdfrwt>
<pdfrwt beam="2">  1       -2 0.11041118E+00 0.31397439E+03</pdfrwt>
<totfact> 0.15965216E+01</totfact>
</mgrwt>
</event>
<event>
 4    1  0.4639964E-008  0.3021962E+03  0.7818608E-02  0.1084148E+00
          2   -1    0    0  501    0  0.00000000000E+00  0.00000000000E+00  0.15770652489E+04  0.15770652489E+04  0.25500000000E-02 0. -1.
         -2   -1    0    0    0  501 -0.00000000000E+00 -0.00000000000E+00 -0.48157149869E+03  0.48157149870E+03  0.25500000000E-02 0.  1.
    8880022    1    1    2    0    0  0.20054617843E+03  0.16646960172E+03 -0.41770483941E+03  0.51555783755E+03  0.15294330000E+03 0.  1.
    8880022    1    1    2    0    0 -0.20054617843E+03 -0.16646960172E+03  0.15131985896E+04  0.15430789100E+04  0.15294330000E+03 0.  0.
<mgrwt>
<rscale>  0 0.30219621E+03</rscale>
<asrwt>0</asrwt>
<pdfrwt beam="1">  1        2 0.24262542E+00 0.30219621E+03</pdfrwt>
<pdfrwt beam="2">  1       -2 0.74087924E-01 0.30219621E+03</pdfrwt>
<totfact> 0.21079354E+01</totfact>
</mgrwt>
</event>
<event>
 4    1  0.4639964E-008  0.4532341E+03  0.7818608E-02  0.1026762E+00
         -2   -1    0    0    0  501 -0.00000000000E+00  0.00000000000E+00  0.16932010907E+03  0.16932010908E+03  0.25500000000E-02 0.  1.
          2   -1    0    0  501    0  0.00000000000E+00 -0.00000000000E+00 -0.27767003293E+04  0.27767003293E+04  0.25500000000E-02 0. -1.
    8880022    1    1    2    0    0  0.37820788402E+03  0.19745456531E+03 -0.19836866192E+03  0.49474365883E+03  0.15294330000E+03 0.  0.
    8880022    1    1    2    0    0 -0.37820788402E+03 -0.19745456531E+03 -0.24090115583E+04  0.24512767796E+04  0.15294330000E+03 0.  0.
<mgrwt>
<rscale>  0 0.45323411E+03</rscale>
<asrwt>0</asrwt>
<pdfrwt beam="1">  1        2 0.42718463E+00 0.45323411E+03</pdfrwt>
<pdfrwt beam="2">  1       -2 0.26049250E-01 0.45323411E+03</pdfrwt>
<totfact> 0.35315390E+01</totfact>
</mgrwt>
</event>
<event>
 4    1  0.4639964E-008  0.6745023E+03  0.7818608E-02  0.9761858E-01
         -2   -1    0    0    0  501 -0.00000000000E+00  0.00000000000E+00  0.30600454404E+03  0.30600454405E+03  0.25500000000E-02 0.  1.
          2   -1    0    0  501    0  0.00000000000E+00 -0.00000000000E+00 -0.29032747561E+04  0.29032747561E+04  0.25500000000E-02 0. -1.
    8880022    1    1    2    0    0 -0.58393250568E+03  0.30097270217E+03 -0.24194785755E+04  0.25117384356E+04  0.15294330000E+03 0.  0.
    8880022    1    1    2    0    0  0.58393250568E+03 -0.30097270217E+03 -0.17779163656E+03  0.69754086453E+03  0.15294330000E+03 0.  0.
<mgrwt>
<rscale>  0 0.67450233E+03</rscale>
<asrwt>0</asrwt>
<pdfrwt beam="1">  1        2 0.44665764E+00 0.67450233E+03</pdfrwt>
<pdfrwt beam="2">  1       -2 0.47077624E-01 0.67450233E+03</pdfrwt>
<totfact> 0.92027073E+00</totfact>
</mgrwt>
</event>
<event>
 4    1  0.4639964E-008  0.5652004E+03  0.7818608E-02  0.9980356E-01
          2   -1    0    0  501    0  0.00000000000E+00  0.00000000000E+00  0.19151167607E+04  0.19151167607E+04  0.25500000000E-02 0. -1.
         -2   -1    0    0    0  501 -0.00000000000E+00 -0.00000000000E+00 -0.18317745992E+03  0.18317745994E+03  0.25500000000E-02 0.  1.
    8880022    1    1    2    0    0  0.17304462359E+01  0.54411103704E+03  0.11796262674E+04  0.13080403659E+04  0.15294330000E+03 0.  0.
    8880022    1    1    2    0    0 -0.17304462359E+01 -0.54411103704E+03  0.55231303337E+03  0.79025385473E+03  0.15294330000E+03 0.  0.
<mgrwt>
<rscale>  0 0.56520038E+03</rscale>
<asrwt>0</asrwt>
<pdfrwt beam="1">  1        2 0.29463333E+00 0.56520038E+03</pdfrwt>
<pdfrwt beam="2">  1       -2 0.28181149E-01 0.56520038E+03</pdfrwt>
<totfact> 0.89913467E+01</totfact>
</mgrwt>
</event>
<event>
 4    1  0.4639964E-008  0.1611899E+04  0.7818608E-02  0.8813271E-01
          2   -1    0    0  501    0  0.00000000000E+00  0.00000000000E+00  0.18100392806E+04  0.18100392806E+04  0.25500000000E-02 0. -1.
         -2   -1    0    0    0  501 -0.00000000000E+00 -0.00000000000E+00 -0.19302517685E+04  0.19302517685E+04  0.25500000000E-02 0.  1.
    8880022    1    1    2    0    0 -0.15554130245E+04  0.39435736338E+03 -0.10069634461E+04  0.19005773969E+04  0.15294330000E+03 0.  0.
    8880022    1    1    2    0    0  0.15554130245E+04 -0.39435736338E+03  0.88675095825E+03  0.18397136521E+04  0.15294330000E+03 0.  0.
<mgrwt>
<rscale>  0 0.16118992E+04</rscale>
<asrwt>0</asrwt>
<pdfrwt beam="1">  1        2 0.27846758E+00 0.16118992E+04</pdfrwt>
<pdfrwt beam="2">  1       -2 0.29696181E+00 0.16118992E+04</pdfrwt>
<totfact> 0.26201021E-01</totfact>
</mgrwt>
</event>
<event>
 4    1  0.4639964E-008  0.5846901E+03  0.7818608E-02  0.9937688E-01
         -2   -1    0    0    0  501 -0.00000000000E+00  0.00000000000E+00  0.57533486409E+03  0.57533486410E+03  0.25500000000E-02 0.  1.
          2   -1    0    0  501    0  0.00000000000E+00 -0.00000000000E+00 -0.23125741361E+04  0.23125741361E+04  0.25500000000E-02 0. -1.
    8880022    1    1    2    0    0 -0.55596400614E+03 -0.96823959075E+02 -0.21133201320E+04  0.21927116747E+04  0.15294330000E+03 0.  0.
    8880022    1    1    2    0    0  0.55596400614E+03  0.96823959075E+02  0.37608085994E+03  0.69519732552E+03  0.15294330000E+03 0.  0.
<mgrwt>
<rscale>  0 0.58469010E+03</rscale>
<asrwt>0</asrwt>
<pdfrwt beam="1">  1        2 0.35578063E+00 0.58469010E+03</pdfrwt>
<pdfrwt beam="2">  1       -2 0.88513058E-01 0.58469010E+03</pdfrwt>
<totfact> 0.52845187E+00</totfact>
</mgrwt>
</event>
<event>
 4    1  0.4639964E-008  0.2751397E+03  0.7818608E-02  0.1098374E+00
          2   -1    0    0  501    0  0.00000000000E+00  0.00000000000E+00  0.18536464074E+04  0.18536464074E+04  0.25500000000E-02 0. -1.
         -2   -1    0    0    0  501 -0.00000000000E+00 -0.00000000000E+00 -0.84758955430E+02  0.84758955468E+02  0.25500000000E-02 0.  1.
    8880022    1    1    2    0    0  0.21086610471E+02  0.22774016116E+03  0.15821145870E+04  0.16058606557E+04  0.15294330000E+03 0. -1.
    8880022    1    1    2    0    0 -0.21086610471E+02 -0.22774016116E+03  0.18677286495E+03  0.33254470714E+03  0.15294330000E+03 0.  0.
<mgrwt>
<rscale>  0 0.27513974E+03</rscale>
<asrwt>0</asrwt>
<pdfrwt beam="1">  1        2 0.28517640E+00 0.27513974E+03</pdfrwt>
<pdfrwt beam="2">  1       -2 0.13039838E-01 0.27513974E+03</pdfrwt>
<totfact> 0.38383585E+02</totfact>
</mgrwt>
</event>
<event>
 4    1  0.4639964E-008  0.3357148E+03  0.7818608E-02  0.1068636E+00
         -2   -1    0    0    0  501 -0.00000000000E+00  0.00000000000E+00  0.28200058710E+03  0.28200058711E+03  0.25500000000E-02 0.  1.
          2   -1    0    0  501    0  0.00000000000E+00 -0.00000000000E+00 -0.28395756421E+04  0.28395756421E+04  0.25500000000E-02 0. -1.
    8880022    1    1    2    0    0  0.75256965551E+02  0.28922163559E+03 -0.27255745805E+04  0.27461721017E+04  0.15294330000E+03 0. -1.
    8880022    1    1    2    0    0 -0.75256965551E+02 -0.28922163559E+03  0.16799952549E+03  0.37540412749E+03  0.15294330000E+03 0.  0.
<mgrwt>
<rscale>  0 0.33571479E+03</rscale>
<asrwt>0</asrwt>
<pdfrwt beam="1">  1        2 0.43685777E+00 0.33571479E+03</pdfrwt>
<pdfrwt beam="2">  1       -2 0.43384708E-01 0.33571479E+03</pdfrwt>
<totfact> 0.12964303E+01</totfact>
</mgrwt>
</event>
<event>
 4    1  0.4639964E-008  0.2199182E+03  0.7818608E-02  0.1133944E+00
          2   -1    0    0  501    0  0.00000000000E+00  0.00000000000E+00  0.29341865033E+03  0.29341865034E+03  0.25500000000E-02 0. -1.
         -2   -1    0    0    0  501 -0.00000000000E+00 -0.00000000000E+00 -0.35109850903E+03  0.35109850904E+03  0.25500000000E-02 0.  1.
    8880022    1    1    2    0    0  0.15590836012E+03  0.25786843244E+02  0.20588562376E+03  0.30125225497E+03  0.15294330000E+03 0.  0.
    8880022    1    1    2    0    0 -0.15590836012E+03 -0.25786843244E+02 -0.26356548246E+03  0.34326490441E+03  0.15294330000E+03 0.  0.
<mgrwt>
<rscale>  0 0.21991824E+03</rscale>
<asrwt>0</asrwt>
<pdfrwt beam="1">  1        2 0.45141330E-01 0.21991824E+03</pdfrwt>
<pdfrwt beam="2">  1       -2 0.54015156E-01 0.21991824E+03</pdfrwt>
<totfact> 0.37031218E+02</totfact>
</mgrwt>
</event>
<event>
 4    1  0.4639964E-008  0.4560098E+03  0.7818608E-02  0.1025945E+00
          2   -1    0    0  501    0  0.00000000000E+00  0.00000000000E+00  0.11738755191E+04  0.11738755191E+04  0.25500000000E-02 0. -1.
         -2   -1    0    0    0  501 -0.00000000000E+00 -0.00000000000E+00 -0.52059870401E+03  0.52059870402E+03  0.25500000000E-02 0.  1.
    8880022    1    1    2    0    0 -0.38257091079E+03  0.19542983407E+03  0.10147964349E+04  0.11125451807E+04  0.15294330000E+03 0.  0.
    8880022    1    1    2    0    0  0.38257091079E+03 -0.19542983407E+03 -0.36151961984E+03  0.58192904238E+03  0.15294330000E+03 0.  0.
<mgrwt>
<rscale>  0 0.45600984E+03</rscale>
<asrwt>0</asrwt>
<pdfrwt beam="1">  1        2 0.18059623E+00 0.45600984E+03</pdfrwt>
<pdfrwt beam="2">  1       -2 0.80092108E-01 0.45600984E+03</pdfrwt>
<totfact> 0.28677096E+01</totfact>
</mgrwt>
</event>
<event>
 4    1  0.4639964E-008  0.3675947E+03  0.7818608E-02  0.1055616E+00
          2   -1    0    0  501    0  0.00000000000E+00  0.00000000000E+00  0.12532517907E+04  0.12532517907E+04  0.25500000000E-02 0. -1.
         -2   -1    0    0    0  501 -0.00000000000E+00 -0.00000000000E+00 -0.26134059193E+03  0.26134059194E+03  0.25500000000E-02 0.  1.
    8880022    1    1    2    0    0  0.21145037084E+03  0.25888793018E+03  0.10763795928E+04  0.11374176456E+04  0.15294330000E+03 0.  0.
    8880022    1    1    2    0    0 -0.21145037084E+03 -0.25888793018E+03 -0.84468393947E+02  0.37717473711E+03  0.15294330000E+03 0.  1.
<mgrwt>
<rscale>  0 0.36759471E+03</rscale>
<asrwt>0</asrwt>
<pdfrwt beam="1">  1        2 0.19280796E+00 0.36759471E+03</pdfrwt>
<pdfrwt beam="2">  1       -2 0.40206246E-01 0.36759471E+03</pdfrwt>
<totfact> 0.10931640E+02</totfact>
</mgrwt>
</event>
<event>
 4    1  0.4639964E-008  0.1029165E+04  0.7818608E-02  0.9277123E-01
         -2   -1    0    0    0  501 -0.00000000000E+00  0.00000000000E+00  0.11442763075E+04  0.11442763075E+04  0.25500000000E-02 0.  1.
          2   -1    0    0  501    0  0.00000000000E+00 -0.00000000000E+00 -0.20764322102E+04  0.20764322102E+04  0.25500000000E-02 0. -1.
    8880022    1    1    2    0    0  0.62169921309E+03  0.80577844479E+03 -0.16649207355E+04  0.19573302027E+04  0.15294330000E+03 0.  0.
    8880022    1    1    2    0    0 -0.62169921309E+03 -0.80577844479E+03  0.73276483279E+03  0.12633783150E+04  0.15294330000E+03 0.  0.
<mgrwt>
<rscale>  0 0.10291649E+04</rscale>
<asrwt>0</asrwt>
<pdfrwt beam="1">  1        2 0.31945111E+00 0.10291649E+04</pdfrwt>
<pdfrwt beam="2">  1       -2 0.17604251E+00 0.10291649E+04</pdfrwt>
<totfact> 0.11636893E+00</totfact>
</mgrwt>
</event>
<event>
 4    1  0.4639964E-008  0.8226024E+03  0.7818608E-02  0.9527865E-01
         -2   -1    0    0    0  501 -0.00000000000E+00  0.00000000000E+00  0.69150801773E+03  0.69150801773E+03  0.25500000000E-02 0.  1.
          2   -1    0    0  501    0  0.00000000000E+00 -0.00000000000E+00 -0.12950532306E+04  0.12950532306E+04  0.25500000000E-02 0. -1.
    8880022    1    1    2    0    0  0.21579642181E+03 -0.77891911155E+03  0.18926829002E+03  0.84409550208E+03  0.15294330000E+03 0.  0.
    8880022    1    1    2    0    0 -0.21579642181E+03  0.77891911155E+03 -0.79281350293E+03  0.11424657463E+04  0.15294330000E+03 0.  0.
<mgrwt>
<rscale>  0 0.82260241E+03</rscale>
<asrwt>0</asrwt>
<pdfrwt beam="1">  1        2 0.19923896E+00 0.82260241E+03</pdfrwt>
<pdfrwt beam="2">  1       -2 0.10638585E+00 0.82260241E+03</pdfrwt>
<totfact> 0.11998064E+01</totfact>
</mgrwt>
</event>
<event>
 4    1  0.4639964E-008  0.7269873E+03  0.7818608E-02  0.9672162E-01
          2   -1    0    0  501    0  0.00000000000E+00  0.00000000000E+00  0.45786562636E+03  0.45786562636E+03  0.25500000000E-02 0. -1.
         -2   -1    0    0    0  501 -0.00000000000E+00 -0.00000000000E+00 -0.12523926119E+04  0.12523926119E+04  0.25500000000E-02 0.  1.
    8880022    1    1    2    0    0  0.34982782362E+03  0.61865932305E+03 -0.15793310279E+03  0.74394447517E+03  0.15294330000E+03 0.  1.
    8880022    1    1    2    0    0 -0.34982782362E+03 -0.61865932305E+03 -0.63659388275E+03  0.96631376309E+03  0.15294330000E+03 0. -1.
<mgrwt>
<rscale>  0 0.72698729E+03</rscale>
<asrwt>0</asrwt>
<pdfrwt beam="1">  1        2 0.70440866E-01 0.72698729E+03</pdfrwt>
<pdfrwt beam="2">  1       -2 0.19267579E+00 0.72698729E+03</pdfrwt>
<totfact> 0.10347436E+01</totfact>
</mgrwt>
</event>
<event>
 4    1  0.4639964E-008  0.2444772E+03  0.7818608E-02  0.1116846E+00
         -2   -1    0    0    0  501 -0.00000000000E+00  0.00000000000E+00  0.53816134885E+03  0.53816134885E+03  0.25500000000E-02 0.  1.
          2   -1    0    0  501    0  0.00000000000E+00 -0.00000000000E+00 -0.74569718590E+03  0.74569718590E+03  0.25500000000E-02 0. -1.
    8880022    1    1    2    0    0 -0.14002161516E+02 -0.19021409731E+03 -0.69596750467E+03  0.73765837887E+03  0.15294330000E+03 0.  0.
    8880022    1    1    2    0    0  0.14002161516E+02  0.19021409731E+03  0.48843166762E+03  0.54620015589E+03  0.15294330000E+03 0.  1.
<mgrwt>
<rscale>  0 0.24447723E+03</rscale>
<asrwt>0</asrwt>
<pdfrwt beam="1">  1        2 0.11472264E+00 0.24447723E+03</pdfrwt>
<pdfrwt beam="2">  1       -2 0.82794053E-01 0.24447723E+03</pdfrwt>
<totfact> 0.52205993E+01</totfact>
</mgrwt>
</event>
<event>
 4    1  0.4639964E-008  0.4077416E+03  0.7818608E-02  0.1041132E+00
         -2   -1    0    0    0  501 -0.00000000000E+00  0.00000000000E+00  0.10993052799E+04  0.10993052799E+04  0.25500000000E-02 0.  1.
          2   -1    0    0  501    0  0.00000000000E+00 -0.00000000000E+00 -0.82185798179E+03  0.82185798179E+03  0.25500000000E-02 0. -1.
    8880022    1    1    2    0    0  0.23344989277E+03  0.29725866187E+03 -0.72898748202E+03  0.83526999614E+03  0.15294330000E+03 0. -1.
    8880022    1    1    2    0    0 -0.23344989277E+03 -0.29725866187E+03  0.10064347801E+04  0.10858932655E+04  0.15294330000E+03 0.  0.
<mgrwt>
<rscale>  0 0.40774161E+03</rscale>
<asrwt>0</asrwt>
<pdfrwt beam="1">  1        2 0.12643969E+00 0.40774161E+03</pdfrwt>
<pdfrwt beam="2">  1       -2 0.16912389E+00 0.40774161E+03</pdfrwt>
<totfact> 0.77360053E+00</totfact>
</mgrwt>
</event>
<event>
 4    1  0.4639964E-008  0.9454336E+03  0.7818608E-02  0.9370504E-01
         -2   -1    0    0    0  501 -0.00000000000E+00  0.00000000000E+00  0.85093970490E+03  0.85093970490E+03  0.25500000000E-02 0.  1.
          2   -1    0    0  501    0  0.00000000000E+00 -0.00000000000E+00 -0.16491217384E+04  0.16491217384E+04  0.25500000000E-02 0. -1.
    8880022    1    1    2    0    0  0.34704333949E+03  0.86603348493E+03  0.35408990936E+03  0.10095664383E+04  0.15294330000E+03 0.  1.
    8880022    1    1    2    0    0 -0.34704333949E+03 -0.86603348493E+03 -0.11522719428E+04  0.14904950049E+04  0.15294330000E+03 0. -1.
<mgrwt>
<rscale>  0 0.94543362E+03</rscale>
<asrwt>0</asrwt>
<pdfrwt beam="1">  1        2 0.25371104E+00 0.94543362E+03</pdfrwt>
<pdfrwt beam="2">  1       -2 0.13091380E+00 0.94543362E+03</pdfrwt>
<totfact> 0.44713101E+00</totfact>
</mgrwt>
</event>
<event>
 4    1  0.4639964E-008  0.4115538E+03  0.7818608E-02  0.1039851E+00
         -2   -1    0    0    0  501 -0.00000000000E+00  0.00000000000E+00  0.11542531329E+03  0.11542531332E+03  0.25500000000E-02 0.  1.
          2   -1    0    0  501    0  0.00000000000E+00 -0.00000000000E+00 -0.26620784272E+04  0.26620784272E+04  0.25500000000E-02 0. -1.
    8880022    1    1    2    0    0 -0.38153718006E+03  0.20353727573E+02 -0.22036575160E+04  0.22417589064E+04  0.15294330000E+03 0.  0.
    8880022    1    1    2    0    0  0.38153718006E+03 -0.20353727573E+02 -0.34299559791E+03  0.53574483403E+03  0.15294330000E+03 0.  0.
<mgrwt>
<rscale>  0 0.41155382E+03</rscale>
<asrwt>0</asrwt>
<pdfrwt beam="1">  1        2 0.40955048E+00 0.41155382E+03</pdfrwt>
<pdfrwt beam="2">  1       -2 0.17757743E-01 0.41155382E+03</pdfrwt>
<totfact> 0.81183088E+01</totfact>
</mgrwt>
</event>
<event>
 4    1  0.4639964E-008  0.1205278E+04  0.7818608E-02  0.9108249E-01
          2   -1    0    0  501    0  0.00000000000E+00  0.00000000000E+00  0.22777409119E+04  0.22777409119E+04  0.25500000000E-02 0. -1.
         -2   -1    0    0    0  501 -0.00000000000E+00 -0.00000000000E+00 -0.11818689471E+04  0.11818689471E+04  0.25500000000E-02 0.  1.
    8880022    1    1    2    0    0  0.78093145867E+03  0.90523472117E+03 -0.62573884351E+03  0.13580296745E+04  0.15294330000E+03 0.  0.
    8880022    1    1    2    0    0 -0.78093145867E+03 -0.90523472117E+03  0.17216108083E+04  0.21015801845E+04  0.15294330000E+03 0.  0.
<mgrwt>
<rscale>  0 0.12052782E+04</rscale>
<asrwt>0</asrwt>
<pdfrwt beam="1">  1        2 0.35042168E+00 0.12052782E+04</pdfrwt>
<pdfrwt beam="2">  1       -2 0.18182599E+00 0.12052782E+04</pdfrwt>
<totfact> 0.79999879E-01</totfact>
</mgrwt>
</event>
<event>
 4    1  0.4639964E-008  0.9189583E+03  0.7818608E-02  0.9402188E-01
         -2   -1    0    0    0  501 -0.00000000000E+00  0.00000000000E+00  0.81286719799E+03  0.81286719800E+03  0.25500000000E-02 0.  1.
          2   -1    0    0  501    0  0.00000000000E+00 -0.00000000000E+00 -0.13466563447E+04  0.13466563447E+04  0.25500000000E-02 0. -1.
    8880022    1    1    2    0    0  0.84897318924E+03  0.31676050888E+03  0.24929116409E+03  0.95217143076E+03  0.15294330000E+03 0.  0.
    8880022    1    1    2    0    0 -0.84897318924E+03 -0.31676050888E+03 -0.78308031082E+03  0.12073521120E+04  0.15294330000E+03 0.  0.
<mgrwt>
<rscale>  0 0.91895830E+03</rscale>
<asrwt>0</asrwt>
<pdfrwt beam="1">  1        2 0.20717790E+00 0.91895830E+03</pdfrwt>
<pdfrwt beam="2">  1       -2 0.12505649E+00 0.91895830E+03</pdfrwt>
<totfact> 0.74489642E+00</totfact>
</mgrwt>
</event>
<event>
 4    1  0.4639964E-008  0.3561556E+03  0.7818608E-02  0.1060117E+00
          2   -1    0    0  501    0  0.00000000000E+00  0.00000000000E+00  0.25940911349E+04  0.25940911349E+04  0.25500000000E-02 0. -1.
         -2   -1    0    0    0  501 -0.00000000000E+00 -0.00000000000E+00 -0.15922826865E+03  0.15922826867E+03  0.25500000000E-02 0.  1.
    8880022    1    1    2    0    0  0.30725788616E+03 -0.95119492614E+02  0.71488053810E+02  0.36325930316E+03  0.15294330000E+03 0.  0.
    8880022    1    1    2    0    0 -0.30725788616E+03  0.95119492614E+02  0.23633748124E+04  0.23900601004E+04  0.15294330000E+03 0. -1.
<mgrwt>
<rscale>  0 0.35615556E+03</rscale>
<asrwt>0</asrwt>
<pdfrwt beam="1">  1        2 0.39909096E+00 0.35615556E+03</pdfrwt>
<pdfrwt beam="2">  1       -2 0.24496655E-01 0.35615556E+03</pdfrwt>
<totfact> 0.51424503E+01</totfact>
</mgrwt>
</event>
<event>
 4    1  0.4639964E-008  0.2635935E+03  0.7818608E-02  0.1105003E+00
          2   -1    0    0  501    0  0.00000000000E+00  0.00000000000E+00  0.26399092091E+03  0.26399092092E+03  0.25500000000E-02 0. -1.
         -2   -1    0    0    0  501 -0.00000000000E+00 -0.00000000000E+00 -0.40173079458E+03  0.40173079459E+03  0.25500000000E-02 0.  1.
    8880022    1    1    2    0    0  0.62189245117E+02  0.20548079018E+03 -0.26433703823E+03  0.37330360316E+03  0.15294330000E+03 0.  1.
    8880022    1    1    2    0    0 -0.62189245117E+02 -0.20548079018E+03  0.12659716456E+03  0.29241811235E+03  0.15294330000E+03 0.  0.
<mgrwt>
<rscale>  0 0.26359346E+03</rscale>
<asrwt>0</asrwt>
<pdfrwt beam="1">  1        2 0.40613988E-01 0.26359346E+03</pdfrwt>
<pdfrwt beam="2">  1       -2 0.61804737E-01 0.26359346E+03</pdfrwt>
<totfact> 0.31420197E+02</totfact>
</mgrwt>
</event>
<event>
 4    1  0.4639964E-008  0.2876898E+03  0.7818608E-02  0.1091562E+00
         -2   -1    0    0    0  501 -0.00000000000E+00  0.00000000000E+00  0.74136839421E+02  0.74136839465E+02  0.25500000000E-02 0.  1.
          2   -1    0    0  501    0  0.00000000000E+00 -0.00000000000E+00 -0.19334214581E+04  0.19334214581E+04  0.25500000000E-02 0. -1.
    8880022    1    1    2    0    0  0.52379192737E+02  0.23797093548E+03 -0.15821642311E+04  0.16081072891E+04  0.15294330000E+03 0.  0.
    8880022    1    1    2    0    0 -0.52379192737E+02 -0.23797093548E+03 -0.27712038758E+03  0.39945100850E+03  0.15294330000E+03 0.  1.
<mgrwt>
<rscale>  0 0.28768976E+03</rscale>
<asrwt>0</asrwt>
<pdfrwt beam="1">  1        2 0.29744942E+00 0.28768976E+03</pdfrwt>
<pdfrwt beam="2">  1       -2 0.11405669E-01 0.28768976E+03</pdfrwt>
<totfact> 0.43225030E+02</totfact>
</mgrwt>
</event>
<event>
 4    1  0.4639964E-008  0.5335255E+03  0.7818608E-02  0.1005381E+00
         -2   -1    0    0    0  501 -0.00000000000E+00  0.00000000000E+00  0.20434711955E+04  0.20434711955E+04  0.25500000000E-02 0.  1.
          2   -1    0    0  501    0  0.00000000000E+00 -0.00000000000E+00 -0.23234898067E+03  0.23234898068E+03  0.25500000000E-02 0. -1.
    8880022    1    1    2    0    0 -0.51064311177E+03 -0.22391461853E+02  0.16256736249E+04  0.17109833876E+04  0.15294330000E+03 0.  0.
    8880022    1    1    2    0    0  0.51064311177E+03  0.22391461853E+02  0.18544858995E+03  0.56483678854E+03  0.15294330000E+03 0.  0.
<mgrwt>
<rscale>  0 0.53352546E+03</rscale>
<asrwt>0</asrwt>
<pdfrwt beam="1">  1        2 0.35745997E-01 0.53352546E+03</pdfrwt>
<pdfrwt beam="2">  1       -2 0.31438019E+00 0.53352546E+03</pdfrwt>
<totfact> 0.40875294E+00</totfact>
</mgrwt>
</event>
<event>
 4    1  0.4639964E-008  0.9729761E+03  0.7818608E-02  0.9338691E-01
         -2   -1    0    0    0  501 -0.00000000000E+00  0.00000000000E+00  0.13718305226E+04  0.13718305226E+04  0.25500000000E-02 0.  1.
          2   -1    0    0  501    0  0.00000000000E+00 -0.00000000000E+00 -0.13640190284E+04  0.13640190284E+04  0.25500000000E-02 0. -1.
    8880022    1    1    2    0    0 -0.28687892203E+03 -0.91705583053E+03 -0.95761799599E+03  0.13651793990E+04  0.15294330000E+03 0.  0.
    8880022    1    1    2    0    0  0.28687892203E+03  0.91705583053E+03  0.96542949013E+03  0.13706701520E+04  0.15294330000E+03 0.  0.
<mgrwt>
<rscale>  0 0.97297614E+03</rscale>
<asrwt>0</asrwt>
<pdfrwt beam="1">  1        2 0.20984908E+00 0.97297614E+03</pdfrwt>
<pdfrwt beam="2">  1       -2 0.21105085E+00 0.97297614E+03</pdfrwt>
<totfact> 0.17060499E+00</totfact>
</mgrwt>
</event>
<event>
 4    1  0.4639964E-008  0.5431819E+03  0.7818608E-02  0.1003084E+00
         -2   -1    0    0    0  501 -0.00000000000E+00  0.00000000000E+00  0.81215932771E+03  0.81215932771E+03  0.25500000000E-02 0.  1.
          2   -1    0    0  501    0  0.00000000000E+00 -0.00000000000E+00 -0.86414935021E+03  0.86414935021E+03  0.25500000000E-02 0. -1.
    8880022    1    1    2    0    0 -0.34404109468E+03  0.39152345834E+03 -0.66409537149E+03  0.85794475854E+03  0.15294330000E+03 0.  0.
    8880022    1    1    2    0    0  0.34404109468E+03 -0.39152345834E+03  0.61210534899E+03  0.81836391938E+03  0.15294330000E+03 0.  0.
<mgrwt>
<rscale>  0 0.54318187E+03</rscale>
<asrwt>0</asrwt>
<pdfrwt beam="1">  1        2 0.13294605E+00 0.54318187E+03</pdfrwt>
<pdfrwt beam="2">  1       -2 0.12494759E+00 0.54318187E+03</pdfrwt>
<totfact> 0.15516435E+01</totfact>
</mgrwt>
</event>
<event>
 4    1  0.4639964E-008  0.8394144E+03  0.7818608E-02  0.9504656E-01
          2   -1    0    0  501    0  0.00000000000E+00  0.00000000000E+00  0.32387412931E+04  0.32387412931E+04  0.25500000000E-02 0. -1.
         -2   -1    0    0    0  501 -0.00000000000E+00 -0.00000000000E+00 -0.48092487544E+03  0.48092487544E+03  0.25500000000E-02 0.  1.
    8880022    1    1    2    0    0  0.81477268223E+03  0.13179668681E+03  0.27552151385E+04  0.28802477329E+04  0.15294330000E+03 0.  0.
    8880022    1    1    2    0    0 -0.81477268223E+03 -0.13179668681E+03  0.26012791127E+01  0.83941843561E+03  0.15294330000E+03 0.  0.
<mgrwt>
<rscale>  0 0.83941441E+03</rscale>
<asrwt>0</asrwt>
<pdfrwt beam="1">  1        2 0.49826788E+00 0.83941441E+03</pdfrwt>
<pdfrwt beam="2">  1       -2 0.73988444E-01 0.83941441E+03</pdfrwt>
<totfact> 0.21277227E+00</totfact>
</mgrwt>
</event>
<event>
 4    1  0.4639964E-008  0.4096547E+03  0.7818608E-02  0.1040487E+00
          2   -1    0    0  501    0  0.00000000000E+00  0.00000000000E+00  0.10086186971E+04  0.10086186971E+04  0.25500000000E-02 0. -1.
         -2   -1    0    0    0  501 -0.00000000000E+00 -0.00000000000E+00 -0.35861945968E+03  0.35861945969E+03  0.25500000000E-02 0.  1.
    8880022    1    1    2    0    0  0.18731280300E+03  0.33066482840E+03 -0.17551315944E+03  0.44567009891E+03  0.15294330000E+03 0.  0.
    8880022    1    1    2    0    0 -0.18731280300E+03 -0.33066482840E+03  0.82551239687E+03  0.92156805789E+03  0.15294330000E+03 0. -1.
<mgrwt>
<rscale>  0 0.40965469E+03</rscale>
<asrwt>0</asrwt>
<pdfrwt beam="1">  1        2 0.15517211E+00 0.40965469E+03</pdfrwt>
<pdfrwt beam="2">  1       -2 0.55172224E-01 0.40965469E+03</pdfrwt>
<totfact> 0.80742126E+01</totfact>
</mgrwt>
</event>
<event>
 4    1  0.4639964E-008  0.1139979E+04  0.7818608E-02  0.9167078E-01
          2   -1    0    0  501    0  0.00000000000E+00  0.00000000000E+00  0.18604226104E+04  0.18604226104E+04  0.25500000000E-02 0. -1.
         -2   -1    0    0    0  501 -0.00000000000E+00 -0.00000000000E+00 -0.10275006893E+04  0.10275006893E+04  0.25500000000E-02 0.  1.
    8880022    1    1    2    0    0  0.94552356145E+03 -0.61817992418E+03  0.12335061638E+04  0.16796101729E+04  0.15294330000E+03 0.  0.
    8880022    1    1    2    0    0 -0.94552356145E+03  0.61817992418E+03 -0.40058424259E+03  0.12083131268E+04  0.15294330000E+03 0.  0.
<mgrwt>
<rscale>  0 0.11399793E+04</rscale>
<asrwt>0</asrwt>
<pdfrwt beam="1">  1        2 0.28621886E+00 0.11399793E+04</pdfrwt>
<pdfrwt beam="2">  1       -2 0.15807703E+00 0.11399793E+04</pdfrwt>
<totfact> 0.20349667E+00</totfact>
</mgrwt>
</event>
<event>
 4    1  0.4639964E-008  0.1536842E+03  0.7818608E-02  0.1196018E+00
         -2   -1    0    0    0  501 -0.00000000000E+00  0.00000000000E+00  0.16918275983E+03  0.16918275985E+03  0.25500000000E-02 0.  1.
          2   -1    0    0  501    0  0.00000000000E+00 -0.00000000000E+00 -0.20654762827E+04  0.20654762827E+04  0.25500000000E-02 0. -1.
    8880022    1    1    2    0    0 -0.14929860075E+02 -0.20673875351E+01  0.13076207539E+03  0.20178589690E+03  0.15294330000E+03 0.  0.
    8880022    1    1    2    0    0  0.14929860075E+02  0.20673875351E+01 -0.20270555982E+04  0.20328731456E+04  0.15294330000E+03 0. -1.
<mgrwt>
<rscale>  0 0.15368418E+03</rscale>
<asrwt>0</asrwt>
<pdfrwt beam="1">  1        2 0.31776556E+00 0.15368418E+03</pdfrwt>
<pdfrwt beam="2">  1       -2 0.26028118E-01 0.15368418E+03</pdfrwt>
<totfact> 0.96092148E+01</totfact>
</mgrwt>
</event>
<event>
 4    1  0.4639964E-008  0.4413708E+03  0.7818608E-02  0.1030327E+00
         -2   -1    0    0    0  501 -0.00000000000E+00  0.00000000000E+00  0.23871712748E+03  0.23871712750E+03  0.25500000000E-02 0.  1.
          2   -1    0    0  501    0  0.00000000000E+00 -0.00000000000E+00 -0.15695352665E+04  0.15695352665E+04  0.25500000000E-02 0. -1.
    8880022    1    1    2    0    0 -0.39971653306E+03  0.10790371218E+03 -0.12918457839E+04  0.13651643492E+04  0.15294330000E+03 0.  0.
    8880022    1    1    2    0    0  0.39971653306E+03 -0.10790371218E+03 -0.38972355029E+02  0.44308804472E+03  0.15294330000E+03 0.  0.
<mgrwt>
<rscale>  0 0.44137079E+03</rscale>
<asrwt>0</asrwt>
<pdfrwt beam="1">  1        2 0.24146696E+00 0.44137079E+03</pdfrwt>
<pdfrwt beam="2">  1       -2 0.36725713E-01 0.44137079E+03</pdfrwt>
<totfact> 0.85876952E+01</totfact>
</mgrwt>
</event>
<event>
 4    1  0.4639964E-008  0.2269621E+03  0.7818608E-02  0.1128796E+00
          2   -1    0    0  501    0  0.00000000000E+00  0.00000000000E+00  0.15410733157E+04  0.15410733157E+04  0.25500000000E-02 0. -1.
         -2   -1    0    0    0  501 -0.00000000000E+00 -0.00000000000E+00 -0.27636290923E+03  0.27636290924E+03  0.25500000000E-02 0.  1.
    8880022    1    1    2    0    0 -0.11599744784E+03 -0.12109808532E+03 -0.21963798191E+03  0.31583642964E+03  0.15294330000E+03 0.  0.
    8880022    1    1    2    0    0  0.11599744784E+03  0.12109808532E+03  0.14843483884E+04  0.15015997953E+04  0.15294330000E+03 0.  0.
<mgrwt>
<rscale>  0 0.22696213E+03</rscale>
<asrwt>0</asrwt>
<pdfrwt beam="1">  1        2 0.23708820E+00 0.22696213E+03</pdfrwt>
<pdfrwt beam="2">  1       -2 0.42517371E-01 0.22696213E+03</pdfrwt>
<totfact> 0.70563103E+01</totfact>
</mgrwt>
</event>
<event>
 4    1  0.4639964E-008  0.1034736E+04  0.7818608E-02  0.9271247E-01
          2   -1    0    0  501    0  0.00000000000E+00  0.00000000000E+00  0.19611851414E+04  0.19611851414E+04  0.25500000000E-02 0. -1.
         -2   -1    0    0    0  501 -0.00000000000E+00 -0.00000000000E+00 -0.73922919815E+03  0.73922919815E+03  0.25500000000E-02 0.  1.
    8880022    1    1    2    0    0  0.99716774905E+03 -0.23009386797E+03 -0.79454134602E+02  0.10377819233E+04  0.15294330000E+03 0.  0.
    8880022    1    1    2    0    0 -0.99716774905E+03  0.23009386797E+03  0.13014100778E+04  0.16626324162E+04  0.15294330000E+03 0.  0.
<mgrwt>
<rscale>  0 0.10347359E+04</rscale>
<asrwt>0</asrwt>
<pdfrwt beam="1">  1        2 0.30172079E+00 0.10347359E+04</pdfrwt>
<pdfrwt beam="2">  1       -2 0.11372757E+00 0.10347359E+04</pdfrwt>
<totfact> 0.42320393E+00</totfact>
</mgrwt>
</event>
<event>
 4    1  0.4639964E-008  0.3321914E+03  0.7818608E-02  0.1070171E+00
          2   -1    0    0  501    0  0.00000000000E+00  0.00000000000E+00  0.27448332323E+04  0.27448332323E+04  0.25500000000E-02 0. -1.
         -2   -1    0    0    0  501 -0.00000000000E+00 -0.00000000000E+00 -0.12012222711E+03  0.12012222713E+03  0.25500000000E-02 0.  1.
    8880022    1    1    2    0    0  0.25284763340E+03  0.15174838744E+03  0.24807815058E+04  0.25029238964E+04  0.15294330000E+03 0.  0.
    8880022    1    1    2    0    0 -0.25284763340E+03 -0.15174838744E+03  0.14392949943E+03  0.36203156303E+03  0.15294330000E+03 0.  1.
<mgrwt>
<rscale>  0 0.33219144E+03</rscale>
<asrwt>0</asrwt>
<pdfrwt beam="1">  1        2 0.42228201E+00 0.33219144E+03</pdfrwt>
<pdfrwt beam="2">  1       -2 0.18480344E-01 0.33219144E+03</pdfrwt>
<totfact> 0.69512808E+01</totfact>
</mgrwt>
</event>
<event>
 4    1  0.4639964E-008  0.5881561E+03  0.7818608E-02  0.9930288E-01
          2   -1    0    0  501    0  0.00000000000E+00  0.00000000000E+00  0.91341870740E+03  0.91341870740E+03  0.25500000000E-02 0. -1.
         -2   -1    0    0    0  501 -0.00000000000E+00 -0.00000000000E+00 -0.13076991511E+04  0.13076991511E+04  0.25500000000E-02 0.  1.
    8880022    1    1    2    0    0  0.48374731028E+03  0.29753070265E+03 -0.11331734367E+04  0.12767183205E+04  0.15294330000E+03 0.  1.
    8880022    1    1    2    0    0 -0.48374731028E+03 -0.29753070265E+03  0.73889299302E+03  0.94439953800E+03  0.15294330000E+03 0.  0.
<mgrwt>
<rscale>  0 0.58815613E+03</rscale>
<asrwt>0</asrwt>
<pdfrwt beam="1">  1        2 0.14052596E+00 0.58815613E+03</pdfrwt>
<pdfrwt beam="2">  1       -2 0.20118448E+00 0.58815613E+03</pdfrwt>
<totfact> 0.39405601E+00</totfact>
</mgrwt>
</event>
<event>
 4    1  0.4639964E-008  0.4748596E+03  0.7818608E-02  0.1020558E+00
          2   -1    0    0  501    0  0.00000000000E+00  0.00000000000E+00  0.20735076600E+04  0.20735076600E+04  0.25500000000E-02 0. -1.
         -2   -1    0    0    0  501 -0.00000000000E+00 -0.00000000000E+00 -0.28083072769E+03  0.28083072770E+03  0.25500000000E-02 0.  1.
    8880022    1    1    2    0    0  0.34927533964E+03 -0.28303131814E+03  0.18178146211E+04  0.18788138917E+04  0.15294330000E+03 0.  0.
    8880022    1    1    2    0    0 -0.34927533964E+03  0.28303131814E+03 -0.25137688747E+02  0.47552449605E+03  0.15294330000E+03 0.  0.
<mgrwt>
<rscale>  0 0.47485960E+03</rscale>
<asrwt>0</asrwt>
<pdfrwt beam="1">  1        2 0.31900118E+00 0.47485960E+03</pdfrwt>
<pdfrwt beam="2">  1       -2 0.43204726E-01 0.47485960E+03</pdfrwt>
<totfact> 0.33404421E+01</totfact>
</mgrwt>
</event>
<event>
 4    1  0.4639964E-008  0.4976525E+03  0.7818608E-02  0.1014393E+00
          2   -1    0    0  501    0  0.00000000000E+00  0.00000000000E+00  0.87141104586E+03  0.87141104586E+03  0.25500000000E-02 0. -1.
         -2   -1    0    0    0  501 -0.00000000000E+00 -0.00000000000E+00 -0.35990965678E+03  0.35990965679E+03  0.25500000000E-02 0.  1.
    8880022    1    1    2    0    0  0.46832505684E+03  0.70270824326E+02 -0.26613914101E+02  0.49836362332E+03  0.15294330000E+03 0.  0.
    8880022    1    1    2    0    0 -0.46832505684E+03 -0.70270824326E+02  0.53811530317E+03  0.73295707933E+03  0.15294330000E+03 0.  0.
<mgrwt>
<rscale>  0 0.49765249E+03</rscale>
<asrwt>0</asrwt>
<pdfrwt beam="1">  1        2 0.13406324E+00 0.49765249E+03</pdfrwt>
<pdfrwt beam="2">  1       -2 0.55370717E-01 0.49765249E+03</pdfrwt>
<totfact> 0.97284829E+01</totfact>
</mgrwt>
</event>
<event>
 4    1  0.4639964E-008  0.2728618E+03  0.7818608E-02  0.1099653E+00
         -2   -1    0    0    0  501 -0.00000000000E+00  0.00000000000E+00  0.16029789214E+03  0.16029789216E+03  0.25500000000E-02 0.  1.
          2   -1    0    0  501    0  0.00000000000E+00 -0.00000000000E+00 -0.82390843337E+03  0.82390843337E+03  0.25500000000E-02 0. -1.
    8880022    1    1    2    0    0  0.17421743028E+03  0.14391031239E+03 -0.65683943047E+03  0.71126055806E+03  0.15294330000E+03 0.  0.
    8880022    1    1    2    0    0 -0.17421743028E+03 -0.14391031239E+03 -0.67711107645E+01  0.27294576747E+03  0.15294330000E+03 0.  1.
<mgrwt>
<rscale>  0 0.27286177E+03</rscale>
<asrwt>0</asrwt>
<pdfrwt beam="1">  1        2 0.12675514E+00 0.27286177E+03</pdfrwt>
<pdfrwt beam="2">  1       -2 0.24661215E-01 0.27286177E+03</pdfrwt>
<totfact> 0.50004474E+02</totfact>
</mgrwt>
</event>
<event>
 4    1  0.4639964E-008  0.1876113E+03  0.7818608E-02  0.1160634E+00
         -2   -1    0    0    0  501 -0.00000000000E+00  0.00000000000E+00  0.41853426886E+02  0.41853426964E+02  0.25500000000E-02 0.  1.
          2   -1    0    0  501    0  0.00000000000E+00 -0.00000000000E+00 -0.90346966993E+03  0.90346966993E+03  0.25500000000E-02 0. -1.
    8880022    1    1    2    0    0  0.69909042092E+02  0.83180949807E+02 -0.30650298348E+03  0.35936343230E+03  0.15294330000E+03 0.  0.
    8880022    1    1    2    0    0 -0.69909042092E+02 -0.83180949807E+02 -0.55511325957E+03  0.58595966460E+03  0.15294330000E+03 0.  0.
<mgrwt>
<rscale>  0 0.18761129E+03</rscale>
<asrwt>0</asrwt>
<pdfrwt beam="1">  1        2 0.13899532E+00 0.18761129E+03</pdfrwt>
<pdfrwt beam="2">  1       -2 0.64389894E-02 0.18761129E+03</pdfrwt>
<totfact> 0.39629239E+03</totfact>
</mgrwt>
</event>
<event>
 4    1  0.4639964E-008  0.2767147E+03  0.7818608E-02  0.1097497E+00
          2   -1    0    0  501    0  0.00000000000E+00  0.00000000000E+00  0.31335249756E+03  0.31335249757E+03  0.25500000000E-02 0. -1.
         -2   -1    0    0    0  501 -0.00000000000E+00 -0.00000000000E+00 -0.55315371022E+03  0.55315371022E+03  0.25500000000E-02 0.  1.
    8880022    1    1    2    0    0  0.31271000923E+02  0.22847645878E+03 -0.44360793509E+03  0.52283747073E+03  0.15294330000E+03 0.  0.
    8880022    1    1    2    0    0 -0.31271000923E+02 -0.22847645878E+03  0.20380672243E+03  0.34366873706E+03  0.15294330000E+03 0.  0.
<mgrwt>
<rscale>  0 0.27671469E+03</rscale>
<asrwt>0</asrwt>
<pdfrwt beam="1">  1        2 0.48208077E-01 0.27671469E+03</pdfrwt>
<pdfrwt beam="2">  1       -2 0.85100571E-01 0.27671469E+03</pdfrwt>
<totfact> 0.13041423E+02</totfact>
</mgrwt>
</event>
<event>
 4    1  0.4639964E-008  0.1954578E+03  0.7818608E-02  0.1153629E+00
         -2   -1    0    0    0  501 -0.00000000000E+00  0.00000000000E+00  0.33945990652E+03  0.33945990653E+03  0.25500000000E-02 0.  1.
          2   -1    0    0  501    0  0.00000000000E+00 -0.00000000000E+00 -0.43528846343E+03  0.43528846344E+03  0.25500000000E-02 0. -1.
    8880022    1    1    2    0    0 -0.78328431691E+02  0.93149027466E+02  0.28564449320E+03  0.34611633021E+03  0.15294330000E+03 0.  0.
    8880022    1    1    2    0    0  0.78328431691E+02 -0.93149027466E+02 -0.38147305011E+03  0.42863203975E+03  0.15294330000E+03 0.  0.
<mgrwt>
<rscale>  0 0.19545776E+03</rscale>
<asrwt>0</asrwt>
<pdfrwt beam="1">  1        2 0.66967456E-01 0.19545776E+03</pdfrwt>
<pdfrwt beam="2">  1       -2 0.52224601E-01 0.19545776E+03</pdfrwt>
<totfact> 0.25922590E+02</totfact>
</mgrwt>
</event>
<event>
 4    1  0.4639964E-008  0.5314198E+03  0.7818608E-02  0.1005888E+00
          2   -1    0    0  501    0  0.00000000000E+00  0.00000000000E+00  0.47462886397E+03  0.47462886398E+03  0.25500000000E-02 0. -1.
         -2   -1    0    0    0  501 -0.00000000000E+00 -0.00000000000E+00 -0.14219956522E+04  0.14219956522E+04  0.25500000000E-02 0.  1.
    8880022    1    1    2    0    0 -0.15944334031E+03 -0.48331476814E+03 -0.11968731767E+04  0.13095466383E+04  0.15294330000E+03 0.  0.
    8880022    1    1    2    0    0  0.15944334031E+03  0.48331476814E+03  0.24950638840E+03  0.58707787791E+03  0.15294330000E+03 0.  0.
<mgrwt>
<rscale>  0 0.53141979E+03</rscale>
<asrwt>0</asrwt>
<pdfrwt beam="1">  1        2 0.73019826E-01 0.53141979E+03</pdfrwt>
<pdfrwt beam="2">  1       -2 0.21876856E+00 0.53141979E+03</pdfrwt>
<totfact> 0.69375583E+00</totfact>
</mgrwt>
</event>
<event>
 4    1  0.4639964E-008  0.6708782E+03  0.7818608E-02  0.9768373E-01
          2   -1    0    0  501    0  0.00000000000E+00  0.00000000000E+00  0.22282024169E+04  0.22282024169E+04  0.25500000000E-02 0. -1.
         -2   -1    0    0    0  501 -0.00000000000E+00 -0.00000000000E+00 -0.24055212848E+03  0.24055212850E+03  0.25500000000E-02 0.  1.
    8880022    1    1    2    0    0  0.17820855470E+02 -0.65296887269E+03  0.49960973020E+03  0.83647323156E+03  0.15294330000E+03 0.  0.
    8880022    1    1    2    0    0 -0.17820855470E+02  0.65296887269E+03  0.14880405582E+04  0.16322813138E+04  0.15294330000E+03 0.  0.
<mgrwt>
<rscale>  0 0.67087822E+03</rscale>
<asrwt>0</asrwt>
<pdfrwt beam="1">  1        2 0.34280038E+00 0.67087822E+03</pdfrwt>
<pdfrwt beam="2">  1       -2 0.37008019E-01 0.67087822E+03</pdfrwt>
<totfact> 0.35898864E+01</totfact>
</mgrwt>
</event>
<event>
 4    1  0.4639964E-008  0.1423023E+04  0.7818608E-02  0.8937320E-01
         -2   -1    0    0    0  501 -0.00000000000E+00  0.00000000000E+00  0.39260102932E+04  0.39260102932E+04  0.25500000000E-02 0.  1.
          2   -1    0    0  501    0  0.00000000000E+00 -0.00000000000E+00 -0.98873276719E+03  0.98873276720E+03  0.25500000000E-02 0. -1.
    8880022    1    1    2    0    0 -0.54883532778E+03  0.13039872377E+04 -0.23091895307E+03  0.14416373154E+04  0.15294330000E+03 0.  0.
    8880022    1    1    2    0    0  0.54883532778E+03 -0.13039872377E+04  0.31681964791E+04  0.34731057450E+04  0.15294330000E+03 0.  0.
<mgrwt>
<rscale>  0 0.14230230E+04</rscale>
<asrwt>0</asrwt>
<pdfrwt beam="1">  1        2 0.15211273E+00 0.14230230E+04</pdfrwt>
<pdfrwt beam="2">  1       -2 0.60400158E+00 0.14230230E+04</pdfrwt>
<totfact> 0.11603528E-02</totfact>
</mgrwt>
</event>
<event>
 4    1  0.4639964E-008  0.3447994E+03  0.7818608E-02  0.1064770E+00
          2   -1    0    0  501    0  0.00000000000E+00  0.00000000000E+00  0.13136458156E+04  0.13136458156E+04  0.25500000000E-02 0. -1.
         -2   -1    0    0    0  501 -0.00000000000E+00 -0.00000000000E+00 -0.34926523828E+03  0.34926523829E+03  0.25500000000E-02 0.  1.
    8880022    1    1    2    0    0  0.17811577166E+03  0.25252672562E+03 -0.23348040844E+03  0.41641293136E+03  0.15294330000E+03 0.  0.
    8880022    1    1    2    0    0 -0.17811577166E+03 -0.25252672562E+03  0.11978609858E+04  0.12464981226E+04  0.15294330000E+03 0. -1.
<mgrwt>
<rscale>  0 0.34479940E+03</rscale>
<asrwt>0</asrwt>
<pdfrwt beam="1">  1        2 0.20209936E+00 0.34479940E+03</pdfrwt>
<pdfrwt beam="2">  1       -2 0.53733113E-01 0.34479940E+03</pdfrwt>
<totfact> 0.57104127E+01</totfact>
</mgrwt>
</event>
<event>
 4    1  0.4639964E-008  0.5845079E+03  0.7818608E-02  0.9938079E-01
         -2   -1    0    0    0  501 -0.00000000000E+00  0.00000000000E+00  0.17866355171E+03  0.17866355173E+03  0.25500000000E-02 0.  1.
          2   -1    0    0  501    0  0.00000000000E+00 -0.00000000000E+00 -0.25134667587E+04  0.25134667587E+04  0.25500000000E-02 0. -1.
    8880022    1    1    2    0    0  0.52260249544E+03 -0.21247228760E+03 -0.18257333683E+04  0.19170163866E+04  0.15294330000E+03 0.  0.
    8880022    1    1    2    0    0 -0.52260249544E+03  0.21247228760E+03 -0.50906983862E+03  0.77511392379E+03  0.15294330000E+03 0.  0.
<mgrwt>
<rscale>  0 0.58450791E+03</rscale>
<asrwt>0</asrwt>
<pdfrwt beam="1">  1        2 0.38668717E+00 0.58450791E+03</pdfrwt>
<pdfrwt beam="2">  1       -2 0.27486702E-01 0.58450791E+03</pdfrwt>
<totfact> 0.44059455E+01</totfact>
</mgrwt>
</event>
<event>
 4    1  0.4639964E-008  0.3372867E+03  0.7818608E-02  0.1067957E+00
          2   -1    0    0  501    0  0.00000000000E+00  0.00000000000E+00  0.13121653351E+04  0.13121653351E+04  0.25500000000E-02 0. -1.
         -2   -1    0    0    0  501 -0.00000000000E+00 -0.00000000000E+00 -0.22191965061E+03  0.22191965063E+03  0.25500000000E-02 0.  1.
    8880022    1    1    2    0    0  0.28328062359E+03  0.10061189343E+03  0.11438712979E+04  0.11925618910E+04  0.15294330000E+03 0.  0.
    8880022    1    1    2    0    0 -0.28328062359E+03 -0.10061189343E+03 -0.53625613378E+02  0.34152309472E+03  0.15294330000E+03 0.  0.
<mgrwt>
<rscale>  0 0.33728670E+03</rscale>
<asrwt>0</asrwt>
<pdfrwt beam="1">  1        2 0.20187159E+00 0.33728670E+03</pdfrwt>
<pdfrwt beam="2">  1       -2 0.34141484E-01 0.33728670E+03</pdfrwt>
<totfact> 0.13886490E+02</totfact>
</mgrwt>
</event>
<event>
 4    1  0.4639964E-008  0.9401087E+03  0.7818608E-02  0.9376787E-01
         -2   -1    0    0    0  501 -0.00000000000E+00  0.00000000000E+00  0.34533900537E+03  0.34533900538E+03  0.25500000000E-02 0.  1.
          2   -1    0    0  501    0  0.00000000000E+00 -0.00000000000E+00 -0.37194833428E+04  0.37194833428E+04  0.25500000000E-02 0. -1.
    8880022    1    1    2    0    0 -0.84939236377E+03  0.37275378940E+03 -0.55194287327E+03  0.10901584121E+04  0.15294330000E+03 0.  0.
    8880022    1    1    2    0    0  0.84939236377E+03 -0.37275378940E+03 -0.28222014641E+04  0.29746639360E+04  0.15294330000E+03 0.  0.
<mgrwt>
<rscale>  0 0.94010873E+03</rscale>
<asrwt>0</asrwt>
<pdfrwt beam="1">  1        2 0.57222818E+00 0.94010873E+03</pdfrwt>
<pdfrwt beam="2">  1       -2 0.53129081E-01 0.94010873E+03</pdfrwt>
<totfact> 0.19903689E+00</totfact>
</mgrwt>
</event>
<event>
 4    1  0.4639964E-008  0.2119042E+03  0.7818608E-02  0.1140067E+00
         -2   -1    0    0    0  501 -0.00000000000E+00  0.00000000000E+00  0.75339282393E+03  0.75339282393E+03  0.25500000000E-02 0.  1.
          2   -1    0    0  501    0  0.00000000000E+00 -0.00000000000E+00 -0.56877948878E+03  0.56877948878E+03  0.25500000000E-02 0. -1.
    8880022    1    1    2    0    0 -0.13098084830E+03 -0.65998216534E+02 -0.53318406209E+03  0.57374963555E+03  0.15294330000E+03 0. -1.
    8880022    1    1    2    0    0  0.13098084830E+03  0.65998216534E+02  0.71779739724E+03  0.74842267717E+03  0.15294330000E+03 0.  0.
<mgrwt>
<rscale>  0 0.21190422E+03</rscale>
<asrwt>0</asrwt>
<pdfrwt beam="1">  1        2 0.87504537E-01 0.21190422E+03</pdfrwt>
<pdfrwt beam="2">  1       -2 0.11590659E+00 0.21190422E+03</pdfrwt>
<totfact> 0.33353423E+01</totfact>
</mgrwt>
</event>
<event>
 4    1  0.4639964E-008  0.3537157E+03  0.7818608E-02  0.1061100E+00
          2   -1    0    0  501    0  0.00000000000E+00  0.00000000000E+00  0.10962634184E+04  0.10962634184E+04  0.25500000000E-02 0. -1.
         -2   -1    0    0    0  501 -0.00000000000E+00 -0.00000000000E+00 -0.33191836473E+03  0.33191836474E+03  0.25500000000E-02 0.  1.
    8880022    1    1    2    0    0 -0.31645041144E+03  0.39777870234E+02  0.96061047942E+03  0.10236636596E+04  0.15294330000E+03 0.  0.
    8880022    1    1    2    0    0  0.31645041144E+03 -0.39777870234E+02 -0.19626542577E+03  0.40451812349E+03  0.15294330000E+03 0.  0.
<mgrwt>
<rscale>  0 0.35371570E+03</rscale>
<asrwt>0</asrwt>
<pdfrwt beam="1">  1        2 0.16865591E+00 0.35371570E+03</pdfrwt>
<pdfrwt beam="2">  1       -2 0.51064364E-01 0.35371570E+03</pdfrwt>
<totfact> 0.84337114E+01</totfact>
</mgrwt>
</event>
<event>
 4    1  0.4639964E-008  0.3496945E+03  0.7818608E-02  0.1062741E+00
         -2   -1    0    0    0  501 -0.00000000000E+00  0.00000000000E+00  0.27424361025E+03  0.27424361026E+03  0.25500000000E-02 0.  1.
          2   -1    0    0  501    0  0.00000000000E+00 -0.00000000000E+00 -0.21283228250E+04  0.21283228250E+04  0.25500000000E-02 0. -1.
    8880022    1    1    2    0    0 -0.25892635808E+03  0.17847049189E+03 -0.19950949641E+04  0.20255098480E+04  0.15294330000E+03 0. -1.
    8880022    1    1    2    0    0  0.25892635808E+03 -0.17847049189E+03  0.14101574941E+03  0.37705658724E+03  0.15294330000E+03 0.  0.
<mgrwt>
<rscale>  0 0.34969448E+03</rscale>
<asrwt>0</asrwt>
<pdfrwt beam="1">  1        2 0.32743427E+00 0.34969448E+03</pdfrwt>
<pdfrwt beam="2">  1       -2 0.42191326E-01 0.34969448E+03</pdfrwt>
<totfact> 0.33728601E+01</totfact>
</mgrwt>
</event>
<event>
 4    1  0.4639964E-008  0.2834147E+03  0.7818608E-02  0.1093838E+00
          2   -1    0    0  501    0  0.00000000000E+00  0.00000000000E+00  0.15424890889E+04  0.15424890889E+04  0.25500000000E-02 0. -1.
         -2   -1    0    0    0  501 -0.00000000000E+00 -0.00000000000E+00 -0.82659455373E+02  0.82659455413E+02  0.25500000000E-02 0.  1.
    8880022    1    1    2    0    0  0.14251182474E+01  0.23860046786E+03  0.12241947013E+04  0.12565733301E+04  0.15294330000E+03 0.  0.
    8880022    1    1    2    0    0 -0.14251182474E+01 -0.23860046786E+03  0.23563493221E+03  0.36857521420E+03  0.15294330000E+03 0.  0.
<mgrwt>
<rscale>  0 0.28341466E+03</rscale>
<asrwt>0</asrwt>
<pdfrwt beam="1">  1        2 0.23730602E+00 0.28341466E+03</pdfrwt>
<pdfrwt beam="2">  1       -2 0.12716839E-01 0.28341466E+03</pdfrwt>
<totfact> 0.58335796E+02</totfact>
</mgrwt>
</event>
<event>
 4    1  0.4639964E-008  0.6985070E+03  0.7818608E-02  0.9719789E-01
         -2   -1    0    0    0  501 -0.00000000000E+00  0.00000000000E+00  0.50362987293E+03  0.50362987293E+03  0.25500000000E-02 0.  1.
          2   -1    0    0  501    0  0.00000000000E+00 -0.00000000000E+00 -0.10198173897E+04  0.10198173897E+04  0.25500000000E-02 0. -1.
    8880022    1    1    2    0    0 -0.61779452363E+02  0.67875156764E+03 -0.87707716516E+02  0.70399196577E+03  0.15294330000E+03 0.  0.
    8880022    1    1    2    0    0  0.61779452363E+02 -0.67875156764E+03 -0.42847980024E+03  0.81945529686E+03  0.15294330000E+03 0.  0.
<mgrwt>
<rscale>  0 0.69850701E+03</rscale>
<asrwt>0</asrwt>
<pdfrwt beam="1">  1        2 0.15689498E+00 0.69850701E+03</pdfrwt>
<pdfrwt beam="2">  1       -2 0.77481519E-01 0.69850701E+03</pdfrwt>
<totfact> 0.37100812E+01</totfact>
</mgrwt>
</event>
<event>
 4    1  0.4639964E-008  0.3913091E+03  0.7818608E-02  0.1046831E+00
         -2   -1    0    0    0  501 -0.00000000000E+00  0.00000000000E+00  0.38182996023E+03  0.38182996024E+03  0.25500000000E-02 0.  1.
          2   -1    0    0  501    0  0.00000000000E+00 -0.00000000000E+00 -0.15463889102E+04  0.15463889102E+04  0.25500000000E-02 0. -1.
    8880022    1    1    2    0    0 -0.34709144487E+03  0.96222120837E+02  0.24745471282E+03  0.46298666887E+03  0.15294330000E+03 0.  0.
    8880022    1    1    2    0    0  0.34709144487E+03 -0.96222120837E+02 -0.14120136628E+04  0.14652322016E+04  0.15294330000E+03 0.  0.
<mgrwt>
<rscale>  0 0.39130911E+03</rscale>
<asrwt>0</asrwt>
<pdfrwt beam="1">  1        2 0.23790598E+00 0.39130911E+03</pdfrwt>
<pdfrwt beam="2">  1       -2 0.58743072E-01 0.39130911E+03</pdfrwt>
<totfact> 0.35054703E+01</totfact>
</mgrwt>
</event>
<event>
 4    1  0.4639964E-008  0.4356998E+03  0.7818608E-02  0.1032074E+00
          2   -1    0    0  501    0  0.00000000000E+00  0.00000000000E+00  0.81786750861E+03  0.81786750861E+03  0.25500000000E-02 0. -1.
         -2   -1    0    0    0  501 -0.00000000000E+00 -0.00000000000E+00 -0.30395642536E+03  0.30395642537E+03  0.25500000000E-02 0.  1.
    8880022    1    1    2    0    0 -0.40763536638E+03  0.16615159824E+02  0.52966174681E+03  0.68583953991E+03  0.15294330000E+03 0.  0.
    8880022    1    1    2    0    0  0.40763536638E+03 -0.16615159824E+02 -0.15750663560E+02  0.43598439407E+03  0.15294330000E+03 0.  0.
<mgrwt>
<rscale>  0 0.43569979E+03</rscale>
<asrwt>0</asrwt>
<pdfrwt beam="1">  1        2 0.12582577E+00 0.43569979E+03</pdfrwt>
<pdfrwt beam="2">  1       -2 0.46762527E-01 0.43569979E+03</pdfrwt>
<totfact> 0.15007358E+02</totfact>
</mgrwt>
</event>
<event>
 4    1  0.4639964E-008  0.4353354E+03  0.7818608E-02  0.1032188E+00
          2   -1    0    0  501    0  0.00000000000E+00  0.00000000000E+00  0.34966934715E+04  0.34966934715E+04  0.25500000000E-02 0. -1.
         -2   -1    0    0    0  501 -0.00000000000E+00 -0.00000000000E+00 -0.79990059695E+02  0.79990059736E+02  0.25500000000E-02 0.  1.
    8880022    1    1    2    0    0 -0.50090618991E+02 -0.40449496356E+03  0.69287949460E+03  0.81829022523E+03  0.15294330000E+03 0.  0.
    8880022    1    1    2    0    0  0.50090618991E+02  0.40449496356E+03  0.27238239172E+04  0.27583933060E+04  0.15294330000E+03 0.  0.
<mgrwt>
<rscale>  0 0.43533539E+03</rscale>
<asrwt>0</asrwt>
<pdfrwt beam="1">  1        2 0.53795285E+00 0.43533539E+03</pdfrwt>
<pdfrwt beam="2">  1       -2 0.12306163E-01 0.43533539E+03</pdfrwt>
<totfact> 0.45809759E+01</totfact>
</mgrwt>
</event>
<event>
 4    1  0.4639964E-008  0.7546350E+03  0.7818608E-02  0.9628107E-01
         -2   -1    0    0    0  501 -0.00000000000E+00  0.00000000000E+00  0.25760859119E+03  0.25760859120E+03  0.25500000000E-02 0.  1.
          2   -1    0    0  501    0  0.00000000000E+00 -0.00000000000E+00 -0.23293155075E+04  0.23293155075E+04  0.25500000000E-02 0. -1.
    8880022    1    1    2    0    0 -0.66863455662E+03  0.31465869337E+03 -0.13278396160E+04  0.15272956369E+04  0.15294330000E+03 0.  0.
    8880022    1    1    2    0    0  0.66863455662E+03 -0.31465869337E+03 -0.74386730035E+03  0.10596284618E+04  0.15294330000E+03 0.  0.
<mgrwt>
<rscale>  0 0.75463496E+03</rscale>
<asrwt>0</asrwt>
<pdfrwt beam="1">  1        2 0.35835622E+00 0.75463496E+03</pdfrwt>
<pdfrwt beam="2">  1       -2 0.39632092E-01 0.75463496E+03</pdfrwt>
<totfact> 0.27308709E+01</totfact>
</mgrwt>
</event>
<event>
 4    1  0.4639964E-008  0.1939515E+04  0.7818608E-02  0.8635434E-01
          2   -1    0    0  501    0  0.00000000000E+00  0.00000000000E+00  0.29928748851E+04  0.29928748851E+04  0.25500000000E-02 0. -1.
         -2   -1    0    0    0  501 -0.00000000000E+00 -0.00000000000E+00 -0.21310819428E+04  0.21310819428E+04  0.25500000000E-02 0.  1.
    8880022    1    1    2    0    0 -0.19310791780E+04  0.96221802185E+02  0.20717831090E+04  0.28379574222E+04  0.15294330000E+03 0.  0.
    8880022    1    1    2    0    0  0.19310791780E+04 -0.96221802185E+02 -0.12099901667E+04  0.22859994058E+04  0.15294330000E+03 0.  0.
<mgrwt>
<rscale>  0 0.19395147E+04</rscale>
<asrwt>0</asrwt>
<pdfrwt beam="1">  1        2 0.46044229E+00 0.19395147E+04</pdfrwt>
<pdfrwt beam="2">  1       -2 0.32785876E+00 0.19395147E+04</pdfrwt>
<totfact> 0.33482967E-02</totfact>
</mgrwt>
</event>
<event>
 4    1  0.4639964E-008  0.3245512E+03  0.7818608E-02  0.1073574E+00
          2   -1    0    0  501    0  0.00000000000E+00  0.00000000000E+00  0.10940251405E+04  0.10940251405E+04  0.25500000000E-02 0. -1.
         -2   -1    0    0    0  501 -0.00000000000E+00 -0.00000000000E+00 -0.43562283262E+03  0.43562283263E+03  0.25500000000E-02 0.  1.
    8880022    1    1    2    0    0 -0.50378037232E+02  0.28178693546E+03  0.10042342905E+04  0.10553767038E+04  0.15294330000E+03 0.  0.
    8880022    1    1    2    0    0  0.50378037232E+02 -0.28178693546E+03 -0.34583198268E+03  0.47427126931E+03  0.15294330000E+03 0.  0.
<mgrwt>
<rscale>  0 0.32455119E+03</rscale>
<asrwt>0</asrwt>
<pdfrwt beam="1">  1        2 0.16831156E+00 0.32455119E+03</pdfrwt>
<pdfrwt beam="2">  1       -2 0.67018897E-01 0.32455119E+03</pdfrwt>
<totfact> 0.48372150E+01</totfact>
</mgrwt>
</event>
<event>
 4    1  0.4639964E-008  0.3197511E+03  0.7818608E-02  0.1075764E+00
         -2   -1    0    0    0  501 -0.00000000000E+00  0.00000000000E+00  0.13355000445E+03  0.13355000448E+03  0.25500000000E-02 0.  1.
          2   -1    0    0  501    0  0.00000000000E+00 -0.00000000000E+00 -0.95945033958E+03  0.95945033958E+03  0.25500000000E-02 0. -1.
    8880022    1    1    2    0    0 -0.27350051493E+03  0.63612972723E+02 -0.16727853503E+03  0.36086410637E+03  0.15294330000E+03 0.  1.
    8880022    1    1    2    0    0  0.27350051493E+03 -0.63612972723E+02 -0.65862180010E+03  0.73213623769E+03  0.15294330000E+03 0.  0.
<mgrwt>
<rscale>  0 0.31975115E+03</rscale>
<asrwt>0</asrwt>
<pdfrwt beam="1">  1        2 0.14760774E+00 0.31975115E+03</pdfrwt>
<pdfrwt beam="2">  1       -2 0.20546155E-01 0.31975115E+03</pdfrwt>
<totfact> 0.55901440E+02</totfact>
</mgrwt>
</event>
<event>
 4    1  0.4639964E-008  0.7688546E+03  0.7818608E-02  0.9606226E-01
         -2   -1    0    0    0  501 -0.00000000000E+00  0.00000000000E+00  0.64428182239E+03  0.64428182240E+03  0.25500000000E-02 0.  1.
          2   -1    0    0  501    0  0.00000000000E+00 -0.00000000000E+00 -0.21243123848E+04  0.21243123848E+04  0.25500000000E-02 0. -1.
    8880022    1    1    2    0    0 -0.75256035680E+03 -0.37399038356E+02 -0.17833833094E+04  0.19420590774E+04  0.15294330000E+03 0.  0.
    8880022    1    1    2    0    0  0.75256035680E+03  0.37399038356E+02  0.30335274701E+03  0.82653512982E+03  0.15294330000E+03 0.  0.
<mgrwt>
<rscale>  0 0.76885462E+03</rscale>
<asrwt>0</asrwt>
<pdfrwt beam="1">  1        2 0.32681729E+00 0.76885462E+03</pdfrwt>
<pdfrwt beam="2">  1       -2 0.99120281E-01 0.76885462E+03</pdfrwt>
<totfact> 0.49760758E+00</totfact>
</mgrwt>
</event>
<event>
 4    1  0.4639964E-008  0.4457220E+03  0.7818608E-02  0.1029006E+00
          2   -1    0    0  501    0  0.00000000000E+00  0.00000000000E+00  0.26682809788E+04  0.26682809788E+04  0.25500000000E-02 0. -1.
         -2   -1    0    0    0  501 -0.00000000000E+00 -0.00000000000E+00 -0.12783374624E+03  0.12783374626E+03  0.25500000000E-02 0.  1.
    8880022    1    1    2    0    0 -0.40633301983E+03 -0.10084586501E+03  0.21736329667E+04  0.22188619467E+04  0.15294330000E+03 0. -1.
    8880022    1    1    2    0    0  0.40633301983E+03  0.10084586501E+03  0.36681426586E+03  0.57725277838E+03  0.15294330000E+03 0.  0.
<mgrwt>
<rscale>  0 0.44572196E+03</rscale>
<asrwt>0</asrwt>
<pdfrwt beam="1">  1        2 0.41050473E+00 0.44572196E+03</pdfrwt>
<pdfrwt beam="2">  1       -2 0.19666732E-01 0.44572196E+03</pdfrwt>
<totfact> 0.67046709E+01</totfact>
</mgrwt>
</event>
<event>
 4    1  0.4639964E-008  0.1198264E+04  0.7818608E-02  0.9114377E-01
         -2   -1    0    0    0  501 -0.00000000000E+00  0.00000000000E+00  0.14121164431E+04  0.14121164431E+04  0.25500000000E-02 0.  1.
          2   -1    0    0  501    0  0.00000000000E+00 -0.00000000000E+00 -0.14114213580E+04  0.14114213580E+04  0.25500000000E-02 0. -1.
    8880022    1    1    2    0    0  0.30917320797E+03  0.11475440563E+04 -0.74614710228E+03  0.14115851320E+04  0.15294330000E+03 0.  0.
    8880022    1    1    2    0    0 -0.30917320797E+03 -0.11475440563E+04  0.74684218742E+03  0.14119526691E+04  0.15294330000E+03 0.  0.
<mgrwt>
<rscale>  0 0.11982642E+04</rscale>
<asrwt>0</asrwt>
<pdfrwt beam="1">  1        2 0.21714175E+00 0.11982642E+04</pdfrwt>
<pdfrwt beam="2">  1       -2 0.21724868E+00 0.11982642E+04</pdfrwt>
<totfact> 0.14235903E+00</totfact>
</mgrwt>
</event>
<event>
 4    1  0.4639964E-008  0.9723881E+03  0.7818608E-02  0.9339358E-01
         -2   -1    0    0    0  501 -0.00000000000E+00  0.00000000000E+00  0.44969234298E+03  0.44969234298E+03  0.25500000000E-02 0.  1.
          2   -1    0    0  501    0  0.00000000000E+00 -0.00000000000E+00 -0.25699595134E+04  0.25699595134E+04  0.25500000000E-02 0. -1.
    8880022    1    1    2    0    0  0.29891905748E+03  0.91257565351E+03 -0.17039666983E+04  0.19618973185E+04  0.15294330000E+03 0.  0.
    8880022    1    1    2    0    0 -0.29891905748E+03 -0.91257565351E+03 -0.41630047206E+03  0.10577545379E+04  0.15294330000E+03 0.  0.
<mgrwt>
<rscale>  0 0.97238808E+03</rscale>
<asrwt>0</asrwt>
<pdfrwt beam="1">  1        2 0.39537838E+00 0.97238808E+03</pdfrwt>
<pdfrwt beam="2">  1       -2 0.69183439E-01 0.97238808E+03</pdfrwt>
<totfact> 0.61424512E+00</totfact>
</mgrwt>
</event>
<event>
 4    1  0.4639964E-008  0.3010031E+03  0.7818608E-02  0.1084740E+00
          2   -1    0    0  501    0  0.00000000000E+00  0.00000000000E+00  0.28739783877E+03  0.28739783878E+03  0.25500000000E-02 0. -1.
         -2   -1    0    0    0  501 -0.00000000000E+00 -0.00000000000E+00 -0.14312472363E+04  0.14312472363E+04  0.25500000000E-02 0.  1.
    8880022    1    1    2    0    0  0.23912291335E+03 -0.10015720931E+03 -0.13307292808E+04  0.13643472088E+04  0.15294330000E+03 0.  0.
    8880022    1    1    2    0    0 -0.23912291335E+03  0.10015720931E+03  0.18687988330E+03  0.35429786630E+03  0.15294330000E+03 0.  0.
<mgrwt>
<rscale>  0 0.30100314E+03</rscale>
<asrwt>0</asrwt>
<pdfrwt beam="1">  1        2 0.44215053E-01 0.30100314E+03</pdfrwt>
<pdfrwt beam="2">  1       -2 0.22019188E+00 0.30100314E+03</pdfrwt>
<totfact> 0.12389734E+01</totfact>
</mgrwt>
</event>
<event>
 4    1  0.4639964E-008  0.9817619E+03  0.7818608E-02  0.9328777E-01
          2   -1    0    0  501    0  0.00000000000E+00  0.00000000000E+00  0.17436976813E+04  0.17436976813E+04  0.25500000000E-02 0. -1.
         -2   -1    0    0    0  501 -0.00000000000E+00 -0.00000000000E+00 -0.84194639934E+03  0.84194639934E+03  0.25500000000E-02 0.  1.
    8880022    1    1    2    0    0  0.48473137797E+03  0.83994062224E+03 -0.30679614682E+03  0.10285816868E+04  0.15294330000E+03 0.  0.
    8880022    1    1    2    0    0 -0.48473137797E+03 -0.83994062224E+03  0.12085474287E+04  0.15570623938E+04  0.15294330000E+03 0.  0.
<mgrwt>
<rscale>  0 0.98176189E+03</rscale>
<asrwt>0</asrwt>
<pdfrwt beam="1">  1        2 0.26826118E+00 0.98176189E+03</pdfrwt>
<pdfrwt beam="2">  1       -2 0.12953022E+00 0.98176189E+03</pdfrwt>
<totfact> 0.40551717E+00</totfact>
</mgrwt>
</event>
<event>
 4    1  0.4639964E-008  0.4392022E+03  0.7818608E-02  0.1030992E+00
         -2   -1    0    0    0  501 -0.00000000000E+00  0.00000000000E+00  0.23328307582E+03  0.23328307584E+03  0.25500000000E-02 0.  1.
          2   -1    0    0  501    0  0.00000000000E+00 -0.00000000000E+00 -0.95291402963E+03  0.95291402964E+03  0.25500000000E-02 0. -1.
    8880022    1    1    2    0    0 -0.83288080054E+02 -0.40319974419E+03 -0.57550694901E+03  0.72395223555E+03  0.15294330000E+03 0.  0.
    8880022    1    1    2    0    0  0.83288080054E+02  0.40319974419E+03 -0.14412400480E+03  0.46224486992E+03  0.15294330000E+03 0.  0.
<mgrwt>
<rscale>  0 0.43920222E+03</rscale>
<asrwt>0</asrwt>
<pdfrwt beam="1">  1        2 0.14660216E+00 0.43920222E+03</pdfrwt>
<pdfrwt beam="2">  1       -2 0.35889705E-01 0.43920222E+03</pdfrwt>
<totfact> 0.20384871E+02</totfact>
</mgrwt>
</event>
<event>
 4    1  0.4639964E-008  0.1119518E+04  0.7818608E-02  0.9186375E-01
         -2   -1    0    0    0  501 -0.00000000000E+00  0.00000000000E+00  0.27756545619E+04  0.27756545619E+04  0.25500000000E-02 0.  1.
          2   -1    0    0  501    0  0.00000000000E+00 -0.00000000000E+00 -0.11318298681E+04  0.11318298681E+04  0.25500000000E-02 0. -1.
    8880022    1    1    2    0    0  0.10945754533E+04  0.17841645969E+03  0.23366019178E+04  0.25909511827E+04  0.15294330000E+03 0.  0.
    8880022    1    1    2    0    0 -0.10945754533E+04 -0.17841645969E+03 -0.69277722396E+03  0.13165332473E+04  0.15294330000E+03 0.  0.
<mgrwt>
<rscale>  0 0.11195175E+04</rscale>
<asrwt>0</asrwt>
<pdfrwt beam="1">  1        2 0.17412767E+00 0.11195175E+04</pdfrwt>
<pdfrwt beam="2">  1       -2 0.42702377E+00 0.11195175E+04</pdfrwt>
<totfact> 0.10235635E-01</totfact>
</mgrwt>
</event>
<event>
 4    1  0.4639964E-008  0.1064212E+04  0.7818608E-02  0.9240793E-01
          2   -1    0    0  501    0  0.00000000000E+00  0.00000000000E+00  0.33882894457E+04  0.33882894457E+04  0.25500000000E-02 0. -1.
         -2   -1    0    0    0  501 -0.00000000000E+00 -0.00000000000E+00 -0.55394232726E+03  0.55394232726E+03  0.25500000000E-02 0.  1.
    8880022    1    1    2    0    0 -0.97951237668E+03  0.38692500921E+03  0.17585281803E+03  0.10786432800E+04  0.15294330000E+03 0.  0.
    8880022    1    1    2    0    0  0.97951237668E+03 -0.38692500921E+03  0.26584943004E+04  0.28635884930E+04  0.15294330000E+03 0.  0.
<mgrwt>
<rscale>  0 0.10642120E+04</rscale>
<asrwt>0</asrwt>
<pdfrwt beam="1">  1        2 0.52127530E+00 0.10642120E+04</pdfrwt>
<pdfrwt beam="2">  1       -2 0.85221897E-01 0.10642120E+04</pdfrwt>
<totfact> 0.11870077E+00</totfact>
</mgrwt>
</event>
<event>
 4    1  0.4639964E-008  0.2613548E+03  0.7818608E-02  0.1106332E+00
         -2   -1    0    0    0  501 -0.00000000000E+00  0.00000000000E+00  0.95896491088E+02  0.95896491122E+02  0.25500000000E-02 0.  1.
          2   -1    0    0  501    0  0.00000000000E+00 -0.00000000000E+00 -0.22653819278E+04  0.22653819278E+04  0.25500000000E-02 0. -1.
    8880022    1    1    2    0    0 -0.17810794884E+03  0.11485751363E+03 -0.20623056621E+04  0.20788003720E+04  0.15294330000E+03 0.  0.
    8880022    1    1    2    0    0  0.17810794884E+03 -0.11485751363E+03 -0.10717977465E+03  0.28247804691E+03  0.15294330000E+03 0.  1.
<mgrwt>
<rscale>  0 0.26135482E+03</rscale>
<asrwt>0</asrwt>
<pdfrwt beam="1">  1        2 0.34852025E+00 0.26135482E+03</pdfrwt>
<pdfrwt beam="2">  1       -2 0.14753308E-01 0.26135482E+03</pdfrwt>
<totfact> 0.19045125E+02</totfact>
</mgrwt>
</event>
<event>
 4    1  0.4639964E-008  0.2362650E+03  0.7818608E-02  0.1122306E+00
          2   -1    0    0  501    0  0.00000000000E+00  0.00000000000E+00  0.22487249070E+03  0.22487249072E+03  0.25500000000E-02 0. -1.
         -2   -1    0    0    0  501 -0.00000000000E+00 -0.00000000000E+00 -0.50479164970E+03  0.50479164971E+03  0.25500000000E-02 0.  1.
    8880022    1    1    2    0    0 -0.17782369605E+03  0.28429794359E+02 -0.40005263168E+03  0.46461089227E+03  0.15294330000E+03 0.  0.
    8880022    1    1    2    0    0  0.17782369605E+03 -0.28429794359E+02  0.12013347268E+03  0.26505324816E+03  0.15294330000E+03 0. -1.
<mgrwt>
<rscale>  0 0.23626505E+03</rscale>
<asrwt>0</asrwt>
<pdfrwt beam="1">  1        2 0.34595768E-01 0.23626505E+03</pdfrwt>
<pdfrwt beam="2">  1       -2 0.77660254E-01 0.23626505E+03</pdfrwt>
<totfact> 0.22954999E+02</totfact>
</mgrwt>
</event>
<event>
 4    1  0.4639964E-008  0.6085089E+03  0.7818608E-02  0.9887908E-01
         -2   -1    0    0    0  501 -0.00000000000E+00  0.00000000000E+00  0.93441949983E+03  0.93441949983E+03  0.25500000000E-02 0.  1.
          2   -1    0    0  501    0  0.00000000000E+00 -0.00000000000E+00 -0.72167640878E+03  0.72167640878E+03  0.25500000000E-02 0. -1.
    8880022    1    1    2    0    0  0.38186753013E+03  0.44840677635E+03  0.66239971676E+03  0.89947567250E+03  0.15294330000E+03 0.  0.
    8880022    1    1    2    0    0 -0.38186753013E+03 -0.44840677635E+03 -0.44965662571E+03  0.75662023612E+03  0.15294330000E+03 0.  0.
<mgrwt>
<rscale>  0 0.60850892E+03</rscale>
<asrwt>0</asrwt>
<pdfrwt beam="1">  1        2 0.11102714E+00 0.60850892E+03</pdfrwt>
<pdfrwt beam="2">  1       -2 0.14375685E+00 0.60850892E+03</pdfrwt>
<totfact> 0.13627292E+01</totfact>
</mgrwt>
</event>
<event>
 4    1  0.4639964E-008  0.4378808E+03  0.7818608E-02  0.1031399E+00
          2   -1    0    0  501    0  0.00000000000E+00  0.00000000000E+00  0.12131693154E+04  0.12131693154E+04  0.25500000000E-02 0. -1.
         -2   -1    0    0    0  501 -0.00000000000E+00 -0.00000000000E+00 -0.44015386328E+03  0.44015386329E+03  0.25500000000E-02 0.  1.
    8880022    1    1    2    0    0  0.18981929771E+03  0.36375346036E+03 -0.27529898363E+03  0.51723218105E+03  0.15294330000E+03 0.  0.
    8880022    1    1    2    0    0 -0.18981929771E+03 -0.36375346036E+03  0.10483144357E+04  0.11360909976E+04  0.15294330000E+03 0.  0.
<mgrwt>
<rscale>  0 0.43788080E+03</rscale>
<asrwt>0</asrwt>
<pdfrwt beam="1">  1        2 0.18664143E+00 0.43788080E+03</pdfrwt>
<pdfrwt beam="2">  1       -2 0.67715980E-01 0.43788080E+03</pdfrwt>
<totfact> 0.39421722E+01</totfact>
</mgrwt>
</event>
<event>
 4    1  0.4639964E-008  0.1854297E+03  0.7818608E-02  0.1162649E+00
          2   -1    0    0  501    0  0.00000000000E+00  0.00000000000E+00  0.95523269759E+03  0.95523269760E+03  0.25500000000E-02 0. -1.
         -2   -1    0    0    0  501 -0.00000000000E+00 -0.00000000000E+00 -0.65379918101E+02  0.65379918151E+02  0.25500000000E-02 0.  1.
    8880022    1    1    2    0    0 -0.52171737236E+02  0.90942992506E+02  0.10281574891E+03  0.21202652969E+03  0.15294330000E+03 0.  0.
    8880022    1    1    2    0    0  0.52171737236E+02 -0.90942992506E+02  0.78703703058E+03  0.80858608606E+03  0.15294330000E+03 0. -1.
<mgrwt>
<rscale>  0 0.18542969E+03</rscale>
<asrwt>0</asrwt>
<pdfrwt beam="1">  1        2 0.14695887E+00 0.18542969E+03</pdfrwt>
<pdfrwt beam="2">  1       -2 0.10058449E-01 0.18542969E+03</pdfrwt>
<totfact> 0.18350795E+03</totfact>
</mgrwt>
</event>
<event>
 4    1  0.4639964E-008  0.3790288E+03  0.7818608E-02  0.1051293E+00
          2   -1    0    0  501    0  0.00000000000E+00  0.00000000000E+00  0.45592428655E+03  0.45592428656E+03  0.25500000000E-02 0. -1.
         -2   -1    0    0    0  501 -0.00000000000E+00 -0.00000000000E+00 -0.36246192907E+03  0.36246192908E+03  0.25500000000E-02 0.  1.
    8880022    1    1    2    0    0  0.16474537553E+03  0.30517234268E+03 -0.10117988562E+03  0.39230118502E+03  0.15294330000E+03 0.  0.
    8880022    1    1    2    0    0 -0.16474537553E+03 -0.30517234268E+03  0.19464224310E+03  0.42608503061E+03  0.15294330000E+03 0.  0.
<mgrwt>
<rscale>  0 0.37902883E+03</rscale>
<asrwt>0</asrwt>
<pdfrwt beam="1">  1        2 0.70142198E-01 0.37902883E+03</pdfrwt>
<pdfrwt beam="2">  1       -2 0.55763374E-01 0.37902883E+03</pdfrwt>
<totfact> 0.21267371E+02</totfact>
</mgrwt>
</event>
<event>
 4    1  0.4639964E-008  0.5147552E+03  0.7818608E-02  0.1009998E+00
          2   -1    0    0  501    0  0.00000000000E+00  0.00000000000E+00  0.52083186318E+03  0.52083186319E+03  0.25500000000E-02 0. -1.
         -2   -1    0    0    0  501 -0.00000000000E+00 -0.00000000000E+00 -0.55341037455E+03  0.55341037455E+03  0.25500000000E-02 0.  1.
    8880022    1    1    2    0    0  0.14264199046E+03 -0.47035576908E+03  0.13629590013E+03  0.53249367354E+03  0.15294330000E+03 0.  0.
    8880022    1    1    2    0    0 -0.14264199046E+03  0.47035576908E+03 -0.16887441149E+03  0.54174856421E+03  0.15294330000E+03 0.  0.
<mgrwt>
<rscale>  0 0.51475522E+03</rscale>
<asrwt>0</asrwt>
<pdfrwt beam="1">  1        2 0.80127979E-01 0.51475522E+03</pdfrwt>
<pdfrwt beam="2">  1       -2 0.85140058E-01 0.51475522E+03</pdfrwt>
<totfact> 0.72503187E+01</totfact>
</mgrwt>
</event>
<event>
 4    1  0.4639964E-008  0.4003919E+03  0.7818608E-02  0.1043644E+00
          2   -1    0    0  501    0  0.00000000000E+00  0.00000000000E+00  0.14493859586E+04  0.14493859586E+04  0.25500000000E-02 0. -1.
         -2   -1    0    0    0  501 -0.00000000000E+00 -0.00000000000E+00 -0.12094157585E+03  0.12094157587E+03  0.25500000000E-02 0.  1.
    8880022    1    1    2    0    0 -0.26165583687E+03 -0.26164520923E+03  0.89373043284E+03  0.97932003558E+03  0.15294330000E+03 0.  0.
    8880022    1    1    2    0    0  0.26165583687E+03  0.26164520923E+03  0.43471394989E+03  0.59100749888E+03  0.15294330000E+03 0.  0.
<mgrwt>
<rscale>  0 0.40039186E+03</rscale>
<asrwt>0</asrwt>
<pdfrwt beam="1">  1        2 0.22298246E+00 0.40039186E+03</pdfrwt>
<pdfrwt beam="2">  1       -2 0.18606396E-01 0.40039186E+03</pdfrwt>
<totfact> 0.34201259E+02</totfact>
</mgrwt>
</event>
<event>
 4    1  0.4639964E-008  0.5833836E+03  0.7818608E-02  0.9940492E-01
         -2   -1    0    0    0  501 -0.00000000000E+00  0.00000000000E+00  0.43688512445E+03  0.43688512445E+03  0.25500000000E-02 0.  1.
          2   -1    0    0  501    0  0.00000000000E+00 -0.00000000000E+00 -0.16066219826E+04  0.16066219826E+04  0.25500000000E-02 0. -1.
    8880022    1    1    2    0    0 -0.19957327620E+03  0.52641736982E+03  0.14846854627E+03  0.60197948642E+03  0.15294330000E+03 0.  0.
    8880022    1    1    2    0    0  0.19957327620E+03 -0.52641736982E+03 -0.13182054044E+04  0.14415276207E+04  0.15294330000E+03 0.  0.
<mgrwt>
<rscale>  0 0.58338357E+03</rscale>
<asrwt>0</asrwt>
<pdfrwt beam="1">  1        2 0.24717261E+00 0.58338357E+03</pdfrwt>
<pdfrwt beam="2">  1       -2 0.67213097E-01 0.58338357E+03</pdfrwt>
<totfact> 0.23574834E+01</totfact>
</mgrwt>
</event>
<event>
 4    1  0.4639964E-008  0.5469297E+03  0.7818608E-02  0.1002207E+00
         -2   -1    0    0    0  501 -0.00000000000E+00  0.00000000000E+00  0.59141875910E+03  0.59141875911E+03  0.25500000000E-02 0.  1.
          2   -1    0    0  501    0  0.00000000000E+00 -0.00000000000E+00 -0.16719907955E+04  0.16719907955E+04  0.25500000000E-02 0. -1.
    8880022    1    1    2    0    0 -0.47219565714E+02 -0.52298253032E+03 -0.14854417814E+04  0.15829306218E+04  0.15294330000E+03 0. -1.
    8880022    1    1    2    0    0  0.47219565714E+02  0.52298253032E+03  0.40486974509E+03  0.68047893275E+03  0.15294330000E+03 0.  1.
<mgrwt>
<rscale>  0 0.54692967E+03</rscale>
<asrwt>0</asrwt>
<pdfrwt beam="1">  1        2 0.25722935E+00 0.54692967E+03</pdfrwt>
<pdfrwt beam="2">  1       -2 0.90987502E-01 0.54692967E+03</pdfrwt>
<totfact> 0.11133731E+01</totfact>
</mgrwt>
</event>
<event>
 4    1  0.4639964E-008  0.6473096E+03  0.7818608E-02  0.9811841E-01
          2   -1    0    0  501    0  0.00000000000E+00  0.00000000000E+00  0.12142859593E+04  0.12142859593E+04  0.25500000000E-02 0. -1.
         -2   -1    0    0    0  501 -0.00000000000E+00 -0.00000000000E+00 -0.12882680574E+04  0.12882680574E+04  0.25500000000E-02 0.  1.
    8880022    1    1    2    0    0 -0.93535064664E+02  0.62198810619E+03  0.10336713498E+04  0.12196254036E+04  0.15294330000E+03 0.  0.
    8880022    1    1    2    0    0  0.93535064664E+02 -0.62198810619E+03 -0.11076534479E+04  0.12829286131E+04  0.15294330000E+03 0.  0.
<mgrwt>
<rscale>  0 0.64730956E+03</rscale>
<asrwt>0</asrwt>
<pdfrwt beam="1">  1        2 0.18681323E+00 0.64730956E+03</pdfrwt>
<pdfrwt beam="2">  1       -2 0.19819508E+00 0.64730956E+03</pdfrwt>
<totfact> 0.26541375E+00</totfact>
</mgrwt>
</event>
<event>
 4    1  0.4639964E-008  0.5760165E+03  0.7818608E-02  0.9956453E-01
         -2   -1    0    0    0  501 -0.00000000000E+00  0.00000000000E+00  0.75428978521E+03  0.75428978521E+03  0.25500000000E-02 0.  1.
          2   -1    0    0  501    0  0.00000000000E+00 -0.00000000000E+00 -0.64195820597E+03  0.64195820598E+03  0.25500000000E-02 0. -1.
    8880022    1    1    2    0    0 -0.46786492534E+03  0.29917511165E+03  0.44785515382E+03  0.72963636670E+03  0.15294330000E+03 0.  0.
    8880022    1    1    2    0    0  0.46786492534E+03 -0.29917511165E+03 -0.33552357459E+03  0.66661162449E+03  0.15294330000E+03 0.  0.
<mgrwt>
<rscale>  0 0.57601648E+03</rscale>
<asrwt>0</asrwt>
<pdfrwt beam="1">  1        2 0.98762801E-01 0.57601648E+03</pdfrwt>
<pdfrwt beam="2">  1       -2 0.11604458E+00 0.57601648E+03</pdfrwt>
<totfact> 0.27135284E+01</totfact>
</mgrwt>
</event>
<event>
 4    1  0.4639964E-008  0.8281800E+03  0.7818608E-02  0.9520100E-01
          2   -1    0    0  501    0  0.00000000000E+00  0.00000000000E+00  0.17929286941E+04  0.17929286941E+04  0.25500000000E-02 0. -1.
         -2   -1    0    0    0  501 -0.00000000000E+00 -0.00000000000E+00 -0.65766986935E+03  0.65766986935E+03  0.25500000000E-02 0.  1.
    8880022    1    1    2    0    0 -0.70883058748E+03  0.40006201384E+03  0.13601315058E+04  0.15924320340E+04  0.15294330000E+03 0.  0.
    8880022    1    1    2    0    0  0.70883058748E+03 -0.40006201384E+03 -0.22487268105E+03  0.85816652951E+03  0.15294330000E+03 0.  0.
<mgrwt>
<rscale>  0 0.82817997E+03</rscale>
<asrwt>0</asrwt>
<pdfrwt beam="1">  1        2 0.27583518E+00 0.82817997E+03</pdfrwt>
<pdfrwt beam="2">  1       -2 0.10117998E+00 0.82817997E+03</pdfrwt>
<totfact> 0.71297145E+00</totfact>
</mgrwt>
</event>
<event>
 4    1  0.4639964E-008  0.3552354E+03  0.7818608E-02  0.1060486E+00
          2   -1    0    0  501    0  0.00000000000E+00  0.00000000000E+00  0.30571937754E+04  0.30571937754E+04  0.25500000000E-02 0. -1.
         -2   -1    0    0    0  501 -0.00000000000E+00 -0.00000000000E+00 -0.23386625597E+03  0.23386625598E+03  0.25500000000E-02 0.  1.
    8880022    1    1    2    0    0 -0.93147766253E+02  0.30679645570E+03 -0.81604704653E+02  0.36448806897E+03  0.15294330000E+03 0.  0.
    8880022    1    1    2    0    0  0.93147766253E+02 -0.30679645570E+03  0.29049322241E+04  0.29265719624E+04  0.15294330000E+03 0.  0.
<mgrwt>
<rscale>  0 0.35523545E+03</rscale>
<asrwt>0</asrwt>
<pdfrwt beam="1">  1        2 0.47033747E+00 0.35523545E+03</pdfrwt>
<pdfrwt beam="2">  1       -2 0.35979427E-01 0.35523545E+03</pdfrwt>
<totfact> 0.13701505E+01</totfact>
</mgrwt>
</event>
<event>
 4    1  0.4639964E-008  0.3746632E+03  0.7818608E-02  0.1052924E+00
          2   -1    0    0  501    0  0.00000000000E+00  0.00000000000E+00  0.86434379470E+03  0.86434379470E+03  0.25500000000E-02 0. -1.
         -2   -1    0    0    0  501 -0.00000000000E+00 -0.00000000000E+00 -0.79316987009E+03  0.79316987010E+03  0.25500000000E-02 0.  1.
    8880022    1    1    2    0    0 -0.34105189000E+03  0.25776754907E+02  0.77464453539E+03  0.86049209293E+03  0.15294330000E+03 0.  0.
    8880022    1    1    2    0    0  0.34105189000E+03 -0.25776754907E+02 -0.70347061079E+03  0.79702157187E+03  0.15294330000E+03 0.  0.
<mgrwt>
<rscale>  0 0.37466316E+03</rscale>
<asrwt>0</asrwt>
<pdfrwt beam="1">  1        2 0.13297597E+00 0.37466316E+03</pdfrwt>
<pdfrwt beam="2">  1       -2 0.12202613E+00 0.37466316E+03</pdfrwt>
<totfact> 0.16939684E+01</totfact>
</mgrwt>
</event>
<event>
 4    1  0.4639964E-008  0.4739605E+03  0.7818608E-02  0.1020808E+00
          2   -1    0    0  501    0  0.00000000000E+00  0.00000000000E+00  0.96007342936E+03  0.96007342936E+03  0.25500000000E-02 0. -1.
         -2   -1    0    0    0  501 -0.00000000000E+00 -0.00000000000E+00 -0.14821738411E+04  0.14821738411E+04  0.25500000000E-02 0.  1.
    8880022    1    1    2    0    0  0.29015826339E+03  0.34213314425E+03  0.85955072283E+03  0.98156304145E+03  0.15294330000E+03 0.  0.
    8880022    1    1    2    0    0 -0.29015826339E+03 -0.34213314425E+03 -0.13816511345E+04  0.14606842290E+04  0.15294330000E+03 0.  0.
<mgrwt>
<rscale>  0 0.47396050E+03</rscale>
<asrwt>0</asrwt>
<pdfrwt beam="1">  1        2 0.14770360E+00 0.47396050E+03</pdfrwt>
<pdfrwt beam="2">  1       -2 0.22802674E+00 0.47396050E+03</pdfrwt>
<totfact> 0.25566984E+00</totfact>
</mgrwt>
</event>
<event>
 4    1  0.4639964E-008  0.6522507E+03  0.7818608E-02  0.9802565E-01
         -2   -1    0    0    0  501 -0.00000000000E+00  0.00000000000E+00  0.11963513309E+04  0.11963513309E+04  0.25500000000E-02 0.  1.
          2   -1    0    0  501    0  0.00000000000E+00 -0.00000000000E+00 -0.68873782831E+03  0.68873782832E+03  0.25500000000E-02 0. -1.
    8880022    1    1    2    0    0 -0.63109368945E+03 -0.61319095112E+02 -0.40170779343E+03  0.76602877270E+03  0.15294330000E+03 0.  0.
    8880022    1    1    2    0    0  0.63109368945E+03  0.61319095112E+02  0.90932129603E+03  0.11190603865E+04  0.15294330000E+03 0.  0.
<mgrwt>
<rscale>  0 0.65225066E+03</rscale>
<asrwt>0</asrwt>
<pdfrwt beam="1">  1        2 0.10595967E+00 0.65225066E+03</pdfrwt>
<pdfrwt beam="2">  1       -2 0.18405405E+00 0.65225066E+03</pdfrwt>
<totfact> 0.73355028E+00</totfact>
</mgrwt>
</event>
<event>
 4    1  0.4639964E-008  0.4340444E+03  0.7818608E-02  0.1032590E+00
         -2   -1    0    0    0  501 -0.00000000000E+00  0.00000000000E+00  0.49791300372E+03  0.49791300372E+03  0.25500000000E-02 0.  1.
          2   -1    0    0  501    0  0.00000000000E+00 -0.00000000000E+00 -0.59441716695E+03  0.59441716696E+03  0.25500000000E-02 0. -1.
    8880022    1    1    2    0    0  0.28675775946E+03 -0.28770280759E+03 -0.37752355596E+03  0.57525525328E+03  0.15294330000E+03 0. -1.
    8880022    1    1    2    0    0 -0.28675775946E+03  0.28770280759E+03  0.28101939272E+03  0.51707491740E+03  0.15294330000E+03 0.  0.
<mgrwt>
<rscale>  0 0.43404443E+03</rscale>
<asrwt>0</asrwt>
<pdfrwt beam="1">  1        2 0.91448795E-01 0.43404443E+03</pdfrwt>
<pdfrwt beam="2">  1       -2 0.76602000E-01 0.43404443E+03</pdfrwt>
<totfact> 0.79291710E+01</totfact>
</mgrwt>
</event>
<event>
 4    1  0.4639964E-008  0.1131097E+04  0.7818608E-02  0.9175402E-01
          2   -1    0    0  501    0  0.00000000000E+00  0.00000000000E+00  0.30072981741E+04  0.30072981741E+04  0.25500000000E-02 0. -1.
         -2   -1    0    0    0  501 -0.00000000000E+00 -0.00000000000E+00 -0.49129247232E+03  0.49129247233E+03  0.25500000000E-02 0.  1.
    8880022    1    1    2    0    0  0.11176652048E+04  0.82541252330E+02  0.18985161407E+04  0.22099194008E+04  0.15294330000E+03 0.  0.
    8880022    1    1    2    0    0 -0.11176652048E+04 -0.82541252330E+02  0.61748956113E+03  0.12886712457E+04  0.15294330000E+03 0.  0.
<mgrwt>
<rscale>  0 0.11310969E+04</rscale>
<asrwt>0</asrwt>
<pdfrwt beam="1">  1        2 0.46266126E+00 0.11310969E+04</pdfrwt>
<pdfrwt beam="2">  1       -2 0.75583458E-01 0.11310969E+04</pdfrwt>
<totfact> 0.27126084E+00</totfact>
</mgrwt>
</event>
<event>
 4    1  0.4639964E-008  0.5240704E+03  0.7818608E-02  0.1007680E+00
          2   -1    0    0  501    0  0.00000000000E+00  0.00000000000E+00  0.89192177145E+03  0.89192177145E+03  0.25500000000E-02 0. -1.
         -2   -1    0    0    0  501 -0.00000000000E+00 -0.00000000000E+00 -0.38291417960E+03  0.38291417961E+03  0.25500000000E-02 0.  1.
    8880022    1    1    2    0    0  0.49268699497E+03  0.92291365860E+02  0.53657402918E+03  0.75004100757E+03  0.15294330000E+03 0.  0.
    8880022    1    1    2    0    0 -0.49268699497E+03 -0.92291365860E+02 -0.27566437335E+02  0.52479494349E+03  0.15294330000E+03 0.  0.
<mgrwt>
<rscale>  0 0.52407044E+03</rscale>
<asrwt>0</asrwt>
<pdfrwt beam="1">  1        2 0.13721873E+00 0.52407044E+03</pdfrwt>
<pdfrwt beam="2">  1       -2 0.58909874E-01 0.52407044E+03</pdfrwt>
<totfact> 0.82630723E+01</totfact>
</mgrwt>
</event>
<event>
 4    1  0.4639964E-008  0.4127932E+03  0.7818608E-02  0.1039438E+00
         -2   -1    0    0    0  501 -0.00000000000E+00  0.00000000000E+00  0.46816686395E+03  0.46816686396E+03  0.25500000000E-02 0.  1.
          2   -1    0    0  501    0  0.00000000000E+00 -0.00000000000E+00 -0.53857013812E+03  0.53857013812E+03  0.25500000000E-02 0. -1.
    8880022    1    1    2    0    0 -0.71228269590E+02  0.37674012291E+03 -0.32180969601E+03  0.52341161628E+03  0.15294330000E+03 0.  0.
    8880022    1    1    2    0    0  0.71228269590E+02 -0.37674012291E+03  0.25140642185E+03  0.48332538580E+03  0.15294330000E+03 0.  0.
<mgrwt>
<rscale>  0 0.41279322E+03</rscale>
<asrwt>0</asrwt>
<pdfrwt beam="1">  1        2 0.82856945E-01 0.41279322E+03</pdfrwt>
<pdfrwt beam="2">  1       -2 0.72025671E-01 0.41279322E+03</pdfrwt>
<totfact> 0.10208184E+02</totfact>
</mgrwt>
</event>
<event>
 4    1  0.4639964E-008  0.7930270E+03  0.7818608E-02  0.9570165E-01
          2   -1    0    0  501    0  0.00000000000E+00  0.00000000000E+00  0.19694370524E+04  0.19694370524E+04  0.25500000000E-02 0. -1.
         -2   -1    0    0    0  501 -0.00000000000E+00 -0.00000000000E+00 -0.32852239402E+03  0.32852239403E+03  0.25500000000E-02 0.  1.
    8880022    1    1    2    0    0 -0.64326840533E+03  0.43784228311E+03  0.62821588660E+03  0.10117049764E+04  0.15294330000E+03 0.  0.
    8880022    1    1    2    0    0  0.64326840533E+03 -0.43784228311E+03  0.10126987718E+04  0.12862544700E+04  0.15294330000E+03 0.  0.
<mgrwt>
<rscale>  0 0.79302696E+03</rscale>
<asrwt>0</asrwt>
<pdfrwt beam="1">  1        2 0.30299032E+00 0.79302696E+03</pdfrwt>
<pdfrwt beam="2">  1       -2 0.50541906E-01 0.79302696E+03</pdfrwt>
<totfact> 0.26407732E+01</totfact>
</mgrwt>
</event>
<event>
 4    1  0.4639964E-008  0.8282259E+03  0.7818608E-02  0.9520037E-01
         -2   -1    0    0    0  501 -0.00000000000E+00  0.00000000000E+00  0.42424283599E+03  0.42424283599E+03  0.25500000000E-02 0.  1.
          2   -1    0    0  501    0  0.00000000000E+00 -0.00000000000E+00 -0.18247222176E+04  0.18247222176E+04  0.25500000000E-02 0. -1.
    8880022    1    1    2    0    0 -0.52015456033E+03 -0.62610363149E+03 -0.10797298144E+04  0.13607992685E+04  0.15294330000E+03 0.  0.
    8880022    1    1    2    0    0  0.52015456033E+03  0.62610363149E+03 -0.32074956727E+03  0.88816578515E+03  0.15294330000E+03 0.  0.
<mgrwt>
<rscale>  0 0.82822592E+03</rscale>
<asrwt>0</asrwt>
<pdfrwt beam="1">  1        2 0.28072649E+00 0.82822592E+03</pdfrwt>
<pdfrwt beam="2">  1       -2 0.65268130E-01 0.82822592E+03</pdfrwt>
<totfact> 0.18456392E+01</totfact>
</mgrwt>
</event>
<event>
 4    1  0.4639964E-008  0.8339946E+03  0.7818608E-02  0.9512074E-01
         -2   -1    0    0    0  501 -0.00000000000E+00  0.00000000000E+00  0.37089727215E+03  0.37089727216E+03  0.25500000000E-02 0.  1.
          2   -1    0    0  501    0  0.00000000000E+00 -0.00000000000E+00 -0.19029788977E+04  0.19029788977E+04  0.25500000000E-02 0. -1.
    8880022    1    1    2    0    0 -0.29092171004E+03  0.76649843998E+03 -0.90313670557E+03  0.12293099129E+04  0.15294330000E+03 0.  0.
    8880022    1    1    2    0    0  0.29092171004E+03 -0.76649843998E+03 -0.62894491995E+03  0.10445662570E+04  0.15294330000E+03 0.  0.
<mgrwt>
<rscale>  0 0.83399458E+03</rscale>
<asrwt>0</asrwt>
<pdfrwt beam="1">  1        2 0.29276598E+00 0.83399458E+03</pdfrwt>
<pdfrwt beam="2">  1       -2 0.57061120E-01 0.83399458E+03</pdfrwt>
<totfact> 0.22229967E+01</totfact>
</mgrwt>
</event>
<event>
 4    1  0.4639964E-008  0.5273822E+03  0.7818608E-02  0.1006869E+00
         -2   -1    0    0    0  501 -0.00000000000E+00  0.00000000000E+00  0.56736780920E+03  0.56736780921E+03  0.25500000000E-02 0.  1.
          2   -1    0    0  501    0  0.00000000000E+00 -0.00000000000E+00 -0.17584578163E+04  0.17584578163E+04  0.25500000000E-02 0. -1.
    8880022    1    1    2    0    0  0.29504414411E+03 -0.40949876668E+03 -0.15831481513E+04  0.16686791210E+04  0.15294330000E+03 0.  0.
    8880022    1    1    2    0    0 -0.29504414411E+03  0.40949876668E+03  0.39205814423E+03  0.65714650448E+03  0.15294330000E+03 0.  0.
<mgrwt>
<rscale>  0 0.52738216E+03</rscale>
<asrwt>0</asrwt>
<pdfrwt beam="1">  1        2 0.27053197E+00 0.52738216E+03</pdfrwt>
<pdfrwt beam="2">  1       -2 0.87287356E-01 0.52738216E+03</pdfrwt>
<totfact> 0.11037900E+01</totfact>
</mgrwt>
</event>
<event>
 4    1  0.4639964E-008  0.2667990E+03  0.7818608E-02  0.1103126E+00
          2   -1    0    0  501    0  0.00000000000E+00  0.00000000000E+00  0.20063296660E+04  0.20063296660E+04  0.25500000000E-02 0. -1.
         -2   -1    0    0    0  501 -0.00000000000E+00 -0.00000000000E+00 -0.75883041581E+03  0.75883041582E+03  0.25500000000E-02 0.  1.
    8880022    1    1    2    0    0 -0.12905985832E+03 -0.17644714675E+03 -0.72612277203E+03  0.77358643712E+03  0.15294330000E+03 0.  1.
    8880022    1    1    2    0    0  0.12905985832E+03  0.17644714675E+03  0.19736220222E+04  0.19915736447E+04  0.15294330000E+03 0.  0.
<mgrwt>
<rscale>  0 0.26679898E+03</rscale>
<asrwt>0</asrwt>
<pdfrwt beam="1">  1        2 0.30866610E+00 0.26679898E+03</pdfrwt>
<pdfrwt beam="2">  1       -2 0.11674314E+00 0.26679898E+03</pdfrwt>
<totfact> 0.44722733E+00</totfact>
</mgrwt>
</event>
<event>
 4    1  0.4639964E-008  0.2491102E+03  0.7818608E-02  0.1113868E+00
          2   -1    0    0  501    0  0.00000000000E+00  0.00000000000E+00  0.24808825441E+03  0.24808825442E+03  0.25500000000E-02 0. -1.
         -2   -1    0    0    0  501 -0.00000000000E+00 -0.00000000000E+00 -0.63585647941E+03  0.63585647941E+03  0.25500000000E-02 0.  1.
    8880022    1    1    2    0    0  0.80702757914E+02  0.17930783833E+03 -0.53811649418E+03  0.59297997466E+03  0.15294330000E+03 0.  0.
    8880022    1    1    2    0    0 -0.80702757914E+02 -0.17930783833E+03  0.15034826918E+03  0.29096475918E+03  0.15294330000E+03 0.  0.
<mgrwt>
<rscale>  0 0.24911019E+03</rscale>
<asrwt>0</asrwt>
<pdfrwt beam="1">  1        2 0.38167424E-01 0.24911019E+03</pdfrwt>
<pdfrwt beam="2">  1       -2 0.97824073E-01 0.24911019E+03</pdfrwt>
<totfact> 0.12256447E+02</totfact>
</mgrwt>
</event>
<event>
 4    1  0.4639964E-008  0.1824381E+03  0.7818608E-02  0.1165464E+00
         -2   -1    0    0    0  501 -0.00000000000E+00  0.00000000000E+00  0.44736440990E+02  0.44736441062E+02  0.25500000000E-02 0.  1.
          2   -1    0    0  501    0  0.00000000000E+00 -0.00000000000E+00 -0.86328733175E+03  0.86328733175E+03  0.25500000000E-02 0. -1.
    8880022    1    1    2    0    0  0.11024319236E+02  0.98845773313E+02 -0.24050502644E+03  0.30187140188E+03  0.15294330000E+03 0.  0.
    8880022    1    1    2    0    0 -0.11024319236E+02 -0.98845773313E+02 -0.57804586432E+03  0.60615237093E+03  0.15294330000E+03 0.  0.
<mgrwt>
<rscale>  0 0.18243814E+03</rscale>
<asrwt>0</asrwt>
<pdfrwt beam="1">  1        2 0.13281342E+00 0.18243814E+03</pdfrwt>
<pdfrwt beam="2">  1       -2 0.68825300E-02 0.18243814E+03</pdfrwt>
<totfact> 0.37942496E+03</totfact>
</mgrwt>
</event>
<event>
 4    1  0.4639964E-008  0.9540285E+03  0.7818608E-02  0.9360454E-01
         -2   -1    0    0    0  501 -0.00000000000E+00  0.00000000000E+00  0.75334709117E+03  0.75334709118E+03  0.25500000000E-02 0.  1.
          2   -1    0    0  501    0  0.00000000000E+00 -0.00000000000E+00 -0.22527184276E+04  0.22527184276E+04  0.25500000000E-02 0. -1.
    8880022    1    1    2    0    0 -0.56088566812E+03 -0.75642975051E+03  0.27379479462E+03  0.99253913914E+03  0.15294330000E+03 0.  0.
    8880022    1    1    2    0    0  0.56088566812E+03  0.75642975051E+03 -0.17731661310E+04  0.20135263796E+04  0.15294330000E+03 0.  0.
<mgrwt>
<rscale>  0 0.95402849E+03</rscale>
<asrwt>0</asrwt>
<pdfrwt beam="1">  1        2 0.34657206E+00 0.95402849E+03</pdfrwt>
<pdfrwt beam="2">  1       -2 0.11589955E+00 0.95402849E+03</pdfrwt>
<totfact> 0.28160840E+00</totfact>
</mgrwt>
</event>
<event>
 4    1  0.4639964E-008  0.2356582E+03  0.7818608E-02  0.1122719E+00
          2   -1    0    0  501    0  0.00000000000E+00  0.00000000000E+00  0.83984901390E+03  0.83984901391E+03  0.25500000000E-02 0. -1.
         -2   -1    0    0    0  501 -0.00000000000E+00 -0.00000000000E+00 -0.17373011909E+03  0.17373011910E+03  0.25500000000E-02 0.  1.
    8880022    1    1    2    0    0 -0.89446023779E+02  0.15537863540E+03  0.73190722569E+03  0.76891023633E+03  0.15294330000E+03 0.  0.
    8880022    1    1    2    0    0  0.89446023779E+02 -0.15537863540E+03 -0.65788330873E+02  0.24466889668E+03  0.15294330000E+03 0.  0.
<mgrwt>
<rscale>  0 0.23565815E+03</rscale>
<asrwt>0</asrwt>
<pdfrwt beam="1">  1        2 0.12920754E+00 0.23565815E+03</pdfrwt>
<pdfrwt beam="2">  1       -2 0.26727710E-01 0.23565815E+03</pdfrwt>
<totfact> 0.42407190E+02</totfact>
</mgrwt>
</event>
<event>
 4    1  0.4639964E-008  0.1966641E+03  0.7818608E-02  0.1152584E+00
         -2   -1    0    0    0  501 -0.00000000000E+00  0.00000000000E+00  0.96181718625E+02  0.96181718659E+02  0.25500000000E-02 0.  1.
          2   -1    0    0  501    0  0.00000000000E+00 -0.00000000000E+00 -0.19554286345E+04  0.19554286345E+04  0.25500000000E-02 0. -1.
    8880022    1    1    2    0    0  0.67612746044E+02 -0.10350662960E+03 -0.15357524369E+02  0.19726280027E+03  0.15294330000E+03 0.  1.
    8880022    1    1    2    0    0 -0.67612746044E+02  0.10350662960E+03 -0.18438893915E+04  0.18543475529E+04  0.15294330000E+03 0.  0.
<mgrwt>
<rscale>  0 0.19666408E+03</rscale>
<asrwt>0</asrwt>
<pdfrwt beam="1">  1        2 0.30083514E+00 0.19666408E+03</pdfrwt>
<pdfrwt beam="2">  1       -2 0.14797189E-01 0.19666408E+03</pdfrwt>
<totfact> 0.28105864E+02</totfact>
</mgrwt>
</event>
<event>
 4    1  0.4639964E-008  0.7846535E+03  0.7818608E-02  0.9582500E-01
          2   -1    0    0  501    0  0.00000000000E+00  0.00000000000E+00  0.78940264687E+03  0.78940264688E+03  0.25500000000E-02 0. -1.
         -2   -1    0    0    0  501 -0.00000000000E+00 -0.00000000000E+00 -0.10361536970E+04  0.10361536970E+04  0.25500000000E-02 0.  1.
    8880022    1    1    2    0    0  0.45323266373E+03  0.62198844294E+03  0.33052461236E+03  0.85142682776E+03  0.15294330000E+03 0.  0.
    8880022    1    1    2    0    0 -0.45323266373E+03 -0.62198844294E+03 -0.57727566245E+03  0.97412951608E+03  0.15294330000E+03 0.  0.
<mgrwt>
<rscale>  0 0.78465351E+03</rscale>
<asrwt>0</asrwt>
<pdfrwt beam="1">  1        2 0.12144656E+00 0.78465351E+03</pdfrwt>
<pdfrwt beam="2">  1       -2 0.15940826E+00 0.78465351E+03</pdfrwt>
<totfact> 0.90362759E+00</totfact>
</mgrwt>
</event>
<event>
 4    1  0.4639964E-008  0.6306880E+03  0.7818608E-02  0.9843707E-01
          2   -1    0    0  501    0  0.00000000000E+00  0.00000000000E+00  0.11590482776E+04  0.11590482776E+04  0.25500000000E-02 0. -1.
         -2   -1    0    0    0  501 -0.00000000000E+00 -0.00000000000E+00 -0.56016569708E+03  0.56016569708E+03  0.25500000000E-02 0.  1.
    8880022    1    1    2    0    0 -0.34020094085E+03  0.50856563739E+03  0.83444006396E+03  0.10459720651E+04  0.15294330000E+03 0.  0.
    8880022    1    1    2    0    0  0.34020094085E+03 -0.50856563739E+03 -0.23555748347E+03  0.67324190951E+03  0.15294330000E+03 0.  0.
<mgrwt>
<rscale>  0 0.63068799E+03</rscale>
<asrwt>0</asrwt>
<pdfrwt beam="1">  1        2 0.17831512E+00 0.63068799E+03</pdfrwt>
<pdfrwt beam="2">  1       -2 0.86179338E-01 0.63068799E+03</pdfrwt>
<totfact> 0.24171402E+01</totfact>
</mgrwt>
</event>
<event>
 4    1  0.4639964E-008  0.4344253E+03  0.7818608E-02  0.1032471E+00
          2   -1    0    0  501    0  0.00000000000E+00  0.00000000000E+00  0.22771580725E+04  0.22771580725E+04  0.25500000000E-02 0. -1.
         -2   -1    0    0    0  501 -0.00000000000E+00 -0.00000000000E+00 -0.46500844482E+03  0.46500844483E+03  0.25500000000E-02 0.  1.
    8880022    1    1    2    0    0 -0.17683423910E+03  0.36614656627E+03  0.21489842262E+04  0.21924549057E+04  0.15294330000E+03 0.  0.
    8880022    1    1    2    0    0  0.17683423910E+03 -0.36614656627E+03 -0.33683459856E+03  0.54971161158E+03  0.15294330000E+03 0.  1.
<mgrwt>
<rscale>  0 0.43442526E+03</rscale>
<asrwt>0</asrwt>
<pdfrwt beam="1">  1        2 0.35033200E+00 0.43442526E+03</pdfrwt>
<pdfrwt beam="2">  1       -2 0.71539762E-01 0.43442526E+03</pdfrwt>
<totfact> 0.92362120E+00</totfact>
</mgrwt>
</event>
<event>
 4    1  0.4639964E-008  0.1481976E+04  0.7818608E-02  0.8896528E-01
          2   -1    0    0  501    0  0.00000000000E+00  0.00000000000E+00  0.16600650241E+04  0.16600650241E+04  0.25500000000E-02 0. -1.
         -2   -1    0    0    0  501 -0.00000000000E+00 -0.00000000000E+00 -0.34816078000E+04  0.34816078000E+04  0.25500000000E-02 0.  1.
    8880022    1    1    2    0    0  0.14619454322E+04 -0.18861971003E+03 -0.29350586837E+04  0.32879815954E+04  0.15294330000E+03 0.  0.
    8880022    1    1    2    0    0 -0.14619454322E+04  0.18861971003E+03  0.11135159077E+04  0.18536912288E+04  0.15294330000E+03 0.  0.
<mgrwt>
<rscale>  0 0.14819762E+04</rscale>
<asrwt>0</asrwt>
<pdfrwt beam="1">  1        2 0.25539462E+00 0.14819762E+04</pdfrwt>
<pdfrwt beam="2">  1       -2 0.53563197E+00 0.14819762E+04</pdfrwt>
<totfact> 0.97297442E-03</totfact>
</mgrwt>
</event>
<event>
 4    1  0.4639964E-008  0.5335646E+03  0.7818608E-02  0.1005371E+00
          2   -1    0    0  501    0  0.00000000000E+00  0.00000000000E+00  0.45524680212E+03  0.45524680212E+03  0.25500000000E-02 0. -1.
         -2   -1    0    0    0  501 -0.00000000000E+00 -0.00000000000E+00 -0.76503618602E+03  0.76503618603E+03  0.25500000000E-02 0.  1.
    8880022    1    1    2    0    0  0.40868809380E+03  0.30704004132E+03  0.10581512730E+03  0.54395591657E+03  0.15294330000E+03 0.  0.
    8880022    1    1    2    0    0 -0.40868809380E+03 -0.30704004132E+03 -0.41560451121E+03  0.67632707158E+03  0.15294330000E+03 0.  0.
<mgrwt>
<rscale>  0 0.53356461E+03</rscale>
<asrwt>0</asrwt>
<pdfrwt beam="1">  1        2 0.70037970E-01 0.53356461E+03</pdfrwt>
<pdfrwt beam="2">  1       -2 0.11769787E+00 0.53356461E+03</pdfrwt>
<totfact> 0.39377902E+01</totfact>
</mgrwt>
</event>
<event>
 4    1  0.4639964E-008  0.6907015E+03  0.7818608E-02  0.9733267E-01
         -2   -1    0    0    0  501 -0.00000000000E+00  0.00000000000E+00  0.61775669304E+03  0.61775669304E+03  0.25500000000E-02 0.  1.
          2   -1    0    0  501    0  0.00000000000E+00 -0.00000000000E+00 -0.16492785434E+04  0.16492785434E+04  0.25500000000E-02 0. -1.
    8880022    1    1    2    0    0  0.18270552326E+03  0.64830203926E+03 -0.13423426020E+04  0.15096198715E+04  0.15294330000E+03 0.  0.
    8880022    1    1    2    0    0 -0.18270552326E+03 -0.64830203926E+03  0.31082075165E+03  0.75741536491E+03  0.15294330000E+03 0.  0.
<mgrwt>
<rscale>  0 0.69070145E+03</rscale>
<asrwt>0</asrwt>
<pdfrwt beam="1">  1        2 0.25373516E+00 0.69070145E+03</pdfrwt>
<pdfrwt beam="2">  1       -2 0.95039492E-01 0.69070145E+03</pdfrwt>
<totfact> 0.10101542E+01</totfact>
</mgrwt>
</event>
<event>
 4    1  0.4639964E-008  0.2339510E+03  0.7818608E-02  0.1123889E+00
          2   -1    0    0  501    0  0.00000000000E+00  0.00000000000E+00  0.35035279747E+04  0.35035279747E+04  0.25500000000E-02 0. -1.
         -2   -1    0    0    0  501 -0.00000000000E+00 -0.00000000000E+00 -0.35508182620E+03  0.35508182621E+03  0.25500000000E-02 0.  1.
    8880022    1    1    2    0    0  0.15904416125E+03  0.77758484897E+02 -0.31216334388E+03  0.39010131181E+03  0.15294330000E+03 0.  0.
    8880022    1    1    2    0    0 -0.15904416125E+03 -0.77758484897E+02  0.34606094923E+04  0.34685084891E+04  0.15294330000E+03 0.  0.
<mgrwt>
<rscale>  0 0.23395102E+03</rscale>
<asrwt>0</asrwt>
<pdfrwt beam="1">  1        2 0.53900428E+00 0.23395102E+03</pdfrwt>
<pdfrwt beam="2">  1       -2 0.54627976E-01 0.23395102E+03</pdfrwt>
<totfact> 0.33775886E+00</totfact>
</mgrwt>
</event>
<event>
 4    1  0.4639964E-008  0.4196144E+03  0.7818608E-02  0.1037192E+00
         -2   -1    0    0    0  501 -0.00000000000E+00  0.00000000000E+00  0.68612678408E+02  0.68612678456E+02  0.25500000000E-02 0.  1.
          2   -1    0    0  501    0  0.00000000000E+00 -0.00000000000E+00 -0.31307055380E+04  0.31307055380E+04  0.25500000000E-02 0. -1.
    8880022    1    1    2    0    0 -0.38109753133E+03 -0.86309230504E+02 -0.22102921774E+04  0.22497706048E+04  0.15294330000E+03 0.  0.
    8880022    1    1    2    0    0  0.38109753133E+03  0.86309230504E+02 -0.85180068227E+03  0.94954761175E+03  0.15294330000E+03 0.  0.
<mgrwt>
<rscale>  0 0.41961442E+03</rscale>
<asrwt>0</asrwt>
<pdfrwt beam="1">  1        2 0.48164690E+00 0.41961442E+03</pdfrwt>
<pdfrwt beam="2">  1       -2 0.10555799E-01 0.41961442E+03</pdfrwt>
<totfact> 0.10151223E+02</totfact>
</mgrwt>
</event>
<event>
 4    1  0.4639964E-008  0.2287811E+03  0.7818608E-02  0.1127501E+00
          2   -1    0    0  501    0  0.00000000000E+00  0.00000000000E+00  0.14226173292E+04  0.14226173292E+04  0.25500000000E-02 0. -1.
         -2   -1    0    0    0  501 -0.00000000000E+00 -0.00000000000E+00 -0.10042369541E+03  0.10042369545E+03  0.25500000000E-02 0.  1.
    8880022    1    1    2    0    0  0.10505746895E+03  0.13383605448E+03  0.54918290006E+02  0.23528032823E+03  0.15294330000E+03 0.  1.
    8880022    1    1    2    0    0 -0.10505746895E+03 -0.13383605448E+03  0.12672753438E+04  0.12877606964E+04  0.15294330000E+03 0.  0.
<mgrwt>
<rscale>  0 0.22878115E+03</rscale>
<asrwt>0</asrwt>
<pdfrwt beam="1">  1        2 0.21886420E+00 0.22878115E+03</pdfrwt>
<pdfrwt beam="2">  1       -2 0.15449800E-01 0.22878115E+03</pdfrwt>
<totfact> 0.49468002E+02</totfact>
</mgrwt>
</event>
<event>
 4    1  0.4639964E-008  0.4912735E+03  0.7818608E-02  0.1016082E+00
         -2   -1    0    0    0  501 -0.00000000000E+00  0.00000000000E+00  0.33960020708E+03  0.33960020709E+03  0.25500000000E-02 0.  1.
          2   -1    0    0  501    0  0.00000000000E+00 -0.00000000000E+00 -0.11076671552E+04  0.11076671552E+04  0.25500000000E-02 0. -1.
    8880022    1    1    2    0    0 -0.13545089288E+03  0.44677856522E+03 -0.81724316132E+03  0.95353870842E+03  0.15294330000E+03 0.  0.
    8880022    1    1    2    0    0  0.13545089288E+03 -0.44677856522E+03  0.49176213164E+02  0.49372865390E+03  0.15294330000E+03 0.  0.
<mgrwt>
<rscale>  0 0.49127353E+03</rscale>
<asrwt>0</asrwt>
<pdfrwt beam="1">  1        2 0.17041033E+00 0.49127353E+03</pdfrwt>
<pdfrwt beam="2">  1       -2 0.52246187E-01 0.49127353E+03</pdfrwt>
<totfact> 0.77681563E+01</totfact>
</mgrwt>
</event>
<event>
 4    1  0.4639964E-008  0.2877507E+03  0.7818608E-02  0.1091529E+00
         -2   -1    0    0    0  501 -0.00000000000E+00  0.00000000000E+00  0.79890936000E+03  0.79890936001E+03  0.25500000000E-02 0.  1.
          2   -1    0    0  501    0  0.00000000000E+00 -0.00000000000E+00 -0.85546113159E+03  0.85546113159E+03  0.25500000000E-02 0. -1.
    8880022    1    1    2    0    0 -0.38545782226E+02 -0.24067199508E+03 -0.80373583074E+03  0.85369299234E+03  0.15294330000E+03 0.  0.
    8880022    1    1    2    0    0  0.38545782226E+02  0.24067199508E+03  0.74718405916E+03  0.80067749926E+03  0.15294330000E+03 0.  1.
<mgrwt>
<rscale>  0 0.28775066E+03</rscale>
<asrwt>0</asrwt>
<pdfrwt beam="1">  1        2 0.13160940E+00 0.28775066E+03</pdfrwt>
<pdfrwt beam="2">  1       -2 0.12290913E+00 0.28775066E+03</pdfrwt>
<totfact> 0.17225250E+01</totfact>
</mgrwt>
</event>
<event>
 4    1  0.4639964E-008  0.5899783E+03  0.7818608E-02  0.9926419E-01
          2   -1    0    0  501    0  0.00000000000E+00  0.00000000000E+00  0.95702942375E+03  0.95702942375E+03  0.25500000000E-02 0. -1.
         -2   -1    0    0    0  501 -0.00000000000E+00 -0.00000000000E+00 -0.43682230776E+03  0.43682230777E+03  0.25500000000E-02 0.  1.
    8880022    1    1    2    0    0  0.53403996850E+03  0.19870606053E+03  0.54523841829E+03  0.80334262443E+03  0.15294330000E+03 0.  0.
    8880022    1    1    2    0    0 -0.53403996850E+03 -0.19870606053E+03 -0.25031302303E+02  0.59050910709E+03  0.15294330000E+03 0.  0.
<mgrwt>
<rscale>  0 0.58997834E+03</rscale>
<asrwt>0</asrwt>
<pdfrwt beam="1">  1        2 0.14723529E+00 0.58997834E+03</pdfrwt>
<pdfrwt beam="2">  1       -2 0.67203433E-01 0.58997834E+03</pdfrwt>
<totfact> 0.56216451E+01</totfact>
</mgrwt>
</event>
<event>
 4    1  0.4639964E-008  0.5742030E+03  0.7818608E-02  0.9960421E-01
          2   -1    0    0  501    0  0.00000000000E+00  0.00000000000E+00  0.14368932690E+04  0.14368932690E+04  0.25500000000E-02 0. -1.
         -2   -1    0    0    0  501 -0.00000000000E+00 -0.00000000000E+00 -0.42521642334E+03  0.42521642335E+03  0.25500000000E-02 0.  1.
    8880022    1    1    2    0    0  0.52451998924E+03  0.17662452074E+03  0.11375641984E+04  0.12742689665E+04  0.15294330000E+03 0.  0.
    8880022    1    1    2    0    0 -0.52451998924E+03 -0.17662452074E+03 -0.12588735271E+03  0.58784072590E+03  0.15294330000E+03 0.  0.
<mgrwt>
<rscale>  0 0.57420301E+03</rscale>
<asrwt>0</asrwt>
<pdfrwt beam="1">  1        2 0.22106050E+00 0.57420301E+03</pdfrwt>
<pdfrwt beam="2">  1       -2 0.65417912E-01 0.57420301E+03</pdfrwt>
<totfact> 0.31032863E+01</totfact>
</mgrwt>
</event>
<event>
 4    1  0.4639964E-008  0.4627967E+03  0.7818608E-02  0.1023973E+00
          2   -1    0    0  501    0  0.00000000000E+00  0.00000000000E+00  0.24166157863E+04  0.24166157863E+04  0.25500000000E-02 0. -1.
         -2   -1    0    0    0  501 -0.00000000000E+00 -0.00000000000E+00 -0.18679194842E+03  0.18679194844E+03  0.25500000000E-02 0.  1.
    8880022    1    1    2    0    0  0.32222939881E+03  0.29488526184E+03  0.20585561192E+04  0.21099369782E+04  0.15294330000E+03 0.  0.
    8880022    1    1    2    0    0 -0.32222939881E+03 -0.29488526184E+03  0.17126771872E+03  0.49347075657E+03  0.15294330000E+03 0.  0.
<mgrwt>
<rscale>  0 0.46279667E+03</rscale>
<asrwt>0</asrwt>
<pdfrwt beam="1">  1        2 0.37178700E+00 0.46279667E+03</pdfrwt>
<pdfrwt beam="2">  1       -2 0.28737227E-01 0.46279667E+03</pdfrwt>
<totfact> 0.47124382E+01</totfact>
</mgrwt>
</event>
<event>
 4    1  0.4639964E-008  0.3042344E+03  0.7818608E-02  0.1083143E+00
          2   -1    0    0  501    0  0.00000000000E+00  0.00000000000E+00  0.11174410349E+04  0.11174410349E+04  0.25500000000E-02 0. -1.
         -2   -1    0    0    0  501 -0.00000000000E+00 -0.00000000000E+00 -0.17578973944E+03  0.17578973946E+03  0.25500000000E-02 0.  1.
    8880022    1    1    2    0    0 -0.12966720962E+03  0.22880844805E+03  0.94103886714E+03  0.98899580062E+03  0.15294330000E+03 0.  0.
    8880022    1    1    2    0    0  0.12966720962E+03 -0.22880844805E+03  0.61242830015E+00  0.30423497372E+03  0.15294330000E+03 0.  0.
<mgrwt>
<rscale>  0 0.30423436E+03</rscale>
<asrwt>0</asrwt>
<pdfrwt beam="1">  1        2 0.17191400E+00 0.30423436E+03</pdfrwt>
<pdfrwt beam="2">  1       -2 0.27044576E-01 0.30423436E+03</pdfrwt>
<totfact> 0.27649773E+02</totfact>
</mgrwt>
</event>
<event>
 4    1  0.4639964E-008  0.9711981E+03  0.7818608E-02  0.9340711E-01
          2   -1    0    0  501    0  0.00000000000E+00  0.00000000000E+00  0.10394537880E+04  0.10394537880E+04  0.25500000000E-02 0. -1.
         -2   -1    0    0    0  501 -0.00000000000E+00 -0.00000000000E+00 -0.10205684926E+04  0.10205684926E+04  0.25500000000E-02 0.  1.
    8880022    1    1    2    0    0 -0.95852936288E+03  0.32490425564E+02  0.35239723698E+03  0.10331551834E+04  0.15294330000E+03 0.  0.
    8880022    1    1    2    0    0  0.95852936288E+03 -0.32490425564E+02 -0.33351194159E+03  0.10268670973E+04  0.15294330000E+03 0.  0.
<mgrwt>
<rscale>  0 0.97119814E+03</rscale>
<asrwt>0</asrwt>
<pdfrwt beam="1">  1        2 0.15991597E+00 0.97119814E+03</pdfrwt>
<pdfrwt beam="2">  1       -2 0.15701054E+00 0.97119814E+03</pdfrwt>
<totfact> 0.62642988E+00</totfact>
</mgrwt>
</event>
<event>
 4    1  0.4639964E-008  0.5726144E+03  0.7818608E-02  0.9963910E-01
         -2   -1    0    0    0  501 -0.00000000000E+00  0.00000000000E+00  0.52844691673E+03  0.52844691674E+03  0.25500000000E-02 0.  1.
          2   -1    0    0  501    0  0.00000000000E+00 -0.00000000000E+00 -0.99335397689E+03  0.99335397689E+03  0.25500000000E-02 0. -1.
    8880022    1    1    2    0    0  0.32247577504E+03  0.44777785387E+03  0.23373401859E+03  0.61848110429E+03  0.15294330000E+03 0.  0.
    8880022    1    1    2    0    0 -0.32247577504E+03 -0.44777785387E+03 -0.69864107874E+03  0.90331978934E+03  0.15294330000E+03 0.  0.
<mgrwt>
<rscale>  0 0.57261443E+03</rscale>
<asrwt>0</asrwt>
<pdfrwt beam="1">  1        2 0.15282369E+00 0.57261443E+03</pdfrwt>
<pdfrwt beam="2">  1       -2 0.81299526E-01 0.57261443E+03</pdfrwt>
<totfact> 0.35108414E+01</totfact>
</mgrwt>
</event>
<event>
 4    1  0.4639964E-008  0.8264286E+03  0.7818608E-02  0.9522531E-01
         -2   -1    0    0    0  501 -0.00000000000E+00  0.00000000000E+00  0.69727168812E+03  0.69727168812E+03  0.25500000000E-02 0.  1.
          2   -1    0    0  501    0  0.00000000000E+00 -0.00000000000E+00 -0.13254316905E+04  0.13254316905E+04  0.25500000000E-02 0. -1.
    8880022    1    1    2    0    0  0.37764351147E+03 -0.71901184627E+03  0.20258932598E+03  0.85089761125E+03  0.15294330000E+03 0.  0.
    8880022    1    1    2    0    0 -0.37764351147E+03  0.71901184627E+03 -0.83074932832E+03  0.11718057673E+04  0.15294330000E+03 0.  0.
<mgrwt>
<rscale>  0 0.82642865E+03</rscale>
<asrwt>0</asrwt>
<pdfrwt beam="1">  1        2 0.20391257E+00 0.82642865E+03</pdfrwt>
<pdfrwt beam="2">  1       -2 0.10727257E+00 0.82642865E+03</pdfrwt>
<totfact> 0.11289901E+01</totfact>
</mgrwt>
</event>
<event>
 4    1  0.4639964E-008  0.1114144E+04  0.7818608E-02  0.9191515E-01
         -2   -1    0    0    0  501 -0.00000000000E+00  0.00000000000E+00  0.14581468667E+04  0.14581468668E+04  0.25500000000E-02 0.  1.
          2   -1    0    0  501    0  0.00000000000E+00 -0.00000000000E+00 -0.16153345000E+04  0.16153345000E+04  0.25500000000E-02 0. -1.
    8880022    1    1    2    0    0  0.11026319645E+04 -0.46118454680E+02 -0.11354763938E+04  0.15907930270E+04  0.15294330000E+03 0.  0.
    8880022    1    1    2    0    0 -0.11026319645E+04  0.46118454680E+02  0.97828876051E+03  0.14826883398E+04  0.15294330000E+03 0.  0.
<mgrwt>
<rscale>  0 0.11141435E+04</rscale>
<asrwt>0</asrwt>
<pdfrwt beam="1">  1        2 0.24851300E+00 0.11141435E+04</pdfrwt>
<pdfrwt beam="2">  1       -2 0.22433029E+00 0.11141435E+04</pdfrwt>
<totfact> 0.99526297E-01</totfact>
</mgrwt>
</event>
<event>
 4    1  0.4639964E-008  0.1175746E+04  0.7818608E-02  0.9134355E-01
          2   -1    0    0  501    0  0.00000000000E+00  0.00000000000E+00  0.89271328469E+03  0.89271328469E+03  0.25500000000E-02 0. -1.
         -2   -1    0    0    0  501 -0.00000000000E+00 -0.00000000000E+00 -0.20370369934E+04  0.20370369934E+04  0.25500000000E-02 0.  1.
    8880022    1    1    2    0    0  0.21952372776E+03  0.11449001280E+04  0.14520920571E+03  0.11846790015E+04  0.15294330000E+03 0.  0.
    8880022    1    1    2    0    0 -0.21952372776E+03 -0.11449001280E+04 -0.12895329144E+04  0.17450712766E+04  0.15294330000E+03 0.  0.
<mgrwt>
<rscale>  0 0.11757460E+04</rscale>
<asrwt>0</asrwt>
<pdfrwt beam="1">  1        2 0.13734051E+00 0.11757460E+04</pdfrwt>
<pdfrwt beam="2">  1       -2 0.31339031E+00 0.11757460E+04</pdfrwt>
<totfact> 0.76710653E-01</totfact>
</mgrwt>
</event>
<event>
 4    1  0.4639964E-008  0.9024946E+03  0.7818608E-02  0.9422468E-01
         -2   -1    0    0    0  501 -0.00000000000E+00  0.00000000000E+00  0.65557619419E+03  0.65557619420E+03  0.25500000000E-02 0.  1.
          2   -1    0    0  501    0  0.00000000000E+00 -0.00000000000E+00 -0.14993853952E+04  0.14993853952E+04  0.25500000000E-02 0. -1.
    8880022    1    1    2    0    0 -0.66203730537E+03  0.59397934384E+03  0.24158172066E+02  0.90281788025E+03  0.15294330000E+03 0.  0.
    8880022    1    1    2    0    0  0.66203730537E+03 -0.59397934384E+03 -0.86796737304E+03  0.12521437091E+04  0.15294330000E+03 0.  0.
<mgrwt>
<rscale>  0 0.90249460E+03</rscale>
<asrwt>0</asrwt>
<pdfrwt beam="1">  1        2 0.23067467E+00 0.90249460E+03</pdfrwt>
<pdfrwt beam="2">  1       -2 0.10085788E+00 0.90249460E+03</pdfrwt>
<totfact> 0.10340972E+01</totfact>
</mgrwt>
</event>
<event>
 4    1  0.4639964E-008  0.7516079E+03  0.7818608E-02  0.9632831E-01
         -2   -1    0    0    0  501 -0.00000000000E+00  0.00000000000E+00  0.42454978402E+03  0.42454978403E+03  0.25500000000E-02 0.  1.
          2   -1    0    0  501    0  0.00000000000E+00 -0.00000000000E+00 -0.22672668502E+04  0.22672668502E+04  0.25500000000E-02 0. -1.
    8880022    1    1    2    0    0  0.68174919746E+03 -0.27702134752E+03 -0.56286865835E+02  0.75371258415E+03  0.15294330000E+03 0.  0.
    8880022    1    1    2    0    0 -0.68174919746E+03  0.27702134752E+03 -0.17864302004E+04  0.19381040501E+04  0.15294330000E+03 0.  0.
<mgrwt>
<rscale>  0 0.75160791E+03</rscale>
<asrwt>0</asrwt>
<pdfrwt beam="1">  1        2 0.34881028E+00 0.75160791E+03</pdfrwt>
<pdfrwt beam="2">  1       -2 0.65315353E-01 0.75160791E+03</pdfrwt>
<totfact> 0.10649713E+01</totfact>
</mgrwt>
</event>
<event>
 4    1  0.4639964E-008  0.5822739E+03  0.7818608E-02  0.9942880E-01
         -2   -1    0    0    0  501 -0.00000000000E+00  0.00000000000E+00  0.23776251161E+03  0.23776251163E+03  0.25500000000E-02 0.  1.
          2   -1    0    0  501    0  0.00000000000E+00 -0.00000000000E+00 -0.15285877026E+04  0.15285877026E+04  0.25500000000E-02 0. -1.
    8880022    1    1    2    0    0 -0.45590017477E+03 -0.32833863895E+03 -0.41658585690E+03  0.71595157683E+03  0.15294330000E+03 0.  0.
    8880022    1    1    2    0    0  0.45590017477E+03  0.32833863895E+03 -0.87423933410E+03  0.10503986374E+04  0.15294330000E+03 0.  0.
<mgrwt>
<rscale>  0 0.58227389E+03</rscale>
<asrwt>0</asrwt>
<pdfrwt beam="1">  1        2 0.23516733E+00 0.58227389E+03</pdfrwt>
<pdfrwt beam="2">  1       -2 0.36578849E-01 0.58227389E+03</pdfrwt>
<totfact> 0.89320358E+01</totfact>
</mgrwt>
</event>
<event>
 4    1  0.4639964E-008  0.8453657E+03  0.7818608E-02  0.9496578E-01
          2   -1    0    0  501    0  0.00000000000E+00  0.00000000000E+00  0.24093382039E+04  0.24093382039E+04  0.25500000000E-02 0. -1.
         -2   -1    0    0    0  501 -0.00000000000E+00 -0.00000000000E+00 -0.55197617291E+03  0.55197617291E+03  0.25500000000E-02 0.  1.
    8880022    1    1    2    0    0  0.76214810624E+03 -0.33223764671E+03 -0.78419241577E+02  0.84899518267E+03  0.15294330000E+03 0.  0.
    8880022    1    1    2    0    0 -0.76214810624E+03  0.33223764671E+03  0.19357812726E+04  0.21123191942E+04  0.15294330000E+03 0.  0.
<mgrwt>
<rscale>  0 0.84536574E+03</rscale>
<asrwt>0</asrwt>
<pdfrwt beam="1">  1        2 0.37066743E+00 0.84536574E+03</pdfrwt>
<pdfrwt beam="2">  1       -2 0.84919407E-01 0.84536574E+03</pdfrwt>
<totfact> 0.48869577E+00</totfact>
</mgrwt>
</event>
<event>
 4    1  0.4639964E-008  0.2903314E+03  0.7818608E-02  0.1090176E+00
         -2   -1    0    0    0  501 -0.00000000000E+00  0.00000000000E+00  0.93173992424E+03  0.93173992424E+03  0.25500000000E-02 0.  1.
          2   -1    0    0  501    0  0.00000000000E+00 -0.00000000000E+00 -0.37773121775E+03  0.37773121776E+03  0.25500000000E-02 0. -1.
    8880022    1    1    2    0    0 -0.23938333349E+03  0.59968913074E+02  0.84797632002E+03  0.89630136853E+03  0.15294330000E+03 0.  1.
    8880022    1    1    2    0    0  0.23938333349E+03 -0.59968913074E+02 -0.29396761354E+03  0.41316977347E+03  0.15294330000E+03 0.  0.
<mgrwt>
<rscale>  0 0.29033137E+03</rscale>
<asrwt>0</asrwt>
<pdfrwt beam="1">  1        2 0.58112495E-01 0.29033137E+03</pdfrwt>
<pdfrwt beam="2">  1       -2 0.14334460E+00 0.29033137E+03</pdfrwt>
<totfact> 0.30527714E+01</totfact>
</mgrwt>
</event>
<event>
 4    1  0.4639964E-008  0.6402481E+03  0.7818608E-02  0.9825252E-01
          2   -1    0    0  501    0  0.00000000000E+00  0.00000000000E+00  0.21528111979E+04  0.21528111979E+04  0.25500000000E-02 0. -1.
         -2   -1    0    0    0  501 -0.00000000000E+00 -0.00000000000E+00 -0.22905405581E+03  0.22905405582E+03  0.25500000000E-02 0.  1.
    8880022    1    1    2    0    0  0.10624789576E+03 -0.61256625085E+03  0.47271151389E+03  0.79584788460E+03  0.15294330000E+03 0.  0.
    8880022    1    1    2    0    0 -0.10624789576E+03  0.61256625085E+03  0.14510456282E+04  0.15860173692E+04  0.15294330000E+03 0.  0.
<mgrwt>
<rscale>  0 0.64024814E+03</rscale>
<asrwt>0</asrwt>
<pdfrwt beam="1">  1        2 0.33120173E+00 0.64024814E+03</pdfrwt>
<pdfrwt beam="2">  1       -2 0.35239085E-01 0.64024814E+03</pdfrwt>
<totfact> 0.43558095E+01</totfact>
</mgrwt>
</event>
<event>
 4    1  0.4639964E-008  0.5867332E+03  0.7818608E-02  0.9933319E-01
         -2   -1    0    0    0  501 -0.00000000000E+00  0.00000000000E+00  0.18918629279E+04  0.18918629279E+04  0.25500000000E-02 0.  1.
          2   -1    0    0  501    0  0.00000000000E+00 -0.00000000000E+00 -0.28942647351E+03  0.28942647352E+03  0.25500000000E-02 0. -1.
    8880022    1    1    2    0    0 -0.53195910544E+03  0.19463724250E+03  0.14657831272E+04  0.15788527402E+04  0.15294330000E+03 0.  0.
    8880022    1    1    2    0    0  0.53195910544E+03 -0.19463724250E+03  0.13665332721E+03  0.60243666130E+03  0.15294330000E+03 0.  0.
<mgrwt>
<rscale>  0 0.58673316E+03</rscale>
<asrwt>0</asrwt>
<pdfrwt beam="1">  1        2 0.44527148E-01 0.58673316E+03</pdfrwt>
<pdfrwt beam="2">  1       -2 0.29105585E+00 0.58673316E+03</pdfrwt>
<totfact> 0.43773830E+00</totfact>
</mgrwt>
</event>
<event>
 4    1  0.4639964E-008  0.3678201E+03  0.7818608E-02  0.1055530E+00
          2   -1    0    0  501    0  0.00000000000E+00  0.00000000000E+00  0.17242344127E+04  0.17242344127E+04  0.25500000000E-02 0. -1.
         -2   -1    0    0    0  501 -0.00000000000E+00 -0.00000000000E+00 -0.13484136680E+03  0.13484136683E+03  0.25500000000E-02 0.  1.
    8880022    1    1    2    0    0 -0.26529872682E+03  0.20375620015E+03  0.19365434126E+03  0.41568456846E+03  0.15294330000E+03 0.  0.
    8880022    1    1    2    0    0  0.26529872682E+03 -0.20375620015E+03  0.13957387047E+04  0.14433912111E+04  0.15294330000E+03 0. -1.
<mgrwt>
<rscale>  0 0.36782014E+03</rscale>
<asrwt>0</asrwt>
<pdfrwt beam="1">  1        2 0.26526684E+00 0.36782014E+03</pdfrwt>
<pdfrwt beam="2">  1       -2 0.20744825E-01 0.36782014E+03</pdfrwt>
<totfact> 0.20240656E+02</totfact>
</mgrwt>
</event>
<event>
 4    1  0.4639964E-008  0.5041519E+03  0.7818608E-02  0.1012701E+00
          2   -1    0    0  501    0  0.00000000000E+00  0.00000000000E+00  0.25885124677E+04  0.25885124677E+04  0.25500000000E-02 0. -1.
         -2   -1    0    0    0  501 -0.00000000000E+00 -0.00000000000E+00 -0.99470582159E+02  0.99470582192E+02  0.25500000000E-02 0.  1.
    8880022    1    1    2    0    0  0.47690717746E+03  0.57766858801E+02  0.13969441470E+04  0.14851336871E+04  0.15294330000E+03 0.  1.
    8880022    1    1    2    0    0 -0.47690717746E+03 -0.57766858801E+02  0.10920977386E+04  0.12028493628E+04  0.15294330000E+03 0. -1.
<mgrwt>
<rscale>  0 0.50415188E+03</rscale>
<asrwt>0</asrwt>
<pdfrwt beam="1">  1        2 0.39823271E+00 0.50415188E+03</pdfrwt>
<pdfrwt beam="2">  1       -2 0.15303166E-01 0.50415188E+03</pdfrwt>
<totfact> 0.11283886E+02</totfact>
</mgrwt>
</event>
<event>
 4    1  0.4639964E-008  0.1772302E+04  0.7818608E-02  0.8721169E-01
          2   -1    0    0  501    0  0.00000000000E+00  0.00000000000E+00  0.29120240241E+04  0.29120240241E+04  0.25500000000E-02 0. -1.
         -2   -1    0    0    0  501 -0.00000000000E+00 -0.00000000000E+00 -0.12181703942E+04  0.12181703942E+04  0.25500000000E-02 0.  1.
    8880022    1    1    2    0    0  0.12568797190E+04 -0.12401270527E+04  0.15458123235E+04  0.23517204611E+04  0.15294330000E+03 0.  0.
    8880022    1    1    2    0    0 -0.12568797190E+04  0.12401270527E+04  0.14804130632E+03  0.17784739572E+04  0.15294330000E+03 0.  0.
<mgrwt>
<rscale>  0 0.17723017E+04</rscale>
<asrwt>0</asrwt>
<pdfrwt beam="1">  1        2 0.44800369E+00 0.17723017E+04</pdfrwt>
<pdfrwt beam="2">  1       -2 0.18741083E+00 0.17723017E+04</pdfrwt>
<totfact> 0.29169142E-01</totfact>
</mgrwt>
</event>
<event>
 4    1  0.4639964E-008  0.4278681E+03  0.7818608E-02  0.1034536E+00
         -2   -1    0    0    0  501 -0.00000000000E+00  0.00000000000E+00  0.22873541668E+03  0.22873541670E+03  0.25500000000E-02 0.  1.
          2   -1    0    0  501    0  0.00000000000E+00 -0.00000000000E+00 -0.18389053779E+04  0.18389053779E+04  0.25500000000E-02 0. -1.
    8880022    1    1    2    0    0  0.29542891545E+03 -0.26907468464E+03 -0.28162347135E+02  0.42879389082E+03  0.15294330000E+03 0.  0.
    8880022    1    1    2    0    0 -0.29542891545E+03  0.26907468464E+03 -0.15820076141E+04  0.16388469038E+04  0.15294330000E+03 0.  0.
<mgrwt>
<rscale>  0 0.42786807E+03</rscale>
<asrwt>0</asrwt>
<pdfrwt beam="1">  1        2 0.28290851E+00 0.42786807E+03</pdfrwt>
<pdfrwt beam="2">  1       -2 0.35190065E-01 0.42786807E+03</pdfrwt>
<totfact> 0.66887608E+01</totfact>
</mgrwt>
</event>
<event>
 4    1  0.4639964E-008  0.2548691E+03  0.7818608E-02  0.1110266E+00
         -2   -1    0    0    0  501 -0.00000000000E+00  0.00000000000E+00  0.23744695925E+03  0.23744695926E+03  0.25500000000E-02 0.  1.
          2   -1    0    0  501    0  0.00000000000E+00 -0.00000000000E+00 -0.21512012706E+04  0.21512012706E+04  0.25500000000E-02 0. -1.
    8880022    1    1    2    0    0 -0.13897537195E+03  0.14917257416E+03 -0.20726785051E+04  0.20882898384E+04  0.15294330000E+03 0. -1.
    8880022    1    1    2    0    0  0.13897537195E+03 -0.14917257416E+03  0.15892419378E+03  0.30035839138E+03  0.15294330000E+03 0.  0.
<mgrwt>
<rscale>  0 0.25486911E+03</rscale>
<asrwt>0</asrwt>
<pdfrwt beam="1">  1        2 0.33095403E+00 0.25486911E+03</pdfrwt>
<pdfrwt beam="2">  1       -2 0.36530303E-01 0.25486911E+03</pdfrwt>
<totfact> 0.44620250E+01</totfact>
</mgrwt>
</event>
<event>
 4    1  0.4639964E-008  0.3156897E+03  0.7818608E-02  0.1077650E+00
          2   -1    0    0  501    0  0.00000000000E+00  0.00000000000E+00  0.14427847172E+04  0.14427847172E+04  0.25500000000E-02 0. -1.
         -2   -1    0    0    0  501 -0.00000000000E+00 -0.00000000000E+00 -0.11358288558E+03  0.11358288561E+03  0.25500000000E-02 0.  1.
    8880022    1    1    2    0    0  0.24655964627E+03 -0.12440531889E+03  0.11517315391E+04  0.11942133535E+04  0.15294330000E+03 0.  0.
    8880022    1    1    2    0    0 -0.24655964627E+03  0.12440531889E+03  0.17747029251E+03  0.36215424929E+03  0.15294330000E+03 0.  0.
<mgrwt>
<rscale>  0 0.31568971E+03</rscale>
<asrwt>0</asrwt>
<pdfrwt beam="1">  1        2 0.22196688E+00 0.31568971E+03</pdfrwt>
<pdfrwt beam="2">  1       -2 0.17474290E-01 0.31568971E+03</pdfrwt>
<totfact> 0.38772789E+02</totfact>
</mgrwt>
</event>
<event>
 4    1  0.4639964E-008  0.8539450E+03  0.7818608E-02  0.9485057E-01
         -2   -1    0    0    0  501 -0.00000000000E+00  0.00000000000E+00  0.79554125981E+03  0.79554125982E+03  0.25500000000E-02 0.  1.
          2   -1    0    0  501    0  0.00000000000E+00 -0.00000000000E+00 -0.98434278945E+03  0.98434278946E+03  0.25500000000E-02 0. -1.
    8880022    1    1    2    0    0  0.11866326724E+03 -0.83171479056E+03 -0.32780202571E+03  0.91470010654E+03  0.15294330000E+03 0.  0.
    8880022    1    1    2    0    0 -0.11866326724E+03  0.83171479056E+03  0.13900049608E+03  0.86518394273E+03  0.15294330000E+03 0.  0.
<mgrwt>
<rscale>  0 0.85394503E+03</rscale>
<asrwt>0</asrwt>
<pdfrwt beam="1">  1        2 0.15143735E+00 0.85394503E+03</pdfrwt>
<pdfrwt beam="2">  1       -2 0.12239096E+00 0.85394503E+03</pdfrwt>
<totfact> 0.13107757E+01</totfact>
</mgrwt>
</event>
<event>
 4    1  0.4639964E-008  0.9991952E+03  0.7818608E-02  0.9309428E-01
         -2   -1    0    0    0  501 -0.00000000000E+00  0.00000000000E+00  0.38768486142E+03  0.38768486143E+03  0.25500000000E-02 0.  1.
          2   -1    0    0  501    0  0.00000000000E+00 -0.00000000000E+00 -0.26802738162E+04  0.26802738162E+04  0.25500000000E-02 0. -1.
    8880022    1    1    2    0    0 -0.66846758729E+03  0.72673961894E+03 -0.84266499181E+03  0.13070865811E+04  0.15294330000E+03 0.  1.
    8880022    1    1    2    0    0  0.66846758729E+03 -0.72673961894E+03 -0.14499239629E+04  0.17608720965E+04  0.15294330000E+03 0. -1.
<mgrwt>
<rscale>  0 0.99919520E+03</rscale>
<asrwt>0</asrwt>
<pdfrwt beam="1">  1        2 0.41234981E+00 0.99919520E+03</pdfrwt>
<pdfrwt beam="2">  1       -2 0.59643826E-01 0.99919520E+03</pdfrwt>
<totfact> 0.72667841E+00</totfact>
</mgrwt>
</event>
<event>
 4    1  0.4639964E-008  0.5746455E+03  0.7818608E-02  0.9959451E-01
         -2   -1    0    0    0  501 -0.00000000000E+00  0.00000000000E+00  0.22136105976E+04  0.22136105976E+04  0.25500000000E-02 0.  1.
          2   -1    0    0  501    0  0.00000000000E+00 -0.00000000000E+00 -0.25511476768E+03  0.25511476769E+03  0.25500000000E-02 0. -1.
    8880022    1    1    2    0    0 -0.29062977410E+03  0.47155077402E+03  0.17746789959E+04  0.18653962018E+04  0.15294330000E+03 0.  0.
    8880022    1    1    2    0    0  0.29062977410E+03 -0.47155077402E+03  0.18381683401E+03  0.60332916352E+03  0.15294330000E+03 0.  0.
<mgrwt>
<rscale>  0 0.57464550E+03</rscale>
<asrwt>0</asrwt>
<pdfrwt beam="1">  1        2 0.39248427E-01 0.57464550E+03</pdfrwt>
<pdfrwt beam="2">  1       -2 0.34055547E+00 0.57464550E+03</pdfrwt>
<totfact> 0.25367186E+00</totfact>
</mgrwt>
</event>
<event>
 4    1  0.4639964E-008  0.2924897E+03  0.7818608E-02  0.1089056E+00
         -2   -1    0    0    0  501 -0.00000000000E+00  0.00000000000E+00  0.41761293668E+02  0.41761293746E+02  0.25500000000E-02 0.  1.
          2   -1    0    0  501    0  0.00000000000E+00 -0.00000000000E+00 -0.29831793108E+04  0.29831793108E+04  0.25500000000E-02 0. -1.
    8880022    1    1    2    0    0  0.63261743217E+02 -0.24115659270E+03 -0.23172856672E+04  0.23356718662E+04  0.15294330000E+03 0.  0.
    8880022    1    1    2    0    0 -0.63261743217E+02  0.24115659270E+03 -0.62413235001E+03  0.68926873837E+03  0.15294330000E+03 0.  1.
<mgrwt>
<rscale>  0 0.29248966E+03</rscale>
<asrwt>0</asrwt>
<pdfrwt beam="1">  1        2 0.45895050E+00 0.29248966E+03</pdfrwt>
<pdfrwt beam="2">  1       -2 0.64248167E-02 0.29248966E+03</pdfrwt>
<totfact> 0.28239001E+02</totfact>
</mgrwt>
</event>
<event>
 4    1  0.4639964E-008  0.2454909E+03  0.7818608E-02  0.1116188E+00
          2   -1    0    0  501    0  0.00000000000E+00  0.00000000000E+00  0.18683925803E+04  0.18683925803E+04  0.25500000000E-02 0. -1.
         -2   -1    0    0    0  501 -0.00000000000E+00 -0.00000000000E+00 -0.11293343004E+03  0.11293343007E+03  0.25500000000E-02 0.  1.
    8880022    1    1    2    0    0 -0.18826011465E+03 -0.37844980710E+02  0.17150511950E+04  0.17325317797E+04  0.15294330000E+03 0. -1.
    8880022    1    1    2    0    0  0.18826011465E+03  0.37844980710E+02  0.40407955265E+02  0.24879423063E+03  0.15294330000E+03 0.  0.
<mgrwt>
<rscale>  0 0.24549087E+03</rscale>
<asrwt>0</asrwt>
<pdfrwt beam="1">  1        2 0.28744501E+00 0.24549087E+03</pdfrwt>
<pdfrwt beam="2">  1       -2 0.17374374E-01 0.24549087E+03</pdfrwt>
<totfact> 0.23572783E+02</totfact>
</mgrwt>
</event>
<event>
 4    1  0.4639964E-008  0.3869220E+03  0.7818608E-02  0.1048405E+00
         -2   -1    0    0    0  501 -0.00000000000E+00  0.00000000000E+00  0.93104177208E+02  0.93104177243E+02  0.25500000000E-02 0.  1.
          2   -1    0    0  501    0  0.00000000000E+00 -0.00000000000E+00 -0.24545270086E+04  0.24545270086E+04  0.25500000000E-02 0. -1.
    8880022    1    1    2    0    0 -0.23042940421E+03  0.27059063285E+03 -0.19287964225E+04  0.19672224820E+04  0.15294330000E+03 0.  0.
    8880022    1    1    2    0    0  0.23042940421E+03 -0.27059063285E+03 -0.43262640889E+03  0.58040870393E+03  0.15294330000E+03 0. -1.
<mgrwt>
<rscale>  0 0.38692203E+03</rscale>
<asrwt>0</asrwt>
<pdfrwt beam="1">  1        2 0.37761949E+00 0.38692203E+03</pdfrwt>
<pdfrwt beam="2">  1       -2 0.14323721E-01 0.38692203E+03</pdfrwt>
<totfact> 0.15317876E+02</totfact>
</mgrwt>
</event>
<event>
 4    1  0.4639964E-008  0.5737642E+03  0.7818608E-02  0.9961384E-01
         -2   -1    0    0    0  501 -0.00000000000E+00  0.00000000000E+00  0.26933660909E+03  0.26933660911E+03  0.25500000000E-02 0.  1.
          2   -1    0    0  501    0  0.00000000000E+00 -0.00000000000E+00 -0.22235666219E+04  0.22235666219E+04  0.25500000000E-02 0. -1.
    8880022    1    1    2    0    0  0.54732093598E+03  0.79078725270E+02 -0.14068594788E+03  0.59076039195E+03  0.15294330000E+03 0.  1.
    8880022    1    1    2    0    0 -0.54732093598E+03 -0.79078725270E+02 -0.18135440649E+04  0.19021428391E+04  0.15294330000E+03 0.  0.
<mgrwt>
<rscale>  0 0.57376415E+03</rscale>
<asrwt>0</asrwt>
<pdfrwt beam="1">  1        2 0.34208716E+00 0.57376415E+03</pdfrwt>
<pdfrwt beam="2">  1       -2 0.41436403E-01 0.57376415E+03</pdfrwt>
<totfact> 0.29477476E+01</totfact>
</mgrwt>
</event>
<event>
 4    1  0.4639964E-008  0.6419790E+03  0.7818608E-02  0.9821948E-01
          2   -1    0    0  501    0  0.00000000000E+00  0.00000000000E+00  0.32342737777E+04  0.32342737777E+04  0.25500000000E-02 0. -1.
         -2   -1    0    0    0  501 -0.00000000000E+00 -0.00000000000E+00 -0.13992296403E+03  0.13992296405E+03  0.25500000000E-02 0.  1.
    8880022    1    1    2    0    0 -0.16922750993E+03 -0.60008950690E+03  0.20513297561E+04  0.21494396450E+04  0.15294330000E+03 0.  0.
    8880022    1    1    2    0    0  0.16922750993E+03  0.60008950690E+03  0.10430210576E+04  0.12247570967E+04  0.15294330000E+03 0.  0.
<mgrwt>
<rscale>  0 0.64197899E+03</rscale>
<asrwt>0</asrwt>
<pdfrwt beam="1">  1        2 0.49758056E+00 0.64197899E+03</pdfrwt>
<pdfrwt beam="2">  1       -2 0.21526611E-01 0.64197899E+03</pdfrwt>
<totfact> 0.25084834E+01</totfact>
</mgrwt>
</event>
<event>
 4    1  0.4639964E-008  0.8162752E+03  0.7818608E-02  0.9536754E-01
         -2   -1    0    0    0  501 -0.00000000000E+00  0.00000000000E+00  0.65462472733E+03  0.65462472734E+03  0.25500000000E-02 0.  1.
          2   -1    0    0  501    0  0.00000000000E+00 -0.00000000000E+00 -0.18796872998E+04  0.18796872998E+04  0.25500000000E-02 0. -1.
    8880022    1    1    2    0    0  0.79696582350E+03  0.88085314877E+02 -0.14705597418E+04  0.16819188904E+04  0.15294330000E+03 0.  0.
    8880022    1    1    2    0    0 -0.79696582350E+03 -0.88085314877E+02  0.24549716931E+03  0.85239313681E+03  0.15294330000E+03 0.  0.
<mgrwt>
<rscale>  0 0.81627520E+03</rscale>
<asrwt>0</asrwt>
<pdfrwt beam="1">  1        2 0.28918266E+00 0.81627520E+03</pdfrwt>
<pdfrwt beam="2">  1       -2 0.10071150E+00 0.81627520E+03</pdfrwt>
<totfact> 0.64739185E+00</totfact>
</mgrwt>
</event>
<event>
 4    1  0.4639964E-008  0.1893872E+03  0.7818608E-02  0.1159015E+00
         -2   -1    0    0    0  501 -0.00000000000E+00  0.00000000000E+00  0.22708938754E+03  0.22708938755E+03  0.25500000000E-02 0.  1.
          2   -1    0    0  501    0  0.00000000000E+00 -0.00000000000E+00 -0.17036396321E+03  0.17036396323E+03  0.25500000000E-02 0. -1.
    8880022    1    1    2    0    0  0.13969083925E+02  0.11081839312E+03  0.82018908531E+02  0.20638460682E+03  0.15294330000E+03 0.  0.
    8880022    1    1    2    0    0 -0.13969083925E+02 -0.11081839312E+03 -0.25293484202E+02  0.19106874396E+03  0.15294330000E+03 0.  0.
<mgrwt>
<rscale>  0 0.18938718E+03</rscale>
<asrwt>0</asrwt>
<pdfrwt beam="1">  1        2 0.26209840E-01 0.18938718E+03</pdfrwt>
<pdfrwt beam="2">  1       -2 0.34936829E-01 0.18938718E+03</pdfrwt>
<totfact> 0.15540059E+03</totfact>
</mgrwt>
</event>
<event>
 4    1  0.4639964E-008  0.2817069E+03  0.7818608E-02  0.1094760E+00
         -2   -1    0    0    0  501 -0.00000000000E+00  0.00000000000E+00  0.34631198610E+03  0.34631198611E+03  0.25500000000E-02 0.  1.
          2   -1    0    0  501    0  0.00000000000E+00 -0.00000000000E+00 -0.23835317119E+04  0.23835317119E+04  0.25500000000E-02 0. -1.
    8880022    1    1    2    0    0  0.84366447517E+02 -0.22101910288E+03  0.27904212755E+03  0.39651393830E+03  0.15294330000E+03 0.  0.
    8880022    1    1    2    0    0 -0.84366447517E+02  0.22101910288E+03 -0.23162618533E+04  0.23333297597E+04  0.15294330000E+03 0.  0.
<mgrwt>
<rscale>  0 0.28170693E+03</rscale>
<asrwt>0</asrwt>
<pdfrwt beam="1">  1        2 0.36669718E+00 0.28170693E+03</pdfrwt>
<pdfrwt beam="2">  1       -2 0.53278769E-01 0.28170693E+03</pdfrwt>
<totfact> 0.15849783E+01</totfact>
</mgrwt>
</event>
<event>
 4    1  0.4639964E-008  0.3630567E+03  0.7818608E-02  0.1057380E+00
         -2   -1    0    0    0  501 -0.00000000000E+00  0.00000000000E+00  0.11861451926E+03  0.11861451928E+03  0.25500000000E-02 0.  1.
          2   -1    0    0  501    0  0.00000000000E+00 -0.00000000000E+00 -0.20472116288E+04  0.20472116288E+04  0.25500000000E-02 0. -1.
    8880022    1    1    2    0    0 -0.32808715225E+03  0.27880625527E+02 -0.16965187199E+04  0.17349311020E+04  0.15294330000E+03 0. -1.
    8880022    1    1    2    0    0  0.32808715225E+03 -0.27880625527E+02 -0.23207838958E+03  0.43089504601E+03  0.15294330000E+03 0.  0.
<mgrwt>
<rscale>  0 0.36305669E+03</rscale>
<asrwt>0</asrwt>
<pdfrwt beam="1">  1        2 0.31495561E+00 0.36305669E+03</pdfrwt>
<pdfrwt beam="2">  1       -2 0.18248389E-01 0.36305669E+03</pdfrwt>
<totfact> 0.17008019E+02</totfact>
</mgrwt>
</event>
<event>
 4    1  0.4996094E-008  0.8046157E+03  0.7818608E-02  0.9553360E-01
          2   -1    0    0  501    0  0.00000000000E+00  0.00000000000E+00  0.22432035216E+04  0.22432035216E+04  0.25500000000E-02 0. -1.
         -2   -1    0    0    0  501 -0.00000000000E+00 -0.00000000000E+00 -0.11818747339E+04  0.11818747339E+04  0.25500000000E-02 0.  1.
    8880022    1    1    2    0    0 -0.21441841584E+03 -0.76028913960E+03  0.20194952421E+04  0.21738830508E+04  0.15294330000E+03 0.  0.
    8880022    1    1    2    0    0  0.21441841584E+03  0.76028913960E+03 -0.95816645441E+03  0.12511952047E+04  0.15294330000E+03 0.  0.
<mgrwt>
<rscale>  0 0.80461574E+03</rscale>
<asrwt>0</asrwt>
<pdfrwt beam="1">  1        2 0.34510823E+00 0.80461574E+03</pdfrwt>
<pdfrwt beam="2">  1       -2 0.18182688E+00 0.80461574E+03</pdfrwt>
<totfact> 0.89112427E-01</totfact>
</mgrwt>
</event>
<event>
 4    1  0.4639964E-008  0.2931626E+03  0.7818608E-02  0.1088709E+00
          2   -1    0    0  501    0  0.00000000000E+00  0.00000000000E+00  0.34277212246E+04  0.34277212246E+04  0.25500000000E-02 0. -1.
         -2   -1    0    0    0  501 -0.00000000000E+00 -0.00000000000E+00 -0.84430894915E+02  0.84430894954E+02  0.25500000000E-02 0.  1.
    8880022    1    1    2    0    0  0.19496856426E+03  0.15665216627E+03  0.19922837738E+03  0.35445203006E+03  0.15294330000E+03 0.  1.
    8880022    1    1    2    0    0 -0.19496856426E+03 -0.15665216627E+03  0.31440619523E+04  0.31577000895E+04  0.15294330000E+03 0.  0.
<mgrwt>
<rscale>  0 0.29316257E+03</rscale>
<asrwt>0</asrwt>
<pdfrwt beam="1">  1        2 0.52734176E+00 0.29316257E+03</pdfrwt>
<pdfrwt beam="2">  1       -2 0.12989368E-01 0.29316257E+03</pdfrwt>
<totfact> 0.48867712E+01</totfact>
</mgrwt>
</event>
<event>
 4    1  0.4639964E-008  0.2631592E+03  0.7818608E-02  0.1105260E+00
          2   -1    0    0  501    0  0.00000000000E+00  0.00000000000E+00  0.14860422163E+04  0.14860422163E+04  0.25500000000E-02 0. -1.
         -2   -1    0    0    0  501 -0.00000000000E+00 -0.00000000000E+00 -0.23503288387E+03  0.23503288389E+03  0.25500000000E-02 0.  1.
    8880022    1    1    2    0    0  0.12680467633E+03  0.17257377823E+03 -0.14501080078E+03  0.30046783560E+03  0.15294330000E+03 0.  0.
    8880022    1    1    2    0    0 -0.12680467633E+03 -0.17257377823E+03  0.13960201332E+04  0.14206072645E+04  0.15294330000E+03 0. -1.
<mgrwt>
<rscale>  0 0.26315924E+03</rscale>
<asrwt>0</asrwt>
<pdfrwt beam="1">  1        2 0.22862188E+00 0.26315924E+03</pdfrwt>
<pdfrwt beam="2">  1       -2 0.36158905E-01 0.26315924E+03</pdfrwt>
<totfact> 0.10173530E+02</totfact>
</mgrwt>
</event>
<event>
 4    1  0.4639964E-008  0.5590802E+03  0.7818608E-02  0.9994138E-01
          2   -1    0    0  501    0  0.00000000000E+00  0.00000000000E+00  0.74121558485E+03  0.74121558485E+03  0.25500000000E-02 0. -1.
         -2   -1    0    0    0  501 -0.00000000000E+00 -0.00000000000E+00 -0.90128876620E+03  0.90128876621E+03  0.25500000000E-02 0.  1.
    8880022    1    1    2    0    0  0.51316979732E+03 -0.16073511246E+03  0.51903540627E+03  0.76286854912E+03  0.15294330000E+03 0.  0.
    8880022    1    1    2    0    0 -0.51316979732E+03  0.16073511246E+03 -0.67910858762E+03  0.87963580194E+03  0.15294330000E+03 0.  1.
<mgrwt>
<rscale>  0 0.55908020E+03</rscale>
<asrwt>0</asrwt>
<pdfrwt beam="1">  1        2 0.11403317E+00 0.55908020E+03</pdfrwt>
<pdfrwt beam="2">  1       -2 0.13865981E+00 0.55908020E+03</pdfrwt>
<totfact> 0.14557433E+01</totfact>
</mgrwt>
</event>
<event>
 4    1  0.4639964E-008  0.3696410E+03  0.7818608E-02  0.1054830E+00
          2   -1    0    0  501    0  0.00000000000E+00  0.00000000000E+00  0.80025925524E+03  0.80025925525E+03  0.25500000000E-02 0. -1.
         -2   -1    0    0    0  501 -0.00000000000E+00 -0.00000000000E+00 -0.36551016188E+03  0.36551016189E+03  0.25500000000E-02 0.  1.
    8880022    1    1    2    0    0  0.10821412183E+03 -0.31864173387E+03  0.64287164326E+03  0.74156486800E+03  0.15294330000E+03 0.  0.
    8880022    1    1    2    0    0 -0.10821412183E+03  0.31864173387E+03 -0.20812254990E+03  0.42420454914E+03  0.15294330000E+03 0.  0.
<mgrwt>
<rscale>  0 0.36964105E+03</rscale>
<asrwt>0</asrwt>
<pdfrwt beam="1">  1        2 0.12311681E+00 0.36964105E+03</pdfrwt>
<pdfrwt beam="2">  1       -2 0.56232333E-01 0.36964105E+03</pdfrwt>
<totfact> 0.10703625E+02</totfact>
</mgrwt>
</event>
<event>
 4    1  0.4639964E-008  0.3897485E+03  0.7818608E-02  0.1047388E+00
         -2   -1    0    0    0  501 -0.00000000000E+00  0.00000000000E+00  0.12907445136E+04  0.12907445136E+04  0.25500000000E-02 0.  1.
          2   -1    0    0  501    0  0.00000000000E+00 -0.00000000000E+00 -0.28097815592E+03  0.28097815594E+03  0.25500000000E-02 0. -1.
    8880022    1    1    2    0    0  0.34911416278E+03  0.81434433502E+02 -0.94205210974E+02  0.40097199454E+03  0.15294330000E+03 0.  0.
    8880022    1    1    2    0    0 -0.34911416278E+03 -0.81434433502E+02  0.11039715687E+04  0.11707506750E+04  0.15294330000E+03 0.  0.
<mgrwt>
<rscale>  0 0.38974853E+03</rscale>
<asrwt>0</asrwt>
<pdfrwt beam="1">  1        2 0.43227408E-01 0.38974853E+03</pdfrwt>
<pdfrwt beam="2">  1       -2 0.19857608E+00 0.38974853E+03</pdfrwt>
<totfact> 0.17035403E+01</totfact>
</mgrwt>
</event>
<event>
 4    1  0.4639964E-008  0.4592547E+03  0.7818608E-02  0.1024998E+00
         -2   -1    0    0    0  501 -0.00000000000E+00  0.00000000000E+00  0.70360677318E+03  0.70360677318E+03  0.25500000000E-02 0.  1.
          2   -1    0    0  501    0  0.00000000000E+00 -0.00000000000E+00 -0.67545272959E+03  0.67545272960E+03  0.25500000000E-02 0. -1.
    8880022    1    1    2    0    0  0.43051086703E+03 -0.46729535396E+02 -0.50016846959E+03  0.67903122689E+03  0.15294330000E+03 0.  0.
    8880022    1    1    2    0    0 -0.43051086703E+03  0.46729535396E+02  0.52832251317E+03  0.70002827589E+03  0.15294330000E+03 0.  0.
<mgrwt>
<rscale>  0 0.45925473E+03</rscale>
<asrwt>0</asrwt>
<pdfrwt beam="1">  1        2 0.10391580E+00 0.45925473E+03</pdfrwt>
<pdfrwt beam="2">  1       -2 0.10824720E+00 0.45925473E+03</pdfrwt>
<totfact> 0.30598448E+01</totfact>
</mgrwt>
</event>
<event>
 4    1  0.4639964E-008  0.4255353E+03  0.7818608E-02  0.1035280E+00
         -2   -1    0    0    0  501 -0.00000000000E+00  0.00000000000E+00  0.22622711264E+04  0.22622711264E+04  0.25500000000E-02 0.  1.
          2   -1    0    0  501    0  0.00000000000E+00 -0.00000000000E+00 -0.70113518978E+03  0.70113518979E+03  0.25500000000E-02 0. -1.
    8880022    1    1    2    0    0 -0.39704440945E+03 -0.66625832953E+01 -0.61399507293E+03  0.74704100000E+03  0.15294330000E+03 0.  0.
    8880022    1    1    2    0    0  0.39704440945E+03  0.66625832953E+01  0.21751310095E+04  0.22163653162E+04  0.15294330000E+03 0.  0.
<mgrwt>
<rscale>  0 0.42553532E+03</rscale>
<asrwt>0</asrwt>
<pdfrwt beam="1">  1        2 0.10786695E+00 0.42553532E+03</pdfrwt>
<pdfrwt beam="2">  1       -2 0.34804172E+00 0.42553532E+03</pdfrwt>
<totfact> 0.75110995E-01</totfact>
</mgrwt>
</event>
<event>
 4    1  0.4639964E-008  0.3089349E+03  0.7818608E-02  0.1080858E+00
          2   -1    0    0  501    0  0.00000000000E+00  0.00000000000E+00  0.84607589772E+03  0.84607589773E+03  0.25500000000E-02 0. -1.
         -2   -1    0    0    0  501 -0.00000000000E+00 -0.00000000000E+00 -0.53713058321E+03  0.53713058321E+03  0.25500000000E-02 0.  1.
    8880022    1    1    2    0    0  0.26707045041E+03 -0.26879014970E+02  0.76917828676E+03  0.82890047458E+03  0.15294330000E+03 0.  0.
    8880022    1    1    2    0    0 -0.26707045041E+03  0.26879014970E+02 -0.46023297224E+03  0.55430600636E+03  0.15294330000E+03 0.  0.
<mgrwt>
<rscale>  0 0.30893488E+03</rscale>
<asrwt>0</asrwt>
<pdfrwt beam="1">  1        2 0.13016552E+00 0.30893488E+03</pdfrwt>
<pdfrwt beam="2">  1       -2 0.82635475E-01 0.30893488E+03</pdfrwt>
<totfact> 0.44009739E+01</totfact>
</mgrwt>
</event>
<event>
 4    1  0.4639964E-008  0.7416063E+03  0.7818608E-02  0.9648611E-01
          2   -1    0    0  501    0  0.00000000000E+00  0.00000000000E+00  0.34944861745E+04  0.34944861745E+04  0.25500000000E-02 0. -1.
         -2   -1    0    0    0  501 -0.00000000000E+00 -0.00000000000E+00 -0.22032832276E+03  0.22032832277E+03  0.25500000000E-02 0.  1.
    8880022    1    1    2    0    0  0.72119002736E+03 -0.80456468460E+02  0.26298441653E+04  0.27324092457E+04  0.15294330000E+03 0.  0.
    8880022    1    1    2    0    0 -0.72119002736E+03  0.80456468460E+02  0.64431368644E+03  0.98240525163E+03  0.15294330000E+03 0.  0.
<mgrwt>
<rscale>  0 0.74160633E+03</rscale>
<asrwt>0</asrwt>
<pdfrwt beam="1">  1        2 0.53761329E+00 0.74160633E+03</pdfrwt>
<pdfrwt beam="2">  1       -2 0.33896663E-01 0.74160633E+03</pdfrwt>
<totfact> 0.72359375E+00</totfact>
</mgrwt>
</event>
<event>
 4    1  0.4639964E-008  0.1231517E+04  0.7818608E-02  0.9085708E-01
         -2   -1    0    0    0  501 -0.00000000000E+00  0.00000000000E+00  0.55590676753E+03  0.55590676754E+03  0.25500000000E-02 0.  1.
          2   -1    0    0  501    0  0.00000000000E+00 -0.00000000000E+00 -0.32456201604E+04  0.32456201604E+04  0.25500000000E-02 0. -1.
    8880022    1    1    2    0    0 -0.12159530128E+04 -0.12124760426E+03 -0.58594068644E+03  0.13638038173E+04  0.15294330000E+03 0.  0.
    8880022    1    1    2    0    0  0.12159530128E+04  0.12124760426E+03 -0.21037727064E+04  0.24377231106E+04  0.15294330000E+03 0.  0.
<mgrwt>
<rscale>  0 0.12315171E+04</rscale>
<asrwt>0</asrwt>
<pdfrwt beam="1">  1        2 0.49932617E+00 0.12315171E+04</pdfrwt>
<pdfrwt beam="2">  1       -2 0.85524120E-01 0.12315171E+04</pdfrwt>
<totfact> 0.14279920E+00</totfact>
</mgrwt>
</event>
<event>
 4    1  0.4639964E-008  0.1156026E+04  0.7818608E-02  0.9152242E-01
          2   -1    0    0  501    0  0.00000000000E+00  0.00000000000E+00  0.14974327520E+04  0.14974327520E+04  0.25500000000E-02 0. -1.
         -2   -1    0    0    0  501 -0.00000000000E+00 -0.00000000000E+00 -0.11264806414E+04  0.11264806414E+04  0.25500000000E-02 0.  1.
    8880022    1    1    2    0    0 -0.10183480259E+04 -0.52533111790E+03 -0.41250271765E+03  0.12274182784E+04  0.15294330000E+03 0.  0.
    8880022    1    1    2    0    0  0.10183480259E+04  0.52533111790E+03  0.78345482825E+03  0.13964951150E+04  0.15294330000E+03 0.  0.
<mgrwt>
<rscale>  0 0.11560264E+04</rscale>
<asrwt>0</asrwt>
<pdfrwt beam="1">  1        2 0.23037427E+00 0.11560264E+04</pdfrwt>
<pdfrwt beam="2">  1       -2 0.17330472E+00 0.11560264E+04</pdfrwt>
<totfact> 0.25081334E+00</totfact>
</mgrwt>
</event>
<event>
 4    1  0.4639964E-008  0.2048532E+03  0.7818608E-02  0.1145708E+00
          2   -1    0    0  501    0  0.00000000000E+00  0.00000000000E+00  0.30069288639E+04  0.30069288639E+04  0.25500000000E-02 0. -1.
         -2   -1    0    0    0  501 -0.00000000000E+00 -0.00000000000E+00 -0.59197613997E+02  0.59197614052E+02  0.25500000000E-02 0.  1.
    8880022    1    1    2    0    0  0.83039468095E+02 -0.10806310110E+03  0.13364348258E+03  0.24459235583E+03  0.15294330000E+03 0.  1.
    8880022    1    1    2    0    0 -0.83039468095E+02  0.10806310110E+03  0.28140877674E+04  0.28215341222E+04  0.15294330000E+03 0.  0.
<mgrwt>
<rscale>  0 0.20485322E+03</rscale>
<asrwt>0</asrwt>
<pdfrwt beam="1">  1        2 0.46260451E+00 0.20485322E+03</pdfrwt>
<pdfrwt beam="2">  1       -2 0.91073238E-02 0.20485322E+03</pdfrwt>
<totfact> 0.16339746E+02</totfact>
</mgrwt>
</event>
<event>
 4    1  0.4639964E-008  0.1760872E+03  0.7818608E-02  0.1171645E+00
         -2   -1    0    0    0  501 -0.00000000000E+00  0.00000000000E+00  0.43691890667E+02  0.43691890742E+02  0.25500000000E-02 0.  1.
          2   -1    0    0  501    0  0.00000000000E+00 -0.00000000000E+00 -0.18421424202E+04  0.18421424202E+04  0.25500000000E-02 0. -1.
    8880022    1    1    2    0    0 -0.58281837952E+02  0.64948134434E+02 -0.15991564106E+03  0.23786487355E+03  0.15294330000E+03 0.  0.
    8880022    1    1    2    0    0  0.58281837952E+02 -0.64948134434E+02 -0.16385348885E+04  0.16479694374E+04  0.15294330000E+03 0.  0.
<mgrwt>
<rscale>  0 0.17608715E+03</rscale>
<asrwt>0</asrwt>
<pdfrwt beam="1">  1        2 0.28340647E+00 0.17608715E+03</pdfrwt>
<pdfrwt beam="2">  1       -2 0.67218308E-02 0.17608715E+03</pdfrwt>
<totfact> 0.11289661E+03</totfact>
</mgrwt>
</event>
<event>
 4    1  0.4639964E-008  0.1010210E+04  0.7818608E-02  0.9297417E-01
         -2   -1    0    0    0  501 -0.00000000000E+00  0.00000000000E+00  0.98130046766E+03  0.98130046767E+03  0.25500000000E-02 0.  1.
          2   -1    0    0  501    0  0.00000000000E+00 -0.00000000000E+00 -0.22979898905E+04  0.22979898905E+04  0.25500000000E-02 0. -1.
    8880022    1    1    2    0    0 -0.90967106115E+03  0.41186326627E+03  0.55481876801E+03  0.11525399377E+04  0.15294330000E+03 0.  0.
    8880022    1    1    2    0    0  0.90967106115E+03 -0.41186326627E+03 -0.18715081908E+04  0.21267504205E+04  0.15294330000E+03 0.  0.
<mgrwt>
<rscale>  0 0.10102101E+04</rscale>
<asrwt>0</asrwt>
<pdfrwt beam="1">  1        2 0.35353690E+00 0.10102101E+04</pdfrwt>
<pdfrwt beam="2">  1       -2 0.15096930E+00 0.10102101E+04</pdfrwt>
<totfact> 0.13396832E+00</totfact>
</mgrwt>
</event>
<event>
 4    1  0.4639964E-008  0.6835398E+03  0.7818608E-02  0.9745803E-01
         -2   -1    0    0    0  501 -0.00000000000E+00  0.00000000000E+00  0.95380293931E+03  0.95380293931E+03  0.25500000000E-02 0.  1.
          2   -1    0    0  501    0  0.00000000000E+00 -0.00000000000E+00 -0.74818559268E+03  0.74818559268E+03  0.25500000000E-02 0. -1.
    8880022    1    1    2    0    0 -0.65885121559E+03  0.98742506417E+02 -0.39723569793E+03  0.79058387258E+03  0.15294330000E+03 0.  0.
    8880022    1    1    2    0    0  0.65885121559E+03 -0.98742506417E+02  0.60285304456E+03  0.91140465941E+03  0.15294330000E+03 0.  0.
<mgrwt>
<rscale>  0 0.68353980E+03</rscale>
<asrwt>0</asrwt>
<pdfrwt beam="1">  1        2 0.11510548E+00 0.68353980E+03</pdfrwt>
<pdfrwt beam="2">  1       -2 0.14673891E+00 0.68353980E+03</pdfrwt>
<totfact> 0.12221185E+01</totfact>
</mgrwt>
</event>
<event>
 4    1  0.4639964E-008  0.9004166E+03  0.7818608E-02  0.9425061E-01
          2   -1    0    0  501    0  0.00000000000E+00  0.00000000000E+00  0.83720866544E+03  0.83720866544E+03  0.25500000000E-02 0. -1.
         -2   -1    0    0    0  501 -0.00000000000E+00 -0.00000000000E+00 -0.12886900637E+04  0.12886900637E+04  0.25500000000E-02 0.  1.
    8880022    1    1    2    0    0  0.81816419592E+03 -0.34346146704E+03 -0.75566315942E+03  0.11754900656E+04  0.15294330000E+03 0.  0.
    8880022    1    1    2    0    0 -0.81816419592E+03  0.34346146704E+03  0.30418176118E+03  0.95040866351E+03  0.15294330000E+03 0.  0.
<mgrwt>
<rscale>  0 0.90041662E+03</rscale>
<asrwt>0</asrwt>
<pdfrwt beam="1">  1        2 0.12880133E+00 0.90041662E+03</pdfrwt>
<pdfrwt beam="2">  1       -2 0.19826001E+00 0.90041662E+03</pdfrwt>
<totfact> 0.44386844E+00</totfact>
</mgrwt>
</event>
<event>
 4    1  0.4639964E-008  0.4533992E+03  0.7818608E-02  0.1026713E+00
          2   -1    0    0  501    0  0.00000000000E+00  0.00000000000E+00  0.18596349440E+04  0.18596349440E+04  0.25500000000E-02 0. -1.
         -2   -1    0    0    0  501 -0.00000000000E+00 -0.00000000000E+00 -0.12998148452E+03  0.12998148455E+03  0.25500000000E-02 0.  1.
    8880022    1    1    2    0    0 -0.46022637820E+02 -0.42433606010E+03  0.48012636828E+03  0.66037274143E+03  0.15294330000E+03 0.  0.
    8880022    1    1    2    0    0  0.46022637820E+02  0.42433606010E+03  0.12495270912E+04  0.13292436871E+04  0.15294330000E+03 0.  0.
<mgrwt>
<rscale>  0 0.45339919E+03</rscale>
<asrwt>0</asrwt>
<pdfrwt beam="1">  1        2 0.28609769E+00 0.45339919E+03</pdfrwt>
<pdfrwt beam="2">  1       -2 0.19997151E-01 0.45339919E+03</pdfrwt>
<totfact> 0.18022218E+02</totfact>
</mgrwt>
</event>
<event>
 4    1  0.4639964E-008  0.5597354E+03  0.7818608E-02  0.9992654E-01
         -2   -1    0    0    0  501 -0.00000000000E+00  0.00000000000E+00  0.12425991400E+04  0.12425991400E+04  0.25500000000E-02 0.  1.
          2   -1    0    0  501    0  0.00000000000E+00 -0.00000000000E+00 -0.10115555844E+04  0.10115555844E+04  0.25500000000E-02 0. -1.
    8880022    1    1    2    0    0  0.41587481736E+03  0.34199439093E+03  0.10920837656E+04  0.12271718018E+04  0.15294330000E+03 0.  0.
    8880022    1    1    2    0    0 -0.41587481736E+03 -0.34199439093E+03 -0.86104020995E+03  0.10269829226E+04  0.15294330000E+03 0.  0.
<mgrwt>
<rscale>  0 0.55973537E+03</rscale>
<asrwt>0</asrwt>
<pdfrwt beam="1">  1        2 0.15562394E+00 0.55973537E+03</pdfrwt>
<pdfrwt beam="2">  1       -2 0.19116910E+00 0.55973537E+03</pdfrwt>
<totfact> 0.39813561E+00</totfact>
</mgrwt>
</event>
<event>
 4    1  0.4639964E-008  0.1527348E+04  0.7818608E-02  0.8866468E-01
         -2   -1    0    0    0  501 -0.00000000000E+00  0.00000000000E+00  0.10969588313E+04  0.10969588313E+04  0.25500000000E-02 0.  1.
          2   -1    0    0  501    0  0.00000000000E+00 -0.00000000000E+00 -0.22577541246E+04  0.22577541246E+04  0.25500000000E-02 0. -1.
    8880022    1    1    2    0    0  0.14334939268E+04  0.50447563086E+03 -0.17612088779E+03  0.15374689332E+04  0.15294330000E+03 0.  0.
    8880022    1    1    2    0    0 -0.14334939268E+04 -0.50447563086E+03 -0.98467440553E+03  0.18172440228E+04  0.15294330000E+03 0.  0.
<mgrwt>
<rscale>  0 0.15273481E+04</rscale>
<asrwt>0</asrwt>
<pdfrwt beam="1">  1        2 0.34734679E+00 0.15273481E+04</pdfrwt>
<pdfrwt beam="2">  1       -2 0.16876290E+00 0.15273481E+04</pdfrwt>
<totfact> 0.97888993E-01</totfact>
</mgrwt>
</event>
<event>
 4    1  0.4639964E-008  0.6179969E+03  0.7818608E-02  0.9868756E-01
          2   -1    0    0  501    0  0.00000000000E+00  0.00000000000E+00  0.11282120973E+04  0.11282120973E+04  0.25500000000E-02 0. -1.
         -2   -1    0    0    0  501 -0.00000000000E+00 -0.00000000000E+00 -0.82589309068E+03  0.82589309069E+03  0.25500000000E-02 0.  1.
    8880022    1    1    2    0    0  0.55365820155E+03 -0.22801552270E+03 -0.59940440512E+03  0.86093308487E+03  0.15294330000E+03 0.  0.
    8880022    1    1    2    0    0 -0.55365820155E+03  0.22801552270E+03  0.90172341172E+03  0.10931721031E+04  0.15294330000E+03 0.  0.
<mgrwt>
<rscale>  0 0.61799687E+03</rscale>
<asrwt>0</asrwt>
<pdfrwt beam="1">  1        2 0.17357109E+00 0.61799687E+03</pdfrwt>
<pdfrwt beam="2">  1       -2 0.12706048E+00 0.61799687E+03</pdfrwt>
<totfact> 0.99939637E+00</totfact>
</mgrwt>
</event>
<event>
 4    1  0.4639964E-008  0.4719949E+03  0.7818608E-02  0.1021359E+00
          2   -1    0    0  501    0  0.00000000000E+00  0.00000000000E+00  0.37890514419E+03  0.37890514420E+03  0.25500000000E-02 0. -1.
         -2   -1    0    0    0  501 -0.00000000000E+00 -0.00000000000E+00 -0.69400547952E+03  0.69400547953E+03  0.25500000000E-02 0.  1.
    8880022    1    1    2    0    0 -0.20048684391E+03 -0.39898946884E+03 -0.36725486056E+03  0.59804293863E+03  0.15294330000E+03 0.  0.
    8880022    1    1    2    0    0  0.20048684391E+03  0.39898946884E+03  0.52154525224E+02  0.47486768509E+03  0.15294330000E+03 0.  0.
<mgrwt>
<rscale>  0 0.47199494E+03</rscale>
<asrwt>0</asrwt>
<pdfrwt beam="1">  1        2 0.58293099E-01 0.47199494E+03</pdfrwt>
<pdfrwt beam="2">  1       -2 0.10677007E+00 0.47199494E+03</pdfrwt>
<totfact> 0.61537732E+01</totfact>
</mgrwt>
</event>
<event>
 4    1  0.4639964E-008  0.8516618E+03  0.7818608E-02  0.9488109E-01
         -2   -1    0    0    0  501 -0.00000000000E+00  0.00000000000E+00  0.81230096915E+03  0.81230096915E+03  0.25500000000E-02 0.  1.
          2   -1    0    0  501    0  0.00000000000E+00 -0.00000000000E+00 -0.10526757915E+04  0.10526757915E+04  0.25500000000E-02 0. -1.
    8880022    1    1    2    0    0 -0.70970783677E+03  0.44525385827E+03 -0.48344181655E+03  0.97930784480E+03  0.15294330000E+03 0.  0.
    8880022    1    1    2    0    0  0.70970783677E+03 -0.44525385827E+03  0.24306699418E+03  0.88566891588E+03  0.15294330000E+03 0.  0.
<mgrwt>
<rscale>  0 0.85166183E+03</rscale>
<asrwt>0</asrwt>
<pdfrwt beam="1">  1        2 0.16195012E+00 0.85166183E+03</pdfrwt>
<pdfrwt beam="2">  1       -2 0.12496938E+00 0.85166183E+03</pdfrwt>
<totfact> 0.11259022E+01</totfact>
</mgrwt>
</event>
<event>
 4    1  0.4639964E-008  0.8110604E+03  0.7818608E-02  0.9544144E-01
          2   -1    0    0  501    0  0.00000000000E+00  0.00000000000E+00  0.15378730394E+04  0.15378730394E+04  0.25500000000E-02 0. -1.
         -2   -1    0    0    0  501 -0.00000000000E+00 -0.00000000000E+00 -0.11983973011E+04  0.11983973011E+04  0.25500000000E-02 0.  1.
    8880022    1    1    2    0    0 -0.36353125748E+03  0.70871176249E+03  0.12668665375E+04  0.15042505823E+04  0.15294330000E+03 0.  0.
    8880022    1    1    2    0    0  0.36353125748E+03 -0.70871176249E+03 -0.92739079915E+03  0.12320197583E+04  0.15294330000E+03 0.  0.
<mgrwt>
<rscale>  0 0.81106041E+03</rscale>
<asrwt>0</asrwt>
<pdfrwt beam="1">  1        2 0.23659585E+00 0.81106041E+03</pdfrwt>
<pdfrwt beam="2">  1       -2 0.18436881E+00 0.81106041E+03</pdfrwt>
<totfact> 0.20867175E+00</totfact>
</mgrwt>
</event>
<event>
 4    1  0.4639964E-008  0.6872452E+03  0.7818608E-02  0.9739297E-01
         -2   -1    0    0    0  501 -0.00000000000E+00  0.00000000000E+00  0.12281975456E+04  0.12281975456E+04  0.25500000000E-02 0.  1.
          2   -1    0    0  501    0  0.00000000000E+00 -0.00000000000E+00 -0.43410472922E+03  0.43410472922E+03  0.25500000000E-02 0. -1.
    8880022    1    1    2    0    0  0.47248537767E+03  0.47504935662E+03  0.67785861719E+03  0.96529699122E+03  0.15294330000E+03 0.  0.
    8880022    1    1    2    0    0 -0.47248537767E+03 -0.47504935662E+03  0.11623419922E+03  0.69700528364E+03  0.15294330000E+03 0.  0.
<mgrwt>
<rscale>  0 0.68724521E+03</rscale>
<asrwt>0</asrwt>
<pdfrwt beam="1">  1        2 0.66785343E-01 0.68724521E+03</pdfrwt>
<pdfrwt beam="2">  1       -2 0.18895347E+00 0.68724521E+03</pdfrwt>
<totfact> 0.11688696E+01</totfact>
</mgrwt>
</event>
<event>
 4    1  0.4639964E-008  0.1414118E+04  0.7818608E-02  0.8943662E-01
          2   -1    0    0  501    0  0.00000000000E+00  0.00000000000E+00  0.20920129741E+04  0.20920129741E+04  0.25500000000E-02 0. -1.
         -2   -1    0    0    0  501 -0.00000000000E+00 -0.00000000000E+00 -0.10651962523E+04  0.10651962523E+04  0.25500000000E-02 0.  1.
    8880022    1    1    2    0    0 -0.12272112725E+04 -0.68577641884E+03  0.77157753209E+01  0.14141386036E+04  0.15294330000E+03 0.  0.
    8880022    1    1    2    0    0  0.12272112725E+04  0.68577641884E+03  0.10191009465E+04  0.17430706228E+04  0.15294330000E+03 0.  0.
<mgrwt>
<rscale>  0 0.14141176E+04</rscale>
<asrwt>0</asrwt>
<pdfrwt beam="1">  1        2 0.32184815E+00 0.14141176E+04</pdfrwt>
<pdfrwt beam="2">  1       -2 0.16387635E+00 0.14141176E+04</pdfrwt>
<totfact> 0.13312857E+00</totfact>
</mgrwt>
</event>
<event>
 4    1  0.4639964E-008  0.5024981E+03  0.7818608E-02  0.1013129E+00
         -2   -1    0    0    0  501 -0.00000000000E+00  0.00000000000E+00  0.76554177367E+03  0.76554177368E+03  0.25500000000E-02 0.  1.
          2   -1    0    0  501    0  0.00000000000E+00 -0.00000000000E+00 -0.75660503369E+03  0.75660503369E+03  0.25500000000E-02 0. -1.
    8880022    1    1    2    0    0  0.39276061472E+03 -0.27359048708E+03  0.57606238106E+03  0.76442931327E+03  0.15294330000E+03 0.  0.
    8880022    1    1    2    0    0 -0.39276061472E+03  0.27359048708E+03 -0.56712564107E+03  0.75771749410E+03  0.15294330000E+03 0.  0.
<mgrwt>
<rscale>  0 0.50249807E+03</rscale>
<asrwt>0</asrwt>
<pdfrwt beam="1">  1        2 0.11640077E+00 0.50249807E+03</pdfrwt>
<pdfrwt beam="2">  1       -2 0.11777566E+00 0.50249807E+03</pdfrwt>
<totfact> 0.21517055E+01</totfact>
</mgrwt>
</event>
<event>
 4    1  0.4639964E-008  0.3623631E+03  0.7818608E-02  0.1057652E+00
          2   -1    0    0  501    0  0.00000000000E+00  0.00000000000E+00  0.14503293199E+04  0.14503293199E+04  0.25500000000E-02 0. -1.
         -2   -1    0    0    0  501 -0.00000000000E+00 -0.00000000000E+00 -0.27854072660E+03  0.27854072661E+03  0.25500000000E-02 0.  1.
    8880022    1    1    2    0    0 -0.31277978143E+03  0.10042002562E+03 -0.12429214618E+03  0.38308688810E+03  0.15294330000E+03 0.  0.
    8880022    1    1    2    0    0  0.31277978143E+03 -0.10042002562E+03  0.12960807394E+04  0.13457831584E+04  0.15294330000E+03 0.  0.
<mgrwt>
<rscale>  0 0.36236311E+03</rscale>
<asrwt>0</asrwt>
<pdfrwt beam="1">  1        2 0.22312759E+00 0.36236311E+03</pdfrwt>
<pdfrwt beam="2">  1       -2 0.42852420E-01 0.36236311E+03</pdfrwt>
<totfact> 0.75118747E+01</totfact>
</mgrwt>
</event>
<event>
 4    1  0.4639964E-008  0.5560886E+03  0.7818608E-02  0.1000094E+00
         -2   -1    0    0    0  501 -0.00000000000E+00  0.00000000000E+00  0.16611888902E+03  0.16611888904E+03  0.25500000000E-02 0.  1.
          2   -1    0    0  501    0  0.00000000000E+00 -0.00000000000E+00 -0.21278399045E+04  0.21278399045E+04  0.25500000000E-02 0. -1.
    8880022    1    1    2    0    0 -0.36315215248E+03  0.39238164785E+03 -0.13866340477E+04  0.14939840959E+04  0.15294330000E+03 0.  0.
    8880022    1    1    2    0    0  0.36315215248E+03 -0.39238164785E+03 -0.57508696777E+03  0.79997469768E+03  0.15294330000E+03 0.  0.
<mgrwt>
<rscale>  0 0.55608857E+03</rscale>
<asrwt>0</asrwt>
<pdfrwt beam="1">  1        2 0.32735997E+00 0.55608857E+03</pdfrwt>
<pdfrwt beam="2">  1       -2 0.25556754E-01 0.55608857E+03</pdfrwt>
<totfact> 0.82478116E+01</totfact>
</mgrwt>
</event>
<event>
 4    1  0.4639964E-008  0.4906466E+03  0.7818608E-02  0.1016250E+00
          2   -1    0    0  501    0  0.00000000000E+00  0.00000000000E+00  0.34463579622E+03  0.34463579623E+03  0.25500000000E-02 0. -1.
         -2   -1    0    0    0  501 -0.00000000000E+00 -0.00000000000E+00 -0.93620522613E+03  0.93620522613E+03  0.25500000000E-02 0.  1.
    8880022    1    1    2    0    0  0.42938856061E+03  0.18157055610E+03  0.26903637432E+02  0.49138361954E+03  0.15294330000E+03 0.  0.
    8880022    1    1    2    0    0 -0.42938856061E+03 -0.18157055610E+03 -0.61847306734E+03  0.78945740282E+03  0.15294330000E+03 0.  0.
<mgrwt>
<rscale>  0 0.49064657E+03</rscale>
<asrwt>0</asrwt>
<pdfrwt beam="1">  1        2 0.53020892E-01 0.49064657E+03</pdfrwt>
<pdfrwt beam="2">  1       -2 0.14403157E+00 0.49064657E+03</pdfrwt>
<totfact> 0.32444880E+01</totfact>
</mgrwt>
</event>
<event>
 4    1  0.4639964E-008  0.4127862E+03  0.7818608E-02  0.1039440E+00
         -2   -1    0    0    0  501 -0.00000000000E+00  0.00000000000E+00  0.17746743823E+03  0.17746743825E+03  0.25500000000E-02 0.  1.
          2   -1    0    0  501    0  0.00000000000E+00 -0.00000000000E+00 -0.15994073252E+04  0.15994073252E+04  0.25500000000E-02 0. -1.
    8880022    1    1    2    0    0  0.16500385635E+02 -0.38305162709E+03 -0.12726521719E+04  0.13379222756E+04  0.15294330000E+03 0.  0.
    8880022    1    1    2    0    0 -0.16500385635E+02  0.38305162709E+03 -0.14928771505E+03  0.43895248789E+03  0.15294330000E+03 0.  1.
<mgrwt>
<rscale>  0 0.41278622E+03</rscale>
<asrwt>0</asrwt>
<pdfrwt beam="1">  1        2 0.24606265E+00 0.41278622E+03</pdfrwt>
<pdfrwt beam="2">  1       -2 0.27302684E-01 0.41278622E+03</pdfrwt>
<totfact> 0.14409397E+02</totfact>
</mgrwt>
</event>
<event>
 4    1  0.4639964E-008  0.2245651E+03  0.7818608E-02  0.1130525E+00
         -2   -1    0    0    0  501 -0.00000000000E+00  0.00000000000E+00  0.25735253274E+02  0.25735253400E+02  0.25500000000E-02 0.  1.
          2   -1    0    0  501    0  0.00000000000E+00 -0.00000000000E+00 -0.26250979781E+04  0.26250979781E+04  0.25500000000E-02 0. -1.
    8880022    1    1    2    0    0 -0.17644847353E+02 -0.16348233599E+03 -0.19670563761E+04  0.19798333906E+04  0.15294330000E+03 0. -1.
    8880022    1    1    2    0    0  0.17644847353E+02  0.16348233599E+03 -0.63230634875E+03  0.67099984091E+03  0.15294330000E+03 0.  1.
<mgrwt>
<rscale>  0 0.22456506E+03</rscale>
<asrwt>0</asrwt>
<pdfrwt beam="1">  1        2 0.40386102E+00 0.22456506E+03</pdfrwt>
<pdfrwt beam="2">  1       -2 0.39592718E-02 0.22456506E+03</pdfrwt>
<totfact> 0.96250368E+02</totfact>
</mgrwt>
</event>
<event>
 4    1  0.4639964E-008  0.2707837E+03  0.7818608E-02  0.1100832E+00
          2   -1    0    0  501    0  0.00000000000E+00  0.00000000000E+00  0.29624977198E+04  0.29624977198E+04  0.25500000000E-02 0. -1.
         -2   -1    0    0    0  501 -0.00000000000E+00 -0.00000000000E+00 -0.83806380920E+02  0.83806380959E+02  0.25500000000E-02 0.  1.
    8880022    1    1    2    0    0 -0.20268909738E+03  0.94070731440E+02  0.27179484351E+04  0.27314039470E+04  0.15294330000E+03 0. -1.
    8880022    1    1    2    0    0  0.20268909738E+03 -0.94070731440E+02  0.16074290376E+03  0.31490015375E+03  0.15294330000E+03 0.  0.
<mgrwt>
<rscale>  0 0.27078373E+03</rscale>
<asrwt>0</asrwt>
<pdfrwt beam="1">  1        2 0.45576886E+00 0.27078373E+03</pdfrwt>
<pdfrwt beam="2">  1       -2 0.12893290E-01 0.27078373E+03</pdfrwt>
<totfact> 0.96784950E+01</totfact>
</mgrwt>
</event>
<event>
 4    1  0.4639964E-008  0.1838370E+03  0.7818608E-02  0.1164140E+00
          2   -1    0    0  501    0  0.00000000000E+00  0.00000000000E+00  0.76033292040E+03  0.76033292040E+03  0.25500000000E-02 0. -1.
         -2   -1    0    0    0  501 -0.00000000000E+00 -0.00000000000E+00 -0.25755664911E+03  0.25755664912E+03  0.25500000000E-02 0.  1.
    8880022    1    1    2    0    0  0.81295318865E+02 -0.61607187550E+02  0.71433784799E+03  0.73761411898E+03  0.15294330000E+03 0. -1.
    8880022    1    1    2    0    0 -0.81295318865E+02  0.61607187550E+02 -0.21156157670E+03  0.28027545054E+03  0.15294330000E+03 0.  0.
<mgrwt>
<rscale>  0 0.18383696E+03</rscale>
<asrwt>0</asrwt>
<pdfrwt beam="1">  1        2 0.11697429E+00 0.18383696E+03</pdfrwt>
<pdfrwt beam="2">  1       -2 0.39624100E-01 0.18383696E+03</pdfrwt>
<totfact> 0.23450352E+02</totfact>
</mgrwt>
</event>
<event>
 4    1  0.4639964E-008  0.2902016E+03  0.7818608E-02  0.1090244E+00
          2   -1    0    0  501    0  0.00000000000E+00  0.00000000000E+00  0.43945887691E+03  0.43945887692E+03  0.25500000000E-02 0. -1.
         -2   -1    0    0    0  501 -0.00000000000E+00 -0.00000000000E+00 -0.85144341924E+03  0.85144341924E+03  0.25500000000E-02 0.  1.
    8880022    1    1    2    0    0 -0.22329761889E+03  0.10470673536E+03 -0.77418209361E+03  0.82678588166E+03  0.15294330000E+03 0.  1.
    8880022    1    1    2    0    0  0.22329761889E+03 -0.10470673536E+03  0.36219755129E+03  0.46411641450E+03  0.15294330000E+03 0.  0.
<mgrwt>
<rscale>  0 0.29020162E+03</rscale>
<asrwt>0</asrwt>
<pdfrwt beam="1">  1        2 0.67609058E-01 0.29020162E+03</pdfrwt>
<pdfrwt beam="2">  1       -2 0.13099130E+00 0.29020162E+03</pdfrwt>
<totfact> 0.32461843E+01</totfact>
</mgrwt>
</event>
<event>
 4    1  0.4639964E-008  0.4326573E+03  0.7818608E-02  0.1033024E+00
         -2   -1    0    0    0  501 -0.00000000000E+00  0.00000000000E+00  0.41360002169E+03  0.41360002169E+03  0.25500000000E-02 0.  1.
          2   -1    0    0  501    0  0.00000000000E+00 -0.00000000000E+00 -0.20154498047E+04  0.20154498047E+04  0.25500000000E-02 0. -1.
    8880022    1    1    2    0    0  0.39397432235E+03  0.92654973504E+02 -0.18704231108E+04  0.19198111827E+04  0.15294330000E+03 0.  0.
    8880022    1    1    2    0    0 -0.39397432235E+03 -0.92654973504E+02  0.26857332781E+03  0.50923864367E+03  0.15294330000E+03 0.  0.
<mgrwt>
<rscale>  0 0.43265733E+03</rscale>
<asrwt>0</asrwt>
<pdfrwt beam="1">  1        2 0.31006920E+00 0.43265733E+03</pdfrwt>
<pdfrwt beam="2">  1       -2 0.63630773E-01 0.43265733E+03</pdfrwt>
<totfact> 0.16452339E+01</totfact>
</mgrwt>
</event>
<event>
 4    1  0.4639964E-008  0.5468227E+03  0.7818608E-02  0.1002232E+00
          2   -1    0    0  501    0  0.00000000000E+00  0.00000000000E+00  0.76996536307E+03  0.76996536308E+03  0.25500000000E-02 0. -1.
         -2   -1    0    0    0  501 -0.00000000000E+00 -0.00000000000E+00 -0.78853214091E+03  0.78853214091E+03  0.25500000000E-02 0.  1.
    8880022    1    1    2    0    0  0.92306406779E+01  0.52491730869E+03 -0.56441502633E+03  0.78586217663E+03  0.15294330000E+03 0.  0.
    8880022    1    1    2    0    0 -0.92306406779E+01 -0.52491730869E+03  0.54584824850E+03  0.77263532736E+03  0.15294330000E+03 0.  0.
<mgrwt>
<rscale>  0 0.54682268E+03</rscale>
<asrwt>0</asrwt>
<pdfrwt beam="1">  1        2 0.11845621E+00 0.54682268E+03</pdfrwt>
<pdfrwt beam="2">  1       -2 0.12131264E+00 0.54682268E+03</pdfrwt>
<totfact> 0.19440303E+01</totfact>
</mgrwt>
</event>
<event>
 4    1  0.4639964E-008  0.3878028E+03  0.7818608E-02  0.1048087E+00
          2   -1    0    0  501    0  0.00000000000E+00  0.00000000000E+00  0.25391464378E+04  0.25391464378E+04  0.25500000000E-02 0. -1.
         -2   -1    0    0    0  501 -0.00000000000E+00 -0.00000000000E+00 -0.45203503318E+03  0.45203503319E+03  0.25500000000E-02 0.  1.
    8880022    1    1    2    0    0  0.35598011912E+03 -0.16659895346E+02 -0.35061452984E+03  0.52280168216E+03  0.15294330000E+03 0.  0.
    8880022    1    1    2    0    0 -0.35598011912E+03  0.16659895346E+02  0.24377259344E+04  0.24683797888E+04  0.15294330000E+03 0.  0.
<mgrwt>
<rscale>  0 0.38780285E+03</rscale>
<asrwt>0</asrwt>
<pdfrwt beam="1">  1        2 0.39063791E+00 0.38780285E+03</pdfrwt>
<pdfrwt beam="2">  1       -2 0.69543852E-01 0.38780285E+03</pdfrwt>
<totfact> 0.71505120E+00</totfact>
</mgrwt>
</event>
<event>
 4    1  0.4639964E-008  0.5483862E+03  0.7818608E-02  0.1001868E+00
          2   -1    0    0  501    0  0.00000000000E+00  0.00000000000E+00  0.16088499552E+04  0.16088499552E+04  0.25500000000E-02 0. -1.
         -2   -1    0    0    0  501 -0.00000000000E+00 -0.00000000000E+00 -0.74552134763E+03  0.74552134764E+03  0.25500000000E-02 0.  1.
    8880022    1    1    2    0    0  0.24074472499E+03 -0.46837776183E+03  0.14506442215E+04  0.15508372129E+04  0.15294330000E+03 0.  0.
    8880022    1    1    2    0    0 -0.24074472499E+03  0.46837776183E+03 -0.58731561393E+03  0.80353408999E+03  0.15294330000E+03 0.  0.
<mgrwt>
<rscale>  0 0.54838618E+03</rscale>
<asrwt>0</asrwt>
<pdfrwt beam="1">  1        2 0.24751538E+00 0.54838618E+03</pdfrwt>
<pdfrwt beam="2">  1       -2 0.11469559E+00 0.54838618E+03</pdfrwt>
<totfact> 0.69596087E+00</totfact>
</mgrwt>
</event>
<event>
 4    1  0.4639964E-008  0.3879813E+03  0.7818608E-02  0.1048023E+00
         -2   -1    0    0    0  501 -0.00000000000E+00  0.00000000000E+00  0.13035827276E+03  0.13035827278E+03  0.25500000000E-02 0.  1.
          2   -1    0    0  501    0  0.00000000000E+00 -0.00000000000E+00 -0.20299443763E+04  0.20299443763E+04  0.25500000000E-02 0. -1.
    8880022    1    1    2    0    0  0.24242599258E+03  0.26147177172E+03 -0.24054515996E+03  0.45649915255E+03  0.15294330000E+03 0.  0.
    8880022    1    1    2    0    0 -0.24242599258E+03 -0.26147177172E+03 -0.16590409436E+04  0.17038034966E+04  0.15294330000E+03 0.  0.
<mgrwt>
<rscale>  0 0.38798132E+03</rscale>
<asrwt>0</asrwt>
<pdfrwt beam="1">  1        2 0.31229911E+00 0.38798132E+03</pdfrwt>
<pdfrwt beam="2">  1       -2 0.20055120E-01 0.38798132E+03</pdfrwt>
<totfact> 0.14699929E+02</totfact>
</mgrwt>
</event>
<event>
 4    1  0.4639964E-008  0.7489050E+03  0.7818608E-02  0.9637070E-01
         -2   -1    0    0    0  501 -0.00000000000E+00  0.00000000000E+00  0.31488900396E+03  0.31488900397E+03  0.25500000000E-02 0.  1.
          2   -1    0    0  501    0  0.00000000000E+00 -0.00000000000E+00 -0.26224003917E+04  0.26224003917E+04  0.25500000000E-02 0. -1.
    8880022    1    1    2    0    0  0.22413095901E+03  0.69802030802E+03 -0.32192549344E+03  0.81516545163E+03  0.15294330000E+03 0.  0.
    8880022    1    1    2    0    0 -0.22413095901E+03 -0.69802030802E+03 -0.19855858943E+04  0.21221239440E+04  0.15294330000E+03 0.  0.
<mgrwt>
<rscale>  0 0.74890499E+03</rscale>
<asrwt>0</asrwt>
<pdfrwt beam="1">  1        2 0.40344620E+00 0.74890499E+03</pdfrwt>
<pdfrwt beam="2">  1       -2 0.48444464E-01 0.74890499E+03</pdfrwt>
<totfact> 0.12526772E+01</totfact>
</mgrwt>
</event>
<event>
 4    1  0.4639964E-008  0.6098333E+03  0.7818608E-02  0.9885213E-01
         -2   -1    0    0    0  501 -0.00000000000E+00  0.00000000000E+00  0.12779054772E+04  0.12779054772E+04  0.25500000000E-02 0.  1.
          2   -1    0    0  501    0  0.00000000000E+00 -0.00000000000E+00 -0.11301430487E+04  0.11301430487E+04  0.25500000000E-02 0. -1.
    8880022    1    1    2    0    0 -0.58067722638E+03 -0.10639055103E+03 -0.96360237300E+03  0.11403623007E+04  0.15294330000E+03 0.  0.
    8880022    1    1    2    0    0  0.58067722638E+03  0.10639055103E+03  0.11113648015E+04  0.12676862252E+04  0.15294330000E+03 0.  0.
<mgrwt>
<rscale>  0 0.60983329E+03</rscale>
<asrwt>0</asrwt>
<pdfrwt beam="1">  1        2 0.17386816E+00 0.60983329E+03</pdfrwt>
<pdfrwt beam="2">  1       -2 0.19660084E+00 0.60983329E+03</pdfrwt>
<totfact> 0.30713346E+00</totfact>
</mgrwt>
</event>
<event>
 4    1  0.4639964E-008  0.9840500E+03  0.7818608E-02  0.9326213E-01
          2   -1    0    0  501    0  0.00000000000E+00  0.00000000000E+00  0.30479820612E+04  0.30479820612E+04  0.25500000000E-02 0. -1.
         -2   -1    0    0    0  501 -0.00000000000E+00 -0.00000000000E+00 -0.57736736762E+03  0.57736736763E+03  0.25500000000E-02 0.  1.
    8880022    1    1    2    0    0 -0.87233489606E+03  0.42894600452E+03  0.24509321132E+04  0.26411025580E+04  0.15294330000E+03 0.  0.
    8880022    1    1    2    0    0  0.87233489606E+03 -0.42894600452E+03  0.19682580406E+02  0.98424687079E+03  0.15294330000E+03 0.  0.
<mgrwt>
<rscale>  0 0.98405005E+03</rscale>
<asrwt>0</asrwt>
<pdfrwt beam="1">  1        2 0.46892031E+00 0.98405005E+03</pdfrwt>
<pdfrwt beam="2">  1       -2 0.88825750E-01 0.98405005E+03</pdfrwt>
<totfact> 0.18120531E+00</totfact>
</mgrwt>
</event>
<event>
 4    1  0.4639964E-008  0.5180269E+03  0.7818608E-02  0.1009178E+00
         -2   -1    0    0    0  501 -0.00000000000E+00  0.00000000000E+00  0.68302730011E+03  0.68302730012E+03  0.25500000000E-02 0.  1.
          2   -1    0    0  501    0  0.00000000000E+00 -0.00000000000E+00 -0.19423563113E+04  0.19423563113E+04  0.25500000000E-02 0. -1.
    8880022    1    1    2    0    0  0.43134796303E+03 -0.24269153261E+03 -0.18021026685E+04  0.18750802452E+04  0.15294330000E+03 0. -1.
    8880022    1    1    2    0    0 -0.43134796303E+03  0.24269153261E+03  0.54277365732E+03  0.75030336619E+03  0.15294330000E+03 0.  0.
<mgrwt>
<rscale>  0 0.51802693E+03</rscale>
<asrwt>0</asrwt>
<pdfrwt beam="1">  1        2 0.29882405E+00 0.51802693E+03</pdfrwt>
<pdfrwt beam="2">  1       -2 0.10508112E+00 0.51802693E+03</pdfrwt>
<totfact> 0.57136710E+00</totfact>
</mgrwt>
</event>
<event>
 4    1  0.4639964E-008  0.5231510E+03  0.7818608E-02  0.1007907E+00
         -2   -1    0    0    0  501 -0.00000000000E+00  0.00000000000E+00  0.14941993027E+04  0.14941993027E+04  0.25500000000E-02 0.  1.
          2   -1    0    0  501    0  0.00000000000E+00 -0.00000000000E+00 -0.20544283589E+03  0.20544283590E+03  0.25500000000E-02 0. -1.
    8880022    1    1    2    0    0  0.12046904055E+03 -0.48557442618E+03  0.92421564005E+03  0.10620082464E+04  0.15294330000E+03 0.  0.
    8880022    1    1    2    0    0 -0.12046904055E+03  0.48557442618E+03  0.36454082674E+03  0.63763389219E+03  0.15294330000E+03 0.  0.
<mgrwt>
<rscale>  0 0.52315100E+03</rscale>
<asrwt>0</asrwt>
<pdfrwt beam="1">  1        2 0.31606591E-01 0.52315100E+03</pdfrwt>
<pdfrwt beam="2">  1       -2 0.22987681E+00 0.52315100E+03</pdfrwt>
<totfact> 0.15049260E+01</totfact>
</mgrwt>
</event>
<event>
 4    1  0.4639964E-008  0.2050098E+03  0.7818608E-02  0.1145580E+00
          2   -1    0    0  501    0  0.00000000000E+00  0.00000000000E+00  0.74359435918E+03  0.74359435918E+03  0.25500000000E-02 0. -1.
         -2   -1    0    0    0  501 -0.00000000000E+00 -0.00000000000E+00 -0.72011930697E+02  0.72011930742E+02  0.25500000000E-02 0.  1.
    8880022    1    1    2    0    0 -0.13194849627E+03 -0.35027732626E+02  0.14665209211E+03  0.25206316045E+03  0.15294330000E+03 0.  0.
    8880022    1    1    2    0    0  0.13194849627E+03  0.35027732626E+02  0.52493033638E+03  0.56354312948E+03  0.15294330000E+03 0.  0.
<mgrwt>
<rscale>  0 0.20500976E+03</rscale>
<asrwt>0</asrwt>
<pdfrwt beam="1">  1        2 0.11439914E+00 0.20500976E+03</pdfrwt>
<pdfrwt beam="2">  1       -2 0.11078758E-01 0.20500976E+03</pdfrwt>
<totfact> 0.21774911E+03</totfact>
</mgrwt>
</event>
<event>
 4    1  0.4639964E-008  0.1797782E+03  0.7818608E-02  0.1168018E+00
         -2   -1    0    0    0  501 -0.00000000000E+00  0.00000000000E+00  0.23132043117E+03  0.23132043119E+03  0.25500000000E-02 0.  1.
          2   -1    0    0  501    0  0.00000000000E+00 -0.00000000000E+00 -0.19580816404E+04  0.19580816404E+04  0.25500000000E-02 0. -1.
    8880022    1    1    2    0    0  0.58111200047E+02 -0.74509235642E+02  0.19154105703E+03  0.26269405648E+03  0.15294330000E+03 0.  0.
    8880022    1    1    2    0    0 -0.58111200047E+02  0.74509235642E+02 -0.19183022663E+04  0.19267080151E+04  0.15294330000E+03 0.  0.
<mgrwt>
<rscale>  0 0.17977817E+03</rscale>
<asrwt>0</asrwt>
<pdfrwt beam="1">  1        2 0.30124332E+00 0.17977817E+03</pdfrwt>
<pdfrwt beam="2">  1       -2 0.35587760E-01 0.17977817E+03</pdfrwt>
<totfact> 0.61124461E+01</totfact>
</mgrwt>
</event>
<event>
 4    1  0.4639964E-008  0.3259067E+03  0.7818608E-02  0.1072963E+00
         -2   -1    0    0    0  501 -0.00000000000E+00  0.00000000000E+00  0.11007290335E+04  0.11007290335E+04  0.25500000000E-02 0.  1.
          2   -1    0    0  501    0  0.00000000000E+00 -0.00000000000E+00 -0.22222747512E+04  0.22222747512E+04  0.25500000000E-02 0. -1.
    8880022    1    1    2    0    0  0.17814354250E+03  0.22602745524E+03 -0.21858016725E+04  0.22099647365E+04  0.15294330000E+03 0.  0.
    8880022    1    1    2    0    0 -0.17814354250E+03 -0.22602745524E+03  0.10642559548E+04  0.11130390481E+04  0.15294330000E+03 0.  1.
<mgrwt>
<rscale>  0 0.32590671E+03</rscale>
<asrwt>0</asrwt>
<pdfrwt beam="1">  1        2 0.34188842E+00 0.32590671E+03</pdfrwt>
<pdfrwt beam="2">  1       -2 0.16934293E+00 0.32590671E+03</pdfrwt>
<totfact> 0.12894298E+00</totfact>
</mgrwt>
</event>
<event>
 4    1  0.4639964E-008  0.4667473E+03  0.7818608E-02  0.1022842E+00
          2   -1    0    0  501    0  0.00000000000E+00  0.00000000000E+00  0.47837347991E+03  0.47837347991E+03  0.25500000000E-02 0. -1.
         -2   -1    0    0    0  501 -0.00000000000E+00 -0.00000000000E+00 -0.10072384755E+04  0.10072384755E+04  0.25500000000E-02 0.  1.
    8880022    1    1    2    0    0  0.29072671563E+03  0.33157108289E+03 -0.81424392746E+03  0.93853408708E+03  0.15294330000E+03 0.  0.
    8880022    1    1    2    0    0 -0.29072671563E+03 -0.33157108289E+03  0.28537893191E+03  0.54707786830E+03  0.15294330000E+03 0.  0.
<mgrwt>
<rscale>  0 0.46674732E+03</rscale>
<asrwt>0</asrwt>
<pdfrwt beam="1">  1        2 0.73595921E-01 0.46674732E+03</pdfrwt>
<pdfrwt beam="2">  1       -2 0.15495976E+00 0.46674732E+03</pdfrwt>
<totfact> 0.18631881E+01</totfact>
</mgrwt>
</event>
<event>
 4    1  0.4639964E-008  0.9565828E+03  0.7818608E-02  0.9357489E-01
         -2   -1    0    0    0  501 -0.00000000000E+00  0.00000000000E+00  0.10307581554E+04  0.10307581554E+04  0.25500000000E-02 0.  1.
          2   -1    0    0  501    0  0.00000000000E+00 -0.00000000000E+00 -0.14646522325E+04  0.14646522325E+04  0.25500000000E-02 0. -1.
    8880022    1    1    2    0    0 -0.92726421228E+03 -0.17843813493E+03  0.56611756109E+03  0.11115483945E+04  0.15294330000E+03 0.  0.
    8880022    1    1    2    0    0  0.92726421228E+03  0.17843813493E+03 -0.10000116381E+04  0.13838619934E+04  0.15294330000E+03 0.  0.
<mgrwt>
<rscale>  0 0.95658285E+03</rscale>
<asrwt>0</asrwt>
<pdfrwt beam="1">  1        2 0.22533111E+00 0.95658285E+03</pdfrwt>
<pdfrwt beam="2">  1       -2 0.15857818E+00 0.95658285E+03</pdfrwt>
<totfact> 0.34222632E+00</totfact>
</mgrwt>
</event>
<event>
 4    1  0.4639964E-008  0.2742591E+03  0.7818608E-02  0.1098866E+00
         -2   -1    0    0    0  501 -0.00000000000E+00  0.00000000000E+00  0.52550080697E+03  0.52550080697E+03  0.25500000000E-02 0.  1.
          2   -1    0    0  501    0  0.00000000000E+00 -0.00000000000E+00 -0.87166746743E+03  0.87166746743E+03  0.25500000000E-02 0. -1.
    8880022    1    1    2    0    0 -0.12163186675E+03 -0.19243718682E+03  0.46557338973E+03  0.54034860611E+03  0.15294330000E+03 0.  0.
    8880022    1    1    2    0    0  0.12163186675E+03  0.19243718682E+03 -0.81174005019E+03  0.85681966830E+03  0.15294330000E+03 0. -1.
<mgrwt>
<rscale>  0 0.27425907E+03</rscale>
<asrwt>0</asrwt>
<pdfrwt beam="1">  1        2 0.13410269E+00 0.27425907E+03</pdfrwt>
<pdfrwt beam="2">  1       -2 0.80846278E-01 0.27425907E+03</pdfrwt>
<totfact> 0.44758462E+01</totfact>
</mgrwt>
</event>
<event>
 4    1  0.4639964E-008  0.2980144E+03  0.7818608E-02  0.1086237E+00
          2   -1    0    0  501    0  0.00000000000E+00  0.00000000000E+00  0.24205988757E+03  0.24205988758E+03  0.25500000000E-02 0. -1.
         -2   -1    0    0    0  501 -0.00000000000E+00 -0.00000000000E+00 -0.83697881818E+03  0.83697881818E+03  0.25500000000E-02 0.  1.
    8880022    1    1    2    0    0 -0.21072959269E+03  0.14496191379E+03 -0.70178727432E+03  0.76244209557E+03  0.15294330000E+03 0.  0.
    8880022    1    1    2    0    0  0.21072959269E+03 -0.14496191379E+03  0.10686834371E+03  0.31659661020E+03  0.15294330000E+03 0.  0.
<mgrwt>
<rscale>  0 0.29801438E+03</rscale>
<asrwt>0</asrwt>
<pdfrwt beam="1">  1        2 0.37239983E-01 0.29801438E+03</pdfrwt>
<pdfrwt beam="2">  1       -2 0.12876597E+00 0.29801438E+03</pdfrwt>
<totfact> 0.64830749E+01</totfact>
</mgrwt>
</event>
<event>
 4    1  0.4639964E-008  0.1121352E+04  0.7818608E-02  0.9184627E-01
          2   -1    0    0  501    0  0.00000000000E+00  0.00000000000E+00  0.42834625580E+04  0.42834625580E+04  0.25500000000E-02 0. -1.
         -2   -1    0    0    0  501 -0.00000000000E+00 -0.00000000000E+00 -0.60426850026E+03  0.60426850027E+03  0.25500000000E-02 0.  1.
    8880022    1    1    2    0    0 -0.71519635207E+03  0.85001929354E+03  0.35920349682E+04  0.37629968758E+04  0.15294330000E+03 0.  0.
    8880022    1    1    2    0    0  0.71519635207E+03 -0.85001929354E+03  0.87159089568E+02  0.11247341825E+04  0.15294330000E+03 0.  0.
<mgrwt>
<rscale>  0 0.11213520E+04</rscale>
<asrwt>0</asrwt>
<pdfrwt beam="1">  1        2 0.65899423E+00 0.11213520E+04</pdfrwt>
<pdfrwt beam="2">  1       -2 0.92964386E-01 0.11213520E+04</pdfrwt>
<totfact> 0.19973699E-01</totfact>
</mgrwt>
</event>
<event>
 4    1  0.4639964E-008  0.5942041E+03  0.7818608E-02  0.9917504E-01
         -2   -1    0    0    0  501 -0.00000000000E+00  0.00000000000E+00  0.76799341081E+03  0.76799341081E+03  0.25500000000E-02 0.  1.
          2   -1    0    0  501    0  0.00000000000E+00 -0.00000000000E+00 -0.63751446814E+03  0.63751446815E+03  0.25500000000E-02 0. -1.
    8880022    1    1    2    0    0  0.11205560216E+03 -0.56314329433E+03 -0.30586062501E+03  0.66830322674E+03  0.15294330000E+03 0.  0.
    8880022    1    1    2    0    0 -0.11205560216E+03  0.56314329433E+03  0.43633956767E+03  0.73720465222E+03  0.15294330000E+03 0.  1.
<mgrwt>
<rscale>  0 0.59420407E+03</rscale>
<asrwt>0</asrwt>
<pdfrwt beam="1">  1        2 0.98079149E-01 0.59420407E+03</pdfrwt>
<pdfrwt beam="2">  1       -2 0.11815283E+00 0.59420407E+03</pdfrwt>
<totfact> 0.26137249E+01</totfact>
</mgrwt>
</event>
<event>
 4    1  0.4639964E-008  0.4064426E+03  0.7818608E-02  0.1041571E+00
         -2   -1    0    0    0  501 -0.00000000000E+00  0.00000000000E+00  0.39294304105E+03  0.39294304106E+03  0.25500000000E-02 0.  1.
          2   -1    0    0  501    0  0.00000000000E+00 -0.00000000000E+00 -0.75561167199E+03  0.75561167200E+03  0.25500000000E-02 0. -1.
    8880022    1    1    2    0    0  0.31843982787E+03 -0.20099754671E+03 -0.56383135507E+03  0.69505495303E+03  0.15294330000E+03 0.  0.
    8880022    1    1    2    0    0 -0.31843982787E+03  0.20099754671E+03  0.20116272413E+03  0.45349976003E+03  0.15294330000E+03 0.  0.
<mgrwt>
<rscale>  0 0.40644260E+03</rscale>
<asrwt>0</asrwt>
<pdfrwt beam="1">  1        2 0.11624795E+00 0.40644260E+03</pdfrwt>
<pdfrwt beam="2">  1       -2 0.60452776E-01 0.40644260E+03</pdfrwt>
<totfact> 0.98678665E+01</totfact>
</mgrwt>
</event>
<event>
 4    1  0.4639964E-008  0.1786168E+03  0.7818608E-02  0.1169148E+00
          2   -1    0    0  501    0  0.00000000000E+00  0.00000000000E+00  0.30682535918E+04  0.30682535918E+04  0.25500000000E-02 0. -1.
         -2   -1    0    0    0  501 -0.00000000000E+00 -0.00000000000E+00 -0.67455857049E+03  0.67455857049E+03  0.25500000000E-02 0.  1.
    8880022    1    1    2    0    0 -0.88405028997E+02  0.26398369418E+02  0.30537740334E+04  0.30589932695E+04  0.15294330000E+03 0. -1.
    8880022    1    1    2    0    0  0.88405028997E+02 -0.26398369418E+02 -0.66007901201E+03  0.68381889282E+03  0.15294330000E+03 0.  0.
<mgrwt>
<rscale>  0 0.17861684E+03</rscale>
<asrwt>0</asrwt>
<pdfrwt beam="1">  1        2 0.47203901E+00 0.17861684E+03</pdfrwt>
<pdfrwt beam="2">  1       -2 0.10377824E+00 0.17861684E+03</pdfrwt>
<totfact> 0.16400262E+00</totfact>
</mgrwt>
</event>
<event>
 4    1  0.4639964E-008  0.1834448E+03  0.7818608E-02  0.1164510E+00
         -2   -1    0    0    0  501 -0.00000000000E+00  0.00000000000E+00  0.79537358181E+02  0.79537358222E+02  0.25500000000E-02 0.  1.
          2   -1    0    0  501    0  0.00000000000E+00 -0.00000000000E+00 -0.68547931285E+03  0.68547931285E+03  0.25500000000E-02 0. -1.
    8880022    1    1    2    0    0  0.89587224848E+02  0.47270026180E+02 -0.53962364522E+03  0.56995232935E+03  0.15294330000E+03 0. -1.
    8880022    1    1    2    0    0 -0.89587224848E+02 -0.47270026180E+02 -0.66318309446E+02  0.19506434173E+03  0.15294330000E+03 0.  0.
<mgrwt>
<rscale>  0 0.18344476E+03</rscale>
<asrwt>0</asrwt>
<pdfrwt beam="1">  1        2 0.10545835E+00 0.18344476E+03</pdfrwt>
<pdfrwt beam="2">  1       -2 0.12236517E-01 0.18344476E+03</pdfrwt>
<totfact> 0.20445640E+03</totfact>
</mgrwt>
</event>
<event>
 4    1  0.4639964E-008  0.7873865E+03  0.7818608E-02  0.9578456E-01
          2   -1    0    0  501    0  0.00000000000E+00  0.00000000000E+00  0.11978417872E+04  0.11978417872E+04  0.25500000000E-02 0. -1.
         -2   -1    0    0    0  501 -0.00000000000E+00 -0.00000000000E+00 -0.87301817214E+03  0.87301817214E+03  0.25500000000E-02 0.  1.
    8880022    1    1    2    0    0  0.38658537347E+03 -0.66868344558E+03  0.82309291905E+03  0.11390607568E+04  0.15294330000E+03 0.  0.
    8880022    1    1    2    0    0 -0.38658537347E+03  0.66868344558E+03 -0.49826930402E+03  0.93179920247E+03  0.15294330000E+03 0.  0.
<mgrwt>
<rscale>  0 0.78738647E+03</rscale>
<asrwt>0</asrwt>
<pdfrwt beam="1">  1        2 0.18428335E+00 0.78738647E+03</pdfrwt>
<pdfrwt beam="2">  1       -2 0.13431049E+00 0.78738647E+03</pdfrwt>
<totfact> 0.77107734E+00</totfact>
</mgrwt>
</event>
<event>
 4    1  0.4639964E-008  0.2073664E+03  0.7818608E-02  0.1143669E+00
          2   -1    0    0  501    0  0.00000000000E+00  0.00000000000E+00  0.12607734587E+04  0.12607734587E+04  0.25500000000E-02 0. -1.
         -2   -1    0    0    0  501 -0.00000000000E+00 -0.00000000000E+00 -0.95141145208E+02  0.95141145242E+02  0.25500000000E-02 0.  1.
    8880022    1    1    2    0    0 -0.12062027689E+03  0.71133179669E+02  0.11258234016E+04  0.11447616193E+04  0.15294330000E+03 0.  0.
    8880022    1    1    2    0    0  0.12062027689E+03 -0.71133179669E+02  0.39808911923E+02  0.21115298466E+03  0.15294330000E+03 0.  1.
<mgrwt>
<rscale>  0 0.20736642E+03</rscale>
<asrwt>0</asrwt>
<pdfrwt beam="1">  1        2 0.19396515E+00 0.20736642E+03</pdfrwt>
<pdfrwt beam="2">  1       -2 0.14637099E-01 0.20736642E+03</pdfrwt>
<totfact> 0.66471677E+02</totfact>
</mgrwt>
</event>
<event>
 4    1  0.4639964E-008  0.6632210E+03  0.7818608E-02  0.9782282E-01
          2   -1    0    0  501    0  0.00000000000E+00  0.00000000000E+00  0.44542492965E+03  0.44542492966E+03  0.25500000000E-02 0. -1.
         -2   -1    0    0    0  501 -0.00000000000E+00 -0.00000000000E+00 -0.13234716576E+04  0.13234716576E+04  0.25500000000E-02 0.  1.
    8880022    1    1    2    0    0 -0.62799560846E+03  0.14863351217E+03  0.65910993970E+01  0.66325372278E+03  0.15294330000E+03 0.  0.
    8880022    1    1    2    0    0  0.62799560846E+03 -0.14863351217E+03 -0.88463782732E+03  0.11056428645E+04  0.15294330000E+03 0.  1.
<mgrwt>
<rscale>  0 0.66322097E+03</rscale>
<asrwt>0</asrwt>
<pdfrwt beam="1">  1        2 0.68526913E-01 0.66322097E+03</pdfrwt>
<pdfrwt beam="2">  1       -2 0.20361102E+00 0.66322097E+03</pdfrwt>
<totfact> 0.91262358E+00</totfact>
</mgrwt>
</event>
<event>
 4    1  0.4639964E-008  0.3170519E+03  0.7818608E-02  0.1077014E+00
         -2   -1    0    0    0  501 -0.00000000000E+00  0.00000000000E+00  0.10238715024E+03  0.10238715027E+03  0.25500000000E-02 0.  1.
          2   -1    0    0  501    0  0.00000000000E+00 -0.00000000000E+00 -0.30660732935E+04  0.30660732935E+04  0.25500000000E-02 0. -1.
    8880022    1    1    2    0    0 -0.20814841488E+03  0.18386005922E+03 -0.17565366338E+03  0.36245847551E+03  0.15294330000E+03 0.  1.
    8880022    1    1    2    0    0  0.20814841488E+03 -0.18386005922E+03 -0.27880324799E+04  0.28060019683E+04  0.15294330000E+03 0.  0.
<mgrwt>
<rscale>  0 0.31705195E+03</rscale>
<asrwt>0</asrwt>
<pdfrwt beam="1">  1        2 0.47170351E+00 0.31705195E+03</pdfrwt>
<pdfrwt beam="2">  1       -2 0.15751872E-01 0.31705195E+03</pdfrwt>
<totfact> 0.59300733E+01</totfact>
</mgrwt>
</event>
<event>
 4    1  0.4639964E-008  0.3244947E+03  0.7818608E-02  0.1073599E+00
         -2   -1    0    0    0  501 -0.00000000000E+00  0.00000000000E+00  0.26381980951E+03  0.26381980952E+03  0.25500000000E-02 0.  1.
          2   -1    0    0  501    0  0.00000000000E+00 -0.00000000000E+00 -0.16114699442E+04  0.16114699442E+04  0.25500000000E-02 0. -1.
    8880022    1    1    2    0    0 -0.24127616954E+03 -0.15391876200E+03  0.13945579877E+03  0.35319222544E+03  0.15294330000E+03 0.  0.
    8880022    1    1    2    0    0  0.24127616954E+03  0.15391876200E+03 -0.14871059335E+04  0.15220975283E+04  0.15294330000E+03 0.  0.
<mgrwt>
<rscale>  0 0.32449473E+03</rscale>
<asrwt>0</asrwt>
<pdfrwt beam="1">  1        2 0.24791845E+00 0.32449473E+03</pdfrwt>
<pdfrwt beam="2">  1       -2 0.40587664E-01 0.32449473E+03</pdfrwt>
<totfact> 0.68887213E+01</totfact>
</mgrwt>
</event>
<event>
 4    1  0.4639964E-008  0.1665100E+04  0.7818608E-02  0.8781523E-01
         -2   -1    0    0    0  501 -0.00000000000E+00  0.00000000000E+00  0.10446918885E+04  0.10446918885E+04  0.25500000000E-02 0.  1.
          2   -1    0    0  501    0  0.00000000000E+00 -0.00000000000E+00 -0.31165076740E+04  0.31165076740E+04  0.25500000000E-02 0. -1.
    8880022    1    1    2    0    0  0.87925094509E+03 -0.14057321598E+04 -0.23434268889E+03  0.16815092263E+04  0.15294330000E+03 0.  0.
    8880022    1    1    2    0    0 -0.87925094509E+03  0.14057321598E+04 -0.18374730966E+04  0.24796903362E+04  0.15294330000E+03 0.  0.
<mgrwt>
<rscale>  0 0.16650996E+04</rscale>
<asrwt>0</asrwt>
<pdfrwt beam="1">  1        2 0.47946271E+00 0.16650996E+04</pdfrwt>
<pdfrwt beam="2">  1       -2 0.16072183E+00 0.16650996E+04</pdfrwt>
<totfact> 0.33985031E-01</totfact>
</mgrwt>
</event>
<event>
 4    1  0.4639964E-008  0.1075422E+04  0.7818608E-02  0.9229484E-01
         -2   -1    0    0    0  501 -0.00000000000E+00  0.00000000000E+00  0.46177977437E+03  0.46177977438E+03  0.25500000000E-02 0.  1.
          2   -1    0    0  501    0  0.00000000000E+00 -0.00000000000E+00 -0.32129217775E+04  0.32129217775E+04  0.25500000000E-02 0. -1.
    8880022    1    1    2    0    0 -0.48965691319E+02  0.10633645012E+04 -0.51282286487E+03  0.11914363790E+04  0.15294330000E+03 0.  0.
    8880022    1    1    2    0    0  0.48965691319E+02 -0.10633645012E+04 -0.22383191382E+04  0.24832651729E+04  0.15294330000E+03 0.  0.
<mgrwt>
<rscale>  0 0.10754224E+04</rscale>
<asrwt>0</asrwt>
<pdfrwt beam="1">  1        2 0.49429564E+00 0.10754224E+04</pdfrwt>
<pdfrwt beam="2">  1       -2 0.71043044E-01 0.10754224E+04</pdfrwt>
<totfact> 0.23251385E+00</totfact>
</mgrwt>
</event>
<event>
 4    1  0.4639964E-008  0.7007994E+03  0.7818608E-02  0.9715866E-01
          2   -1    0    0  501    0  0.00000000000E+00  0.00000000000E+00  0.77275929166E+03  0.77275929167E+03  0.25500000000E-02 0. -1.
         -2   -1    0    0    0  501 -0.00000000000E+00 -0.00000000000E+00 -0.83801461505E+03  0.83801461505E+03  0.25500000000E-02 0.  1.
    8880022    1    1    2    0    0  0.67664054918E+03  0.99426979491E+02 -0.42850767061E+03  0.82142475848E+03  0.15294330000E+03 0.  0.
    8880022    1    1    2    0    0 -0.67664054918E+03 -0.99426979491E+02  0.36325234722E+03  0.78934914824E+03  0.15294330000E+03 0.  0.
<mgrwt>
<rscale>  0 0.70079941E+03</rscale>
<asrwt>0</asrwt>
<pdfrwt beam="1">  1        2 0.11888604E+00 0.70079941E+03</pdfrwt>
<pdfrwt beam="2">  1       -2 0.12892533E+00 0.70079941E+03</pdfrwt>
<totfact> 0.16314238E+01</totfact>
</mgrwt>
</event>
<event>
 4    1  0.4639964E-008  0.6189944E+03  0.7818608E-02  0.9866764E-01
         -2   -1    0    0    0  501 -0.00000000000E+00  0.00000000000E+00  0.74113728082E+03  0.74113728082E+03  0.25500000000E-02 0.  1.
          2   -1    0    0  501    0  0.00000000000E+00 -0.00000000000E+00 -0.14444718103E+04  0.14444718103E+04  0.25500000000E-02 0. -1.
    8880022    1    1    2    0    0  0.49391571625E+03 -0.34030818664E+03  0.52400726021E+03  0.81101027023E+03  0.15294330000E+03 0.  0.
    8880022    1    1    2    0    0 -0.49391571625E+03  0.34030818664E+03 -0.12273417897E+04  0.13745988209E+04  0.15294330000E+03 0.  0.
<mgrwt>
<rscale>  0 0.61899439E+03</rscale>
<asrwt>0</asrwt>
<pdfrwt beam="1">  1        2 0.22222643E+00 0.61899439E+03</pdfrwt>
<pdfrwt beam="2">  1       -2 0.11402112E+00 0.61899439E+03</pdfrwt>
<totfact> 0.85827298E+00</totfact>
</mgrwt>
</event>
<event>
 4    1  0.4639964E-008  0.5421303E+03  0.7818608E-02  0.1003332E+00
         -2   -1    0    0    0  501 -0.00000000000E+00  0.00000000000E+00  0.33390324072E+03  0.33390324073E+03  0.25500000000E-02 0.  1.
          2   -1    0    0  501    0  0.00000000000E+00 -0.00000000000E+00 -0.16650941152E+04  0.16650941152E+04  0.25500000000E-02 0. -1.
    8880022    1    1    2    0    0 -0.17611360514E+03  0.48938497524E+03 -0.13518185182E+04  0.14564747218E+04  0.15294330000E+03 0.  0.
    8880022    1    1    2    0    0  0.17611360514E+03 -0.48938497524E+03  0.20627643737E+02  0.54252263419E+03  0.15294330000E+03 0.  0.
<mgrwt>
<rscale>  0 0.54213034E+03</rscale>
<asrwt>0</asrwt>
<pdfrwt beam="1">  1        2 0.25616832E+00 0.54213034E+03</pdfrwt>
<pdfrwt beam="2">  1       -2 0.51369730E-01 0.54213034E+03</pdfrwt>
<totfact> 0.38732341E+01</totfact>
</mgrwt>
</event>
<event>
 4    1  0.4639964E-008  0.5030965E+03  0.7818608E-02  0.1012974E+00
          2   -1    0    0  501    0  0.00000000000E+00  0.00000000000E+00  0.52106306343E+03  0.52106306343E+03  0.25500000000E-02 0. -1.
         -2   -1    0    0    0  501 -0.00000000000E+00 -0.00000000000E+00 -0.80481459201E+03  0.80481459201E+03  0.25500000000E-02 0.  1.
    8880022    1    1    2    0    0 -0.14373467652E+03  0.45722510159E+03  0.27553650023E+03  0.57360828684E+03  0.15294330000E+03 0.  0.
    8880022    1    1    2    0    0  0.14373467652E+03 -0.45722510159E+03 -0.55928802880E+03  0.75226936860E+03  0.15294330000E+03 0.  0.
<mgrwt>
<rscale>  0 0.50309652E+03</rscale>
<asrwt>0</asrwt>
<pdfrwt beam="1">  1        2 0.80163549E-01 0.50309652E+03</pdfrwt>
<pdfrwt beam="2">  1       -2 0.12381763E+00 0.50309652E+03</pdfrwt>
<totfact> 0.29867330E+01</totfact>
</mgrwt>
</event>
<event>
 4    1  0.4639964E-008  0.3546529E+03  0.7818608E-02  0.1060721E+00
         -2   -1    0    0    0  501 -0.00000000000E+00  0.00000000000E+00  0.19407413527E+04  0.19407413527E+04  0.25500000000E-02 0.  1.
          2   -1    0    0  501    0  0.00000000000E+00 -0.00000000000E+00 -0.68983828527E+03  0.68983828527E+03  0.25500000000E-02 0. -1.
    8880022    1    1    2    0    0  0.15412518983E+03  0.28041483163E+03  0.18774326554E+04  0.19106365642E+04  0.15294330000E+03 0.  1.
    8880022    1    1    2    0    0 -0.15412518983E+03 -0.28041483163E+03 -0.62652958793E+03  0.71994307380E+03  0.15294330000E+03 0.  0.
<mgrwt>
<rscale>  0 0.35465294E+03</rscale>
<asrwt>0</asrwt>
<pdfrwt beam="1">  1        2 0.10612897E+00 0.35465294E+03</pdfrwt>
<pdfrwt beam="2">  1       -2 0.29857559E+00 0.35465294E+03</pdfrwt>
<totfact> 0.15571318E+00</totfact>
</mgrwt>
</event>
<event>
 4    1  0.4639964E-008  0.2687469E+03  0.7818608E-02  0.1101999E+00
         -2   -1    0    0    0  501 -0.00000000000E+00  0.00000000000E+00  0.41943673430E+03  0.41943673431E+03  0.25500000000E-02 0.  1.
          2   -1    0    0  501    0  0.00000000000E+00 -0.00000000000E+00 -0.28690264886E+04  0.28690264886E+04  0.25500000000E-02 0. -1.
    8880022    1    1    2    0    0  0.27242923429E+01  0.22096571301E+03 -0.28189207753E+04  0.28317025371E+04  0.15294330000E+03 0.  0.
    8880022    1    1    2    0    0 -0.27242923429E+01 -0.22096571301E+03  0.36933102096E+03  0.45676068586E+03  0.15294330000E+03 0.  1.
<mgrwt>
<rscale>  0 0.26874695E+03</rscale>
<asrwt>0</asrwt>
<pdfrwt beam="1">  1        2 0.44138868E+00 0.26874695E+03</pdfrwt>
<pdfrwt beam="2">  1       -2 0.64528730E-01 0.26874695E+03</pdfrwt>
<totfact> 0.57479643E+00</totfact>
</mgrwt>
</event>
<event>
 4    1  0.4639964E-008  0.7617514E+03  0.7818608E-02  0.9617093E-01
          2   -1    0    0  501    0  0.00000000000E+00  0.00000000000E+00  0.64920808827E+03  0.64920808827E+03  0.25500000000E-02 0. -1.
         -2   -1    0    0    0  501 -0.00000000000E+00 -0.00000000000E+00 -0.11396737147E+04  0.11396737147E+04  0.25500000000E-02 0.  1.
    8880022    1    1    2    0    0  0.56892188468E+03 -0.48290927368E+03 -0.66067771599E+03  0.10083452657E+04  0.15294330000E+03 0.  0.
    8880022    1    1    2    0    0 -0.56892188468E+03  0.48290927368E+03  0.17021208959E+03  0.78053653722E+03  0.15294330000E+03 0.  0.
<mgrwt>
<rscale>  0 0.76175136E+03</rscale>
<asrwt>0</asrwt>
<pdfrwt beam="1">  1        2 0.99878168E-01 0.76175136E+03</pdfrwt>
<pdfrwt beam="2">  1       -2 0.17533442E+00 0.76175136E+03</pdfrwt>
<totfact> 0.89393329E+00</totfact>
</mgrwt>
</event>
<event>
 4    1  0.4639964E-008  0.5301966E+03  0.7818608E-02  0.1006184E+00
          2   -1    0    0  501    0  0.00000000000E+00  0.00000000000E+00  0.18448942604E+04  0.18448942604E+04  0.25500000000E-02 0. -1.
         -2   -1    0    0    0  501 -0.00000000000E+00 -0.00000000000E+00 -0.42632625293E+03  0.42632625294E+03  0.25500000000E-02 0.  1.
    8880022    1    1    2    0    0 -0.64091451285E+02  0.50359615317E+03 -0.20104431722E+03  0.56703374690E+03  0.15294330000E+03 0.  0.
    8880022    1    1    2    0    0  0.64091451285E+02 -0.50359615317E+03  0.16196123247E+04  0.17041867664E+04  0.15294330000E+03 0.  0.
<mgrwt>
<rscale>  0 0.53019662E+03</rscale>
<asrwt>0</asrwt>
<pdfrwt beam="1">  1        2 0.28382988E+00 0.53019662E+03</pdfrwt>
<pdfrwt beam="2">  1       -2 0.65588655E-01 0.53019662E+03</pdfrwt>
<totfact> 0.18635274E+01</totfact>
</mgrwt>
</event>
<event>
 4    1  0.4639964E-008  0.7977678E+03  0.7818608E-02  0.9563254E-01
          2   -1    0    0  501    0  0.00000000000E+00  0.00000000000E+00  0.33881941105E+04  0.33881941105E+04  0.25500000000E-02 0. -1.
         -2   -1    0    0    0  501 -0.00000000000E+00 -0.00000000000E+00 -0.32883699044E+03  0.32883699045E+03  0.25500000000E-02 0.  1.
    8880022    1    1    2    0    0 -0.60666005944E+03  0.49498014882E+03  0.31269968465E+03  0.85686318700E+03  0.15294330000E+03 0.  0.
    8880022    1    1    2    0    0  0.60666005944E+03 -0.49498014882E+03  0.27466574354E+04  0.28601679140E+04  0.15294330000E+03 0.  0.
<mgrwt>
<rscale>  0 0.79776778E+03</rscale>
<asrwt>0</asrwt>
<pdfrwt beam="1">  1        2 0.52126065E+00 0.79776778E+03</pdfrwt>
<pdfrwt beam="2">  1       -2 0.50590305E-01 0.79776778E+03</pdfrwt>
<totfact> 0.38413527E+00</totfact>
</mgrwt>
</event>
<event>
 4    1  0.4639964E-008  0.8190945E+03  0.7818608E-02  0.9532783E-01
         -2   -1    0    0    0  501 -0.00000000000E+00  0.00000000000E+00  0.34353087459E+04  0.34353087459E+04  0.25500000000E-02 0.  1.
          2   -1    0    0  501    0  0.00000000000E+00 -0.00000000000E+00 -0.24653463087E+03  0.24653463088E+03  0.25500000000E-02 0. -1.
    8880022    1    1    2    0    0 -0.67907496850E+03 -0.43171897720E+03  0.24336116921E+04  0.25677580900E+04  0.15294330000E+03 0.  0.
    8880022    1    1    2    0    0  0.67907496850E+03  0.43171897720E+03  0.75516242296E+03  0.11140852868E+04  0.15294330000E+03 0.  0.
<mgrwt>
<rscale>  0 0.81909446E+03</rscale>
<asrwt>0</asrwt>
<pdfrwt beam="1">  1        2 0.37928411E-01 0.81909446E+03</pdfrwt>
<pdfrwt beam="2">  1       -2 0.52850895E+00 0.81909446E+03</pdfrwt>
<totfact> 0.15756475E-01</totfact>
</mgrwt>
</event>
<event>
 4    1  0.4639964E-008  0.3494620E+03  0.7818608E-02  0.1062836E+00
         -2   -1    0    0    0  501 -0.00000000000E+00  0.00000000000E+00  0.10745941455E+03  0.10745941458E+03  0.25500000000E-02 0.  1.
          2   -1    0    0  501    0  0.00000000000E+00 -0.00000000000E+00 -0.11644018800E+04  0.11644018800E+04  0.25500000000E-02 0. -1.
    8880022    1    1    2    0    0 -0.25509721111E+03 -0.18345973967E+03 -0.62697615138E+03  0.71779022745E+03  0.15294330000E+03 0.  0.
    8880022    1    1    2    0    0  0.25509721111E+03  0.18345973967E+03 -0.42996631405E+03  0.55407106713E+03  0.15294330000E+03 0.  0.
<mgrwt>
<rscale>  0 0.34946204E+03</rscale>
<asrwt>0</asrwt>
<pdfrwt beam="1">  1        2 0.17913874E+00 0.34946204E+03</pdfrwt>
<pdfrwt beam="2">  1       -2 0.16532218E-01 0.34946204E+03</pdfrwt>
<totfact> 0.60779436E+02</totfact>
</mgrwt>
</event>
<event>
 4    1  0.4639964E-008  0.7817485E+03  0.7818608E-02  0.9586818E-01
         -2   -1    0    0    0  501 -0.00000000000E+00  0.00000000000E+00  0.31789510982E+03  0.31789510983E+03  0.25500000000E-02 0.  1.
          2   -1    0    0  501    0  0.00000000000E+00 -0.00000000000E+00 -0.19826698711E+04  0.19826698711E+04  0.25500000000E-02 0. -1.
    8880022    1    1    2    0    0  0.37820226784E+03 -0.66685992258E+03 -0.10328923211E+04  0.12953753556E+04  0.15294330000E+03 0.  0.
    8880022    1    1    2    0    0 -0.37820226784E+03  0.66685992258E+03 -0.63188244014E+03  0.10051896253E+04  0.15294330000E+03 0.  0.
<mgrwt>
<rscale>  0 0.78174853E+03</rscale>
<asrwt>0</asrwt>
<pdfrwt beam="1">  1        2 0.30502613E+00 0.78174853E+03</pdfrwt>
<pdfrwt beam="2">  1       -2 0.48906941E-01 0.78174853E+03</pdfrwt>
<totfact> 0.27808124E+01</totfact>
</mgrwt>
</event>
<event>
 4    1  0.4639964E-008  0.4281786E+03  0.7818608E-02  0.1034437E+00
         -2   -1    0    0    0  501 -0.00000000000E+00  0.00000000000E+00  0.10974820295E+04  0.10974820295E+04  0.25500000000E-02 0.  1.
          2   -1    0    0  501    0  0.00000000000E+00 -0.00000000000E+00 -0.26646639080E+03  0.26646639081E+03  0.25500000000E-02 0. -1.
    8880022    1    1    2    0    0 -0.38676979404E+03  0.10175652699E+03 -0.10455619282E+01  0.42817988110E+03  0.15294330000E+03 0.  0.
    8880022    1    1    2    0    0  0.38676979404E+03 -0.10175652699E+03  0.83206120059E+03  0.93576853917E+03  0.15294330000E+03 0.  0.
<mgrwt>
<rscale>  0 0.42817860E+03</rscale>
<asrwt>0</asrwt>
<pdfrwt beam="1">  1        2 0.40994830E-01 0.42817860E+03</pdfrwt>
<pdfrwt beam="2">  1       -2 0.16884339E+00 0.42817860E+03</pdfrwt>
<totfact> 0.28413040E+01</totfact>
</mgrwt>
</event>
<event>
 4    1  0.7508306E-008  0.9613079E+03  0.7818608E-02  0.9352030E-01
         -2   -1    0    0    0  501 -0.00000000000E+00  0.00000000000E+00  0.11303243384E+04  0.11303243384E+04  0.25500000000E-02 0.  1.
          2   -1    0    0  501    0  0.00000000000E+00 -0.00000000000E+00 -0.27506542895E+04  0.27506542895E+04  0.25500000000E-02 0. -1.
    8880022    1    1    2    0    0  0.82782520203E+03 -0.46414083915E+03 -0.24369092066E+04  0.26196639895E+04  0.15294330000E+03 0.  0.
    8880022    1    1    2    0    0 -0.82782520203E+03  0.46414083915E+03  0.81657925550E+03  0.12613146385E+04  0.15294330000E+03 0.  0.
<mgrwt>
<rscale>  0 0.96130793E+03</rscale>
<asrwt>0</asrwt>
<pdfrwt beam="1">  1        2 0.42317758E+00 0.96130793E+03</pdfrwt>
<pdfrwt beam="2">  1       -2 0.17389605E+00 0.96130793E+03</pdfrwt>
<totfact> 0.50418770E-01</totfact>
</mgrwt>
</event>
<event>
 4    1  0.4639964E-008  0.2246655E+03  0.7818608E-02  0.1130452E+00
         -2   -1    0    0    0  501 -0.00000000000E+00  0.00000000000E+00  0.96499999393E+02  0.96499999427E+02  0.25500000000E-02 0.  1.
          2   -1    0    0  501    0  0.00000000000E+00 -0.00000000000E+00 -0.17197418259E+04  0.17197418259E+04  0.25500000000E-02 0. -1.
    8880022    1    1    2    0    0 -0.13241504076E+03  0.97719926743E+02 -0.15691559636E+04  0.15851577266E+04  0.15294330000E+03 0. -1.
    8880022    1    1    2    0    0  0.13241504076E+03 -0.97719926743E+02 -0.54085862912E+02  0.23108409873E+03  0.15294330000E+03 0.  0.
<mgrwt>
<rscale>  0 0.22466548E+03</rscale>
<asrwt>0</asrwt>
<pdfrwt beam="1">  1        2 0.26457564E+00 0.22466548E+03</pdfrwt>
<pdfrwt beam="2">  1       -2 0.14846155E-01 0.22466548E+03</pdfrwt>
<totfact> 0.36817001E+02</totfact>
</mgrwt>
</event>
<event>
 4    1  0.4639964E-008  0.6086491E+03  0.7818608E-02  0.9887623E-01
          2   -1    0    0  501    0  0.00000000000E+00  0.00000000000E+00  0.16639766395E+04  0.16639766395E+04  0.25500000000E-02 0. -1.
         -2   -1    0    0    0  501 -0.00000000000E+00 -0.00000000000E+00 -0.27677415825E+03  0.27677415827E+03  0.25500000000E-02 0.  1.
    8880022    1    1    2    0    0  0.58910739222E+03 -0.38101224062E+01  0.26441418368E+03  0.66360270504E+03  0.15294330000E+03 0.  0.
    8880022    1    1    2    0    0 -0.58910739222E+03  0.38101224062E+01  0.11227882976E+04  0.12771480928E+04  0.15294330000E+03 0.  0.
<mgrwt>
<rscale>  0 0.60864907E+03</rscale>
<asrwt>0</asrwt>
<pdfrwt beam="1">  1        2 0.25599640E+00 0.60864907E+03</pdfrwt>
<pdfrwt beam="2">  1       -2 0.42580640E-01 0.60864907E+03</pdfrwt>
<totfact> 0.55912226E+01</totfact>
</mgrwt>
</event>
<event>
 4    1  0.4639964E-008  0.5229631E+03  0.7818608E-02  0.1007953E+00
         -2   -1    0    0    0  501 -0.00000000000E+00  0.00000000000E+00  0.42197025556E+03  0.42197025557E+03  0.25500000000E-02 0.  1.
          2   -1    0    0  501    0  0.00000000000E+00 -0.00000000000E+00 -0.92241264033E+03  0.92241264033E+03  0.25500000000E-02 0. -1.
    8880022    1    1    2    0    0 -0.41210277195E+03  0.28331978862E+03  0.11632747377E+03  0.53574483800E+03  0.15294330000E+03 0.  0.
    8880022    1    1    2    0    0  0.41210277195E+03 -0.28331978862E+03 -0.61676985854E+03  0.80863805790E+03  0.15294330000E+03 0.  0.
<mgrwt>
<rscale>  0 0.52296314E+03</rscale>
<asrwt>0</asrwt>
<pdfrwt beam="1">  1        2 0.14190964E+00 0.52296314E+03</pdfrwt>
<pdfrwt beam="2">  1       -2 0.64918501E-01 0.52296314E+03</pdfrwt>
<totfact> 0.64244421E+01</totfact>
</mgrwt>
</event>
<event>
 4    1  0.4639964E-008  0.5370888E+03  0.7818608E-02  0.1004527E+00
          2   -1    0    0  501    0  0.00000000000E+00  0.00000000000E+00  0.75082584745E+03  0.75082584746E+03  0.25500000000E-02 0. -1.
         -2   -1    0    0    0  501 -0.00000000000E+00 -0.00000000000E+00 -0.12475689882E+04  0.12475689883E+04  0.25500000000E-02 0.  1.
    8880022    1    1    2    0    0 -0.21754906084E+03 -0.46663166089E+03  0.58285271636E+03  0.79257910823E+03  0.15294330000E+03 0.  0.
    8880022    1    1    2    0    0  0.21754906084E+03  0.46663166089E+03 -0.10795958572E+04  0.12058157275E+04  0.15294330000E+03 0.  1.
<mgrwt>
<rscale>  0 0.53708878E+03</rscale>
<asrwt>0</asrwt>
<pdfrwt beam="1">  1        2 0.11551167E+00 0.53708878E+03</pdfrwt>
<pdfrwt beam="2">  1       -2 0.19193369E+00 0.53708878E+03</pdfrwt>
<totfact> 0.59341986E+00</totfact>
</mgrwt>
</event>
<event>
 4    1  0.4639964E-008  0.5870312E+03  0.7818608E-02  0.9932684E-01
          2   -1    0    0  501    0  0.00000000000E+00  0.00000000000E+00  0.16754869701E+04  0.16754869701E+04  0.25500000000E-02 0. -1.
         -2   -1    0    0    0  501 -0.00000000000E+00 -0.00000000000E+00 -0.44756383914E+03  0.44756383915E+03  0.25500000000E-02 0.  1.
    8880022    1    1    2    0    0 -0.13290329237E+03 -0.55095434345E+03 -0.16642699697E+03  0.61016683950E+03  0.15294330000E+03 0.  0.
    8880022    1    1    2    0    0  0.13290329237E+03  0.55095434345E+03  0.13943501279E+04  0.15128839698E+04  0.15294330000E+03 0.  0.
<mgrwt>
<rscale>  0 0.58703120E+03</rscale>
<asrwt>0</asrwt>
<pdfrwt beam="1">  1        2 0.25776722E+00 0.58703120E+03</pdfrwt>
<pdfrwt beam="2">  1       -2 0.68855976E-01 0.58703120E+03</pdfrwt>
<totfact> 0.20512015E+01</totfact>
</mgrwt>
</event>
<event>
 4    1  0.4639964E-008  0.3944031E+03  0.7818608E-02  0.1045735E+00
         -2   -1    0    0    0  501 -0.00000000000E+00  0.00000000000E+00  0.27551281381E+03  0.27551281382E+03  0.25500000000E-02 0.  1.
          2   -1    0    0  501    0  0.00000000000E+00 -0.00000000000E+00 -0.11578566006E+04  0.11578566006E+04  0.25500000000E-02 0. -1.
    8880022    1    1    2    0    0  0.21753999363E+03 -0.29127044574E+03  0.71834820722E+02  0.40089152632E+03  0.15294330000E+03 0.  0.
    8880022    1    1    2    0    0 -0.21753999363E+03  0.29127044574E+03 -0.95417860753E+03  0.10324778881E+04  0.15294330000E+03 0.  0.
<mgrwt>
<rscale>  0 0.39440306E+03</rscale>
<asrwt>0</asrwt>
<pdfrwt beam="1">  1        2 0.17813178E+00 0.39440306E+03</pdfrwt>
<pdfrwt beam="2">  1       -2 0.42386587E-01 0.39440306E+03</pdfrwt>
<totfact> 0.11153605E+02</totfact>
</mgrwt>
</event>
<event>
 4    1  0.4639964E-008  0.7438732E+03  0.7818608E-02  0.9645012E-01
          2   -1    0    0  501    0  0.00000000000E+00  0.00000000000E+00  0.17616852410E+04  0.17616852410E+04  0.25500000000E-02 0. -1.
         -2   -1    0    0    0  501 -0.00000000000E+00 -0.00000000000E+00 -0.78350215558E+03  0.78350215558E+03  0.25500000000E-02 0.  1.
    8880022    1    1    2    0    0  0.72512224745E+03  0.64447441444E+02 -0.49592078989E+03  0.89402730904E+03  0.15294330000E+03 0.  0.
    8880022    1    1    2    0    0 -0.72512224745E+03 -0.64447441444E+02  0.14741038753E+04  0.16511600875E+04  0.15294330000E+03 0.  0.
<mgrwt>
<rscale>  0 0.74387324E+03</rscale>
<asrwt>0</asrwt>
<pdfrwt beam="1">  1        2 0.27102850E+00 0.74387324E+03</pdfrwt>
<pdfrwt beam="2">  1       -2 0.12053879E+00 0.74387324E+03</pdfrwt>
<totfact> 0.49093098E+00</totfact>
</mgrwt>
</event>
<event>
 4    1  0.4639964E-008  0.5386876E+03  0.7818608E-02  0.1004147E+00
          2   -1    0    0  501    0  0.00000000000E+00  0.00000000000E+00  0.28813736517E+04  0.28813736517E+04  0.25500000000E-02 0. -1.
         -2   -1    0    0    0  501 -0.00000000000E+00 -0.00000000000E+00 -0.17866752494E+03  0.17866752496E+03  0.25500000000E-02 0.  1.
    8880022    1    1    2    0    0  0.17211639669E+03  0.48699958518E+03  0.23620067431E+04  0.24226556003E+04  0.15294330000E+03 0.  0.
    8880022    1    1    2    0    0 -0.17211639669E+03 -0.48699958518E+03  0.34069938366E+03  0.63738557641E+03  0.15294330000E+03 0.  0.
<mgrwt>
<rscale>  0 0.53868757E+03</rscale>
<asrwt>0</asrwt>
<pdfrwt beam="1">  1        2 0.44328822E+00 0.53868757E+03</pdfrwt>
<pdfrwt beam="2">  1       -2 0.27487314E-01 0.53868757E+03</pdfrwt>
<totfact> 0.27264734E+01</totfact>
</mgrwt>
</event>
<event>
 4    1  0.4639964E-008  0.6009091E+03  0.7818608E-02  0.9903522E-01
          2   -1    0    0  501    0  0.00000000000E+00  0.00000000000E+00  0.30614928751E+03  0.30614928753E+03  0.25500000000E-02 0. -1.
         -2   -1    0    0    0  501 -0.00000000000E+00 -0.00000000000E+00 -0.11987044219E+04  0.11987044219E+04  0.25500000000E-02 0.  1.
    8880022    1    1    2    0    0  0.52602632303E+03  0.24697453138E+03 -0.35094823829E+03  0.69588535740E+03  0.15294330000E+03 0. -1.
    8880022    1    1    2    0    0 -0.52602632303E+03 -0.24697453138E+03 -0.54160689611E+03  0.80896835204E+03  0.15294330000E+03 0.  1.
<mgrwt>
<rscale>  0 0.60090912E+03</rscale>
<asrwt>0</asrwt>
<pdfrwt beam="1">  1        2 0.47099891E-01 0.60090912E+03</pdfrwt>
<pdfrwt beam="2">  1       -2 0.18441606E+00 0.60090912E+03</pdfrwt>
<totfact> 0.18686063E+01</totfact>
</mgrwt>
</event>
<event>
 4    1  0.4639964E-008  0.3165075E+03  0.7818608E-02  0.1077268E+00
         -2   -1    0    0    0  501 -0.00000000000E+00  0.00000000000E+00  0.13685574979E+03  0.13685574982E+03  0.25500000000E-02 0.  1.
          2   -1    0    0  501    0  0.00000000000E+00 -0.00000000000E+00 -0.20366430055E+04  0.20366430055E+04  0.25500000000E-02 0. -1.
    8880022    1    1    2    0    0 -0.16707151737E+03  0.22107117487E+03 -0.18196938062E+04  0.18470144985E+04  0.15294330000E+03 0.  0.
    8880022    1    1    2    0    0  0.16707151737E+03 -0.22107117487E+03 -0.80093449468E+02  0.32648425680E+03  0.15294330000E+03 0.  0.
<mgrwt>
<rscale>  0 0.31650752E+03</rscale>
<asrwt>0</asrwt>
<pdfrwt beam="1">  1        2 0.31332967E+00 0.31650752E+03</pdfrwt>
<pdfrwt beam="2">  1       -2 0.21054732E-01 0.31650752E+03</pdfrwt>
<totfact> 0.13606353E+02</totfact>
</mgrwt>
</event>
<event>
 4    1  0.4639964E-008  0.2655888E+03  0.7818608E-02  0.1103831E+00
         -2   -1    0    0    0  501 -0.00000000000E+00  0.00000000000E+00  0.41440671337E+03  0.41440671338E+03  0.25500000000E-02 0.  1.
          2   -1    0    0  501    0  0.00000000000E+00 -0.00000000000E+00 -0.17603377981E+04  0.17603377981E+04  0.25500000000E-02 0. -1.
    8880022    1    1    2    0    0  0.13989999324E+03 -0.16605348066E+03 -0.17064307080E+04  0.17269751535E+04  0.15294330000E+03 0.  0.
    8880022    1    1    2    0    0 -0.13989999324E+03  0.16605348066E+03  0.36049962328E+03  0.44776935798E+03  0.15294330000E+03 0.  1.
<mgrwt>
<rscale>  0 0.26558882E+03</rscale>
<asrwt>0</asrwt>
<pdfrwt beam="1">  1        2 0.27082119E+00 0.26558882E+03</pdfrwt>
<pdfrwt beam="2">  1       -2 0.63754880E-01 0.26558882E+03</pdfrwt>
<totfact> 0.23556432E+01</totfact>
</mgrwt>
</event>
<event>
 4    1  0.4639964E-008  0.5180907E+03  0.7818608E-02  0.1009162E+00
          2   -1    0    0  501    0  0.00000000000E+00  0.00000000000E+00  0.37339204705E+04  0.37339204705E+04  0.25500000000E-02 0. -1.
         -2   -1    0    0    0  501 -0.00000000000E+00 -0.00000000000E+00 -0.79149662608E+02  0.79149662649E+02  0.25500000000E-02 0.  1.
    8880022    1    1    2    0    0 -0.36084428167E+03  0.33884764271E+03  0.24049321664E+04  0.24601050178E+04  0.15294330000E+03 0.  0.
    8880022    1    1    2    0    0  0.36084428167E+03 -0.33884764271E+03  0.12498386415E+04  0.13529651153E+04  0.15294330000E+03 0. -1.
<mgrwt>
<rscale>  0 0.51809070E+03</rscale>
<asrwt>0</asrwt>
<pdfrwt beam="1">  1        2 0.57444924E+00 0.51809070E+03</pdfrwt>
<pdfrwt beam="2">  1       -2 0.12176872E-01 0.51809070E+03</pdfrwt>
<totfact> 0.31201984E+01</totfact>
</mgrwt>
</event>
<event>
 4    1  0.4639964E-008  0.7054578E+03  0.7818608E-02  0.9707944E-01
          2   -1    0    0  501    0  0.00000000000E+00  0.00000000000E+00  0.18949211241E+04  0.18949211242E+04  0.25500000000E-02 0. -1.
         -2   -1    0    0    0  501 -0.00000000000E+00 -0.00000000000E+00 -0.47603362575E+03  0.47603362576E+03  0.25500000000E-02 0.  1.
    8880022    1    1    2    0    0  0.28691407414E+03 -0.62606662287E+03  0.15031709415E+04  0.16604799411E+04  0.15294330000E+03 0. -1.
    8880022    1    1    2    0    0 -0.28691407414E+03  0.62606662287E+03 -0.84283443127E+02  0.71047480885E+03  0.15294330000E+03 0.  0.
<mgrwt>
<rscale>  0 0.70545783E+03</rscale>
<asrwt>0</asrwt>
<pdfrwt beam="1">  1        2 0.29152633E+00 0.70545783E+03</pdfrwt>
<pdfrwt beam="2">  1       -2 0.73235941E-01 0.70545783E+03</pdfrwt>
<totfact> 0.13370803E+01</totfact>
</mgrwt>
</event>
<event>
 4    1  0.4639964E-008  0.7038869E+03  0.7818608E-02  0.9710608E-01
         -2   -1    0    0    0  501 -0.00000000000E+00  0.00000000000E+00  0.30175133384E+03  0.30175133385E+03  0.25500000000E-02 0.  1.
          2   -1    0    0  501    0  0.00000000000E+00 -0.00000000000E+00 -0.22441969866E+04  0.22441969866E+04  0.25500000000E-02 0. -1.
    8880022    1    1    2    0    0 -0.38561576177E+03 -0.56865240503E+03 -0.31177407544E+03  0.76984401057E+03  0.15294330000E+03 0.  0.
    8880022    1    1    2    0    0  0.38561576177E+03  0.56865240503E+03 -0.16306715773E+04  0.17761043099E+04  0.15294330000E+03 0.  0.
<mgrwt>
<rscale>  0 0.70388687E+03</rscale>
<asrwt>0</asrwt>
<pdfrwt beam="1">  1        2 0.34526106E+00 0.70388687E+03</pdfrwt>
<pdfrwt beam="2">  1       -2 0.46423283E-01 0.70388687E+03</pdfrwt>
<totfact> 0.22441026E+01</totfact>
</mgrwt>
</event>
<event>
 4    1  0.4639964E-008  0.4719680E+03  0.7818608E-02  0.1021366E+00
          2   -1    0    0  501    0  0.00000000000E+00  0.00000000000E+00  0.16350574390E+04  0.16350574390E+04  0.25500000000E-02 0. -1.
         -2   -1    0    0    0  501 -0.00000000000E+00 -0.00000000000E+00 -0.85982733709E+03  0.85982733709E+03  0.25500000000E-02 0.  1.
    8880022    1    1    2    0    0 -0.42544363537E+03  0.13549846820E+03  0.15319720649E+04  0.16030259457E+04  0.15294330000E+03 0.  0.
    8880022    1    1    2    0    0  0.42544363537E+03 -0.13549846820E+03 -0.75674196303E+03  0.89185883041E+03  0.15294330000E+03 0.  0.
<mgrwt>
<rscale>  0 0.47196798E+03</rscale>
<asrwt>0</asrwt>
<pdfrwt beam="1">  1        2 0.25154730E+00 0.47196798E+03</pdfrwt>
<pdfrwt beam="2">  1       -2 0.13228113E+00 0.47196798E+03</pdfrwt>
<totfact> 0.48125694E+00</totfact>
</mgrwt>
</event>
<event>
 4    1  0.4639964E-008  0.2525966E+03  0.7818608E-02  0.1111675E+00
         -2   -1    0    0    0  501 -0.00000000000E+00  0.00000000000E+00  0.30685246515E+03  0.30685246516E+03  0.25500000000E-02 0.  1.
          2   -1    0    0  501    0  0.00000000000E+00 -0.00000000000E+00 -0.18555236413E+04  0.18555236413E+04  0.25500000000E-02 0. -1.
    8880022    1    1    2    0    0 -0.28070536935E+02 -0.19906140357E+03  0.24447282572E+03  0.35152811120E+03  0.15294330000E+03 0.  0.
    8880022    1    1    2    0    0  0.28070536935E+02  0.19906140357E+03 -0.17931440018E+04  0.18108479952E+04  0.15294330000E+03 0.  0.
<mgrwt>
<rscale>  0 0.25259662E+03</rscale>
<asrwt>0</asrwt>
<pdfrwt beam="1">  1        2 0.28546517E+00 0.25259662E+03</pdfrwt>
<pdfrwt beam="2">  1       -2 0.47208073E-01 0.25259662E+03</pdfrwt>
<totfact> 0.38948323E+01</totfact>
</mgrwt>
</event>
<event>
 4    1  0.4639964E-008  0.5343421E+03  0.7818608E-02  0.1005185E+00
         -2   -1    0    0    0  501 -0.00000000000E+00  0.00000000000E+00  0.21955053300E+03  0.21955053301E+03  0.25500000000E-02 0.  1.
          2   -1    0    0  501    0  0.00000000000E+00 -0.00000000000E+00 -0.25216704983E+04  0.25216704983E+04  0.25500000000E-02 0. -1.
    8880022    1    1    2    0    0  0.20272118732E+03 -0.47014244370E+03 -0.21048687209E+04  0.21716338970E+04  0.15294330000E+03 0.  0.
    8880022    1    1    2    0    0 -0.20272118732E+03  0.47014244370E+03 -0.19725124433E+03  0.56958713430E+03  0.15294330000E+03 0.  0.
<mgrwt>
<rscale>  0 0.53434207E+03</rscale>
<asrwt>0</asrwt>
<pdfrwt beam="1">  1        2 0.38794929E+00 0.53434207E+03</pdfrwt>
<pdfrwt beam="2">  1       -2 0.33777007E-01 0.53434207E+03</pdfrwt>
<totfact> 0.30050023E+01</totfact>
</mgrwt>
</event>
<event>
 4    1  0.4639964E-008  0.6218033E+03  0.7818608E-02  0.9861176E-01
         -2   -1    0    0    0  501 -0.00000000000E+00  0.00000000000E+00  0.23371286064E+04  0.23371286064E+04  0.25500000000E-02 0.  1.
          2   -1    0    0  501    0  0.00000000000E+00 -0.00000000000E+00 -0.72037457377E+03  0.72037457378E+03  0.25500000000E-02 0. -1.
    8880022    1    1    2    0    0 -0.81576867786E+01  0.60264516848E+03  0.21501565499E+04  0.22382610636E+04  0.15294330000E+03 0.  0.
    8880022    1    1    2    0    0  0.81576867786E+01 -0.60264516848E+03 -0.53340251731E+03  0.81924211649E+03  0.15294330000E+03 0.  0.
<mgrwt>
<rscale>  0 0.62180335E+03</rscale>
<asrwt>0</asrwt>
<pdfrwt beam="1">  1        2 0.11082686E+00 0.62180335E+03</pdfrwt>
<pdfrwt beam="2">  1       -2 0.35955824E+00 0.62180335E+03</pdfrwt>
<totfact> 0.58191389E-01</totfact>
</mgrwt>
</event>
<event>
 4    1  0.4639964E-008  0.4522159E+03  0.7818608E-02  0.1027063E+00
          2   -1    0    0  501    0  0.00000000000E+00  0.00000000000E+00  0.10367295184E+04  0.10367295184E+04  0.25500000000E-02 0. -1.
         -2   -1    0    0    0  501 -0.00000000000E+00 -0.00000000000E+00 -0.21717867769E+03  0.21717867771E+03  0.25500000000E-02 0.  1.
    8880022    1    1    2    0    0 -0.11503735584E+03 -0.40972425389E+03  0.21987712768E+03  0.50283711255E+03  0.15294330000E+03 0. -1.
    8880022    1    1    2    0    0  0.11503735584E+03  0.40972425389E+03  0.59967371303E+03  0.75107108357E+03  0.15294330000E+03 0.  0.
<mgrwt>
<rscale>  0 0.45221589E+03</rscale>
<asrwt>0</asrwt>
<pdfrwt beam="1">  1        2 0.15949685E+00 0.45221589E+03</pdfrwt>
<pdfrwt beam="2">  1       -2 0.33412104E-01 0.45221589E+03</pdfrwt>
<totfact> 0.20637080E+02</totfact>
</mgrwt>
</event>
<event>
 4    1  0.4639964E-008  0.2268614E+03  0.7818608E-02  0.1128869E+00
          2   -1    0    0  501    0  0.00000000000E+00  0.00000000000E+00  0.12650062517E+04  0.12650062517E+04  0.25500000000E-02 0. -1.
         -2   -1    0    0    0  501 -0.00000000000E+00 -0.00000000000E+00 -0.11263580538E+03  0.11263580541E+03  0.25500000000E-02 0.  1.
    8880022    1    1    2    0    0 -0.11634228898E+03 -0.12057740744E+03  0.25646804289E+02  0.22830648474E+03  0.15294330000E+03 0.  0.
    8880022    1    1    2    0    0  0.11634228898E+03  0.12057740744E+03  0.11267236420E+04  0.11493355723E+04  0.15294330000E+03 0.  0.
<mgrwt>
<rscale>  0 0.22686139E+03</rscale>
<asrwt>0</asrwt>
<pdfrwt beam="1">  1        2 0.19461634E+00 0.22686139E+03</pdfrwt>
<pdfrwt beam="2">  1       -2 0.17328586E-01 0.22686139E+03</pdfrwt>
<totfact> 0.49818714E+02</totfact>
</mgrwt>
</event>
<event>
 4    1  0.4639964E-008  0.8088303E+03  0.7818608E-02  0.9547323E-01
         -2   -1    0    0    0  501 -0.00000000000E+00  0.00000000000E+00  0.62400841131E+03  0.62400841132E+03  0.25500000000E-02 0.  1.
          2   -1    0    0  501    0  0.00000000000E+00 -0.00000000000E+00 -0.17587382095E+04  0.17587382095E+04  0.25500000000E-02 0. -1.
    8880022    1    1    2    0    0  0.73244246763E+03 -0.30715285838E+03 -0.13245146346E+04  0.15519489415E+04  0.15294330000E+03 0.  0.
    8880022    1    1    2    0    0 -0.73244246763E+03  0.30715285838E+03  0.18978483640E+03  0.83079767931E+03  0.15294330000E+03 0.  0.
<mgrwt>
<rscale>  0 0.80883033E+03</rscale>
<asrwt>0</asrwt>
<pdfrwt beam="1">  1        2 0.27057511E+00 0.80883033E+03</pdfrwt>
<pdfrwt beam="2">  1       -2 0.96001295E-01 0.80883033E+03</pdfrwt>
<totfact> 0.84499009E+00</totfact>
</mgrwt>
</event>
<event>
 4    1  0.4639964E-008  0.8325732E+03  0.7818608E-02  0.9514030E-01
         -2   -1    0    0    0  501 -0.00000000000E+00  0.00000000000E+00  0.99406355420E+03  0.99406355421E+03  0.25500000000E-02 0.  1.
          2   -1    0    0  501    0  0.00000000000E+00 -0.00000000000E+00 -0.81379199482E+03  0.81379199483E+03  0.25500000000E-02 0. -1.
    8880022    1    1    2    0    0  0.20340903922E+03  0.79272391712E+03  0.43210899526E+03  0.93802786889E+03  0.15294330000E+03 0.  0.
    8880022    1    1    2    0    0 -0.20340903922E+03 -0.79272391712E+03 -0.25183743588E+03  0.86982768014E+03  0.15294330000E+03 0.  0.
<mgrwt>
<rscale>  0 0.83257318E+03</rscale>
<asrwt>0</asrwt>
<pdfrwt beam="1">  1        2 0.12519877E+00 0.83257318E+03</pdfrwt>
<pdfrwt beam="2">  1       -2 0.15293285E+00 0.83257318E+03</pdfrwt>
<totfact> 0.96522217E+00</totfact>
</mgrwt>
</event>
<event>
 4    1  0.4639964E-008  0.3093982E+03  0.7818608E-02  0.1080635E+00
          2   -1    0    0  501    0  0.00000000000E+00  0.00000000000E+00  0.95378536182E+03  0.95378536182E+03  0.25500000000E-02 0. -1.
         -2   -1    0    0    0  501 -0.00000000000E+00 -0.00000000000E+00 -0.42805146336E+03  0.42805146337E+03  0.25500000000E-02 0.  1.
    8880022    1    1    2    0    0  0.24906321462E+03  0.10150435080E+03  0.86738267769E+03  0.92091258036E+03  0.15294330000E+03 0.  0.
    8880022    1    1    2    0    0 -0.24906321462E+03 -0.10150435080E+03 -0.34164877923E+03  0.46092424483E+03  0.15294330000E+03 0.  1.
<mgrwt>
<rscale>  0 0.30939824E+03</rscale>
<asrwt>0</asrwt>
<pdfrwt beam="1">  1        2 0.14673621E+00 0.30939824E+03</pdfrwt>
<pdfrwt beam="2">  1       -2 0.65854072E-01 0.30939824E+03</pdfrwt>
<totfact> 0.61384772E+01</totfact>
</mgrwt>
</event>
<event>
 4    1  0.4639964E-008  0.3570667E+03  0.7818608E-02  0.1059751E+00
          2   -1    0    0  501    0  0.00000000000E+00  0.00000000000E+00  0.11066885266E+04  0.11066885266E+04  0.25500000000E-02 0. -1.
         -2   -1    0    0    0  501 -0.00000000000E+00 -0.00000000000E+00 -0.28009904024E+03  0.28009904025E+03  0.25500000000E-02 0.  1.
    8880022    1    1    2    0    0 -0.21273853708E+03 -0.24258461053E+03 -0.11872276303E+03  0.37628676019E+03  0.15294330000E+03 0.  0.
    8880022    1    1    2    0    0  0.21273853708E+03  0.24258461053E+03  0.94531224941E+03  0.10105008067E+04  0.15294330000E+03 0.  0.
<mgrwt>
<rscale>  0 0.35706670E+03</rscale>
<asrwt>0</asrwt>
<pdfrwt beam="1">  1        2 0.17025978E+00 0.35706670E+03</pdfrwt>
<pdfrwt beam="2">  1       -2 0.43092160E-01 0.35706670E+03</pdfrwt>
<totfact> 0.11642037E+02</totfact>
</mgrwt>
</event>
<event>
 4    1  0.6399360E-008  0.7821761E+03  0.7818608E-02  0.9586181E-01
          2   -1    0    0  501    0  0.00000000000E+00  0.00000000000E+00  0.24727974039E+04  0.24727974039E+04  0.25500000000E-02 0. -1.
         -2   -1    0    0    0  501 -0.00000000000E+00 -0.00000000000E+00 -0.11738171741E+04  0.11738171741E+04  0.25500000000E-02 0.  1.
    8880022    1    1    2    0    0  0.34085832456E+03 -0.68718512029E+03 -0.97030525774E+03  0.12463112505E+04  0.15294330000E+03 0.  0.
    8880022    1    1    2    0    0 -0.34085832456E+03  0.68718512029E+03  0.22692854875E+04  0.24003033274E+04  0.15294330000E+03 0.  0.
<mgrwt>
<rscale>  0 0.78217609E+03</rscale>
<asrwt>0</asrwt>
<pdfrwt beam="1">  1        2 0.38043037E+00 0.78217609E+03</pdfrwt>
<pdfrwt beam="2">  1       -2 0.18058726E+00 0.78217609E+03</pdfrwt>
<totfact> 0.67910494E-01</totfact>
</mgrwt>
</event>
<event>
 4    1  0.4639964E-008  0.4926158E+03  0.7818608E-02  0.1015724E+00
          2   -1    0    0  501    0  0.00000000000E+00  0.00000000000E+00  0.16374274370E+04  0.16374274370E+04  0.25500000000E-02 0. -1.
         -2   -1    0    0    0  501 -0.00000000000E+00 -0.00000000000E+00 -0.32630089887E+03  0.32630089888E+03  0.25500000000E-02 0.  1.
    8880022    1    1    2    0    0 -0.24989121682E+03 -0.39602156296E+03 -0.69828539737E+02  0.49754032655E+03  0.15294330000E+03 0.  0.
    8880022    1    1    2    0    0  0.24989121682E+03  0.39602156296E+03  0.13809550778E+04  0.14661880093E+04  0.15294330000E+03 0.  0.
<mgrwt>
<rscale>  0 0.49261583E+03</rscale>
<asrwt>0</asrwt>
<pdfrwt beam="1">  1        2 0.25191191E+00 0.49261583E+03</pdfrwt>
<pdfrwt beam="2">  1       -2 0.50200138E-01 0.49261583E+03</pdfrwt>
<totfact> 0.42360050E+01</totfact>
</mgrwt>
</event>
<event>
 4    1  0.4639964E-008  0.1249645E+04  0.7818608E-02  0.9070478E-01
         -2   -1    0    0    0  501 -0.00000000000E+00  0.00000000000E+00  0.10013454717E+04  0.10013454717E+04  0.25500000000E-02 0.  1.
          2   -1    0    0  501    0  0.00000000000E+00 -0.00000000000E+00 -0.15890802742E+04  0.15890802742E+04  0.25500000000E-02 0. -1.
    8880022    1    1    2    0    0 -0.10475222179E+04 -0.66401749765E+03 -0.11720007828E+03  0.12551292943E+04  0.15294330000E+03 0. -1.
    8880022    1    1    2    0    0  0.10475222179E+04  0.66401749765E+03 -0.47053472423E+03  0.13352964517E+04  0.15294330000E+03 0.  1.
<mgrwt>
<rscale>  0 0.12496454E+04</rscale>
<asrwt>0</asrwt>
<pdfrwt beam="1">  1        2 0.24447389E+00 0.12496454E+04</pdfrwt>
<pdfrwt beam="2">  1       -2 0.15405315E+00 0.12496454E+04</pdfrwt>
<totfact> 0.30520614E+00</totfact>
</mgrwt>
</event>
<event>
 4    1  0.4639964E-008  0.4345516E+03  0.7818608E-02  0.1032432E+00
         -2   -1    0    0    0  501 -0.00000000000E+00  0.00000000000E+00  0.82236314876E+03  0.82236314877E+03  0.25500000000E-02 0.  1.
          2   -1    0    0  501    0  0.00000000000E+00 -0.00000000000E+00 -0.37949716105E+03  0.37949716106E+03  0.25500000000E-02 0. -1.
    8880022    1    1    2    0    0 -0.15664075681E+03 -0.37537591638E+03 -0.15620906546E+03  0.46177519469E+03  0.15294330000E+03 0.  0.
    8880022    1    1    2    0    0  0.15664075681E+03  0.37537591638E+03  0.59907505317E+03  0.74008511513E+03  0.15294330000E+03 0.  0.
<mgrwt>
<rscale>  0 0.43455156E+03</rscale>
<asrwt>0</asrwt>
<pdfrwt beam="1">  1        2 0.58384180E-01 0.43455156E+03</pdfrwt>
<pdfrwt beam="2">  1       -2 0.12651741E+00 0.43455156E+03</pdfrwt>
<totfact> 0.40780646E+01</totfact>
</mgrwt>
</event>
<event>
 4    1  0.4639964E-008  0.4094406E+03  0.7818608E-02  0.1040559E+00
          2   -1    0    0  501    0  0.00000000000E+00  0.00000000000E+00  0.22933292431E+04  0.22933292431E+04  0.25500000000E-02 0. -1.
         -2   -1    0    0    0  501 -0.00000000000E+00 -0.00000000000E+00 -0.29295982211E+03  0.29295982212E+03  0.25500000000E-02 0.  1.
    8880022    1    1    2    0    0  0.29091533036E+03  0.24416846978E+03 -0.12006874630E+03  0.42668270170E+03  0.15294330000E+03 0.  0.
    8880022    1    1    2    0    0 -0.29091533036E+03 -0.24416846978E+03  0.21204381673E+04  0.21596063635E+04  0.15294330000E+03 0.  0.
<mgrwt>
<rscale>  0 0.40944062E+03</rscale>
<asrwt>0</asrwt>
<pdfrwt beam="1">  1        2 0.35281987E+00 0.40944062E+03</pdfrwt>
<pdfrwt beam="2">  1       -2 0.45070743E-01 0.40944062E+03</pdfrwt>
<totfact> 0.23738618E+01</totfact>
</mgrwt>
</event>
<event>
 4    1  0.4639964E-008  0.4476864E+03  0.7818608E-02  0.1028414E+00
          2   -1    0    0  501    0  0.00000000000E+00  0.00000000000E+00  0.65740265343E+03  0.65740265343E+03  0.25500000000E-02 0. -1.
         -2   -1    0    0    0  501 -0.00000000000E+00 -0.00000000000E+00 -0.14137947342E+04  0.14137947342E+04  0.25500000000E-02 0.  1.
    8880022    1    1    2    0    0 -0.36338843240E+03  0.21208567689E+03 -0.12953645034E+04  0.13705445403E+04  0.15294330000E+03 0.  0.
    8880022    1    1    2    0    0  0.36338843240E+03 -0.21208567689E+03  0.53897242264E+03  0.70065284737E+03  0.15294330000E+03 0. -1.
<mgrwt>
<rscale>  0 0.44768643E+03</rscale>
<asrwt>0</asrwt>
<pdfrwt beam="1">  1        2 0.10113887E+00 0.44768643E+03</pdfrwt>
<pdfrwt beam="2">  1       -2 0.21750688E+00 0.44768643E+03</pdfrwt>
<totfact> 0.48971373E+00</totfact>
</mgrwt>
</event>
<event>
 4    1  0.4639964E-008  0.6261597E+03  0.7818608E-02  0.9852572E-01
         -2   -1    0    0    0  501 -0.00000000000E+00  0.00000000000E+00  0.12271006507E+04  0.12271006507E+04  0.25500000000E-02 0.  1.
          2   -1    0    0  501    0  0.00000000000E+00 -0.00000000000E+00 -0.99384959318E+03  0.99384959318E+03  0.25500000000E-02 0. -1.
    8880022    1    1    2    0    0 -0.30183008150E+03 -0.52686132995E+03  0.10313420504E+04  0.12065414776E+04  0.15294330000E+03 0.  0.
    8880022    1    1    2    0    0  0.30183008150E+03  0.52686132995E+03 -0.79809099294E+03  0.10144087663E+04  0.15294330000E+03 0.  0.
<mgrwt>
<rscale>  0 0.62615965E+03</rscale>
<asrwt>0</asrwt>
<pdfrwt beam="1">  1        2 0.15289994E+00 0.62615965E+03</pdfrwt>
<pdfrwt beam="2">  1       -2 0.18878472E+00 0.62615965E+03</pdfrwt>
<totfact> 0.41852421E+00</totfact>
</mgrwt>
</event>
<event>
 4    1  0.4639964E-008  0.1159837E+04  0.7818608E-02  0.9148756E-01
          2   -1    0    0  501    0  0.00000000000E+00  0.00000000000E+00  0.28071264936E+04  0.28071264936E+04  0.25500000000E-02 0. -1.
         -2   -1    0    0    0  501 -0.00000000000E+00 -0.00000000000E+00 -0.73596144235E+03  0.73596144235E+03  0.25500000000E-02 0.  1.
    8880022    1    1    2    0    0 -0.91249452957E+03 -0.69941766374E+03 -0.10762357119E+02  0.11598874153E+04  0.15294330000E+03 0.  0.
    8880022    1    1    2    0    0  0.91249452957E+03  0.69941766374E+03  0.20819274083E+04  0.23832005206E+04  0.15294330000E+03 0.  0.
<mgrwt>
<rscale>  0 0.11598375E+04</rscale>
<asrwt>0</asrwt>
<pdfrwt beam="1">  1        2 0.43186562E+00 0.11598375E+04</pdfrwt>
<pdfrwt beam="2">  1       -2 0.11322484E+00 0.11598375E+04</pdfrwt>
<totfact> 0.13895148E+00</totfact>
</mgrwt>
</event>
<event>
 4    1  0.4639964E-008  0.4822566E+03  0.7818608E-02  0.1018517E+00
          2   -1    0    0  501    0  0.00000000000E+00  0.00000000000E+00  0.10001068533E+04  0.10001068533E+04  0.25500000000E-02 0. -1.
         -2   -1    0    0    0  501 -0.00000000000E+00 -0.00000000000E+00 -0.53527806539E+03  0.53527806540E+03  0.25500000000E-02 0.  1.
    8880022    1    1    2    0    0 -0.95101119656E+02 -0.44736510426E+03 -0.34491857446E+03  0.59290828591E+03  0.15294330000E+03 0.  0.
    8880022    1    1    2    0    0  0.95101119656E+02  0.44736510426E+03  0.80974736232E+03  0.94247663275E+03  0.15294330000E+03 0. -1.
<mgrwt>
<rscale>  0 0.48225658E+03</rscale>
<asrwt>0</asrwt>
<pdfrwt beam="1">  1        2 0.15386259E+00 0.48225658E+03</pdfrwt>
<pdfrwt beam="2">  1       -2 0.82350472E-01 0.48225658E+03</pdfrwt>
<totfact> 0.34189029E+01</totfact>
</mgrwt>
</event>
<event>
 4    1  0.4639964E-008  0.3899319E+03  0.7818608E-02  0.1047323E+00
         -2   -1    0    0    0  501 -0.00000000000E+00  0.00000000000E+00  0.95168913158E+03  0.95168913158E+03  0.25500000000E-02 0.  1.
          2   -1    0    0  501    0  0.00000000000E+00 -0.00000000000E+00 -0.11924999774E+04  0.11924999774E+04  0.25500000000E-02 0. -1.
    8880022    1    1    2    0    0  0.34688075024E+03  0.91263065807E+02  0.87729071313E+03  0.96004471272E+03  0.15294330000E+03 0.  0.
    8880022    1    1    2    0    0 -0.34688075024E+03 -0.91263065807E+02 -0.11181015589E+04  0.11841443963E+04  0.15294330000E+03 0.  0.
<mgrwt>
<rscale>  0 0.38993186E+03</rscale>
<asrwt>0</asrwt>
<pdfrwt beam="1">  1        2 0.18346154E+00 0.38993186E+03</pdfrwt>
<pdfrwt beam="2">  1       -2 0.14641371E+00 0.38993186E+03</pdfrwt>
<totfact> 0.66784842E+00</totfact>
</mgrwt>
</event>
<event>
 4    1  0.4639964E-008  0.5984679E+03  0.7818608E-02  0.9908590E-01
          2   -1    0    0  501    0  0.00000000000E+00  0.00000000000E+00  0.85928255701E+03  0.85928255701E+03  0.25500000000E-02 0. -1.
         -2   -1    0    0    0  501 -0.00000000000E+00 -0.00000000000E+00 -0.81302471259E+03  0.81302471259E+03  0.25500000000E-02 0.  1.
    8880022    1    1    2    0    0  0.57319121599E+03 -0.78892556824E+02 -0.56057887153E+03  0.82000764010E+03  0.15294330000E+03 0.  0.
    8880022    1    1    2    0    0 -0.57319121599E+03  0.78892556824E+02  0.60683671595E+03  0.85229962950E+03  0.15294330000E+03 0.  0.
<mgrwt>
<rscale>  0 0.59846793E+03</rscale>
<asrwt>0</asrwt>
<pdfrwt beam="1">  1        2 0.13219732E+00 0.59846793E+03</pdfrwt>
<pdfrwt beam="2">  1       -2 0.12508072E+00 0.59846793E+03</pdfrwt>
<totfact> 0.15474250E+01</totfact>
</mgrwt>
</event>
<event>
 4    1  0.4639964E-008  0.7888971E+03  0.7818608E-02  0.9576229E-01
          2   -1    0    0  501    0  0.00000000000E+00  0.00000000000E+00  0.73223290712E+03  0.73223290712E+03  0.25500000000E-02 0. -1.
         -2   -1    0    0    0  501 -0.00000000000E+00 -0.00000000000E+00 -0.99297336716E+03  0.99297336716E+03  0.25500000000E-02 0.  1.
    8880022    1    1    2    0    0 -0.44170695416E+03 -0.63550133405E+03  0.19700919944E+03  0.81312437955E+03  0.15294330000E+03 0.  0.
    8880022    1    1    2    0    0  0.44170695416E+03  0.63550133405E+03 -0.45774965949E+03  0.91208189474E+03  0.15294330000E+03 0.  0.
<mgrwt>
<rscale>  0 0.78889710E+03</rscale>
<asrwt>0</asrwt>
<pdfrwt beam="1">  1        2 0.11265122E+00 0.78889710E+03</pdfrwt>
<pdfrwt beam="2">  1       -2 0.15276513E+00 0.78889710E+03</pdfrwt>
<totfact> 0.11167625E+01</totfact>
</mgrwt>
</event>
<event>
 4    1  0.4639964E-008  0.2533248E+03  0.7818608E-02  0.1111221E+00
         -2   -1    0    0    0  501 -0.00000000000E+00  0.00000000000E+00  0.20810075493E+03  0.20810075495E+03  0.25500000000E-02 0.  1.
          2   -1    0    0  501    0  0.00000000000E+00 -0.00000000000E+00 -0.40187432493E+03  0.40187432494E+03  0.25500000000E-02 0. -1.
    8880022    1    1    2    0    0  0.20875151604E+02 -0.20086325860E+03  0.50221354538E+02  0.25825502527E+03  0.15294330000E+03 0.  0.
    8880022    1    1    2    0    0 -0.20875151604E+02  0.20086325860E+03 -0.24399492453E+03  0.35172005462E+03  0.15294330000E+03 0.  0.
<mgrwt>
<rscale>  0 0.25332484E+03</rscale>
<asrwt>0</asrwt>
<pdfrwt beam="1">  1        2 0.61826819E-01 0.25332484E+03</pdfrwt>
<pdfrwt beam="2">  1       -2 0.32015501E-01 0.25332484E+03</pdfrwt>
<totfact> 0.72269203E+02</totfact>
</mgrwt>
</event>
<event>
 4    1  0.4639964E-008  0.2365931E+03  0.7818608E-02  0.1122083E+00
          2   -1    0    0  501    0  0.00000000000E+00  0.00000000000E+00  0.99316984463E+02  0.99316984496E+02  0.25500000000E-02 0. -1.
         -2   -1    0    0    0  501 -0.00000000000E+00 -0.00000000000E+00 -0.21530450091E+04  0.21530450091E+04  0.25500000000E-02 0.  1.
    8880022    1    1    2    0    0  0.11510839671E+03  0.13904929068E+03 -0.59248825459E+02  0.24389900484E+03  0.15294330000E+03 0.  0.
    8880022    1    1    2    0    0 -0.11510839671E+03 -0.13904929068E+03 -0.19944791992E+04  0.20084629888E+04  0.15294330000E+03 0.  1.
<mgrwt>
<rscale>  0 0.23659311E+03</rscale>
<asrwt>0</asrwt>
<pdfrwt beam="1">  1        2 0.15279538E-01 0.23659311E+03</pdfrwt>
<pdfrwt beam="2">  1       -2 0.33123766E+00 0.23659311E+03</pdfrwt>
<totfact> 0.92383142E+00</totfact>
</mgrwt>
</event>
<event>
 4    1  0.4639964E-008  0.3062667E+03  0.7818608E-02  0.1082149E+00
         -2   -1    0    0    0  501 -0.00000000000E+00  0.00000000000E+00  0.13050641377E+04  0.13050641378E+04  0.25500000000E-02 0.  1.
          2   -1    0    0  501    0  0.00000000000E+00 -0.00000000000E+00 -0.16185219302E+03  0.16185219304E+03  0.25500000000E-02 0. -1.
    8880022    1    1    2    0    0 -0.14094294750E+03  0.22481711203E+03  0.11184787580E+04  0.11596525486E+04  0.15294330000E+03 0.  0.
    8880022    1    1    2    0    0  0.14094294750E+03 -0.22481711203E+03  0.24733186719E+02  0.30726378220E+03  0.15294330000E+03 0. -1.
<mgrwt>
<rscale>  0 0.30626672E+03</rscale>
<asrwt>0</asrwt>
<pdfrwt beam="1">  1        2 0.24900338E-01 0.30626672E+03</pdfrwt>
<pdfrwt beam="2">  1       -2 0.20077910E+00 0.30626672E+03</pdfrwt>
<totfact> 0.30781493E+01</totfact>
</mgrwt>
</event>
<event>
 4    1  0.4639964E-008  0.2688613E+03  0.7818608E-02  0.1101933E+00
          2   -1    0    0  501    0  0.00000000000E+00  0.00000000000E+00  0.65680861218E+03  0.65680861218E+03  0.25500000000E-02 0. -1.
         -2   -1    0    0    0  501 -0.00000000000E+00 -0.00000000000E+00 -0.23917748397E+03  0.23917748398E+03  0.25500000000E-02 0.  1.
    8880022    1    1    2    0    0 -0.20198680978E+03 -0.89978242243E+02 -0.12034563970E+03  0.29456659928E+03  0.15294330000E+03 0.  0.
    8880022    1    1    2    0    0  0.20198680978E+03  0.89978242243E+02  0.53797676791E+03  0.60141949688E+03  0.15294330000E+03 0.  0.
<mgrwt>
<rscale>  0 0.26886132E+03</rscale>
<asrwt>0</asrwt>
<pdfrwt beam="1">  1        2 0.10104748E+00 0.26886132E+03</pdfrwt>
<pdfrwt beam="2">  1       -2 0.36796536E-01 0.26886132E+03</pdfrwt>
<totfact> 0.31921441E+02</totfact>
</mgrwt>
</event>
<event>
 4    1  0.4639964E-008  0.1451212E+04  0.7818608E-02  0.8917561E-01
          2   -1    0    0  501    0  0.00000000000E+00  0.00000000000E+00  0.34997950337E+04  0.34997950337E+04  0.25500000000E-02 0. -1.
         -2   -1    0    0    0  501 -0.00000000000E+00 -0.00000000000E+00 -0.16153588026E+04  0.16153588026E+04  0.25500000000E-02 0.  1.
    8880022    1    1    2    0    0 -0.88387457414E+03  0.11407851256E+04  0.29681669531E+04  0.33039418397E+04  0.15294330000E+03 0.  0.
    8880022    1    1    2    0    0  0.88387457414E+03 -0.11407851256E+04 -0.10837307221E+04  0.18112119966E+04  0.15294330000E+03 0.  0.
<mgrwt>
<rscale>  0 0.14512121E+04</rscale>
<asrwt>0</asrwt>
<pdfrwt beam="1">  1        2 0.53843000E+00 0.14512121E+04</pdfrwt>
<pdfrwt beam="2">  1       -2 0.24851674E+00 0.14512121E+04</pdfrwt>
<totfact> 0.50865092E-02</totfact>
</mgrwt>
</event>
<event>
 4    1  0.4639964E-008  0.1352471E+04  0.7818608E-02  0.8988959E-01
          2   -1    0    0  501    0  0.00000000000E+00  0.00000000000E+00  0.15261728958E+04  0.15261728958E+04  0.25500000000E-02 0. -1.
         -2   -1    0    0    0  501 -0.00000000000E+00 -0.00000000000E+00 -0.18751395709E+04  0.18751395709E+04  0.25500000000E-02 0.  1.
    8880022    1    1    2    0    0  0.34195530966E+03  0.12995591406E+04  0.84708080421E+03  0.15958461503E+04  0.15294330000E+03 0.  0.
    8880022    1    1    2    0    0 -0.34195530966E+03 -0.12995591406E+04 -0.11960474793E+04  0.18054663164E+04  0.15294330000E+03 0.  0.
<mgrwt>
<rscale>  0 0.13524715E+04</rscale>
<asrwt>0</asrwt>
<pdfrwt beam="1">  1        2 0.23479583E+00 0.13524715E+04</pdfrwt>
<pdfrwt beam="2">  1       -2 0.28848301E+00 0.13524715E+04</pdfrwt>
<totfact> 0.43847807E-01</totfact>
</mgrwt>
</event>
<event>
 4    1  0.4639964E-008  0.4388475E+03  0.7818608E-02  0.1031101E+00
          2   -1    0    0  501    0  0.00000000000E+00  0.00000000000E+00  0.19131392537E+04  0.19131392537E+04  0.25500000000E-02 0. -1.
         -2   -1    0    0    0  501 -0.00000000000E+00 -0.00000000000E+00 -0.14082249927E+03  0.14082249929E+03  0.25500000000E-02 0.  1.
    8880022    1    1    2    0    0 -0.21953446218E+03  0.34785066204E+03  0.14345704018E+04  0.15001931056E+04  0.15294330000E+03 0.  0.
    8880022    1    1    2    0    0  0.21953446218E+03 -0.34785066204E+03  0.33774635261E+03  0.55376864743E+03  0.15294330000E+03 0.  0.
<mgrwt>
<rscale>  0 0.43884749E+03</rscale>
<asrwt>0</asrwt>
<pdfrwt beam="1">  1        2 0.29432912E+00 0.43884749E+03</pdfrwt>
<pdfrwt beam="2">  1       -2 0.21664999E-01 0.43884749E+03</pdfrwt>
<totfact> 0.14705838E+02</totfact>
</mgrwt>
</event>
<event>
 4    1  0.4639964E-008  0.4388557E+03  0.7818608E-02  0.1031098E+00
         -2   -1    0    0    0  501 -0.00000000000E+00  0.00000000000E+00  0.66900173324E+02  0.66900173372E+02  0.25500000000E-02 0.  1.
          2   -1    0    0  501    0  0.00000000000E+00 -0.00000000000E+00 -0.42136360188E+04  0.42136360188E+04  0.25500000000E-02 0. -1.
    8880022    1    1    2    0    0  0.10373418822E+03  0.39804759275E+03 -0.32779836149E+04  0.33072300948E+04  0.15294330000E+03 0. -1.
    8880022    1    1    2    0    0 -0.10373418822E+03 -0.39804759275E+03 -0.86875223066E+03  0.97330609738E+03  0.15294330000E+03 0.  0.
<mgrwt>
<rscale>  0 0.43885569E+03</rscale>
<asrwt>0</asrwt>
<pdfrwt beam="1">  1        2 0.64825149E+00 0.43885569E+03</pdfrwt>
<pdfrwt beam="2">  1       -2 0.10292338E-01 0.43885569E+03</pdfrwt>
<totfact> 0.17860979E+01</totfact>
</mgrwt>
</event>
<event>
 4    1  0.4639964E-008  0.5819478E+03  0.7818608E-02  0.9943583E-01
          2   -1    0    0  501    0  0.00000000000E+00  0.00000000000E+00  0.23494451019E+04  0.23494451019E+04  0.25500000000E-02 0. -1.
         -2   -1    0    0    0  501 -0.00000000000E+00 -0.00000000000E+00 -0.27823982947E+03  0.27823982949E+03  0.25500000000E-02 0.  1.
    8880022    1    1    2    0    0  0.75137251755E+02  0.55644042669E+03  0.19476932309E+04  0.20327744907E+04  0.15294330000E+03 0.  0.
    8880022    1    1    2    0    0 -0.75137251755E+02 -0.55644042669E+03  0.12351204148E+03  0.59491044071E+03  0.15294330000E+03 0.  0.
<mgrwt>
<rscale>  0 0.58194777E+03</rscale>
<asrwt>0</asrwt>
<pdfrwt beam="1">  1        2 0.36145310E+00 0.58194777E+03</pdfrwt>
<pdfrwt beam="2">  1       -2 0.42806127E-01 0.58194777E+03</pdfrwt>
<totfact> 0.23542570E+01</totfact>
</mgrwt>
</event>
<event>
 4    1  0.4639964E-008  0.7125360E+03  0.7818608E-02  0.9696031E-01
          2   -1    0    0  501    0  0.00000000000E+00  0.00000000000E+00  0.23502537303E+04  0.23502537303E+04  0.25500000000E-02 0. -1.
         -2   -1    0    0    0  501 -0.00000000000E+00 -0.00000000000E+00 -0.35001931465E+03  0.35001931466E+03  0.25500000000E-02 0.  1.
    8880022    1    1    2    0    0 -0.60162793662E+03  0.34979954431E+03  0.18354874737E+04  0.19689392612E+04  0.15294330000E+03 0.  0.
    8880022    1    1    2    0    0  0.60162793662E+03 -0.34979954431E+03  0.16474694196E+03  0.73133378373E+03  0.15294330000E+03 0.  0.
<mgrwt>
<rscale>  0 0.71253600E+03</rscale>
<asrwt>0</asrwt>
<pdfrwt beam="1">  1        2 0.36157751E+00 0.71253600E+03</pdfrwt>
<pdfrwt beam="2">  1       -2 0.53849124E-01 0.71253600E+03</pdfrwt>
<totfact> 0.14473204E+01</totfact>
</mgrwt>
</event>
<event>
 4    1  0.4639964E-008  0.9878150E+03  0.7818608E-02  0.9322011E-01
          2   -1    0    0  501    0  0.00000000000E+00  0.00000000000E+00  0.67925979433E+03  0.67925979433E+03  0.25500000000E-02 0. -1.
         -2   -1    0    0    0  501 -0.00000000000E+00 -0.00000000000E+00 -0.17286236377E+04  0.17286236377E+04  0.25500000000E-02 0.  1.
    8880022    1    1    2    0    0 -0.16050085800E+03  0.96261430970E+03 -0.10195788279E+04  0.14196194821E+04  0.15294330000E+03 0.  0.
    8880022    1    1    2    0    0  0.16050085800E+03 -0.96261430970E+03 -0.29785015530E+02  0.98826394998E+03  0.15294330000E+03 0.  0.
<mgrwt>
<rscale>  0 0.98781501E+03</rscale>
<asrwt>0</asrwt>
<pdfrwt beam="1">  1        2 0.10450151E+00 0.98781501E+03</pdfrwt>
<pdfrwt beam="2">  1       -2 0.26594210E+00 0.98781501E+03</pdfrwt>
<totfact> 0.21878583E+00</totfact>
</mgrwt>
</event>
<event>
 4    1  0.4639964E-008  0.6111695E+03  0.7818608E-02  0.9882500E-01
          2   -1    0    0  501    0  0.00000000000E+00  0.00000000000E+00  0.18370447572E+04  0.18370447572E+04  0.25500000000E-02 0. -1.
         -2   -1    0    0    0  501 -0.00000000000E+00 -0.00000000000E+00 -0.39633962152E+03  0.39633962153E+03  0.25500000000E-02 0.  1.
    8880022    1    1    2    0    0  0.58891228000E+03 -0.57609246455E+02 -0.58917661700E+02  0.61400280349E+03  0.15294330000E+03 0.  0.
    8880022    1    1    2    0    0 -0.58891228000E+03  0.57609246455E+02  0.14996227974E+04  0.16193815752E+04  0.15294330000E+03 0.  0.
<mgrwt>
<rscale>  0 0.61116950E+03</rscale>
<asrwt>0</asrwt>
<pdfrwt beam="1">  1        2 0.28262227E+00 0.61116950E+03</pdfrwt>
<pdfrwt beam="2">  1       -2 0.60975326E-01 0.61116950E+03</pdfrwt>
<totfact> 0.21660450E+01</totfact>
</mgrwt>
</event>
<event>
 4    1  0.4639964E-008  0.8498841E+03  0.7818608E-02  0.9490493E-01
          2   -1    0    0  501    0  0.00000000000E+00  0.00000000000E+00  0.32853695514E+04  0.32853695514E+04  0.25500000000E-02 0. -1.
         -2   -1    0    0    0  501 -0.00000000000E+00 -0.00000000000E+00 -0.26448706364E+03  0.26448706365E+03  0.25500000000E-02 0.  1.
    8880022    1    1    2    0    0 -0.43833193446E+03  0.71188232663E+03  0.22395712178E+04  0.23954085714E+04  0.15294330000E+03 0.  0.
    8880022    1    1    2    0    0  0.43833193446E+03 -0.71188232663E+03  0.78131127001E+03  0.11544480436E+04  0.15294330000E+03 0.  0.
<mgrwt>
<rscale>  0 0.84988410E+03</rscale>
<asrwt>0</asrwt>
<pdfrwt beam="1">  1        2 0.50544144E+00 0.84988410E+03</pdfrwt>
<pdfrwt beam="2">  1       -2 0.40690320E-01 0.84988410E+03</pdfrwt>
<totfact> 0.68729571E+00</totfact>
</mgrwt>
</event>
<event>
 4    1  0.4639964E-008  0.7093566E+03  0.7818608E-02  0.9701364E-01
          2   -1    0    0  501    0  0.00000000000E+00  0.00000000000E+00  0.17264835698E+04  0.17264835698E+04  0.25500000000E-02 0. -1.
         -2   -1    0    0    0  501 -0.00000000000E+00 -0.00000000000E+00 -0.49877689251E+03  0.49877689252E+03  0.25500000000E-02 0.  1.
    8880022    1    1    2    0    0 -0.69260978847E+03 -0.93194576585E+01 -0.10348423352E+03  0.71686526696E+03  0.15294330000E+03 0.  0.
    8880022    1    1    2    0    0  0.69260978847E+03  0.93194576585E+01  0.13311909108E+04  0.15083951954E+04  0.15294330000E+03 0.  0.
<mgrwt>
<rscale>  0 0.70935663E+03</rscale>
<asrwt>0</asrwt>
<pdfrwt beam="1">  1        2 0.26561285E+00 0.70935663E+03</pdfrwt>
<pdfrwt beam="2">  1       -2 0.76734907E-01 0.70935663E+03</pdfrwt>
<totfact> 0.14883775E+01</totfact>
</mgrwt>
</event>
<event>
 4    1  0.4639964E-008  0.5201840E+03  0.7818608E-02  0.1008641E+00
          2   -1    0    0  501    0  0.00000000000E+00  0.00000000000E+00  0.13527256714E+04  0.13527256714E+04  0.25500000000E-02 0. -1.
         -2   -1    0    0    0  501 -0.00000000000E+00 -0.00000000000E+00 -0.22432537452E+03  0.22432537454E+03  0.25500000000E-02 0.  1.
    8880022    1    1    2    0    0 -0.44573292998E+03 -0.22027678500E+03  0.82367845816E+03  0.97418558926E+03  0.15294330000E+03 0.  0.
    8880022    1    1    2    0    0  0.44573292998E+03  0.22027678500E+03  0.30472183875E+03  0.60286545671E+03  0.15294330000E+03 0.  0.
<mgrwt>
<rscale>  0 0.52018397E+03</rscale>
<asrwt>0</asrwt>
<pdfrwt beam="1">  1        2 0.20811164E+00 0.52018397E+03</pdfrwt>
<pdfrwt beam="2">  1       -2 0.34511596E-01 0.52018397E+03</pdfrwt>
<totfact> 0.12587074E+02</totfact>
</mgrwt>
</event>
<event>
 4    1  0.4639964E-008  0.5904110E+03  0.7818608E-02  0.9925502E-01
         -2   -1    0    0    0  501 -0.00000000000E+00  0.00000000000E+00  0.26291991653E+03  0.26291991655E+03  0.25500000000E-02 0.  1.
          2   -1    0    0  501    0  0.00000000000E+00 -0.00000000000E+00 -0.20234900398E+04  0.20234900398E+04  0.25500000000E-02 0. -1.
    8880022    1    1    2    0    0 -0.55482200320E+03  0.13178012684E+03 -0.15515560327E+04  0.16600937422E+04  0.15294330000E+03 0.  0.
    8880022    1    1    2    0    0  0.55482200320E+03 -0.13178012684E+03 -0.20901409051E+03  0.62631621415E+03  0.15294330000E+03 0.  0.
<mgrwt>
<rscale>  0 0.59041097E+03</rscale>
<asrwt>0</asrwt>
<pdfrwt beam="1">  1        2 0.31130615E+00 0.59041097E+03</pdfrwt>
<pdfrwt beam="2">  1       -2 0.40449219E-01 0.59041097E+03</pdfrwt>
<totfact> 0.39588463E+01</totfact>
</mgrwt>
</event>
<event>
 4    1  0.4639964E-008  0.5798875E+03  0.7818608E-02  0.9948035E-01
         -2   -1    0    0    0  501 -0.00000000000E+00  0.00000000000E+00  0.49825618485E+03  0.49825618486E+03  0.25500000000E-02 0.  1.
          2   -1    0    0  501    0  0.00000000000E+00 -0.00000000000E+00 -0.83324246694E+03  0.83324246694E+03  0.25500000000E-02 0. -1.
    8880022    1    1    2    0    0  0.32809078910E+03  0.45302795401E+03  0.12273099033E+03  0.59273302760E+03  0.15294330000E+03 0.  0.
    8880022    1    1    2    0    0 -0.32809078910E+03 -0.45302795401E+03 -0.45771727241E+03  0.73876562419E+03  0.15294330000E+03 0.  0.
<mgrwt>
<rscale>  0 0.57988753E+03</rscale>
<asrwt>0</asrwt>
<pdfrwt beam="1">  1        2 0.12819115E+00 0.57988753E+03</pdfrwt>
<pdfrwt beam="2">  1       -2 0.76654798E-01 0.57988753E+03</pdfrwt>
<totfact> 0.51080676E+01</totfact>
</mgrwt>
</event>
<event>
 4    1  0.4639964E-008  0.3580989E+03  0.7818608E-02  0.1059339E+00
          2   -1    0    0  501    0  0.00000000000E+00  0.00000000000E+00  0.27331698390E+03  0.27331698391E+03  0.25500000000E-02 0. -1.
         -2   -1    0    0    0  501 -0.00000000000E+00 -0.00000000000E+00 -0.13140945839E+04  0.13140945839E+04  0.25500000000E-02 0.  1.
    8880022    1    1    2    0    0 -0.29726301299E+03 -0.12836610817E+03 -0.11568217927E+04  0.12109795496E+04  0.15294330000E+03 0.  0.
    8880022    1    1    2    0    0  0.29726301299E+03  0.12836610817E+03  0.11604419269E+03  0.37643201816E+03  0.15294330000E+03 0.  0.
<mgrwt>
<rscale>  0 0.35809888E+03</rscale>
<asrwt>0</asrwt>
<pdfrwt beam="1">  1        2 0.42048768E-01 0.35809888E+03</pdfrwt>
<pdfrwt beam="2">  1       -2 0.20216839E+00 0.35809888E+03</pdfrwt>
<totfact> 0.16744994E+01</totfact>
</mgrwt>
</event>
<event>
 4    1  0.4639964E-008  0.5253454E+03  0.7818608E-02  0.1007367E+00
          2   -1    0    0  501    0  0.00000000000E+00  0.00000000000E+00  0.34481400214E+04  0.34481400214E+04  0.25500000000E-02 0. -1.
         -2   -1    0    0    0  501 -0.00000000000E+00 -0.00000000000E+00 -0.23759712197E+03  0.23759712198E+03  0.25500000000E-02 0.  1.
    8880022    1    1    2    0    0 -0.43036375349E+03 -0.25958271823E+03  0.10457337454E+03  0.53565230476E+03  0.15294330000E+03 0.  0.
    8880022    1    1    2    0    0  0.43036375349E+03  0.25958271823E+03  0.31059695249E+04  0.31500848386E+04  0.15294330000E+03 0.  0.
<mgrwt>
<rscale>  0 0.52534541E+03</rscale>
<asrwt>0</asrwt>
<pdfrwt beam="1">  1        2 0.53048308E+00 0.52534541E+03</pdfrwt>
<pdfrwt beam="2">  1       -2 0.36553403E-01 0.52534541E+03</pdfrwt>
<totfact> 0.70963304E+00</totfact>
</mgrwt>
</event>
<event>
 4    1  0.4639964E-008  0.2338753E+03  0.7818608E-02  0.1123942E+00
          2   -1    0    0  501    0  0.00000000000E+00  0.00000000000E+00  0.80327504541E+03  0.80327504542E+03  0.25500000000E-02 0. -1.
         -2   -1    0    0    0  501 -0.00000000000E+00 -0.00000000000E+00 -0.72479493118E+02  0.72479493163E+02  0.25500000000E-02 0.  1.
    8880022    1    1    2    0    0  0.97354332470E+02  0.14774340788E+03  0.47311611027E+03  0.52776556105E+03  0.15294330000E+03 0. -1.
    8880022    1    1    2    0    0 -0.97354332470E+02 -0.14774340788E+03  0.25767944203E+03  0.34798897753E+03  0.15294330000E+03 0.  1.
<mgrwt>
<rscale>  0 0.23387525E+03</rscale>
<asrwt>0</asrwt>
<pdfrwt beam="1">  1        2 0.12358077E+00 0.23387525E+03</pdfrwt>
<pdfrwt beam="2">  1       -2 0.11150692E-01 0.23387525E+03</pdfrwt>
<totfact> 0.19602962E+03</totfact>
</mgrwt>
</event>
<event>
 4    1  0.4639964E-008  0.1722189E+03  0.7818608E-02  0.1175553E+00
         -2   -1    0    0    0  501 -0.00000000000E+00  0.00000000000E+00  0.14270716201E+03  0.14270716203E+03  0.25500000000E-02 0.  1.
          2   -1    0    0  501    0  0.00000000000E+00 -0.00000000000E+00 -0.12064836449E+04  0.12064836449E+04  0.25500000000E-02 0. -1.
    8880022    1    1    2    0    0  0.30054296438E+02 -0.73242385531E+02  0.81858634294E+02  0.19068349901E+03  0.15294330000E+03 0.  0.
    8880022    1    1    2    0    0 -0.30054296438E+02  0.73242385531E+02 -0.11456351171E+04  0.11585073079E+04  0.15294330000E+03 0. -1.
<mgrwt>
<rscale>  0 0.17221893E+03</rscale>
<asrwt>0</asrwt>
<pdfrwt beam="1">  1        2 0.18561286E+00 0.17221893E+03</pdfrwt>
<pdfrwt beam="2">  1       -2 0.21954949E-01 0.17221893E+03</pdfrwt>
<totfact> 0.36220564E+02</totfact>
</mgrwt>
</event>
<event>
 4    1  0.4639964E-008  0.4723010E+03  0.7818608E-02  0.1021273E+00
          2   -1    0    0  501    0  0.00000000000E+00  0.00000000000E+00  0.17852039325E+04  0.17852039325E+04  0.25500000000E-02 0. -1.
         -2   -1    0    0    0  501 -0.00000000000E+00 -0.00000000000E+00 -0.32923724681E+03  0.32923724682E+03  0.25500000000E-02 0.  1.
    8880022    1    1    2    0    0  0.98711975398E+02  0.43581254498E+03 -0.10479143215E+03  0.48378665310E+03  0.15294330000E+03 0.  0.
    8880022    1    1    2    0    0 -0.98711975398E+02 -0.43581254498E+03  0.15607581178E+04  0.16306545262E+04  0.15294330000E+03 0.  0.
<mgrwt>
<rscale>  0 0.47230105E+03</rscale>
<asrwt>0</asrwt>
<pdfrwt beam="1">  1        2 0.27464675E+00 0.47230105E+03</pdfrwt>
<pdfrwt beam="2">  1       -2 0.50651885E-01 0.47230105E+03</pdfrwt>
<totfact> 0.34760347E+01</totfact>
</mgrwt>
</event>
<event>
 4    1  0.4639964E-008  0.4692840E+03  0.7818608E-02  0.1022123E+00
          2   -1    0    0  501    0  0.00000000000E+00  0.00000000000E+00  0.30596796373E+04  0.30596796373E+04  0.25500000000E-02 0. -1.
         -2   -1    0    0    0  501 -0.00000000000E+00 -0.00000000000E+00 -0.17394133363E+03  0.17394133365E+03  0.25500000000E-02 0.  1.
    8880022    1    1    2    0    0 -0.19507320369E+03 -0.39847487531E+03  0.26807568710E+04  0.27215225216E+04  0.15294330000E+03 0.  0.
    8880022    1    1    2    0    0  0.19507320369E+03  0.39847487531E+03  0.20498143260E+03  0.51209844931E+03  0.15294330000E+03 0.  0.
<mgrwt>
<rscale>  0 0.46928396E+03</rscale>
<asrwt>0</asrwt>
<pdfrwt beam="1">  1        2 0.47071994E+00 0.46928396E+03</pdfrwt>
<pdfrwt beam="2">  1       -2 0.26760206E-01 0.46928396E+03</pdfrwt>
<totfact> 0.22742450E+01</totfact>
</mgrwt>
</event>
<event>
 4    1  0.4639964E-008  0.5447669E+03  0.7818608E-02  0.1002712E+00
          2   -1    0    0  501    0  0.00000000000E+00  0.00000000000E+00  0.45039450947E+04  0.45039450947E+04  0.25500000000E-02 0. -1.
         -2   -1    0    0    0  501 -0.00000000000E+00 -0.00000000000E+00 -0.31231159178E+03  0.31231159179E+03  0.25500000000E-02 0.  1.
    8880022    1    1    2    0    0 -0.26209365346E+03 -0.45242261404E+03 -0.43247253581E+02  0.54648081653E+03  0.15294330000E+03 0.  0.
    8880022    1    1    2    0    0  0.26209365346E+03  0.45242261404E+03  0.42348807565E+04  0.42697758699E+04  0.15294330000E+03 0. -1.
<mgrwt>
<rscale>  0 0.54476688E+03</rscale>
<asrwt>0</asrwt>
<pdfrwt beam="1">  1        2 0.69291455E+00 0.54476688E+03</pdfrwt>
<pdfrwt beam="2">  1       -2 0.48047943E-01 0.54476688E+03</pdfrwt>
<totfact> 0.61133680E-01</totfact>
</mgrwt>
</event>
<event>
 4    1  0.4639964E-008  0.7804233E+03  0.7818608E-02  0.9588794E-01
         -2   -1    0    0    0  501 -0.00000000000E+00  0.00000000000E+00  0.13300983488E+04  0.13300983488E+04  0.25500000000E-02 0.  1.
          2   -1    0    0  501    0  0.00000000000E+00 -0.00000000000E+00 -0.17905174266E+04  0.17905174266E+04  0.25500000000E-02 0. -1.
    8880022    1    1    2    0    0  0.40516757532E+03  0.64923660354E+03 -0.15762952818E+04  0.17589108562E+04  0.15294330000E+03 0.  0.
    8880022    1    1    2    0    0 -0.40516757532E+03 -0.64923660354E+03  0.11158762040E+04  0.13617049192E+04  0.15294330000E+03 0.  1.
<mgrwt>
<rscale>  0 0.78042334E+03</rscale>
<asrwt>0</asrwt>
<pdfrwt beam="1">  1        2 0.27546422E+00 0.78042334E+03</pdfrwt>
<pdfrwt beam="2">  1       -2 0.20463052E+00 0.78042334E+03</pdfrwt>
<totfact> 0.11195418E+00</totfact>
</mgrwt>
</event>
<event>
 4    1  0.4639964E-008  0.9047407E+03  0.7818608E-02  0.9419675E-01
         -2   -1    0    0    0  501 -0.00000000000E+00  0.00000000000E+00  0.33014856191E+03  0.33014856192E+03  0.25500000000E-02 0.  1.
          2   -1    0    0  501    0  0.00000000000E+00 -0.00000000000E+00 -0.26835554891E+04  0.26835554891E+04  0.25500000000E-02 0. -1.
    8880022    1    1    2    0    0  0.81343283858E+03  0.36536443355E+03 -0.15923677222E+04  0.18314449945E+04  0.15294330000E+03 0.  0.
    8880022    1    1    2    0    0 -0.81343283858E+03 -0.36536443355E+03 -0.76103920501E+03  0.11822590565E+04  0.15294330000E+03 0.  0.
<mgrwt>
<rscale>  0 0.90474074E+03</rscale>
<asrwt>0</asrwt>
<pdfrwt beam="1">  1        2 0.41285468E+00 0.90474074E+03</pdfrwt>
<pdfrwt beam="2">  1       -2 0.50792088E-01 0.90474074E+03</pdfrwt>
<totfact> 0.10239169E+01</totfact>
</mgrwt>
</event>
<event>
 4    1  0.6576378E-008  0.1301500E+04  0.7818608E-02  0.9028376E-01
         -2   -1    0    0    0  501 -0.00000000000E+00  0.00000000000E+00  0.22451761450E+04  0.22451761450E+04  0.25500000000E-02 0.  1.
          2   -1    0    0  501    0  0.00000000000E+00 -0.00000000000E+00 -0.14818646462E+04  0.14818646462E+04  0.25500000000E-02 0. -1.
    8880022    1    1    2    0    0 -0.12553602189E+04  0.30754112176E+03  0.16872763759E+04  0.21309162448E+04  0.15294330000E+03 0.  0.
    8880022    1    1    2    0    0  0.12553602189E+04 -0.30754112176E+03 -0.92396487710E+03  0.15961245465E+04  0.15294330000E+03 0.  0.
<mgrwt>
<rscale>  0 0.13015001E+04</rscale>
<asrwt>0</asrwt>
<pdfrwt beam="1">  1        2 0.22797918E+00 0.13015001E+04</pdfrwt>
<pdfrwt beam="2">  1       -2 0.34541171E+00 0.13015001E+04</pdfrwt>
<totfact> 0.20875594E-01</totfact>
</mgrwt>
</event>
<event>
 4    1  0.4639964E-008  0.1140991E+04  0.7818608E-02  0.9166135E-01
          2   -1    0    0  501    0  0.00000000000E+00  0.00000000000E+00  0.31091335627E+04  0.31091335627E+04  0.25500000000E-02 0. -1.
         -2   -1    0    0    0  501 -0.00000000000E+00 -0.00000000000E+00 -0.48925621376E+03  0.48925621377E+03  0.25500000000E-02 0.  1.
    8880022    1    1    2    0    0 -0.25761635598E+03 -0.11009558286E+04  0.62679667700E+03  0.13018201300E+04  0.15294330000E+03 0.  0.
    8880022    1    1    2    0    0  0.25761635598E+03  0.11009558286E+04  0.19930806719E+04  0.22965696465E+04  0.15294330000E+03 0.  0.
<mgrwt>
<rscale>  0 0.11409915E+04</rscale>
<asrwt>0</asrwt>
<pdfrwt beam="1">  1        2 0.47832825E+00 0.11409915E+04</pdfrwt>
<pdfrwt beam="2">  1       -2 0.75270185E-01 0.11409915E+04</pdfrwt>
<totfact> 0.23611137E+00</totfact>
</mgrwt>
</event>
<event>
 4    1  0.4639964E-008  0.6837815E+03  0.7818608E-02  0.9745377E-01
          2   -1    0    0  501    0  0.00000000000E+00  0.00000000000E+00  0.16959329168E+04  0.16959329168E+04  0.25500000000E-02 0. -1.
         -2   -1    0    0    0  501 -0.00000000000E+00 -0.00000000000E+00 -0.89136189278E+03  0.89136189278E+03  0.25500000000E-02 0.  1.
    8880022    1    1    2    0    0 -0.63294458432E+03  0.20867820862E+03  0.14774191283E+04  0.16279816876E+04  0.15294330000E+03 0.  0.
    8880022    1    1    2    0    0  0.63294458432E+03 -0.20867820862E+03 -0.67284810426E+03  0.95931312197E+03  0.15294330000E+03 0.  0.
<mgrwt>
<rscale>  0 0.68378147E+03</rscale>
<asrwt>0</asrwt>
<pdfrwt beam="1">  1        2 0.26091275E+00 0.68378147E+03</pdfrwt>
<pdfrwt beam="2">  1       -2 0.13713260E+00 0.68378147E+03</pdfrwt>
<totfact> 0.38911182E+00</totfact>
</mgrwt>
</event>
<event>
 4    1  0.4639964E-008  0.5207287E+03  0.7818608E-02  0.1008506E+00
         -2   -1    0    0    0  501 -0.00000000000E+00  0.00000000000E+00  0.12639236889E+04  0.12639236889E+04  0.25500000000E-02 0.  1.
          2   -1    0    0  501    0  0.00000000000E+00 -0.00000000000E+00 -0.69226802492E+03  0.69226802492E+03  0.25500000000E-02 0. -1.
    8880022    1    1    2    0    0  0.49244726122E+03  0.72542365896E+02 -0.52669583865E+03  0.74065299527E+03  0.15294330000E+03 0. -1.
    8880022    1    1    2    0    0 -0.49244726122E+03 -0.72542365896E+02  0.10983515026E+04  0.12155387185E+04  0.15294330000E+03 0.  0.
<mgrwt>
<rscale>  0 0.52072867E+03</rscale>
<asrwt>0</asrwt>
<pdfrwt beam="1">  1        2 0.10650277E+00 0.52072867E+03</pdfrwt>
<pdfrwt beam="2">  1       -2 0.19444980E+00 0.52072867E+03</pdfrwt>
<totfact> 0.63472092E+00</totfact>
</mgrwt>
</event>
<event>
 4    1  0.4639964E-008  0.2666792E+03  0.7818608E-02  0.1103195E+00
          2   -1    0    0  501    0  0.00000000000E+00  0.00000000000E+00  0.86935401817E+03  0.86935401818E+03  0.25500000000E-02 0. -1.
         -2   -1    0    0    0  501 -0.00000000000E+00 -0.00000000000E+00 -0.37944804311E+03  0.37944804312E+03  0.25500000000E-02 0.  1.
    8880022    1    1    2    0    0  0.21283531599E+03 -0.49267607842E+02  0.79796562383E+03  0.84134829812E+03  0.15294330000E+03 0.  0.
    8880022    1    1    2    0    0 -0.21283531599E+03  0.49267607842E+02 -0.30805964876E+03  0.40745376318E+03  0.15294330000E+03 0.  1.
<mgrwt>
<rscale>  0 0.26667925E+03</rscale>
<asrwt>0</asrwt>
<pdfrwt beam="1">  1        2 0.13374677E+00 0.26667925E+03</pdfrwt>
<pdfrwt beam="2">  1       -2 0.58376622E-01 0.26667925E+03</pdfrwt>
<totfact> 0.90345488E+01</totfact>
</mgrwt>
</event>
<event>
 4    1  0.4639964E-008  0.5459137E+03  0.7818608E-02  0.1002444E+00
          2   -1    0    0  501    0  0.00000000000E+00  0.00000000000E+00  0.79695397834E+03  0.79695397834E+03  0.25500000000E-02 0. -1.
         -2   -1    0    0    0  501 -0.00000000000E+00 -0.00000000000E+00 -0.42239222990E+03  0.42239222991E+03  0.25500000000E-02 0.  1.
    8880022    1    1    2    0    0  0.17213286360E+03  0.49497509219E+03  0.39374602923E+03  0.67309557506E+03  0.15294330000E+03 0.  0.
    8880022    1    1    2    0    0 -0.17213286360E+03 -0.49497509219E+03 -0.19184280795E+02  0.54625063319E+03  0.15294330000E+03 0.  0.
<mgrwt>
<rscale>  0 0.54591365E+03</rscale>
<asrwt>0</asrwt>
<pdfrwt beam="1">  1        2 0.12260830E+00 0.54591365E+03</pdfrwt>
<pdfrwt beam="2">  1       -2 0.64983421E-01 0.54591365E+03</pdfrwt>
<totfact> 0.77903458E+01</totfact>
</mgrwt>
</event>
<event>
 4    1  0.4639964E-008  0.6946424E+03  0.7818608E-02  0.9726438E-01
         -2   -1    0    0    0  501 -0.00000000000E+00  0.00000000000E+00  0.60195951024E+03  0.60195951025E+03  0.25500000000E-02 0.  1.
          2   -1    0    0  501    0  0.00000000000E+00 -0.00000000000E+00 -0.14434656691E+04  0.14434656691E+04  0.25500000000E-02 0. -1.
    8880022    1    1    2    0    0  0.31919336962E+03 -0.59770565838E+03 -0.11027366683E+04  0.13032867197E+04  0.15294330000E+03 0.  0.
    8880022    1    1    2    0    0 -0.31919336962E+03  0.59770565838E+03  0.26123050936E+03  0.74213845966E+03  0.15294330000E+03 0.  0.
<mgrwt>
<rscale>  0 0.69464244E+03</rscale>
<asrwt>0</asrwt>
<pdfrwt beam="1">  1        2 0.22207164E+00 0.69464244E+03</pdfrwt>
<pdfrwt beam="2">  1       -2 0.92609156E-01 0.69464244E+03</pdfrwt>
<totfact> 0.13935095E+01</totfact>
</mgrwt>
</event>
<event>
 4    1  0.4639964E-008  0.5123197E+03  0.7818608E-02  0.1010612E+00
          2   -1    0    0  501    0  0.00000000000E+00  0.00000000000E+00  0.29345782058E+04  0.29345782058E+04  0.25500000000E-02 0. -1.
         -2   -1    0    0    0  501 -0.00000000000E+00 -0.00000000000E+00 -0.10490257302E+03  0.10490257305E+03  0.25500000000E-02 0.  1.
    8880022    1    1    2    0    0  0.47162561448E+03 -0.12903130262E+03  0.83138742647E+03  0.97656361964E+03  0.15294330000E+03 0.  0.
    8880022    1    1    2    0    0 -0.47162561448E+03  0.12903130262E+03  0.19982882063E+04  0.20629171592E+04  0.15294330000E+03 0.  0.
<mgrwt>
<rscale>  0 0.51231968E+03</rscale>
<asrwt>0</asrwt>
<pdfrwt beam="1">  1        2 0.45147360E+00 0.51231968E+03</pdfrwt>
<pdfrwt beam="2">  1       -2 0.16138856E-01 0.51231968E+03</pdfrwt>
<totfact> 0.64821783E+01</totfact>
</mgrwt>
</event>
<event>
 4    1  0.4639964E-008  0.1067530E+04  0.7818608E-02  0.9237430E-01
         -2   -1    0    0    0  501 -0.00000000000E+00  0.00000000000E+00  0.87924043103E+03  0.87924043103E+03  0.25500000000E-02 0.  1.
          2   -1    0    0  501    0  0.00000000000E+00 -0.00000000000E+00 -0.21258791275E+04  0.21258791275E+04  0.25500000000E-02 0. -1.
    8880022    1    1    2    0    0  0.26583482027E+03 -0.10225269840E+04 -0.15620316364E+04  0.18919735914E+04  0.15294330000E+03 0.  0.
    8880022    1    1    2    0    0 -0.26583482027E+03  0.10225269840E+04  0.31539293989E+03  0.11131459671E+04  0.15294330000E+03 0.  0.
<mgrwt>
<rscale>  0 0.10675304E+04</rscale>
<asrwt>0</asrwt>
<pdfrwt beam="1">  1        2 0.32705832E+00 0.10675304E+04</pdfrwt>
<pdfrwt beam="2">  1       -2 0.13526776E+00 0.10675304E+04</pdfrwt>
<totfact> 0.22107905E+00</totfact>
</mgrwt>
</event>
<event>
 4    1  0.4639964E-008  0.1963637E+03  0.7818608E-02  0.1152844E+00
          2   -1    0    0  501    0  0.00000000000E+00  0.00000000000E+00  0.12542167551E+04  0.12542167551E+04  0.25500000000E-02 0. -1.
         -2   -1    0    0    0  501 -0.00000000000E+00 -0.00000000000E+00 -0.21215658247E+03  0.21215658249E+03  0.25500000000E-02 0.  1.
    8880022    1    1    2    0    0  0.97400971401E+02  0.75366451774E+02  0.11990163581E+04  0.12149892720E+04  0.15294330000E+03 0. -1.
    8880022    1    1    2    0    0 -0.97400971401E+02 -0.75366451774E+02 -0.15695618539E+03  0.25138406558E+03  0.15294330000E+03 0.  0.
<mgrwt>
<rscale>  0 0.19636370E+03</rscale>
<asrwt>0</asrwt>
<pdfrwt beam="1">  1        2 0.19295642E+00 0.19636370E+03</pdfrwt>
<pdfrwt beam="2">  1       -2 0.32639474E-01 0.19636370E+03</pdfrwt>
<totfact> 0.16744067E+02</totfact>
</mgrwt>
</event>
<event>
 4    1  0.6428791E-008  0.5121412E+03  0.7818608E-02  0.1010658E+00
         -2   -1    0    0    0  501 -0.00000000000E+00  0.00000000000E+00  0.14991853364E+04  0.14991853364E+04  0.25500000000E-02 0.  1.
          2   -1    0    0  501    0  0.00000000000E+00 -0.00000000000E+00 -0.14956828412E+04  0.14956828412E+04  0.25500000000E-02 0. -1.
    8880022    1    1    2    0    0 -0.50170611994E+02 -0.48618916914E+03 -0.14053805302E+04  0.14957884497E+04  0.15294330000E+03 0.  0.
    8880022    1    1    2    0    0  0.50170611994E+02  0.48618916914E+03  0.14088830254E+04  0.14990797280E+04  0.15294330000E+03 0.  0.
<mgrwt>
<rscale>  0 0.51214124E+03</rscale>
<asrwt>0</asrwt>
<pdfrwt beam="1">  1        2 0.23010505E+00 0.51214124E+03</pdfrwt>
<pdfrwt beam="2">  1       -2 0.23064390E+00 0.51214124E+03</pdfrwt>
<totfact> 0.11867086E+00</totfact>
</mgrwt>
</event>
<event>
 4    1  0.4639964E-008  0.4109045E+03  0.7818608E-02  0.1040068E+00
          2   -1    0    0  501    0  0.00000000000E+00  0.00000000000E+00  0.81551737101E+03  0.81551737101E+03  0.25500000000E-02 0. -1.
         -2   -1    0    0    0  501 -0.00000000000E+00 -0.00000000000E+00 -0.21556533224E+03  0.21556533226E+03  0.25500000000E-02 0.  1.
    8880022    1    1    2    0    0  0.91936670753E+02  0.37013306636E+03  0.19743463113E+03  0.45587599721E+03  0.15294330000E+03 0.  0.
    8880022    1    1    2    0    0 -0.91936670753E+02 -0.37013306636E+03  0.40251740763E+03  0.57520670607E+03  0.15294330000E+03 0.  0.
<mgrwt>
<rscale>  0 0.41090448E+03</rscale>
<asrwt>0</asrwt>
<pdfrwt beam="1">  1        2 0.12546421E+00 0.41090448E+03</pdfrwt>
<pdfrwt beam="2">  1       -2 0.33163897E-01 0.41090448E+03</pdfrwt>
<totfact> 0.29280749E+02</totfact>
</mgrwt>
</event>
<event>
 4    1  0.4639964E-008  0.3524080E+03  0.7818608E-02  0.1061631E+00
          2   -1    0    0  501    0  0.00000000000E+00  0.00000000000E+00  0.13532688636E+04  0.13532688636E+04  0.25500000000E-02 0. -1.
         -2   -1    0    0    0  501 -0.00000000000E+00 -0.00000000000E+00 -0.26763342887E+03  0.26763342888E+03  0.25500000000E-02 0.  1.
    8880022    1    1    2    0    0 -0.25778081852E+03 -0.18533426531E+03  0.11997834049E+04  0.12504685570E+04  0.15294330000E+03 0.  0.
    8880022    1    1    2    0    0  0.25778081852E+03  0.18533426531E+03 -0.11414797017E+03  0.37043373551E+03  0.15294330000E+03 0.  0.
<mgrwt>
<rscale>  0 0.35240799E+03</rscale>
<asrwt>0</asrwt>
<pdfrwt beam="1">  1        2 0.20819521E+00 0.35240799E+03</pdfrwt>
<pdfrwt beam="2">  1       -2 0.41174374E-01 0.35240799E+03</pdfrwt>
<totfact> 0.91986467E+01</totfact>
</mgrwt>
</event>
<event>
 4    1  0.4639964E-008  0.1045231E+04  0.7818608E-02  0.9260281E-01
          2   -1    0    0  501    0  0.00000000000E+00  0.00000000000E+00  0.15664868844E+04  0.15664868844E+04  0.25500000000E-02 0. -1.
         -2   -1    0    0    0  501 -0.00000000000E+00 -0.00000000000E+00 -0.86394171483E+03  0.86394171483E+03  0.25500000000E-02 0.  1.
    8880022    1    1    2    0    0  0.10255312564E+04  0.13191941535E+03 -0.18223206801E+03  0.10609982421E+04  0.15294330000E+03 0.  0.
    8880022    1    1    2    0    0 -0.10255312564E+04 -0.13191941535E+03  0.88477723760E+03  0.13694303572E+04  0.15294330000E+03 0.  0.
<mgrwt>
<rscale>  0 0.10452314E+04</rscale>
<asrwt>0</asrwt>
<pdfrwt beam="1">  1        2 0.24099798E+00 0.10452314E+04</pdfrwt>
<pdfrwt beam="2">  1       -2 0.13291411E+00 0.10452314E+04</pdfrwt>
<totfact> 0.47267998E+00</totfact>
</mgrwt>
</event>
<event>
 4    1  0.4639964E-008  0.6801913E+03  0.7818608E-02  0.9751721E-01
          2   -1    0    0  501    0  0.00000000000E+00  0.00000000000E+00  0.23086866067E+04  0.23086866067E+04  0.25500000000E-02 0. -1.
         -2   -1    0    0    0  501 -0.00000000000E+00 -0.00000000000E+00 -0.23735351879E+03  0.23735351880E+03  0.25500000000E-02 0.  1.
    8880022    1    1    2    0    0  0.65945959065E+03  0.66193239337E+02  0.53336217504E+03  0.86436992047E+03  0.15294330000E+03 0.  0.
    8880022    1    1    2    0    0 -0.65945959065E+03 -0.66193239337E+02  0.15379709128E+04  0.16816702050E+04  0.15294330000E+03 0.  0.
<mgrwt>
<rscale>  0 0.68019126E+03</rscale>
<asrwt>0</asrwt>
<pdfrwt beam="1">  1        2 0.35518254E+00 0.68019126E+03</pdfrwt>
<pdfrwt beam="2">  1       -2 0.36515927E-01 0.68019126E+03</pdfrwt>
<totfact> 0.33202466E+01</totfact>
</mgrwt>
</event>
<event>
 4    1  0.4639964E-008  0.1915616E+03  0.7818608E-02  0.1157060E+00
         -2   -1    0    0    0  501 -0.00000000000E+00  0.00000000000E+00  0.23590099315E+03  0.23590099316E+03  0.25500000000E-02 0.  1.
          2   -1    0    0  501    0  0.00000000000E+00 -0.00000000000E+00 -0.20448319111E+04  0.20448319111E+04  0.25500000000E-02 0. -1.
    8880022    1    1    2    0    0  0.65455248376E+02  0.94972647747E+02  0.19166766986E+03  0.27098402544E+03  0.15294330000E+03 0.  0.
    8880022    1    1    2    0    0 -0.65455248376E+02 -0.94972647747E+02 -0.20005985878E+04  0.20097488789E+04  0.15294330000E+03 0. -1.
<mgrwt>
<rscale>  0 0.19156160E+03</rscale>
<asrwt>0</asrwt>
<pdfrwt beam="1">  1        2 0.31458951E+00 0.19156160E+03</pdfrwt>
<pdfrwt beam="2">  1       -2 0.36292462E-01 0.19156160E+03</pdfrwt>
<totfact> 0.52812864E+01</totfact>
</mgrwt>
</event>
<event>
 4    1  0.4639964E-008  0.4079995E+03  0.7818608E-02  0.1041044E+00
         -2   -1    0    0    0  501 -0.00000000000E+00  0.00000000000E+00  0.75551856235E+02  0.75551856278E+02  0.25500000000E-02 0.  1.
          2   -1    0    0  501    0  0.00000000000E+00 -0.00000000000E+00 -0.40351928796E+04  0.40351928796E+04  0.25500000000E-02 0. -1.
    8880022    1    1    2    0    0  0.30705737629E+03 -0.22087935602E+03 -0.33646877278E+04  0.33893343124E+04  0.15294330000E+03 0.  0.
    8880022    1    1    2    0    0 -0.30705737629E+03  0.22087935602E+03 -0.59495329555E+03  0.72141042351E+03  0.15294330000E+03 0.  0.
<mgrwt>
<rscale>  0 0.40799948E+03</rscale>
<asrwt>0</asrwt>
<pdfrwt beam="1">  1        2 0.62079874E+00 0.40799948E+03</pdfrwt>
<pdfrwt beam="2">  1       -2 0.11623366E-01 0.40799948E+03</pdfrwt>
<totfact> 0.20674021E+01</totfact>
</mgrwt>
</event>
<event>
 4    1  0.4639964E-008  0.1941840E+03  0.7818608E-02  0.1154741E+00
         -2   -1    0    0    0  501 -0.00000000000E+00  0.00000000000E+00  0.76822323588E+03  0.76822323589E+03  0.25500000000E-02 0.  1.
          2   -1    0    0  501    0  0.00000000000E+00 -0.00000000000E+00 -0.28087267433E+03  0.28087267434E+03  0.25500000000E-02 0. -1.
    8880022    1    1    2    0    0  0.97542409203E+02  0.69291167030E+02 -0.23283973952E+03  0.30318605630E+03  0.15294330000E+03 0.  0.
    8880022    1    1    2    0    0 -0.97542409203E+02 -0.69291167030E+02  0.72019030107E+03  0.74590985393E+03  0.15294330000E+03 0.  1.
<mgrwt>
<rscale>  0 0.19418404E+03</rscale>
<asrwt>0</asrwt>
<pdfrwt beam="1">  1        2 0.43211182E-01 0.19418404E+03</pdfrwt>
<pdfrwt beam="2">  1       -2 0.11818819E+00 0.19418404E+03</pdfrwt>
<totfact> 0.69054774E+01</totfact>
</mgrwt>
</event>
<event>
 4    1  0.4639964E-008  0.5006700E+03  0.7818608E-02  0.1013604E+00
         -2   -1    0    0    0  501 -0.00000000000E+00  0.00000000000E+00  0.70079922985E+03  0.70079922985E+03  0.25500000000E-02 0.  1.
          2   -1    0    0  501    0  0.00000000000E+00 -0.00000000000E+00 -0.67517822015E+03  0.67517822016E+03  0.25500000000E-02 0. -1.
    8880022    1    1    2    0    0 -0.44731894759E+03 -0.16487754476E+03 -0.45896385464E+03  0.67920418029E+03  0.15294330000E+03 0.  0.
    8880022    1    1    2    0    0  0.44731894759E+03  0.16487754476E+03  0.48458486433E+03  0.69677326972E+03  0.15294330000E+03 0.  0.
<mgrwt>
<rscale>  0 0.50067005E+03</rscale>
<asrwt>0</asrwt>
<pdfrwt beam="1">  1        2 0.10387357E+00 0.50067005E+03</pdfrwt>
<pdfrwt beam="2">  1       -2 0.10781527E+00 0.50067005E+03</pdfrwt>
<totfact> 0.30740959E+01</totfact>
</mgrwt>
</event>
<event>
 4    1  0.4639964E-008  0.8705298E+03  0.7818608E-02  0.9463189E-01
         -2   -1    0    0    0  501 -0.00000000000E+00  0.00000000000E+00  0.23991412075E+04  0.23991412075E+04  0.25500000000E-02 0.  1.
          2   -1    0    0  501    0  0.00000000000E+00 -0.00000000000E+00 -0.69296674962E+03  0.69296674962E+03  0.25500000000E-02 0. -1.
    8880022    1    1    2    0    0  0.13818492234E+03 -0.84577502436E+03  0.19935826779E+04  0.21753606624E+04  0.15294330000E+03 0.  0.
    8880022    1    1    2    0    0 -0.13818492234E+03  0.84577502436E+03 -0.28740822001E+03  0.91674729480E+03  0.15294330000E+03 0.  0.
<mgrwt>
<rscale>  0 0.87052979E+03</rscale>
<asrwt>0</asrwt>
<pdfrwt beam="1">  1        2 0.10661027E+00 0.87052979E+03</pdfrwt>
<pdfrwt beam="2">  1       -2 0.36909865E+00 0.87052979E+03</pdfrwt>
<totfact> 0.50601228E-01</totfact>
</mgrwt>
</event>
<event>
 4    1  0.4639964E-008  0.1570342E+03  0.7818608E-02  0.1192086E+00
          2   -1    0    0  501    0  0.00000000000E+00  0.00000000000E+00  0.40165571890E+02  0.40165571971E+02  0.25500000000E-02 0. -1.
         -2   -1    0    0    0  501 -0.00000000000E+00 -0.00000000000E+00 -0.13516246936E+04  0.13516246936E+04  0.25500000000E-02 0.  1.
    8880022    1    1    2    0    0 -0.33252619271E+02 -0.12741708854E+02 -0.14162963878E+03  0.21146795367E+03  0.15294330000E+03 0. -1.
    8880022    1    1    2    0    0  0.33252619271E+02  0.12741708854E+02 -0.11698294829E+04  0.11803223119E+04  0.15294330000E+03 0.  0.
<mgrwt>
<rscale>  0 0.15703420E+03</rscale>
<asrwt>0</asrwt>
<pdfrwt beam="1">  1        2 0.61793198E-02 0.15703420E+03</pdfrwt>
<pdfrwt beam="2">  1       -2 0.20794223E+00 0.15703420E+03</pdfrwt>
<totfact> 0.15289075E+02</totfact>
</mgrwt>
</event>
<event>
 4    1  0.4639964E-008  0.9439891E+03  0.7818608E-02  0.9372204E-01
          2   -1    0    0  501    0  0.00000000000E+00  0.00000000000E+00  0.22931583404E+04  0.22931583404E+04  0.25500000000E-02 0. -1.
         -2   -1    0    0    0  501 -0.00000000000E+00 -0.00000000000E+00 -0.49936624708E+03  0.49936624709E+03  0.25500000000E-02 0.  1.
    8880022    1    1    2    0    0  0.65797069427E+03 -0.65939238707E+03  0.15545027058E+04  0.18186792103E+04  0.15294330000E+03 0.  0.
    8880022    1    1    2    0    0 -0.65797069427E+03  0.65939238707E+03  0.23928938749E+03  0.97384537716E+03  0.15294330000E+03 0.  0.
<mgrwt>
<rscale>  0 0.94398909E+03</rscale>
<asrwt>0</asrwt>
<pdfrwt beam="1">  1        2 0.35279360E+00 0.94398909E+03</pdfrwt>
<pdfrwt beam="2">  1       -2 0.76825575E-01 0.94398909E+03</pdfrwt>
<totfact> 0.70207418E+00</totfact>
</mgrwt>
</event>
<event>
 4    1  0.4639964E-008  0.3540480E+03  0.7818608E-02  0.1060966E+00
         -2   -1    0    0    0  501 -0.00000000000E+00  0.00000000000E+00  0.87041666023E+02  0.87041666060E+02  0.25500000000E-02 0.  1.
          2   -1    0    0  501    0  0.00000000000E+00 -0.00000000000E+00 -0.22692487541E+04  0.22692487541E+04  0.25500000000E-02 0. -1.
    8880022    1    1    2    0    0  0.25946572166E+03  0.18610706341E+03 -0.37895558212E+03  0.51861091967E+03  0.15294330000E+03 0.  0.
    8880022    1    1    2    0    0 -0.25946572166E+03 -0.18610706341E+03 -0.18032515060E+04  0.18376795005E+04  0.15294330000E+03 0. -1.
<mgrwt>
<rscale>  0 0.35404795E+03</rscale>
<asrwt>0</asrwt>
<pdfrwt beam="1">  1        2 0.34911515E+00 0.35404795E+03</pdfrwt>
<pdfrwt beam="2">  1       -2 0.13391027E-01 0.35404795E+03</pdfrwt>
<totfact> 0.21761786E+02</totfact>
</mgrwt>
</event>
<event>
 4    1  0.4639964E-008  0.2596961E+03  0.7818608E-02  0.1107326E+00
         -2   -1    0    0    0  501 -0.00000000000E+00  0.00000000000E+00  0.14923632549E+03  0.14923632551E+03  0.25500000000E-02 0.  1.
          2   -1    0    0  501    0  0.00000000000E+00 -0.00000000000E+00 -0.19456460587E+04  0.19456460587E+04  0.25500000000E-02 0. -1.
    8880022    1    1    2    0    0  0.11484869565E+03  0.17567063553E+03  0.19565475229E+02  0.26043205624E+03  0.15294330000E+03 0.  0.
    8880022    1    1    2    0    0 -0.11484869565E+03 -0.17567063553E+03 -0.18159752084E+04  0.18344503279E+04  0.15294330000E+03 0.  0.
<mgrwt>
<rscale>  0 0.25969607E+03</rscale>
<asrwt>0</asrwt>
<pdfrwt beam="1">  1        2 0.29933015E+00 0.25969607E+03</pdfrwt>
<pdfrwt beam="2">  1       -2 0.22959436E-01 0.25969607E+03</pdfrwt>
<totfact> 0.13263843E+02</totfact>
</mgrwt>
</event>
<event>
 4    1  0.4639964E-008  0.2682918E+03  0.7818608E-02  0.1102261E+00
         -2   -1    0    0    0  501 -0.00000000000E+00  0.00000000000E+00  0.70961958134E+02  0.70961958180E+02  0.25500000000E-02 0.  1.
          2   -1    0    0  501    0  0.00000000000E+00 -0.00000000000E+00 -0.16378987179E+04  0.16378987179E+04  0.25500000000E-02 0. -1.
    8880022    1    1    2    0    0  0.19377041432E+03  0.10508030746E+03 -0.13106583993E+04  0.13378362893E+04  0.15294330000E+03 0.  0.
    8880022    1    1    2    0    0 -0.19377041432E+03 -0.10508030746E+03 -0.25627836048E+03  0.37102438673E+03  0.15294330000E+03 0.  0.
<mgrwt>
<rscale>  0 0.26829181E+03</rscale>
<asrwt>0</asrwt>
<pdfrwt beam="1">  1        2 0.25198439E+00 0.26829181E+03</pdfrwt>
<pdfrwt beam="2">  1       -2 0.10917226E-01 0.26829181E+03</pdfrwt>
<totfact> 0.66581450E+02</totfact>
</mgrwt>
</event>
<event>
 4    1  0.5967532E-008  0.4336016E+03  0.7818608E-02  0.1032728E+00
          2   -1    0    0  501    0  0.00000000000E+00  0.00000000000E+00  0.23431509057E+04  0.23431509057E+04  0.25500000000E-02 0. -1.
         -2   -1    0    0    0  501 -0.00000000000E+00 -0.00000000000E+00 -0.63922402296E+03  0.63922402296E+03  0.25500000000E-02 0.  1.
    8880022    1    1    2    0    0 -0.40435651817E+03 -0.33384670491E+02  0.22464234646E+04  0.22878874023E+04  0.15294330000E+03 0.  0.
    8880022    1    1    2    0    0  0.40435651817E+03  0.33384670491E+02 -0.54249658186E+03  0.69448752642E+03  0.15294330000E+03 0.  0.
<mgrwt>
<rscale>  0 0.43360164E+03</rscale>
<asrwt>0</asrwt>
<pdfrwt beam="1">  1        2 0.36048476E+00 0.43360164E+03</pdfrwt>
<pdfrwt beam="2">  1       -2 0.98342156E-01 0.43360164E+03</pdfrwt>
<totfact> 0.41501584E+00</totfact>
</mgrwt>
</event>
<event>
 4    1  0.4639964E-008  0.7114261E+03  0.7818608E-02  0.9697889E-01
         -2   -1    0    0    0  501 -0.00000000000E+00  0.00000000000E+00  0.87184732283E+03  0.87184732283E+03  0.25500000000E-02 0.  1.
          2   -1    0    0  501    0  0.00000000000E+00 -0.00000000000E+00 -0.29492465811E+04  0.29492465811E+04  0.25500000000E-02 0. -1.
    8880022    1    1    2    0    0 -0.41072679678E+03 -0.56039182430E+03 -0.27509189488E+04  0.28414225688E+04  0.15294330000E+03 0.  0.
    8880022    1    1    2    0    0  0.41072679678E+03  0.56039182430E+03  0.67351969055E+03  0.97967133515E+03  0.15294330000E+03 0.  0.
<mgrwt>
<rscale>  0 0.71142614E+03</rscale>
<asrwt>0</asrwt>
<pdfrwt beam="1">  1        2 0.45373024E+00 0.71142614E+03</pdfrwt>
<pdfrwt beam="2">  1       -2 0.13413036E+00 0.71142614E+03</pdfrwt>
<totfact> 0.80877261E-01</totfact>
</mgrwt>
</event>
<event>
 4    1  0.4639964E-008  0.6050793E+03  0.7818608E-02  0.9894924E-01
         -2   -1    0    0    0  501 -0.00000000000E+00  0.00000000000E+00  0.10014434277E+04  0.10014434277E+04  0.25500000000E-02 0.  1.
          2   -1    0    0  501    0  0.00000000000E+00 -0.00000000000E+00 -0.90560090321E+03  0.90560090321E+03  0.25500000000E-02 0. -1.
    8880022    1    1    2    0    0 -0.32837111875E+03  0.48466659505E+03  0.78423402579E+03  0.99052711230E+03  0.15294330000E+03 0.  0.
    8880022    1    1    2    0    0  0.32837111875E+03 -0.48466659505E+03 -0.68839150129E+03  0.91651721863E+03  0.15294330000E+03 0.  0.
<mgrwt>
<rscale>  0 0.60507929E+03</rscale>
<asrwt>0</asrwt>
<pdfrwt beam="1">  1        2 0.13932322E+00 0.60507929E+03</pdfrwt>
<pdfrwt beam="2">  1       -2 0.15406822E+00 0.60507929E+03</pdfrwt>
<totfact> 0.84152818E+00</totfact>
</mgrwt>
</event>
<event>
 4    1  0.4639964E-008  0.5351461E+03  0.7818608E-02  0.1004992E+00
          2   -1    0    0  501    0  0.00000000000E+00  0.00000000000E+00  0.28444920924E+04  0.28444920924E+04  0.25500000000E-02 0. -1.
         -2   -1    0    0    0  501 -0.00000000000E+00 -0.00000000000E+00 -0.18033336711E+03  0.18033336713E+03  0.25500000000E-02 0.  1.
    8880022    1    1    2    0    0 -0.49943408590E+03  0.11642734487E+03  0.23372420051E+04  0.23977242494E+04  0.15294330000E+03 0.  0.
    8880022    1    1    2    0    0  0.49943408590E+03 -0.11642734487E+03  0.32691672023E+03  0.62710121015E+03  0.15294330000E+03 0.  0.
<mgrwt>
<rscale>  0 0.53514614E+03</rscale>
<asrwt>0</asrwt>
<pdfrwt beam="1">  1        2 0.43761416E+00 0.53514614E+03</pdfrwt>
<pdfrwt beam="2">  1       -2 0.27743596E-01 0.53514614E+03</pdfrwt>
<totfact> 0.28209944E+01</totfact>
</mgrwt>
</event>
<event>
 4    1  0.4639964E-008  0.6136780E+03  0.7818608E-02  0.9877428E-01
          2   -1    0    0  501    0  0.00000000000E+00  0.00000000000E+00  0.53648062049E+03  0.53648062050E+03  0.25500000000E-02 0. -1.
         -2   -1    0    0    0  501 -0.00000000000E+00 -0.00000000000E+00 -0.12983953507E+04  0.12983953507E+04  0.25500000000E-02 0.  1.
    8880022    1    1    2    0    0  0.59049118977E+03  0.67298849619E+02  0.24083632866E+03  0.65924409028E+03  0.15294330000E+03 0.  0.
    8880022    1    1    2    0    0 -0.59049118977E+03 -0.67298849619E+02 -0.10027510589E+04  0.11756318809E+04  0.15294330000E+03 0.  0.
<mgrwt>
<rscale>  0 0.61367796E+03</rscale>
<asrwt>0</asrwt>
<pdfrwt beam="1">  1        2 0.82535481E-01 0.61367796E+03</pdfrwt>
<pdfrwt beam="2">  1       -2 0.19975313E+00 0.61367796E+03</pdfrwt>
<totfact> 0.78508705E+00</totfact>
</mgrwt>
</event>
<event>
 4    1  0.4639964E-008  0.4112326E+03  0.7818608E-02  0.1039958E+00
          2   -1    0    0  501    0  0.00000000000E+00  0.00000000000E+00  0.77834957886E+03  0.77834957887E+03  0.25500000000E-02 0. -1.
         -2   -1    0    0    0  501 -0.00000000000E+00 -0.00000000000E+00 -0.22770426830E+03  0.22770426832E+03  0.25500000000E-02 0.  1.
    8880022    1    1    2    0    0 -0.35739499441E+02  0.38005697831E+03  0.38300133715E+03  0.56196289544E+03  0.15294330000E+03 0.  0.
    8880022    1    1    2    0    0  0.35739499441E+02 -0.38005697831E+03  0.16764397341E+03  0.44409095174E+03  0.15294330000E+03 0. -1.
<mgrwt>
<rscale>  0 0.41123262E+03</rscale>
<asrwt>0</asrwt>
<pdfrwt beam="1">  1        2 0.11974609E+00 0.41123262E+03</pdfrwt>
<pdfrwt beam="2">  1       -2 0.35031426E-01 0.41123262E+03</pdfrwt>
<totfact> 0.28066092E+02</totfact>
</mgrwt>
</event>
<event>
 4    1  0.4639964E-008  0.9314609E+03  0.7818608E-02  0.9387086E-01
          2   -1    0    0  501    0  0.00000000000E+00  0.00000000000E+00  0.12106865345E+04  0.12106865345E+04  0.25500000000E-02 0. -1.
         -2   -1    0    0    0  501 -0.00000000000E+00 -0.00000000000E+00 -0.13093797108E+04  0.13093797108E+04  0.25500000000E-02 0.  1.
    8880022    1    1    2    0    0 -0.24484951196E+03  0.88559388026E+03 -0.89712678991E+03  0.12932346788E+04  0.15294330000E+03 0.  0.
    8880022    1    1    2    0    0  0.24484951196E+03 -0.88559388026E+03  0.79843361357E+03  0.12268315665E+04  0.15294330000E+03 0.  0.
<mgrwt>
<rscale>  0 0.93146093E+03</rscale>
<asrwt>0</asrwt>
<pdfrwt beam="1">  1        2 0.18625947E+00 0.93146093E+03</pdfrwt>
<pdfrwt beam="2">  1       -2 0.20144303E+00 0.93146093E+03</pdfrwt>
<totfact> 0.24309971E+00</totfact>
</mgrwt>
</event>
<event>
 4    1  0.4639964E-008  0.8250828E+03  0.7818608E-02  0.9524404E-01
          2   -1    0    0  501    0  0.00000000000E+00  0.00000000000E+00  0.14966494321E+04  0.14966494321E+04  0.25500000000E-02 0. -1.
         -2   -1    0    0    0  501 -0.00000000000E+00 -0.00000000000E+00 -0.82391672971E+03  0.82391672972E+03  0.25500000000E-02 0.  1.
    8880022    1    1    2    0    0  0.73569545237E+03 -0.34076709518E+03  0.11129183684E+04  0.13854057021E+04  0.15294330000E+03 0.  0.
    8880022    1    1    2    0    0 -0.73569545237E+03  0.34076709518E+03 -0.44018566601E+03  0.93516045969E+03  0.15294330000E+03 0.  0.
<mgrwt>
<rscale>  0 0.82508282E+03</rscale>
<asrwt>0</asrwt>
<pdfrwt beam="1">  1        2 0.23025375E+00 0.82508282E+03</pdfrwt>
<pdfrwt beam="2">  1       -2 0.12675642E+00 0.82508282E+03</pdfrwt>
<totfact> 0.59884311E+00</totfact>
</mgrwt>
</event>
<event>
 4    1  0.4639964E-008  0.2485470E+03  0.7818608E-02  0.1114227E+00
         -2   -1    0    0    0  501 -0.00000000000E+00  0.00000000000E+00  0.19133095710E+02  0.19133095880E+02  0.25500000000E-02 0.  1.
          2   -1    0    0  501    0  0.00000000000E+00 -0.00000000000E+00 -0.41839463659E+04  0.41839463659E+04  0.25500000000E-02 0. -1.
    8880022    1    1    2    0    0  0.24784610537E+02 -0.19434421788E+03 -0.10782640775E+04  0.11065392112E+04  0.15294330000E+03 0.  1.
    8880022    1    1    2    0    0 -0.24784610537E+02  0.19434421788E+03 -0.30865491926E+04  0.30965402506E+04  0.15294330000E+03 0.  0.
<mgrwt>
<rscale>  0 0.24854699E+03</rscale>
<asrwt>0</asrwt>
<pdfrwt beam="1">  1        2 0.64368333E+00 0.24854699E+03</pdfrwt>
<pdfrwt beam="2">  1       -2 0.29435565E-02 0.24854699E+03</pdfrwt>
<totfact> 0.14075952E+02</totfact>
</mgrwt>
</event>
<event>
 4    1  0.4639964E-008  0.8508464E+03  0.7818608E-02  0.9489202E-01
          2   -1    0    0  501    0  0.00000000000E+00  0.00000000000E+00  0.30897626376E+04  0.30897626376E+04  0.25500000000E-02 0. -1.
         -2   -1    0    0    0  501 -0.00000000000E+00 -0.00000000000E+00 -0.34321544330E+03  0.34321544330E+03  0.25500000000E-02 0.  1.
    8880022    1    1    2    0    0  0.62930547473E+03 -0.55183568481E+03  0.40633917909E+03  0.94289510818E+03  0.15294330000E+03 0.  0.
    8880022    1    1    2    0    0 -0.62930547473E+03  0.55183568481E+03  0.23402080152E+04  0.24900829727E+04  0.15294330000E+03 0.  0.
<mgrwt>
<rscale>  0 0.85084644E+03</rscale>
<asrwt>0</asrwt>
<pdfrwt beam="1">  1        2 0.47534808E+00 0.85084644E+03</pdfrwt>
<pdfrwt beam="2">  1       -2 0.52802378E-01 0.85084644E+03</pdfrwt>
<totfact> 0.54237125E+00</totfact>
</mgrwt>
</event>
<event>
 4    1  0.4639964E-008  0.3586424E+03  0.7818608E-02  0.1059123E+00
         -2   -1    0    0    0  501 -0.00000000000E+00  0.00000000000E+00  0.39150333522E+03  0.39150333523E+03  0.25500000000E-02 0.  1.
          2   -1    0    0  501    0  0.00000000000E+00 -0.00000000000E+00 -0.60092722181E+03  0.60092722181E+03  0.25500000000E-02 0. -1.
    8880022    1    1    2    0    0  0.30556639687E+03 -0.10891220081E+03 -0.43879379864E+03  0.56671363237E+03  0.15294330000E+03 0.  0.
    8880022    1    1    2    0    0 -0.30556639687E+03  0.10891220081E+03  0.22936991205E+03  0.42571692467E+03  0.15294330000E+03 0.  0.
<mgrwt>
<rscale>  0 0.35864236E+03</rscale>
<asrwt>0</asrwt>
<pdfrwt beam="1">  1        2 0.92450342E-01 0.35864236E+03</pdfrwt>
<pdfrwt beam="2">  1       -2 0.60231282E-01 0.35864236E+03</pdfrwt>
<totfact> 0.13224462E+02</totfact>
</mgrwt>
</event>
<event>
 4    1  0.4639964E-008  0.2744596E+03  0.7818608E-02  0.1098754E+00
         -2   -1    0    0    0  501 -0.00000000000E+00  0.00000000000E+00  0.57480317373E+02  0.57480317430E+02  0.25500000000E-02 0.  1.
          2   -1    0    0  501    0  0.00000000000E+00 -0.00000000000E+00 -0.22556158069E+04  0.22556158069E+04  0.25500000000E-02 0. -1.
    8880022    1    1    2    0    0  0.10227608574E+03 -0.20365658301E+03 -0.35042737918E+03  0.44511504425E+03  0.15294330000E+03 0.  0.
    8880022    1    1    2    0    0 -0.10227608574E+03  0.20365658301E+03 -0.18477081103E+04  0.18679810801E+04  0.15294330000E+03 0.  0.
<mgrwt>
<rscale>  0 0.27445957E+03</rscale>
<asrwt>0</asrwt>
<pdfrwt beam="1">  1        2 0.34701775E+00 0.27445957E+03</pdfrwt>
<pdfrwt beam="2">  1       -2 0.88431275E-02 0.27445957E+03</pdfrwt>
<totfact> 0.43927933E+02</totfact>
</mgrwt>
</event>
<event>
 4    1  0.4639964E-008  0.8663322E+03  0.7818608E-02  0.9468675E-01
          2   -1    0    0  501    0  0.00000000000E+00  0.00000000000E+00  0.17027094153E+04  0.17027094153E+04  0.25500000000E-02 0. -1.
         -2   -1    0    0    0  501 -0.00000000000E+00 -0.00000000000E+00 -0.56056024503E+03  0.56056024504E+03  0.25500000000E-02 0.  1.
    8880022    1    1    2    0    0  0.57925348555E+03 -0.62578375778E+03  0.47985429754E+02  0.86766016764E+03  0.15294330000E+03 0.  0.
    8880022    1    1    2    0    0 -0.57925348555E+03  0.62578375778E+03  0.10941637405E+04  0.13956094927E+04  0.15294330000E+03 0.  0.
<mgrwt>
<rscale>  0 0.86633225E+03</rscale>
<asrwt>0</asrwt>
<pdfrwt beam="1">  1        2 0.26195529E+00 0.86633225E+03</pdfrwt>
<pdfrwt beam="2">  1       -2 0.86240038E-01 0.86633225E+03</pdfrwt>
<totfact> 0.11542258E+01</totfact>
</mgrwt>
</event>
<event>
 4    1  0.4639964E-008  0.2939159E+03  0.7818608E-02  0.1088322E+00
          2   -1    0    0  501    0  0.00000000000E+00  0.00000000000E+00  0.77729592467E+03  0.77729592468E+03  0.25500000000E-02 0. -1.
         -2   -1    0    0    0  501 -0.00000000000E+00 -0.00000000000E+00 -0.42201573142E+03  0.42201573143E+03  0.25500000000E-02 0.  1.
    8880022    1    1    2    0    0 -0.18041326720E+03  0.17448762860E+03  0.69231509134E+03  0.75212147837E+03  0.15294330000E+03 0.  0.
    8880022    1    1    2    0    0  0.18041326720E+03 -0.17448762860E+03 -0.33703489809E+03  0.44719017774E+03  0.15294330000E+03 0.  0.
<mgrwt>
<rscale>  0 0.29391586E+03</rscale>
<asrwt>0</asrwt>
<pdfrwt beam="1">  1        2 0.11958399E+00 0.29391586E+03</pdfrwt>
<pdfrwt beam="2">  1       -2 0.64925497E-01 0.29391586E+03</pdfrwt>
<totfact> 0.83205305E+01</totfact>
</mgrwt>
</event>
<event>
 4    1  0.4639964E-008  0.6200660E+03  0.7818608E-02  0.9864628E-01
          2   -1    0    0  501    0  0.00000000000E+00  0.00000000000E+00  0.15309933051E+04  0.15309933051E+04  0.25500000000E-02 0. -1.
         -2   -1    0    0    0  501 -0.00000000000E+00 -0.00000000000E+00 -0.55406949906E+03  0.55406949906E+03  0.25500000000E-02 0.  1.
    8880022    1    1    2    0    0  0.46416558685E+03 -0.38162879316E+03  0.12593357668E+04  0.14037123830E+04  0.15294330000E+03 0.  0.
    8880022    1    1    2    0    0 -0.46416558685E+03  0.38162879316E+03 -0.28241196073E+03  0.68135042113E+03  0.15294330000E+03 0.  0.
<mgrwt>
<rscale>  0 0.62006603E+03</rscale>
<asrwt>0</asrwt>
<pdfrwt beam="1">  1        2 0.23553743E+00 0.62006603E+03</pdfrwt>
<pdfrwt beam="2">  1       -2 0.85241462E-01 0.62006603E+03</pdfrwt>
<totfact> 0.15238067E+01</totfact>
</mgrwt>
</event>
<event>
 4    1  0.4639964E-008  0.2421094E+03  0.7818608E-02  0.1118396E+00
          2   -1    0    0  501    0  0.00000000000E+00  0.00000000000E+00  0.34170411834E+03  0.34170411835E+03  0.25500000000E-02 0. -1.
         -2   -1    0    0    0  501 -0.00000000000E+00 -0.00000000000E+00 -0.22984742222E+03  0.22984742223E+03  0.25500000000E-02 0.  1.
    8880022    1    1    2    0    0 -0.10414766311E+03 -0.15613642418E+03  0.19985992784E+03  0.31394420277E+03  0.15294330000E+03 0.  1.
    8880022    1    1    2    0    0  0.10414766311E+03  0.15613642418E+03 -0.88003231715E+02  0.25760733781E+03  0.15294330000E+03 0.  1.
<mgrwt>
<rscale>  0 0.24210942E+03</rscale>
<asrwt>0</asrwt>
<pdfrwt beam="1">  1        2 0.52569864E-01 0.24210942E+03</pdfrwt>
<pdfrwt beam="2">  1       -2 0.35361142E-01 0.24210942E+03</pdfrwt>
<totfact> 0.71662219E+02</totfact>
</mgrwt>
</event>
<event>
 4    1  0.4639964E-008  0.2149366E+03  0.7818608E-02  0.1137715E+00
         -2   -1    0    0    0  501 -0.00000000000E+00  0.00000000000E+00  0.98988585983E+03  0.98988585983E+03  0.25500000000E-02 0.  1.
          2   -1    0    0  501    0  0.00000000000E+00 -0.00000000000E+00 -0.68887152076E+03  0.68887152076E+03  0.25500000000E-02 0. -1.
    8880022    1    1    2    0    0 -0.13245471443E+03 -0.72538516256E+02 -0.65993973585E+03  0.69405921626E+03  0.15294330000E+03 0.  0.
    8880022    1    1    2    0    0  0.13245471443E+03  0.72538516256E+02  0.96095407492E+03  0.98469816433E+03  0.15294330000E+03 0.  1.
<mgrwt>
<rscale>  0 0.21493660E+03</rscale>
<asrwt>0</asrwt>
<pdfrwt beam="1">  1        2 0.10598023E+00 0.21493660E+03</pdfrwt>
<pdfrwt beam="2">  1       -2 0.15229013E+00 0.21493660E+03</pdfrwt>
<totfact> 0.13482866E+01</totfact>
</mgrwt>
</event>
<event>
 4    1  0.4639964E-008  0.1120552E+04  0.7818608E-02  0.9185389E-01
          2   -1    0    0  501    0  0.00000000000E+00  0.00000000000E+00  0.13182065108E+04  0.13182065108E+04  0.25500000000E-02 0. -1.
         -2   -1    0    0    0  501 -0.00000000000E+00 -0.00000000000E+00 -0.13199385304E+04  0.13199385304E+04  0.25500000000E-02 0.  1.
    8880022    1    1    2    0    0 -0.98894077252E+03 -0.50422392690E+03  0.69506106990E+03  0.13186156240E+04  0.15294330000E+03 0.  0.
    8880022    1    1    2    0    0  0.98894077252E+03  0.50422392690E+03 -0.69679308949E+03  0.13195294171E+04  0.15294330000E+03 0.  0.
<mgrwt>
<rscale>  0 0.11205522E+04</rscale>
<asrwt>0</asrwt>
<pdfrwt beam="1">  1        2 0.20280100E+00 0.11205522E+04</pdfrwt>
<pdfrwt beam="2">  1       -2 0.20306747E+00 0.11205522E+04</pdfrwt>
<totfact> 0.20052255E+00</totfact>
</mgrwt>
</event>
<event>
 4    1  0.4639964E-008  0.5739747E+03  0.7818608E-02  0.9960922E-01
          2   -1    0    0  501    0  0.00000000000E+00  0.00000000000E+00  0.16878054578E+04  0.16878054578E+04  0.25500000000E-02 0. -1.
         -2   -1    0    0    0  501 -0.00000000000E+00 -0.00000000000E+00 -0.22119586686E+03  0.22119586688E+03  0.25500000000E-02 0.  1.
    8880022    1    1    2    0    0 -0.42229758450E+03  0.35737938388E+03  0.40603741569E+03  0.70307418517E+03  0.15294330000E+03 0.  0.
    8880022    1    1    2    0    0  0.42229758450E+03 -0.35737938388E+03  0.10605721753E+04  0.12059271395E+04  0.15294330000E+03 0.  0.
<mgrwt>
<rscale>  0 0.57397467E+03</rscale>
<asrwt>0</asrwt>
<pdfrwt beam="1">  1        2 0.25966237E+00 0.57397467E+03</pdfrwt>
<pdfrwt beam="2">  1       -2 0.34030134E-01 0.57397467E+03</pdfrwt>
<totfact> 0.83953555E+01</totfact>
</mgrwt>
</event>
<event>
 4    1  0.4639964E-008  0.5321781E+03  0.7818608E-02  0.1005705E+00
         -2   -1    0    0    0  501 -0.00000000000E+00  0.00000000000E+00  0.47057342250E+03  0.47057342251E+03  0.25500000000E-02 0.  1.
          2   -1    0    0  501    0  0.00000000000E+00 -0.00000000000E+00 -0.87193519918E+03  0.87193519919E+03  0.25500000000E-02 0. -1.
    8880022    1    1    2    0    0  0.49554865667E+03 -0.11938745301E+03 -0.57427265767E+03  0.78294480867E+03  0.15294330000E+03 0.  0.
    8880022    1    1    2    0    0 -0.49554865667E+03  0.11938745301E+03  0.17291088099E+03  0.55956381302E+03  0.15294330000E+03 0.  0.
<mgrwt>
<rscale>  0 0.53217806E+03</rscale>
<asrwt>0</asrwt>
<pdfrwt beam="1">  1        2 0.13414388E+00 0.53217806E+03</pdfrwt>
<pdfrwt beam="2">  1       -2 0.72395911E-01 0.53217806E+03</pdfrwt>
<totfact> 0.54783045E+01</totfact>
</mgrwt>
</event>
<event>
 4    1  0.4639964E-008  0.7798684E+03  0.7818608E-02  0.9589623E-01
          2   -1    0    0  501    0  0.00000000000E+00  0.00000000000E+00  0.11929557484E+04  0.11929557484E+04  0.25500000000E-02 0. -1.
         -2   -1    0    0    0  501 -0.00000000000E+00 -0.00000000000E+00 -0.68625965508E+03  0.68625965509E+03  0.25500000000E-02 0.  1.
    8880022    1    1    2    0    0  0.23176613101E+03  0.72875757075E+03 -0.22308105135E+03  0.81114730160E+03  0.15294330000E+03 0.  0.
    8880022    1    1    2    0    0 -0.23176613101E+03 -0.72875757075E+03  0.72977714469E+03  0.10680681019E+04  0.15294330000E+03 0.  0.
<mgrwt>
<rscale>  0 0.77986844E+03</rscale>
<asrwt>0</asrwt>
<pdfrwt beam="1">  1        2 0.18353165E+00 0.77986844E+03</pdfrwt>
<pdfrwt beam="2">  1       -2 0.10557841E+00 0.77986844E+03</pdfrwt>
<totfact> 0.14094147E+01</totfact>
</mgrwt>
</event>
<event>
 4    1  0.4639964E-008  0.6324001E+03  0.7818608E-02  0.9840376E-01
          2   -1    0    0  501    0  0.00000000000E+00  0.00000000000E+00  0.84947831107E+03  0.84947831108E+03  0.25500000000E-02 0. -1.
         -2   -1    0    0    0  501 -0.00000000000E+00 -0.00000000000E+00 -0.58765891613E+03  0.58765891614E+03  0.25500000000E-02 0.  1.
    8880022    1    1    2    0    0  0.60674761003E+03 -0.91627403601E+02  0.45134940941E+03  0.77694670716E+03  0.15294330000E+03 0.  0.
    8880022    1    1    2    0    0 -0.60674761003E+03  0.91627403601E+02 -0.18953001447E+03  0.66019052006E+03  0.15294330000E+03 0.  0.
<mgrwt>
<rscale>  0 0.63240011E+03</rscale>
<asrwt>0</asrwt>
<pdfrwt beam="1">  1        2 0.13068897E+00 0.63240011E+03</pdfrwt>
<pdfrwt beam="2">  1       -2 0.90409064E-01 0.63240011E+03</pdfrwt>
<totfact> 0.34085983E+01</totfact>
</mgrwt>
</event>
<event>
 4    1  0.4639964E-008  0.4359142E+03  0.7818608E-02  0.1032008E+00
          2   -1    0    0  501    0  0.00000000000E+00  0.00000000000E+00  0.21654467699E+04  0.21654467699E+04  0.25500000000E-02 0. -1.
         -2   -1    0    0    0  501 -0.00000000000E+00 -0.00000000000E+00 -0.11569204204E+03  0.11569204207E+03  0.25500000000E-02 0.  1.
    8880022    1    1    2    0    0  0.33592944924E+03  0.23190727476E+03  0.15853924186E+04  0.16442294100E+04  0.15294330000E+03 0.  0.
    8880022    1    1    2    0    0 -0.33592944924E+03 -0.23190727476E+03  0.46436230923E+03  0.63690940188E+03  0.15294330000E+03 0.  0.
<mgrwt>
<rscale>  0 0.43591425E+03</rscale>
<asrwt>0</asrwt>
<pdfrwt beam="1">  1        2 0.33314564E+00 0.43591425E+03</pdfrwt>
<pdfrwt beam="2">  1       -2 0.17798776E-01 0.43591425E+03</pdfrwt>
<totfact> 0.15131306E+02</totfact>
</mgrwt>
</event>
<event>
 4    1  0.4639964E-008  0.1000921E+04  0.7818608E-02  0.9307535E-01
          2   -1    0    0  501    0  0.00000000000E+00  0.00000000000E+00  0.21629271472E+04  0.21629271472E+04  0.25500000000E-02 0. -1.
         -2   -1    0    0    0  501 -0.00000000000E+00 -0.00000000000E+00 -0.69594223040E+03  0.69594223041E+03  0.25500000000E-02 0.  1.
    8880022    1    1    2    0    0 -0.88114753852E+03  0.44947732294E+03  0.15601511831E+04  0.18536219182E+04  0.15294330000E+03 0.  0.
    8880022    1    1    2    0    0  0.88114753852E+03 -0.44947732294E+03 -0.93166266299E+02  0.10052474594E+04  0.15294330000E+03 0.  0.
<mgrwt>
<rscale>  0 0.10009208E+04</rscale>
<asrwt>0</asrwt>
<pdfrwt beam="1">  1        2 0.33275802E+00 0.10009208E+04</pdfrwt>
<pdfrwt beam="2">  1       -2 0.10706804E+00 0.10009208E+04</pdfrwt>
<totfact> 0.38080049E+00</totfact>
</mgrwt>
</event>
<event>
 4    1  0.4639964E-008  0.2262001E+03  0.7818608E-02  0.1129343E+00
          2   -1    0    0  501    0  0.00000000000E+00  0.00000000000E+00  0.67369090737E+03  0.67369090737E+03  0.25500000000E-02 0. -1.
         -2   -1    0    0    0  501 -0.00000000000E+00 -0.00000000000E+00 -0.19791603020E+03  0.19791603021E+03  0.25500000000E-02 0.  1.
    8880022    1    1    2    0    0 -0.12024941752E+03 -0.11539022099E+03  0.58000120905E+03  0.62254950086E+03  0.15294330000E+03 0.  0.
    8880022    1    1    2    0    0  0.12024941752E+03  0.11539022099E+03 -0.10422633188E+03  0.24905743672E+03  0.15294330000E+03 0.  1.
<mgrwt>
<rscale>  0 0.22620009E+03</rscale>
<asrwt>0</asrwt>
<pdfrwt beam="1">  1        2 0.10364476E+00 0.22620009E+03</pdfrwt>
<pdfrwt beam="2">  1       -2 0.30448620E-01 0.22620009E+03</pdfrwt>
<totfact> 0.44134976E+02</totfact>
</mgrwt>
</event>
<event>
 4    1  0.4639964E-008  0.5925713E+03  0.7818608E-02  0.9920939E-01
         -2   -1    0    0    0  501 -0.00000000000E+00  0.00000000000E+00  0.32245563475E+03  0.32245563476E+03  0.25500000000E-02 0.  1.
          2   -1    0    0  501    0  0.00000000000E+00 -0.00000000000E+00 -0.21725855366E+04  0.21725855366E+04  0.25500000000E-02 0. -1.
    8880022    1    1    2    0    0  0.20711570997E+03  0.53371548360E+03 -0.44017690423E+02  0.59420395896E+03  0.15294330000E+03 0.  0.
    8880022    1    1    2    0    0 -0.20711570997E+03 -0.53371548360E+03 -0.18061122114E+04  0.19008372124E+04  0.15294330000E+03 0.  0.
<mgrwt>
<rscale>  0 0.59257134E+03</rscale>
<asrwt>0</asrwt>
<pdfrwt beam="1">  1        2 0.33424392E+00 0.59257134E+03</pdfrwt>
<pdfrwt beam="2">  1       -2 0.49608561E-01 0.59257134E+03</pdfrwt>
<totfact> 0.21894779E+01</totfact>
</mgrwt>
</event>
<event>
 4    1  0.4639964E-008  0.4348125E+03  0.7818608E-02  0.1032350E+00
         -2   -1    0    0    0  501 -0.00000000000E+00  0.00000000000E+00  0.31022471537E+03  0.31022471538E+03  0.25500000000E-02 0.  1.
          2   -1    0    0  501    0  0.00000000000E+00 -0.00000000000E+00 -0.31191824895E+04  0.31191824895E+04  0.25500000000E-02 0. -1.
    8880022    1    1    2    0    0 -0.15133665109E+03 -0.37784578336E+03  0.13361789120E+03  0.45487977734E+03  0.15294330000E+03 0.  0.
    8880022    1    1    2    0    0  0.15133665109E+03  0.37784578336E+03 -0.29425756653E+04  0.29745274275E+04  0.15294330000E+03 0.  0.
<mgrwt>
<rscale>  0 0.43481245E+03</rscale>
<asrwt>0</asrwt>
<pdfrwt beam="1">  1        2 0.47987421E+00 0.43481245E+03</pdfrwt>
<pdfrwt beam="2">  1       -2 0.47726881E-01 0.43481245E+03</pdfrwt>
<totfact> 0.70449682E+00</totfact>
</mgrwt>
</event>
<event>
 4    1  0.4639964E-008  0.5572126E+03  0.7818608E-02  0.9998381E-01
         -2   -1    0    0    0  501 -0.00000000000E+00  0.00000000000E+00  0.68774486540E+03  0.68774486540E+03  0.25500000000E-02 0.  1.
          2   -1    0    0  501    0  0.00000000000E+00 -0.00000000000E+00 -0.79035317829E+03  0.79035317830E+03  0.25500000000E-02 0. -1.
    8880022    1    1    2    0    0 -0.23578940181E+03  0.48114198950E+03  0.43264218862E+03  0.70545387692E+03  0.15294330000E+03 0.  0.
    8880022    1    1    2    0    0  0.23578940181E+03 -0.48114198950E+03 -0.53525050152E+03  0.77264416678E+03  0.15294330000E+03 0.  0.
<mgrwt>
<rscale>  0 0.55721262E+03</rscale>
<asrwt>0</asrwt>
<pdfrwt beam="1">  1        2 0.12159280E+00 0.55721262E+03</pdfrwt>
<pdfrwt beam="2">  1       -2 0.10580690E+00 0.55721262E+03</pdfrwt>
<totfact> 0.26153459E+01</totfact>
</mgrwt>
</event>
<event>
 4    1  0.4639964E-008  0.4363708E+03  0.7818608E-02  0.1031866E+00
          2   -1    0    0  501    0  0.00000000000E+00  0.00000000000E+00  0.38737431416E+04  0.38737431416E+04  0.25500000000E-02 0. -1.
         -2   -1    0    0    0  501 -0.00000000000E+00 -0.00000000000E+00 -0.38786209779E+03  0.38786209779E+03  0.25500000000E-02 0.  1.
    8880022    1    1    2    0    0 -0.32694138639E+03  0.24522881647E+03  0.37341445608E+04  0.37595551727E+04  0.15294330000E+03 0.  0.
    8880022    1    1    2    0    0  0.32694138639E+03 -0.24522881647E+03 -0.24826351701E+03  0.50205006668E+03  0.15294330000E+03 0.  1.
<mgrwt>
<rscale>  0 0.43637082E+03</rscale>
<asrwt>0</asrwt>
<pdfrwt beam="1">  1        2 0.59596050E+00 0.43637082E+03</pdfrwt>
<pdfrwt beam="2">  1       -2 0.59671090E-01 0.43637082E+03</pdfrwt>
<totfact> 0.13810276E+00</totfact>
</mgrwt>
</event>
<event>
 4    1  0.4639964E-008  0.3359531E+03  0.7818608E-02  0.1068533E+00
          2   -1    0    0  501    0  0.00000000000E+00  0.00000000000E+00  0.19027791251E+04  0.19027791251E+04  0.25500000000E-02 0. -1.
         -2   -1    0    0    0  501 -0.00000000000E+00 -0.00000000000E+00 -0.19836386968E+03  0.19836386970E+03  0.25500000000E-02 0.  1.
    8880022    1    1    2    0    0 -0.13231792701E+03  0.26826256320E+03  0.17317912192E+04  0.17640763352E+04  0.15294330000E+03 0. -1.
    8880022    1    1    2    0    0  0.13231792701E+03 -0.26826256320E+03 -0.27375963725E+02  0.33706665962E+03  0.15294330000E+03 0.  0.
<mgrwt>
<rscale>  0 0.33595311E+03</rscale>
<asrwt>0</asrwt>
<pdfrwt beam="1">  1        2 0.29273526E+00 0.33595311E+03</pdfrwt>
<pdfrwt beam="2">  1       -2 0.30517517E-01 0.33595311E+03</pdfrwt>
<totfact> 0.82267321E+01</totfact>
</mgrwt>
</event>
<event>
 4    1  0.4639964E-008  0.2590417E+03  0.7818608E-02  0.1107720E+00
          2   -1    0    0  501    0  0.00000000000E+00  0.00000000000E+00  0.19322416715E+04  0.19322416715E+04  0.25500000000E-02 0. -1.
         -2   -1    0    0    0  501 -0.00000000000E+00 -0.00000000000E+00 -0.15313168665E+03  0.15313168667E+03  0.25500000000E-02 0.  1.
    8880022    1    1    2    0    0 -0.90559252961E+02  0.18844086680E+03  0.18064174427E+04  0.18248963172E+04  0.15294330000E+03 0. -1.
    8880022    1    1    2    0    0  0.90559252961E+02 -0.18844086680E+03 -0.27307457808E+02  0.26047704092E+03  0.15294330000E+03 0.  0.
<mgrwt>
<rscale>  0 0.25904168E+03</rscale>
<asrwt>0</asrwt>
<pdfrwt beam="1">  1        2 0.29726794E+00 0.25904168E+03</pdfrwt>
<pdfrwt beam="2">  1       -2 0.23558722E-01 0.25904168E+03</pdfrwt>
<totfact> 0.12887976E+02</totfact>
</mgrwt>
</event>
<event>
 4    1  0.4639964E-008  0.3205540E+03  0.7818608E-02  0.1075395E+00
          2   -1    0    0  501    0  0.00000000000E+00  0.00000000000E+00  0.32488409564E+03  0.32488409565E+03  0.25500000000E-02 0. -1.
         -2   -1    0    0    0  501 -0.00000000000E+00 -0.00000000000E+00 -0.15173109263E+04  0.15173109263E+04  0.25500000000E-02 0.  1.
    8880022    1    1    2    0    0  0.14476750059E+03  0.24167242915E+03  0.22327936383E+03  0.39065140416E+03  0.15294330000E+03 0.  0.
    8880022    1    1    2    0    0 -0.14476750059E+03 -0.24167242915E+03 -0.14157061944E+04  0.14515436178E+04  0.15294330000E+03 0.  1.
<mgrwt>
<rscale>  0 0.32055397E+03</rscale>
<asrwt>0</asrwt>
<pdfrwt beam="1">  1        2 0.49982169E-01 0.32055397E+03</pdfrwt>
<pdfrwt beam="2">  1       -2 0.23343245E+00 0.32055397E+03</pdfrwt>
<totfact> 0.89715909E+00</totfact>
</mgrwt>
</event>
<event>
 4    1  0.4639964E-008  0.4573383E+03  0.7818608E-02  0.1025556E+00
          2   -1    0    0  501    0  0.00000000000E+00  0.00000000000E+00  0.45815336161E+03  0.45815336161E+03  0.25500000000E-02 0. -1.
         -2   -1    0    0    0  501 -0.00000000000E+00 -0.00000000000E+00 -0.16182188547E+04  0.16182188547E+04  0.25500000000E-02 0.  1.
    8880022    1    1    2    0    0  0.90787621842E+02  0.42133624477E+03  0.29960226520E+03  0.54673557938E+03  0.15294330000E+03 0.  0.
    8880022    1    1    2    0    0 -0.90787621842E+02 -0.42133624477E+03 -0.14596677583E+04  0.15296366369E+04  0.15294330000E+03 0.  0.
<mgrwt>
<rscale>  0 0.45733825E+03</rscale>
<asrwt>0</asrwt>
<pdfrwt beam="1">  1        2 0.70485133E-01 0.45733825E+03</pdfrwt>
<pdfrwt beam="2">  1       -2 0.24895674E+00 0.45733825E+03</pdfrwt>
<totfact> 0.47971836E+00</totfact>
</mgrwt>
</event>
<event>
 4    1  0.4639964E-008  0.4156725E+03  0.7818608E-02  0.1038484E+00
          2   -1    0    0  501    0  0.00000000000E+00  0.00000000000E+00  0.12383244043E+04  0.12383244044E+04  0.25500000000E-02 0. -1.
         -2   -1    0    0    0  501 -0.00000000000E+00 -0.00000000000E+00 -0.23988618041E+03  0.23988618043E+03  0.25500000000E-02 0.  1.
    8880022    1    1    2    0    0  0.50406453888E+02  0.38321163359E+03  0.97727137942E+03  0.10619995145E+04  0.15294330000E+03 0.  0.
    8880022    1    1    2    0    0 -0.50406453888E+02 -0.38321163359E+03  0.21166844511E+02  0.41621107029E+03  0.15294330000E+03 0.  0.
<mgrwt>
<rscale>  0 0.41567249E+03</rscale>
<asrwt>0</asrwt>
<pdfrwt beam="1">  1        2 0.19051145E+00 0.41567249E+03</pdfrwt>
<pdfrwt beam="2">  1       -2 0.36905566E-01 0.41567249E+03</pdfrwt>
<totfact> 0.13042920E+02</totfact>
</mgrwt>
</event>
<event>
 4    1  0.4639964E-008  0.7761579E+03  0.7818608E-02  0.9595183E-01
          2   -1    0    0  501    0  0.00000000000E+00  0.00000000000E+00  0.29294959405E+04  0.29294959405E+04  0.25500000000E-02 0. -1.
         -2   -1    0    0    0  501 -0.00000000000E+00 -0.00000000000E+00 -0.64165927226E+03  0.64165927226E+03  0.25500000000E-02 0.  1.
    8880022    1    1    2    0    0 -0.16118242003E+03 -0.74367312144E+03  0.26158220635E+04  0.27285428722E+04  0.15294330000E+03 0.  0.
    8880022    1    1    2    0    0  0.16118242003E+03  0.74367312144E+03 -0.32798539526E+03  0.84261234064E+03  0.15294330000E+03 0.  0.
<mgrwt>
<rscale>  0 0.77615793E+03</rscale>
<asrwt>0</asrwt>
<pdfrwt beam="1">  1        2 0.45069169E+00 0.77615793E+03</pdfrwt>
<pdfrwt beam="2">  1       -2 0.98716809E-01 0.77615793E+03</pdfrwt>
<totfact> 0.17380918E+00</totfact>
</mgrwt>
</event>
<event>
 4    1  0.4639964E-008  0.1899847E+03  0.7818608E-02  0.1158475E+00
         -2   -1    0    0    0  501 -0.00000000000E+00  0.00000000000E+00  0.34358964157E+03  0.34358964158E+03  0.25500000000E-02 0.  1.
          2   -1    0    0  501    0  0.00000000000E+00 -0.00000000000E+00 -0.34025266654E+03  0.34025266655E+03  0.25500000000E-02 0. -1.
    8880022    1    1    2    0    0  0.10142120156E+03 -0.49155749536E+02  0.28594830609E+03  0.34330836665E+03  0.15294330000E+03 0.  0.
    8880022    1    1    2    0    0 -0.10142120156E+03  0.49155749536E+02 -0.28261133107E+03  0.34053394148E+03  0.15294330000E+03 0. -1.
<mgrwt>
<rscale>  0 0.18998474E+03</rscale>
<asrwt>0</asrwt>
<pdfrwt beam="1">  1        2 0.52346564E-01 0.18998474E+03</pdfrwt>
<pdfrwt beam="2">  1       -2 0.52859945E-01 0.18998474E+03</pdfrwt>
<totfact> 0.33022962E+02</totfact>
</mgrwt>
</event>
<event>
 4    1  0.4639964E-008  0.1831515E+03  0.7818608E-02  0.1164787E+00
         -2   -1    0    0    0  501 -0.00000000000E+00  0.00000000000E+00  0.48552895209E+03  0.48552895210E+03  0.25500000000E-02 0.  1.
          2   -1    0    0  501    0  0.00000000000E+00 -0.00000000000E+00 -0.13816907074E+04  0.13816907074E+04  0.25500000000E-02 0. -1.
    8880022    1    1    2    0    0  0.74603198881E+02 -0.67728752161E+02 -0.13580497992E+04  0.13703443842E+04  0.15294330000E+03 0. -1.
    8880022    1    1    2    0    0 -0.74603198881E+02  0.67728752161E+02  0.46188804387E+03  0.49687527533E+03  0.15294330000E+03 0.  0.
<mgrwt>
<rscale>  0 0.18315151E+03</rscale>
<asrwt>0</asrwt>
<pdfrwt beam="1">  1        2 0.21256780E+00 0.18315151E+03</pdfrwt>
<pdfrwt beam="2">  1       -2 0.74696762E-01 0.18315151E+03</pdfrwt>
<totfact> 0.27592911E+01</totfact>
</mgrwt>
</event>
<event>
 4    1  0.4639964E-008  0.2655336E+03  0.7818608E-02  0.1103863E+00
          2   -1    0    0  501    0  0.00000000000E+00  0.00000000000E+00  0.18706248836E+04  0.18706248836E+04  0.25500000000E-02 0. -1.
         -2   -1    0    0    0  501 -0.00000000000E+00 -0.00000000000E+00 -0.14585852499E+03  0.14585852501E+03  0.25500000000E-02 0.  1.
    8880022    1    1    2    0    0  0.21478594193E+03 -0.31359569742E+02  0.17306329329E+04  0.17508850405E+04  0.15294330000E+03 0. -1.
    8880022    1    1    2    0    0 -0.21478594193E+03  0.31359569742E+02 -0.58665742683E+01  0.26559836816E+03  0.15294330000E+03 0.  0.
<mgrwt>
<rscale>  0 0.26553357E+03</rscale>
<asrwt>0</asrwt>
<pdfrwt beam="1">  1        2 0.28778845E+00 0.26553357E+03</pdfrwt>
<pdfrwt beam="2">  1       -2 0.22439773E-01 0.26553357E+03</pdfrwt>
<totfact> 0.15090695E+02</totfact>
</mgrwt>
</event>
<event>
 4    1  0.4639964E-008  0.9771479E+03  0.7818608E-02  0.9333970E-01
         -2   -1    0    0    0  501 -0.00000000000E+00  0.00000000000E+00  0.15836464243E+04  0.15836464243E+04  0.25500000000E-02 0.  1.
          2   -1    0    0  501    0  0.00000000000E+00 -0.00000000000E+00 -0.12387908446E+04  0.12387908446E+04  0.25500000000E-02 0. -1.
    8880022    1    1    2    0    0  0.82260798875E+03 -0.50472021913E+03 -0.83863582427E+03  0.12876832303E+04  0.15294330000E+03 0.  0.
    8880022    1    1    2    0    0 -0.82260798875E+03  0.50472021913E+03  0.11834914040E+04  0.15347540386E+04  0.15294330000E+03 0.  0.
<mgrwt>
<rscale>  0 0.97714792E+03</rscale>
<asrwt>0</asrwt>
<pdfrwt beam="1">  1        2 0.19058321E+00 0.97714792E+03</pdfrwt>
<pdfrwt beam="2">  1       -2 0.24363791E+00 0.97714792E+03</pdfrwt>
<totfact> 0.12624387E+00</totfact>
</mgrwt>
</event>
<event>
 4    1  0.4639964E-008  0.1392088E+04  0.7818608E-02  0.8959565E-01
          2   -1    0    0  501    0  0.00000000000E+00  0.00000000000E+00  0.30058336527E+04  0.30058336527E+04  0.25500000000E-02 0. -1.
         -2   -1    0    0    0  501 -0.00000000000E+00 -0.00000000000E+00 -0.89606815426E+03  0.89606815426E+03  0.25500000000E-02 0.  1.
    8880022    1    1    2    0    0 -0.97006843114E+03 -0.98665366269E+03  0.20881600539E+04  0.25096458465E+04  0.15294330000E+03 0.  0.
    8880022    1    1    2    0    0  0.97006843114E+03  0.98665366269E+03  0.21605444564E+02  0.13922559605E+04  0.15294330000E+03 0.  0.
<mgrwt>
<rscale>  0 0.13920883E+04</rscale>
<asrwt>0</asrwt>
<pdfrwt beam="1">  1        2 0.46243594E+00 0.13920883E+04</pdfrwt>
<pdfrwt beam="2">  1       -2 0.13785664E+00 0.13920883E+04</pdfrwt>
<totfact> 0.62069400E-01</totfact>
</mgrwt>
</event>
<event>
 4    1  0.4639964E-008  0.2812302E+03  0.7818608E-02  0.1095019E+00
         -2   -1    0    0    0  501 -0.00000000000E+00  0.00000000000E+00  0.54873601598E+03  0.54873601598E+03  0.25500000000E-02 0.  1.
          2   -1    0    0  501    0  0.00000000000E+00 -0.00000000000E+00 -0.97067951337E+03  0.97067951338E+03  0.25500000000E-02 0. -1.
    8880022    1    1    2    0    0 -0.21825276816E+03 -0.89802632721E+02 -0.91201132614E+03  0.95438728809E+03  0.15294330000E+03 0.  0.
    8880022    1    1    2    0    0  0.21825276816E+03  0.89802632721E+02  0.49006782874E+03  0.56502824127E+03  0.15294330000E+03 0.  0.
<mgrwt>
<rscale>  0 0.28123022E+03</rscale>
<asrwt>0</asrwt>
<pdfrwt beam="1">  1        2 0.14933531E+00 0.28123022E+03</pdfrwt>
<pdfrwt beam="2">  1       -2 0.84420926E-01 0.28123022E+03</pdfrwt>
<totfact> 0.35051165E+01</totfact>
</mgrwt>
</event>
<event>
 4    1  0.4639964E-008  0.5989283E+03  0.7818608E-02  0.9907632E-01
         -2   -1    0    0    0  501 -0.00000000000E+00  0.00000000000E+00  0.87420248963E+03  0.87420248963E+03  0.25500000000E-02 0.  1.
          2   -1    0    0  501    0  0.00000000000E+00 -0.00000000000E+00 -0.53577734567E+03  0.53577734567E+03  0.25500000000E-02 0. -1.
    8880022    1    1    2    0    0  0.35050444655E+03  0.46094482663E+03 -0.17191298067E+03  0.62311253092E+03  0.15294330000E+03 0. -1.
    8880022    1    1    2    0    0 -0.35050444655E+03 -0.46094482663E+03  0.51033812463E+03  0.78686730439E+03  0.15294330000E+03 0.  0.
<mgrwt>
<rscale>  0 0.59892834E+03</rscale>
<asrwt>0</asrwt>
<pdfrwt beam="1">  1        2 0.82427284E-01 0.59892834E+03</pdfrwt>
<pdfrwt beam="2">  1       -2 0.13449269E+00 0.59892834E+03</pdfrwt>
<totfact> 0.23243146E+01</totfact>
</mgrwt>
</event>
<event>
 4    1  0.4639964E-008  0.4476265E+03  0.7818608E-02  0.1028432E+00
          2   -1    0    0  501    0  0.00000000000E+00  0.00000000000E+00  0.10728892600E+04  0.10728892600E+04  0.25500000000E-02 0. -1.
         -2   -1    0    0    0  501 -0.00000000000E+00 -0.00000000000E+00 -0.87781740962E+03  0.87781740963E+03  0.25500000000E-02 0.  1.
    8880022    1    1    2    0    0  0.19297078531E+03  0.37381825977E+03 -0.76786612043E+03  0.88881260525E+03  0.15294330000E+03 0.  0.
    8880022    1    1    2    0    0 -0.19297078531E+03 -0.37381825977E+03  0.96293797078E+03  0.10618940644E+04  0.15294330000E+03 0. -1.
<mgrwt>
<rscale>  0 0.44762648E+03</rscale>
<asrwt>0</asrwt>
<pdfrwt beam="1">  1        2 0.16505989E+00 0.44762648E+03</pdfrwt>
<pdfrwt beam="2">  1       -2 0.13504883E+00 0.44762648E+03</pdfrwt>
<totfact> 0.95421053E+00</totfact>
</mgrwt>
</event>
<event>
 4    1  0.4639964E-008  0.2348222E+03  0.7818608E-02  0.1123291E+00
          2   -1    0    0  501    0  0.00000000000E+00  0.00000000000E+00  0.25317524411E+04  0.25317524411E+04  0.25500000000E-02 0. -1.
         -2   -1    0    0    0  501 -0.00000000000E+00 -0.00000000000E+00 -0.71425732545E+02  0.71425732591E+02  0.25500000000E-02 0.  1.
    8880022    1    1    2    0    0 -0.41937449340E+02 -0.17317924870E+03  0.23153081813E+04  0.23271857316E+04  0.15294330000E+03 0.  0.
    8880022    1    1    2    0    0  0.41937449340E+02  0.17317924870E+03  0.14501852723E+03  0.27599244209E+03  0.15294330000E+03 0.  1.
<mgrwt>
<rscale>  0 0.23482218E+03</rscale>
<asrwt>0</asrwt>
<pdfrwt beam="1">  1        2 0.38950037E+00 0.23482218E+03</pdfrwt>
<pdfrwt beam="2">  1       -2 0.10988574E-01 0.23482218E+03</pdfrwt>
<totfact> 0.22267254E+02</totfact>
</mgrwt>
</event>
<event>
 4    1  0.4639964E-008  0.1338407E+04  0.7818608E-02  0.8999650E-01
          2   -1    0    0  501    0  0.00000000000E+00  0.00000000000E+00  0.22225540832E+04  0.22225540832E+04  0.25500000000E-02 0. -1.
         -2   -1    0    0    0  501 -0.00000000000E+00 -0.00000000000E+00 -0.11141744230E+04  0.11141744230E+04  0.25500000000E-02 0.  1.
    8880022    1    1    2    0    0  0.12461928996E+04 -0.46362294577E+03 -0.32326852877E+03  0.13768940314E+04  0.15294330000E+03 0.  0.
    8880022    1    1    2    0    0 -0.12461928996E+04  0.46362294577E+03  0.14316481889E+04  0.19598344748E+04  0.15294330000E+03 0.  0.
<mgrwt>
<rscale>  0 0.13384075E+04</rscale>
<asrwt>0</asrwt>
<pdfrwt beam="1">  1        2 0.34193139E+00 0.13384075E+04</pdfrwt>
<pdfrwt beam="2">  1       -2 0.17141145E+00 0.13384075E+04</pdfrwt>
<totfact> 0.10004234E+00</totfact>
</mgrwt>
</event>
<event>
 4    1  0.4639964E-008  0.3816687E+03  0.7818608E-02  0.1050319E+00
          2   -1    0    0  501    0  0.00000000000E+00  0.00000000000E+00  0.22143328434E+04  0.22143328434E+04  0.25500000000E-02 0. -1.
         -2   -1    0    0    0  501 -0.00000000000E+00 -0.00000000000E+00 -0.13280241097E+03  0.13280241099E+03  0.25500000000E-02 0.  1.
    8880022    1    1    2    0    0 -0.72933305277E+02  0.34199426606E+03  0.18744412893E+04  0.19129038515E+04  0.15294330000E+03 0.  0.
    8880022    1    1    2    0    0  0.72933305277E+02 -0.34199426606E+03  0.20708914312E+03  0.43423140288E+03  0.15294330000E+03 0.  0.
<mgrwt>
<rscale>  0 0.38166870E+03</rscale>
<asrwt>0</asrwt>
<pdfrwt beam="1">  1        2 0.34066659E+00 0.38166870E+03</pdfrwt>
<pdfrwt beam="2">  1       -2 0.20431140E-01 0.38166870E+03</pdfrwt>
<totfact> 0.11349546E+02</totfact>
</mgrwt>
</event>
<event>
 4    1  0.4639964E-008  0.1976623E+03  0.7818608E-02  0.1151726E+00
         -2   -1    0    0    0  501 -0.00000000000E+00  0.00000000000E+00  0.58776137955E+03  0.58776137956E+03  0.25500000000E-02 0.  1.
          2   -1    0    0  501    0  0.00000000000E+00 -0.00000000000E+00 -0.79838500737E+03  0.79838500737E+03  0.25500000000E-02 0. -1.
    8880022    1    1    2    0    0 -0.81378116552E+02 -0.95164769896E+02 -0.76890556781E+03  0.79390563451E+03  0.15294330000E+03 0.  0.
    8880022    1    1    2    0    0  0.81378116552E+02  0.95164769896E+02  0.55828193999E+03  0.59224075242E+03  0.15294330000E+03 0.  1.
<mgrwt>
<rscale>  0 0.19766230E+03</rscale>
<asrwt>0</asrwt>
<pdfrwt beam="1">  1        2 0.12282846E+00 0.19766230E+03</pdfrwt>
<pdfrwt beam="2">  1       -2 0.90424828E-01 0.19766230E+03</pdfrwt>
<totfact> 0.39825354E+01</totfact>
</mgrwt>
</event>
<event>
 4    1  0.4639964E-008  0.9024184E+03  0.7818608E-02  0.9422563E-01
          2   -1    0    0  501    0  0.00000000000E+00  0.00000000000E+00  0.30232847665E+04  0.30232847666E+04  0.25500000000E-02 0. -1.
         -2   -1    0    0    0  501 -0.00000000000E+00 -0.00000000000E+00 -0.47325349212E+03  0.47325349212E+03  0.25500000000E-02 0.  1.
    8880022    1    1    2    0    0  0.68389921909E+03 -0.56854998524E+03  0.12749467378E+03  0.91138014705E+03  0.15294330000E+03 0.  1.
    8880022    1    1    2    0    0 -0.68389921909E+03  0.56854998524E+03  0.24225366007E+04  0.25851581116E+04  0.15294330000E+03 0.  0.
<mgrwt>
<rscale>  0 0.90241835E+03</rscale>
<asrwt>0</asrwt>
<pdfrwt beam="1">  1        2 0.46512076E+00 0.90241835E+03</pdfrwt>
<pdfrwt beam="2">  1       -2 0.72808226E-01 0.90241835E+03</pdfrwt>
<totfact> 0.29803878E+00</totfact>
</mgrwt>
</event>
<event>
 4    1  0.4639964E-008  0.3930137E+03  0.7818608E-02  0.1046226E+00
         -2   -1    0    0    0  501 -0.00000000000E+00  0.00000000000E+00  0.48647614218E+03  0.48647614219E+03  0.25500000000E-02 0.  1.
          2   -1    0    0  501    0  0.00000000000E+00 -0.00000000000E+00 -0.17912924089E+04  0.17912924089E+04  0.25500000000E-02 0. -1.
    8880022    1    1    2    0    0 -0.28005306692E+02  0.36094844873E+03  0.38062305633E+03  0.54711392220E+03  0.15294330000E+03 0.  0.
    8880022    1    1    2    0    0  0.28005306692E+02 -0.36094844873E+03 -0.16854393231E+04  0.17306546289E+04  0.15294330000E+03 0.  0.
<mgrwt>
<rscale>  0 0.39301365E+03</rscale>
<asrwt>0</asrwt>
<pdfrwt beam="1">  1        2 0.27558344E+00 0.39301365E+03</pdfrwt>
<pdfrwt beam="2">  1       -2 0.74842484E-01 0.39301365E+03</pdfrwt>
<totfact> 0.15432076E+01</totfact>
</mgrwt>
</event>
<event>
 4    1  0.4639964E-008  0.6764422E+03  0.7818608E-02  0.9758389E-01
         -2   -1    0    0    0  501 -0.00000000000E+00  0.00000000000E+00  0.31443962972E+03  0.31443962973E+03  0.25500000000E-02 0.  1.
          2   -1    0    0  501    0  0.00000000000E+00 -0.00000000000E+00 -0.21350990121E+04  0.21350990121E+04  0.25500000000E-02 0. -1.
    8880022    1    1    2    0    0 -0.50761621422E+03  0.42012875699E+03 -0.16014696038E+04  0.17384702869E+04  0.15294330000E+03 0.  0.
    8880022    1    1    2    0    0  0.50761621422E+03 -0.42012875699E+03 -0.21918977858E+03  0.71106835497E+03  0.15294330000E+03 0.  1.
<mgrwt>
<rscale>  0 0.67644220E+03</rscale>
<asrwt>0</asrwt>
<pdfrwt beam="1">  1        2 0.32847676E+00 0.67644220E+03</pdfrwt>
<pdfrwt beam="2">  1       -2 0.48375329E-01 0.67644220E+03</pdfrwt>
<totfact> 0.23814929E+01</totfact>
</mgrwt>
</event>
<event>
 4    1  0.4639964E-008  0.5439879E+03  0.7818608E-02  0.1002895E+00
         -2   -1    0    0    0  501 -0.00000000000E+00  0.00000000000E+00  0.74098637742E+03  0.74098637743E+03  0.25500000000E-02 0.  1.
          2   -1    0    0  501    0  0.00000000000E+00 -0.00000000000E+00 -0.60477581742E+03  0.60477581743E+03  0.25500000000E-02 0. -1.
    8880022    1    1    2    0    0  0.42280901755E+03 -0.30620857190E+03  0.46025734934E+03  0.71257254750E+03  0.15294330000E+03 0.  0.
    8880022    1    1    2    0    0 -0.42280901755E+03  0.30620857190E+03 -0.32404678934E+03  0.63318964736E+03  0.15294330000E+03 0.  0.
<mgrwt>
<rscale>  0 0.54398787E+03</rscale>
<asrwt>0</asrwt>
<pdfrwt beam="1">  1        2 0.93042433E-01 0.54398787E+03</pdfrwt>
<pdfrwt beam="2">  1       -2 0.11399790E+00 0.54398787E+03</pdfrwt>
<totfact> 0.30562139E+01</totfact>
</mgrwt>
</event>
<event>
 4    1  0.4639964E-008  0.2924562E+03  0.7818608E-02  0.1089074E+00
          2   -1    0    0  501    0  0.00000000000E+00  0.00000000000E+00  0.18618330722E+04  0.18618330722E+04  0.25500000000E-02 0. -1.
         -2   -1    0    0    0  501 -0.00000000000E+00 -0.00000000000E+00 -0.30311133078E+03  0.30311133080E+03  0.25500000000E-02 0.  1.
    8880022    1    1    2    0    0 -0.16068691798E+03  0.19057463534E+03 -0.21771416136E+03  0.36459578483E+03  0.15294330000E+03 0.  0.
    8880022    1    1    2    0    0  0.16068691798E+03 -0.19057463534E+03  0.17764359028E+04  0.18003486182E+04  0.15294330000E+03 0. -1.
<mgrwt>
<rscale>  0 0.29245620E+03</rscale>
<asrwt>0</asrwt>
<pdfrwt beam="1">  1        2 0.28643586E+00 0.29245620E+03</pdfrwt>
<pdfrwt beam="2">  1       -2 0.46632512E-01 0.29245620E+03</pdfrwt>
<totfact> 0.39054940E+01</totfact>
</mgrwt>
</event>
<event>
 4    1  0.4639964E-008  0.8288872E+03  0.7818608E-02  0.9519120E-01
         -2   -1    0    0    0  501 -0.00000000000E+00  0.00000000000E+00  0.12509892825E+04  0.12509892825E+04  0.25500000000E-02 0.  1.
          2   -1    0    0  501    0  0.00000000000E+00 -0.00000000000E+00 -0.82243326827E+03  0.82243326828E+03  0.25500000000E-02 0. -1.
    8880022    1    1    2    0    0 -0.66175278391E+03  0.47512689408E+03 -0.38326271665E+03  0.91320549467E+03  0.15294330000E+03 0.  0.
    8880022    1    1    2    0    0  0.66175278391E+03 -0.47512689408E+03  0.81181873092E+03  0.11602170562E+04  0.15294330000E+03 0.  0.
<mgrwt>
<rscale>  0 0.82888719E+03</rscale>
<asrwt>0</asrwt>
<pdfrwt beam="1">  1        2 0.12652820E+00 0.82888719E+03</pdfrwt>
<pdfrwt beam="2">  1       -2 0.19245989E+00 0.82888719E+03</pdfrwt>
<totfact> 0.50072786E+00</totfact>
</mgrwt>
</event>
<event>
 4    1  0.8667573E-008  0.5725688E+03  0.7818608E-02  0.9964010E-01
         -2   -1    0    0    0  501 -0.00000000000E+00  0.00000000000E+00  0.17560159232E+04  0.17560159232E+04  0.25500000000E-02 0.  1.
          2   -1    0    0  501    0  0.00000000000E+00 -0.00000000000E+00 -0.10664955075E+04  0.10664955075E+04  0.25500000000E-02 0. -1.
    8880022    1    1    2    0    0 -0.19859503271E+03  0.51478475675E+03  0.16265562376E+04  0.17243897993E+04  0.15294330000E+03 0.  0.
    8880022    1    1    2    0    0  0.19859503271E+03 -0.51478475675E+03 -0.93703582188E+03  0.10981216314E+04  0.15294330000E+03 0. -1.
<mgrwt>
<rscale>  0 0.57256876E+03</rscale>
<asrwt>0</asrwt>
<pdfrwt beam="1">  1        2 0.16407623E+00 0.57256876E+03</pdfrwt>
<pdfrwt beam="2">  1       -2 0.27015629E+00 0.57256876E+03</pdfrwt>
<totfact> 0.11934468E+00</totfact>
</mgrwt>
</event>
<event>
 4    1  0.4639964E-008  0.1290647E+04  0.7818608E-02  0.9037015E-01
          2   -1    0    0  501    0  0.00000000000E+00  0.00000000000E+00  0.29282775106E+04  0.29282775106E+04  0.25500000000E-02 0. -1.
         -2   -1    0    0    0  501 -0.00000000000E+00 -0.00000000000E+00 -0.72158863650E+03  0.72158863650E+03  0.25500000000E-02 0.  1.
    8880022    1    1    2    0    0 -0.32174490969E+03  0.12405069040E+04  0.19429353677E+04  0.23325451039E+04  0.15294330000E+03 0.  0.
    8880022    1    1    2    0    0  0.32174490969E+03 -0.12405069040E+04  0.26375350643E+03  0.13173210432E+04  0.15294330000E+03 0.  0.
<mgrwt>
<rscale>  0 0.12906467E+04</rscale>
<asrwt>0</asrwt>
<pdfrwt beam="1">  1        2 0.45050423E+00 0.12906467E+04</pdfrwt>
<pdfrwt beam="2">  1       -2 0.11101364E+00 0.12906467E+04</pdfrwt>
<totfact> 0.12109648E+00</totfact>
</mgrwt>
</event>
<event>
 4    1  0.4639964E-008  0.3114624E+03  0.7818608E-02  0.1079647E+00
          2   -1    0    0  501    0  0.00000000000E+00  0.00000000000E+00  0.14636419138E+04  0.14636419138E+04  0.25500000000E-02 0. -1.
         -2   -1    0    0    0  501 -0.00000000000E+00 -0.00000000000E+00 -0.12238547582E+03  0.12238547585E+03  0.25500000000E-02 0.  1.
    8880022    1    1    2    0    0 -0.18129608649E+03 -0.20186360330E+03  0.13369294514E+03  0.33894341992E+03  0.15294330000E+03 0.  0.
    8880022    1    1    2    0    0  0.18129608649E+03  0.20186360330E+03  0.12075634928E+04  0.12470839697E+04  0.15294330000E+03 0.  0.
<mgrwt>
<rscale>  0 0.31146242E+03</rscale>
<asrwt>0</asrwt>
<pdfrwt beam="1">  1        2 0.22517568E+00 0.31146242E+03</pdfrwt>
<pdfrwt beam="2">  1       -2 0.18828535E-01 0.31146242E+03</pdfrwt>
<totfact> 0.33290612E+02</totfact>
</mgrwt>
</event>
<event>
 4    1  0.4639964E-008  0.2561485E+03  0.7818608E-02  0.1109480E+00
         -2   -1    0    0    0  501 -0.00000000000E+00  0.00000000000E+00  0.15960266606E+03  0.15960266608E+03  0.25500000000E-02 0.  1.
          2   -1    0    0  501    0  0.00000000000E+00 -0.00000000000E+00 -0.67887990162E+03  0.67887990163E+03  0.25500000000E-02 0. -1.
    8880022    1    1    2    0    0  0.18964633858E+02 -0.20459895631E+03 -0.52294395878E+03  0.58230784582E+03  0.15294330000E+03 0.  0.
    8880022    1    1    2    0    0 -0.18964633858E+02  0.20459895631E+03  0.36667232183E+01  0.25617472189E+03  0.15294330000E+03 0.  0.
<mgrwt>
<rscale>  0 0.25614848E+03</rscale>
<asrwt>0</asrwt>
<pdfrwt beam="1">  1        2 0.10444306E+00 0.25614848E+03</pdfrwt>
<pdfrwt beam="2">  1       -2 0.24554257E-01 0.25614848E+03</pdfrwt>
<totfact> 0.64209884E+02</totfact>
</mgrwt>
</event>
<event>
 4    1  0.4639964E-008  0.4826875E+03  0.7818608E-02  0.1018399E+00
          2   -1    0    0  501    0  0.00000000000E+00  0.00000000000E+00  0.39455733971E+03  0.39455733972E+03  0.25500000000E-02 0. -1.
         -2   -1    0    0    0  501 -0.00000000000E+00 -0.00000000000E+00 -0.83288899706E+03  0.83288899707E+03  0.25500000000E-02 0.  1.
    8880022    1    1    2    0    0  0.19362538295E+03  0.41485515002E+03 -0.55024575124E+03  0.73195465992E+03  0.15294330000E+03 0.  0.
    8880022    1    1    2    0    0 -0.19362538295E+03 -0.41485515002E+03  0.11191409388E+03  0.49549167686E+03  0.15294330000E+03 0.  0.
<mgrwt>
<rscale>  0 0.48268752E+03</rscale>
<asrwt>0</asrwt>
<pdfrwt beam="1">  1        2 0.60701129E-01 0.48268752E+03</pdfrwt>
<pdfrwt beam="2">  1       -2 0.12813677E+00 0.48268752E+03</pdfrwt>
<totfact> 0.37641934E+01</totfact>
</mgrwt>
</event>
<event>
 4    1  0.4639964E-008  0.1946086E+03  0.7818608E-02  0.1154369E+00
          2   -1    0    0  501    0  0.00000000000E+00  0.00000000000E+00  0.11696393087E+04  0.11696393087E+04  0.25500000000E-02 0. -1.
         -2   -1    0    0    0  501 -0.00000000000E+00 -0.00000000000E+00 -0.39786215802E+02  0.39786215883E+02  0.25500000000E-02 0.  1.
    8880022    1    1    2    0    0 -0.39180231378E+02 -0.11377941261E+03  0.30401602595E+03  0.36096847828E+03  0.15294330000E+03 0.  1.
    8880022    1    1    2    0    0  0.39180231378E+02  0.11377941261E+03  0.82583706696E+03  0.84845704632E+03  0.15294330000E+03 0. -1.
<mgrwt>
<rscale>  0 0.19460858E+03</rscale>
<asrwt>0</asrwt>
<pdfrwt beam="1">  1        2 0.17994450E+00 0.19460858E+03</pdfrwt>
<pdfrwt beam="2">  1       -2 0.61209566E-02 0.19460858E+03</pdfrwt>
<totfact> 0.29704331E+03</totfact>
</mgrwt>
</event>
<event>
 4    1  0.4639964E-008  0.1815678E+03  0.7818608E-02  0.1166294E+00
          2   -1    0    0  501    0  0.00000000000E+00  0.00000000000E+00  0.80167387285E+03  0.80167387285E+03  0.25500000000E-02 0. -1.
         -2   -1    0    0    0  501 -0.00000000000E+00 -0.00000000000E+00 -0.20887884934E+03  0.20887884935E+03  0.25500000000E-02 0.  1.
    8880022    1    1    2    0    0  0.31661574551E+02 -0.92589178467E+02 -0.15641788096E+03  0.23965270241E+03  0.15294330000E+03 0.  1.
    8880022    1    1    2    0    0 -0.31661574551E+02  0.92589178467E+02  0.74921290448E+03  0.77090001979E+03  0.15294330000E+03 0.  0.
<mgrwt>
<rscale>  0 0.18156780E+03</rscale>
<asrwt>0</asrwt>
<pdfrwt beam="1">  1        2 0.12333444E+00 0.18156780E+03</pdfrwt>
<pdfrwt beam="2">  1       -2 0.32135207E-01 0.18156780E+03</pdfrwt>
<totfact> 0.32449772E+02</totfact>
</mgrwt>
</event>
<event>
 4    1  0.4639964E-008  0.3622892E+03  0.7818608E-02  0.1057681E+00
          2   -1    0    0  501    0  0.00000000000E+00  0.00000000000E+00  0.29803031751E+04  0.29803031751E+04  0.25500000000E-02 0. -1.
         -2   -1    0    0    0  501 -0.00000000000E+00 -0.00000000000E+00 -0.41657394092E+03  0.41657394093E+03  0.25500000000E-02 0.  1.
    8880022    1    1    2    0    0  0.32470555383E+03 -0.49275968096E+02 -0.32428698351E+03  0.48622578954E+03  0.15294330000E+03 0.  0.
    8880022    1    1    2    0    0 -0.32470555383E+03  0.49275968096E+02  0.28880162177E+04  0.29106513265E+04  0.15294330000E+03 0. -1.
<mgrwt>
<rscale>  0 0.36228921E+03</rscale>
<asrwt>0</asrwt>
<pdfrwt beam="1">  1        2 0.45850819E+00 0.36228921E+03</pdfrwt>
<pdfrwt beam="2">  1       -2 0.64088298E-01 0.36228921E+03</pdfrwt>
<totfact> 0.47930031E+00</totfact>
</mgrwt>
</event>
<event>
 4    1  0.4639964E-008  0.5665165E+03  0.7818608E-02  0.9977417E-01
         -2   -1    0    0    0  501 -0.00000000000E+00  0.00000000000E+00  0.22932199341E+03  0.22932199342E+03  0.25500000000E-02 0.  1.
          2   -1    0    0  501    0  0.00000000000E+00 -0.00000000000E+00 -0.16744477273E+04  0.16744477273E+04  0.25500000000E-02 0. -1.
    8880022    1    1    2    0    0  0.53518735141E+03 -0.10546913287E+03 -0.11082696598E+04  0.12446696473E+04  0.15294330000E+03 0.  0.
    8880022    1    1    2    0    0 -0.53518735141E+03  0.10546913287E+03 -0.33685607408E+03  0.65910007340E+03  0.15294330000E+03 0.  0.
<mgrwt>
<rscale>  0 0.56651645E+03</rscale>
<asrwt>0</asrwt>
<pdfrwt beam="1">  1        2 0.25760733E+00 0.56651645E+03</pdfrwt>
<pdfrwt beam="2">  1       -2 0.35280308E-01 0.56651645E+03</pdfrwt>
<totfact> 0.79811341E+01</totfact>
</mgrwt>
</event>
<event>
 4    1  0.4639964E-008  0.4789464E+03  0.7818608E-02  0.1019425E+00
          2   -1    0    0  501    0  0.00000000000E+00  0.00000000000E+00  0.22684522441E+04  0.22684522441E+04  0.25500000000E-02 0. -1.
         -2   -1    0    0    0  501 -0.00000000000E+00 -0.00000000000E+00 -0.11547840761E+03  0.11547840763E+03  0.25500000000E-02 0.  1.
    8880022    1    1    2    0    0  0.15079088248E+03 -0.42808892230E+03  0.14967692964E+04  0.15715304627E+04  0.15294330000E+03 0.  0.
    8880022    1    1    2    0    0 -0.15079088248E+03  0.42808892230E+03  0.65620454008E+03  0.81240018899E+03  0.15294330000E+03 0.  0.
<mgrwt>
<rscale>  0 0.47894642E+03</rscale>
<asrwt>0</asrwt>
<pdfrwt beam="1">  1        2 0.34899264E+00 0.47894642E+03</pdfrwt>
<pdfrwt beam="2">  1       -2 0.17765909E-01 0.47894642E+03</pdfrwt>
<totfact> 0.13247408E+02</totfact>
</mgrwt>
</event>
<event>
 4    1  0.4639964E-008  0.4483031E+03  0.7818608E-02  0.1028229E+00
         -2   -1    0    0    0  501 -0.00000000000E+00  0.00000000000E+00  0.18751125490E+04  0.18751125491E+04  0.25500000000E-02 0.  1.
          2   -1    0    0  501    0  0.00000000000E+00 -0.00000000000E+00 -0.13342068810E+03  0.13342068813E+03  0.25500000000E-02 0. -1.
    8880022    1    1    2    0    0  0.22201303308E+03  0.35818180140E+03  0.13162152373E+04  0.13904668977E+04  0.15294330000E+03 0.  0.
    8880022    1    1    2    0    0 -0.22201303308E+03 -0.35818180140E+03  0.42547662367E+03  0.61806633949E+03  0.15294330000E+03 0.  0.
<mgrwt>
<rscale>  0 0.44830307E+03</rscale>
<asrwt>0</asrwt>
<pdfrwt beam="1">  1        2 0.20526260E-01 0.44830307E+03</pdfrwt>
<pdfrwt beam="2">  1       -2 0.28847885E+00 0.44830307E+03</pdfrwt>
<totfact> 0.11107726E+01</totfact>
</mgrwt>
</event>
<event>
 4    1  0.4639964E-008  0.4435701E+03  0.7818608E-02  0.1029657E+00
         -2   -1    0    0    0  501 -0.00000000000E+00  0.00000000000E+00  0.31613742019E+03  0.31613742020E+03  0.25500000000E-02 0.  1.
          2   -1    0    0  501    0  0.00000000000E+00 -0.00000000000E+00 -0.15150604733E+04  0.15150604733E+04  0.25500000000E-02 0. -1.
    8880022    1    1    2    0    0  0.36174770065E+03  0.20615854541E+03  0.10335309439E+03  0.45545170974E+03  0.15294330000E+03 0.  0.
    8880022    1    1    2    0    0 -0.36174770065E+03 -0.20615854541E+03 -0.13022761475E+04  0.13757461837E+04  0.15294330000E+03 0.  0.
<mgrwt>
<rscale>  0 0.44357006E+03</rscale>
<asrwt>0</asrwt>
<pdfrwt beam="1">  1        2 0.23308622E+00 0.44357006E+03</pdfrwt>
<pdfrwt beam="2">  1       -2 0.48636527E-01 0.44357006E+03</pdfrwt>
<totfact> 0.53077268E+01</totfact>
</mgrwt>
</event>
<event>
 4    1  0.4639964E-008  0.2035838E+03  0.7818608E-02  0.1146750E+00
         -2   -1    0    0    0  501 -0.00000000000E+00  0.00000000000E+00  0.13050362370E+03  0.13050362372E+03  0.25500000000E-02 0.  1.
          2   -1    0    0  501    0  0.00000000000E+00 -0.00000000000E+00 -0.80617180038E+03  0.80617180038E+03  0.25500000000E-02 0. -1.
    8880022    1    1    2    0    0  0.12670026451E+03 -0.44740789601E+02 -0.70243267835E+03  0.73133987715E+03  0.15294330000E+03 0.  0.
    8880022    1    1    2    0    0 -0.12670026451E+03  0.44740789601E+02  0.26764501661E+02  0.20533554696E+03  0.15294330000E+03 0.  1.
<mgrwt>
<rscale>  0 0.20358376E+03</rscale>
<asrwt>0</asrwt>
<pdfrwt beam="1">  1        2 0.12402643E+00 0.20358376E+03</pdfrwt>
<pdfrwt beam="2">  1       -2 0.20077481E-01 0.20358376E+03</pdfrwt>
<totfact> 0.73792829E+02</totfact>
</mgrwt>
</event>
<event>
 4    1  0.4639964E-008  0.4865957E+03  0.7818608E-02  0.1017338E+00
         -2   -1    0    0    0  501 -0.00000000000E+00  0.00000000000E+00  0.10032523936E+04  0.10032523936E+04  0.25500000000E-02 0.  1.
          2   -1    0    0  501    0  0.00000000000E+00 -0.00000000000E+00 -0.13017138564E+04  0.13017138564E+04  0.25500000000E-02 0. -1.
    8880022    1    1    2    0    0  0.31790194834E+03  0.33514479410E+03  0.89355610282E+03  0.10174565562E+04  0.15294330000E+03 0.  0.
    8880022    1    1    2    0    0 -0.31790194834E+03 -0.33514479410E+03 -0.11920175657E+04  0.12875096938E+04  0.15294330000E+03 0.  0.
<mgrwt>
<rscale>  0 0.48659566E+03</rscale>
<asrwt>0</asrwt>
<pdfrwt beam="1">  1        2 0.20026367E+00 0.48659566E+03</pdfrwt>
<pdfrwt beam="2">  1       -2 0.15434652E+00 0.48659566E+03</pdfrwt>
<totfact> 0.49164997E+00</totfact>
</mgrwt>
</event>
<event>
 4    1  0.4639964E-008  0.6972700E+03  0.7818608E-02  0.9721912E-01
         -2   -1    0    0    0  501 -0.00000000000E+00  0.00000000000E+00  0.83793863992E+03  0.83793863992E+03  0.25500000000E-02 0.  1.
          2   -1    0    0  501    0  0.00000000000E+00 -0.00000000000E+00 -0.13498900679E+04  0.13498900679E+04  0.25500000000E-02 0. -1.
    8880022    1    1    2    0    0 -0.39831921652E+03 -0.55148486346E+03 -0.10819899785E+04  0.12872015069E+04  0.15294330000E+03 0.  0.
    8880022    1    1    2    0    0  0.39831921652E+03  0.55148486346E+03  0.57003855052E+03  0.90062720088E+03  0.15294330000E+03 0.  0.
<mgrwt>
<rscale>  0 0.69726997E+03</rscale>
<asrwt>0</asrwt>
<pdfrwt beam="1">  1        2 0.20767540E+00 0.69726997E+03</pdfrwt>
<pdfrwt beam="2">  1       -2 0.12891364E+00 0.69726997E+03</pdfrwt>
<totfact> 0.70689442E+00</totfact>
</mgrwt>
</event>
<event>
 4    1  0.4639964E-008  0.2706193E+03  0.7818608E-02  0.1100926E+00
          2   -1    0    0  501    0  0.00000000000E+00  0.00000000000E+00  0.24474747376E+04  0.24474747376E+04  0.25500000000E-02 0. -1.
         -2   -1    0    0    0  501 -0.00000000000E+00 -0.00000000000E+00 -0.48795882119E+02  0.48795882185E+02  0.25500000000E-02 0.  1.
    8880022    1    1    2    0    0  0.21828737910E+03 -0.46837941507E+02  0.19755753091E+04  0.19940242294E+04  0.15294330000E+03 0.  0.
    8880022    1    1    2    0    0 -0.21828737910E+03  0.46837941507E+02  0.42310354635E+03  0.50224639032E+03  0.15294330000E+03 0.  0.
<mgrwt>
<rscale>  0 0.27061934E+03</rscale>
<asrwt>0</asrwt>
<pdfrwt beam="1">  1        2 0.37653466E+00 0.27061934E+03</pdfrwt>
<pdfrwt beam="2">  1       -2 0.75070572E-02 0.27061934E+03</pdfrwt>
<totfact> 0.44810992E+02</totfact>
</mgrwt>
</event>
<event>
 4    1  0.4639964E-008  0.7938955E+03  0.7818608E-02  0.9568895E-01
         -2   -1    0    0    0  501 -0.00000000000E+00  0.00000000000E+00  0.63670440510E+03  0.63670440510E+03  0.25500000000E-02 0.  1.
          2   -1    0    0  501    0  0.00000000000E+00 -0.00000000000E+00 -0.11990559630E+04  0.11990559630E+04  0.25500000000E-02 0. -1.
    8880022    1    1    2    0    0 -0.27048537491E+03  0.73055876044E+03 -0.66453618663E+03  0.10353156219E+04  0.15294330000E+03 0.  0.
    8880022    1    1    2    0    0  0.27048537491E+03 -0.73055876044E+03  0.10218462869E+03  0.80044474629E+03  0.15294330000E+03 0.  0.
<mgrwt>
<rscale>  0 0.79389552E+03</rscale>
<asrwt>0</asrwt>
<pdfrwt beam="1">  1        2 0.18447015E+00 0.79389552E+03</pdfrwt>
<pdfrwt beam="2">  1       -2 0.97954524E-01 0.79389552E+03</pdfrwt>
<totfact> 0.16684318E+01</totfact>
</mgrwt>
</event>
<event>
 4    1  0.4639964E-008  0.1332244E+04  0.7818608E-02  0.9004379E-01
          2   -1    0    0  501    0  0.00000000000E+00  0.00000000000E+00  0.13149448367E+04  0.13149448367E+04  0.25500000000E-02 0. -1.
         -2   -1    0    0    0  501 -0.00000000000E+00 -0.00000000000E+00 -0.21490374904E+04  0.21490374904E+04  0.25500000000E-02 0.  1.
    8880022    1    1    2    0    0  0.79550871463E+03 -0.10576615204E+04 -0.14733034070E+04  0.19863274123E+04  0.15294330000E+03 0.  0.
    8880022    1    1    2    0    0 -0.79550871463E+03  0.10576615204E+04  0.63921075328E+03  0.14776549147E+04  0.15294330000E+03 0.  0.
<mgrwt>
<rscale>  0 0.13322438E+04</rscale>
<asrwt>0</asrwt>
<pdfrwt beam="1">  1        2 0.20229921E+00 0.13322438E+04</pdfrwt>
<pdfrwt beam="2">  1       -2 0.33062115E+00 0.13322438E+04</pdfrwt>
<totfact> 0.32078497E-01</totfact>
</mgrwt>
</event>
<event>
 4    1  0.4639964E-008  0.4138723E+03  0.7818608E-02  0.1039079E+00
          2   -1    0    0  501    0  0.00000000000E+00  0.00000000000E+00  0.60789915611E+03  0.60789915611E+03  0.25500000000E-02 0. -1.
         -2   -1    0    0    0  501 -0.00000000000E+00 -0.00000000000E+00 -0.42120951886E+03  0.42120951887E+03  0.25500000000E-02 0.  1.
    8880022    1    1    2    0    0 -0.30279393906E+03 -0.23709590990E+03 -0.20270756747E+03  0.46084775246E+03  0.15294330000E+03 0.  0.
    8880022    1    1    2    0    0  0.30279393906E+03  0.23709590990E+03  0.38939720471E+03  0.56826092253E+03  0.15294330000E+03 0.  0.
<mgrwt>
<rscale>  0 0.41387231E+03</rscale>
<asrwt>0</asrwt>
<pdfrwt beam="1">  1        2 0.93522947E-01 0.41387231E+03</pdfrwt>
<pdfrwt beam="2">  1       -2 0.64801464E-01 0.41387231E+03</pdfrwt>
<totfact> 0.11119062E+02</totfact>
</mgrwt>
</event>
<event>
 4    1  0.4639964E-008  0.2650319E+03  0.7818608E-02  0.1104157E+00
          2   -1    0    0  501    0  0.00000000000E+00  0.00000000000E+00  0.18772046722E+04  0.18772046722E+04  0.25500000000E-02 0. -1.
         -2   -1    0    0    0  501 -0.00000000000E+00 -0.00000000000E+00 -0.13564936161E+03  0.13564936163E+03  0.25500000000E-02 0.  1.
    8880022    1    1    2    0    0  0.15744451970E+03 -0.14853112945E+03  0.17272191261E+04  0.17474346442E+04  0.15294330000E+03 0.  0.
    8880022    1    1    2    0    0 -0.15744451970E+03  0.14853112945E+03  0.14336184514E+02  0.26541938965E+03  0.15294330000E+03 0.  0.
<mgrwt>
<rscale>  0 0.26503193E+03</rscale>
<asrwt>0</asrwt>
<pdfrwt beam="1">  1        2 0.28880070E+00 0.26503193E+03</pdfrwt>
<pdfrwt beam="2">  1       -2 0.20869134E-01 0.26503193E+03</pdfrwt>
<totfact> 0.16981973E+02</totfact>
</mgrwt>
</event>
<event>
 4    1  0.4639964E-008  0.2712086E+03  0.7818608E-02  0.1100590E+00
         -2   -1    0    0    0  501 -0.00000000000E+00  0.00000000000E+00  0.57523522667E+03  0.57523522668E+03  0.25500000000E-02 0.  1.
          2   -1    0    0  501    0  0.00000000000E+00 -0.00000000000E+00 -0.37873734207E+03  0.37873734207E+03  0.25500000000E-02 0. -1.
    8880022    1    1    2    0    0  0.22387071200E+03 -0.66608437588E+01  0.48645357787E+03  0.55694811156E+03  0.15294330000E+03 0.  0.
    8880022    1    1    2    0    0 -0.22387071200E+03  0.66608437588E+01 -0.28995569327E+03  0.39702445719E+03  0.15294330000E+03 0.  0.
<mgrwt>
<rscale>  0 0.27120862E+03</rscale>
<asrwt>0</asrwt>
<pdfrwt beam="1">  1        2 0.58267283E-01 0.27120862E+03</pdfrwt>
<pdfrwt beam="2">  1       -2 0.88497727E-01 0.27120862E+03</pdfrwt>
<totfact> 0.97244702E+01</totfact>
</mgrwt>
</event>
<event>
 4    1  0.4639964E-008  0.9573288E+03  0.7818608E-02  0.9356625E-01
          2   -1    0    0  501    0  0.00000000000E+00  0.00000000000E+00  0.20334640287E+04  0.20334640287E+04  0.25500000000E-02 0. -1.
         -2   -1    0    0    0  501 -0.00000000000E+00 -0.00000000000E+00 -0.58361503880E+03  0.58361503880E+03  0.25500000000E-02 0.  1.
    8880022    1    1    2    0    0 -0.86690786039E+03  0.37624132276E+03  0.10045139421E+03  0.96258449342E+03  0.15294330000E+03 0.  0.
    8880022    1    1    2    0    0  0.86690786039E+03 -0.37624132276E+03  0.13493975957E+04  0.16544945740E+04  0.15294330000E+03 0.  0.
<mgrwt>
<rscale>  0 0.95732880E+03</rscale>
<asrwt>0</asrwt>
<pdfrwt beam="1">  1        2 0.31284062E+00 0.95732880E+03</pdfrwt>
<pdfrwt beam="2">  1       -2 0.89786930E-01 0.95732880E+03</pdfrwt>
<totfact> 0.68487169E+00</totfact>
</mgrwt>
</event>
<event>
 4    1  0.4639964E-008  0.4864912E+03  0.7818608E-02  0.1017366E+00
         -2   -1    0    0    0  501 -0.00000000000E+00  0.00000000000E+00  0.30037345797E+03  0.30037345798E+03  0.25500000000E-02 0.  1.
          2   -1    0    0  501    0  0.00000000000E+00 -0.00000000000E+00 -0.14349808934E+04  0.14349808934E+04  0.25500000000E-02 0. -1.
    8880022    1    1    2    0    0 -0.20302336296E+03 -0.41480540139E+03  0.15341098009E+02  0.48673299583E+03  0.15294330000E+03 0.  0.
    8880022    1    1    2    0    0  0.20302336296E+03  0.41480540139E+03 -0.11499485334E+04  0.12486213555E+04  0.15294330000E+03 0.  0.
<mgrwt>
<rscale>  0 0.48649117E+03</rscale>
<asrwt>0</asrwt>
<pdfrwt beam="1">  1        2 0.22076629E+00 0.48649117E+03</pdfrwt>
<pdfrwt beam="2">  1       -2 0.46211302E-01 0.48649117E+03</pdfrwt>
<totfact> 0.64602728E+01</totfact>
</mgrwt>
</event>
<event>
 4    1  0.4639964E-008  0.3454315E+03  0.7818608E-02  0.1064506E+00
          2   -1    0    0  501    0  0.00000000000E+00  0.00000000000E+00  0.41919284361E+04  0.41919284361E+04  0.25500000000E-02 0. -1.
         -2   -1    0    0    0  501 -0.00000000000E+00 -0.00000000000E+00 -0.92333001161E+02  0.92333001197E+02  0.25500000000E-02 0.  1.
    8880022    1    1    2    0    0  0.26797730365E+03  0.15530442666E+03  0.26820105516E+03  0.43732683340E+03  0.15294330000E+03 0.  0.
    8880022    1    1    2    0    0 -0.26797730365E+03 -0.15530442666E+03  0.38313943798E+04  0.38469346039E+04  0.15294330000E+03 0.  0.
<mgrwt>
<rscale>  0 0.34543155E+03</rscale>
<asrwt>0</asrwt>
<pdfrwt beam="1">  1        2 0.64491186E+00 0.34543155E+03</pdfrwt>
<pdfrwt beam="2">  1       -2 0.14205082E-01 0.34543155E+03</pdfrwt>
<totfact> 0.11408402E+01</totfact>
</mgrwt>
</event>
<event>
 4    1  0.4639964E-008  0.3655855E+03  0.7818608E-02  0.1056394E+00
         -2   -1    0    0    0  501 -0.00000000000E+00  0.00000000000E+00  0.19698808906E+03  0.19698808908E+03  0.25500000000E-02 0.  1.
          2   -1    0    0  501    0  0.00000000000E+00 -0.00000000000E+00 -0.80129212362E+03  0.80129212363E+03  0.25500000000E-02 0. -1.
    8880022    1    1    2    0    0 -0.29631429541E+03 -0.14986298817E+03 -0.49756139236E+03  0.61743021393E+03  0.15294330000E+03 0.  0.
    8880022    1    1    2    0    0  0.29631429541E+03  0.14986298817E+03 -0.10674264220E+03  0.38084999878E+03  0.15294330000E+03 0.  0.
<mgrwt>
<rscale>  0 0.36558546E+03</rscale>
<asrwt>0</asrwt>
<pdfrwt beam="1">  1        2 0.12327571E+00 0.36558546E+03</pdfrwt>
<pdfrwt beam="2">  1       -2 0.30305860E-01 0.36558546E+03</pdfrwt>
<totfact> 0.35520325E+02</totfact>
</mgrwt>
</event>
<event>
 4    1  0.4639964E-008  0.4214256E+03  0.7818608E-02  0.1036603E+00
          2   -1    0    0  501    0  0.00000000000E+00  0.00000000000E+00  0.16119904863E+04  0.16119904863E+04  0.25500000000E-02 0. -1.
         -2   -1    0    0    0  501 -0.00000000000E+00 -0.00000000000E+00 -0.10348450329E+04  0.10348450329E+04  0.25500000000E-02 0.  1.
    8880022    1    1    2    0    0  0.24294896626E+03  0.30851856112E+03 -0.96241459449E+03  0.10506385713E+04  0.15294330000E+03 0.  0.
    8880022    1    1    2    0    0 -0.24294896626E+03 -0.30851856112E+03  0.15395600479E+04  0.15961969480E+04  0.15294330000E+03 0.  0.
<mgrwt>
<rscale>  0 0.42142562E+03</rscale>
<asrwt>0</asrwt>
<pdfrwt beam="1">  1        2 0.24799854E+00 0.42142562E+03</pdfrwt>
<pdfrwt beam="2">  1       -2 0.15920693E+00 0.42142562E+03</pdfrwt>
<totfact> 0.31062144E+00</totfact>
</mgrwt>
</event>
<event>
 4    1  0.4639964E-008  0.2838526E+03  0.7818608E-02  0.1093603E+00
         -2   -1    0    0    0  501 -0.00000000000E+00  0.00000000000E+00  0.35874164549E+03  0.35874164550E+03  0.25500000000E-02 0.  1.
          2   -1    0    0  501    0  0.00000000000E+00 -0.00000000000E+00 -0.13984018081E+04  0.13984018081E+04  0.25500000000E-02 0. -1.
    8880022    1    1    2    0    0 -0.43437117006E+02 -0.23514649483E+03 -0.13247620389E+04  0.13548309009E+04  0.15294330000E+03 0.  0.
    8880022    1    1    2    0    0  0.43437117006E+02  0.23514649483E+03  0.28510187633E+03  0.40231255271E+03  0.15294330000E+03 0.  0.
<mgrwt>
<rscale>  0 0.28385262E+03</rscale>
<asrwt>0</asrwt>
<pdfrwt beam="1">  1        2 0.21513874E+00 0.28385262E+03</pdfrwt>
<pdfrwt beam="2">  1       -2 0.55191023E-01 0.28385262E+03</pdfrwt>
<totfact> 0.49259843E+01</totfact>
</mgrwt>
</event>
<event>
 4    1  0.4639964E-008  0.5962530E+03  0.7818608E-02  0.9913210E-01
          2   -1    0    0  501    0  0.00000000000E+00  0.00000000000E+00  0.15229635322E+04  0.15229635322E+04  0.25500000000E-02 0. -1.
         -2   -1    0    0    0  501 -0.00000000000E+00 -0.00000000000E+00 -0.27663865873E+03  0.27663865874E+03  0.25500000000E-02 0.  1.
    8880022    1    1    2    0    0 -0.18910858333E+03  0.54439319228E+03  0.26758438186E+03  0.65354346338E+03  0.15294330000E+03 0.  0.
    8880022    1    1    2    0    0  0.18910858333E+03 -0.54439319228E+03  0.97874049156E+03  0.11460587275E+04  0.15294330000E+03 0.  0.
<mgrwt>
<rscale>  0 0.59625301E+03</rscale>
<asrwt>0</asrwt>
<pdfrwt beam="1">  1        2 0.23430208E+00 0.59625301E+03</pdfrwt>
<pdfrwt beam="2">  1       -2 0.42559794E-01 0.59625301E+03</pdfrwt>
<totfact> 0.66960422E+01</totfact>
</mgrwt>
</event>
<event>
 4    1  0.4639964E-008  0.1687810E+03  0.7818608E-02  0.1179125E+00
         -2   -1    0    0    0  501 -0.00000000000E+00  0.00000000000E+00  0.13965855874E+04  0.13965855874E+04  0.25500000000E-02 0.  1.
          2   -1    0    0  501    0  0.00000000000E+00 -0.00000000000E+00 -0.50058626445E+02  0.50058626510E+02  0.25500000000E-02 0. -1.
    8880022    1    1    2    0    0  0.97569506034E+01  0.70711979167E+02  0.12300454308E+04  0.12415711002E+04  0.15294330000E+03 0.  0.
    8880022    1    1    2    0    0 -0.97569506034E+01 -0.70711979167E+02  0.11648153021E+03  0.20507311374E+03  0.15294330000E+03 0. -1.
<mgrwt>
<rscale>  0 0.16878103E+03</rscale>
<asrwt>0</asrwt>
<pdfrwt beam="1">  1        2 0.77013263E-02 0.16878103E+03</pdfrwt>
<pdfrwt beam="2">  1       -2 0.21485934E+00 0.16878103E+03</pdfrwt>
<totfact> 0.10463605E+02</totfact>
</mgrwt>
</event>
<event>
 4    1  0.4885325E-008  0.8449587E+03  0.7818608E-02  0.9497128E-01
          2   -1    0    0  501    0  0.00000000000E+00  0.00000000000E+00  0.16850560093E+04  0.16850560093E+04  0.25500000000E-02 0. -1.
         -2   -1    0    0    0  501 -0.00000000000E+00 -0.00000000000E+00 -0.11411357754E+04  0.11411357754E+04  0.25500000000E-02 0.  1.
    8880022    1    1    2    0    0  0.82972278805E+03  0.46082298842E+02  0.13924167294E+04  0.16287355478E+04  0.15294330000E+03 0.  0.
    8880022    1    1    2    0    0 -0.82972278805E+03 -0.46082298842E+02 -0.84849649551E+03  0.11974562369E+04  0.15294330000E+03 0.  0.
<mgrwt>
<rscale>  0 0.84495866E+03</rscale>
<asrwt>0</asrwt>
<pdfrwt beam="1">  1        2 0.25923939E+00 0.84495866E+03</pdfrwt>
<pdfrwt beam="2">  1       -2 0.17555935E+00 0.84495866E+03</pdfrwt>
<totfact> 0.19786748E+00</totfact>
</mgrwt>
</event>
<event>
 4    1  0.4639964E-008  0.7196368E+03  0.7818608E-02  0.9684228E-01
         -2   -1    0    0    0  501 -0.00000000000E+00  0.00000000000E+00  0.44746277004E+03  0.44746277005E+03  0.25500000000E-02 0.  1.
          2   -1    0    0  501    0  0.00000000000E+00 -0.00000000000E+00 -0.13171794899E+04  0.13171794899E+04  0.25500000000E-02 0. -1.
    8880022    1    1    2    0    0 -0.41655529733E+03  0.56653962196E+03 -0.74219490888E+03  0.10337941743E+04  0.15294330000E+03 0.  0.
    8880022    1    1    2    0    0  0.41655529733E+03 -0.56653962196E+03 -0.12752181093E+03  0.73084808563E+03  0.15294330000E+03 0.  0.
<mgrwt>
<rscale>  0 0.71963679E+03</rscale>
<asrwt>0</asrwt>
<pdfrwt beam="1">  1        2 0.20264300E+00 0.71963679E+03</pdfrwt>
<pdfrwt beam="2">  1       -2 0.68840427E-01 0.71963679E+03</pdfrwt>
<totfact> 0.31881653E+01</totfact>
</mgrwt>
</event>
<event>
 4    1  0.4639964E-008  0.6095095E+03  0.7818608E-02  0.9885871E-01
         -2   -1    0    0    0  501 -0.00000000000E+00  0.00000000000E+00  0.33091639201E+03  0.33091639202E+03  0.25500000000E-02 0.  1.
          2   -1    0    0  501    0  0.00000000000E+00 -0.00000000000E+00 -0.15246856544E+04  0.15246856544E+04  0.25500000000E-02 0. -1.
    8880022    1    1    2    0    0 -0.56026759649E+03  0.18496054386E+03 -0.12045436285E+03  0.62129790681E+03  0.15294330000E+03 0.  0.
    8880022    1    1    2    0    0  0.56026759649E+03 -0.18496054386E+03 -0.10733148995E+04  0.12343041396E+04  0.15294330000E+03 0.  0.
<mgrwt>
<rscale>  0 0.60950950E+03</rscale>
<asrwt>0</asrwt>
<pdfrwt beam="1">  1        2 0.23456702E+00 0.60950950E+03</pdfrwt>
<pdfrwt beam="2">  1       -2 0.50910215E-01 0.60950950E+03</pdfrwt>
<totfact> 0.46609085E+01</totfact>
</mgrwt>
</event>
<event>
 4    1  0.4639964E-008  0.4557079E+03  0.7818608E-02  0.1026033E+00
          2   -1    0    0  501    0  0.00000000000E+00  0.00000000000E+00  0.20204053035E+04  0.20204053035E+04  0.25500000000E-02 0. -1.
         -2   -1    0    0    0  501 -0.00000000000E+00 -0.00000000000E+00 -0.12972092128E+03  0.12972092131E+03  0.25500000000E-02 0.  1.
    8880022    1    1    2    0    0 -0.42605304624E+03 -0.52505255403E+02  0.14352176827E+04  0.15058284928E+04  0.15294330000E+03 0. -1.
    8880022    1    1    2    0    0  0.42605304624E+03  0.52505255403E+02  0.45546669952E+03  0.64429773198E+03  0.15294330000E+03 0.  0.
<mgrwt>
<rscale>  0 0.45570786E+03</rscale>
<asrwt>0</asrwt>
<pdfrwt beam="1">  1        2 0.31083157E+00 0.45570786E+03</pdfrwt>
<pdfrwt beam="2">  1       -2 0.19957066E-01 0.45570786E+03</pdfrwt>
<totfact> 0.14824887E+02</totfact>
</mgrwt>
</event>
<event>
 4    1  0.4639964E-008  0.1406789E+04  0.7818608E-02  0.8948919E-01
          2   -1    0    0  501    0  0.00000000000E+00  0.00000000000E+00  0.25522442559E+04  0.25522442559E+04  0.25500000000E-02 0. -1.
         -2   -1    0    0    0  501 -0.00000000000E+00 -0.00000000000E+00 -0.14883765667E+04  0.14883765667E+04  0.25500000000E-02 0.  1.
    8880022    1    1    2    0    0 -0.31664440680E+03 -0.13621307713E+04 -0.86634537445E+03  0.16521531041E+04  0.15294330000E+03 0.  0.
    8880022    1    1    2    0    0  0.31664440680E+03  0.13621307713E+04  0.19302130636E+04  0.23884677185E+04  0.15294330000E+03 0.  0.
<mgrwt>
<rscale>  0 0.14067891E+04</rscale>
<asrwt>0</asrwt>
<pdfrwt beam="1">  1        2 0.39265296E+00 0.14067891E+04</pdfrwt>
<pdfrwt beam="2">  1       -2 0.22898101E+00 0.14067891E+04</pdfrwt>
<totfact> 0.26735253E-01</totfact>
</mgrwt>
</event>
<event>
 4    1  0.4639964E-008  0.5860621E+03  0.7818608E-02  0.9934752E-01
         -2   -1    0    0    0  501 -0.00000000000E+00  0.00000000000E+00  0.10234858939E+04  0.10234858940E+04  0.25500000000E-02 0.  1.
          2   -1    0    0  501    0  0.00000000000E+00 -0.00000000000E+00 -0.42898539929E+03  0.42898539930E+03  0.25500000000E-02 0. -1.
    8880022    1    1    2    0    0 -0.20136164931E+03  0.52870656349E+03 -0.41613794075E+02  0.58753766260E+03  0.15294330000E+03 0. -1.
    8880022    1    1    2    0    0  0.20136164931E+03 -0.52870656349E+03  0.63611428873E+03  0.86493363066E+03  0.15294330000E+03 0.  0.
<mgrwt>
<rscale>  0 0.58606211E+03</rscale>
<asrwt>0</asrwt>
<pdfrwt beam="1">  1        2 0.65997754E-01 0.58606211E+03</pdfrwt>
<pdfrwt beam="2">  1       -2 0.15745937E+00 0.58606211E+03</pdfrwt>
<totfact> 0.19899987E+01</totfact>
</mgrwt>
</event>
<event>
 4    1  0.4639964E-008  0.2131488E+03  0.7818608E-02  0.1139096E+00
         -2   -1    0    0    0  501 -0.00000000000E+00  0.00000000000E+00  0.14264407114E+04  0.14264407114E+04  0.25500000000E-02 0.  1.
          2   -1    0    0  501    0  0.00000000000E+00 -0.00000000000E+00 -0.15516218342E+03  0.15516218344E+03  0.25500000000E-02 0. -1.
    8880022    1    1    2    0    0  0.40097029805E+01  0.14840713118E+03  0.13406198771E+04  0.13574586778E+04  0.15294330000E+03 0.  0.
    8880022    1    1    2    0    0 -0.40097029805E+01 -0.14840713118E+03 -0.69341349075E+02  0.22414421699E+03  0.15294330000E+03 0. -1.
<mgrwt>
<rscale>  0 0.21314879E+03</rscale>
<asrwt>0</asrwt>
<pdfrwt beam="1">  1        2 0.23871105E-01 0.21314879E+03</pdfrwt>
<pdfrwt beam="2">  1       -2 0.21945242E+00 0.21314879E+03</pdfrwt>
<totfact> 0.25182484E+01</totfact>
</mgrwt>
</event>
<event>
 4    1  0.4639964E-008  0.8358342E+03  0.7818608E-02  0.9509550E-01
          2   -1    0    0  501    0  0.00000000000E+00  0.00000000000E+00  0.10192458197E+04  0.10192458197E+04  0.25500000000E-02 0. -1.
         -2   -1    0    0    0  501 -0.00000000000E+00 -0.00000000000E+00 -0.12668314549E+04  0.12668314549E+04  0.25500000000E-02 0.  1.
    8880022    1    1    2    0    0 -0.49742177618E+03  0.65406322546E+03  0.65056307082E+03  0.10591747205E+04  0.15294330000E+03 0.  0.
    8880022    1    1    2    0    0  0.49742177618E+03 -0.65406322546E+03 -0.89814870605E+03  0.12269025542E+04  0.15294330000E+03 0.  0.
<mgrwt>
<rscale>  0 0.83583418E+03</rscale>
<asrwt>0</asrwt>
<pdfrwt beam="1">  1        2 0.15680705E+00 0.83583418E+03</pdfrwt>
<pdfrwt beam="2">  1       -2 0.19489715E+00 0.83583418E+03</pdfrwt>
<totfact> 0.35598772E+00</totfact>
</mgrwt>
</event>
<event>
 4    1  0.4639964E-008  0.6512338E+03  0.7818608E-02  0.9804467E-01
         -2   -1    0    0    0  501 -0.00000000000E+00  0.00000000000E+00  0.14053551048E+04  0.14053551048E+04  0.25500000000E-02 0.  1.
          2   -1    0    0  501    0  0.00000000000E+00 -0.00000000000E+00 -0.81409260013E+03  0.81409260013E+03  0.25500000000E-02 0. -1.
    8880022    1    1    2    0    0  0.12772058535E+03 -0.62000102436E+03 -0.58470040128E+03  0.87520285101E+03  0.15294330000E+03 0.  0.
    8880022    1    1    2    0    0 -0.12772058535E+03  0.62000102436E+03  0.11759629060E+04  0.13442448539E+04  0.15294330000E+03 0.  0.
<mgrwt>
<rscale>  0 0.65123381E+03</rscale>
<asrwt>0</asrwt>
<pdfrwt beam="1">  1        2 0.12524501E+00 0.65123381E+03</pdfrwt>
<pdfrwt beam="2">  1       -2 0.21620848E+00 0.65123381E+03</pdfrwt>
<totfact> 0.36580896E+00</totfact>
</mgrwt>
</event>
<event>
 4    1  0.4639964E-008  0.4821384E+03  0.7818608E-02  0.1018549E+00
          2   -1    0    0  501    0  0.00000000000E+00  0.00000000000E+00  0.32514124812E+04  0.32514124812E+04  0.25500000000E-02 0. -1.
         -2   -1    0    0    0  501 -0.00000000000E+00 -0.00000000000E+00 -0.20847597571E+03  0.20847597573E+03  0.25500000000E-02 0.  1.
    8880022    1    1    2    0    0  0.45605397123E+03  0.32872540876E+02  0.29237501292E+04  0.29632367944E+04  0.15294330000E+03 0. -1.
    8880022    1    1    2    0    0 -0.45605397123E+03 -0.32872540876E+02  0.11918637632E+03  0.49665166257E+03  0.15294330000E+03 0.  0.
<mgrwt>
<rscale>  0 0.48213845E+03</rscale>
<asrwt>0</asrwt>
<pdfrwt beam="1">  1        2 0.50021733E+00 0.48213845E+03</pdfrwt>
<pdfrwt beam="2">  1       -2 0.32073226E-01 0.48213845E+03</pdfrwt>
<totfact> 0.12346416E+01</totfact>
</mgrwt>
</event>
<event>
 4    1  0.4639964E-008  0.3565189E+03  0.7818608E-02  0.1059971E+00
          2   -1    0    0  501    0  0.00000000000E+00  0.00000000000E+00  0.76842782429E+03  0.76842782429E+03  0.25500000000E-02 0. -1.
         -2   -1    0    0    0  501 -0.00000000000E+00 -0.00000000000E+00 -0.26784246876E+03  0.26784246877E+03  0.25500000000E-02 0.  1.
    8880022    1    1    2    0    0  0.10199660955E+02 -0.32188514877E+03  0.57071436899E+03  0.67291947963E+03  0.15294330000E+03 0.  0.
    8880022    1    1    2    0    0 -0.10199660955E+02  0.32188514877E+03 -0.70129013463E+02  0.36335081344E+03  0.15294330000E+03 0.  0.
<mgrwt>
<rscale>  0 0.35651891E+03</rscale>
<asrwt>0</asrwt>
<pdfrwt beam="1">  1        2 0.11821967E+00 0.35651891E+03</pdfrwt>
<pdfrwt beam="2">  1       -2 0.41206533E-01 0.35651891E+03</pdfrwt>
<totfact> 0.21017146E+02</totfact>
</mgrwt>
</event>
<event>
 4    1  0.4639964E-008  0.2401945E+03  0.7818608E-02  0.1119663E+00
          2   -1    0    0  501    0  0.00000000000E+00  0.00000000000E+00  0.19642641728E+04  0.19642641728E+04  0.25500000000E-02 0. -1.
         -2   -1    0    0    0  501 -0.00000000000E+00 -0.00000000000E+00 -0.10626612295E+03  0.10626612298E+03  0.25500000000E-02 0.  1.
    8880022    1    1    2    0    0 -0.17346035574E+03  0.64909395129E+02  0.48351391125E+02  0.24501272340E+03  0.15294330000E+03 0.  0.
    8880022    1    1    2    0    0  0.17346035574E+03 -0.64909395129E+02  0.18096466588E+04  0.18255175724E+04  0.15294330000E+03 0. -1.
<mgrwt>
<rscale>  0 0.24019446E+03</rscale>
<asrwt>0</asrwt>
<pdfrwt beam="1">  1        2 0.30219446E+00 0.24019446E+03</pdfrwt>
<pdfrwt beam="2">  1       -2 0.16348636E-01 0.24019446E+03</pdfrwt>
<totfact> 0.23288452E+02</totfact>
</mgrwt>
</event>
<event>
 4    1  0.4639964E-008  0.5840113E+03  0.7818608E-02  0.9939144E-01
          2   -1    0    0  501    0  0.00000000000E+00  0.00000000000E+00  0.36126633970E+04  0.36126633970E+04  0.25500000000E-02 0. -1.
         -2   -1    0    0    0  501 -0.00000000000E+00 -0.00000000000E+00 -0.20345589958E+03  0.20345589959E+03  0.25500000000E-02 0.  1.
    8880022    1    1    2    0    0 -0.39689801084E+02 -0.56222972020E+03  0.30771192971E+03  0.66011803739E+03  0.15294330000E+03 0.  0.
    8880022    1    1    2    0    0  0.39689801084E+02  0.56222972020E+03  0.31014955677E+04  0.31560012592E+04  0.15294330000E+03 0.  0.
<mgrwt>
<rscale>  0 0.58401129E+03</rscale>
<asrwt>0</asrwt>
<pdfrwt beam="1">  1        2 0.55579435E+00 0.58401129E+03</pdfrwt>
<pdfrwt beam="2">  1       -2 0.31300909E-01 0.58401129E+03</pdfrwt>
<totfact> 0.72226380E+00</totfact>
</mgrwt>
</event>
<event>
 4    1  0.4639964E-008  0.1114696E+04  0.7818608E-02  0.9190985E-01
         -2   -1    0    0    0  501 -0.00000000000E+00  0.00000000000E+00  0.89796389869E+03  0.89796389869E+03  0.25500000000E-02 0.  1.
          2   -1    0    0  501    0  0.00000000000E+00 -0.00000000000E+00 -0.22151551600E+04  0.22151551600E+04  0.25500000000E-02 0. -1.
    8880022    1    1    2    0    0 -0.10395823094E+04 -0.37205466299E+03 -0.16122102031E+04  0.19600432246E+04  0.15294330000E+03 0.  0.
    8880022    1    1    2    0    0  0.10395823094E+04  0.37205466299E+03  0.29501894177E+03  0.11530758341E+04  0.15294330000E+03 0.  0.
<mgrwt>
<rscale>  0 0.11146962E+04</rscale>
<asrwt>0</asrwt>
<pdfrwt beam="1">  1        2 0.34079310E+00 0.11146962E+04</pdfrwt>
<pdfrwt beam="2">  1       -2 0.13814829E+00 0.11146962E+04</pdfrwt>
<totfact> 0.18562060E+00</totfact>
</mgrwt>
</event>
<event>
 4    1  0.4639964E-008  0.1237341E+04  0.7818608E-02  0.9080785E-01
         -2   -1    0    0    0  501 -0.00000000000E+00  0.00000000000E+00  0.17883301717E+04  0.17883301717E+04  0.25500000000E-02 0.  1.
          2   -1    0    0  501    0  0.00000000000E+00 -0.00000000000E+00 -0.96260660248E+03  0.96260660249E+03  0.25500000000E-02 0. -1.
    8880022    1    1    2    0    0  0.11254714825E+04  0.49085181954E+03 -0.44634289284E+02  0.12381459686E+04  0.15294330000E+03 0.  0.
    8880022    1    1    2    0    0 -0.11254714825E+04 -0.49085181954E+03  0.87035785851E+03  0.15127908056E+04  0.15294330000E+03 0.  0.
<mgrwt>
<rscale>  0 0.12373412E+04</rscale>
<asrwt>0</asrwt>
<pdfrwt beam="1">  1        2 0.14809332E+00 0.12373412E+04</pdfrwt>
<pdfrwt beam="2">  1       -2 0.27512772E+00 0.12373412E+04</pdfrwt>
<totfact> 0.11681201E+00</totfact>
</mgrwt>
</event>
<event>
 4    1  0.4639964E-008  0.7451910E+03  0.7818608E-02  0.9642925E-01
         -2   -1    0    0    0  501 -0.00000000000E+00  0.00000000000E+00  0.53901959494E+03  0.53901959495E+03  0.25500000000E-02 0.  1.
          2   -1    0    0  501    0  0.00000000000E+00 -0.00000000000E+00 -0.13976989344E+04  0.13976989344E+04  0.25500000000E-02 0. -1.
    8880022    1    1    2    0    0 -0.23935865940E+03  0.68893058591E+03  0.67189806873E+02  0.74821390203E+03  0.15294330000E+03 0.  0.
    8880022    1    1    2    0    0  0.23935865940E+03 -0.68893058591E+03 -0.92586914637E+03  0.11885046274E+04  0.15294330000E+03 0.  0.
<mgrwt>
<rscale>  0 0.74519096E+03</rscale>
<asrwt>0</asrwt>
<pdfrwt beam="1">  1        2 0.21503060E+00 0.74519096E+03</pdfrwt>
<pdfrwt beam="2">  1       -2 0.82926092E-01 0.74519096E+03</pdfrwt>
<totfact> 0.18921475E+01</totfact>
</mgrwt>
</event>
<event>
 4    1  0.4639964E-008  0.6209289E+03  0.7818608E-02  0.9862912E-01
          2   -1    0    0  501    0  0.00000000000E+00  0.00000000000E+00  0.12972381503E+04  0.12972381503E+04  0.25500000000E-02 0. -1.
         -2   -1    0    0    0  501 -0.00000000000E+00 -0.00000000000E+00 -0.38381847688E+03  0.38381847689E+03  0.25500000000E-02 0.  1.
    8880022    1    1    2    0    0 -0.23331588402E+03 -0.55472943193E+03  0.85598155831E+03  0.10574767731E+04  0.15294330000E+03 0.  0.
    8880022    1    1    2    0    0  0.23331588402E+03  0.55472943193E+03  0.57438115089E+02  0.62357985412E+03  0.15294330000E+03 0.  0.
<mgrwt>
<rscale>  0 0.62092890E+03</rscale>
<asrwt>0</asrwt>
<pdfrwt beam="1">  1        2 0.19957510E+00 0.62092890E+03</pdfrwt>
<pdfrwt beam="2">  1       -2 0.59048996E-01 0.62092890E+03</pdfrwt>
<totfact> 0.45948940E+01</totfact>
</mgrwt>
</event>
<event>
 4    1  0.4639964E-008  0.1571512E+04  0.7818608E-02  0.8838243E-01
          2   -1    0    0  501    0  0.00000000000E+00  0.00000000000E+00  0.27581845697E+04  0.27581845697E+04  0.25500000000E-02 0. -1.
         -2   -1    0    0    0  501 -0.00000000000E+00 -0.00000000000E+00 -0.12846201018E+04  0.12846201018E+04  0.25500000000E-02 0.  1.
    8880022    1    1    2    0    0 -0.15508040386E+04 -0.20313988378E+03 -0.37589362854E+03  0.16158423969E+04  0.15294330000E+03 0.  0.
    8880022    1    1    2    0    0  0.15508040386E+04  0.20313988378E+03  0.18494580964E+04  0.24269622745E+04  0.15294330000E+03 0.  0.
<mgrwt>
<rscale>  0 0.15715122E+04</rscale>
<asrwt>0</asrwt>
<pdfrwt beam="1">  1        2 0.42433608E+00 0.15715122E+04</pdfrwt>
<pdfrwt beam="2">  1       -2 0.19763386E+00 0.15715122E+04</pdfrwt>
<totfact> 0.31534918E-01</totfact>
</mgrwt>
</event>
<event>
 4    1  0.4639964E-008  0.7804769E+03  0.7818608E-02  0.9588714E-01
          2   -1    0    0  501    0  0.00000000000E+00  0.00000000000E+00  0.91299881204E+03  0.91299881204E+03  0.25500000000E-02 0. -1.
         -2   -1    0    0    0  501 -0.00000000000E+00 -0.00000000000E+00 -0.93621389058E+03  0.93621389058E+03  0.25500000000E-02 0.  1.
    8880022    1    1    2    0    0  0.16015585883E+03  0.74840001745E+03 -0.50724525786E+03  0.93082860392E+03  0.15294330000E+03 0.  0.
    8880022    1    1    2    0    0 -0.16015585883E+03 -0.74840001745E+03  0.48403017933E+03  0.91838409870E+03  0.15294330000E+03 0.  0.
<mgrwt>
<rscale>  0 0.78047687E+03</rscale>
<asrwt>0</asrwt>
<pdfrwt beam="1">  1        2 0.14046136E+00 0.78047687E+03</pdfrwt>
<pdfrwt beam="2">  1       -2 0.14403291E+00 0.78047687E+03</pdfrwt>
<totfact> 0.97114240E+00</totfact>
</mgrwt>
</event>
<event>
 4    1  0.4639964E-008  0.5209363E+03  0.7818608E-02  0.1008454E+00
         -2   -1    0    0    0  501 -0.00000000000E+00  0.00000000000E+00  0.46764068280E+03  0.46764068281E+03  0.25500000000E-02 0.  1.
          2   -1    0    0  501    0  0.00000000000E+00 -0.00000000000E+00 -0.78492716543E+03  0.78492716544E+03  0.25500000000E-02 0. -1.
    8880022    1    1    2    0    0  0.45748542157E+03  0.19669787588E+03  0.16112257366E+03  0.54528442311E+03  0.15294330000E+03 0.  1.
    8880022    1    1    2    0    0 -0.45748542157E+03 -0.19669787588E+03 -0.47840905629E+03  0.70728342514E+03  0.15294330000E+03 0.  0.
<mgrwt>
<rscale>  0 0.52093629E+03</rscale>
<asrwt>0</asrwt>
<pdfrwt beam="1">  1        2 0.12075803E+00 0.52093629E+03</pdfrwt>
<pdfrwt beam="2">  1       -2 0.71944720E-01 0.52093629E+03</pdfrwt>
<totfact> 0.63937529E+01</totfact>
</mgrwt>
</event>
<event>
 4    1  0.4639964E-008  0.2904410E+03  0.7818608E-02  0.1090119E+00
          2   -1    0    0  501    0  0.00000000000E+00  0.00000000000E+00  0.29967602690E+04  0.29967602690E+04  0.25500000000E-02 0. -1.
         -2   -1    0    0    0  501 -0.00000000000E+00 -0.00000000000E+00 -0.65281220248E+02  0.65281220298E+02  0.25500000000E-02 0.  1.
    8880022    1    1    2    0    0 -0.25854494207E+02 -0.24555211058E+03  0.31105824413E+03  0.42557393968E+03  0.15294330000E+03 0.  0.
    8880022    1    1    2    0    0  0.25854494207E+02  0.24555211058E+03  0.26204208046E+04  0.26364675496E+04  0.15294330000E+03 0.  1.
<mgrwt>
<rscale>  0 0.29044095E+03</rscale>
<asrwt>0</asrwt>
<pdfrwt beam="1">  1        2 0.46104019E+00 0.29044095E+03</pdfrwt>
<pdfrwt beam="2">  1       -2 0.10043261E-01 0.29044095E+03</pdfrwt>
<totfact> 0.13735944E+02</totfact>
</mgrwt>
</event>
<event>
 4    1  0.4639964E-008  0.5684964E+03  0.7818608E-02  0.9973011E-01
         -2   -1    0    0    0  501 -0.00000000000E+00  0.00000000000E+00  0.12253009272E+04  0.12253009272E+04  0.25500000000E-02 0.  1.
          2   -1    0    0  501    0  0.00000000000E+00 -0.00000000000E+00 -0.49758134278E+03  0.49758134279E+03  0.25500000000E-02 0. -1.
    8880022    1    1    2    0    0 -0.54322101336E+03 -0.68610732156E+02  0.95437832017E+03  0.11108672886E+04  0.15294330000E+03 0.  0.
    8880022    1    1    2    0    0  0.54322101336E+03  0.68610732156E+02 -0.22665873574E+03  0.61201498138E+03  0.15294330000E+03 0. -1.
<mgrwt>
<rscale>  0 0.56849640E+03</rscale>
<asrwt>0</asrwt>
<pdfrwt beam="1">  1        2 0.76550978E-01 0.56849640E+03</pdfrwt>
<pdfrwt beam="2">  1       -2 0.18850783E+00 0.56849640E+03</pdfrwt>
<totfact> 0.10218390E+01</totfact>
</mgrwt>
</event>
<event>
 4    1  0.4639964E-008  0.2843778E+03  0.7818608E-02  0.1093322E+00
         -2   -1    0    0    0  501 -0.00000000000E+00  0.00000000000E+00  0.42936755065E+03  0.42936755066E+03  0.25500000000E-02 0.  1.
          2   -1    0    0  501    0  0.00000000000E+00 -0.00000000000E+00 -0.72601466519E+03  0.72601466520E+03  0.25500000000E-02 0. -1.
    8880022    1    1    2    0    0  0.28030832257E+02  0.23810362711E+03 -0.64546429815E+03  0.70533316809E+03  0.15294330000E+03 0.  0.
    8880022    1    1    2    0    0 -0.28030832257E+02 -0.23810362711E+03  0.34881718361E+03  0.45004904777E+03  0.15294330000E+03 0.  0.
<mgrwt>
<rscale>  0 0.28437777E+03</rscale>
<asrwt>0</asrwt>
<pdfrwt beam="1">  1        2 0.11169456E+00 0.28437777E+03</pdfrwt>
<pdfrwt beam="2">  1       -2 0.66056546E-01 0.28437777E+03</pdfrwt>
<totfact> 0.87510486E+01</totfact>
</mgrwt>
</event>
<event>
 4    1  0.4639964E-008  0.5211758E+03  0.7818608E-02  0.1008395E+00
          2   -1    0    0  501    0  0.00000000000E+00  0.00000000000E+00  0.49171142636E+03  0.49171142637E+03  0.25500000000E-02 0. -1.
         -2   -1    0    0    0  501 -0.00000000000E+00 -0.00000000000E+00 -0.75770071082E+03  0.75770071082E+03  0.25500000000E-02 0.  1.
    8880022    1    1    2    0    0 -0.15914060066E+01 -0.49822690014E+03  0.19217949745E+03  0.55547924250E+03  0.15294330000E+03 0.  0.
    8880022    1    1    2    0    0  0.15914060066E+01  0.49822690014E+03 -0.45816878191E+03  0.69393289469E+03  0.15294330000E+03 0.  0.
<mgrwt>
<rscale>  0 0.52117581E+03</rscale>
<asrwt>0</asrwt>
<pdfrwt beam="1">  1        2 0.75647912E-01 0.52117581E+03</pdfrwt>
<pdfrwt beam="2">  1       -2 0.11656934E+00 0.52117581E+03</pdfrwt>
<totfact> 0.36971642E+01</totfact>
</mgrwt>
</event>
<event>
 4    1  0.4639964E-008  0.8792571E+03  0.7818608E-02  0.9451889E-01
          2   -1    0    0  501    0  0.00000000000E+00  0.00000000000E+00  0.24453484884E+04  0.24453484884E+04  0.25500000000E-02 0. -1.
         -2   -1    0    0    0  501 -0.00000000000E+00 -0.00000000000E+00 -0.32930551838E+03  0.32930551839E+03  0.25500000000E-02 0.  1.
    8880022    1    1    2    0    0  0.86567371148E+03 -0.17621217648E+02  0.78071572137E+03  0.11758444509E+04  0.15294330000E+03 0.  0.
    8880022    1    1    2    0    0 -0.86567371148E+03  0.17621217648E+02  0.13353272486E+04  0.15988095559E+04  0.15294330000E+03 0.  0.
<mgrwt>
<rscale>  0 0.87925715E+03</rscale>
<asrwt>0</asrwt>
<pdfrwt beam="1">  1        2 0.37620747E+00 0.87925715E+03</pdfrwt>
<pdfrwt beam="2">  1       -2 0.50662386E-01 0.87925715E+03</pdfrwt>
<totfact> 0.14155497E+01</totfact>
</mgrwt>
</event>
<event>
 4    1  0.4639964E-008  0.5548735E+03  0.7818608E-02  0.1000372E+00
         -2   -1    0    0    0  501 -0.00000000000E+00  0.00000000000E+00  0.31929701791E+04  0.31929701791E+04  0.25500000000E-02 0.  1.
          2   -1    0    0  501    0  0.00000000000E+00 -0.00000000000E+00 -0.79201663949E+03  0.79201663949E+03  0.25500000000E-02 0. -1.
    8880022    1    1    2    0    0  0.32312906829E+03 -0.42435896689E+03  0.30677448775E+04  0.31175219669E+04  0.15294330000E+03 0.  1.
    8880022    1    1    2    0    0 -0.32312906829E+03  0.42435896689E+03 -0.66679133792E+03  0.86746485168E+03  0.15294330000E+03 0.  0.
<mgrwt>
<rscale>  0 0.55487348E+03</rscale>
<asrwt>0</asrwt>
<pdfrwt beam="1">  1        2 0.12184872E+00 0.55487348E+03</pdfrwt>
<pdfrwt beam="2">  1       -2 0.49122618E+00 0.55487348E+03</pdfrwt>
<totfact> 0.73239780E-02</totfact>
</mgrwt>
</event>
<event>
 4    1  0.4639964E-008  0.3569718E+03  0.7818608E-02  0.1059789E+00
         -2   -1    0    0    0  501 -0.00000000000E+00  0.00000000000E+00  0.11990802211E+03  0.11990802213E+03  0.25500000000E-02 0.  1.
          2   -1    0    0  501    0  0.00000000000E+00 -0.00000000000E+00 -0.38003734495E+04  0.38003734495E+04  0.25500000000E-02 0. -1.
    8880022    1    1    2    0    0  0.12025545072E+03  0.29929220677E+03 -0.17657789898E+03  0.39825695962E+03  0.15294330000E+03 0.  1.
    8880022    1    1    2    0    0 -0.12025545072E+03 -0.29929220677E+03 -0.35038875284E+04  0.35220245120E+04  0.15294330000E+03 0.  0.
<mgrwt>
<rscale>  0 0.35697178E+03</rscale>
<asrwt>0</asrwt>
<pdfrwt beam="1">  1        2 0.58467275E+00 0.35697178E+03</pdfrwt>
<pdfrwt beam="2">  1       -2 0.18447391E-01 0.35697178E+03</pdfrwt>
<totfact> 0.14678805E+01</totfact>
</mgrwt>
</event>
<event>
 4    1  0.4639964E-008  0.5629493E+03  0.7818608E-02  0.9985403E-01
          2   -1    0    0  501    0  0.00000000000E+00  0.00000000000E+00  0.13737390280E+04  0.13737390280E+04  0.25500000000E-02 0. -1.
         -2   -1    0    0    0  501 -0.00000000000E+00 -0.00000000000E+00 -0.45001384552E+03  0.45001384552E+03  0.25500000000E-02 0.  1.
    8880022    1    1    2    0    0  0.46946588469E+03  0.27041082828E+03 -0.17473219498E+03  0.58944314901E+03  0.15294330000E+03 0.  0.
    8880022    1    1    2    0    0 -0.46946588469E+03 -0.27041082828E+03  0.10984573775E+04  0.12343097246E+04  0.15294330000E+03 0.  0.
<mgrwt>
<rscale>  0 0.56294927E+03</rscale>
<asrwt>0</asrwt>
<pdfrwt beam="1">  1        2 0.21134447E+00 0.56294927E+03</pdfrwt>
<pdfrwt beam="2">  1       -2 0.69232899E-01 0.56294927E+03</pdfrwt>
<totfact> 0.29840995E+01</totfact>
</mgrwt>
</event>
<event>
 4    1  0.4639964E-008  0.8705021E+03  0.7818608E-02  0.9463226E-01
          2   -1    0    0  501    0  0.00000000000E+00  0.00000000000E+00  0.53564183908E+04  0.53564183908E+04  0.25500000000E-02 0. -1.
         -2   -1    0    0    0  501 -0.00000000000E+00 -0.00000000000E+00 -0.33847424404E+03  0.33847424405E+03  0.25500000000E-02 0.  1.
    8880022    1    1    2    0    0  0.58411426134E+03  0.62705081017E+03  0.33661982063E+03  0.93332028023E+03  0.15294330000E+03 0.  0.
    8880022    1    1    2    0    0 -0.58411426134E+03 -0.62705081017E+03  0.46813243262E+04  0.47615723546E+04  0.15294330000E+03 0.  0.
<mgrwt>
<rscale>  0 0.87050206E+03</rscale>
<asrwt>0</asrwt>
<pdfrwt beam="1">  1        2 0.82406430E+00 0.87050206E+03</pdfrwt>
<pdfrwt beam="2">  1       -2 0.52072965E-01 0.87050206E+03</pdfrwt>
<totfact> 0.43374674E-02</totfact>
</mgrwt>
</event>
<event>
 4    1  0.4639964E-008  0.1544981E+03  0.7818608E-02  0.1195052E+00
         -2   -1    0    0    0  501 -0.00000000000E+00  0.00000000000E+00  0.61974408246E+02  0.61974408298E+02  0.25500000000E-02 0.  1.
          2   -1    0    0  501    0  0.00000000000E+00 -0.00000000000E+00 -0.59736775921E+03  0.59736775922E+03  0.25500000000E-02 0. -1.
    8880022    1    1    2    0    0 -0.21151561437E+02 -0.55331004987E+01 -0.46418977561E+03  0.48922571943E+03  0.15294330000E+03 0. -1.
    8880022    1    1    2    0    0  0.21151561437E+02  0.55331004987E+01 -0.71203575358E+02  0.17011644809E+03  0.15294330000E+03 0.  0.
<mgrwt>
<rscale>  0 0.15449808E+03</rscale>
<asrwt>0</asrwt>
<pdfrwt beam="1">  1        2 0.91902728E-01 0.15449808E+03</pdfrwt>
<pdfrwt beam="2">  1       -2 0.95345248E-02 0.15449808E+03</pdfrwt>
<totfact> 0.35523072E+03</totfact>
</mgrwt>
</event>
<event>
 4    1  0.4639964E-008  0.9601071E+03  0.7818608E-02  0.9353414E-01
         -2   -1    0    0    0  501 -0.00000000000E+00  0.00000000000E+00  0.87183967406E+03  0.87183967406E+03  0.25500000000E-02 0.  1.
          2   -1    0    0  501    0  0.00000000000E+00 -0.00000000000E+00 -0.19949402249E+04  0.19949402249E+04  0.25500000000E-02 0. -1.
    8880022    1    1    2    0    0  0.72088431232E+03 -0.61541837916E+03 -0.15442367819E+04  0.18183709371E+04  0.15294330000E+03 0.  0.
    8880022    1    1    2    0    0 -0.72088431232E+03  0.61541837916E+03  0.42113623111E+03  0.10484089619E+04  0.15294330000E+03 0.  0.
<mgrwt>
<rscale>  0 0.96010709E+03</rscale>
<asrwt>0</asrwt>
<pdfrwt beam="1">  1        2 0.30691388E+00 0.96010709E+03</pdfrwt>
<pdfrwt beam="2">  1       -2 0.13412918E+00 0.96010709E+03</pdfrwt>
<totfact> 0.27068386E+00</totfact>
</mgrwt>
</event>
<event>
 4    1  0.4639964E-008  0.4789556E+03  0.7818608E-02  0.1019423E+00
         -2   -1    0    0    0  501 -0.00000000000E+00  0.00000000000E+00  0.24478886454E+03  0.24478886456E+03  0.25500000000E-02 0.  1.
          2   -1    0    0  501    0  0.00000000000E+00 -0.00000000000E+00 -0.16362577706E+04  0.16362577706E+04  0.25500000000E-02 0. -1.
    8880022    1    1    2    0    0  0.37848405942E+03 -0.25051275541E+03 -0.13105185604E+04  0.13952983101E+04  0.15294330000E+03 0.  0.
    8880022    1    1    2    0    0 -0.37848405942E+03  0.25051275541E+03 -0.80950345633E+02  0.48574832509E+03  0.15294330000E+03 0.  0.
<mgrwt>
<rscale>  0 0.47895561E+03</rscale>
<asrwt>0</asrwt>
<pdfrwt beam="1">  1        2 0.25173196E+00 0.47895561E+03</pdfrwt>
<pdfrwt beam="2">  1       -2 0.37659826E-01 0.47895561E+03</pdfrwt>
<totfact> 0.74862212E+01</totfact>
</mgrwt>
</event>
<event>
 4    1  0.4639964E-008  0.1931686E+03  0.7818608E-02  0.1155634E+00
         -2   -1    0    0    0  501 -0.00000000000E+00  0.00000000000E+00  0.13832817206E+03  0.13832817209E+03  0.25500000000E-02 0.  1.
          2   -1    0    0  501    0  0.00000000000E+00 -0.00000000000E+00 -0.68946953968E+03  0.68946953969E+03  0.25500000000E-02 0. -1.
    8880022    1    1    2    0    0 -0.11296468788E+03 -0.34079963409E+02  0.47364920267E+02  0.19889080748E+03  0.15294330000E+03 0.  0.
    8880022    1    1    2    0    0  0.11296468788E+03  0.34079963409E+02 -0.59850628789E+03  0.62890690429E+03  0.15294330000E+03 0. -1.
<mgrwt>
<rscale>  0 0.19316862E+03</rscale>
<asrwt>0</asrwt>
<pdfrwt beam="1">  1        2 0.10607223E+00 0.19316862E+03</pdfrwt>
<pdfrwt beam="2">  1       -2 0.21281258E-01 0.19316862E+03</pdfrwt>
<totfact> 0.80992826E+02</totfact>
</mgrwt>
</event>
<event>
 4    1  0.4639964E-008  0.3231703E+03  0.7818608E-02  0.1074199E+00
          2   -1    0    0  501    0  0.00000000000E+00  0.00000000000E+00  0.56763421290E+03  0.56763421290E+03  0.25500000000E-02 0. -1.
         -2   -1    0    0    0  501 -0.00000000000E+00 -0.00000000000E+00 -0.96163835999E+03  0.96163836000E+03  0.25500000000E-02 0.  1.
    8880022    1    1    2    0    0 -0.28372674475E+03  0.23378530964E+02  0.49060544583E+03  0.58748002340E+03  0.15294330000E+03 0.  0.
    8880022    1    1    2    0    0  0.28372674475E+03 -0.23378530964E+02 -0.88460959292E+03  0.94179254951E+03  0.15294330000E+03 0.  0.
<mgrwt>
<rscale>  0 0.32317035E+03</rscale>
<asrwt>0</asrwt>
<pdfrwt beam="1">  1        2 0.87328341E-01 0.32317035E+03</pdfrwt>
<pdfrwt beam="2">  1       -2 0.14794436E+00 0.32317035E+03</pdfrwt>
<totfact> 0.17719990E+01</totfact>
</mgrwt>
</event>
<event>
 4    1  0.4639964E-008  0.2863487E+03  0.7818608E-02  0.1092271E+00
         -2   -1    0    0    0  501 -0.00000000000E+00  0.00000000000E+00  0.18379679319E+03  0.18379679320E+03  0.25500000000E-02 0.  1.
          2   -1    0    0  501    0  0.00000000000E+00 -0.00000000000E+00 -0.39625495815E+04  0.39625495815E+04  0.25500000000E-02 0. -1.
    8880022    1    1    2    0    0 -0.35071447233E+02  0.23952854844E+03  0.63609639463E+02  0.29332877659E+03  0.15294330000E+03 0.  1.
    8880022    1    1    2    0    0  0.35071447233E+02 -0.23952854844E+03 -0.38423624278E+04  0.38530175981E+04  0.15294330000E+03 0.  0.
<mgrwt>
<rscale>  0 0.28634871E+03</rscale>
<asrwt>0</asrwt>
<pdfrwt beam="1">  1        2 0.60962295E+00 0.28634871E+03</pdfrwt>
<pdfrwt beam="2">  1       -2 0.28276433E-01 0.28634871E+03</pdfrwt>
<totfact> 0.54486302E+00</totfact>
</mgrwt>
</event>
<event>
 4    1  0.4639964E-008  0.8508721E+03  0.7818608E-02  0.9489167E-01
         -2   -1    0    0    0  501 -0.00000000000E+00  0.00000000000E+00  0.83186433419E+03  0.83186433419E+03  0.25500000000E-02 0.  1.
          2   -1    0    0  501    0  0.00000000000E+00 -0.00000000000E+00 -0.12072928100E+04  0.12072928100E+04  0.25500000000E-02 0. -1.
    8880022    1    1    2    0    0 -0.77123572828E+03 -0.32524931996E+03 -0.72637529107E+03  0.11187512615E+04  0.15294330000E+03 0.  0.
    8880022    1    1    2    0    0  0.77123572828E+03  0.32524931996E+03  0.35094681524E+03  0.92040588267E+03  0.15294330000E+03 0.  0.
<mgrwt>
<rscale>  0 0.85087209E+03</rscale>
<asrwt>0</asrwt>
<pdfrwt beam="1">  1        2 0.18573736E+00 0.85087209E+03</pdfrwt>
<pdfrwt beam="2">  1       -2 0.12797913E+00 0.85087209E+03</pdfrwt>
<totfact> 0.85392345E+00</totfact>
</mgrwt>
</event>
<event>
 4    1  0.4639964E-008  0.3640640E+03  0.7818608E-02  0.1056986E+00
         -2   -1    0    0    0  501 -0.00000000000E+00  0.00000000000E+00  0.23417778422E+03  0.23417778424E+03  0.25500000000E-02 0.  1.
          2   -1    0    0  501    0  0.00000000000E+00 -0.00000000000E+00 -0.10722608635E+04  0.10722608635E+04  0.25500000000E-02 0. -1.
    8880022    1    1    2    0    0  0.32252423115E+03  0.71617386267E+02 -0.86788997577E+03  0.94115651873E+03  0.15294330000E+03 0.  0.
    8880022    1    1    2    0    0 -0.32252423115E+03 -0.71617386267E+02  0.29806896482E+02  0.36528212902E+03  0.15294330000E+03 0.  0.
<mgrwt>
<rscale>  0 0.36406398E+03</rscale>
<asrwt>0</asrwt>
<pdfrwt beam="1">  1        2 0.16496321E+00 0.36406398E+03</pdfrwt>
<pdfrwt beam="2">  1       -2 0.36027352E-01 0.36406398E+03</pdfrwt>
<totfact> 0.17205442E+02</totfact>
</mgrwt>
</event>
<event>
 4    1  0.4639964E-008  0.6972622E+03  0.7818608E-02  0.9721926E-01
          2   -1    0    0  501    0  0.00000000000E+00  0.00000000000E+00  0.19173851012E+04  0.19173851012E+04  0.25500000000E-02 0. -1.
         -2   -1    0    0    0  501 -0.00000000000E+00 -0.00000000000E+00 -0.49529270687E+03  0.49529270687E+03  0.25500000000E-02 0.  1.
    8880022    1    1    2    0    0 -0.54238743285E+03  0.41060782504E+03  0.15538082076E+04  0.17030838243E+04  0.15294330000E+03 0.  0.
    8880022    1    1    2    0    0  0.54238743285E+03 -0.41060782504E+03 -0.13171581335E+03  0.70959398377E+03  0.15294330000E+03 0.  0.
<mgrwt>
<rscale>  0 0.69726219E+03</rscale>
<asrwt>0</asrwt>
<pdfrwt beam="1">  1        2 0.29498232E+00 0.69726219E+03</pdfrwt>
<pdfrwt beam="2">  1       -2 0.76198879E-01 0.69726219E+03</pdfrwt>
<totfact> 0.11923131E+01</totfact>
</mgrwt>
</event>
<event>
 4    1  0.4639964E-008  0.7873880E+03  0.7818608E-02  0.9578454E-01
         -2   -1    0    0    0  501 -0.00000000000E+00  0.00000000000E+00  0.42996824923E+03  0.42996824924E+03  0.25500000000E-02 0.  1.
          2   -1    0    0  501    0  0.00000000000E+00 -0.00000000000E+00 -0.17633807325E+04  0.17633807325E+04  0.25500000000E-02 0. -1.
    8880022    1    1    2    0    0 -0.10899043200E+03 -0.76466290784E+03 -0.11349462137E+04  0.13813337171E+04  0.15294330000E+03 0.  0.
    8880022    1    1    2    0    0  0.10899043200E+03  0.76466290784E+03 -0.19846626957E+03  0.81201526468E+03  0.15294330000E+03 0.  0.
<mgrwt>
<rscale>  0 0.78738804E+03</rscale>
<asrwt>0</asrwt>
<pdfrwt beam="1">  1        2 0.27128934E+00 0.78738804E+03</pdfrwt>
<pdfrwt beam="2">  1       -2 0.66148963E-01 0.78738804E+03</pdfrwt>
<totfact> 0.19468275E+01</totfact>
</mgrwt>
</event>
<event>
 4    1  0.4639964E-008  0.1726632E+03  0.7818608E-02  0.1175099E+00
         -2   -1    0    0    0  501 -0.00000000000E+00  0.00000000000E+00  0.72433470892E+03  0.72433470893E+03  0.25500000000E-02 0.  1.
          2   -1    0    0  501    0  0.00000000000E+00 -0.00000000000E+00 -0.28333809236E+03  0.28333809237E+03  0.25500000000E-02 0. -1.
    8880022    1    1    2    0    0 -0.53026647956E+02 -0.60075673269E+02  0.68630506814E+03  0.70769146631E+03  0.15294330000E+03 0.  1.
    8880022    1    1    2    0    0  0.53026647956E+02  0.60075673269E+02 -0.24530845158E+03  0.29998133499E+03  0.15294330000E+03 0.  0.
<mgrwt>
<rscale>  0 0.17266315E+03</rscale>
<asrwt>0</asrwt>
<pdfrwt beam="1">  1        2 0.43590477E-01 0.17266315E+03</pdfrwt>
<pdfrwt beam="2">  1       -2 0.11143611E+00 0.17266315E+03</pdfrwt>
<totfact> 0.78984046E+01</totfact>
</mgrwt>
</event>
<event>
 4    1  0.4639964E-008  0.3420896E+03  0.7818608E-02  0.1065909E+00
         -2   -1    0    0    0  501 -0.00000000000E+00  0.00000000000E+00  0.60715935327E+03  0.60715935328E+03  0.25500000000E-02 0.  1.
          2   -1    0    0  501    0  0.00000000000E+00 -0.00000000000E+00 -0.14222650252E+04  0.14222650252E+04  0.25500000000E-02 0. -1.
    8880022    1    1    2    0    0 -0.30418326437E+03 -0.33258851169E+02  0.53590153372E+03  0.63577961304E+03  0.15294330000E+03 0.  1.
    8880022    1    1    2    0    0  0.30418326437E+03  0.33258851169E+02 -0.13510072056E+04  0.13936447654E+04  0.15294330000E+03 0.  0.
<mgrwt>
<rscale>  0 0.34208955E+03</rscale>
<asrwt>0</asrwt>
<pdfrwt beam="1">  1        2 0.21881000E+00 0.34208955E+03</pdfrwt>
<pdfrwt beam="2">  1       -2 0.93409132E-01 0.34208955E+03</pdfrwt>
<totfact> 0.15029255E+01</totfact>
</mgrwt>
</event>
<event>
 4    1  0.4639964E-008  0.8579361E+03  0.7818608E-02  0.9479747E-01
          2   -1    0    0  501    0  0.00000000000E+00  0.00000000000E+00  0.13584303053E+04  0.13584303053E+04  0.25500000000E-02 0. -1.
         -2   -1    0    0    0  501 -0.00000000000E+00 -0.00000000000E+00 -0.57486912015E+03  0.57486912016E+03  0.25500000000E-02 0.  1.
    8880022    1    1    2    0    0  0.22865862675E+03  0.81263645447E+03  0.62347779575E+03  0.10605559813E+04  0.15294330000E+03 0.  0.
    8880022    1    1    2    0    0 -0.22865862675E+03 -0.81263645447E+03  0.16008338941E+03  0.87274344415E+03  0.15294330000E+03 0.  0.
<mgrwt>
<rscale>  0 0.85793614E+03</rscale>
<asrwt>0</asrwt>
<pdfrwt beam="1">  1        2 0.20898928E+00 0.85793614E+03</pdfrwt>
<pdfrwt beam="2">  1       -2 0.88441404E-01 0.85793614E+03</pdfrwt>
<totfact> 0.16979795E+01</totfact>
</mgrwt>
</event>
<event>
 4    1  0.4639964E-008  0.4291070E+03  0.7818608E-02  0.1034142E+00
         -2   -1    0    0    0  501 -0.00000000000E+00  0.00000000000E+00  0.23596728879E+03  0.23596728880E+03  0.25500000000E-02 0.  1.
          2   -1    0    0  501    0  0.00000000000E+00 -0.00000000000E+00 -0.33742243229E+04  0.33742243229E+04  0.25500000000E-02 0. -1.
    8880022    1    1    2    0    0 -0.39104493261E+03 -0.88458933363E+02  0.13537478236E+02  0.42932043807E+03  0.15294330000E+03 0.  0.
    8880022    1    1    2    0    0  0.39104493261E+03  0.88458933363E+02 -0.31517945124E+04  0.31808711737E+04  0.15294330000E+03 0.  0.
<mgrwt>
<rscale>  0 0.42910695E+03</rscale>
<asrwt>0</asrwt>
<pdfrwt beam="1">  1        2 0.51911140E+00 0.42910695E+03</pdfrwt>
<pdfrwt beam="2">  1       -2 0.36302662E-01 0.42910695E+03</pdfrwt>
<totfact> 0.82939706E+00</totfact>
</mgrwt>
</event>
<event>
 4    1  0.4639964E-008  0.6616308E+03  0.7818608E-02  0.9785196E-01
         -2   -1    0    0    0  501 -0.00000000000E+00  0.00000000000E+00  0.97443555193E+03  0.97443555193E+03  0.25500000000E-02 0.  1.
          2   -1    0    0  501    0  0.00000000000E+00 -0.00000000000E+00 -0.90075272741E+03  0.90075272741E+03  0.25500000000E-02 0. -1.
    8880022    1    1    2    0    0  0.56945164940E+03 -0.30014746291E+03 -0.62697370120E+03  0.91151048020E+03  0.15294330000E+03 0.  0.
    8880022    1    1    2    0    0 -0.56945164940E+03  0.30014746291E+03  0.70065652573E+03  0.96367779914E+03  0.15294330000E+03 0.  0.
<mgrwt>
<rscale>  0 0.66163081E+03</rscale>
<asrwt>0</asrwt>
<pdfrwt beam="1">  1        2 0.13857734E+00 0.66163081E+03</pdfrwt>
<pdfrwt beam="2">  1       -2 0.14991316E+00 0.66163081E+03</pdfrwt>
<totfact> 0.90408956E+00</totfact>
</mgrwt>
</event>
<event>
 4    1  0.4639964E-008  0.1019446E+04  0.7818608E-02  0.9287471E-01
          2   -1    0    0  501    0  0.00000000000E+00  0.00000000000E+00  0.22061918768E+04  0.22061918768E+04  0.25500000000E-02 0. -1.
         -2   -1    0    0    0  501 -0.00000000000E+00 -0.00000000000E+00 -0.89331412850E+03  0.89331412851E+03  0.25500000000E-02 0.  1.
    8880022    1    1    2    0    0 -0.25275578469E+03 -0.97570093244E+03  0.17219120275E+04  0.20010623378E+04  0.15294330000E+03 0.  0.
    8880022    1    1    2    0    0  0.25275578469E+03  0.97570093244E+03 -0.40903427916E+03  0.10984436676E+04  0.15294330000E+03 0.  0.
<mgrwt>
<rscale>  0 0.10194457E+04</rscale>
<asrwt>0</asrwt>
<pdfrwt beam="1">  1        2 0.33941413E+00 0.10194457E+04</pdfrwt>
<pdfrwt beam="2">  1       -2 0.13743294E+00 0.10194457E+04</pdfrwt>
<totfact> 0.19271229E+00</totfact>
</mgrwt>
</event>
<event>
 4    1  0.4639964E-008  0.3086343E+03  0.7818608E-02  0.1081002E+00
         -2   -1    0    0    0  501 -0.00000000000E+00  0.00000000000E+00  0.67983340668E+03  0.67983340669E+03  0.25500000000E-02 0.  1.
          2   -1    0    0  501    0  0.00000000000E+00 -0.00000000000E+00 -0.98641043812E+03  0.98641043812E+03  0.25500000000E-02 0. -1.
    8880022    1    1    2    0    0 -0.18117785829E+03  0.19758054090E+03 -0.92497452479E+03  0.97510666648E+03  0.15294330000E+03 0.  0.
    8880022    1    1    2    0    0  0.18117785829E+03 -0.19758054090E+03  0.61839749336E+03  0.69113717834E+03  0.15294330000E+03 0.  0.
<mgrwt>
<rscale>  0 0.30863431E+03</rscale>
<asrwt>0</asrwt>
<pdfrwt beam="1">  1        2 0.15175545E+00 0.30863431E+03</pdfrwt>
<pdfrwt beam="2">  1       -2 0.10458976E+00 0.30863431E+03</pdfrwt>
<totfact> 0.20794155E+01</totfact>
</mgrwt>
</event>
<event>
 4    1  0.4639964E-008  0.4149277E+03  0.7818608E-02  0.1038730E+00
         -2   -1    0    0    0  501 -0.00000000000E+00  0.00000000000E+00  0.51367292849E+03  0.51367292850E+03  0.25500000000E-02 0.  1.
          2   -1    0    0  501    0  0.00000000000E+00 -0.00000000000E+00 -0.16687843061E+04  0.16687843061E+04  0.25500000000E-02 0. -1.
    8880022    1    1    2    0    0  0.37420131922E+03 -0.93523737598E+02 -0.15530655169E+04  0.16075377039E+04  0.15294330000E+03 0.  0.
    8880022    1    1    2    0    0 -0.37420131922E+03  0.93523737598E+02  0.39795413926E+03  0.57491953069E+03  0.15294330000E+03 0.  0.
<mgrwt>
<rscale>  0 0.41492767E+03</rscale>
<asrwt>0</asrwt>
<pdfrwt beam="1">  1        2 0.25673604E+00 0.41492767E+03</pdfrwt>
<pdfrwt beam="2">  1       -2 0.79026605E-01 0.41492767E+03</pdfrwt>
<totfact> 0.15823765E+01</totfact>
</mgrwt>
</event>
<event>
 4    1  0.4639964E-008  0.2906960E+03  0.7818608E-02  0.1089986E+00
          2   -1    0    0  501    0  0.00000000000E+00  0.00000000000E+00  0.13158464392E+04  0.13158464392E+04  0.25500000000E-02 0. -1.
         -2   -1    0    0    0  501 -0.00000000000E+00 -0.00000000000E+00 -0.23026251188E+03  0.23026251190E+03  0.25500000000E-02 0.  1.
    8880022    1    1    2    0    0  0.18157634073E+03 -0.16775743421E+03  0.11992509707E+04  0.12339801732E+04  0.15294330000E+03 0.  0.
    8880022    1    1    2    0    0 -0.18157634073E+03  0.16775743421E+03 -0.11366704332E+03  0.31212877791E+03  0.15294330000E+03 0.  0.
<mgrwt>
<rscale>  0 0.29069602E+03</rscale>
<asrwt>0</asrwt>
<pdfrwt beam="1">  1        2 0.20243792E+00 0.29069602E+03</pdfrwt>
<pdfrwt beam="2">  1       -2 0.35425001E-01 0.29069602E+03</pdfrwt>
<totfact> 0.13009195E+02</totfact>
</mgrwt>
</event>
<event>
 4    1  0.4639964E-008  0.2283770E+03  0.7818608E-02  0.1127787E+00
          2   -1    0    0  501    0  0.00000000000E+00  0.00000000000E+00  0.19491354836E+03  0.19491354838E+03  0.25500000000E-02 0. -1.
         -2   -1    0    0    0  501 -0.00000000000E+00 -0.00000000000E+00 -0.27582568248E+03  0.27582568249E+03  0.25500000000E-02 0.  1.
    8880022    1    1    2    0    0 -0.15066812308E+02  0.16893010645E+03 -0.81137945758E+02  0.24236214423E+03  0.15294330000E+03 0.  0.
    8880022    1    1    2    0    0  0.15066812308E+02 -0.16893010645E+03  0.22581163739E+00  0.22837708664E+03  0.15294330000E+03 0.  0.
<mgrwt>
<rscale>  0 0.22837698E+03</rscale>
<asrwt>0</asrwt>
<pdfrwt beam="1">  1        2 0.29986700E-01 0.22837698E+03</pdfrwt>
<pdfrwt beam="2">  1       -2 0.42434720E-01 0.22837698E+03</pdfrwt>
<totfact> 0.93077627E+02</totfact>
</mgrwt>
</event>
<event>
 4    1  0.4639964E-008  0.2404623E+03  0.7818608E-02  0.1119485E+00
         -2   -1    0    0    0  501 -0.00000000000E+00  0.00000000000E+00  0.40772369776E+03  0.40772369777E+03  0.25500000000E-02 0.  1.
          2   -1    0    0  501    0  0.00000000000E+00 -0.00000000000E+00 -0.54674446045E+03  0.54674446046E+03  0.25500000000E-02 0. -1.
    8880022    1    1    2    0    0 -0.18355981686E+03 -0.27134288488E+02 -0.48021340276E+03  0.53705403935E+03  0.15294330000E+03 0. -1.
    8880022    1    1    2    0    0  0.18355981686E+03  0.27134288488E+02  0.34119264008E+03  0.41741411887E+03  0.15294330000E+03 0.  0.
<mgrwt>
<rscale>  0 0.24046232E+03</rscale>
<asrwt>0</asrwt>
<pdfrwt beam="1">  1        2 0.84114532E-01 0.24046232E+03</pdfrwt>
<pdfrwt beam="2">  1       -2 0.62726723E-01 0.24046232E+03</pdfrwt>
<totfact> 0.13742508E+02</totfact>
</mgrwt>
</event>
<event>
 4    1  0.5255017E-008  0.8733460E+03  0.7818608E-02  0.9459528E-01
          2   -1    0    0  501    0  0.00000000000E+00  0.00000000000E+00  0.14978702077E+04  0.14978702077E+04  0.25500000000E-02 0. -1.
         -2   -1    0    0    0  501 -0.00000000000E+00 -0.00000000000E+00 -0.19997301237E+04  0.19997301237E+04  0.25500000000E-02 0.  1.
    8880022    1    1    2    0    0 -0.57179285693E+03  0.64217945436E+03  0.12588830122E+04  0.15321617455E+04  0.15294330000E+03 0.  0.
    8880022    1    1    2    0    0  0.57179285693E+03 -0.64217945436E+03 -0.17607429282E+04  0.19654385859E+04  0.15294330000E+03 0.  0.
<mgrwt>
<rscale>  0 0.87334597E+03</rscale>
<asrwt>0</asrwt>
<pdfrwt beam="1">  1        2 0.23044157E+00 0.87334597E+03</pdfrwt>
<pdfrwt beam="2">  1       -2 0.30765079E+00 0.87334597E+03</pdfrwt>
<totfact> 0.37389869E-01</totfact>
</mgrwt>
</event>
<event>
 4    1  0.4639964E-008  0.2417228E+03  0.7818608E-02  0.1118650E+00
          2   -1    0    0  501    0  0.00000000000E+00  0.00000000000E+00  0.66982812854E+02  0.66982812903E+02  0.25500000000E-02 0. -1.
         -2   -1    0    0    0  501 -0.00000000000E+00 -0.00000000000E+00 -0.14778153382E+04  0.14778153382E+04  0.25500000000E-02 0.  1.
    8880022    1    1    2    0    0 -0.45797870120E+02 -0.18149602720E+03 -0.21100317145E+03  0.32086172127E+03  0.15294330000E+03 0.  0.
    8880022    1    1    2    0    0  0.45797870120E+02  0.18149602720E+03 -0.11998293539E+04  0.12239364298E+04  0.15294330000E+03 0.  0.
<mgrwt>
<rscale>  0 0.24172279E+03</rscale>
<asrwt>0</asrwt>
<pdfrwt beam="1">  1        2 0.10305049E-01 0.24172279E+03</pdfrwt>
<pdfrwt beam="2">  1       -2 0.22735618E+00 0.24172279E+03</pdfrwt>
<totfact> 0.60559171E+01</totfact>
</mgrwt>
</event>
<event>
 4    1  0.4639964E-008  0.5555343E+03  0.7818608E-02  0.1000221E+00
          2   -1    0    0  501    0  0.00000000000E+00  0.00000000000E+00  0.19842507985E+04  0.19842507985E+04  0.25500000000E-02 0. -1.
         -2   -1    0    0    0  501 -0.00000000000E+00 -0.00000000000E+00 -0.23142234160E+03  0.23142234162E+03  0.25500000000E-02 0.  1.
    8880022    1    1    2    0    0 -0.14670764885E+03  0.51352073388E+03  0.24201772973E+03  0.60596279826E+03  0.15294330000E+03 0.  0.
    8880022    1    1    2    0    0  0.14670764885E+03 -0.51352073388E+03  0.15108107271E+04  0.16097103418E+04  0.15294330000E+03 0.  0.
<mgrwt>
<rscale>  0 0.55553428E+03</rscale>
<asrwt>0</asrwt>
<pdfrwt beam="1">  1        2 0.30526934E+00 0.55553428E+03</pdfrwt>
<pdfrwt beam="2">  1       -2 0.35603438E-01 0.55553428E+03</pdfrwt>
<totfact> 0.53438730E+01</totfact>
</mgrwt>
</event>
<event>
 4    1  0.4639964E-008  0.2329535E+03  0.7818608E-02  0.1124578E+00
          2   -1    0    0  501    0  0.00000000000E+00  0.00000000000E+00  0.43549558728E+04  0.43549558728E+04  0.25500000000E-02 0. -1.
         -2   -1    0    0    0  501 -0.00000000000E+00 -0.00000000000E+00 -0.82600429141E+02  0.82600429180E+02  0.25500000000E-02 0.  1.
    8880022    1    1    2    0    0 -0.83119005930E+02  0.15481245062E+03  0.91599683362E+02  0.25031543904E+03  0.15294330000E+03 0.  1.
    8880022    1    1    2    0    0  0.83119005930E+02 -0.15481245062E+03  0.41807557603E+04  0.41872408629E+04  0.15294330000E+03 0.  0.
<mgrwt>
<rscale>  0 0.23295347E+03</rscale>
<asrwt>0</asrwt>
<pdfrwt beam="1">  1        2 0.66999342E+00 0.23295347E+03</pdfrwt>
<pdfrwt beam="2">  1       -2 0.12707754E-01 0.23295347E+03</pdfrwt>
<totfact> 0.10642453E+01</totfact>
</mgrwt>
</event>
<event>
 4    1  0.4639964E-008  0.5403944E+03  0.7818608E-02  0.1003742E+00
         -2   -1    0    0    0  501 -0.00000000000E+00  0.00000000000E+00  0.39572754378E+03  0.39572754379E+03  0.25500000000E-02 0.  1.
          2   -1    0    0  501    0  0.00000000000E+00 -0.00000000000E+00 -0.15503733351E+04  0.15503733351E+04  0.25500000000E-02 0. -1.
    8880022    1    1    2    0    0 -0.97395453194E+02  0.50906640237E+03 -0.12817062522E+04  0.13909698222E+04  0.15294330000E+03 0.  0.
    8880022    1    1    2    0    0  0.97395453194E+02 -0.50906640237E+03  0.12706046091E+03  0.55513105665E+03  0.15294330000E+03 0.  0.
<mgrwt>
<rscale>  0 0.54039442E+03</rscale>
<asrwt>0</asrwt>
<pdfrwt beam="1">  1        2 0.23851897E+00 0.54039442E+03</pdfrwt>
<pdfrwt beam="2">  1       -2 0.60881161E-01 0.54039442E+03</pdfrwt>
<totfact> 0.31464240E+01</totfact>
</mgrwt>
</event>
<event>
 4    1  0.4639964E-008  0.9259134E+03  0.7818608E-02  0.9393756E-01
         -2   -1    0    0    0  501 -0.00000000000E+00  0.00000000000E+00  0.13315026528E+04  0.13315026528E+04  0.25500000000E-02 0.  1.
          2   -1    0    0  501    0  0.00000000000E+00 -0.00000000000E+00 -0.72180857483E+03  0.72180857484E+03  0.25500000000E-02 0. -1.
    8880022    1    1    2    0    0 -0.85415190589E+03  0.32303024718E+03 -0.32508451047E+02  0.92648392934E+03  0.15294330000E+03 0.  0.
    8880022    1    1    2    0    0  0.85415190589E+03 -0.32303024718E+03  0.64220252904E+03  0.11268272983E+04  0.15294330000E+03 0.  0.
<mgrwt>
<rscale>  0 0.92591343E+03</rscale>
<asrwt>0</asrwt>
<pdfrwt beam="1">  1        2 0.11104747E+00 0.92591343E+03</pdfrwt>
<pdfrwt beam="2">  1       -2 0.20484656E+00 0.92591343E+03</pdfrwt>
<totfact> 0.48771536E+00</totfact>
</mgrwt>
</event>
<event>
 4    1  0.4639964E-008  0.2237675E+03  0.7818608E-02  0.1131105E+00
          2   -1    0    0  501    0  0.00000000000E+00  0.00000000000E+00  0.49353552300E+03  0.49353552301E+03  0.25500000000E-02 0. -1.
         -2   -1    0    0    0  501 -0.00000000000E+00 -0.00000000000E+00 -0.16036297415E+03  0.16036297417E+03  0.25500000000E-02 0.  1.
    8880022    1    1    2    0    0  0.56043152664E+02  0.15342562662E+03  0.36474507347E+03  0.42791457033E+03  0.15294330000E+03 0.  0.
    8880022    1    1    2    0    0 -0.56043152664E+02 -0.15342562662E+03 -0.31572524618E+02  0.22598392684E+03  0.15294330000E+03 0.  1.
<mgrwt>
<rscale>  0 0.22376754E+03</rscale>
<asrwt>0</asrwt>
<pdfrwt beam="1">  1        2 0.75928540E-01 0.22376754E+03</pdfrwt>
<pdfrwt beam="2">  1       -2 0.24671228E-01 0.22376754E+03</pdfrwt>
<totfact> 0.92064579E+02</totfact>
</mgrwt>
</event>
<event>
 4    1  0.4639964E-008  0.2987414E+03  0.7818608E-02  0.1085871E+00
          2   -1    0    0  501    0  0.00000000000E+00  0.00000000000E+00  0.16619351021E+04  0.16619351021E+04  0.25500000000E-02 0. -1.
         -2   -1    0    0    0  501 -0.00000000000E+00 -0.00000000000E+00 -0.31512104913E+03  0.31512104914E+03  0.25500000000E-02 0.  1.
    8880022    1    1    2    0    0  0.99594187026E+02 -0.23650745351E+03  0.15737755844E+04  0.16018789033E+04  0.15294330000E+03 0. -1.
    8880022    1    1    2    0    0 -0.99594187026E+02  0.23650745351E+03 -0.22696153141E+03  0.37517724799E+03  0.15294330000E+03 0.  0.
<mgrwt>
<rscale>  0 0.29874141E+03</rscale>
<asrwt>0</asrwt>
<pdfrwt beam="1">  1        2 0.25568232E+00 0.29874141E+03</pdfrwt>
<pdfrwt beam="2">  1       -2 0.48480161E-01 0.29874141E+03</pdfrwt>
<totfact> 0.46017614E+01</totfact>
</mgrwt>
</event>
<event>
 4    1  0.4639964E-008  0.2452428E+03  0.7818608E-02  0.1116349E+00
          2   -1    0    0  501    0  0.00000000000E+00  0.00000000000E+00  0.11651968726E+04  0.11651968726E+04  0.25500000000E-02 0. -1.
         -2   -1    0    0    0  501 -0.00000000000E+00 -0.00000000000E+00 -0.20861904028E+03  0.20861904030E+03  0.25500000000E-02 0.  1.
    8880022    1    1    2    0    0 -0.17789859740E+03  0.71445474781E+02  0.10741899798E+04  0.11018294481E+04  0.15294330000E+03 0.  0.
    8880022    1    1    2    0    0  0.17789859740E+03 -0.71445474781E+02 -0.11761214748E+03  0.27198646487E+03  0.15294330000E+03 0.  0.
<mgrwt>
<rscale>  0 0.24524278E+03</rscale>
<asrwt>0</asrwt>
<pdfrwt beam="1">  1        2 0.17926105E+00 0.24524278E+03</pdfrwt>
<pdfrwt beam="2">  1       -2 0.32095237E-01 0.24524278E+03</pdfrwt>
<totfact> 0.19175404E+02</totfact>
</mgrwt>
</event>
<event>
 4    1  0.4639964E-008  0.8027017E+03  0.7818608E-02  0.9556115E-01
         -2   -1    0    0    0  501 -0.00000000000E+00  0.00000000000E+00  0.54530619984E+03  0.54530619984E+03  0.25500000000E-02 0.  1.
          2   -1    0    0  501    0  0.00000000000E+00 -0.00000000000E+00 -0.27611046803E+04  0.27611046803E+04  0.25500000000E-02 0. -1.
    8880022    1    1    2    0    0  0.56208502627E+03 -0.55226692709E+03 -0.23582930373E+04  0.24911595770E+04  0.15294330000E+03 0.  0.
    8880022    1    1    2    0    0 -0.56208502627E+03  0.55226692709E+03  0.14249455681E+03  0.81525130313E+03  0.15294330000E+03 0.  0.
<mgrwt>
<rscale>  0 0.80270168E+03</rscale>
<asrwt>0</asrwt>
<pdfrwt beam="1">  1        2 0.42478533E+00 0.80270168E+03</pdfrwt>
<pdfrwt beam="2">  1       -2 0.83893263E-01 0.80270168E+03</pdfrwt>
<totfact> 0.31762256E+00</totfact>
</mgrwt>
</event>
<event>
 4    1  0.4639964E-008  0.7925667E+03  0.7818608E-02  0.9570839E-01
         -2   -1    0    0    0  501 -0.00000000000E+00  0.00000000000E+00  0.65809896964E+03  0.65809896964E+03  0.25500000000E-02 0.  1.
          2   -1    0    0  501    0  0.00000000000E+00 -0.00000000000E+00 -0.19747131749E+04  0.19747131749E+04  0.25500000000E-02 0. -1.
    8880022    1    1    2    0    0 -0.73298467858E+03 -0.25981499725E+03 -0.16045033205E+04  0.17895789813E+04  0.15294330000E+03 0.  0.
    8880022    1    1    2    0    0  0.73298467858E+03  0.25981499725E+03  0.28788911527E+03  0.84323316321E+03  0.15294330000E+03 0.  0.
<mgrwt>
<rscale>  0 0.79256673E+03</rscale>
<asrwt>0</asrwt>
<pdfrwt beam="1">  1        2 0.30380202E+00 0.79256673E+03</pdfrwt>
<pdfrwt beam="2">  1       -2 0.10124600E+00 0.79256673E+03</pdfrwt>
<totfact> 0.56924179E+00</totfact>
</mgrwt>
</event>
<event>
 4    1  0.4639964E-008  0.1613687E+03  0.7818608E-02  0.1187160E+00
         -2   -1    0    0    0  501 -0.00000000000E+00  0.00000000000E+00  0.59045827486E+03  0.59045827487E+03  0.25500000000E-02 0.  1.
          2   -1    0    0  501    0  0.00000000000E+00 -0.00000000000E+00 -0.22579524848E+03  0.22579524849E+03  0.25500000000E-02 0. -1.
    8880022    1    1    2    0    0 -0.82774947977E+01  0.50790568023E+02 -0.18377559410E+03  0.24456761994E+03  0.15294330000E+03 0.  0.
    8880022    1    1    2    0    0  0.82774947977E+01 -0.50790568023E+02  0.54843862049E+03  0.57168590343E+03  0.15294330000E+03 0.  1.
<mgrwt>
<rscale>  0 0.16136868E+03</rscale>
<asrwt>0</asrwt>
<pdfrwt beam="1">  1        2 0.34737730E-01 0.16136868E+03</pdfrwt>
<pdfrwt beam="2">  1       -2 0.90839735E-01 0.16136868E+03</pdfrwt>
<totfact> 0.16189715E+02</totfact>
</mgrwt>
</event>
<event>
 4    1  0.4639964E-008  0.3688446E+03  0.7818608E-02  0.1055136E+00
         -2   -1    0    0    0  501 -0.00000000000E+00  0.00000000000E+00  0.37860831101E+03  0.37860831101E+03  0.25500000000E-02 0.  1.
          2   -1    0    0  501    0  0.00000000000E+00 -0.00000000000E+00 -0.16043918115E+04  0.16043918115E+04  0.25500000000E-02 0. -1.
    8880022    1    1    2    0    0  0.74611753133E+02  0.32724265742E+03  0.26054713576E+03  0.45158734870E+03  0.15294330000E+03 0.  0.
    8880022    1    1    2    0    0 -0.74611753133E+02 -0.32724265742E+03 -0.14863306363E+04  0.15314127738E+04  0.15294330000E+03 0. -1.
<mgrwt>
<rscale>  0 0.36884458E+03</rscale>
<asrwt>0</asrwt>
<pdfrwt beam="1">  1        2 0.24682951E+00 0.36884458E+03</pdfrwt>
<pdfrwt beam="2">  1       -2 0.58247433E-01 0.36884458E+03</pdfrwt>
<totfact> 0.33373012E+01</totfact>
</mgrwt>
</event>
<event>
 4    1  0.4639964E-008  0.4694825E+03  0.7818608E-02  0.1022066E+00
          2   -1    0    0  501    0  0.00000000000E+00  0.00000000000E+00  0.12143368527E+04  0.12143368527E+04  0.25500000000E-02 0. -1.
         -2   -1    0    0    0  501 -0.00000000000E+00 -0.00000000000E+00 -0.63349673234E+03  0.63349673234E+03  0.25500000000E-02 0.  1.
    8880022    1    1    2    0    0 -0.27843846694E+03 -0.34567931523E+03  0.10708316250E+04  0.11692280321E+04  0.15294330000E+03 0. -1.
    8880022    1    1    2    0    0  0.27843846694E+03  0.34567931523E+03 -0.48999150466E+03  0.67860555296E+03  0.15294330000E+03 0.  1.
<mgrwt>
<rscale>  0 0.46948250E+03</rscale>
<asrwt>0</asrwt>
<pdfrwt beam="1">  1        2 0.18682105E+00 0.46948250E+03</pdfrwt>
<pdfrwt beam="2">  1       -2 0.97461037E-01 0.46948250E+03</pdfrwt>
<totfact> 0.17313310E+01</totfact>
</mgrwt>
</event>
<event>
 4    1  0.4639964E-008  0.3971601E+03  0.7818608E-02  0.1044767E+00
         -2   -1    0    0    0  501 -0.00000000000E+00  0.00000000000E+00  0.17422621909E+03  0.17422621911E+03  0.25500000000E-02 0.  1.
          2   -1    0    0  501    0  0.00000000000E+00 -0.00000000000E+00 -0.27897943095E+04  0.27897943095E+04  0.25500000000E-02 0. -1.
    8880022    1    1    2    0    0  0.29554889567E+03  0.21678417783E+03 -0.25258097652E+04  0.25568439828E+04  0.15294330000E+03 0. -1.
    8880022    1    1    2    0    0 -0.29554889567E+03 -0.21678417783E+03 -0.89758325213E+02  0.40717654580E+03  0.15294330000E+03 0.  0.
<mgrwt>
<rscale>  0 0.39716015E+03</rscale>
<asrwt>0</asrwt>
<pdfrwt beam="1">  1        2 0.42919909E+00 0.39716015E+03</pdfrwt>
<pdfrwt beam="2">  1       -2 0.26804036E-01 0.39716015E+03</pdfrwt>
<totfact> 0.33466627E+01</totfact>
</mgrwt>
</event>
<event>
 4    1  0.4639964E-008  0.1056133E+04  0.7818608E-02  0.9249035E-01
         -2   -1    0    0    0  501 -0.00000000000E+00  0.00000000000E+00  0.11384070972E+04  0.11384070972E+04  0.25500000000E-02 0.  1.
          2   -1    0    0  501    0  0.00000000000E+00 -0.00000000000E+00 -0.11301690716E+04  0.11301690716E+04  0.25500000000E-02 0. -1.
    8880022    1    1    2    0    0 -0.55291083900E+03 -0.88674361522E+03 -0.40961817611E+03  0.11327856541E+04  0.15294330000E+03 0.  0.
    8880022    1    1    2    0    0  0.55291083900E+03  0.88674361522E+03  0.41785620172E+03  0.11357905147E+04  0.15294330000E+03 0.  0.
<mgrwt>
<rscale>  0 0.10561327E+04</rscale>
<asrwt>0</asrwt>
<pdfrwt beam="1">  1        2 0.17387216E+00 0.10561327E+04</pdfrwt>
<pdfrwt beam="2">  1       -2 0.17513955E+00 0.10561327E+04</pdfrwt>
<totfact> 0.40325343E+00</totfact>
</mgrwt>
</event>
<event>
 4    1  0.4639964E-008  0.3736221E+03  0.7818608E-02  0.1053317E+00
          2   -1    0    0  501    0  0.00000000000E+00  0.00000000000E+00  0.10395403192E+04  0.10395403192E+04  0.25500000000E-02 0. -1.
         -2   -1    0    0    0  501 -0.00000000000E+00 -0.00000000000E+00 -0.24249878659E+03  0.24249878660E+03  0.25500000000E-02 0.  1.
    8880022    1    1    2    0    0  0.22267821561E+03 -0.25810124565E+03 -0.29692445909E+02  0.37480012683E+03  0.15294330000E+03 0.  0.
    8880022    1    1    2    0    0 -0.22267821561E+03  0.25810124565E+03  0.82673397848E+03  0.90723897894E+03  0.15294330000E+03 0.  0.
<mgrwt>
<rscale>  0 0.37362213E+03</rscale>
<asrwt>0</asrwt>
<pdfrwt beam="1">  1        2 0.15992928E+00 0.37362213E+03</pdfrwt>
<pdfrwt beam="2">  1       -2 0.37307505E-01 0.37362213E+03</pdfrwt>
<totfact> 0.16835488E+02</totfact>
</mgrwt>
</event>
<event>
 4    1  0.4639964E-008  0.2323185E+03  0.7818608E-02  0.1125018E+00
          2   -1    0    0  501    0  0.00000000000E+00  0.00000000000E+00  0.30352580593E+04  0.30352580593E+04  0.25500000000E-02 0. -1.
         -2   -1    0    0    0  501 -0.00000000000E+00 -0.00000000000E+00 -0.11263895586E+03  0.11263895589E+03  0.25500000000E-02 0.  1.
    8880022    1    1    2    0    0  0.16824434082E+03 -0.47687172631E+02  0.29056900603E+04  0.29149625391E+04  0.15294330000E+03 0. -1.
    8880022    1    1    2    0    0 -0.16824434082E+03  0.47687172631E+02  0.16929043138E+02  0.23293447612E+03  0.15294330000E+03 0.  0.
<mgrwt>
<rscale>  0 0.23231848E+03</rscale>
<asrwt>0</asrwt>
<pdfrwt beam="1">  1        2 0.46696272E+00 0.23231848E+03</pdfrwt>
<pdfrwt beam="2">  1       -2 0.17329072E-01 0.23231848E+03</pdfrwt>
<totfact> 0.54604528E+01</totfact>
</mgrwt>
</event>
<event>
 4    1  0.4639964E-008  0.8456612E+03  0.7818608E-02  0.9496179E-01
         -2   -1    0    0    0  501 -0.00000000000E+00  0.00000000000E+00  0.14144365854E+04  0.14144365854E+04  0.25500000000E-02 0.  1.
          2   -1    0    0  501    0  0.00000000000E+00 -0.00000000000E+00 -0.13236280813E+04  0.13236280813E+04  0.25500000000E-02 0. -1.
    8880022    1    1    2    0    0 -0.10947807535E+03  0.82447913521E+03  0.11216565965E+04  0.14047264741E+04  0.15294330000E+03 0.  0.
    8880022    1    1    2    0    0  0.10947807535E+03 -0.82447913521E+03 -0.10308480924E+04  0.13333381927E+04  0.15294330000E+03 0.  0.
<mgrwt>
<rscale>  0 0.84566125E+03</rscale>
<asrwt>0</asrwt>
<pdfrwt beam="1">  1        2 0.20363509E+00 0.84566125E+03</pdfrwt>
<pdfrwt beam="2">  1       -2 0.21760563E+00 0.84566125E+03</pdfrwt>
<totfact> 0.16654784E+00</totfact>
</mgrwt>
</event>
<event>
 4    1  0.4639964E-008  0.1364468E+04  0.7818608E-02  0.8979948E-01
          2   -1    0    0  501    0  0.00000000000E+00  0.00000000000E+00  0.26524998951E+04  0.26524998951E+04  0.25500000000E-02 0. -1.
         -2   -1    0    0    0  501 -0.00000000000E+00 -0.00000000000E+00 -0.13691790900E+04  0.13691790900E+04  0.25500000000E-02 0.  1.
    8880022    1    1    2    0    0 -0.72537162658E+03 -0.11455199923E+04 -0.76213313963E+03  0.15628879118E+04  0.15294330000E+03 0.  0.
    8880022    1    1    2    0    0  0.72537162658E+03  0.11455199923E+04  0.20454539448E+04  0.24587910734E+04  0.15294330000E+03 0.  0.
<mgrwt>
<rscale>  0 0.13644676E+04</rscale>
<asrwt>0</asrwt>
<pdfrwt beam="1">  1        2 0.40807691E+00 0.13644676E+04</pdfrwt>
<pdfrwt beam="2">  1       -2 0.21064294E+00 0.13644676E+04</pdfrwt>
<totfact> 0.30714870E-01</totfact>
</mgrwt>
</event>
<event>
 4    1  0.4639964E-008  0.8401282E+03  0.7818608E-02  0.9503683E-01
         -2   -1    0    0    0  501 -0.00000000000E+00  0.00000000000E+00  0.11391815076E+04  0.11391815076E+04  0.25500000000E-02 0.  1.
          2   -1    0    0  501    0  0.00000000000E+00 -0.00000000000E+00 -0.13542085011E+04  0.13542085011E+04  0.25500000000E-02 0. -1.
    8880022    1    1    2    0    0  0.14096879759E+03 -0.81397270429E+03 -0.10257424664E+04  0.13258819803E+04  0.15294330000E+03 0.  0.
    8880022    1    1    2    0    0 -0.14096879759E+03  0.81397270429E+03  0.81071547298E+03  0.11675080284E+04  0.15294330000E+03 0.  0.
<mgrwt>
<rscale>  0 0.84012822E+03</rscale>
<asrwt>0</asrwt>
<pdfrwt beam="1">  1        2 0.20833977E+00 0.84012822E+03</pdfrwt>
<pdfrwt beam="2">  1       -2 0.17525869E+00 0.84012822E+03</pdfrwt>
<totfact> 0.30458851E+00</totfact>
</mgrwt>
</event>
<event>
 4    1  0.4639964E-008  0.9401250E+03  0.7818608E-02  0.9376768E-01
         -2   -1    0    0    0  501 -0.00000000000E+00  0.00000000000E+00  0.60056895695E+03  0.60056895695E+03  0.25500000000E-02 0.  1.
          2   -1    0    0  501    0  0.00000000000E+00 -0.00000000000E+00 -0.29356606364E+04  0.29356606364E+04  0.25500000000E-02 0. -1.
    8880022    1    1    2    0    0 -0.90776755993E+03  0.19079172941E+03  0.81066808032E+02  0.94361374897E+03  0.15294330000E+03 0.  0.
    8880022    1    1    2    0    0  0.90776755993E+03 -0.19079172941E+03 -0.24161584875E+04  0.25926158444E+04  0.15294330000E+03 0.  0.
<mgrwt>
<rscale>  0 0.94012503E+03</rscale>
<asrwt>0</asrwt>
<pdfrwt beam="1">  1        2 0.45164009E+00 0.94012503E+03</pdfrwt>
<pdfrwt beam="2">  1       -2 0.92395226E-01 0.94012503E+03</pdfrwt>
<totfact> 0.19529301E+00</totfact>
</mgrwt>
</event>
<event>
 4    1  0.4639964E-008  0.3643228E+03  0.7818608E-02  0.1056885E+00
          2   -1    0    0  501    0  0.00000000000E+00  0.00000000000E+00  0.16724922056E+04  0.16724922056E+04  0.25500000000E-02 0. -1.
         -2   -1    0    0    0  501 -0.00000000000E+00 -0.00000000000E+00 -0.30872587344E+03  0.30872587345E+03  0.25500000000E-02 0.  1.
    8880022    1    1    2    0    0 -0.26008667494E+03  0.20419195518E+03 -0.17196172060E+03  0.40286712376E+03  0.15294330000E+03 0.  0.
    8880022    1    1    2    0    0  0.26008667494E+03 -0.20419195518E+03  0.15357280528E+04  0.15783509553E+04  0.15294330000E+03 0.  0.
<mgrwt>
<rscale>  0 0.36432278E+03</rscale>
<asrwt>0</asrwt>
<pdfrwt beam="1">  1        2 0.25730649E+00 0.36432278E+03</pdfrwt>
<pdfrwt beam="2">  1       -2 0.47496289E-01 0.36432278E+03</pdfrwt>
<totfact> 0.46518668E+01</totfact>
</mgrwt>
</event>
<event>
 4    1  0.4639964E-008  0.5048300E+03  0.7818608E-02  0.1012526E+00
          2   -1    0    0  501    0  0.00000000000E+00  0.00000000000E+00  0.19380334408E+04  0.19380334408E+04  0.25500000000E-02 0. -1.
         -2   -1    0    0    0  501 -0.00000000000E+00 -0.00000000000E+00 -0.14982092402E+03  0.14982092404E+03  0.25500000000E-02 0.  1.
    8880022    1    1    2    0    0  0.24450608814E+03  0.41434103637E+03  0.12591505535E+04  0.13565815460E+04  0.15294330000E+03 0.  0.
    8880022    1    1    2    0    0 -0.24450608814E+03 -0.41434103637E+03  0.52906196325E+03  0.73127281881E+03  0.15294330000E+03 0.  0.
<mgrwt>
<rscale>  0 0.50483005E+03</rscale>
<asrwt>0</asrwt>
<pdfrwt beam="1">  1        2 0.29815898E+00 0.50483005E+03</pdfrwt>
<pdfrwt beam="2">  1       -2 0.23049374E-01 0.50483005E+03</pdfrwt>
<totfact> 0.12656774E+02</totfact>
</mgrwt>
</event>
<event>
 4    1  0.4639964E-008  0.6440962E+03  0.7818608E-02  0.9817921E-01
          2   -1    0    0  501    0  0.00000000000E+00  0.00000000000E+00  0.66110175217E+03  0.66110175217E+03  0.25500000000E-02 0. -1.
         -2   -1    0    0    0  501 -0.00000000000E+00 -0.00000000000E+00 -0.70968910491E+03  0.70968910491E+03  0.25500000000E-02 0.  1.
    8880022    1    1    2    0    0 -0.38258491882E+03 -0.49507274093E+03 -0.25749990390E+03  0.69366136727E+03  0.15294330000E+03 0.  0.
    8880022    1    1    2    0    0  0.38258491882E+03  0.49507274093E+03  0.20891255116E+03  0.67712948981E+03  0.15294330000E+03 0.  0.
<mgrwt>
<rscale>  0 0.64409618E+03</rscale>
<asrwt>0</asrwt>
<pdfrwt beam="1">  1        2 0.10170796E+00 0.64409618E+03</pdfrwt>
<pdfrwt beam="2">  1       -2 0.10918294E+00 0.64409618E+03</pdfrwt>
<totfact> 0.30127681E+01</totfact>
</mgrwt>
</event>
<event>
 4    1  0.4639964E-008  0.2993106E+03  0.7818608E-02  0.1085586E+00
         -2   -1    0    0    0  501 -0.00000000000E+00  0.00000000000E+00  0.56433508851E+02  0.56433508909E+02  0.25500000000E-02 0.  1.
          2   -1    0    0  501    0  0.00000000000E+00 -0.00000000000E+00 -0.19037162909E+04  0.19037162909E+04  0.25500000000E-02 0. -1.
    8880022    1    1    2    0    0  0.23968410756E+03 -0.93523703268E+02 -0.13230957467E+04  0.13565283493E+04  0.15294330000E+03 0.  0.
    8880022    1    1    2    0    0 -0.23968410756E+03  0.93523703268E+02 -0.52418703540E+03  0.60362145057E+03  0.15294330000E+03 0.  0.
<mgrwt>
<rscale>  0 0.29931055E+03</rscale>
<asrwt>0</asrwt>
<pdfrwt beam="1">  1        2 0.29287938E+00 0.29931055E+03</pdfrwt>
<pdfrwt beam="2">  1       -2 0.86820798E-02 0.29931055E+03</pdfrwt>
<totfact> 0.69195422E+02</totfact>
</mgrwt>
</event>
<event>
 4    1  0.4639964E-008  0.4894914E+03  0.7818608E-02  0.1016559E+00
         -2   -1    0    0    0  501 -0.00000000000E+00  0.00000000000E+00  0.12994669771E+03  0.12994669774E+03  0.25500000000E-02 0.  1.
          2   -1    0    0  501    0  0.00000000000E+00 -0.00000000000E+00 -0.30881567731E+04  0.30881567731E+04  0.25500000000E-02 0. -1.
    8880022    1    1    2    0    0 -0.45954848648E+03 -0.70889905896E+02 -0.25004785125E+04  0.25479392918E+04  0.15294330000E+03 0.  0.
    8880022    1    1    2    0    0  0.45954848648E+03  0.70889905896E+02 -0.45773156285E+03  0.67016417901E+03  0.15294330000E+03 0.  0.
<mgrwt>
<rscale>  0 0.48949141E+03</rscale>
<asrwt>0</asrwt>
<pdfrwt beam="1">  1        2 0.47510098E+00 0.48949141E+03</pdfrwt>
<pdfrwt beam="2">  1       -2 0.19991802E-01 0.48949141E+03</pdfrwt>
<totfact> 0.36428490E+01</totfact>
</mgrwt>
</event>
<event>
 4    1  0.4639964E-008  0.2464553E+03  0.7818608E-02  0.1115566E+00
          2   -1    0    0  501    0  0.00000000000E+00  0.00000000000E+00  0.90339077605E+03  0.90339077606E+03  0.25500000000E-02 0. -1.
         -2   -1    0    0    0  501 -0.00000000000E+00 -0.00000000000E+00 -0.33047962469E+03  0.33047962470E+03  0.25500000000E-02 0.  1.
    8880022    1    1    2    0    0 -0.33771197339E+02  0.19028419568E+03  0.83706835075E+03  0.87259592352E+03  0.15294330000E+03 0.  0.
    8880022    1    1    2    0    0  0.33771197339E+02 -0.19028419568E+03 -0.26415719939E+03  0.36127447723E+03  0.15294330000E+03 0.  0.
<mgrwt>
<rscale>  0 0.24645531E+03</rscale>
<asrwt>0</asrwt>
<pdfrwt beam="1">  1        2 0.13898320E+00 0.24645531E+03</pdfrwt>
<pdfrwt beam="2">  1       -2 0.50843020E-01 0.24645531E+03</pdfrwt>
<totfact> 0.11417641E+02</totfact>
</mgrwt>
</event>
<event>
 4    1  0.4639964E-008  0.6581594E+03  0.7818608E-02  0.9791588E-01
         -2   -1    0    0    0  501 -0.00000000000E+00  0.00000000000E+00  0.39965096414E+03  0.39965096415E+03  0.25500000000E-02 0.  1.
          2   -1    0    0  501    0  0.00000000000E+00 -0.00000000000E+00 -0.15919334256E+04  0.15919334256E+04  0.25500000000E-02 0. -1.
    8880022    1    1    2    0    0 -0.32328781545E+03 -0.55250978894E+03 -0.33591512494E+02  0.65901602501E+03  0.15294330000E+03 0.  0.
    8880022    1    1    2    0    0  0.32328781545E+03  0.55250978894E+03 -0.11586909490E+04  0.13325683647E+04  0.15294330000E+03 0.  0.
<mgrwt>
<rscale>  0 0.65815935E+03</rscale>
<asrwt>0</asrwt>
<pdfrwt beam="1">  1        2 0.24491283E+00 0.65815935E+03</pdfrwt>
<pdfrwt beam="2">  1       -2 0.61484765E-01 0.65815935E+03</pdfrwt>
<totfact> 0.28734320E+01</totfact>
</mgrwt>
</event>
<event>
 4    1  0.4639964E-008  0.2238064E+03  0.7818608E-02  0.1131077E+00
          2   -1    0    0  501    0  0.00000000000E+00  0.00000000000E+00  0.46012809895E+03  0.46012809895E+03  0.25500000000E-02 0. -1.
         -2   -1    0    0    0  501 -0.00000000000E+00 -0.00000000000E+00 -0.16084135033E+03  0.16084135035E+03  0.25500000000E-02 0.  1.
    8880022    1    1    2    0    0 -0.16265436619E+03  0.15531362633E+02  0.32615251940E+03  0.39555629813E+03  0.15294330000E+03 0.  0.
    8880022    1    1    2    0    0  0.16265436619E+03 -0.15531362633E+02 -0.26865770782E+02  0.22541315117E+03  0.15294330000E+03 0.  1.
<mgrwt>
<rscale>  0 0.22380643E+03</rscale>
<asrwt>0</asrwt>
<pdfrwt beam="1">  1        2 0.70788939E-01 0.22380643E+03</pdfrwt>
<pdfrwt beam="2">  1       -2 0.24744823E-01 0.22380643E+03</pdfrwt>
<totfact> 0.98991164E+02</totfact>
</mgrwt>
</event>
<event>
 4    1  0.4639964E-008  0.8315407E+03  0.7818608E-02  0.9515453E-01
         -2   -1    0    0    0  501 -0.00000000000E+00  0.00000000000E+00  0.39451341705E+03  0.39451341706E+03  0.25500000000E-02 0.  1.
          2   -1    0    0  501    0  0.00000000000E+00 -0.00000000000E+00 -0.45775398639E+04  0.45775398639E+04  0.25500000000E-02 0. -1.
    8880022    1    1    2    0    0  0.78822475803E+03  0.21626369350E+03 -0.13858015265E+03  0.84300911384E+03  0.15294330000E+03 0.  1.
    8880022    1    1    2    0    0 -0.78822475803E+03 -0.21626369350E+03 -0.40444462942E+04  0.41290441671E+04  0.15294330000E+03 0.  0.
<mgrwt>
<rscale>  0 0.83154068E+03</rscale>
<asrwt>0</asrwt>
<pdfrwt beam="1">  1        2 0.70423686E+00 0.83154068E+03</pdfrwt>
<pdfrwt beam="2">  1       -2 0.60694375E-01 0.83154068E+03</pdfrwt>
<totfact> 0.29254272E-01</totfact>
</mgrwt>
</event>
<event>
 4    1  0.4639964E-008  0.3704083E+03  0.7818608E-02  0.1054537E+00
         -2   -1    0    0    0  501 -0.00000000000E+00  0.00000000000E+00  0.22994543482E+03  0.22994543484E+03  0.25500000000E-02 0.  1.
          2   -1    0    0  501    0  0.00000000000E+00 -0.00000000000E+00 -0.12403543873E+04  0.12403543873E+04  0.25500000000E-02 0. -1.
    8880022    1    1    2    0    0 -0.31014890303E+02 -0.33592960685E+03  0.24383876908E+02  0.37120998188E+03  0.15294330000E+03 0.  0.
    8880022    1    1    2    0    0  0.31014890303E+02  0.33592960685E+03 -0.10347928293E+04  0.10990898402E+04  0.15294330000E+03 0.  0.
<mgrwt>
<rscale>  0 0.37040826E+03</rscale>
<asrwt>0</asrwt>
<pdfrwt beam="1">  1        2 0.19082375E+00 0.37040826E+03</pdfrwt>
<pdfrwt beam="2">  1       -2 0.35376221E-01 0.37040826E+03</pdfrwt>
<totfact> 0.14185618E+02</totfact>
</mgrwt>
</event>
<event>
 4    1  0.4639964E-008  0.1653836E+03  0.7818608E-02  0.1182749E+00
         -2   -1    0    0    0  501 -0.00000000000E+00  0.00000000000E+00  0.96701802027E+02  0.96701802061E+02  0.25500000000E-02 0.  1.
          2   -1    0    0  501    0  0.00000000000E+00 -0.00000000000E+00 -0.16555038163E+04  0.16555038163E+04  0.25500000000E-02 0. -1.
    8880022    1    1    2    0    0 -0.58532784560E+01 -0.62656302420E+02  0.18356886307E+02  0.16639922293E+03  0.15294330000E+03 0.  0.
    8880022    1    1    2    0    0  0.58532784560E+01  0.62656302420E+02 -0.15771589006E+04  0.15858063954E+04  0.15294330000E+03 0. -1.
<mgrwt>
<rscale>  0 0.16538357E+03</rscale>
<asrwt>0</asrwt>
<pdfrwt beam="1">  1        2 0.25469287E+00 0.16538357E+03</pdfrwt>
<pdfrwt beam="2">  1       -2 0.14877202E-01 0.16538357E+03</pdfrwt>
<totfact> 0.40176572E+02</totfact>
</mgrwt>
</event>
<event>
 4    1  0.4639964E-008  0.3272116E+03  0.7818608E-02  0.1072377E+00
          2   -1    0    0  501    0  0.00000000000E+00  0.00000000000E+00  0.11941896931E+04  0.11941896931E+04  0.25500000000E-02 0. -1.
         -2   -1    0    0    0  501 -0.00000000000E+00 -0.00000000000E+00 -0.95479754923E+03  0.95479754924E+03  0.25500000000E-02 0.  1.
    8880022    1    1    2    0    0 -0.11154116888E+03 -0.26689763986E+03  0.11424979905E+04  0.11884313585E+04  0.15294330000E+03 0. -1.
    8880022    1    1    2    0    0  0.11154116888E+03  0.26689763986E+03 -0.90310584670E+03  0.96055588379E+03  0.15294330000E+03 0.  0.
<mgrwt>
<rscale>  0 0.32721161E+03</rscale>
<asrwt>0</asrwt>
<pdfrwt beam="1">  1        2 0.18372149E+00 0.32721161E+03</pdfrwt>
<pdfrwt beam="2">  1       -2 0.14689193E+00 0.32721161E+03</pdfrwt>
<totfact> 0.67303050E+00</totfact>
</mgrwt>
</event>
<event>
 4    1  0.4639964E-008  0.1278372E+04  0.7818608E-02  0.9046894E-01
         -2   -1    0    0    0  501 -0.00000000000E+00  0.00000000000E+00  0.17044827905E+04  0.17044827905E+04  0.25500000000E-02 0.  1.
          2   -1    0    0  501    0  0.00000000000E+00 -0.00000000000E+00 -0.13727648214E+04  0.13727648214E+04  0.25500000000E-02 0. -1.
    8880022    1    1    2    0    0 -0.26412067157E+03  0.12414042719E+04  0.10107932290E+04  0.16297051575E+04  0.15294330000E+03 0.  0.
    8880022    1    1    2    0    0  0.26412067157E+03 -0.12414042719E+04 -0.67907525993E+03  0.14475424544E+04  0.15294330000E+03 0.  0.
<mgrwt>
<rscale>  0 0.12783724E+04</rscale>
<asrwt>0</asrwt>
<pdfrwt beam="1">  1        2 0.21119459E+00 0.12783724E+04</pdfrwt>
<pdfrwt beam="2">  1       -2 0.26222812E+00 0.12783724E+04</pdfrwt>
<totfact> 0.78171905E-01</totfact>
</mgrwt>
</event>
<event>
 4    1  0.4639964E-008  0.7634554E+03  0.7818608E-02  0.9614474E-01
         -2   -1    0    0    0  501 -0.00000000000E+00  0.00000000000E+00  0.55001665979E+03  0.55001665980E+03  0.25500000000E-02 0.  1.
          2   -1    0    0  501    0  0.00000000000E+00 -0.00000000000E+00 -0.17036700832E+04  0.17036700832E+04  0.25500000000E-02 0. -1.
    8880022    1    1    2    0    0  0.70859210285E+03  0.23951978961E+03  0.11595530138E+03  0.77221097037E+03  0.15294330000E+03 0.  0.
    8880022    1    1    2    0    0 -0.70859210285E+03 -0.23951978961E+03 -0.12696087248E+04  0.14814757727E+04  0.15294330000E+03 0. -1.
<mgrwt>
<rscale>  0 0.76345540E+03</rscale>
<asrwt>0</asrwt>
<pdfrwt beam="1">  1        2 0.26210309E+00 0.76345540E+03</pdfrwt>
<pdfrwt beam="2">  1       -2 0.84617948E-01 0.76345540E+03</pdfrwt>
<totfact> 0.12198378E+01</totfact>
</mgrwt>
</event>
<event>
 4    1  0.4639964E-008  0.3133363E+03  0.7818608E-02  0.1078758E+00
         -2   -1    0    0    0  501 -0.00000000000E+00  0.00000000000E+00  0.11942871168E+03  0.11942871171E+03  0.25500000000E-02 0.  1.
          2   -1    0    0  501    0  0.00000000000E+00 -0.00000000000E+00 -0.19539069524E+04  0.19539069524E+04  0.25500000000E-02 0. -1.
    8880022    1    1    2    0    0  0.23449099956E+03  0.14071941088E+03 -0.12823691952E+03  0.33856216861E+03  0.15294330000E+03 0.  0.
    8880022    1    1    2    0    0 -0.23449099956E+03 -0.14071941088E+03 -0.17062413212E+04  0.17347734955E+04  0.15294330000E+03 0. -1.
<mgrwt>
<rscale>  0 0.31333630E+03</rscale>
<asrwt>0</asrwt>
<pdfrwt beam="1">  1        2 0.30060105E+00 0.31333630E+03</pdfrwt>
<pdfrwt beam="2">  1       -2 0.18373649E-01 0.31333630E+03</pdfrwt>
<totfact> 0.19034764E+02</totfact>
</mgrwt>
</event>
<event>
 4    1  0.4639964E-008  0.2382803E+03  0.7818608E-02  0.1120944E+00
         -2   -1    0    0    0  501 -0.00000000000E+00  0.00000000000E+00  0.40273225042E+02  0.40273225123E+02  0.25500000000E-02 0.  1.
          2   -1    0    0  501    0  0.00000000000E+00 -0.00000000000E+00 -0.31314854275E+04  0.31314854275E+04  0.25500000000E-02 0. -1.
    8880022    1    1    2    0    0 -0.17988747419E+03 -0.32036646729E+02 -0.36970480302E+03  0.43983990780E+03  0.15294330000E+03 0.  0.
    8880022    1    1    2    0    0  0.17988747419E+03  0.32036646729E+02 -0.27215073994E+04  0.27319187448E+04  0.15294330000E+03 0.  0.
<mgrwt>
<rscale>  0 0.23828030E+03</rscale>
<asrwt>0</asrwt>
<pdfrwt beam="1">  1        2 0.48176680E+00 0.23828030E+03</pdfrwt>
<pdfrwt beam="2">  1       -2 0.61958833E-02 0.23828030E+03</pdfrwt>
<totfact> 0.24746170E+02</totfact>
</mgrwt>
</event>
<event>
 4    1  0.4639964E-008  0.4129626E+03  0.7818608E-02  0.1039381E+00
          2   -1    0    0  501    0  0.00000000000E+00  0.00000000000E+00  0.11045406864E+04  0.11045406864E+04  0.25500000000E-02 0. -1.
         -2   -1    0    0    0  501 -0.00000000000E+00 -0.00000000000E+00 -0.25401246144E+03  0.25401246145E+03  0.25500000000E-02 0.  1.
    8880022    1    1    2    0    0 -0.24730527858E+03 -0.29323462008E+03  0.85064880173E+03  0.94559054571E+03  0.15294330000E+03 0.  0.
    8880022    1    1    2    0    0  0.24730527858E+03  0.29323462008E+03 -0.12057676595E+00  0.41296260216E+03  0.15294330000E+03 0.  0.
<mgrwt>
<rscale>  0 0.41296258E+03</rscale>
<asrwt>0</asrwt>
<pdfrwt beam="1">  1        2 0.16992934E+00 0.41296258E+03</pdfrwt>
<pdfrwt beam="2">  1       -2 0.39078840E-01 0.41296258E+03</pdfrwt>
<totfact> 0.14003497E+02</totfact>
</mgrwt>
</event>
<event>
 4    1  0.4639964E-008  0.9672235E+03  0.7818608E-02  0.9345242E-01
         -2   -1    0    0    0  501 -0.00000000000E+00  0.00000000000E+00  0.15080345530E+04  0.15080345530E+04  0.25500000000E-02 0.  1.
          2   -1    0    0  501    0  0.00000000000E+00 -0.00000000000E+00 -0.10698726124E+04  0.10698726124E+04  0.25500000000E-02 0. -1.
    8880022    1    1    2    0    0 -0.78516805903E+03  0.54372855424E+03  0.10545746286E+04  0.14309608387E+04  0.15294330000E+03 0.  0.
    8880022    1    1    2    0    0  0.78516805903E+03 -0.54372855424E+03 -0.61641268795E+03  0.11469463268E+04  0.15294330000E+03 0.  0.
<mgrwt>
<rscale>  0 0.96722349E+03</rscale>
<asrwt>0</asrwt>
<pdfrwt beam="1">  1        2 0.16459579E+00 0.96722349E+03</pdfrwt>
<pdfrwt beam="2">  1       -2 0.23200532E+00 0.96722349E+03</pdfrwt>
<totfact> 0.18872379E+00</totfact>
</mgrwt>
</event>
<event>
 4    1  0.4639964E-008  0.2814852E+03  0.7818608E-02  0.1094880E+00
         -2   -1    0    0    0  501 -0.00000000000E+00  0.00000000000E+00  0.32397256887E+03  0.32397256888E+03  0.25500000000E-02 0.  1.
          2   -1    0    0  501    0  0.00000000000E+00 -0.00000000000E+00 -0.34308521938E+03  0.34308521939E+03  0.25500000000E-02 0. -1.
    8880022    1    1    2    0    0 -0.22257086536E+03 -0.79400846278E+02 -0.18828093307E+03  0.33864974128E+03  0.15294330000E+03 0.  0.
    8880022    1    1    2    0    0  0.22257086536E+03  0.79400846278E+02  0.16916828256E+03  0.32840804700E+03  0.15294330000E+03 0.  1.
<mgrwt>
<rscale>  0 0.28148523E+03</rscale>
<asrwt>0</asrwt>
<pdfrwt beam="1">  1        2 0.52782342E-01 0.28148523E+03</pdfrwt>
<pdfrwt beam="2">  1       -2 0.49841933E-01 0.28148523E+03</pdfrwt>
<totfact> 0.36716345E+02</totfact>
</mgrwt>
</event>
<event>
 4    1  0.4639964E-008  0.3169899E+03  0.7818608E-02  0.1077043E+00
         -2   -1    0    0    0  501 -0.00000000000E+00  0.00000000000E+00  0.57465628210E+03  0.57465628210E+03  0.25500000000E-02 0.  1.
          2   -1    0    0  501    0  0.00000000000E+00 -0.00000000000E+00 -0.12512250909E+04  0.12512250909E+04  0.25500000000E-02 0. -1.
    8880022    1    1    2    0    0  0.15040151665E+03 -0.23338883733E+03 -0.11850345240E+04  0.12266985944E+04  0.15294330000E+03 0.  0.
    8880022    1    1    2    0    0 -0.15040151665E+03  0.23338883733E+03  0.50846571517E+03  0.59918277856E+03  0.15294330000E+03 0.  0.
<mgrwt>
<rscale>  0 0.31698993E+03</rscale>
<asrwt>0</asrwt>
<pdfrwt beam="1">  1        2 0.19249617E+00 0.31698993E+03</pdfrwt>
<pdfrwt beam="2">  1       -2 0.88408659E-01 0.31698993E+03</pdfrwt>
<totfact> 0.21359417E+01</totfact>
</mgrwt>
</event>
<event>
 4    1  0.4639964E-008  0.3707880E+03  0.7818608E-02  0.1054392E+00
         -2   -1    0    0    0  501 -0.00000000000E+00  0.00000000000E+00  0.14020406136E+03  0.14020406138E+03  0.25500000000E-02 0.  1.
          2   -1    0    0  501    0  0.00000000000E+00 -0.00000000000E+00 -0.20945034903E+04  0.20945034903E+04  0.25500000000E-02 0. -1.
    8880022    1    1    2    0    0 -0.18400166089E+03 -0.28325864055E+03 -0.17919937083E+04  0.18299522323E+04  0.15294330000E+03 0.  0.
    8880022    1    1    2    0    0  0.18400166089E+03  0.28325864055E+03 -0.16230572066E+03  0.40475531946E+03  0.15294330000E+03 0.  0.
<mgrwt>
<rscale>  0 0.37078797E+03</rscale>
<asrwt>0</asrwt>
<pdfrwt beam="1">  1        2 0.32223128E+00 0.37078797E+03</pdfrwt>
<pdfrwt beam="2">  1       -2 0.21569857E-01 0.37078797E+03</pdfrwt>
<totfact> 0.12004959E+02</totfact>
</mgrwt>
</event>
<event>
 4    1  0.4639964E-008  0.4669338E+03  0.7818608E-02  0.1022789E+00
         -2   -1    0    0    0  501 -0.00000000000E+00  0.00000000000E+00  0.54778996742E+03  0.54778996742E+03  0.25500000000E-02 0.  1.
          2   -1    0    0  501    0  0.00000000000E+00 -0.00000000000E+00 -0.15233608743E+04  0.15233608743E+04  0.25500000000E-02 0. -1.
    8880022    1    1    2    0    0 -0.88668032086E+02  0.43217296158E+03  0.40228394369E+03  0.61632743976E+03  0.15294330000E+03 0.  0.
    8880022    1    1    2    0    0  0.88668032086E+02 -0.43217296158E+03 -0.13778548505E+04  0.14548234019E+04  0.15294330000E+03 0.  0.
<mgrwt>
<rscale>  0 0.46693377E+03</rscale>
<asrwt>0</asrwt>
<pdfrwt beam="1">  1        2 0.23436321E+00 0.46693377E+03</pdfrwt>
<pdfrwt beam="2">  1       -2 0.84275380E-01 0.46693377E+03</pdfrwt>
<totfact> 0.16230521E+01</totfact>
</mgrwt>
</event>
<event>
 4    1  0.4639964E-008  0.4899670E+03  0.7818608E-02  0.1016431E+00
          2   -1    0    0  501    0  0.00000000000E+00  0.00000000000E+00  0.71901204312E+03  0.71901204312E+03  0.25500000000E-02 0. -1.
         -2   -1    0    0    0  501 -0.00000000000E+00 -0.00000000000E+00 -0.92906292629E+03  0.92906292630E+03  0.25500000000E-02 0.  1.
    8880022    1    1    2    0    0 -0.30650684924E+03  0.35032776693E+03  0.55452445020E+03  0.73997635895E+03  0.15294330000E+03 0. -1.
    8880022    1    1    2    0    0  0.30650684924E+03 -0.35032776693E+03 -0.76457533338E+03  0.90809861047E+03  0.15294330000E+03 0.  0.
<mgrwt>
<rscale>  0 0.48996698E+03</rscale>
<asrwt>0</asrwt>
<pdfrwt beam="1">  1        2 0.11061724E+00 0.48996698E+03</pdfrwt>
<pdfrwt beam="2">  1       -2 0.14293276E+00 0.48996698E+03</pdfrwt>
<totfact> 0.14132827E+01</totfact>
</mgrwt>
</event>
<event>
 4    1  0.4639964E-008  0.2197311E+03  0.7818608E-02  0.1134084E+00
         -2   -1    0    0    0  501 -0.00000000000E+00  0.00000000000E+00  0.72462531111E+03  0.72462531111E+03  0.25500000000E-02 0.  1.
          2   -1    0    0  501    0  0.00000000000E+00 -0.00000000000E+00 -0.62867568456E+03  0.62867568456E+03  0.25500000000E-02 0. -1.
    8880022    1    1    2    0    0  0.10877177969E+03 -0.11427513789E+03  0.68776400011E+03  0.72201182820E+03  0.15294330000E+03 0.  1.
    8880022    1    1    2    0    0 -0.10877177969E+03  0.11427513789E+03 -0.59181437356E+03  0.63128916747E+03  0.15294330000E+03 0.  0.
<mgrwt>
<rscale>  0 0.21973111E+03</rscale>
<asrwt>0</asrwt>
<pdfrwt beam="1">  1        2 0.96719337E-01 0.21973111E+03</pdfrwt>
<pdfrwt beam="2">  1       -2 0.11148082E+00 0.21973111E+03</pdfrwt>
<totfact> 0.32526471E+01</totfact>
</mgrwt>
</event>
<event>
 4    1  0.4639964E-008  0.7017111E+03  0.7818608E-02  0.9714310E-01
          2   -1    0    0  501    0  0.00000000000E+00  0.00000000000E+00  0.27534648664E+04  0.27534648664E+04  0.25500000000E-02 0. -1.
         -2   -1    0    0    0  501 -0.00000000000E+00 -0.00000000000E+00 -0.40984057201E+03  0.40984057202E+03  0.25500000000E-02 0.  1.
    8880022    1    1    2    0    0 -0.40020102458E+03 -0.55573913337E+03 -0.15652866746E+02  0.70188568135E+03  0.15294330000E+03 0.  0.
    8880022    1    1    2    0    0  0.40020102458E+03  0.55573913337E+03  0.23592771611E+04  0.24614197570E+04  0.15294330000E+03 0.  0.
<mgrwt>
<rscale>  0 0.70171112E+03</rscale>
<asrwt>0</asrwt>
<pdfrwt beam="1">  1        2 0.42360999E+00 0.70171112E+03</pdfrwt>
<pdfrwt beam="2">  1       -2 0.63052394E-01 0.70171112E+03</pdfrwt>
<totfact> 0.61344828E+00</totfact>
</mgrwt>
</event>
<event>
 4    1  0.4639964E-008  0.9976193E+03  0.7818608E-02  0.9311160E-01
          2   -1    0    0  501    0  0.00000000000E+00  0.00000000000E+00  0.12245452874E+04  0.12245452874E+04  0.25500000000E-02 0. -1.
         -2   -1    0    0    0  501 -0.00000000000E+00 -0.00000000000E+00 -0.83043657363E+03  0.83043657364E+03  0.25500000000E-02 0.  1.
    8880022    1    1    2    0    0 -0.76477056630E+03  0.62207611231E+03  0.34702109486E+03  0.10562518648E+04  0.15294330000E+03 0.  0.
    8880022    1    1    2    0    0  0.76477056630E+03 -0.62207611231E+03  0.47087618932E+02  0.99872999627E+03  0.15294330000E+03 0.  0.
<mgrwt>
<rscale>  0 0.99761935E+03</rscale>
<asrwt>0</asrwt>
<pdfrwt beam="1">  1        2 0.18839158E+00 0.99761935E+03</pdfrwt>
<pdfrwt beam="2">  1       -2 0.12775947E+00 0.99761935E+03</pdfrwt>
<totfact> 0.82487683E+00</totfact>
</mgrwt>
</event>
<event>
 4    1  0.4639964E-008  0.2127752E+03  0.7818608E-02  0.1139387E+00
         -2   -1    0    0    0  501 -0.00000000000E+00  0.00000000000E+00  0.32054106716E+03  0.32054106717E+03  0.25500000000E-02 0.  1.
          2   -1    0    0  501    0  0.00000000000E+00 -0.00000000000E+00 -0.96229693884E+03  0.96229693884E+03  0.25500000000E-02 0. -1.
    8880022    1    1    2    0    0 -0.13013570414E+03  0.70330032969E+02 -0.91335817331E+03  0.93781470493E+03  0.15294330000E+03 0.  0.
    8880022    1    1    2    0    0  0.13013570414E+03 -0.70330032969E+02  0.27160230162E+03  0.34502330108E+03  0.15294330000E+03 0.  0.
<mgrwt>
<rscale>  0 0.21277516E+03</rscale>
<asrwt>0</asrwt>
<pdfrwt beam="1">  1        2 0.14804568E+00 0.21277516E+03</pdfrwt>
<pdfrwt beam="2">  1       -2 0.49314011E-01 0.21277516E+03</pdfrwt>
<totfact> 0.11218508E+02</totfact>
</mgrwt>
</event>
<event>
 4    1  0.4639964E-008  0.3429833E+03  0.7818608E-02  0.1065532E+00
          2   -1    0    0  501    0  0.00000000000E+00  0.00000000000E+00  0.40715876683E+03  0.40715876684E+03  0.25500000000E-02 0. -1.
         -2   -1    0    0    0  501 -0.00000000000E+00 -0.00000000000E+00 -0.65118307041E+03  0.65118307041E+03  0.25500000000E-02 0.  1.
    8880022    1    1    2    0    0 -0.29632142294E+03  0.80246650688E+02 -0.51670077292E+03  0.62017517879E+03  0.15294330000E+03 0.  0.
    8880022    1    1    2    0    0  0.29632142294E+03 -0.80246650688E+02  0.27267646934E+03  0.43816665846E+03  0.15294330000E+03 0.  0.
<mgrwt>
<rscale>  0 0.34298333E+03</rscale>
<asrwt>0</asrwt>
<pdfrwt beam="1">  1        2 0.62639811E-01 0.34298333E+03</pdfrwt>
<pdfrwt beam="2">  1       -2 0.10018201E+00 0.34298333E+03</pdfrwt>
<totfact> 0.66964875E+01</totfact>
</mgrwt>
</event>
<event>
 4    1  0.4639964E-008  0.3967971E+03  0.7818608E-02  0.1044894E+00
          2   -1    0    0  501    0  0.00000000000E+00  0.00000000000E+00  0.18743687837E+04  0.18743687837E+04  0.25500000000E-02 0. -1.
         -2   -1    0    0    0  501 -0.00000000000E+00 -0.00000000000E+00 -0.28646168244E+03  0.28646168245E+03  0.25500000000E-02 0.  1.
    8880022    1    1    2    0    0 -0.36596894950E+03  0.11090860738E+02 -0.11434433724E+03  0.41294377300E+03  0.15294330000E+03 0.  0.
    8880022    1    1    2    0    0  0.36596894950E+03 -0.11090860738E+02  0.17022514385E+04  0.17478866931E+04  0.15294330000E+03 0.  0.
<mgrwt>
<rscale>  0 0.39679709E+03</rscale>
<asrwt>0</asrwt>
<pdfrwt beam="1">  1        2 0.28836444E+00 0.39679709E+03</pdfrwt>
<pdfrwt beam="2">  1       -2 0.44071027E-01 0.39679709E+03</pdfrwt>
<totfact> 0.41785256E+01</totfact>
</mgrwt>
</event>
<event>
 4    1  0.4639964E-008  0.7716406E+03  0.7818608E-02  0.9601998E-01
          2   -1    0    0  501    0  0.00000000000E+00  0.00000000000E+00  0.12997009932E+04  0.12997009932E+04  0.25500000000E-02 0. -1.
         -2   -1    0    0    0  501 -0.00000000000E+00 -0.00000000000E+00 -0.77615023329E+03  0.77615023329E+03  0.25500000000E-02 0.  1.
    8880022    1    1    2    0    0 -0.66701872283E+03 -0.35654387314E+03 -0.40261327499E+03  0.87036004750E+03  0.15294330000E+03 0.  1.
    8880022    1    1    2    0    0  0.66701872283E+03  0.35654387314E+03  0.92616403491E+03  0.12054911790E+04  0.15294330000E+03 0.  0.
<mgrwt>
<rscale>  0 0.77164057E+03</rscale>
<asrwt>0</asrwt>
<pdfrwt beam="1">  1        2 0.19995400E+00 0.77164057E+03</pdfrwt>
<pdfrwt beam="2">  1       -2 0.11940773E+00 0.77164057E+03</pdfrwt>
<totfact> 0.90553611E+00</totfact>
</mgrwt>
</event>
<event>
 4    1  0.4639964E-008  0.3686952E+03  0.7818608E-02  0.1055193E+00
          2   -1    0    0  501    0  0.00000000000E+00  0.00000000000E+00  0.46629818218E+03  0.46629818219E+03  0.25500000000E-02 0. -1.
         -2   -1    0    0    0  501 -0.00000000000E+00 -0.00000000000E+00 -0.48383464933E+03  0.48383464934E+03  0.25500000000E-02 0.  1.
    8880022    1    1    2    0    0 -0.22526939625E+03  0.24859242682E+03 -0.30827721110E+03  0.48059441056E+03  0.15294330000E+03 0.  1.
    8880022    1    1    2    0    0  0.22526939625E+03 -0.24859242682E+03  0.29074074395E+03  0.46953842097E+03  0.15294330000E+03 0.  0.
<mgrwt>
<rscale>  0 0.36869520E+03</rscale>
<asrwt>0</asrwt>
<pdfrwt beam="1">  1        2 0.71738182E-01 0.36869520E+03</pdfrwt>
<pdfrwt beam="2">  1       -2 0.74436100E-01 0.36869520E+03</pdfrwt>
<totfact> 0.11242523E+02</totfact>
</mgrwt>
</event>
<event>
 4    1  0.4639964E-008  0.5602190E+03  0.7818608E-02  0.9991559E-01
          2   -1    0    0  501    0  0.00000000000E+00  0.00000000000E+00  0.13093772264E+04  0.13093772264E+04  0.25500000000E-02 0. -1.
         -2   -1    0    0    0  501 -0.00000000000E+00 -0.00000000000E+00 -0.26583913102E+03  0.26583913103E+03  0.25500000000E-02 0.  1.
    8880022    1    1    2    0    0 -0.42874525468E+03 -0.32654431666E+03  0.76878493815E+03  0.95124950370E+03  0.15294330000E+03 0.  0.
    8880022    1    1    2    0    0  0.42874525468E+03  0.32654431666E+03  0.27475315726E+03  0.62396685376E+03  0.15294330000E+03 0.  0.
<mgrwt>
<rscale>  0 0.56021901E+03</rscale>
<asrwt>0</asrwt>
<pdfrwt beam="1">  1        2 0.20144265E+00 0.56021901E+03</pdfrwt>
<pdfrwt beam="2">  1       -2 0.40898328E-01 0.56021901E+03</pdfrwt>
<totfact> 0.95720672E+01</totfact>
</mgrwt>
</event>
<event>
 4    1  0.5254299E-008  0.8453921E+03  0.7818608E-02  0.9496542E-01
         -2   -1    0    0    0  501 -0.00000000000E+00  0.00000000000E+00  0.13935621811E+04  0.13935621811E+04  0.25500000000E-02 0.  1.
          2   -1    0    0  501    0  0.00000000000E+00 -0.00000000000E+00 -0.18082142128E+04  0.18082142128E+04  0.25500000000E-02 0. -1.
    8880022    1    1    2    0    0 -0.76589317453E+03 -0.32357971328E+03  0.11476514540E+04  0.14254093091E+04  0.15294330000E+03 0.  0.
    8880022    1    1    2    0    0  0.76589317453E+03  0.32357971328E+03 -0.15623034857E+04  0.17763670848E+04  0.15294330000E+03 0.  0.
<mgrwt>
<rscale>  0 0.84539212E+03</rscale>
<asrwt>0</asrwt>
<pdfrwt beam="1">  1        2 0.27818680E+00 0.84539212E+03</pdfrwt>
<pdfrwt beam="2">  1       -2 0.21439418E+00 0.84539212E+03</pdfrwt>
<totfact> 0.93712343E-01</totfact>
</mgrwt>
</event>
<event>
 4    1  0.4639964E-008  0.5508421E+03  0.7818608E-02  0.1001299E+00
         -2   -1    0    0    0  501 -0.00000000000E+00  0.00000000000E+00  0.23170466838E+03  0.23170466840E+03  0.25500000000E-02 0.  1.
          2   -1    0    0  501    0  0.00000000000E+00 -0.00000000000E+00 -0.16821042098E+04  0.16821042098E+04  0.25500000000E-02 0. -1.
    8880022    1    1    2    0    0 -0.52321055307E+03  0.79284558474E+02 -0.11755408513E+04  0.12982000116E+04  0.15294330000E+03 0.  0.
    8880022    1    1    2    0    0  0.52321055307E+03 -0.79284558474E+02 -0.27485869008E+03  0.61560886655E+03  0.15294330000E+03 0.  0.
<mgrwt>
<rscale>  0 0.55084206E+03</rscale>
<asrwt>0</asrwt>
<pdfrwt beam="1">  1        2 0.25878525E+00 0.55084206E+03</pdfrwt>
<pdfrwt beam="2">  1       -2 0.35646873E-01 0.55084206E+03</pdfrwt>
<totfact> 0.77681006E+01</totfact>
</mgrwt>
</event>
<event>
 4    1  0.4639964E-008  0.4388885E+03  0.7818608E-02  0.1031088E+00
          2   -1    0    0  501    0  0.00000000000E+00  0.00000000000E+00  0.18392856750E+04  0.18392856750E+04  0.25500000000E-02 0. -1.
         -2   -1    0    0    0  501 -0.00000000000E+00 -0.00000000000E+00 -0.17551294410E+03  0.17551294412E+03  0.25500000000E-02 0.  1.
    8880022    1    1    2    0    0 -0.40951043818E+03 -0.39149031982E+02  0.14716509685E+04  0.15357016871E+04  0.15294330000E+03 0.  0.
    8880022    1    1    2    0    0  0.40951043818E+03  0.39149031982E+02  0.19212176244E+03  0.47909693205E+03  0.15294330000E+03 0.  0.
<mgrwt>
<rscale>  0 0.43888848E+03</rscale>
<asrwt>0</asrwt>
<pdfrwt beam="1">  1        2 0.28296703E+00 0.43888848E+03</pdfrwt>
<pdfrwt beam="2">  1       -2 0.27001991E-01 0.43888848E+03</pdfrwt>
<totfact> 0.10884611E+02</totfact>
</mgrwt>
</event>
<event>
 4    1  0.4639964E-008  0.3125481E+03  0.7818608E-02  0.1079131E+00
          2   -1    0    0  501    0  0.00000000000E+00  0.00000000000E+00  0.95575719639E+03  0.95575719639E+03  0.25500000000E-02 0. -1.
         -2   -1    0    0    0  501 -0.00000000000E+00 -0.00000000000E+00 -0.31361465431E+03  0.31361465432E+03  0.25500000000E-02 0.  1.
    8880022    1    1    2    0    0 -0.13622144938E+03 -0.23608981529E+03  0.84216961361E+03  0.89829616233E+03  0.15294330000E+03 0. -1.
    8880022    1    1    2    0    0  0.13622144938E+03  0.23608981529E+03 -0.20002707153E+03  0.37107568839E+03  0.15294330000E+03 0.  0.
<mgrwt>
<rscale>  0 0.31254814E+03</rscale>
<asrwt>0</asrwt>
<pdfrwt beam="1">  1        2 0.14703957E+00 0.31254814E+03</pdfrwt>
<pdfrwt beam="2">  1       -2 0.48248408E-01 0.31254814E+03</pdfrwt>
<totfact> 0.11602565E+02</totfact>
</mgrwt>
</event>
<event>
 4    1  0.4639964E-008  0.4743083E+03  0.7818608E-02  0.1020711E+00
         -2   -1    0    0    0  501 -0.00000000000E+00  0.00000000000E+00  0.17625760402E+03  0.17625760403E+03  0.25500000000E-02 0.  1.
          2   -1    0    0  501    0  0.00000000000E+00 -0.00000000000E+00 -0.15328942177E+04  0.15328942178E+04  0.25500000000E-02 0. -1.
    8880022    1    1    2    0    0 -0.25120353230E+02  0.44826965798E+03 -0.32872253840E+03  0.57708481065E+03  0.15294330000E+03 0. -1.
    8880022    1    1    2    0    0  0.25120353230E+02 -0.44826965798E+03 -0.10279140753E+04  0.11320670111E+04  0.15294330000E+03 0.  0.
<mgrwt>
<rscale>  0 0.47430831E+03</rscale>
<asrwt>0</asrwt>
<pdfrwt beam="1">  1        2 0.23582987E+00 0.47430831E+03</pdfrwt>
<pdfrwt beam="2">  1       -2 0.27116555E-01 0.47430831E+03</pdfrwt>
<totfact> 0.15715980E+02</totfact>
</mgrwt>
</event>
<event>
 4    1  0.4639964E-008  0.7333840E+03  0.7818608E-02  0.9661785E-01
         -2   -1    0    0    0  501 -0.00000000000E+00  0.00000000000E+00  0.46743097667E+03  0.46743097668E+03  0.25500000000E-02 0.  1.
          2   -1    0    0  501    0  0.00000000000E+00 -0.00000000000E+00 -0.23221224659E+04  0.23221224660E+04  0.25500000000E-02 0. -1.
    8880022    1    1    2    0    0  0.59832321021E+03 -0.39556258146E+03  0.63319973013E+02  0.73611241786E+03  0.15294330000E+03 0.  0.
    8880022    1    1    2    0    0 -0.59832321021E+03  0.39556258146E+03 -0.19180114623E+04  0.20534410248E+04  0.15294330000E+03 0.  0.
<mgrwt>
<rscale>  0 0.73338399E+03</rscale>
<asrwt>0</asrwt>
<pdfrwt beam="1">  1        2 0.35724960E+00 0.73338399E+03</pdfrwt>
<pdfrwt beam="2">  1       -2 0.71912459E-01 0.73338399E+03</pdfrwt>
<totfact> 0.80793450E+00</totfact>
</mgrwt>
</event>
<event>
 4    1  0.4639964E-008  0.5527215E+03  0.7818608E-02  0.1000866E+00
          2   -1    0    0  501    0  0.00000000000E+00  0.00000000000E+00  0.16348323288E+04  0.16348323288E+04  0.25500000000E-02 0. -1.
         -2   -1    0    0    0  501 -0.00000000000E+00 -0.00000000000E+00 -0.80624273684E+03  0.80624273684E+03  0.25500000000E-02 0.  1.
    8880022    1    1    2    0    0 -0.46848388298E+03 -0.25026436569E+03 -0.65548474339E+03  0.85741547874E+03  0.15294330000E+03 0.  0.
    8880022    1    1    2    0    0  0.46848388298E+03  0.25026436569E+03  0.14840743354E+04  0.15836595869E+04  0.15294330000E+03 0.  0.
<mgrwt>
<rscale>  0 0.55272150E+03</rscale>
<asrwt>0</asrwt>
<pdfrwt beam="1">  1        2 0.25151266E+00 0.55272150E+03</pdfrwt>
<pdfrwt beam="2">  1       -2 0.12403735E+00 0.55272150E+03</pdfrwt>
<totfact> 0.55512005E+00</totfact>
</mgrwt>
</event>
<event>
 4    1  0.4639964E-008  0.5415531E+03  0.7818608E-02  0.1003468E+00
          2   -1    0    0  501    0  0.00000000000E+00  0.00000000000E+00  0.27903016058E+04  0.27903016058E+04  0.25500000000E-02 0. -1.
         -2   -1    0    0    0  501 -0.00000000000E+00 -0.00000000000E+00 -0.34454040361E+03  0.34454040362E+03  0.25500000000E-02 0.  1.
    8880022    1    1    2    0    0 -0.37608959247E+03  0.35839182184E+03  0.25295271173E+04  0.25868488880E+04  0.15294330000E+03 0.  0.
    8880022    1    1    2    0    0  0.37608959247E+03 -0.35839182184E+03 -0.83765915083E+02  0.54799312137E+03  0.15294330000E+03 0.  0.
<mgrwt>
<rscale>  0 0.54155307E+03</rscale>
<asrwt>0</asrwt>
<pdfrwt beam="1">  1        2 0.42927719E+00 0.54155307E+03</pdfrwt>
<pdfrwt beam="2">  1       -2 0.53006214E-01 0.54155307E+03</pdfrwt>
<totfact> 0.86937589E+00</totfact>
</mgrwt>
</event>
<event>
 4    1  0.4639964E-008  0.2191486E+03  0.7818608E-02  0.1134519E+00
         -2   -1    0    0    0  501 -0.00000000000E+00  0.00000000000E+00  0.21103643917E+03  0.21103643918E+03  0.25500000000E-02 0.  1.
          2   -1    0    0  501    0  0.00000000000E+00 -0.00000000000E+00 -0.17381096744E+04  0.17381096744E+04  0.25500000000E-02 0. -1.
    8880022    1    1    2    0    0 -0.10821238752E+03 -0.11368606061E+03 -0.16720713158E+04  0.16863714239E+04  0.15294330000E+03 0.  0.
    8880022    1    1    2    0    0  0.10821238752E+03  0.11368606061E+03  0.14499808053E+03  0.26277468973E+03  0.15294330000E+03 0.  1.
<mgrwt>
<rscale>  0 0.21914857E+03</rscale>
<asrwt>0</asrwt>
<pdfrwt beam="1">  1        2 0.26740148E+00 0.21914857E+03</pdfrwt>
<pdfrwt beam="2">  1       -2 0.32467146E-01 0.21914857E+03</pdfrwt>
<totfact> 0.92690453E+01</totfact>
</mgrwt>
</event>
<event>
 4    1  0.4639964E-008  0.6723374E+03  0.7818608E-02  0.9765744E-01
         -2   -1    0    0    0  501 -0.00000000000E+00  0.00000000000E+00  0.66684672185E+03  0.66684672186E+03  0.25500000000E-02 0.  1.
          2   -1    0    0  501    0  0.00000000000E+00 -0.00000000000E+00 -0.21768614792E+04  0.21768614792E+04  0.25500000000E-02 0. -1.
    8880022    1    1    2    0    0 -0.52410642671E+03 -0.39237536331E+03  0.42487505023E+03  0.79533416472E+03  0.15294330000E+03 0.  0.
    8880022    1    1    2    0    0  0.52410642671E+03  0.39237536331E+03 -0.19348898076E+04  0.20483740363E+04  0.15294330000E+03 0.  0.
<mgrwt>
<rscale>  0 0.67233743E+03</rscale>
<asrwt>0</asrwt>
<pdfrwt beam="1">  1        2 0.33490176E+00 0.67233743E+03</pdfrwt>
<pdfrwt beam="2">  1       -2 0.10259180E+00 0.67233743E+03</pdfrwt>
<totfact> 0.43654754E+00</totfact>
</mgrwt>
</event>
<event>
 4    1  0.4639964E-008  0.7059704E+03  0.7818608E-02  0.9707076E-01
          2   -1    0    0  501    0  0.00000000000E+00  0.00000000000E+00  0.23619495797E+04  0.23619495797E+04  0.25500000000E-02 0. -1.
         -2   -1    0    0    0  501 -0.00000000000E+00 -0.00000000000E+00 -0.39099668906E+03  0.39099668907E+03  0.25500000000E-02 0.  1.
    8880022    1    1    2    0    0  0.40578832216E+03  0.55708025570E+03  0.51573427795E+02  0.70785171128E+03  0.15294330000E+03 0.  0.
    8880022    1    1    2    0    0 -0.40578832216E+03 -0.55708025570E+03  0.19193794628E+04  0.20450945575E+04  0.15294330000E+03 0.  0.
<mgrwt>
<rscale>  0 0.70597041E+03</rscale>
<asrwt>0</asrwt>
<pdfrwt beam="1">  1        2 0.36337686E+00 0.70597041E+03</pdfrwt>
<pdfrwt beam="2">  1       -2 0.60153336E-01 0.70597041E+03</pdfrwt>
<totfact> 0.11327798E+01</totfact>
</mgrwt>
</event>
<event>
 4    1  0.4639964E-008  0.1134403E+04  0.7818608E-02  0.9172295E-01
          2   -1    0    0  501    0  0.00000000000E+00  0.00000000000E+00  0.66496777677E+03  0.66496777677E+03  0.25500000000E-02 0. -1.
         -2   -1    0    0    0  501 -0.00000000000E+00 -0.00000000000E+00 -0.35126826780E+04  0.35126826780E+04  0.25500000000E-02 0.  1.
    8880022    1    1    2    0    0  0.10129639424E+04  0.48721824574E+03 -0.24076552115E+02  0.11346580546E+04  0.15294330000E+03 0.  0.
    8880022    1    1    2    0    0 -0.10129639424E+04 -0.48721824574E+03 -0.28236383491E+04  0.30429924001E+04  0.15294330000E+03 0.  0.
<mgrwt>
<rscale>  0 0.11344026E+04</rscale>
<asrwt>0</asrwt>
<pdfrwt beam="1">  1        2 0.10230274E+00 0.11344026E+04</pdfrwt>
<pdfrwt beam="2">  1       -2 0.54041271E+00 0.11344026E+04</pdfrwt>
<totfact> 0.41021172E-02</totfact>
</mgrwt>
</event>
<event>
 4    1  0.4639964E-008  0.2654251E+03  0.7818608E-02  0.1103927E+00
          2   -1    0    0  501    0  0.00000000000E+00  0.00000000000E+00  0.11443372482E+04  0.11443372482E+04  0.25500000000E-02 0. -1.
         -2   -1    0    0    0  501 -0.00000000000E+00 -0.00000000000E+00 -0.10962404868E+03  0.10962404871E+03  0.25500000000E-02 0.  1.
    8880022    1    1    2    0    0 -0.19389338876E+03 -0.97283914213E+02  0.10221961885E+03  0.28442803952E+03  0.15294330000E+03 0.  0.
    8880022    1    1    2    0    0  0.19389338876E+03  0.97283914213E+02  0.93249358065E+03  0.96953325737E+03  0.15294330000E+03 0. -1.
<mgrwt>
<rscale>  0 0.26542505E+03</rscale>
<asrwt>0</asrwt>
<pdfrwt beam="1">  1        2 0.17605189E+00 0.26542505E+03</pdfrwt>
<pdfrwt beam="2">  1       -2 0.16865238E-01 0.26542505E+03</pdfrwt>
<totfact> 0.60784533E+02</totfact>
</mgrwt>
</event>
<event>
 4    1  0.4639964E-008  0.4822042E+03  0.7818608E-02  0.1018531E+00
          2   -1    0    0  501    0  0.00000000000E+00  0.00000000000E+00  0.45548981847E+04  0.45548981847E+04  0.25500000000E-02 0. -1.
         -2   -1    0    0    0  501 -0.00000000000E+00 -0.00000000000E+00 -0.55494241564E+02  0.55494241622E+02  0.25500000000E-02 0.  1.
    8880022    1    1    2    0    0  0.38421497336E+02 -0.45568963056E+03  0.15972416989E+04  0.16684429714E+04  0.15294330000E+03 0.  0.
    8880022    1    1    2    0    0 -0.38421497336E+02  0.45568963056E+03  0.29021622442E+04  0.29419494550E+04  0.15294330000E+03 0.  0.
<mgrwt>
<rscale>  0 0.48220421E+03</rscale>
<asrwt>0</asrwt>
<pdfrwt beam="1">  1        2 0.70075344E+00 0.48220421E+03</pdfrwt>
<pdfrwt beam="2">  1       -2 0.85375772E-02 0.48220421E+03</pdfrwt>
<totfact> 0.11731162E+01</totfact>
</mgrwt>
</event>
<event>
 4    1  0.4639964E-008  0.5187772E+03  0.7818608E-02  0.1008991E+00
         -2   -1    0    0    0  501 -0.00000000000E+00  0.00000000000E+00  0.13416850120E+04  0.13416850120E+04  0.25500000000E-02 0.  1.
          2   -1    0    0  501    0  0.00000000000E+00 -0.00000000000E+00 -0.56028353513E+03  0.56028353514E+03  0.25500000000E-02 0. -1.
    8880022    1    1    2    0    0  0.10104374748E+03  0.48531260246E+03  0.11526660022E+04  0.12640287681E+04  0.15294330000E+03 0.  0.
    8880022    1    1    2    0    0 -0.10104374748E+03 -0.48531260246E+03 -0.37126452525E+03  0.63793977908E+03  0.15294330000E+03 0.  0.
<mgrwt>
<rscale>  0 0.51877723E+03</rscale>
<asrwt>0</asrwt>
<pdfrwt beam="1">  1        2 0.86197469E-01 0.51877723E+03</pdfrwt>
<pdfrwt beam="2">  1       -2 0.20641307E+00 0.51877723E+03</pdfrwt>
<totfact> 0.68626127E+00</totfact>
</mgrwt>
</event>
<event>
 4    1  0.4639964E-008  0.5701454E+03  0.7818608E-02  0.9969357E-01
         -2   -1    0    0    0  501 -0.00000000000E+00  0.00000000000E+00  0.13742681607E+03  0.13742681610E+03  0.25500000000E-02 0.  1.
          2   -1    0    0  501    0  0.00000000000E+00 -0.00000000000E+00 -0.36907501254E+04  0.36907501254E+04  0.25500000000E-02 0. -1.
    8880022    1    1    2    0    0  0.20369814505E+03  0.51007959498E+03 -0.29236903997E+04  0.29787633900E+04  0.15294330000E+03 0.  0.
    8880022    1    1    2    0    0 -0.20369814505E+03 -0.51007959498E+03 -0.62963290965E+03  0.84941355148E+03  0.15294330000E+03 0.  0.
<mgrwt>
<rscale>  0 0.57014540E+03</rscale>
<asrwt>0</asrwt>
<pdfrwt beam="1">  1        2 0.56780764E+00 0.57014540E+03</pdfrwt>
<pdfrwt beam="2">  1       -2 0.21142590E-01 0.57014540E+03</pdfrwt>
<totfact> 0.12968015E+01</totfact>
</mgrwt>
</event>
<event>
 4    1  0.4639964E-008  0.2937833E+03  0.7818608E-02  0.1088390E+00
         -2   -1    0    0    0  501 -0.00000000000E+00  0.00000000000E+00  0.39498101578E+03  0.39498101579E+03  0.25500000000E-02 0.  1.
          2   -1    0    0  501    0  0.00000000000E+00 -0.00000000000E+00 -0.46082065953E+03  0.46082065954E+03  0.25500000000E-02 0. -1.
    8880022    1    1    2    0    0 -0.17965628223E+03 -0.17504454527E+03 -0.34320456553E+03  0.45177206574E+03  0.15294330000E+03 0.  0.
    8880022    1    1    2    0    0  0.17965628223E+03  0.17504454527E+03  0.27736492178E+03  0.40402960958E+03  0.15294330000E+03 0.  0.
<mgrwt>
<rscale>  0 0.29378330E+03</rscale>
<asrwt>0</asrwt>
<pdfrwt beam="1">  1        2 0.70895486E-01 0.29378330E+03</pdfrwt>
<pdfrwt beam="2">  1       -2 0.60766310E-01 0.29378330E+03</pdfrwt>
<totfact> 0.17699746E+02</totfact>
</mgrwt>
</event>
<event>
 4    1  0.4639964E-008  0.6997883E+03  0.7818608E-02  0.9717594E-01
         -2   -1    0    0    0  501 -0.00000000000E+00  0.00000000000E+00  0.48260672746E+03  0.48260672747E+03  0.25500000000E-02 0.  1.
          2   -1    0    0  501    0  0.00000000000E+00 -0.00000000000E+00 -0.15381032419E+04  0.15381032419E+04  0.25500000000E-02 0. -1.
    8880022    1    1    2    0    0 -0.67883597102E+03  0.74119897174E+02 -0.11171306779E+04  0.13182126684E+04  0.15294330000E+03 0.  0.
    8880022    1    1    2    0    0  0.67883597102E+03 -0.74119897174E+02  0.61634163449E+02  0.70249730094E+03  0.15294330000E+03 0.  0.
<mgrwt>
<rscale>  0 0.69978832E+03</rscale>
<asrwt>0</asrwt>
<pdfrwt beam="1">  1        2 0.23663127E+00 0.69978832E+03</pdfrwt>
<pdfrwt beam="2">  1       -2 0.74247190E-01 0.69978832E+03</pdfrwt>
<totfact> 0.20343373E+01</totfact>
</mgrwt>
</event>
<event>
 4    1  0.4639964E-008  0.3118525E+03  0.7818608E-02  0.1079461E+00
          2   -1    0    0  501    0  0.00000000000E+00  0.00000000000E+00  0.97498271378E+03  0.97498271378E+03  0.25500000000E-02 0. -1.
         -2   -1    0    0    0  501 -0.00000000000E+00 -0.00000000000E+00 -0.18561183725E+03  0.18561183727E+03  0.25500000000E-02 0.  1.
    8880022    1    1    2    0    0 -0.14122654982E+03  0.23219693224E+03  0.78937379897E+03  0.84874201100E+03  0.15294330000E+03 0.  0.
    8880022    1    1    2    0    0  0.14122654982E+03 -0.23219693224E+03 -0.29224431007E-02  0.31185254006E+03  0.15294330000E+03 0. -1.
<mgrwt>
<rscale>  0 0.31185254E+03</rscale>
<asrwt>0</asrwt>
<pdfrwt beam="1">  1        2 0.14999735E+00 0.31185254E+03</pdfrwt>
<pdfrwt beam="2">  1       -2 0.28555666E-01 0.31185254E+03</pdfrwt>
<totfact> 0.30547843E+02</totfact>
</mgrwt>
</event>
<event>
 4    1  0.4639964E-008  0.7580665E+03  0.7818608E-02  0.9622780E-01
         -2   -1    0    0    0  501 -0.00000000000E+00  0.00000000000E+00  0.60493191156E+03  0.60493191156E+03  0.25500000000E-02 0.  1.
          2   -1    0    0  501    0  0.00000000000E+00 -0.00000000000E+00 -0.11018738438E+04  0.11018738438E+04  0.25500000000E-02 0. -1.
    8880022    1    1    2    0    0 -0.94983818386E+01  0.74241700143E+03  0.68396727857E+02  0.76114583929E+03  0.15294330000E+03 0.  0.
    8880022    1    1    2    0    0  0.94983818386E+01 -0.74241700143E+03 -0.56533866013E+03  0.94565991610E+03  0.15294330000E+03 0.  0.
<mgrwt>
<rscale>  0 0.75806654E+03</rscale>
<asrwt>0</asrwt>
<pdfrwt beam="1">  1        2 0.16951905E+00 0.75806654E+03</pdfrwt>
<pdfrwt beam="2">  1       -2 0.93066448E-01 0.75806654E+03</pdfrwt>
<totfact> 0.21603705E+01</totfact>
</mgrwt>
</event>
<event>
 4    1  0.4639964E-008  0.1535476E+03  0.7818608E-02  0.1196180E+00
          2   -1    0    0  501    0  0.00000000000E+00  0.00000000000E+00  0.15091631442E+04  0.15091631442E+04  0.25500000000E-02 0. -1.
         -2   -1    0    0    0  501 -0.00000000000E+00 -0.00000000000E+00 -0.16480580225E+02  0.16480580422E+02  0.25500000000E-02 0.  1.
    8880022    1    1    2    0    0  0.79675693647E+01  0.11033164787E+02  0.57227815725E+03  0.59251932894E+03  0.15294330000E+03 0.  0.
    8880022    1    1    2    0    0 -0.79675693647E+01 -0.11033164787E+02  0.92040440673E+03  0.93312439569E+03  0.15294330000E+03 0. -1.
<mgrwt>
<rscale>  0 0.15354760E+03</rscale>
<asrwt>0</asrwt>
<pdfrwt beam="1">  1        2 0.23217896E+00 0.15354760E+03</pdfrwt>
<pdfrwt beam="2">  1       -2 0.25354737E-02 0.15354760E+03</pdfrwt>
<totfact> 0.72261254E+03</totfact>
</mgrwt>
</event>
<event>
 4    1  0.4639964E-008  0.3598840E+03  0.7818608E-02  0.1058630E+00
         -2   -1    0    0    0  501 -0.00000000000E+00  0.00000000000E+00  0.74086692725E+02  0.74086692768E+02  0.25500000000E-02 0.  1.
          2   -1    0    0  501    0  0.00000000000E+00 -0.00000000000E+00 -0.29364024107E+04  0.29364024107E+04  0.25500000000E-02 0. -1.
    8880022    1    1    2    0    0 -0.57522600992E+02 -0.32064937462E+03 -0.23886804122E+04  0.24156387635E+04  0.15294330000E+03 0.  0.
    8880022    1    1    2    0    0  0.57522600992E+02  0.32064937462E+03 -0.47363530575E+03  0.59485033995E+03  0.15294330000E+03 0.  0.
<mgrwt>
<rscale>  0 0.35988404E+03</rscale>
<asrwt>0</asrwt>
<pdfrwt beam="1">  1        2 0.45175413E+00 0.35988404E+03</pdfrwt>
<pdfrwt beam="2">  1       -2 0.11397955E-01 0.35988404E+03</pdfrwt>
<totfact> 0.11921410E+02</totfact>
</mgrwt>
</event>
<event>
 4    1  0.4639964E-008  0.3419930E+03  0.7818608E-02  0.1065950E+00
          2   -1    0    0  501    0  0.00000000000E+00  0.00000000000E+00  0.25618117994E+04  0.25618117994E+04  0.25500000000E-02 0. -1.
         -2   -1    0    0    0  501 -0.00000000000E+00 -0.00000000000E+00 -0.93528581738E+03  0.93528581738E+03  0.25500000000E-02 0.  1.
    8880022    1    1    2    0    0 -0.28528987714E+03  0.11035044139E+03 -0.89207523092E+03  0.95538338092E+03  0.15294330000E+03 0.  0.
    8880022    1    1    2    0    0  0.28528987714E+03 -0.11035044139E+03  0.25186012129E+04  0.25417142358E+04  0.15294330000E+03 0.  0.
<mgrwt>
<rscale>  0 0.34199296E+03</rscale>
<asrwt>0</asrwt>
<pdfrwt beam="1">  1        2 0.39412490E+00 0.34199296E+03</pdfrwt>
<pdfrwt beam="2">  1       -2 0.14389012E+00 0.34199296E+03</pdfrwt>
<totfact> 0.12836712E+00</totfact>
</mgrwt>
</event>
<event>
 4    1  0.4639964E-008  0.6089190E+03  0.7818608E-02  0.9887073E-01
         -2   -1    0    0    0  501 -0.00000000000E+00  0.00000000000E+00  0.13841655654E+03  0.13841655657E+03  0.25500000000E-02 0.  1.
          2   -1    0    0  501    0  0.00000000000E+00 -0.00000000000E+00 -0.29803067335E+04  0.29803067335E+04  0.25500000000E-02 0. -1.
    8880022    1    1    2    0    0  0.58909459470E+03 -0.18926019874E+02 -0.19169733331E+04  0.20113599997E+04  0.15294330000E+03 0.  0.
    8880022    1    1    2    0    0 -0.58909459470E+03  0.18926019874E+02 -0.92491684393E+03  0.11073632904E+04  0.15294330000E+03 0.  0.
<mgrwt>
<rscale>  0 0.60891895E+03</rscale>
<asrwt>0</asrwt>
<pdfrwt beam="1">  1        2 0.45850868E+00 0.60891895E+03</pdfrwt>
<pdfrwt beam="2">  1       -2 0.21294857E-01 0.60891895E+03</pdfrwt>
<totfact> 0.37006308E+01</totfact>
</mgrwt>
</event>
<event>
 4    1  0.4639964E-008  0.8430148E+03  0.7818608E-02  0.9499761E-01
          2   -1    0    0  501    0  0.00000000000E+00  0.00000000000E+00  0.10018515490E+04  0.10018515490E+04  0.25500000000E-02 0. -1.
         -2   -1    0    0    0  501 -0.00000000000E+00 -0.00000000000E+00 -0.92650694334E+03  0.92650694334E+03  0.25500000000E-02 0.  1.
    8880022    1    1    2    0    0 -0.75137096552E+03  0.35031973648E+03  0.50444969923E+03  0.98241712000E+03  0.15294330000E+03 0.  0.
    8880022    1    1    2    0    0  0.75137096552E+03 -0.35031973648E+03 -0.42910509356E+03  0.94594137236E+03  0.15294330000E+03 0.  0.
<mgrwt>
<rscale>  0 0.84301477E+03</rscale>
<asrwt>0</asrwt>
<pdfrwt beam="1">  1        2 0.15413101E+00 0.84301477E+03</pdfrwt>
<pdfrwt beam="2">  1       -2 0.14253953E+00 0.84301477E+03</pdfrwt>
<totfact> 0.86698471E+00</totfact>
</mgrwt>
</event>
<event>
 4    1  0.4639964E-008  0.6450770E+03  0.7818608E-02  0.9816061E-01
          2   -1    0    0  501    0  0.00000000000E+00  0.00000000000E+00  0.21284907424E+04  0.21284907424E+04  0.25500000000E-02 0. -1.
         -2   -1    0    0    0  501 -0.00000000000E+00 -0.00000000000E+00 -0.49247053676E+03  0.49247053677E+03  0.25500000000E-02 0.  1.
    8880022    1    1    2    0    0  0.56332852140E+03  0.27457896307E+03 -0.19963342038E+03  0.67526127205E+03  0.15294330000E+03 0.  0.
    8880022    1    1    2    0    0 -0.56332852140E+03 -0.27457896307E+03  0.18356536260E+04  0.19457000071E+04  0.15294330000E+03 0.  0.
<mgrwt>
<rscale>  0 0.64507696E+03</rscale>
<asrwt>0</asrwt>
<pdfrwt beam="1">  1        2 0.32746012E+00 0.64507696E+03</pdfrwt>
<pdfrwt beam="2">  1       -2 0.75764697E-01 0.64507696E+03</pdfrwt>
<totfact> 0.93505240E+00</totfact>
</mgrwt>
</event>
<event>
 4    1  0.4639964E-008  0.5219872E+03  0.7818608E-02  0.1008194E+00
          2   -1    0    0  501    0  0.00000000000E+00  0.00000000000E+00  0.16513521559E+04  0.16513521559E+04  0.25500000000E-02 0. -1.
         -2   -1    0    0    0  501 -0.00000000000E+00 -0.00000000000E+00 -0.32489997040E+03  0.32489997041E+03  0.25500000000E-02 0.  1.
    8880022    1    1    2    0    0  0.27884779394E+03 -0.41391174574E+03 -0.29982131304E+02  0.52284759410E+03  0.15294330000E+03 0.  0.
    8880022    1    1    2    0    0 -0.27884779394E+03  0.41391174574E+03  0.13564343168E+04  0.14534045322E+04  0.15294330000E+03 0.  0.
<mgrwt>
<rscale>  0 0.52198724E+03</rscale>
<asrwt>0</asrwt>
<pdfrwt beam="1">  1        2 0.25405418E+00 0.52198724E+03</pdfrwt>
<pdfrwt beam="2">  1       -2 0.49984611E-01 0.52198724E+03</pdfrwt>
<totfact> 0.41787731E+01</totfact>
</mgrwt>
</event>
<event>
 4    1  0.4639964E-008  0.6655559E+03  0.7818608E-02  0.9778020E-01
          2   -1    0    0  501    0  0.00000000000E+00  0.00000000000E+00  0.82119695779E+03  0.82119695779E+03  0.25500000000E-02 0. -1.
         -2   -1    0    0    0  501 -0.00000000000E+00 -0.00000000000E+00 -0.73346741071E+03  0.73346741071E+03  0.25500000000E-02 0.  1.
    8880022    1    1    2    0    0  0.48012094518E+03  0.43480671520E+03  0.44369675961E+03  0.79989466125E+03  0.15294330000E+03 0.  0.
    8880022    1    1    2    0    0 -0.48012094518E+03 -0.43480671520E+03 -0.35596721253E+03  0.75476970726E+03  0.15294330000E+03 0.  0.
<mgrwt>
<rscale>  0 0.66555590E+03</rscale>
<asrwt>0</asrwt>
<pdfrwt beam="1">  1        2 0.12633799E+00 0.66555590E+03</pdfrwt>
<pdfrwt beam="2">  1       -2 0.11284114E+00 0.66555590E+03</pdfrwt>
<totfact> 0.21024273E+01</totfact>
</mgrwt>
</event>
<event>
 4    1  0.4639964E-008  0.3995699E+03  0.7818608E-02  0.1043929E+00
          2   -1    0    0  501    0  0.00000000000E+00  0.00000000000E+00  0.15354184548E+04  0.15354184548E+04  0.25500000000E-02 0. -1.
         -2   -1    0    0    0  501 -0.00000000000E+00 -0.00000000000E+00 -0.16175124241E+03  0.16175124243E+03  0.25500000000E-02 0.  1.
    8880022    1    1    2    0    0 -0.34304426396E+03  0.13632724155E+03  0.17970375832E+03  0.43812050579E+03  0.15294330000E+03 0.  0.
    8880022    1    1    2    0    0  0.34304426396E+03 -0.13632724155E+03  0.11939634541E+04  0.12590491915E+04  0.15294330000E+03 0.  0.
<mgrwt>
<rscale>  0 0.39956994E+03</rscale>
<asrwt>0</asrwt>
<pdfrwt beam="1">  1        2 0.23621822E+00 0.39956994E+03</pdfrwt>
<pdfrwt beam="2">  1       -2 0.24884807E-01 0.39956994E+03</pdfrwt>
<totfact> 0.18469805E+02</totfact>
</mgrwt>
</event>
<event>
 4    1  0.4639964E-008  0.5401876E+03  0.7818608E-02  0.1003791E+00
         -2   -1    0    0    0  501 -0.00000000000E+00  0.00000000000E+00  0.34264868103E+03  0.34264868104E+03  0.25500000000E-02 0.  1.
          2   -1    0    0  501    0  0.00000000000E+00 -0.00000000000E+00 -0.27710281256E+04  0.27710281256E+04  0.25500000000E-02 0. -1.
    8880022    1    1    2    0    0  0.51744051866E+03  0.25813548865E+02  0.81520795073E+02  0.54630424005E+03  0.15294330000E+03 0.  0.
    8880022    1    1    2    0    0 -0.51744051866E+03 -0.25813548865E+02 -0.25099002396E+04  0.25673725666E+04  0.15294330000E+03 0.  0.
<mgrwt>
<rscale>  0 0.54018764E+03</rscale>
<asrwt>0</asrwt>
<pdfrwt beam="1">  1        2 0.42631200E+00 0.54018764E+03</pdfrwt>
<pdfrwt beam="2">  1       -2 0.52715184E-01 0.54018764E+03</pdfrwt>
<totfact> 0.90260869E+00</totfact>
</mgrwt>
</event>
<event>
 4    1  0.4639964E-008  0.3943425E+03  0.7818608E-02  0.1045756E+00
         -2   -1    0    0    0  501 -0.00000000000E+00  0.00000000000E+00  0.13245593434E+04  0.13245593434E+04  0.25500000000E-02 0.  1.
          2   -1    0    0  501    0  0.00000000000E+00 -0.00000000000E+00 -0.39022100220E+03  0.39022100221E+03  0.25500000000E-02 0. -1.
    8880022    1    1    2    0    0 -0.36342306371E+03 -0.61659954480E+01 -0.24973390184E+03  0.46676869805E+03  0.15294330000E+03 0.  0.
    8880022    1    1    2    0    0  0.36342306371E+03  0.61659954480E+01  0.11840722431E+04  0.12480116476E+04  0.15294330000E+03 0.  0.
<mgrwt>
<rscale>  0 0.39434249E+03</rscale>
<asrwt>0</asrwt>
<pdfrwt beam="1">  1        2 0.60034001E-01 0.39434249E+03</pdfrwt>
<pdfrwt beam="2">  1       -2 0.20377836E+00 0.39434249E+03</pdfrwt>
<totfact> 0.10998022E+01</totfact>
</mgrwt>
</event>
<event>
 4    1  0.4639964E-008  0.2724695E+03  0.7818608E-02  0.1099874E+00
         -2   -1    0    0    0  501 -0.00000000000E+00  0.00000000000E+00  0.31759780583E+03  0.31759780584E+03  0.25500000000E-02 0.  1.
          2   -1    0    0  501    0  0.00000000000E+00 -0.00000000000E+00 -0.53442353969E+03  0.53442353969E+03  0.25500000000E-02 0. -1.
    8880022    1    1    2    0    0  0.13065852114E+03 -0.18378341312E+03 -0.42795097678E+03  0.50732798427E+03  0.15294330000E+03 0.  0.
    8880022    1    1    2    0    0 -0.13065852114E+03  0.18378341312E+03  0.21112524292E+03  0.34469336126E+03  0.15294330000E+03 0.  1.
<mgrwt>
<rscale>  0 0.27246953E+03</rscale>
<asrwt>0</asrwt>
<pdfrwt beam="1">  1        2 0.82219006E-01 0.27246953E+03</pdfrwt>
<pdfrwt beam="2">  1       -2 0.48861201E-01 0.27246953E+03</pdfrwt>
<totfact> 0.23413855E+02</totfact>
</mgrwt>
</event>
<event>
 4    1  0.4639964E-008  0.6754671E+03  0.7818608E-02  0.9760132E-01
          2   -1    0    0  501    0  0.00000000000E+00  0.00000000000E+00  0.40563773271E+03  0.40563773272E+03  0.25500000000E-02 0. -1.
         -2   -1    0    0    0  501 -0.00000000000E+00 -0.00000000000E+00 -0.18256279402E+04  0.18256279402E+04  0.25500000000E-02 0.  1.
    8880022    1    1    2    0    0  0.55268064055E+03  0.35694298657E+03 -0.18761181111E+02  0.67572762341E+03  0.15294330000E+03 0. -1.
    8880022    1    1    2    0    0 -0.55268064055E+03 -0.35694298657E+03 -0.14012290264E+04  0.15555380496E+04  0.15294330000E+03 0.  0.
<mgrwt>
<rscale>  0 0.67546713E+03</rscale>
<asrwt>0</asrwt>
<pdfrwt beam="1">  1        2 0.62405806E-01 0.67546713E+03</pdfrwt>
<pdfrwt beam="2">  1       -2 0.28086583E+00 0.67546713E+03</pdfrwt>
<totfact> 0.34102553E+00</totfact>
</mgrwt>
</event>
<event>
 4    1  0.4639964E-008  0.3234370E+03  0.7818608E-02  0.1074078E+00
          2   -1    0    0  501    0  0.00000000000E+00  0.00000000000E+00  0.29534653382E+04  0.29534653382E+04  0.25500000000E-02 0. -1.
         -2   -1    0    0    0  501 -0.00000000000E+00 -0.00000000000E+00 -0.93774708063E+02  0.93774708097E+02  0.25500000000E-02 0.  1.
    8880022    1    1    2    0    0  0.19805559592E+03  0.20492386944E+03  0.22793486385E+03  0.39568392248E+03  0.15294330000E+03 0.  1.
    8880022    1    1    2    0    0 -0.19805559592E+03 -0.20492386944E+03  0.26317557663E+04  0.26515561238E+04  0.15294330000E+03 0.  0.
<mgrwt>
<rscale>  0 0.32343696E+03</rscale>
<asrwt>0</asrwt>
<pdfrwt beam="1">  1        2 0.45437926E+00 0.32343696E+03</pdfrwt>
<pdfrwt beam="2">  1       -2 0.14426879E-01 0.32343696E+03</pdfrwt>
<totfact> 0.79972136E+01</totfact>
</mgrwt>
</event>
<event>
 4    1  0.4639964E-008  0.9713364E+03  0.7818608E-02  0.9340553E-01
          2   -1    0    0  501    0  0.00000000000E+00  0.00000000000E+00  0.22532687755E+04  0.22532687755E+04  0.25500000000E-02 0. -1.
         -2   -1    0    0    0  501 -0.00000000000E+00 -0.00000000000E+00 -0.70850551553E+03  0.70850551553E+03  0.25500000000E-02 0.  1.
    8880022    1    1    2    0    0  0.76859828950E+03  0.57389848072E+03  0.17194618603E+04  0.19748527892E+04  0.15294330000E+03 0.  0.
    8880022    1    1    2    0    0 -0.76859828950E+03 -0.57389848072E+03 -0.17469860038E+03  0.98692150183E+03  0.15294330000E+03 0.  0.
<mgrwt>
<rscale>  0 0.97133642E+03</rscale>
<asrwt>0</asrwt>
<pdfrwt beam="1">  1        2 0.34665673E+00 0.97133642E+03</pdfrwt>
<pdfrwt beam="2">  1       -2 0.10900085E+00 0.97133642E+03</pdfrwt>
<totfact> 0.32608289E+00</totfact>
</mgrwt>
</event>
<event>
 4    1  0.4639964E-008  0.2942631E+03  0.7818608E-02  0.1088144E+00
          2   -1    0    0  501    0  0.00000000000E+00  0.00000000000E+00  0.16278132883E+03  0.16278132885E+03  0.25500000000E-02 0. -1.
         -2   -1    0    0    0  501 -0.00000000000E+00 -0.00000000000E+00 -0.12146180903E+04  0.12146180903E+04  0.25500000000E-02 0.  1.
    8880022    1    1    2    0    0  0.16214433529E+03  0.19211540175E+03 -0.10422352534E+04  0.10829797272E+04  0.15294330000E+03 0.  0.
    8880022    1    1    2    0    0 -0.16214433529E+03 -0.19211540175E+03 -0.96015080967E+01  0.29441969199E+03  0.15294330000E+03 0. -1.
<mgrwt>
<rscale>  0 0.29426309E+03</rscale>
<asrwt>0</asrwt>
<pdfrwt beam="1">  1        2 0.25043282E-01 0.29426309E+03</pdfrwt>
<pdfrwt beam="2">  1       -2 0.18686432E+00 0.29426309E+03</pdfrwt>
<totfact> 0.37686841E+01</totfact>
</mgrwt>
</event>
<event>
 4    1  0.4639964E-008  0.2621574E+03  0.7818608E-02  0.1105854E+00
         -2   -1    0    0    0  501 -0.00000000000E+00  0.00000000000E+00  0.10543351091E+03  0.10543351094E+03  0.25500000000E-02 0.  1.
          2   -1    0    0  501    0  0.00000000000E+00 -0.00000000000E+00 -0.14263622573E+04  0.14263622573E+04  0.25500000000E-02 0. -1.
    8880022    1    1    2    0    0 -0.15993305307E+03 -0.14055696609E+03 -0.12248435728E+04  0.12525846371E+04  0.15294330000E+03 0.  0.
    8880022    1    1    2    0    0  0.15993305307E+03  0.14055696609E+03 -0.96085173621E+02  0.27921113120E+03  0.15294330000E+03 0.  0.
<mgrwt>
<rscale>  0 0.26215739E+03</rscale>
<asrwt>0</asrwt>
<pdfrwt beam="1">  1        2 0.21944033E+00 0.26215739E+03</pdfrwt>
<pdfrwt beam="2">  1       -2 0.16220541E-01 0.26215739E+03</pdfrwt>
<totfact> 0.45185207E+02</totfact>
</mgrwt>
</event>
<event>
 4    1  0.4639964E-008  0.3791319E+03  0.7818608E-02  0.1051255E+00
         -2   -1    0    0    0  501 -0.00000000000E+00  0.00000000000E+00  0.10858031324E+03  0.10858031327E+03  0.25500000000E-02 0.  1.
          2   -1    0    0  501    0  0.00000000000E+00 -0.00000000000E+00 -0.16651688452E+04  0.16651688452E+04  0.25500000000E-02 0. -1.
    8880022    1    1    2    0    0 -0.31171305661E+03  0.15226384697E+03 -0.37675198404E+03  0.53449323592E+03  0.15294330000E+03 0.  0.
    8880022    1    1    2    0    0  0.31171305661E+03 -0.15226384697E+03 -0.11798365479E+04  0.12392559225E+04  0.15294330000E+03 0.  0.
<mgrwt>
<rscale>  0 0.37913185E+03</rscale>
<asrwt>0</asrwt>
<pdfrwt beam="1">  1        2 0.25617980E+00 0.37913185E+03</pdfrwt>
<pdfrwt beam="2">  1       -2 0.16704665E-01 0.37913185E+03</pdfrwt>
<totfact> 0.31488454E+02</totfact>
</mgrwt>
</event>
<event>
 4    1  0.4639964E-008  0.2878997E+03  0.7818608E-02  0.1091451E+00
         -2   -1    0    0    0  501 -0.00000000000E+00  0.00000000000E+00  0.13662201798E+03  0.13662201801E+03  0.25500000000E-02 0.  1.
          2   -1    0    0  501    0  0.00000000000E+00 -0.00000000000E+00 -0.94733396499E+03  0.94733396499E+03  0.25500000000E-02 0. -1.
    8880022    1    1    2    0    0 -0.10381149744E+03  0.22072103131E+03 -0.73035713896E+03  0.78505273970E+03  0.15294330000E+03 0.  0.
    8880022    1    1    2    0    0  0.10381149744E+03 -0.22072103131E+03 -0.80354808043E+02  0.29890324330E+03  0.15294330000E+03 0.  0.
<mgrwt>
<rscale>  0 0.28789973E+03</rscale>
<asrwt>0</asrwt>
<pdfrwt beam="1">  1        2 0.14574368E+00 0.28789973E+03</pdfrwt>
<pdfrwt beam="2">  1       -2 0.21018773E-01 0.28789973E+03</pdfrwt>
<totfact> 0.54824087E+02</totfact>
</mgrwt>
</event>
<event>
 4    1  0.4639964E-008  0.5097435E+03  0.7818608E-02  0.1011267E+00
          2   -1    0    0  501    0  0.00000000000E+00  0.00000000000E+00  0.21452123874E+04  0.21452123874E+04  0.25500000000E-02 0. -1.
         -2   -1    0    0    0  501 -0.00000000000E+00 -0.00000000000E+00 -0.44521114237E+03  0.44521114238E+03  0.25500000000E-02 0.  1.
    8880022    1    1    2    0    0  0.13090732367E+03 -0.46830552958E+03 -0.25506514103E+03  0.56999708387E+03  0.15294330000E+03 0.  0.
    8880022    1    1    2    0    0 -0.13090732367E+03  0.46830552958E+03  0.19550663861E+04  0.20204264459E+04  0.15294330000E+03 0.  0.
<mgrwt>
<rscale>  0 0.50974351E+03</rscale>
<asrwt>0</asrwt>
<pdfrwt beam="1">  1        2 0.33003268E+00 0.50974351E+03</pdfrwt>
<pdfrwt beam="2">  1       -2 0.68494020E-01 0.50974351E+03</pdfrwt>
<totfact> 0.11740655E+01</totfact>
</mgrwt>
</event>
<event>
 4    1  0.4639964E-008  0.3874179E+03  0.7818608E-02  0.1048226E+00
          2   -1    0    0  501    0  0.00000000000E+00  0.00000000000E+00  0.31688355131E+04  0.31688355131E+04  0.25500000000E-02 0. -1.
         -2   -1    0    0    0  501 -0.00000000000E+00 -0.00000000000E+00 -0.12478816024E+03  0.12478816027E+03  0.25500000000E-02 0.  1.
    8880022    1    1    2    0    0  0.18119366762E+01  0.35594614527E+03  0.22486795316E+03  0.44794887077E+03  0.15294330000E+03 0.  1.
    8880022    1    1    2    0    0 -0.18119366762E+01 -0.35594614527E+03  0.28191793997E+04  0.28456748026E+04  0.15294330000E+03 0.  0.
<mgrwt>
<rscale>  0 0.38741786E+03</rscale>
<asrwt>0</asrwt>
<pdfrwt beam="1">  1        2 0.48751310E+00 0.38741786E+03</pdfrwt>
<pdfrwt beam="2">  1       -2 0.19198181E-01 0.38741786E+03</pdfrwt>
<totfact> 0.35832770E+01</totfact>
</mgrwt>
</event>
<event>
 4    1  0.4639964E-008  0.6926147E+03  0.7818608E-02  0.9729946E-01
         -2   -1    0    0    0  501 -0.00000000000E+00  0.00000000000E+00  0.30878627945E+03  0.30878627946E+03  0.25500000000E-02 0.  1.
          2   -1    0    0  501    0  0.00000000000E+00 -0.00000000000E+00 -0.28170881556E+04  0.28170881556E+04  0.25500000000E-02 0. -1.
    8880022    1    1    2    0    0 -0.29052933923E+03 -0.60984931389E+03 -0.20741923745E+03  0.72300613807E+03  0.15294330000E+03 0.  1.
    8880022    1    1    2    0    0  0.29052933923E+03  0.60984931389E+03 -0.23008826387E+04  0.24028682970E+04  0.15294330000E+03 0.  0.
<mgrwt>
<rscale>  0 0.69261471E+03</rscale>
<asrwt>0</asrwt>
<pdfrwt beam="1">  1        2 0.43339816E+00 0.69261471E+03</pdfrwt>
<pdfrwt beam="2">  1       -2 0.47505583E-01 0.69261471E+03</pdfrwt>
<totfact> 0.10133839E+01</totfact>
</mgrwt>
</event>
<event>
 4    1  0.4639964E-008  0.3274780E+03  0.7818608E-02  0.1072258E+00
         -2   -1    0    0    0  501 -0.00000000000E+00  0.00000000000E+00  0.89247336572E+02  0.89247336608E+02  0.25500000000E-02 0.  1.
          2   -1    0    0  501    0  0.00000000000E+00 -0.00000000000E+00 -0.30487763150E+04  0.30487763150E+04  0.25500000000E-02 0. -1.
    8880022    1    1    2    0    0  0.31915712230E+01 -0.28955139144E+03 -0.25848616013E+03  0.41720132119E+03  0.15294330000E+03 0.  0.
    8880022    1    1    2    0    0 -0.31915712230E+01  0.28955139144E+03 -0.27010428183E+04  0.27208223304E+04  0.15294330000E+03 0.  0.
<mgrwt>
<rscale>  0 0.32747801E+03</rscale>
<asrwt>0</asrwt>
<pdfrwt beam="1">  1        2 0.46904243E+00 0.32747801E+03</pdfrwt>
<pdfrwt beam="2">  1       -2 0.13730362E-01 0.32747801E+03</pdfrwt>
<totfact> 0.76043291E+01</totfact>
</mgrwt>
</event>
<event>
 4    1  0.4639964E-008  0.2919385E+03  0.7818608E-02  0.1089341E+00
         -2   -1    0    0    0  501 -0.00000000000E+00  0.00000000000E+00  0.13342765134E+03  0.13342765136E+03  0.25500000000E-02 0.  1.
          2   -1    0    0  501    0  0.00000000000E+00 -0.00000000000E+00 -0.85310585135E+03  0.85310585135E+03  0.25500000000E-02 0. -1.
    8880022    1    1    2    0    0 -0.14312873862E+03  0.20334845943E+03 -0.60709072353E+03  0.67363731443E+03  0.15294330000E+03 0. -1.
    8880022    1    1    2    0    0  0.14312873862E+03 -0.20334845943E+03 -0.11258747647E+03  0.31289618829E+03  0.15294330000E+03 0.  0.
<mgrwt>
<rscale>  0 0.29193849E+03</rscale>
<asrwt>0</asrwt>
<pdfrwt beam="1">  1        2 0.13124705E+00 0.29193849E+03</pdfrwt>
<pdfrwt beam="2">  1       -2 0.20527332E-01 0.29193849E+03</pdfrwt>
<totfact> 0.65757407E+02</totfact>
</mgrwt>
</event>
<event>
 4    1  0.4639964E-008  0.6913989E+03  0.7818608E-02  0.9732055E-01
          2   -1    0    0  501    0  0.00000000000E+00  0.00000000000E+00  0.70087798375E+03  0.70087798375E+03  0.25500000000E-02 0. -1.
         -2   -1    0    0    0  501 -0.00000000000E+00 -0.00000000000E+00 -0.14382289548E+04  0.14382289548E+04  0.25500000000E-02 0.  1.
    8880022    1    1    2    0    0 -0.28191518921E+03 -0.61250685128E+03 -0.11442103686E+04  0.13368806369E+04  0.15294330000E+03 0.  0.
    8880022    1    1    2    0    0  0.28191518921E+03  0.61250685128E+03  0.40685939749E+03  0.80222630168E+03  0.15294330000E+03 0.  0.
<mgrwt>
<rscale>  0 0.69139892E+03</rscale>
<asrwt>0</asrwt>
<pdfrwt beam="1">  1        2 0.10782738E+00 0.69139892E+03</pdfrwt>
<pdfrwt beam="2">  1       -2 0.22126599E+00 0.69139892E+03</pdfrwt>
<totfact> 0.41014022E+00</totfact>
</mgrwt>
</event>
<event>
 4    1  0.4639964E-008  0.5652202E+03  0.7818608E-02  0.9980312E-01
         -2   -1    0    0    0  501 -0.00000000000E+00  0.00000000000E+00  0.15820008437E+03  0.15820008439E+03  0.25500000000E-02 0.  1.
          2   -1    0    0  501    0  0.00000000000E+00 -0.00000000000E+00 -0.23917534637E+04  0.23917534637E+04  0.25500000000E-02 0. -1.
    8880022    1    1    2    0    0 -0.15922635014E+03 -0.52031639141E+03 -0.16198194247E+04  0.17156015852E+04  0.15294330000E+03 0.  0.
    8880022    1    1    2    0    0  0.15922635014E+03  0.52031639141E+03 -0.61373395461E+03  0.83435196279E+03  0.15294330000E+03 0.  0.
<mgrwt>
<rscale>  0 0.56522016E+03</rscale>
<asrwt>0</asrwt>
<pdfrwt beam="1">  1        2 0.36796205E+00 0.56522016E+03</pdfrwt>
<pdfrwt beam="2">  1       -2 0.24338476E-01 0.56522016E+03</pdfrwt>
<totfact> 0.64408699E+01</totfact>
</mgrwt>
</event>
<event>
 4    1  0.4639964E-008  0.5320831E+03  0.7818608E-02  0.1005728E+00
          2   -1    0    0  501    0  0.00000000000E+00  0.00000000000E+00  0.15986568225E+04  0.15986568225E+04  0.25500000000E-02 0. -1.
         -2   -1    0    0    0  501 -0.00000000000E+00 -0.00000000000E+00 -0.23553268808E+03  0.23553268810E+03  0.25500000000E-02 0.  1.
    8880022    1    1    2    0    0  0.50224017154E+03  0.86461515636E+02  0.11383757088E+04  0.12565873193E+04  0.15294330000E+03 0.  0.
    8880022    1    1    2    0    0 -0.50224017154E+03 -0.86461515636E+02  0.22474842565E+03  0.57760219134E+03  0.15294330000E+03 0.  0.
<mgrwt>
<rscale>  0 0.53208311E+03</rscale>
<asrwt>0</asrwt>
<pdfrwt beam="1">  1        2 0.24594721E+00 0.53208311E+03</pdfrwt>
<pdfrwt beam="2">  1       -2 0.36235797E-01 0.53208311E+03</pdfrwt>
<totfact> 0.83797609E+01</totfact>
</mgrwt>
</event>
<event>
 4    1  0.4639964E-008  0.1997810E+03  0.7818608E-02  0.1149924E+00
         -2   -1    0    0    0  501 -0.00000000000E+00  0.00000000000E+00  0.16148149699E+03  0.16148149701E+03  0.25500000000E-02 0.  1.
          2   -1    0    0  501    0  0.00000000000E+00 -0.00000000000E+00 -0.28845304581E+03  0.28845304582E+03  0.25500000000E-02 0. -1.
    8880022    1    1    2    0    0 -0.12517724712E+03  0.29179527823E+02 -0.14859924055E+03  0.24898629550E+03  0.15294330000E+03 0.  0.
    8880022    1    1    2    0    0  0.12517724712E+03 -0.29179527823E+02  0.21627691725E+02  0.20094824733E+03  0.15294330000E+03 0.  0.
<mgrwt>
<rscale>  0 0.19978098E+03</rscale>
<asrwt>0</asrwt>
<pdfrwt beam="1">  1        2 0.44377392E-01 0.19978098E+03</pdfrwt>
<pdfrwt beam="2">  1       -2 0.24843307E-01 0.19978098E+03</pdfrwt>
<totfact> 0.16264185E+03</totfact>
</mgrwt>
</event>
<event>
 4    1  0.4639964E-008  0.3149058E+03  0.7818608E-02  0.1078018E+00
         -2   -1    0    0    0  501 -0.00000000000E+00  0.00000000000E+00  0.15666430635E+03  0.15666430637E+03  0.25500000000E-02 0.  1.
          2   -1    0    0  501    0  0.00000000000E+00 -0.00000000000E+00 -0.10283420059E+04  0.10283420059E+04  0.25500000000E-02 0. -1.
    8880022    1    1    2    0    0 -0.23574197602E+03  0.14212575044E+03 -0.68456460728E+02  0.32226068365E+03  0.15294330000E+03 0.  0.
    8880022    1    1    2    0    0  0.23574197602E+03 -0.14212575044E+03 -0.80322123886E+03  0.86274562866E+03  0.15294330000E+03 0.  0.
<mgrwt>
<rscale>  0 0.31490580E+03</rscale>
<asrwt>0</asrwt>
<pdfrwt beam="1">  1        2 0.15820646E+00 0.31490580E+03</pdfrwt>
<pdfrwt beam="2">  1       -2 0.24102202E-01 0.31490580E+03</pdfrwt>
<totfact> 0.38340760E+02</totfact>
</mgrwt>
</event>
<event>
 4    1  0.4639964E-008  0.1887034E+03  0.7818608E-02  0.1159636E+00
          2   -1    0    0  501    0  0.00000000000E+00  0.00000000000E+00  0.12982956360E+04  0.12982956360E+04  0.25500000000E-02 0. -1.
         -2   -1    0    0    0  501 -0.00000000000E+00 -0.00000000000E+00 -0.61954415424E+02  0.61954415476E+02  0.25500000000E-02 0.  1.
    8880022    1    1    2    0    0  0.85017586961E+02  0.70635134262E+02  0.11258992943E+04  0.11416033401E+04  0.15294330000E+03 0.  0.
    8880022    1    1    2    0    0 -0.85017586961E+02 -0.70635134262E+02  0.11044192627E+03  0.21864671133E+03  0.15294330000E+03 0.  0.
<mgrwt>
<rscale>  0 0.18870338E+03</rscale>
<asrwt>0</asrwt>
<pdfrwt beam="1">  1        2 0.19973779E+00 0.18870338E+03</pdfrwt>
<pdfrwt beam="2">  1       -2 0.95314486E-02 0.18870338E+03</pdfrwt>
<totfact> 0.12660526E+03</totfact>
</mgrwt>
</event>
<event>
 4    1  0.4639964E-008  0.4060300E+03  0.7818608E-02  0.1041711E+00
         -2   -1    0    0    0  501 -0.00000000000E+00  0.00000000000E+00  0.83206149894E+03  0.83206149894E+03  0.25500000000E-02 0.  1.
          2   -1    0    0  501    0  0.00000000000E+00 -0.00000000000E+00 -0.43246953384E+03  0.43246953385E+03  0.25500000000E-02 0. -1.
    8880022    1    1    2    0    0 -0.37585110235E+03  0.14304817168E+02  0.66521066248E+03  0.77933661368E+03  0.15294330000E+03 0.  0.
    8880022    1    1    2    0    0  0.37585110235E+03 -0.14304817168E+02 -0.26561869738E+03  0.48519441912E+03  0.15294330000E+03 0.  0.
<mgrwt>
<rscale>  0 0.40602996E+03</rscale>
<asrwt>0</asrwt>
<pdfrwt beam="1">  1        2 0.66533775E-01 0.40602996E+03</pdfrwt>
<pdfrwt beam="2">  1       -2 0.12800946E+00 0.40602996E+03</pdfrwt>
<totfact> 0.34376700E+01</totfact>
</mgrwt>
</event>
<event>
 4    1  0.4639964E-008  0.6255277E+03  0.7818608E-02  0.9853815E-01
         -2   -1    0    0    0  501 -0.00000000000E+00  0.00000000000E+00  0.46784723840E+03  0.46784723841E+03  0.25500000000E-02 0.  1.
          2   -1    0    0  501    0  0.00000000000E+00 -0.00000000000E+00 -0.11032192592E+04  0.11032192592E+04  0.25500000000E-02 0. -1.
    8880022    1    1    2    0    0  0.58501737228E+03 -0.16014959817E+03 -0.70403650938E+03  0.94178143920E+03  0.15294330000E+03 0.  0.
    8880022    1    1    2    0    0 -0.58501737228E+03  0.16014959817E+03  0.68664488629E+02  0.62928505837E+03  0.15294330000E+03 0.  1.
<mgrwt>
<rscale>  0 0.62552768E+03</rscale>
<asrwt>0</asrwt>
<pdfrwt beam="1">  1        2 0.16972604E+00 0.62552768E+03</pdfrwt>
<pdfrwt beam="2">  1       -2 0.71976499E-01 0.62552768E+03</pdfrwt>
<totfact> 0.39078600E+01</totfact>
</mgrwt>
</event>
<event>
 4    1  0.4639964E-008  0.4901506E+03  0.7818608E-02  0.1016382E+00
          2   -1    0    0  501    0  0.00000000000E+00  0.00000000000E+00  0.27104410677E+04  0.27104410677E+04  0.25500000000E-02 0. -1.
         -2   -1    0    0    0  501 -0.00000000000E+00 -0.00000000000E+00 -0.43982657363E+03  0.43982657364E+03  0.25500000000E-02 0.  1.
    8880022    1    1    2    0    0 -0.72892841740E+02 -0.45993761618E+03  0.25428027442E+04  0.25896126016E+04  0.15294330000E+03 0.  0.
    8880022    1    1    2    0    0  0.72892841740E+02  0.45993761618E+03 -0.27218825011E+03  0.56065503981E+03  0.15294330000E+03 0.  0.
<mgrwt>
<rscale>  0 0.49015062E+03</rscale>
<asrwt>0</asrwt>
<pdfrwt beam="1">  1        2 0.41699093E+00 0.49015062E+03</pdfrwt>
<pdfrwt beam="2">  1       -2 0.67665627E-01 0.49015062E+03</pdfrwt>
<totfact> 0.58719113E+00</totfact>
</mgrwt>
</event>
<event>
 4    1  0.4639964E-008  0.5970102E+03  0.7818608E-02  0.9911628E-01
         -2   -1    0    0    0  501 -0.00000000000E+00  0.00000000000E+00  0.85066859407E+03  0.85066859407E+03  0.25500000000E-02 0.  1.
          2   -1    0    0  501    0  0.00000000000E+00 -0.00000000000E+00 -0.20112068057E+04  0.20112068057E+04  0.25500000000E-02 0. -1.
    8880022    1    1    2    0    0  0.32880540246E+03  0.47425363201E+03  0.69292183496E+03  0.91463753615E+03  0.15294330000E+03 0.  0.
    8880022    1    1    2    0    0 -0.32880540246E+03 -0.47425363201E+03 -0.18534600466E+04  0.19472378636E+04  0.15294330000E+03 0.  0.
<mgrwt>
<rscale>  0 0.59701018E+03</rscale>
<asrwt>0</asrwt>
<pdfrwt beam="1">  1        2 0.30941643E+00 0.59701018E+03</pdfrwt>
<pdfrwt beam="2">  1       -2 0.13087209E+00 0.59701018E+03</pdfrwt>
<totfact> 0.30068229E+00</totfact>
</mgrwt>
</event>
<event>
 4    1  0.4639964E-008  0.1050664E+04  0.7818608E-02  0.9254658E-01
         -2   -1    0    0    0  501 -0.00000000000E+00  0.00000000000E+00  0.49811194904E+03  0.49811194905E+03  0.25500000000E-02 0.  1.
          2   -1    0    0  501    0  0.00000000000E+00 -0.00000000000E+00 -0.24215602148E+04  0.24215602148E+04  0.25500000000E-02 0. -1.
    8880022    1    1    2    0    0 -0.80900765778E+03  0.65269480967E+03 -0.13868889989E+04  0.17399300713E+04  0.15294330000E+03 0.  0.
    8880022    1    1    2    0    0  0.80900765778E+03 -0.65269480967E+03 -0.53655926686E+03  0.11797420925E+04  0.15294330000E+03 0.  0.
<mgrwt>
<rscale>  0 0.10506643E+04</rscale>
<asrwt>0</asrwt>
<pdfrwt beam="1">  1        2 0.37254772E+00 0.10506643E+04</pdfrwt>
<pdfrwt beam="2">  1       -2 0.76632609E-01 0.10506643E+04</pdfrwt>
<totfact> 0.58968175E+00</totfact>
</mgrwt>
</event>
<event>
 4    1  0.4639964E-008  0.7472984E+03  0.7818608E-02  0.9639598E-01
          2   -1    0    0  501    0  0.00000000000E+00  0.00000000000E+00  0.28889322132E+04  0.28889322132E+04  0.25500000000E-02 0. -1.
         -2   -1    0    0    0  501 -0.00000000000E+00 -0.00000000000E+00 -0.32580986485E+03  0.32580986486E+03  0.25500000000E-02 0.  1.
    8880022    1    1    2    0    0  0.12377397856E+03 -0.72093219881E+03  0.25651282286E+03  0.79009728158E+03  0.15294330000E+03 0.  0.
    8880022    1    1    2    0    0 -0.12377397856E+03  0.72093219881E+03  0.23066095255E+04  0.24246447965E+04  0.15294330000E+03 0.  0.
<mgrwt>
<rscale>  0 0.74729839E+03</rscale>
<asrwt>0</asrwt>
<pdfrwt beam="1">  1        2 0.44445110E+00 0.74729839E+03</pdfrwt>
<pdfrwt beam="2">  1       -2 0.50124596E-01 0.74729839E+03</pdfrwt>
<totfact> 0.81544175E+00</totfact>
</mgrwt>
</event>
<event>
 4    1  0.4639964E-008  0.3668708E+03  0.7818608E-02  0.1055896E+00
         -2   -1    0    0    0  501 -0.00000000000E+00  0.00000000000E+00  0.12972384999E+04  0.12972384999E+04  0.25500000000E-02 0.  1.
          2   -1    0    0  501    0  0.00000000000E+00 -0.00000000000E+00 -0.47773671101E+03  0.47773671102E+03  0.25500000000E-02 0. -1.
    8880022    1    1    2    0    0 -0.18003188064E+03 -0.28069737470E+03  0.11949748561E+04  0.12500236214E+04  0.15294330000E+03 0.  0.
    8880022    1    1    2    0    0  0.18003188064E+03  0.28069737470E+03 -0.37547306719E+03  0.52495158959E+03  0.15294330000E+03 0.  0.
<mgrwt>
<rscale>  0 0.36687075E+03</rscale>
<asrwt>0</asrwt>
<pdfrwt beam="1">  1        2 0.73497956E-01 0.36687075E+03</pdfrwt>
<pdfrwt beam="2">  1       -2 0.19957515E+00 0.36687075E+03</pdfrwt>
<totfact> 0.93890681E+00</totfact>
</mgrwt>
</event>
<event>
 4    1  0.4639964E-008  0.7133684E+03  0.7818608E-02  0.9694640E-01
         -2   -1    0    0    0  501 -0.00000000000E+00  0.00000000000E+00  0.10909863181E+04  0.10909863181E+04  0.25500000000E-02 0.  1.
          2   -1    0    0  501    0  0.00000000000E+00 -0.00000000000E+00 -0.99759855770E+03  0.99759855770E+03  0.25500000000E-02 0. -1.
    8880022    1    1    2    0    0 -0.52495035230E+03 -0.45818115025E+03 -0.71529873028E+03  0.10102211468E+04  0.15294330000E+03 0.  0.
    8880022    1    1    2    0    0  0.52495035230E+03  0.45818115025E+03  0.80868649064E+03  0.10783637290E+04  0.15294330000E+03 0.  0.
<mgrwt>
<rscale>  0 0.71336841E+03</rscale>
<asrwt>0</asrwt>
<pdfrwt beam="1">  1        2 0.15347670E+00 0.71336841E+03</pdfrwt>
<pdfrwt beam="2">  1       -2 0.16784405E+00 0.71336841E+03</pdfrwt>
<totfact> 0.57222999E+00</totfact>
</mgrwt>
</event>
<event>
 4    1  0.4639964E-008  0.2965940E+03  0.7818608E-02  0.1086956E+00
         -2   -1    0    0    0  501 -0.00000000000E+00  0.00000000000E+00  0.10752269008E+03  0.10752269011E+03  0.25500000000E-02 0.  1.
          2   -1    0    0  501    0  0.00000000000E+00 -0.00000000000E+00 -0.94158098877E+03  0.94158098877E+03  0.25500000000E-02 0. -1.
    8880022    1    1    2    0    0  0.11369495393E+03 -0.22726597610E+03 -0.22709677776E+03  0.37355182496E+03  0.15294330000E+03 0.  0.
    8880022    1    1    2    0    0 -0.11369495393E+03  0.22726597610E+03 -0.60696152092E+03  0.67555185392E+03  0.15294330000E+03 0.  0.
<mgrwt>
<rscale>  0 0.29659403E+03</rscale>
<asrwt>0</asrwt>
<pdfrwt beam="1">  1        2 0.14485861E+00 0.29659403E+03</pdfrwt>
<pdfrwt beam="2">  1       -2 0.16541953E-01 0.29659403E+03</pdfrwt>
<totfact> 0.83126734E+02</totfact>
</mgrwt>
</event>
<event>
 4    1  0.4639964E-008  0.2562330E+03  0.7818608E-02  0.1109428E+00
         -2   -1    0    0    0  501 -0.00000000000E+00  0.00000000000E+00  0.34470248326E+03  0.34470248327E+03  0.25500000000E-02 0.  1.
          2   -1    0    0  501    0  0.00000000000E+00 -0.00000000000E+00 -0.10977115047E+04  0.10977115047E+04  0.25500000000E-02 0. -1.
    8880022    1    1    2    0    0 -0.20257974813E+03 -0.35001950275E+02 -0.10321625229E+04  0.10634918042E+04  0.15294330000E+03 0. -1.
    8880022    1    1    2    0    0  0.20257974813E+03  0.35001950275E+02  0.27915350153E+03  0.37892218371E+03  0.15294330000E+03 0.  0.
<mgrwt>
<rscale>  0 0.25623299E+03</rscale>
<asrwt>0</asrwt>
<pdfrwt beam="1">  1        2 0.16887869E+00 0.25623299E+03</pdfrwt>
<pdfrwt beam="2">  1       -2 0.53031152E-01 0.25623299E+03</pdfrwt>
<totfact> 0.79509790E+01</totfact>
</mgrwt>
</event>
<event>
 4    1  0.4639964E-008  0.6558700E+03  0.7818608E-02  0.9795826E-01
          2   -1    0    0  501    0  0.00000000000E+00  0.00000000000E+00  0.33484198866E+04  0.33484198866E+04  0.25500000000E-02 0. -1.
         -2   -1    0    0    0  501 -0.00000000000E+00 -0.00000000000E+00 -0.12986950309E+03  0.12986950312E+03  0.25500000000E-02 0.  1.
    8880022    1    1    2    0    0  0.43432725860E+03 -0.46704777681E+03  0.17899299995E+04  0.19063092219E+04  0.15294330000E+03 0. -1.
    8880022    1    1    2    0    0 -0.43432725860E+03  0.46704777681E+03  0.14286203839E+04  0.15719801678E+04  0.15294330000E+03 0.  1.
<mgrwt>
<rscale>  0 0.65586999E+03</rscale>
<asrwt>0</asrwt>
<pdfrwt beam="1">  1        2 0.51514154E+00 0.65586999E+03</pdfrwt>
<pdfrwt beam="2">  1       -2 0.19979923E-01 0.65586999E+03</pdfrwt>
<totfact> 0.24055864E+01</totfact>
</mgrwt>
</event>
<event>
 4    1  0.4639964E-008  0.2751215E+03  0.7818608E-02  0.1098384E+00
          2   -1    0    0  501    0  0.00000000000E+00  0.00000000000E+00  0.66883919549E+03  0.66883919549E+03  0.25500000000E-02 0. -1.
         -2   -1    0    0    0  501 -0.00000000000E+00 -0.00000000000E+00 -0.52891229034E+03  0.52891229034E+03  0.25500000000E-02 0.  1.
    8880022    1    1    2    0    0 -0.71407134396E+02  0.21725834091E+03  0.60091825376E+03  0.66090435485E+03  0.15294330000E+03 0.  0.
    8880022    1    1    2    0    0  0.71407134396E+02 -0.21725834091E+03 -0.46099134862E+03  0.53684713099E+03  0.15294330000E+03 0.  0.
<mgrwt>
<rscale>  0 0.27512146E+03</rscale>
<asrwt>0</asrwt>
<pdfrwt beam="1">  1        2 0.10289834E+00 0.27512146E+03</pdfrwt>
<pdfrwt beam="2">  1       -2 0.81371122E-01 0.27512146E+03</pdfrwt>
<totfact> 0.61581666E+01</totfact>
</mgrwt>
</event>
<event>
 4    1  0.4639964E-008  0.4224739E+03  0.7818608E-02  0.1036264E+00
          2   -1    0    0  501    0  0.00000000000E+00  0.00000000000E+00  0.12292936022E+04  0.12292936022E+04  0.25500000000E-02 0. -1.
         -2   -1    0    0    0  501 -0.00000000000E+00 -0.00000000000E+00 -0.33023027579E+03  0.33023027580E+03  0.25500000000E-02 0.  1.
    8880022    1    1    2    0    0  0.63579174739E+02  0.38865177624E+03 -0.13416045755E+03  0.44326425078E+03  0.15294330000E+03 0.  0.
    8880022    1    1    2    0    0 -0.63579174739E+02 -0.38865177624E+03  0.10332237840E+04  0.11162596272E+04  0.15294330000E+03 0.  0.
<mgrwt>
<rscale>  0 0.42247387E+03</rscale>
<asrwt>0</asrwt>
<pdfrwt beam="1">  1        2 0.18912209E+00 0.42247387E+03</pdfrwt>
<pdfrwt beam="2">  1       -2 0.50804657E-01 0.42247387E+03</pdfrwt>
<totfact> 0.70433071E+01</totfact>
</mgrwt>
</event>
<event>
 4    1  0.4639964E-008  0.3813260E+03  0.7818608E-02  0.1050445E+00
         -2   -1    0    0    0  501 -0.00000000000E+00  0.00000000000E+00  0.44267022280E+03  0.44267022281E+03  0.25500000000E-02 0.  1.
          2   -1    0    0  501    0  0.00000000000E+00 -0.00000000000E+00 -0.14791782219E+04  0.14791782219E+04  0.25500000000E-02 0. -1.
    8880022    1    1    2    0    0  0.34098768142E+03  0.75797633702E+02 -0.13657918265E+04  0.14180256861E+04  0.15294330000E+03 0.  0.
    8880022    1    1    2    0    0 -0.34098768142E+03 -0.75797633702E+02  0.32928382735E+03  0.50382275864E+03  0.15294330000E+03 0.  0.
<mgrwt>
<rscale>  0 0.38132602E+03</rscale>
<asrwt>0</asrwt>
<pdfrwt beam="1">  1        2 0.22756588E+00 0.38132602E+03</pdfrwt>
<pdfrwt beam="2">  1       -2 0.68103112E-01 0.38132602E+03</pdfrwt>
<totfact> 0.27955007E+01</totfact>
</mgrwt>
</event>
<event>
 4    1  0.4639964E-008  0.3193333E+03  0.7818608E-02  0.1075957E+00
         -2   -1    0    0    0  501 -0.00000000000E+00  0.00000000000E+00  0.31096314751E+03  0.31096314752E+03  0.25500000000E-02 0.  1.
          2   -1    0    0  501    0  0.00000000000E+00 -0.00000000000E+00 -0.58560631457E+03  0.58560631457E+03  0.25500000000E-02 0. -1.
    8880022    1    1    2    0    0  0.24264196768E+03 -0.14038162846E+03  0.16004304830E+03  0.35719400388E+03  0.15294330000E+03 0.  0.
    8880022    1    1    2    0    0 -0.24264196768E+03  0.14038162846E+03 -0.43468621536E+03  0.53937545821E+03  0.15294330000E+03 0.  0.
<mgrwt>
<rscale>  0 0.31933334E+03</rscale>
<asrwt>0</asrwt>
<pdfrwt beam="1">  1        2 0.90093279E-01 0.31933334E+03</pdfrwt>
<pdfrwt beam="2">  1       -2 0.47840484E-01 0.31933334E+03</pdfrwt>
<totfact> 0.21886848E+02</totfact>
</mgrwt>
</event>
<event>
 4    1  0.4639964E-008  0.1105972E+04  0.7818608E-02  0.9199390E-01
         -2   -1    0    0    0  501 -0.00000000000E+00  0.00000000000E+00  0.47264592184E+03  0.47264592184E+03  0.25500000000E-02 0.  1.
          2   -1    0    0  501    0  0.00000000000E+00 -0.00000000000E+00 -0.39988019121E+04  0.39988019121E+04  0.25500000000E-02 0. -1.
    8880022    1    1    2    0    0 -0.28768123013E+02 -0.10949683249E+04 -0.30910744435E+04  0.32829736681E+04  0.15294330000E+03 0.  0.
    8880022    1    1    2    0    0  0.28768123013E+02  0.10949683249E+04 -0.43508154676E+03  0.11884741658E+04  0.15294330000E+03 0.  0.
<mgrwt>
<rscale>  0 0.11059724E+04</rscale>
<asrwt>0</asrwt>
<pdfrwt beam="1">  1        2 0.61520027E+00 0.11059724E+04</pdfrwt>
<pdfrwt beam="2">  1       -2 0.72714760E-01 0.11059724E+04</pdfrwt>
<totfact> 0.60595917E-01</totfact>
</mgrwt>
</event>
<event>
 4    1  0.4639964E-008  0.7750739E+03  0.7818608E-02  0.9596814E-01
          2   -1    0    0  501    0  0.00000000000E+00  0.00000000000E+00  0.54652053223E+03  0.54652053224E+03  0.25500000000E-02 0. -1.
         -2   -1    0    0    0  501 -0.00000000000E+00 -0.00000000000E+00 -0.14632377341E+04  0.14632377341E+04  0.25500000000E-02 0.  1.
    8880022    1    1    2    0    0 -0.73686635732E+03 -0.18540724146E+03  0.42857536291E+02  0.77625787930E+03  0.15294330000E+03 0.  0.
    8880022    1    1    2    0    0  0.73686635732E+03  0.18540724146E+03 -0.95957473819E+03  0.12335003871E+04  0.15294330000E+03 0.  0.
<mgrwt>
<rscale>  0 0.77507388E+03</rscale>
<asrwt>0</asrwt>
<pdfrwt beam="1">  1        2 0.84080082E-01 0.77507388E+03</pdfrwt>
<pdfrwt beam="2">  1       -2 0.22511350E+00 0.77507388E+03</pdfrwt>
<totfact> 0.51963717E+00</totfact>
</mgrwt>
</event>
<event>
 4    1  0.4639964E-008  0.5131899E+03  0.7818608E-02  0.1010392E+00
         -2   -1    0    0    0  501 -0.00000000000E+00  0.00000000000E+00  0.22884910910E+03  0.22884910911E+03  0.25500000000E-02 0.  1.
          2   -1    0    0  501    0  0.00000000000E+00 -0.00000000000E+00 -0.16307254102E+04  0.16307254102E+04  0.25500000000E-02 0. -1.
    8880022    1    1    2    0    0  0.26051120929E+03 -0.41485678521E+03 -0.19654235013E+03  0.54953870729E+03  0.15294330000E+03 0.  0.
    8880022    1    1    2    0    0 -0.26051120929E+03  0.41485678521E+03 -0.12053339510E+04  0.13100358120E+04  0.15294330000E+03 0. -1.
<mgrwt>
<rscale>  0 0.51318992E+03</rscale>
<asrwt>0</asrwt>
<pdfrwt beam="1">  1        2 0.25088083E+00 0.51318992E+03</pdfrwt>
<pdfrwt beam="2">  1       -2 0.35207556E-01 0.51318992E+03</pdfrwt>
<totfact> 0.85252518E+01</totfact>
</mgrwt>
</event>
<event>
 4    1  0.4639964E-008  0.9992629E+03  0.7818608E-02  0.9309354E-01
         -2   -1    0    0    0  501 -0.00000000000E+00  0.00000000000E+00  0.31699891817E+03  0.31699891818E+03  0.25500000000E-02 0.  1.
          2   -1    0    0  501    0  0.00000000000E+00 -0.00000000000E+00 -0.33617089432E+04  0.33617089432E+04  0.25500000000E-02 0. -1.
    8880022    1    1    2    0    0 -0.92771036949E+03 -0.33836090511E+03 -0.19840132077E+04  0.22214487825E+04  0.15294330000E+03 0.  0.
    8880022    1    1    2    0    0  0.92771036949E+03  0.33836090511E+03 -0.10606968173E+04  0.14572590789E+04  0.15294330000E+03 0.  0.
<mgrwt>
<rscale>  0 0.99926287E+03</rscale>
<asrwt>0</asrwt>
<pdfrwt beam="1">  1        2 0.51718597E+00 0.99926287E+03</pdfrwt>
<pdfrwt beam="2">  1       -2 0.48769067E-01 0.99926287E+03</pdfrwt>
<totfact> 0.41640017E+00</totfact>
</mgrwt>
</event>
<event>
 4    1  0.4639964E-008  0.7357959E+03  0.7818608E-02  0.9657902E-01
          2   -1    0    0  501    0  0.00000000000E+00  0.00000000000E+00  0.11408755068E+04  0.11408755068E+04  0.25500000000E-02 0. -1.
         -2   -1    0    0    0  501 -0.00000000000E+00 -0.00000000000E+00 -0.77629101548E+03  0.77629101548E+03  0.25500000000E-02 0.  1.
    8880022    1    1    2    0    0 -0.57934031278E+03 -0.42704652678E+03  0.77993144829E+03  0.10722353525E+04  0.15294330000E+03 0.  0.
    8880022    1    1    2    0    0  0.57934031278E+03  0.42704652678E+03 -0.41534695696E+03  0.84493116981E+03  0.15294330000E+03 0.  0.
<mgrwt>
<rscale>  0 0.73579589E+03</rscale>
<asrwt>0</asrwt>
<pdfrwt beam="1">  1        2 0.17551931E+00 0.73579589E+03</pdfrwt>
<pdfrwt beam="2">  1       -2 0.11942939E+00 0.73579589E+03</pdfrwt>
<totfact> 0.11277538E+01</totfact>
</mgrwt>
</event>
<event>
 4    1  0.4639964E-008  0.5170920E+03  0.7818608E-02  0.1009411E+00
         -2   -1    0    0    0  501 -0.00000000000E+00  0.00000000000E+00  0.38544859589E+03  0.38544859590E+03  0.25500000000E-02 0.  1.
          2   -1    0    0  501    0  0.00000000000E+00 -0.00000000000E+00 -0.17256618043E+04  0.17256618043E+04  0.25500000000E-02 0. -1.
    8880022    1    1    2    0    0 -0.43743710981E+02  0.49201523797E+03  0.14616700170E+03  0.53735365640E+03  0.15294330000E+03 0.  0.
    8880022    1    1    2    0    0  0.43743710981E+02 -0.49201523797E+03 -0.14863802101E+04  0.15737567438E+04  0.15294330000E+03 0.  0.
<mgrwt>
<rscale>  0 0.51709202E+03</rscale>
<asrwt>0</asrwt>
<pdfrwt beam="1">  1        2 0.26548643E+00 0.51709202E+03</pdfrwt>
<pdfrwt beam="2">  1       -2 0.59299785E-01 0.51709202E+03</pdfrwt>
<totfact> 0.26815338E+01</totfact>
</mgrwt>
</event>
<event>
 4    1  0.4639964E-008  0.2768681E+03  0.7818608E-02  0.1097412E+00
         -2   -1    0    0    0  501 -0.00000000000E+00  0.00000000000E+00  0.17467756929E+03  0.17467756931E+03  0.25500000000E-02 0.  1.
          2   -1    0    0  501    0  0.00000000000E+00 -0.00000000000E+00 -0.11598273315E+04  0.11598273315E+04  0.25500000000E-02 0. -1.
    8880022    1    1    2    0    0 -0.21229900615E+03 -0.90517556330E+02 -0.10186606555E+04  0.10556161614E+04  0.15294330000E+03 0.  0.
    8880022    1    1    2    0    0  0.21229900615E+03  0.90517556330E+02  0.33510893296E+02  0.27888873946E+03  0.15294330000E+03 0.  1.
<mgrwt>
<rscale>  0 0.27686811E+03</rscale>
<asrwt>0</asrwt>
<pdfrwt beam="1">  1        2 0.17843497E+00 0.27686811E+03</pdfrwt>
<pdfrwt beam="2">  1       -2 0.26873473E-01 0.27686811E+03</pdfrwt>
<totfact> 0.26519909E+02</totfact>
</mgrwt>
</event>
<event>
 4    1  0.6155320E-008  0.6301679E+03  0.7818608E-02  0.9844721E-01
         -2   -1    0    0    0  501 -0.00000000000E+00  0.00000000000E+00  0.85983492579E+03  0.85983492580E+03  0.25500000000E-02 0.  1.
          2   -1    0    0  501    0  0.00000000000E+00 -0.00000000000E+00 -0.22047587603E+04  0.22047587603E+04  0.25500000000E-02 0. -1.
    8880022    1    1    2    0    0  0.56093249263E+03 -0.24305280911E+03 -0.20348478643E+04  0.21301918724E+04  0.15294330000E+03 0.  0.
    8880022    1    1    2    0    0 -0.56093249263E+03  0.24305280911E+03  0.68992402988E+03  0.93440181363E+03  0.15294330000E+03 0.  0.
<mgrwt>
<rscale>  0 0.63016790E+03</rscale>
<asrwt>0</asrwt>
<pdfrwt beam="1">  1        2 0.33919365E+00 0.63016790E+03</pdfrwt>
<pdfrwt beam="2">  1       -2 0.13228230E+00 0.63016790E+03</pdfrwt>
<totfact> 0.22786468E+00</totfact>
</mgrwt>
</event>
<event>
 4    1  0.4639964E-008  0.5488188E+03  0.7818608E-02  0.1001768E+00
          2   -1    0    0  501    0  0.00000000000E+00  0.00000000000E+00  0.23350047942E+04  0.23350047942E+04  0.25500000000E-02 0. -1.
         -2   -1    0    0    0  501 -0.00000000000E+00 -0.00000000000E+00 -0.25895302366E+03  0.25895302367E+03  0.25500000000E-02 0.  1.
    8880022    1    1    2    0    0  0.37956681592E+03  0.36570405884E+03  0.19568350184E+04  0.20323398753E+04  0.15294330000E+03 0.  0.
    8880022    1    1    2    0    0 -0.37956681592E+03 -0.36570405884E+03  0.11921675209E+03  0.56161794255E+03  0.15294330000E+03 0.  0.
<mgrwt>
<rscale>  0 0.54881880E+03</rscale>
<asrwt>0</asrwt>
<pdfrwt beam="1">  1        2 0.35923150E+00 0.54881880E+03</pdfrwt>
<pdfrwt beam="2">  1       -2 0.39838927E-01 0.54881880E+03</pdfrwt>
<totfact> 0.27769472E+01</totfact>
</mgrwt>
</event>
<event>
 4    1  0.4639964E-008  0.4990991E+03  0.7818608E-02  0.1014014E+00
          2   -1    0    0  501    0  0.00000000000E+00  0.00000000000E+00  0.10395828790E+04  0.10395828790E+04  0.25500000000E-02 0. -1.
         -2   -1    0    0    0  501 -0.00000000000E+00 -0.00000000000E+00 -0.30674360702E+03  0.30674360703E+03  0.25500000000E-02 0.  1.
    8880022    1    1    2    0    0  0.39334621401E+03 -0.26643388057E+03  0.51510218958E+02  0.50175014944E+03  0.15294330000E+03 0.  1.
    8880022    1    1    2    0    0 -0.39334621401E+03  0.26643388057E+03  0.68132905298E+03  0.84457633654E+03  0.15294330000E+03 0.  0.
<mgrwt>
<rscale>  0 0.49909910E+03</rscale>
<asrwt>0</asrwt>
<pdfrwt beam="1">  1        2 0.15993583E+00 0.49909910E+03</pdfrwt>
<pdfrwt beam="2">  1       -2 0.47191324E-01 0.49909910E+03</pdfrwt>
<totfact> 0.10487414E+02</totfact>
</mgrwt>
</event>
<event>
 4    1  0.4639964E-008  0.7043376E+03  0.7818608E-02  0.9709843E-01
          2   -1    0    0  501    0  0.00000000000E+00  0.00000000000E+00  0.50803674100E+03  0.50803674101E+03  0.25500000000E-02 0. -1.
         -2   -1    0    0    0  501 -0.00000000000E+00 -0.00000000000E+00 -0.10069244162E+04  0.10069244162E+04  0.25500000000E-02 0.  1.
    8880022    1    1    2    0    0  0.49387563391E+03  0.47831644187E+03 -0.11774710860E+03  0.71411189245E+03  0.15294330000E+03 0.  0.
    8880022    1    1    2    0    0 -0.49387563391E+03 -0.47831644187E+03 -0.38114056658E+03  0.80084926474E+03  0.15294330000E+03 0.  0.
<mgrwt>
<rscale>  0 0.70433757E+03</rscale>
<asrwt>0</asrwt>
<pdfrwt beam="1">  1        2 0.78159499E-01 0.70433757E+03</pdfrwt>
<pdfrwt beam="2">  1       -2 0.15491145E+00 0.70433757E+03</pdfrwt>
<totfact> 0.16925747E+01</totfact>
</mgrwt>
</event>
<event>
 4    1  0.4639964E-008  0.1052520E+04  0.7818608E-02  0.9252746E-01
         -2   -1    0    0    0  501 -0.00000000000E+00  0.00000000000E+00  0.35553462272E+03  0.35553462273E+03  0.25500000000E-02 0.  1.
          2   -1    0    0  501    0  0.00000000000E+00 -0.00000000000E+00 -0.34142195496E+04  0.34142195496E+04  0.25500000000E-02 0. -1.
    8880022    1    1    2    0    0 -0.14678262812E+02 -0.10412452545E+04 -0.20865305326E+04  0.23369656497E+04  0.15294330000E+03 0.  0.
    8880022    1    1    2    0    0  0.14678262812E+02  0.10412452545E+04 -0.97215439436E+03  0.14327885227E+04  0.15294330000E+03 0.  0.
<mgrwt>
<rscale>  0 0.10525202E+04</rscale>
<asrwt>0</asrwt>
<pdfrwt beam="1">  1        2 0.52526453E+00 0.10525202E+04</pdfrwt>
<pdfrwt beam="2">  1       -2 0.54697636E-01 0.10525202E+04</pdfrwt>
<totfact> 0.30080962E+00</totfact>
</mgrwt>
</event>
<event>
 4    1  0.4639964E-008  0.4814746E+03  0.7818608E-02  0.1018731E+00
         -2   -1    0    0    0  501 -0.00000000000E+00  0.00000000000E+00  0.16133411343E+03  0.16133411345E+03  0.25500000000E-02 0.  1.
          2   -1    0    0  501    0  0.00000000000E+00 -0.00000000000E+00 -0.26385504280E+04  0.26385504280E+04  0.25500000000E-02 0. -1.
    8880022    1    1    2    0    0 -0.13311499599E+03  0.43669960223E+03 -0.29385125550E+03  0.56406237077E+03  0.15294330000E+03 0.  1.
    8880022    1    1    2    0    0  0.13311499599E+03 -0.43669960223E+03 -0.21833650591E+04  0.22358221707E+04  0.15294330000E+03 0. -1.
<mgrwt>
<rscale>  0 0.48147461E+03</rscale>
<asrwt>0</asrwt>
<pdfrwt beam="1">  1        2 0.40593080E+00 0.48147461E+03</pdfrwt>
<pdfrwt beam="2">  1       -2 0.24820635E-01 0.48147461E+03</pdfrwt>
<totfact> 0.45925067E+01</totfact>
</mgrwt>
</event>
<event>
 4    1  0.4639964E-008  0.4905203E+03  0.7818608E-02  0.1016283E+00
          2   -1    0    0  501    0  0.00000000000E+00  0.00000000000E+00  0.12453601096E+04  0.12453601096E+04  0.25500000000E-02 0. -1.
         -2   -1    0    0    0  501 -0.00000000000E+00 -0.00000000000E+00 -0.43672349334E+03  0.43672349335E+03  0.25500000000E-02 0.  1.
    8880022    1    1    2    0    0 -0.42396723006E+03 -0.19357245557E+03 -0.22371115679E+03  0.53912599864E+03  0.15294330000E+03 0.  0.
    8880022    1    1    2    0    0  0.42396723006E+03  0.19357245557E+03  0.10323477731E+04  0.11429576043E+04  0.15294330000E+03 0.  0.
<mgrwt>
<rscale>  0 0.49052030E+03</rscale>
<asrwt>0</asrwt>
<pdfrwt beam="1">  1        2 0.19159386E+00 0.49052030E+03</pdfrwt>
<pdfrwt beam="2">  1       -2 0.67188230E-01 0.49052030E+03</pdfrwt>
<totfact> 0.38080787E+01</totfact>
</mgrwt>
</event>
<event>
 4    1  0.4639964E-008  0.3553259E+03  0.7818608E-02  0.1060450E+00
         -2   -1    0    0    0  501 -0.00000000000E+00  0.00000000000E+00  0.95300831240E+02  0.95300831274E+02  0.25500000000E-02 0.  1.
          2   -1    0    0  501    0  0.00000000000E+00 -0.00000000000E+00 -0.17374634383E+04  0.17374634383E+04  0.25500000000E-02 0. -1.
    8880022    1    1    2    0    0 -0.31719099723E+03  0.47484133072E+02 -0.12676680408E+04  0.13165252699E+04  0.15294330000E+03 0.  0.
    8880022    1    1    2    0    0  0.31719099723E+03 -0.47484133072E+02 -0.37449456631E+03  0.51623899972E+03  0.15294330000E+03 0.  0.
<mgrwt>
<rscale>  0 0.35532594E+03</rscale>
<asrwt>0</asrwt>
<pdfrwt beam="1">  1        2 0.26730204E+00 0.35532594E+03</pdfrwt>
<pdfrwt beam="2">  1       -2 0.14661668E-01 0.35532594E+03</pdfrwt>
<totfact> 0.35975945E+02</totfact>
</mgrwt>
</event>
<event>
 4    1  0.4639964E-008  0.5443473E+03  0.7818608E-02  0.1002811E+00
         -2   -1    0    0    0  501 -0.00000000000E+00  0.00000000000E+00  0.49467479044E+03  0.49467479045E+03  0.25500000000E-02 0.  1.
          2   -1    0    0  501    0  0.00000000000E+00 -0.00000000000E+00 -0.16245346778E+04  0.16245346778E+04  0.25500000000E-02 0. -1.
    8880022    1    1    2    0    0  0.47859351576E+03  0.20945296749E+03 -0.14068153198E+04  0.15084572570E+04  0.15294330000E+03 0.  0.
    8880022    1    1    2    0    0 -0.47859351576E+03 -0.20945296749E+03  0.27695543253E+03  0.61075221125E+03  0.15294330000E+03 0.  0.
<mgrwt>
<rscale>  0 0.54434727E+03</rscale>
<asrwt>0</asrwt>
<pdfrwt beam="1">  1        2 0.24992841E+00 0.54434727E+03</pdfrwt>
<pdfrwt beam="2">  1       -2 0.76103815E-01 0.54434727E+03</pdfrwt>
<totfact> 0.17689753E+01</totfact>
</mgrwt>
</event>
<event>
 4    1  0.4639964E-008  0.1843983E+03  0.7818608E-02  0.1163613E+00
         -2   -1    0    0    0  501 -0.00000000000E+00  0.00000000000E+00  0.11140901365E+03  0.11140901368E+03  0.25500000000E-02 0.  1.
          2   -1    0    0  501    0  0.00000000000E+00 -0.00000000000E+00 -0.24944202949E+04  0.24944202949E+04  0.25500000000E-02 0. -1.
    8880022    1    1    2    0    0  0.20504614705E+02 -0.10094867547E+03 -0.24121109814E+04  0.24191490475E+04  0.15294330000E+03 0.  0.
    8880022    1    1    2    0    0 -0.20504614705E+02  0.10094867547E+03  0.29099700193E+02  0.18668026106E+03  0.15294330000E+03 0.  1.
<mgrwt>
<rscale>  0 0.18439828E+03</rscale>
<asrwt>0</asrwt>
<pdfrwt beam="1">  1        2 0.38375693E+00 0.18439828E+03</pdfrwt>
<pdfrwt beam="2">  1       -2 0.17139850E-01 0.18439828E+03</pdfrwt>
<totfact> 0.11505254E+02</totfact>
</mgrwt>
</event>
<event>
 4    1  0.4639964E-008  0.2645353E+03  0.7818608E-02  0.1104449E+00
          2   -1    0    0  501    0  0.00000000000E+00  0.00000000000E+00  0.11182350193E+04  0.11182350193E+04  0.25500000000E-02 0. -1.
         -2   -1    0    0    0  501 -0.00000000000E+00 -0.00000000000E+00 -0.17060556046E+03  0.17060556048E+03  0.25500000000E-02 0.  1.
    8880022    1    1    2    0    0  0.20898628117E+03 -0.53963241123E+02  0.98660081723E+03  0.10214500099E+04  0.15294330000E+03 0.  0.
    8880022    1    1    2    0    0 -0.20898628117E+03  0.53963241123E+02 -0.38971358354E+02  0.26739056994E+03  0.15294330000E+03 0.  0.
<mgrwt>
<rscale>  0 0.26453535E+03</rscale>
<asrwt>0</asrwt>
<pdfrwt beam="1">  1        2 0.17203616E+00 0.26453535E+03</pdfrwt>
<pdfrwt beam="2">  1       -2 0.26247009E-01 0.26453535E+03</pdfrwt>
<totfact> 0.29297433E+02</totfact>
</mgrwt>
</event>
<event>
 4    1  0.4639964E-008  0.8768376E+03  0.7818608E-02  0.9455008E-01
          2   -1    0    0  501    0  0.00000000000E+00  0.00000000000E+00  0.36869929589E+03  0.36869929590E+03  0.25500000000E-02 0. -1.
         -2   -1    0    0    0  501 -0.00000000000E+00 -0.00000000000E+00 -0.21601246163E+04  0.21601246163E+04  0.25500000000E-02 0.  1.
    8880022    1    1    2    0    0  0.42767306566E+03  0.75003218293E+03 -0.66036680203E+03  0.10976923489E+04  0.15294330000E+03 0.  0.
    8880022    1    1    2    0    0 -0.42767306566E+03 -0.75003218293E+03 -0.11310585183E+04  0.14311315633E+04  0.15294330000E+03 0.  0.
<mgrwt>
<rscale>  0 0.87683760E+03</rscale>
<asrwt>0</asrwt>
<pdfrwt beam="1">  1        2 0.56722970E-01 0.87683760E+03</pdfrwt>
<pdfrwt beam="2">  1       -2 0.33232686E+00 0.87683760E+03</pdfrwt>
<totfact> 0.18015000E+00</totfact>
</mgrwt>
</event>
<event>
 4    1  0.4639964E-008  0.9627463E+03  0.7818608E-02  0.9350375E-01
          2   -1    0    0  501    0  0.00000000000E+00  0.00000000000E+00  0.11301912929E+04  0.11301912929E+04  0.25500000000E-02 0. -1.
         -2   -1    0    0    0  501 -0.00000000000E+00 -0.00000000000E+00 -0.16872365999E+04  0.16872365999E+04  0.25500000000E-02 0.  1.
    8880022    1    1    2    0    0  0.94975299150E+03  0.38183577856E+02  0.73137241509E+03  0.12090434207E+04  0.15294330000E+03 0.  0.
    8880022    1    1    2    0    0 -0.94975299150E+03 -0.38183577856E+02 -0.12884177221E+04  0.16083844721E+04  0.15294330000E+03 0.  0.
<mgrwt>
<rscale>  0 0.96274627E+03</rscale>
<asrwt>0</asrwt>
<pdfrwt beam="1">  1        2 0.17387558E+00 0.96274627E+03</pdfrwt>
<pdfrwt beam="2">  1       -2 0.25957486E+00 0.96274627E+03</pdfrwt>
<totfact> 0.11754237E+00</totfact>
</mgrwt>
</event>
<event>
 4    1  0.4639964E-008  0.5836792E+03  0.7818608E-02  0.9939857E-01
          2   -1    0    0  501    0  0.00000000000E+00  0.00000000000E+00  0.92864904548E+03  0.92864904549E+03  0.25500000000E-02 0. -1.
         -2   -1    0    0    0  501 -0.00000000000E+00 -0.00000000000E+00 -0.56808186176E+03  0.56808186177E+03  0.25500000000E-02 0.  1.
    8880022    1    1    2    0    0  0.44453384933E+03  0.34594707400E+03  0.62568247315E+03  0.85566344519E+03  0.15294330000E+03 0.  0.
    8880022    1    1    2    0    0 -0.44453384933E+03 -0.34594707400E+03 -0.26511528944E+03  0.64106746206E+03  0.15294330000E+03 0.  0.
<mgrwt>
<rscale>  0 0.58367917E+03</rscale>
<asrwt>0</asrwt>
<pdfrwt beam="1">  1        2 0.14286908E+00 0.58367917E+03</pdfrwt>
<pdfrwt beam="2">  1       -2 0.87397211E-01 0.58367917E+03</pdfrwt>
<totfact> 0.32765754E+01</totfact>
</mgrwt>
</event>
<event>
 4    1  0.4639964E-008  0.5968023E+03  0.7818608E-02  0.9912063E-01
          2   -1    0    0  501    0  0.00000000000E+00  0.00000000000E+00  0.12172501799E+04  0.12172501799E+04  0.25500000000E-02 0. -1.
         -2   -1    0    0    0  501 -0.00000000000E+00 -0.00000000000E+00 -0.81988416824E+03  0.81988416825E+03  0.25500000000E-02 0.  1.
    8880022    1    1    2    0    0  0.56766072678E+03 -0.10267719878E+03 -0.61815119064E+03  0.85923445892E+03  0.15294330000E+03 0.  0.
    8880022    1    1    2    0    0 -0.56766072678E+03  0.10267719878E+03  0.10155172023E+04  0.11778998892E+04  0.15294330000E+03 0.  0.
<mgrwt>
<rscale>  0 0.59680228E+03</rscale>
<asrwt>0</asrwt>
<pdfrwt beam="1">  1        2 0.18726926E+00 0.59680228E+03</pdfrwt>
<pdfrwt beam="2">  1       -2 0.12613603E+00 0.59680228E+03</pdfrwt>
<totfact> 0.90439328E+00</totfact>
</mgrwt>
</event>
<event>
 4    1  0.4639964E-008  0.2520343E+03  0.7818608E-02  0.1112026E+00
          2   -1    0    0  501    0  0.00000000000E+00  0.00000000000E+00  0.85645838769E+03  0.85645838769E+03  0.25500000000E-02 0. -1.
         -2   -1    0    0    0  501 -0.00000000000E+00 -0.00000000000E+00 -0.31478538847E+03  0.31478538848E+03  0.25500000000E-02 0.  1.
    8880022    1    1    2    0    0  0.19805659685E+03  0.30053977267E+02  0.78284131372E+03  0.82241220358E+03  0.15294330000E+03 0.  0.
    8880022    1    1    2    0    0 -0.19805659685E+03 -0.30053977267E+02 -0.24116831450E+03  0.34883157260E+03  0.15294330000E+03 0.  0.
<mgrwt>
<rscale>  0 0.25203434E+03</rscale>
<asrwt>0</asrwt>
<pdfrwt beam="1">  1        2 0.13176283E+00 0.25203434E+03</pdfrwt>
<pdfrwt beam="2">  1       -2 0.48428521E-01 0.25203434E+03</pdfrwt>
<totfact> 0.13491136E+02</totfact>
</mgrwt>
</event>
<event>
 4    1  0.4639964E-008  0.2957585E+03  0.7818608E-02  0.1087380E+00
          2   -1    0    0  501    0  0.00000000000E+00  0.00000000000E+00  0.25771817991E+03  0.25771817992E+03  0.25500000000E-02 0. -1.
         -2   -1    0    0    0  501 -0.00000000000E+00 -0.00000000000E+00 -0.11495951928E+04  0.11495951928E+04  0.25500000000E-02 0.  1.
    8880022    1    1    2    0    0  0.16508111931E+03  0.19191047964E+03  0.14477857466E+03  0.32929302580E+03  0.15294330000E+03 0.  0.
    8880022    1    1    2    0    0 -0.16508111931E+03 -0.19191047964E+03 -0.10366555876E+04  0.10780203469E+04  0.15294330000E+03 0.  1.
<mgrwt>
<rscale>  0 0.29575845E+03</rscale>
<asrwt>0</asrwt>
<pdfrwt beam="1">  1        2 0.39648951E-01 0.29575845E+03</pdfrwt>
<pdfrwt beam="2">  1       -2 0.17686080E+00 0.29575845E+03</pdfrwt>
<totfact> 0.26453508E+01</totfact>
</mgrwt>
</event>
<event>
 4    1  0.4639964E-008  0.7600580E+03  0.7818608E-02  0.9619702E-01
          2   -1    0    0  501    0  0.00000000000E+00  0.00000000000E+00  0.22463812982E+04  0.22463812982E+04  0.25500000000E-02 0. -1.
         -2   -1    0    0    0  501 -0.00000000000E+00 -0.00000000000E+00 -0.32998391365E+03  0.32998391366E+03  0.25500000000E-02 0.  1.
    8880022    1    1    2    0    0 -0.19270645158E+03 -0.71913893042E+03  0.15633393750E+04  0.17383090152E+04  0.15294330000E+03 0.  0.
    8880022    1    1    2    0    0  0.19270645158E+03  0.71913893042E+03  0.35305800958E+03  0.83805619672E+03  0.15294330000E+03 0.  0.
<mgrwt>
<rscale>  0 0.76005804E+03</rscale>
<asrwt>0</asrwt>
<pdfrwt beam="1">  1        2 0.34559714E+00 0.76005804E+03</pdfrwt>
<pdfrwt beam="2">  1       -2 0.50766754E-01 0.76005804E+03</pdfrwt>
<totfact> 0.18519641E+01</totfact>
</mgrwt>
</event>
<event>
 4    1  0.4639964E-008  0.1008313E+04  0.7818608E-02  0.9299474E-01
         -2   -1    0    0    0  501 -0.00000000000E+00  0.00000000000E+00  0.25245965779E+04  0.25245965779E+04  0.25500000000E-02 0.  1.
          2   -1    0    0  501    0  0.00000000000E+00 -0.00000000000E+00 -0.47330540702E+03  0.47330540703E+03  0.25500000000E-02 0. -1.
    8880022    1    1    2    0    0 -0.98309383721E+03  0.16380107591E+03  0.44676917081E+03  0.11028592976E+04  0.15294330000E+03 0.  0.
    8880022    1    1    2    0    0  0.98309383721E+03 -0.16380107591E+03  0.16045220001E+04  0.18950426874E+04  0.15294330000E+03 0.  0.
<mgrwt>
<rscale>  0 0.10083134E+04</rscale>
<asrwt>0</asrwt>
<pdfrwt beam="1">  1        2 0.72816217E-01 0.10083134E+04</pdfrwt>
<pdfrwt beam="2">  1       -2 0.38839947E+00 0.10083134E+04</pdfrwt>
<totfact> 0.59037698E-01</totfact>
</mgrwt>
</event>
<event>
 4    1  0.4639964E-008  0.2643281E+03  0.7818608E-02  0.1104570E+00
         -2   -1    0    0    0  501 -0.00000000000E+00  0.00000000000E+00  0.22750717017E+03  0.22750717019E+03  0.25500000000E-02 0.  1.
          2   -1    0    0  501    0  0.00000000000E+00 -0.00000000000E+00 -0.24986562523E+04  0.24986562523E+04  0.25500000000E-02 0. -1.
    8880022    1    1    2    0    0  0.10313014467E+03  0.18931948427E+03 -0.24121430308E+04  0.24265826480E+04  0.15294330000E+03 0.  0.
    8880022    1    1    2    0    0 -0.10313014467E+03 -0.18931948427E+03  0.14099394862E+03  0.29958077447E+03  0.15294330000E+03 0.  1.
<mgrwt>
<rscale>  0 0.26432810E+03</rscale>
<asrwt>0</asrwt>
<pdfrwt beam="1">  1        2 0.38440863E+00 0.26432810E+03</pdfrwt>
<pdfrwt beam="2">  1       -2 0.35001105E-01 0.26432810E+03</pdfrwt>
<totfact> 0.31330308E+01</totfact>
</mgrwt>
</event>
<event>
 4    1  0.4639964E-008  0.6031588E+03  0.7818608E-02  0.9898874E-01
          2   -1    0    0  501    0  0.00000000000E+00  0.00000000000E+00  0.11972027175E+04  0.11972027175E+04  0.25500000000E-02 0. -1.
         -2   -1    0    0    0  501 -0.00000000000E+00 -0.00000000000E+00 -0.51232021805E+03  0.51232021805E+03  0.25500000000E-02 0.  1.
    8880022    1    1    2    0    0 -0.10173241426E+03 -0.57450794270E+03 -0.20277612723E+03  0.63633220187E+03  0.15294330000E+03 0.  1.
    8880022    1    1    2    0    0  0.10173241426E+03  0.57450794270E+03  0.88765862670E+03  0.10731907337E+04  0.15294330000E+03 0.  0.
<mgrwt>
<rscale>  0 0.60315878E+03</rscale>
<asrwt>0</asrwt>
<pdfrwt beam="1">  1        2 0.18418503E+00 0.60315878E+03</pdfrwt>
<pdfrwt beam="2">  1       -2 0.78818495E-01 0.60315878E+03</pdfrwt>
<totfact> 0.28167900E+01</totfact>
</mgrwt>
</event>
<event>
 4    1  0.4639964E-008  0.7125605E+03  0.7818608E-02  0.9695990E-01
          2   -1    0    0  501    0  0.00000000000E+00  0.00000000000E+00  0.14933066283E+04  0.14933066283E+04  0.25500000000E-02 0. -1.
         -2   -1    0    0    0  501 -0.00000000000E+00 -0.00000000000E+00 -0.47041602906E+03  0.47041602906E+03  0.25500000000E-02 0.  1.
    8880022    1    1    2    0    0 -0.57829645251E+03  0.38720023103E+03  0.10284021397E+04  0.12511408473E+04  0.15294330000E+03 0. -1.
    8880022    1    1    2    0    0  0.57829645251E+03 -0.38720023103E+03 -0.55115404580E+01  0.71258181004E+03  0.15294330000E+03 0.  0.
<mgrwt>
<rscale>  0 0.71256049E+03</rscale>
<asrwt>0</asrwt>
<pdfrwt beam="1">  1        2 0.22973948E+00 0.71256049E+03</pdfrwt>
<pdfrwt beam="2">  1       -2 0.72371697E-01 0.71256049E+03</pdfrwt>
<totfact> 0.22752829E+01</totfact>
</mgrwt>
</event>
<event>
 4    1  0.4639964E-008  0.2888512E+03  0.7818608E-02  0.1090950E+00
          2   -1    0    0  501    0  0.00000000000E+00  0.00000000000E+00  0.12437573813E+04  0.12437573813E+04  0.25500000000E-02 0. -1.
         -2   -1    0    0    0  501 -0.00000000000E+00 -0.00000000000E+00 -0.12459355948E+03  0.12459355951E+03  0.25500000000E-02 0.  1.
    8880022    1    1    2    0    0  0.45822987272E+02 -0.24071482153E+03  0.10244110586E+04  0.10643556931E+04  0.15294330000E+03 0.  0.
    8880022    1    1    2    0    0 -0.45822987272E+02  0.24071482153E+03  0.94752763207E+02  0.30399524768E+03  0.15294330000E+03 0.  0.
<mgrwt>
<rscale>  0 0.28885122E+03</rscale>
<asrwt>0</asrwt>
<pdfrwt beam="1">  1        2 0.19134729E+00 0.28885122E+03</pdfrwt>
<pdfrwt beam="2">  1       -2 0.19168240E-01 0.28885122E+03</pdfrwt>
<totfact> 0.42823825E+02</totfact>
</mgrwt>
</event>
<event>
 4    1  0.4639964E-008  0.6063012E+03  0.7818608E-02  0.9892419E-01
          2   -1    0    0  501    0  0.00000000000E+00  0.00000000000E+00  0.12846455941E+04  0.12846455941E+04  0.25500000000E-02 0. -1.
         -2   -1    0    0    0  501 -0.00000000000E+00 -0.00000000000E+00 -0.39265654858E+03  0.39265654858E+03  0.25500000000E-02 0.  1.
    8880022    1    1    2    0    0  0.43372503927E+03  0.39508494553E+03  0.88277507495E+03  0.10709309081E+04  0.15294330000E+03 0.  0.
    8880022    1    1    2    0    0 -0.43372503927E+03 -0.39508494553E+03  0.92139705407E+01  0.60637123459E+03  0.15294330000E+03 0.  0.
<mgrwt>
<rscale>  0 0.60630123E+03</rscale>
<asrwt>0</asrwt>
<pdfrwt beam="1">  1        2 0.19763778E+00 0.60630123E+03</pdfrwt>
<pdfrwt beam="2">  1       -2 0.60408700E-01 0.60630123E+03</pdfrwt>
<totfact> 0.44614601E+01</totfact>
</mgrwt>
</event>
<event>
 4    1  0.4639964E-008  0.1576106E+03  0.7818608E-02  0.1191421E+00
         -2   -1    0    0    0  501 -0.00000000000E+00  0.00000000000E+00  0.23402615221E+03  0.23402615223E+03  0.25500000000E-02 0.  1.
          2   -1    0    0  501    0  0.00000000000E+00 -0.00000000000E+00 -0.43710796269E+03  0.43710796270E+03  0.25500000000E-02 0. -1.
    8880022    1    1    2    0    0 -0.78285865167E+01 -0.37258034414E+02 -0.39353465218E+03  0.42392289791E+03  0.15294330000E+03 0. -1.
    8880022    1    1    2    0    0  0.78285865167E+01  0.37258034414E+02  0.19045284169E+03  0.24721121702E+03  0.15294330000E+03 0.  0.
<mgrwt>
<rscale>  0 0.15761060E+03</rscale>
<asrwt>0</asrwt>
<pdfrwt beam="1">  1        2 0.67247379E-01 0.15761060E+03</pdfrwt>
<pdfrwt beam="2">  1       -2 0.36004023E-01 0.15761060E+03</pdfrwt>
<totfact> 0.53041359E+02</totfact>
</mgrwt>
</event>
<event>
 4    1  0.4639964E-008  0.6484661E+03  0.7818608E-02  0.9809662E-01
         -2   -1    0    0    0  501 -0.00000000000E+00  0.00000000000E+00  0.35068939066E+03  0.35068939067E+03  0.25500000000E-02 0.  1.
          2   -1    0    0  501    0  0.00000000000E+00 -0.00000000000E+00 -0.20933047020E+04  0.20933047020E+04  0.25500000000E-02 0. -1.
    8880022    1    1    2    0    0 -0.36363990542E+03 -0.51466752098E+03 -0.16699911901E+04  0.17914739367E+04  0.15294330000E+03 0.  0.
    8880022    1    1    2    0    0  0.36363990542E+03  0.51466752098E+03 -0.72624121296E+02  0.65252015599E+03  0.15294330000E+03 0.  0.
<mgrwt>
<rscale>  0 0.64846611E+03</rscale>
<asrwt>0</asrwt>
<pdfrwt beam="1">  1        2 0.32204687E+00 0.64846611E+03</pdfrwt>
<pdfrwt beam="2">  1       -2 0.53952215E-01 0.64846611E+03</pdfrwt>
<totfact> 0.20179994E+01</totfact>
</mgrwt>
</event>
<event>
 4    1  0.4639964E-008  0.6647265E+03  0.7818608E-02  0.9779532E-01
          2   -1    0    0  501    0  0.00000000000E+00  0.00000000000E+00  0.12623604380E+04  0.12623604380E+04  0.25500000000E-02 0. -1.
         -2   -1    0    0    0  501 -0.00000000000E+00 -0.00000000000E+00 -0.62681594238E+03  0.62681594239E+03  0.25500000000E-02 0.  1.
    8880022    1    1    2    0    0  0.19675657237E+03 -0.61624384333E+03  0.94546370338E+03  0.11557520887E+04  0.15294330000E+03 0.  0.
    8880022    1    1    2    0    0 -0.19675657237E+03  0.61624384333E+03 -0.30991920777E+03  0.73342429164E+03  0.15294330000E+03 0.  0.
<mgrwt>
<rscale>  0 0.66472647E+03</rscale>
<asrwt>0</asrwt>
<pdfrwt beam="1">  1        2 0.19420930E+00 0.66472647E+03</pdfrwt>
<pdfrwt beam="2">  1       -2 0.96433223E-01 0.66472647E+03</pdfrwt>
<totfact> 0.16141104E+01</totfact>
</mgrwt>
</event>
<event>
 4    1  0.4639964E-008  0.3466384E+03  0.7818608E-02  0.1064003E+00
         -2   -1    0    0    0  501 -0.00000000000E+00  0.00000000000E+00  0.59616732334E+03  0.59616732335E+03  0.25500000000E-02 0.  1.
          2   -1    0    0  501    0  0.00000000000E+00 -0.00000000000E+00 -0.53672014343E+03  0.53672014344E+03  0.25500000000E-02 0. -1.
    8880022    1    1    2    0    0 -0.24474915881E+03  0.19200103635E+03  0.47734902408E+03  0.58993244740E+03  0.15294330000E+03 0.  0.
    8880022    1    1    2    0    0  0.24474915881E+03 -0.19200103635E+03 -0.41790184417E+03  0.54295501938E+03  0.15294330000E+03 0.  0.
<mgrwt>
<rscale>  0 0.34663843E+03</rscale>
<asrwt>0</asrwt>
<pdfrwt beam="1">  1        2 0.82572329E-01 0.34663843E+03</pdfrwt>
<pdfrwt beam="2">  1       -2 0.91718050E-01 0.34663843E+03</pdfrwt>
<totfact> 0.60190870E+01</totfact>
</mgrwt>
</event>
<event>
 4    1  0.4639964E-008  0.2659460E+03  0.7818608E-02  0.1103622E+00
          2   -1    0    0  501    0  0.00000000000E+00  0.00000000000E+00  0.13071733654E+04  0.13071733654E+04  0.25500000000E-02 0. -1.
         -2   -1    0    0    0  501 -0.00000000000E+00 -0.00000000000E+00 -0.19343271940E+03  0.19343271941E+03  0.25500000000E-02 0.  1.
    8880022    1    1    2    0    0  0.16626904416E+03 -0.14032184493E+03  0.11936472802E+04  0.12229150003E+04  0.15294330000E+03 0.  0.
    8880022    1    1    2    0    0 -0.16626904416E+03  0.14032184493E+03 -0.79906634271E+02  0.27769108453E+03  0.15294330000E+03 0.  1.
<mgrwt>
<rscale>  0 0.26594599E+03</rscale>
<asrwt>0</asrwt>
<pdfrwt beam="1">  1        2 0.20110360E+00 0.26594599E+03</pdfrwt>
<pdfrwt beam="2">  1       -2 0.29758880E-01 0.26594599E+03</pdfrwt>
<totfact> 0.18244247E+02</totfact>
</mgrwt>
</event>
<event>
 4    1  0.4639964E-008  0.5888010E+03  0.7818608E-02  0.9928917E-01
         -2   -1    0    0    0  501 -0.00000000000E+00  0.00000000000E+00  0.56911228750E+03  0.56911228751E+03  0.25500000000E-02 0.  1.
          2   -1    0    0  501    0  0.00000000000E+00 -0.00000000000E+00 -0.11180752112E+04  0.11180752112E+04  0.25500000000E-02 0. -1.
    8880022    1    1    2    0    0 -0.74582410720E+02  0.56367760376E+03 -0.84361728139E+03  0.10287743909E+04  0.15294330000E+03 0.  0.
    8880022    1    1    2    0    0  0.74582410720E+02 -0.56367760376E+03  0.29465435769E+03  0.65841310777E+03  0.15294330000E+03 0.  0.
<mgrwt>
<rscale>  0 0.58880101E+03</rscale>
<asrwt>0</asrwt>
<pdfrwt beam="1">  1        2 0.17201157E+00 0.58880101E+03</pdfrwt>
<pdfrwt beam="2">  1       -2 0.87555737E-01 0.58880101E+03</pdfrwt>
<totfact> 0.24804523E+01</totfact>
</mgrwt>
</event>
<event>
 4    1  0.4639964E-008  0.3758959E+03  0.7818608E-02  0.1052461E+00
          2   -1    0    0  501    0  0.00000000000E+00  0.00000000000E+00  0.35816378081E+03  0.35816378082E+03  0.25500000000E-02 0. -1.
         -2   -1    0    0    0  501 -0.00000000000E+00 -0.00000000000E+00 -0.99051087962E+03  0.99051087962E+03  0.25500000000E-02 0.  1.
    8880022    1    1    2    0    0 -0.33091575475E+03 -0.91656246132E+02 -0.83925881658E+03  0.91959399651E+03  0.15294330000E+03 0.  1.
    8880022    1    1    2    0    0  0.33091575475E+03  0.91656246132E+02  0.20691171777E+03  0.42908066393E+03  0.15294330000E+03 0.  0.
<mgrwt>
<rscale>  0 0.37589594E+03</rscale>
<asrwt>0</asrwt>
<pdfrwt beam="1">  1        2 0.55102120E-01 0.37589594E+03</pdfrwt>
<pdfrwt beam="2">  1       -2 0.15238629E+00 0.37589594E+03</pdfrwt>
<totfact> 0.27233362E+01</totfact>
</mgrwt>
</event>
<event>
 4    1  0.4639964E-008  0.3327068E+03  0.7818608E-02  0.1069945E+00
          2   -1    0    0  501    0  0.00000000000E+00  0.00000000000E+00  0.46671745140E+03  0.46671745141E+03  0.25500000000E-02 0. -1.
         -2   -1    0    0    0  501 -0.00000000000E+00 -0.00000000000E+00 -0.63752000690E+03  0.63752000690E+03  0.25500000000E-02 0.  1.
    8880022    1    1    2    0    0 -0.29459987062E+03 -0.22651394787E+02 -0.52292605228E+03  0.61979470684E+03  0.15294330000E+03 0.  0.
    8880022    1    1    2    0    0  0.29459987062E+03  0.22651394787E+02  0.35212349679E+03  0.48444275148E+03  0.15294330000E+03 0.  0.
<mgrwt>
<rscale>  0 0.33270681E+03</rscale>
<asrwt>0</asrwt>
<pdfrwt beam="1">  1        2 0.71802685E-01 0.33270681E+03</pdfrwt>
<pdfrwt beam="2">  1       -2 0.98080001E-01 0.33270681E+03</pdfrwt>
<totfact> 0.60530738E+01</totfact>
</mgrwt>
</event>
<event>
 4    1  0.4639964E-008  0.9444226E+03  0.7818608E-02  0.9371693E-01
         -2   -1    0    0    0  501 -0.00000000000E+00  0.00000000000E+00  0.43740155602E+03  0.43740155602E+03  0.25500000000E-02 0.  1.
          2   -1    0    0  501    0  0.00000000000E+00 -0.00000000000E+00 -0.27285673866E+04  0.27285673866E+04  0.25500000000E-02 0. -1.
    8880022    1    1    2    0    0 -0.93164203007E+03 -0.24199444737E+02 -0.19412759638E+04  0.21588159963E+04  0.15294330000E+03 0.  0.
    8880022    1    1    2    0    0  0.93164203007E+03  0.24199444737E+02 -0.34988986676E+03  0.10071529463E+04  0.15294330000E+03 0.  0.
<mgrwt>
<rscale>  0 0.94442265E+03</rscale>
<asrwt>0</asrwt>
<pdfrwt beam="1">  1        2 0.41977959E+00 0.94442265E+03</pdfrwt>
<pdfrwt beam="2">  1       -2 0.67292549E-01 0.94442265E+03</pdfrwt>
<totfact> 0.52955047E+00</totfact>
</mgrwt>
</event>
<event>
 4    1  0.4639964E-008  0.2416615E+03  0.7818608E-02  0.1118691E+00
         -2   -1    0    0    0  501 -0.00000000000E+00  0.00000000000E+00  0.15377003310E+03  0.15377003312E+03  0.25500000000E-02 0.  1.
          2   -1    0    0  501    0  0.00000000000E+00 -0.00000000000E+00 -0.18419354222E+04  0.18419354222E+04  0.25500000000E-02 0. -1.
    8880022    1    1    2    0    0  0.17915132173E+03 -0.53976148121E+02  0.44964014985E+02  0.24580894268E+03  0.15294330000E+03 0.  0.
    8880022    1    1    2    0    0 -0.17915132173E+03  0.53976148121E+02 -0.17331294041E+04  0.17498965126E+04  0.15294330000E+03 0.  0.
<mgrwt>
<rscale>  0 0.24166149E+03</rscale>
<asrwt>0</asrwt>
<pdfrwt beam="1">  1        2 0.28337467E+00 0.24166149E+03</pdfrwt>
<pdfrwt beam="2">  1       -2 0.23656929E-01 0.24166149E+03</pdfrwt>
<totfact> 0.14337988E+02</totfact>
</mgrwt>
</event>
<event>
 4    1  0.5187387E-008  0.6008851E+03  0.7818608E-02  0.9903571E-01
          2   -1    0    0  501    0  0.00000000000E+00  0.00000000000E+00  0.14747888935E+04  0.14747888935E+04  0.25500000000E-02 0. -1.
         -2   -1    0    0    0  501 -0.00000000000E+00 -0.00000000000E+00 -0.18195542518E+04  0.18195542518E+04  0.25500000000E-02 0.  1.
    8880022    1    1    2    0    0 -0.11748471484E+03  0.56909454614E+03  0.13599726899E+04  0.14868048395E+04  0.15294330000E+03 0.  0.
    8880022    1    1    2    0    0  0.11748471484E+03 -0.56909454614E+03 -0.17047380483E+04  0.18075383058E+04  0.15294330000E+03 0.  0.
<mgrwt>
<rscale>  0 0.60088511E+03</rscale>
<asrwt>0</asrwt>
<pdfrwt beam="1">  1        2 0.22689060E+00 0.60088511E+03</pdfrwt>
<pdfrwt beam="2">  1       -2 0.27993142E+00 0.60088511E+03</pdfrwt>
<totfact> 0.60128207E-01</totfact>
</mgrwt>
</event>
<event>
 4    1  0.4639964E-008  0.5273016E+03  0.7818608E-02  0.1006889E+00
         -2   -1    0    0    0  501 -0.00000000000E+00  0.00000000000E+00  0.16600312106E+04  0.16600312106E+04  0.25500000000E-02 0.  1.
          2   -1    0    0  501    0  0.00000000000E+00 -0.00000000000E+00 -0.34795952092E+03  0.34795952093E+03  0.25500000000E-02 0. -1.
    8880022    1    1    2    0    0 -0.47691548653E+03  0.16494513456E+03  0.13790774025E+04  0.14764489201E+04  0.15294330000E+03 0.  0.
    8880022    1    1    2    0    0  0.47691548653E+03 -0.16494513456E+03 -0.67005712803E+02  0.53154181140E+03  0.15294330000E+03 0.  0.
<mgrwt>
<rscale>  0 0.52730156E+03</rscale>
<asrwt>0</asrwt>
<pdfrwt beam="1">  1        2 0.53532234E-01 0.52730156E+03</pdfrwt>
<pdfrwt beam="2">  1       -2 0.25538942E+00 0.52730156E+03</pdfrwt>
<totfact> 0.58863371E+00</totfact>
</mgrwt>
</event>
<event>
 4    1  0.4639964E-008  0.4317493E+03  0.7818608E-02  0.1033309E+00
         -2   -1    0    0    0  501 -0.00000000000E+00  0.00000000000E+00  0.17052303925E+03  0.17052303927E+03  0.25500000000E-02 0.  1.
          2   -1    0    0  501    0  0.00000000000E+00 -0.00000000000E+00 -0.11551142664E+04  0.11551142664E+04  0.25500000000E-02 0. -1.
    8880022    1    1    2    0    0  0.40263652410E+03  0.29993617978E+02 -0.33878118561E+03  0.54879880867E+03  0.15294330000E+03 0.  0.
    8880022    1    1    2    0    0 -0.40263652410E+03 -0.29993617978E+02 -0.64581004155E+03  0.77683849701E+03  0.15294330000E+03 0.  0.
<mgrwt>
<rscale>  0 0.43174928E+03</rscale>
<asrwt>0</asrwt>
<pdfrwt beam="1">  1        2 0.17770988E+00 0.43174928E+03</pdfrwt>
<pdfrwt beam="2">  1       -2 0.26234314E-01 0.43174928E+03</pdfrwt>
<totfact> 0.27360299E+02</totfact>
</mgrwt>
</event>
<event>
 4    1  0.4639964E-008  0.5813559E+03  0.7818608E-02  0.9944860E-01
          2   -1    0    0  501    0  0.00000000000E+00  0.00000000000E+00  0.13192463725E+04  0.13192463726E+04  0.25500000000E-02 0. -1.
         -2   -1    0    0    0  501 -0.00000000000E+00 -0.00000000000E+00 -0.10029057169E+04  0.10029057169E+04  0.25500000000E-02 0.  1.
    8880022    1    1    2    0    0 -0.12643687583E+03 -0.54644007328E+03  0.11600346873E+04  0.12975573845E+04  0.15294330000E+03 0.  0.
    8880022    1    1    2    0    0  0.12643687583E+03  0.54644007328E+03 -0.84369403171E+03  0.10245947050E+04  0.15294330000E+03 0.  0.
<mgrwt>
<rscale>  0 0.58135591E+03</rscale>
<asrwt>0</asrwt>
<pdfrwt beam="1">  1        2 0.20296098E+00 0.58135591E+03</pdfrwt>
<pdfrwt beam="2">  1       -2 0.15429319E+00 0.58135591E+03</pdfrwt>
<totfact> 0.47145318E+00</totfact>
</mgrwt>
</event>
<event>
 4    1  0.4639964E-008  0.8347701E+03  0.7818608E-02  0.9511009E-01
          2   -1    0    0  501    0  0.00000000000E+00  0.00000000000E+00  0.31429414027E+04  0.31429414027E+04  0.25500000000E-02 0. -1.
         -2   -1    0    0    0  501 -0.00000000000E+00 -0.00000000000E+00 -0.33954488861E+03  0.33954488862E+03  0.25500000000E-02 0.  1.
    8880022    1    1    2    0    0 -0.73059410150E+03  0.37374008845E+03  0.24274359851E+04  0.25669605586E+04  0.15294330000E+03 0.  0.
    8880022    1    1    2    0    0  0.73059410150E+03 -0.37374008845E+03  0.37596052904E+03  0.91552573272E+03  0.15294330000E+03 0.  0.
<mgrwt>
<rscale>  0 0.83477006E+03</rscale>
<asrwt>0</asrwt>
<pdfrwt beam="1">  1        2 0.48352944E+00 0.83477006E+03</pdfrwt>
<pdfrwt beam="2">  1       -2 0.52237676E-01 0.83477006E+03</pdfrwt>
<totfact> 0.51492888E+00</totfact>
</mgrwt>
</event>
<event>
 4    1  0.4639964E-008  0.5927268E+03  0.7818608E-02  0.9920612E-01
         -2   -1    0    0    0  501 -0.00000000000E+00  0.00000000000E+00  0.27506403092E+03  0.27506403093E+03  0.25500000000E-02 0.  1.
          2   -1    0    0  501    0  0.00000000000E+00 -0.00000000000E+00 -0.14344006086E+04  0.14344006086E+04  0.25500000000E-02 0. -1.
    8880022    1    1    2    0    0  0.38664683249E+03  0.42241881519E+03 -0.29675379323E+03  0.66286340622E+03  0.15294330000E+03 0.  0.
    8880022    1    1    2    0    0 -0.38664683249E+03 -0.42241881519E+03 -0.86258278442E+03  0.10466012333E+04  0.15294330000E+03 0.  0.
<mgrwt>
<rscale>  0 0.59272682E+03</rscale>
<asrwt>0</asrwt>
<pdfrwt beam="1">  1        2 0.22067701E+00 0.59272682E+03</pdfrwt>
<pdfrwt beam="2">  1       -2 0.42317544E-01 0.59272682E+03</pdfrwt>
<totfact> 0.75849556E+01</totfact>
</mgrwt>
</event>
<event>
 4    1  0.4639964E-008  0.9942951E+03  0.7818608E-02  0.9314824E-01
         -2   -1    0    0    0  501 -0.00000000000E+00  0.00000000000E+00  0.13381373142E+04  0.13381373142E+04  0.25500000000E-02 0.  1.
          2   -1    0    0  501    0  0.00000000000E+00 -0.00000000000E+00 -0.85786723053E+03  0.85786723053E+03  0.25500000000E-02 0. -1.
    8880022    1    1    2    0    0  0.87823724763E+03  0.44037527940E+03  0.64918841915E+03  0.11874629705E+04  0.15294330000E+03 0.  0.
    8880022    1    1    2    0    0 -0.87823724763E+03 -0.44037527940E+03 -0.16891833547E+03  0.10085415742E+04  0.15294330000E+03 0.  0.
<mgrwt>
<rscale>  0 0.99429508E+03</rscale>
<asrwt>0</asrwt>
<pdfrwt beam="1">  1        2 0.13197957E+00 0.99429508E+03</pdfrwt>
<pdfrwt beam="2">  1       -2 0.20586728E+00 0.99429508E+03</pdfrwt>
<totfact> 0.37917263E+00</totfact>
</mgrwt>
</event>
<event>
 4    1  0.4639964E-008  0.6058389E+03  0.7818608E-02  0.9893366E-01
          2   -1    0    0  501    0  0.00000000000E+00  0.00000000000E+00  0.23157584888E+04  0.23157584888E+04  0.25500000000E-02 0. -1.
         -2   -1    0    0    0  501 -0.00000000000E+00 -0.00000000000E+00 -0.20115176855E+03  0.20115176856E+03  0.25500000000E-02 0.  1.
    8880022    1    1    2    0    0 -0.26662997904E+03 -0.52207041062E+03  0.16368117608E+04  0.17453347681E+04  0.15294330000E+03 0.  0.
    8880022    1    1    2    0    0  0.26662997904E+03  0.52207041062E+03  0.47779495946E+03  0.77157548929E+03  0.15294330000E+03 0.  0.
<mgrwt>
<rscale>  0 0.60583885E+03</rscale>
<asrwt>0</asrwt>
<pdfrwt beam="1">  1        2 0.35627054E+00 0.60583885E+03</pdfrwt>
<pdfrwt beam="2">  1       -2 0.30946426E-01 0.60583885E+03</pdfrwt>
<totfact> 0.45491959E+01</totfact>
</mgrwt>
</event>
<event>
 4    1  0.4639964E-008  0.5901062E+03  0.7818608E-02  0.9926148E-01
          2   -1    0    0  501    0  0.00000000000E+00  0.00000000000E+00  0.12236578612E+04  0.12236578612E+04  0.25500000000E-02 0. -1.
         -2   -1    0    0    0  501 -0.00000000000E+00 -0.00000000000E+00 -0.59355758053E+03  0.59355758054E+03  0.25500000000E-02 0.  1.
    8880022    1    1    2    0    0  0.44576076504E+03  0.35514926927E+03  0.97060695852E+03  0.11359151307E+04  0.15294330000E+03 0.  0.
    8880022    1    1    2    0    0 -0.44576076504E+03 -0.35514926927E+03 -0.34050667790E+03  0.68130031104E+03  0.15294330000E+03 0.  0.
<mgrwt>
<rscale>  0 0.59010619E+03</rscale>
<asrwt>0</asrwt>
<pdfrwt beam="1">  1        2 0.18825505E+00 0.59010619E+03</pdfrwt>
<pdfrwt beam="2">  1       -2 0.91316552E-01 0.59010619E+03</pdfrwt>
<totfact> 0.19497039E+01</totfact>
</mgrwt>
</event>
<event>
 4    1  0.4639964E-008  0.6941557E+03  0.7818608E-02  0.9727279E-01
          2   -1    0    0  501    0  0.00000000000E+00  0.00000000000E+00  0.11938315900E+04  0.11938315900E+04  0.25500000000E-02 0. -1.
         -2   -1    0    0    0  501 -0.00000000000E+00 -0.00000000000E+00 -0.45948404322E+03  0.45948404323E+03  0.25500000000E-02 0.  1.
    8880022    1    1    2    0    0  0.45292143219E+03  0.50331167198E+03  0.78927385217E+02  0.69862840483E+03  0.15294330000E+03 0.  0.
    8880022    1    1    2    0    0 -0.45292143219E+03 -0.50331167198E+03  0.65542016159E+03  0.95468722842E+03  0.15294330000E+03 0.  0.
<mgrwt>
<rscale>  0 0.69415569E+03</rscale>
<asrwt>0</asrwt>
<pdfrwt beam="1">  1        2 0.18366640E+00 0.69415569E+03</pdfrwt>
<pdfrwt beam="2">  1       -2 0.70689854E-01 0.69415569E+03</pdfrwt>
<totfact> 0.35601320E+01</totfact>
</mgrwt>
</event>
<event>
 4    1  0.4639964E-008  0.1239079E+04  0.7818608E-02  0.9079322E-01
         -2   -1    0    0    0  501 -0.00000000000E+00  0.00000000000E+00  0.65892633976E+03  0.65892633977E+03  0.25500000000E-02 0.  1.
          2   -1    0    0  501    0  0.00000000000E+00 -0.00000000000E+00 -0.27302174737E+04  0.27302174737E+04  0.25500000000E-02 0. -1.
    8880022    1    1    2    0    0 -0.91585002392E+03 -0.82045367780E+03 -0.38687082168E+03  0.12980701789E+04  0.15294330000E+03 0.  0.
    8880022    1    1    2    0    0  0.91585002392E+03  0.82045367780E+03 -0.16844203122E+04  0.20910736345E+04  0.15294330000E+03 0.  0.
<mgrwt>
<rscale>  0 0.12390792E+04</rscale>
<asrwt>0</asrwt>
<pdfrwt beam="1">  1        2 0.42003345E+00 0.12390792E+04</pdfrwt>
<pdfrwt beam="2">  1       -2 0.10137328E+00 0.12390792E+04</pdfrwt>
<totfact> 0.19991889E+00</totfact>
</mgrwt>
</event>
<event>
 4    1  0.4639964E-008  0.5274412E+03  0.7818608E-02  0.1006855E+00
          2   -1    0    0  501    0  0.00000000000E+00  0.00000000000E+00  0.18005431226E+04  0.18005431226E+04  0.25500000000E-02 0. -1.
         -2   -1    0    0    0  501 -0.00000000000E+00 -0.00000000000E+00 -0.55674299689E+03  0.55674299690E+03  0.25500000000E-02 0.  1.
    8880022    1    1    2    0    0 -0.23829804108E+03  0.44499052857E+03 -0.37993468150E+03  0.65003426226E+03  0.15294330000E+03 0.  0.
    8880022    1    1    2    0    0  0.23829804108E+03 -0.44499052857E+03  0.16237348072E+04  0.17072518572E+04  0.15294330000E+03 0.  0.
<mgrwt>
<rscale>  0 0.52744116E+03</rscale>
<asrwt>0</asrwt>
<pdfrwt beam="1">  1        2 0.27700663E+00 0.52744116E+03</pdfrwt>
<pdfrwt beam="2">  1       -2 0.85652769E-01 0.52744116E+03</pdfrwt>
<totfact> 0.10936141E+01</totfact>
</mgrwt>
</event>
<event>
 4    1  0.4639964E-008  0.6748138E+03  0.7818608E-02  0.9761301E-01
         -2   -1    0    0    0  501 -0.00000000000E+00  0.00000000000E+00  0.41138699715E+03  0.41138699716E+03  0.25500000000E-02 0.  1.
          2   -1    0    0  501    0  0.00000000000E+00 -0.00000000000E+00 -0.16509206418E+04  0.16509206418E+04  0.25500000000E-02 0. -1.
    8880022    1    1    2    0    0 -0.32414878980E+02  0.65645357545E+03 -0.12116812390E+04  0.13869192835E+04  0.15294330000E+03 0.  0.
    8880022    1    1    2    0    0  0.32414878980E+02 -0.65645357545E+03 -0.27852405622E+02  0.67538835540E+03  0.15294330000E+03 0.  0.
<mgrwt>
<rscale>  0 0.67481381E+03</rscale>
<asrwt>0</asrwt>
<pdfrwt beam="1">  1        2 0.25398779E+00 0.67481381E+03</pdfrwt>
<pdfrwt beam="2">  1       -2 0.63290308E-01 0.67481381E+03</pdfrwt>
<totfact> 0.25024805E+01</totfact>
</mgrwt>
</event>
<event>
 4    1  0.4639964E-008  0.8812399E+03  0.7818608E-02  0.9449341E-01
         -2   -1    0    0    0  501 -0.00000000000E+00  0.00000000000E+00  0.17514588895E+04  0.17514588895E+04  0.25500000000E-02 0.  1.
          2   -1    0    0  501    0  0.00000000000E+00 -0.00000000000E+00 -0.71714570134E+03  0.71714570134E+03  0.25500000000E-02 0. -1.
    8880022    1    1    2    0    0  0.73843833909E+03  0.45596154830E+03 -0.24544450336E+03  0.91478236286E+03  0.15294330000E+03 0.  0.
    8880022    1    1    2    0    0 -0.73843833909E+03 -0.45596154830E+03  0.12797576915E+04  0.15538222280E+04  0.15294330000E+03 0.  0.
<mgrwt>
<rscale>  0 0.88123990E+03</rscale>
<asrwt>0</asrwt>
<pdfrwt beam="1">  1        2 0.11033011E+00 0.88123990E+03</pdfrwt>
<pdfrwt beam="2">  1       -2 0.26945521E+00 0.88123990E+03</pdfrwt>
<totfact> 0.19708703E+00</totfact>
</mgrwt>
</event>
<event>
 4    1  0.4639964E-008  0.5661715E+03  0.7818608E-02  0.9978187E-01
         -2   -1    0    0    0  501 -0.00000000000E+00  0.00000000000E+00  0.34931248433E+03  0.34931248434E+03  0.25500000000E-02 0.  1.
          2   -1    0    0  501    0  0.00000000000E+00 -0.00000000000E+00 -0.10605610894E+04  0.10605610894E+04  0.25500000000E-02 0. -1.
    8880022    1    1    2    0    0  0.41337296383E+03  0.35536078044E+03 -0.96862670465E+02  0.57439752911E+03  0.15294330000E+03 0.  0.
    8880022    1    1    2    0    0 -0.41337296383E+03 -0.35536078044E+03 -0.61438593459E+03  0.83547604462E+03  0.15294330000E+03 0.  0.
<mgrwt>
<rscale>  0 0.56617148E+03</rscale>
<asrwt>0</asrwt>
<pdfrwt beam="1">  1        2 0.16316324E+00 0.56617148E+03</pdfrwt>
<pdfrwt beam="2">  1       -2 0.53740383E-01 0.56617148E+03</pdfrwt>
<totfact> 0.77644822E+01</totfact>
</mgrwt>
</event>
<event>
 4    1  0.4639964E-008  0.5944065E+03  0.7818608E-02  0.9917079E-01
         -2   -1    0    0    0  501 -0.00000000000E+00  0.00000000000E+00  0.56455953678E+03  0.56455953679E+03  0.25500000000E-02 0.  1.
          2   -1    0    0  501    0  0.00000000000E+00 -0.00000000000E+00 -0.96007535506E+03  0.96007535506E+03  0.25500000000E-02 0. -1.
    8880022    1    1    2    0    0 -0.57269693392E+03  0.44108992033E+02  0.25203751976E+03  0.64563298063E+03  0.15294330000E+03 0.  0.
    8880022    1    1    2    0    0  0.57269693392E+03 -0.44108992033E+02 -0.64755333804E+03  0.87900191122E+03  0.15294330000E+03 0.  0.
<mgrwt>
<rscale>  0 0.59440646E+03</rscale>
<asrwt>0</asrwt>
<pdfrwt beam="1">  1        2 0.14770390E+00 0.59440646E+03</pdfrwt>
<pdfrwt beam="2">  1       -2 0.86855313E-01 0.59440646E+03</pdfrwt>
<totfact> 0.31664354E+01</totfact>
</mgrwt>
</event>
<event>
 4    1  0.4639964E-008  0.2370589E+03  0.7818608E-02  0.1121768E+00
         -2   -1    0    0    0  501 -0.00000000000E+00  0.00000000000E+00  0.24428857585E+03  0.24428857586E+03  0.25500000000E-02 0.  1.
          2   -1    0    0  501    0  0.00000000000E+00 -0.00000000000E+00 -0.29577630534E+03  0.29577630535E+03  0.25500000000E-02 0. -1.
    8880022    1    1    2    0    0 -0.17878891637E+03 -0.28979566188E+02  0.10155545044E+03  0.25789620859E+03  0.15294330000E+03 0.  0.
    8880022    1    1    2    0    0  0.17878891637E+03  0.28979566188E+02 -0.15304317994E+03  0.28216867263E+03  0.15294330000E+03 0.  0.
<mgrwt>
<rscale>  0 0.23705895E+03</rscale>
<asrwt>0</asrwt>
<pdfrwt beam="1">  1        2 0.45504047E-01 0.23705895E+03</pdfrwt>
<pdfrwt beam="2">  1       -2 0.37582858E-01 0.23705895E+03</pdfrwt>
<totfact> 0.74666941E+02</totfact>
</mgrwt>
</event>
<event>
 4    1  0.4639964E-008  0.2492091E+03  0.7818608E-02  0.1113806E+00
         -2   -1    0    0    0  501 -0.00000000000E+00  0.00000000000E+00  0.99230912794E+03  0.99230912794E+03  0.25500000000E-02 0.  1.
          2   -1    0    0  501    0  0.00000000000E+00 -0.00000000000E+00 -0.55546125823E+03  0.55546125824E+03  0.25500000000E-02 0. -1.
    8880022    1    1    2    0    0  0.47676407006E+02 -0.19089389143E+03 -0.51055995744E+03  0.56813435095E+03  0.15294330000E+03 0.  0.
    8880022    1    1    2    0    0 -0.47676407006E+02  0.19089389143E+03  0.94740782714E+03  0.97963603523E+03  0.15294330000E+03 0.  0.
<mgrwt>
<rscale>  0 0.24920909E+03</rscale>
<asrwt>0</asrwt>
<pdfrwt beam="1">  1        2 0.85455580E-01 0.24920909E+03</pdfrwt>
<pdfrwt beam="2">  1       -2 0.15266294E+00 0.24920909E+03</pdfrwt>
<totfact> 0.17052138E+01</totfact>
</mgrwt>
</event>
<event>
 4    1  0.4639964E-008  0.3068361E+03  0.7818608E-02  0.1081872E+00
         -2   -1    0    0    0  501 -0.00000000000E+00  0.00000000000E+00  0.63428466848E+03  0.63428466848E+03  0.25500000000E-02 0.  1.
          2   -1    0    0  501    0  0.00000000000E+00 -0.00000000000E+00 -0.25859807099E+03  0.25859807100E+03  0.25500000000E-02 0. -1.
    8880022    1    1    2    0    0 -0.57541562257E+02  0.25970309938E+03 -0.10354691960E+03  0.32383691696E+03  0.15294330000E+03 0. -1.
    8880022    1    1    2    0    0  0.57541562257E+02 -0.25970309938E+03  0.47923351708E+03  0.56904582252E+03  0.15294330000E+03 0.  0.
<mgrwt>
<rscale>  0 0.30683609E+03</rscale>
<asrwt>0</asrwt>
<pdfrwt beam="1">  1        2 0.39784319E-01 0.30683609E+03</pdfrwt>
<pdfrwt beam="2">  1       -2 0.97582257E-01 0.30683609E+03</pdfrwt>
<totfact> 0.11726573E+02</totfact>
</mgrwt>
</event>
<event>
 4    1  0.4639964E-008  0.3105881E+03  0.7818608E-02  0.1080064E+00
          2   -1    0    0  501    0  0.00000000000E+00  0.00000000000E+00  0.56906574790E+03  0.56906574791E+03  0.25500000000E-02 0. -1.
         -2   -1    0    0    0  501 -0.00000000000E+00 -0.00000000000E+00 -0.45810216120E+03  0.45810216120E+03  0.25500000000E-02 0.  1.
    8880022    1    1    2    0    0  0.25652563775E+03  0.85252076607E+02 -0.35215094328E+03  0.46954793073E+03  0.15294330000E+03 0.  0.
    8880022    1    1    2    0    0 -0.25652563775E+03 -0.85252076607E+02  0.46311452998E+03  0.55761997838E+03  0.15294330000E+03 0.  0.
<mgrwt>
<rscale>  0 0.31058811E+03</rscale>
<asrwt>0</asrwt>
<pdfrwt beam="1">  1        2 0.87548576E-01 0.31058811E+03</pdfrwt>
<pdfrwt beam="2">  1       -2 0.70477256E-01 0.31058811E+03</pdfrwt>
<totfact> 0.10152314E+02</totfact>
</mgrwt>
</event>
<event>
 4    1  0.4639964E-008  0.8096107E+03  0.7818608E-02  0.9546209E-01
         -2   -1    0    0    0  501 -0.00000000000E+00  0.00000000000E+00  0.82842644162E+03  0.82842644162E+03  0.25500000000E-02 0.  1.
          2   -1    0    0  501    0  0.00000000000E+00 -0.00000000000E+00 -0.13999397216E+04  0.13999397216E+04  0.25500000000E-02 0. -1.
    8880022    1    1    2    0    0 -0.14766478444E+03 -0.78119964360E+03 -0.10204561981E+04  0.13026128654E+04  0.15294330000E+03 0.  0.
    8880022    1    1    2    0    0  0.14766478444E+03  0.78119964360E+03  0.44894291813E+03  0.92575329785E+03  0.15294330000E+03 0.  0.
<mgrwt>
<rscale>  0 0.80961066E+03</rscale>
<asrwt>0</asrwt>
<pdfrwt beam="1">  1        2 0.21537534E+00 0.80961066E+03</pdfrwt>
<pdfrwt beam="2">  1       -2 0.12745022E+00 0.80961066E+03</pdfrwt>
<totfact> 0.67087475E+00</totfact>
</mgrwt>
</event>
<event>
 4    1  0.4639964E-008  0.2341980E+03  0.7818608E-02  0.1123719E+00
          2   -1    0    0  501    0  0.00000000000E+00  0.00000000000E+00  0.22602482145E+04  0.22602482145E+04  0.25500000000E-02 0. -1.
         -2   -1    0    0    0  501 -0.00000000000E+00 -0.00000000000E+00 -0.12063849764E+03  0.12063849767E+03  0.25500000000E-02 0.  1.
    8880022    1    1    2    0    0  0.12998083959E+03  0.12067333585E+03  0.21338028179E+04  0.21466166847E+04  0.15294330000E+03 0. -1.
    8880022    1    1    2    0    0 -0.12998083959E+03 -0.12067333585E+03  0.58068989542E+01  0.23427002739E+03  0.15294330000E+03 0.  0.
<mgrwt>
<rscale>  0 0.23419805E+03</rscale>
<asrwt>0</asrwt>
<pdfrwt beam="1">  1        2 0.34773046E+00 0.23419805E+03</pdfrwt>
<pdfrwt beam="2">  1       -2 0.18559771E-01 0.23419805E+03</pdfrwt>
<totfact> 0.13160207E+02</totfact>
</mgrwt>
</event>
<event>
 4    1  0.4639964E-008  0.5419001E+03  0.7818608E-02  0.1003386E+00
          2   -1    0    0  501    0  0.00000000000E+00  0.00000000000E+00  0.12401175947E+04  0.12401175947E+04  0.25500000000E-02 0. -1.
         -2   -1    0    0    0  501 -0.00000000000E+00 -0.00000000000E+00 -0.30611124665E+03  0.30611124666E+03  0.25500000000E-02 0.  1.
    8880022    1    1    2    0    0 -0.33498023081E+03 -0.39755798535E+03  0.99114591058E+02  0.55088970033E+03  0.15294330000E+03 0.  0.
    8880022    1    1    2    0    0  0.33498023081E+03  0.39755798535E+03  0.83489175701E+03  0.99533914104E+03  0.15294330000E+03 0.  0.
<mgrwt>
<rscale>  0 0.54190014E+03</rscale>
<asrwt>0</asrwt>
<pdfrwt beam="1">  1        2 0.19078732E+00 0.54190014E+03</pdfrwt>
<pdfrwt beam="2">  1       -2 0.47094038E-01 0.54190014E+03</pdfrwt>
<totfact> 0.79560146E+01</totfact>
</mgrwt>
</event>
<event>
 4    1  0.4639964E-008  0.4867016E+03  0.7818608E-02  0.1017309E+00
          2   -1    0    0  501    0  0.00000000000E+00  0.00000000000E+00  0.13421659327E+04  0.13421659328E+04  0.25500000000E-02 0. -1.
         -2   -1    0    0    0  501 -0.00000000000E+00 -0.00000000000E+00 -0.95598029563E+03  0.95598029563E+03  0.25500000000E-02 0.  1.
    8880022    1    1    2    0    0 -0.45594799499E+03  0.74821112308E+02 -0.84450402136E+03  0.97471301832E+03  0.15294330000E+03 0.  1.
    8880022    1    1    2    0    0  0.45594799499E+03 -0.74821112308E+02  0.12306896585E+04  0.13234332101E+04  0.15294330000E+03 0.  0.
<mgrwt>
<rscale>  0 0.48670158E+03</rscale>
<asrwt>0</asrwt>
<pdfrwt beam="1">  1        2 0.20648707E+00 0.48670158E+03</pdfrwt>
<pdfrwt beam="2">  1       -2 0.14707389E+00 0.48670158E+03</pdfrwt>
<totfact> 0.52943473E+00</totfact>
</mgrwt>
</event>
<event>
 4    1  0.4639964E-008  0.2868639E+03  0.7818608E-02  0.1091998E+00
          2   -1    0    0  501    0  0.00000000000E+00  0.00000000000E+00  0.57653071470E+03  0.57653071470E+03  0.25500000000E-02 0. -1.
         -2   -1    0    0    0  501 -0.00000000000E+00 -0.00000000000E+00 -0.42237467274E+03  0.42237467275E+03  0.25500000000E-02 0.  1.
    8880022    1    1    2    0    0  0.22652574462E+03 -0.87093843839E+02  0.48346997252E+03  0.56216911864E+03  0.15294330000E+03 0. -1.
    8880022    1    1    2    0    0 -0.22652574462E+03  0.87093843839E+02 -0.32931393057E+03  0.43673626881E+03  0.15294330000E+03 0.  0.
<mgrwt>
<rscale>  0 0.28686391E+03</rscale>
<asrwt>0</asrwt>
<pdfrwt beam="1">  1        2 0.88697033E-01 0.28686391E+03</pdfrwt>
<pdfrwt beam="2">  1       -2 0.64980719E-01 0.28686391E+03</pdfrwt>
<totfact> 0.11930931E+02</totfact>
</mgrwt>
</event>
<event>
 4    1  0.4639964E-008  0.7007338E+03  0.7818608E-02  0.9715978E-01
         -2   -1    0    0    0  501 -0.00000000000E+00  0.00000000000E+00  0.23976455527E+03  0.23976455528E+03  0.25500000000E-02 0.  1.
          2   -1    0    0  501    0  0.00000000000E+00 -0.00000000000E+00 -0.28752585933E+04  0.28752585933E+04  0.25500000000E-02 0. -1.
    8880022    1    1    2    0    0 -0.53001373123E+03  0.43211294064E+03 -0.21532046438E+04  0.22643581960E+04  0.15294330000E+03 0. -1.
    8880022    1    1    2    0    0  0.53001373123E+03 -0.43211294064E+03 -0.48228939426E+03  0.85066495261E+03  0.15294330000E+03 0.  0.
<mgrwt>
<rscale>  0 0.70073376E+03</rscale>
<asrwt>0</asrwt>
<pdfrwt beam="1">  1        2 0.44234745E+00 0.70073376E+03</pdfrwt>
<pdfrwt beam="2">  1       -2 0.36886857E-01 0.70073376E+03</pdfrwt>
<totfact> 0.15362433E+01</totfact>
</mgrwt>
</event>
<event>
 4    1  0.4639964E-008  0.1804872E+03  0.7818608E-02  0.1167332E+00
          2   -1    0    0  501    0  0.00000000000E+00  0.00000000000E+00  0.39845121451E+03  0.39845121452E+03  0.25500000000E-02 0. -1.
         -2   -1    0    0    0  501 -0.00000000000E+00 -0.00000000000E+00 -0.22283158889E+03  0.22283158891E+03  0.25500000000E-02 0.  1.
    8880022    1    1    2    0    0  0.18268152938E+02  0.94075813264E+02 -0.15936114306E+03  0.24077294488E+03  0.15294330000E+03 0.  0.
    8880022    1    1    2    0    0 -0.18268152938E+02 -0.94075813264E+02  0.33498076868E+03  0.38050985855E+03  0.15294330000E+03 0. -1.
<mgrwt>
<rscale>  0 0.18048722E+03</rscale>
<asrwt>0</asrwt>
<pdfrwt beam="1">  1        2 0.61300186E-01 0.18048722E+03</pdfrwt>
<pdfrwt beam="2">  1       -2 0.34281783E-01 0.18048722E+03</pdfrwt>
<totfact> 0.64226221E+02</totfact>
</mgrwt>
</event>
<event>
 4    1  0.4639964E-008  0.6947287E+03  0.7818608E-02  0.9726289E-01
         -2   -1    0    0    0  501 -0.00000000000E+00  0.00000000000E+00  0.75416513634E+03  0.75416513635E+03  0.25500000000E-02 0.  1.
          2   -1    0    0  501    0  0.00000000000E+00 -0.00000000000E+00 -0.73427380930E+03  0.73427380931E+03  0.25500000000E-02 0. -1.
    8880022    1    1    2    0    0 -0.54356825077E+03  0.40470966586E+03  0.27664474615E+03  0.74778360872E+03  0.15294330000E+03 0.  0.
    8880022    1    1    2    0    0  0.54356825077E+03 -0.40470966586E+03 -0.25675341911E+03  0.74065533693E+03  0.15294330000E+03 0.  0.
<mgrwt>
<rscale>  0 0.69472873E+03</rscale>
<asrwt>0</asrwt>
<pdfrwt beam="1">  1        2 0.11296520E+00 0.69472873E+03</pdfrwt>
<pdfrwt beam="2">  1       -2 0.11602541E+00 0.69472873E+03</pdfrwt>
<totfact> 0.22668757E+01</totfact>
</mgrwt>
</event>
<event>
 4    1  0.4639964E-008  0.7283104E+03  0.7818608E-02  0.9670006E-01
          2   -1    0    0  501    0  0.00000000000E+00  0.00000000000E+00  0.27648134532E+04  0.27648134532E+04  0.25500000000E-02 0. -1.
         -2   -1    0    0    0  501 -0.00000000000E+00 -0.00000000000E+00 -0.30052053774E+03  0.30052053775E+03  0.25500000000E-02 0.  1.
    8880022    1    1    2    0    0  0.60824273942E+03  0.37025020895E+03  0.21537875635E+04  0.22735956037E+04  0.15294330000E+03 0.  0.
    8880022    1    1    2    0    0 -0.60824273942E+03 -0.37025020895E+03  0.31050535193E+03  0.79173838726E+03  0.15294330000E+03 0.  0.
<mgrwt>
<rscale>  0 0.72831044E+03</rscale>
<asrwt>0</asrwt>
<pdfrwt beam="1">  1        2 0.42535591E+00 0.72831044E+03</pdfrwt>
<pdfrwt beam="2">  1       -2 0.46233929E-01 0.72831044E+03</pdfrwt>
<totfact> 0.11412575E+01</totfact>
</mgrwt>
</event>
<event>
 4    1  0.4639964E-008  0.3045986E+03  0.7818608E-02  0.1082964E+00
         -2   -1    0    0    0  501 -0.00000000000E+00  0.00000000000E+00  0.95958028611E+02  0.95958028645E+02  0.25500000000E-02 0.  1.
          2   -1    0    0  501    0  0.00000000000E+00 -0.00000000000E+00 -0.17566545076E+04  0.17566545076E+04  0.25500000000E-02 0. -1.
    8880022    1    1    2    0    0 -0.26341385480E+03  0.13314855622E+01 -0.14514487342E+04  0.14830656468E+04  0.15294330000E+03 0. -1.
    8880022    1    1    2    0    0  0.26341385480E+03 -0.13314855622E+01 -0.20924774474E+03  0.36954688937E+03  0.15294330000E+03 0.  0.
<mgrwt>
<rscale>  0 0.30459856E+03</rscale>
<asrwt>0</asrwt>
<pdfrwt beam="1">  1        2 0.27025452E+00 0.30459856E+03</pdfrwt>
<pdfrwt beam="2">  1       -2 0.14762775E-01 0.30459856E+03</pdfrwt>
<totfact> 0.35012850E+02</totfact>
</mgrwt>
</event>
<event>
 4    1  0.4639964E-008  0.1275541E+04  0.7818608E-02  0.9049189E-01
          2   -1    0    0  501    0  0.00000000000E+00  0.00000000000E+00  0.13069238920E+04  0.13069238920E+04  0.25500000000E-02 0. -1.
         -2   -1    0    0    0  501 -0.00000000000E+00 -0.00000000000E+00 -0.16682154495E+04  0.16682154495E+04  0.25500000000E-02 0.  1.
    8880022    1    1    2    0    0 -0.12377772257E+04  0.26743595147E+03  0.56869058717E+03  0.13965726210E+04  0.15294330000E+03 0.  0.
    8880022    1    1    2    0    0  0.12377772257E+04 -0.26743595147E+03 -0.92998214469E+03  0.15785667205E+04  0.15294330000E+03 0.  0.
<mgrwt>
<rscale>  0 0.12755415E+04</rscale>
<asrwt>0</asrwt>
<pdfrwt beam="1">  1        2 0.20106521E+00 0.12755415E+04</pdfrwt>
<pdfrwt beam="2">  1       -2 0.25664853E+00 0.12755415E+04</pdfrwt>
<totfact> 0.92373346E-01</totfact>
</mgrwt>
</event>
<event>
 4    1  0.4639964E-008  0.5189320E+03  0.7818608E-02  0.1008952E+00
          2   -1    0    0  501    0  0.00000000000E+00  0.00000000000E+00  0.35579692551E+04  0.35579692551E+04  0.25500000000E-02 0. -1.
         -2   -1    0    0    0  501 -0.00000000000E+00 -0.00000000000E+00 -0.13329100723E+03  0.13329100725E+03  0.25500000000E-02 0.  1.
    8880022    1    1    2    0    0 -0.40755623655E+03  0.28248301802E+03  0.29256506303E+04  0.29713165440E+04  0.15294330000E+03 0.  0.
    8880022    1    1    2    0    0  0.40755623655E+03 -0.28248301802E+03  0.49902761765E+03  0.71994371836E+03  0.15294330000E+03 0.  0.
<mgrwt>
<rscale>  0 0.51893197E+03</rscale>
<asrwt>0</asrwt>
<pdfrwt beam="1">  1        2 0.54737979E+00 0.51893197E+03</pdfrwt>
<pdfrwt beam="2">  1       -2 0.20506312E-01 0.51893197E+03</pdfrwt>
<totfact> 0.17166590E+01</totfact>
</mgrwt>
</event>
<event>
 4    1  0.4639964E-008  0.2403761E+03  0.7818608E-02  0.1119543E+00
         -2   -1    0    0    0  501 -0.00000000000E+00  0.00000000000E+00  0.53622507410E+03  0.53622507410E+03  0.25500000000E-02 0.  1.
          2   -1    0    0  501    0  0.00000000000E+00 -0.00000000000E+00 -0.36451393518E+03  0.36451393519E+03  0.25500000000E-02 0. -1.
    8880022    1    1    2    0    0 -0.18544035331E+03  0.94788933254E+00  0.46384103101E+03  0.52242624187E+03  0.15294330000E+03 0.  0.
    8880022    1    1    2    0    0  0.18544035331E+03 -0.94788933254E+00 -0.29212989209E+03  0.37831276743E+03  0.15294330000E+03 0. -1.
<mgrwt>
<rscale>  0 0.24037611E+03</rscale>
<asrwt>0</asrwt>
<pdfrwt beam="1">  1        2 0.56079067E-01 0.24037611E+03</pdfrwt>
<pdfrwt beam="2">  1       -2 0.82496166E-01 0.24037611E+03</pdfrwt>
<totfact> 0.11909070E+02</totfact>
</mgrwt>
</event>
<event>
 4    1  0.4639964E-008  0.2952988E+03  0.7818608E-02  0.1087615E+00
         -2   -1    0    0    0  501 -0.00000000000E+00  0.00000000000E+00  0.30038406114E+03  0.30038406115E+03  0.25500000000E-02 0.  1.
          2   -1    0    0  501    0  0.00000000000E+00 -0.00000000000E+00 -0.51000237626E+03  0.51000237626E+03  0.25500000000E-02 0. -1.
    8880022    1    1    2    0    0  0.24384141961E+03  0.65962890742E+02 -0.37075534679E+03  0.47398409368E+03  0.15294330000E+03 0. -1.
    8880022    1    1    2    0    0 -0.24384141961E+03 -0.65962890742E+02  0.16113703167E+03  0.33640234373E+03  0.15294330000E+03 0.  1.
<mgrwt>
<rscale>  0 0.29529882E+03</rscale>
<asrwt>0</asrwt>
<pdfrwt beam="1">  1        2 0.78461904E-01 0.29529882E+03</pdfrwt>
<pdfrwt beam="2">  1       -2 0.46212933E-01 0.29529882E+03</pdfrwt>
<totfact> 0.27528764E+02</totfact>
</mgrwt>
</event>
<event>
 4    1  0.4639964E-008  0.7944621E+03  0.7818608E-02  0.9568068E-01
          2   -1    0    0  501    0  0.00000000000E+00  0.00000000000E+00  0.13223493728E+04  0.13223493728E+04  0.25500000000E-02 0. -1.
         -2   -1    0    0    0  501 -0.00000000000E+00 -0.00000000000E+00 -0.59639794231E+03  0.59639794232E+03  0.25500000000E-02 0.  1.
    8880022    1    1    2    0    0  0.62097636318E+03 -0.47134563041E+03  0.79167663522E+03  0.11215711724E+04  0.15294330000E+03 0.  0.
    8880022    1    1    2    0    0 -0.62097636318E+03  0.47134563041E+03 -0.65725204775E+02  0.79717614270E+03  0.15294330000E+03 0.  0.
<mgrwt>
<rscale>  0 0.79446208E+03</rscale>
<asrwt>0</asrwt>
<pdfrwt beam="1">  1        2 0.20343836E+00 0.79446208E+03</pdfrwt>
<pdfrwt beam="2">  1       -2 0.91753531E-01 0.79446208E+03</pdfrwt>
<totfact> 0.16471540E+01</totfact>
</mgrwt>
</event>
<event>
 4    1  0.4639964E-008  0.6067398E+03  0.7818608E-02  0.9891521E-01
         -2   -1    0    0    0  501 -0.00000000000E+00  0.00000000000E+00  0.24904752637E+03  0.24904752638E+03  0.25500000000E-02 0.  1.
          2   -1    0    0  501    0  0.00000000000E+00 -0.00000000000E+00 -0.30890899158E+04  0.30890899158E+04  0.25500000000E-02 0. -1.
    8880022    1    1    2    0    0 -0.58422285918E+03  0.58525076559E+02 -0.26253254063E+04  0.26945253154E+04  0.15294330000E+03 0.  0.
    8880022    1    1    2    0    0  0.58422285918E+03 -0.58525076559E+02 -0.21471698314E+03  0.64361212670E+03  0.15294330000E+03 0.  0.
<mgrwt>
<rscale>  0 0.60673980E+03</rscale>
<asrwt>0</asrwt>
<pdfrwt beam="1">  1        2 0.47524458E+00 0.60673980E+03</pdfrwt>
<pdfrwt beam="2">  1       -2 0.38315006E-01 0.60673980E+03</pdfrwt>
<totfact> 0.10790709E+01</totfact>
</mgrwt>
</event>
<event>
 4    1  0.4639964E-008  0.2554688E+03  0.7818608E-02  0.1109897E+00
          2   -1    0    0  501    0  0.00000000000E+00  0.00000000000E+00  0.59881674187E+03  0.59881674188E+03  0.25500000000E-02 0. -1.
         -2   -1    0    0    0  501 -0.00000000000E+00 -0.00000000000E+00 -0.84512357700E+03  0.84512357701E+03  0.25500000000E-02 0.  1.
    8880022    1    1    2    0    0  0.29475179714E+02  0.20249414240E+03  0.55065713329E+03  0.60703179108E+03  0.15294330000E+03 0. -1.
    8880022    1    1    2    0    0 -0.29475179714E+02 -0.20249414240E+03 -0.79696396842E+03  0.83690852780E+03  0.15294330000E+03 0.  0.
<mgrwt>
<rscale>  0 0.25546882E+03</rscale>
<asrwt>0</asrwt>
<pdfrwt beam="1">  1        2 0.92125652E-01 0.25546882E+03</pdfrwt>
<pdfrwt beam="2">  1       -2 0.13001901E+00 0.25546882E+03</pdfrwt>
<totfact> 0.23470490E+01</totfact>
</mgrwt>
</event>
<event>
 4    1  0.5194091E-008  0.5673176E+03  0.7818608E-02  0.9975632E-01
          2   -1    0    0  501    0  0.00000000000E+00  0.00000000000E+00  0.19621094068E+04  0.19621094068E+04  0.25500000000E-02 0. -1.
         -2   -1    0    0    0  501 -0.00000000000E+00 -0.00000000000E+00 -0.10528589150E+04  0.10528589150E+04  0.25500000000E-02 0.  1.
    8880022    1    1    2    0    0 -0.27399264840E+03  0.47263689108E+03 -0.93045903813E+03  0.10897721215E+04  0.15294330000E+03 0.  0.
    8880022    1    1    2    0    0  0.27399264840E+03 -0.47263689108E+03  0.18397095300E+04  0.19251962003E+04  0.15294330000E+03 0.  0.
<mgrwt>
<rscale>  0 0.56731760E+03</rscale>
<asrwt>0</asrwt>
<pdfrwt beam="1">  1        2 0.30186298E+00 0.56731760E+03</pdfrwt>
<pdfrwt beam="2">  1       -2 0.16197830E+00 0.56731760E+03</pdfrwt>
<totfact> 0.18450379E+00</totfact>
</mgrwt>
</event>
<event>
 4    1  0.4639964E-008  0.3100677E+03  0.7818608E-02  0.1080313E+00
          2   -1    0    0  501    0  0.00000000000E+00  0.00000000000E+00  0.31937081288E+03  0.31937081289E+03  0.25500000000E-02 0. -1.
         -2   -1    0    0    0  501 -0.00000000000E+00 -0.00000000000E+00 -0.23528333840E+04  0.23528333840E+04  0.25500000000E-02 0.  1.
    8880022    1    1    2    0    0 -0.57754703906E+02  0.26346678554E+03 -0.22644346044E+04  0.22855647188E+04  0.15294330000E+03 0.  1.
    8880022    1    1    2    0    0  0.57754703906E+02 -0.26346678554E+03  0.23097203327E+03  0.38663947816E+03  0.15294330000E+03 0.  0.
<mgrwt>
<rscale>  0 0.31006774E+03</rscale>
<asrwt>0</asrwt>
<pdfrwt beam="1">  1        2 0.49133973E-01 0.31006774E+03</pdfrwt>
<pdfrwt beam="2">  1       -2 0.36197436E+00 0.31006774E+03</pdfrwt>
<totfact> 0.15783815E+00</totfact>
</mgrwt>
</event>
<event>
 4    1  0.4639964E-008  0.6173789E+03  0.7818608E-02  0.9869992E-01
         -2   -1    0    0    0  501 -0.00000000000E+00  0.00000000000E+00  0.10402977705E+04  0.10402977705E+04  0.25500000000E-02 0.  1.
          2   -1    0    0  501    0  0.00000000000E+00 -0.00000000000E+00 -0.16397180680E+04  0.16397180680E+04  0.25500000000E-02 0. -1.
    8880022    1    1    2    0    0  0.53251490501E+03 -0.27238388483E+03 -0.14805543269E+04  0.16041190332E+04  0.15294330000E+03 0. -1.
    8880022    1    1    2    0    0 -0.53251490501E+03  0.27238388483E+03  0.88113402940E+03  0.10758968053E+04  0.15294330000E+03 0.  0.
<mgrwt>
<rscale>  0 0.61737894E+03</rscale>
<asrwt>0</asrwt>
<pdfrwt beam="1">  1        2 0.25226432E+00 0.61737894E+03</pdfrwt>
<pdfrwt beam="2">  1       -2 0.16004581E+00 0.61737894E+03</pdfrwt>
<totfact> 0.28167101E+00</totfact>
</mgrwt>
</event>
<event>
 4    1  0.4639964E-008  0.3118075E+03  0.7818608E-02  0.1079483E+00
         -2   -1    0    0    0  501 -0.00000000000E+00  0.00000000000E+00  0.92410961859E+03  0.92410961860E+03  0.25500000000E-02 0.  1.
          2   -1    0    0  501    0  0.00000000000E+00 -0.00000000000E+00 -0.25429491333E+03  0.25429491334E+03  0.25500000000E-02 0. -1.
    8880022    1    1    2    0    0 -0.37173424528E+02 -0.26916612135E+03 -0.11623648538E+03  0.33276844490E+03  0.15294330000E+03 0.  0.
    8880022    1    1    2    0    0  0.37173424528E+02  0.26916612135E+03  0.78605119064E+03  0.84563608704E+03  0.15294330000E+03 0.  0.
<mgrwt>
<rscale>  0 0.31180750E+03</rscale>
<asrwt>0</asrwt>
<pdfrwt beam="1">  1        2 0.39122295E-01 0.31180750E+03</pdfrwt>
<pdfrwt beam="2">  1       -2 0.14217071E+00 0.31180750E+03</pdfrwt>
<totfact> 0.47789369E+01</totfact>
</mgrwt>
</event>
<event>
 4    1  0.4639964E-008  0.4613526E+03  0.7818608E-02  0.1024390E+00
          2   -1    0    0  501    0  0.00000000000E+00  0.00000000000E+00  0.10199388958E+04  0.10199388958E+04  0.25500000000E-02 0. -1.
         -2   -1    0    0    0  501 -0.00000000000E+00 -0.00000000000E+00 -0.75341310910E+03  0.75341310911E+03  0.25500000000E-02 0.  1.
    8880022    1    1    2    0    0  0.41652923261E+03 -0.12632496606E+03  0.88720525051E+03  0.99998970406E+03  0.15294330000E+03 0.  0.
    8880022    1    1    2    0    0 -0.41652923261E+03  0.12632496606E+03 -0.62067946378E+03  0.77336230089E+03  0.15294330000E+03 0.  0.
<mgrwt>
<rscale>  0 0.46135263E+03</rscale>
<asrwt>0</asrwt>
<pdfrwt beam="1">  1        2 0.15691368E+00 0.46135263E+03</pdfrwt>
<pdfrwt beam="2">  1       -2 0.11590971E+00 0.46135263E+03</pdfrwt>
<totfact> 0.14991596E+01</totfact>
</mgrwt>
</event>
<event>
 4    1  0.4639964E-008  0.6650838E+03  0.7818608E-02  0.9778880E-01
          2   -1    0    0  501    0  0.00000000000E+00  0.00000000000E+00  0.65947950510E+03  0.65947950511E+03  0.25500000000E-02 0. -1.
         -2   -1    0    0    0  501 -0.00000000000E+00 -0.00000000000E+00 -0.98588264474E+03  0.98588264474E+03  0.25500000000E-02 0.  1.
    8880022    1    1    2    0    0 -0.16962311142E+02  0.64703718134E+03  0.30192955877E+03  0.73040943690E+03  0.15294330000E+03 0.  0.
    8880022    1    1    2    0    0  0.16962311142E+02 -0.64703718134E+03 -0.62833269841E+03  0.91495271295E+03  0.15294330000E+03 0.  0.
<mgrwt>
<rscale>  0 0.66508382E+03</rscale>
<asrwt>0</asrwt>
<pdfrwt beam="1">  1        2 0.10145839E+00 0.66508382E+03</pdfrwt>
<pdfrwt beam="2">  1       -2 0.15167425E+00 0.66508382E+03</pdfrwt>
<totfact> 0.13160795E+01</totfact>
</mgrwt>
</event>
<event>
 4    1  0.4639964E-008  0.8106282E+03  0.7818608E-02  0.9544759E-01
         -2   -1    0    0    0  501 -0.00000000000E+00  0.00000000000E+00  0.28802176058E+04  0.28802176058E+04  0.25500000000E-02 0.  1.
          2   -1    0    0  501    0  0.00000000000E+00 -0.00000000000E+00 -0.43125732021E+03  0.43125732022E+03  0.25500000000E-02 0. -1.
    8880022    1    1    2    0    0 -0.35743694839E+03  0.71131235412E+03  0.88194959699E+02  0.81541182302E+03  0.15294330000E+03 0.  0.
    8880022    1    1    2    0    0  0.35743694839E+03 -0.71131235412E+03  0.23607653259E+04  0.24960631030E+04  0.15294330000E+03 0.  0.
<mgrwt>
<rscale>  0 0.81062821E+03</rscale>
<asrwt>0</asrwt>
<pdfrwt beam="1">  1        2 0.66347280E-01 0.81062821E+03</pdfrwt>
<pdfrwt beam="2">  1       -2 0.44311040E+00 0.81062821E+03</pdfrwt>
<totfact> 0.29669452E-01</totfact>
</mgrwt>
</event>
<event>
 4    1  0.4639964E-008  0.2543928E+03  0.7818608E-02  0.1110560E+00
         -2   -1    0    0    0  501 -0.00000000000E+00  0.00000000000E+00  0.61588400600E+03  0.61588400601E+03  0.25500000000E-02 0.  1.
          2   -1    0    0  501    0  0.00000000000E+00 -0.00000000000E+00 -0.49730642783E+03  0.49730642784E+03  0.25500000000E-02 0. -1.
    8880022    1    1    2    0    0  0.15668946520E+03 -0.12950843601E+03  0.55359621145E+03  0.60924908030E+03  0.15294330000E+03 0.  0.
    8880022    1    1    2    0    0 -0.15668946520E+03  0.12950843601E+03 -0.43501863327E+03  0.50394135354E+03  0.15294330000E+03 0.  0.
<mgrwt>
<rscale>  0 0.25439276E+03</rscale>
<asrwt>0</asrwt>
<pdfrwt beam="1">  1        2 0.76508682E-01 0.25439276E+03</pdfrwt>
<pdfrwt beam="2">  1       -2 0.94751385E-01 0.25439276E+03</pdfrwt>
<totfact> 0.61778348E+01</totfact>
</mgrwt>
</event>
<event>
 4    1  0.4639964E-008  0.5302718E+03  0.7818608E-02  0.1006166E+00
          2   -1    0    0  501    0  0.00000000000E+00  0.00000000000E+00  0.31705717000E+04  0.31705717000E+04  0.25500000000E-02 0. -1.
         -2   -1    0    0    0  501 -0.00000000000E+00 -0.00000000000E+00 -0.19493619605E+03  0.19493619607E+03  0.25500000000E-02 0.  1.
    8880022    1    1    2    0    0  0.47997890848E+03 -0.16558026752E+03  0.27301488873E+04  0.27811690308E+04  0.15294330000E+03 0.  0.
    8880022    1    1    2    0    0 -0.47997890848E+03  0.16558026752E+03  0.24548661661E+03  0.58433886532E+03  0.15294330000E+03 0.  1.
<mgrwt>
<rscale>  0 0.53027185E+03</rscale>
<asrwt>0</asrwt>
<pdfrwt beam="1">  1        2 0.48778020E+00 0.53027185E+03</pdfrwt>
<pdfrwt beam="2">  1       -2 0.29990188E-01 0.53027185E+03</pdfrwt>
<totfact> 0.15522433E+01</totfact>
</mgrwt>
</event>
<event>
 4    1  0.4639964E-008  0.8745186E+03  0.7818608E-02  0.9458007E-01
          2   -1    0    0  501    0  0.00000000000E+00  0.00000000000E+00  0.33844502996E+04  0.33844502996E+04  0.25500000000E-02 0. -1.
         -2   -1    0    0    0  501 -0.00000000000E+00 -0.00000000000E+00 -0.27686042149E+03  0.27686042150E+03  0.25500000000E-02 0.  1.
    8880022    1    1    2    0    0 -0.85700943561E+03  0.83222494448E+02  0.76892811125E+03  0.11644884068E+04  0.15294330000E+03 0.  0.
    8880022    1    1    2    0    0  0.85700943561E+03 -0.83222494448E+02  0.23386617668E+04  0.24968223142E+04  0.15294330000E+03 0.  0.
<mgrwt>
<rscale>  0 0.87451862E+03</rscale>
<asrwt>0</asrwt>
<pdfrwt beam="1">  1        2 0.52068468E+00 0.87451862E+03</pdfrwt>
<pdfrwt beam="2">  1       -2 0.42593910E-01 0.87451862E+03</pdfrwt>
<totfact> 0.53824616E+00</totfact>
</mgrwt>
</event>
<event>
 4    1  0.4639964E-008  0.7546555E+03  0.7818608E-02  0.9628075E-01
          2   -1    0    0  501    0  0.00000000000E+00  0.00000000000E+00  0.14749922777E+04  0.14749922777E+04  0.25500000000E-02 0. -1.
         -2   -1    0    0    0  501 -0.00000000000E+00 -0.00000000000E+00 -0.66887984742E+03  0.66887984743E+03  0.25500000000E-02 0.  1.
    8880022    1    1    2    0    0  0.73788509321E+03  0.40482400703E+02 -0.29391309519E+03  0.80987023411E+03  0.15294330000E+03 0.  0.
    8880022    1    1    2    0    0 -0.73788509321E+03 -0.40482400703E+02  0.11000255254E+04  0.13340018910E+04  0.15294330000E+03 0.  0.
<mgrwt>
<rscale>  0 0.75465548E+03</rscale>
<asrwt>0</asrwt>
<pdfrwt beam="1">  1        2 0.22692189E+00 0.75465548E+03</pdfrwt>
<pdfrwt beam="2">  1       -2 0.10290459E+00 0.75465548E+03</pdfrwt>
<totfact> 0.10355908E+01</totfact>
</mgrwt>
</event>
<event>
 4    1  0.4639964E-008  0.1676710E+03  0.7818608E-02  0.1180299E+00
          2   -1    0    0  501    0  0.00000000000E+00  0.00000000000E+00  0.51192217904E+03  0.51192217905E+03  0.25500000000E-02 0. -1.
         -2   -1    0    0    0  501 -0.00000000000E+00 -0.00000000000E+00 -0.52669267106E+03  0.52669267107E+03  0.25500000000E-02 0.  1.
    8880022    1    1    2    0    0 -0.68164135548E+02 -0.86926453074E+01 -0.49887375069E+03  0.52629704882E+03  0.15294330000E+03 0.  1.
    8880022    1    1    2    0    0  0.68164135548E+02  0.86926453074E+01  0.48410325867E+03  0.51231780130E+03  0.15294330000E+03 0.  0.
<mgrwt>
<rscale>  0 0.16767100E+03</rscale>
<asrwt>0</asrwt>
<pdfrwt beam="1">  1        2 0.78757259E-01 0.16767100E+03</pdfrwt>
<pdfrwt beam="2">  1       -2 0.81029641E-01 0.16767100E+03</pdfrwt>
<totfact> 0.86459859E+01</totfact>
</mgrwt>
</event>
<event>
 4    1  0.4639964E-008  0.7422352E+03  0.7818608E-02  0.9647611E-01
         -2   -1    0    0    0  501 -0.00000000000E+00  0.00000000000E+00  0.89307205082E+03  0.89307205083E+03  0.25500000000E-02 0.  1.
          2   -1    0    0  501    0  0.00000000000E+00 -0.00000000000E+00 -0.18855621162E+04  0.18855621162E+04  0.25500000000E-02 0. -1.
    8880022    1    1    2    0    0 -0.52872618975E+03 -0.49796597296E+03 -0.16358605341E+04  0.17963721312E+04  0.15294330000E+03 0.  0.
    8880022    1    1    2    0    0  0.52872618975E+03  0.49796597296E+03  0.64337046869E+03  0.98226203579E+03  0.15294330000E+03 0.  0.
<mgrwt>
<rscale>  0 0.74223524E+03</rscale>
<asrwt>0</asrwt>
<pdfrwt beam="1">  1        2 0.29008648E+00 0.74223524E+03</pdfrwt>
<pdfrwt beam="2">  1       -2 0.13739570E+00 0.74223524E+03</pdfrwt>
<totfact> 0.30208207E+00</totfact>
</mgrwt>
</event>
<event>
 4    1  0.4639964E-008  0.6657093E+03  0.7818608E-02  0.9777740E-01
         -2   -1    0    0    0  501 -0.00000000000E+00  0.00000000000E+00  0.75998175054E+03  0.75998175055E+03  0.25500000000E-02 0.  1.
          2   -1    0    0  501    0  0.00000000000E+00 -0.00000000000E+00 -0.81446318962E+03  0.81446318963E+03  0.25500000000E-02 0. -1.
    8880022    1    1    2    0    0  0.35319270036E+03 -0.54316866501E+03 -0.44678689330E+03  0.80174027171E+03  0.15294330000E+03 0.  0.
    8880022    1    1    2    0    0 -0.35319270036E+03  0.54316866501E+03  0.39230545422E+03  0.77270466846E+03  0.15294330000E+03 0.  0.
<mgrwt>
<rscale>  0 0.66570935E+03</rscale>
<asrwt>0</asrwt>
<pdfrwt beam="1">  1        2 0.12530203E+00 0.66570935E+03</pdfrwt>
<pdfrwt beam="2">  1       -2 0.11692027E+00 0.66570935E+03</pdfrwt>
<totfact> 0.19493949E+01</totfact>
</mgrwt>
</event>
<event>
 4    1  0.4639964E-008  0.3550987E+03  0.7818608E-02  0.1060542E+00
         -2   -1    0    0    0  501 -0.00000000000E+00  0.00000000000E+00  0.17077343452E+04  0.17077343452E+04  0.25500000000E-02 0.  1.
          2   -1    0    0  501    0  0.00000000000E+00 -0.00000000000E+00 -0.80461952427E+03  0.80461952427E+03  0.25500000000E-02 0. -1.
    8880022    1    1    2    0    0 -0.27338631827E+03 -0.16722257580E+03 -0.74559490433E+03  0.82583708033E+03  0.15294330000E+03 0. -1.
    8880022    1    1    2    0    0  0.27338631827E+03  0.16722257580E+03  0.16487097252E+04  0.16865167891E+04  0.15294330000E+03 0.  0.
<mgrwt>
<rscale>  0 0.35509875E+03</rscale>
<asrwt>0</asrwt>
<pdfrwt beam="1">  1        2 0.12378762E+00 0.35509875E+03</pdfrwt>
<pdfrwt beam="2">  1       -2 0.26272836E+00 0.35509875E+03</pdfrwt>
<totfact> 0.20849617E+00</totfact>
</mgrwt>
</event>
<event>
 4    1  0.4639964E-008  0.1105008E+04  0.7818608E-02  0.9200324E-01
         -2   -1    0    0    0  501 -0.00000000000E+00  0.00000000000E+00  0.81489360593E+03  0.81489360594E+03  0.25500000000E-02 0.  1.
          2   -1    0    0  501    0  0.00000000000E+00 -0.00000000000E+00 -0.20897015055E+04  0.20897015055E+04  0.25500000000E-02 0. -1.
    8880022    1    1    2    0    0 -0.10743350203E+04  0.20846050062E+03  0.13512542336E+03  0.11132394393E+04  0.15294330000E+03 0.  0.
    8880022    1    1    2    0    0  0.10743350203E+04 -0.20846050062E+03 -0.14099333229E+04  0.17913556722E+04  0.15294330000E+03 0.  0.
<mgrwt>
<rscale>  0 0.11050082E+04</rscale>
<asrwt>0</asrwt>
<pdfrwt beam="1">  1        2 0.32149254E+00 0.11050082E+04</pdfrwt>
<pdfrwt beam="2">  1       -2 0.12536825E+00 0.11050082E+04</pdfrwt>
<totfact> 0.27967829E+00</totfact>
</mgrwt>
</event>
<event>
 4    1  0.4639964E-008  0.5983308E+03  0.7818608E-02  0.9908875E-01
          2   -1    0    0  501    0  0.00000000000E+00  0.00000000000E+00  0.12228344348E+04  0.12228344348E+04  0.25500000000E-02 0. -1.
         -2   -1    0    0    0  501 -0.00000000000E+00 -0.00000000000E+00 -0.10143762834E+04  0.10143762834E+04  0.25500000000E-02 0.  1.
    8880022    1    1    2    0    0  0.35038587014E+03 -0.46025842444E+03 -0.83924472653E+03  0.10306946392E+04  0.15294330000E+03 0.  0.
    8880022    1    1    2    0    0 -0.35038587014E+03  0.46025842444E+03  0.10477028780E+04  0.12065160790E+04  0.15294330000E+03 0.  0.
<mgrwt>
<rscale>  0 0.59833079E+03</rscale>
<asrwt>0</asrwt>
<pdfrwt beam="1">  1        2 0.18812837E+00 0.59833079E+03</pdfrwt>
<pdfrwt beam="2">  1       -2 0.15605789E+00 0.59833079E+03</pdfrwt>
<totfact> 0.51811286E+00</totfact>
</mgrwt>
</event>
<event>
 4    1  0.4639964E-008  0.7188691E+03  0.7818608E-02  0.9685497E-01
         -2   -1    0    0    0  501 -0.00000000000E+00  0.00000000000E+00  0.89874774995E+03  0.89874774995E+03  0.25500000000E-02 0.  1.
          2   -1    0    0  501    0  0.00000000000E+00 -0.00000000000E+00 -0.24614085619E+04  0.24614085619E+04  0.25500000000E-02 0. -1.
    8880022    1    1    2    0    0 -0.31665339252E+03 -0.62698626356E+03  0.68947909952E+03  0.99606938884E+03  0.15294330000E+03 0.  0.
    8880022    1    1    2    0    0  0.31665339252E+03  0.62698626356E+03 -0.22521399115E+04  0.23640869230E+04  0.15294330000E+03 0.  0.
<mgrwt>
<rscale>  0 0.71886911E+03</rscale>
<asrwt>0</asrwt>
<pdfrwt beam="1">  1        2 0.37867824E+00 0.71886911E+03</pdfrwt>
<pdfrwt beam="2">  1       -2 0.13826889E+00 0.71886911E+03</pdfrwt>
<totfact> 0.14372379E+00</totfact>
</mgrwt>
</event>
<event>
 4    1  0.4639964E-008  0.4254892E+03  0.7818608E-02  0.1035294E+00
          2   -1    0    0  501    0  0.00000000000E+00  0.00000000000E+00  0.79202448114E+03  0.79202448114E+03  0.25500000000E-02 0. -1.
         -2   -1    0    0    0  501 -0.00000000000E+00 -0.00000000000E+00 -0.27498873132E+03  0.27498873133E+03  0.25500000000E-02 0.  1.
    8880022    1    1    2    0    0 -0.23715155621E+03  0.31844710713E+03  0.39347674243E+02  0.42730470760E+03  0.15294330000E+03 0.  0.
    8880022    1    1    2    0    0  0.23715155621E+03 -0.31844710713E+03  0.47768807557E+03  0.63970850488E+03  0.15294330000E+03 0.  0.
<mgrwt>
<rscale>  0 0.42548922E+03</rscale>
<asrwt>0</asrwt>
<pdfrwt beam="1">  1        2 0.12184992E+00 0.42548922E+03</pdfrwt>
<pdfrwt beam="2">  1       -2 0.42305959E-01 0.42548922E+03</pdfrwt>
<totfact> 0.19084698E+02</totfact>
</mgrwt>
</event>
<event>
 4    1  0.4639964E-008  0.1180844E+04  0.7818608E-02  0.9129791E-01
         -2   -1    0    0    0  501 -0.00000000000E+00  0.00000000000E+00  0.11076517132E+04  0.11076517132E+04  0.25500000000E-02 0.  1.
          2   -1    0    0  501    0  0.00000000000E+00 -0.00000000000E+00 -0.24291941178E+04  0.24291941178E+04  0.25500000000E-02 0. -1.
    8880022    1    1    2    0    0  0.10981191208E+04  0.40636730016E+03  0.56668991784E+03  0.13097820819E+04  0.15294330000E+03 0.  0.
    8880022    1    1    2    0    0 -0.10981191208E+04 -0.40636730016E+03 -0.18882323224E+04  0.22270637491E+04  0.15294330000E+03 0.  0.
<mgrwt>
<rscale>  0 0.11808436E+04</rscale>
<asrwt>0</asrwt>
<pdfrwt beam="1">  1        2 0.37372217E+00 0.11808436E+04</pdfrwt>
<pdfrwt beam="2">  1       -2 0.17040796E+00 0.11808436E+04</pdfrwt>
<totfact> 0.79213016E-01</totfact>
</mgrwt>
</event>
<event>
 4    1  0.4639964E-008  0.2167494E+03  0.7818608E-02  0.1136330E+00
          2   -1    0    0  501    0  0.00000000000E+00  0.00000000000E+00  0.88643382331E+03  0.88643382332E+03  0.25500000000E-02 0. -1.
         -2   -1    0    0    0  501 -0.00000000000E+00 -0.00000000000E+00 -0.59405989905E+02  0.59405989959E+02  0.25500000000E-02 0.  1.
    8880022    1    1    2    0    0 -0.40203120007E+02  0.14823076594E+03  0.25820659134E+03  0.33712156214E+03  0.15294330000E+03 0.  1.
    8880022    1    1    2    0    0  0.40203120007E+02 -0.14823076594E+03  0.56882124206E+03  0.60871825114E+03  0.15294330000E+03 0. -1.
<mgrwt>
<rscale>  0 0.21674940E+03</rscale>
<asrwt>0</asrwt>
<pdfrwt beam="1">  1        2 0.13637442E+00 0.21674940E+03</pdfrwt>
<pdfrwt beam="2">  1       -2 0.91393838E-02 0.21674940E+03</pdfrwt>
<totfact> 0.23648915E+03</totfact>
</mgrwt>
</event>
<event>
 4    1  0.4639964E-008  0.3100618E+03  0.7818608E-02  0.1080316E+00
          2   -1    0    0  501    0  0.00000000000E+00  0.00000000000E+00  0.87042290465E+03  0.87042290466E+03  0.25500000000E-02 0. -1.
         -2   -1    0    0    0  501 -0.00000000000E+00 -0.00000000000E+00 -0.20180598676E+03  0.20180598678E+03  0.25500000000E-02 0.  1.
    8880022    1    1    2    0    0 -0.21627574694E+03  0.16115670149E+03  0.69501885019E+03  0.76104502908E+03  0.15294330000E+03 0.  0.
    8880022    1    1    2    0    0  0.21627574694E+03 -0.16115670149E+03 -0.26401932302E+02  0.31118386236E+03  0.15294330000E+03 0.  0.
<mgrwt>
<rscale>  0 0.31006182E+03</rscale>
<asrwt>0</asrwt>
<pdfrwt beam="1">  1        2 0.13391121E+00 0.31006182E+03</pdfrwt>
<pdfrwt beam="2">  1       -2 0.31047075E-01 0.31006182E+03</pdfrwt>
<totfact> 0.30624773E+02</totfact>
</mgrwt>
</event>
<event>
 4    1  0.4639964E-008  0.1424371E+04  0.7818608E-02  0.8936364E-01
         -2   -1    0    0    0  501 -0.00000000000E+00  0.00000000000E+00  0.19328926452E+04  0.19328926452E+04  0.25500000000E-02 0.  1.
          2   -1    0    0  501    0  0.00000000000E+00 -0.00000000000E+00 -0.16583694200E+04  0.16583694200E+04  0.25500000000E-02 0. -1.
    8880022    1    1    2    0    0 -0.88801633751E+03 -0.11031178545E+04 -0.95064105377E+03  0.17124695859E+04  0.15294330000E+03 0.  0.
    8880022    1    1    2    0    0  0.88801633751E+03  0.11031178545E+04  0.12251642789E+04  0.18787924792E+04  0.15294330000E+03 0.  0.
<mgrwt>
<rscale>  0 0.14243713E+04</rscale>
<asrwt>0</asrwt>
<pdfrwt beam="1">  1        2 0.25513376E+00 0.14243713E+04</pdfrwt>
<pdfrwt beam="2">  1       -2 0.29736810E+00 0.14243713E+04</pdfrwt>
<totfact> 0.32339486E-01</totfact>
</mgrwt>
</event>
<event>
 4    1  0.6588460E-008  0.8351361E+03  0.7818608E-02  0.9510507E-01
         -2   -1    0    0    0  501 -0.00000000000E+00  0.00000000000E+00  0.13397876110E+04  0.13397876110E+04  0.25500000000E-02 0.  1.
          2   -1    0    0  501    0  0.00000000000E+00 -0.00000000000E+00 -0.21521340427E+04  0.21521340427E+04  0.25500000000E-02 0. -1.
    8880022    1    1    2    0    0  0.21256757492E+03  0.79301679575E+03 -0.19263776540E+04  0.20996149959E+04  0.15294330000E+03 0.  0.
    8880022    1    1    2    0    0 -0.21256757492E+03 -0.79301679575E+03  0.11140312222E+04  0.13923066578E+04  0.15294330000E+03 0.  0.
<mgrwt>
<rscale>  0 0.83513608E+03</rscale>
<asrwt>0</asrwt>
<pdfrwt beam="1">  1        2 0.33109754E+00 0.83513608E+03</pdfrwt>
<pdfrwt beam="2">  1       -2 0.20612117E+00 0.83513608E+03</pdfrwt>
<totfact> 0.68691618E-01</totfact>
</mgrwt>
</event>
<event>
 4    1  0.4639964E-008  0.1125960E+04  0.7818608E-02  0.9180253E-01
          2   -1    0    0  501    0  0.00000000000E+00  0.00000000000E+00  0.30799433653E+04  0.30799433653E+04  0.25500000000E-02 0. -1.
         -2   -1    0    0    0  501 -0.00000000000E+00 -0.00000000000E+00 -0.10435346478E+04  0.10435346478E+04  0.25500000000E-02 0.  1.
    8880022    1    1    2    0    0  0.48592565550E+03  0.10041264542E+04  0.26225847204E+04  0.28540735708E+04  0.15294330000E+03 0.  0.
    8880022    1    1    2    0    0 -0.48592565550E+03 -0.10041264542E+04 -0.58617600285E+03  0.12694044423E+04  0.15294330000E+03 0.  0.
<mgrwt>
<rscale>  0 0.11259597E+04</rscale>
<asrwt>0</asrwt>
<pdfrwt beam="1">  1        2 0.47383743E+00 0.11259597E+04</pdfrwt>
<pdfrwt beam="2">  1       -2 0.16054380E+00 0.11259597E+04</pdfrwt>
<totfact> 0.38562477E-01</totfact>
</mgrwt>
</event>
<event>
 4    1  0.5566714E-008  0.1090841E+04  0.7818608E-02  0.9214165E-01
          2   -1    0    0  501    0  0.00000000000E+00  0.00000000000E+00  0.15868026385E+04  0.15868026385E+04  0.25500000000E-02 0. -1.
         -2   -1    0    0    0  501 -0.00000000000E+00 -0.00000000000E+00 -0.13280077488E+04  0.13280077488E+04  0.25500000000E-02 0.  1.
    8880022    1    1    2    0    0  0.60506433713E+03 -0.89467248368E+03  0.10909804003E+04  0.15427804743E+04  0.15294330000E+03 0.  0.
    8880022    1    1    2    0    0 -0.60506433713E+03  0.89467248368E+03 -0.83218551056E+03  0.13720299130E+04  0.15294330000E+03 0.  0.
<mgrwt>
<rscale>  0 0.10908407E+04</rscale>
<asrwt>0</asrwt>
<pdfrwt beam="1">  1        2 0.24412348E+00 0.10908407E+04</pdfrwt>
<pdfrwt beam="2">  1       -2 0.20430889E+00 0.10908407E+04</pdfrwt>
<totfact> 0.13894738E+00</totfact>
</mgrwt>
</event>
<event>
 4    1  0.4639964E-008  0.4382728E+03  0.7818608E-02  0.1031278E+00
         -2   -1    0    0    0  501 -0.00000000000E+00  0.00000000000E+00  0.11118752001E+03  0.11118752004E+03  0.25500000000E-02 0.  1.
          2   -1    0    0  501    0  0.00000000000E+00 -0.00000000000E+00 -0.26135221284E+04  0.26135221284E+04  0.25500000000E-02 0. -1.
    8880022    1    1    2    0    0  0.82406120318E+02  0.40236872406E+03 -0.45796321727E+03  0.63388746648E+03  0.15294330000E+03 0.  0.
    8880022    1    1    2    0    0 -0.82406120318E+02 -0.40236872406E+03 -0.20443713911E+04  0.20908221820E+04  0.15294330000E+03 0.  0.
<mgrwt>
<rscale>  0 0.43827276E+03</rscale>
<asrwt>0</asrwt>
<pdfrwt beam="1">  1        2 0.40208028E+00 0.43827276E+03</pdfrwt>
<pdfrwt beam="2">  1       -2 0.17105774E-01 0.43827276E+03</pdfrwt>
<totfact> 0.91637054E+01</totfact>
</mgrwt>
</event>
<event>
 4    1  0.4639964E-008  0.6198668E+03  0.7818608E-02  0.9865025E-01
          2   -1    0    0  501    0  0.00000000000E+00  0.00000000000E+00  0.95972330594E+03  0.95972330594E+03  0.25500000000E-02 0. -1.
         -2   -1    0    0    0  501 -0.00000000000E+00 -0.00000000000E+00 -0.55381482943E+03  0.55381482944E+03  0.25500000000E-02 0.  1.
    8880022    1    1    2    0    0 -0.22852458204E+03  0.55553551322E+03 -0.19540173256E+03  0.64993590542E+03  0.15294330000E+03 0.  0.
    8880022    1    1    2    0    0  0.22852458204E+03 -0.55553551322E+03  0.60131020906E+03  0.86360222996E+03  0.15294330000E+03 0.  0.
<mgrwt>
<rscale>  0 0.61986680E+03</rscale>
<asrwt>0</asrwt>
<pdfrwt beam="1">  1        2 0.14764974E+00 0.61986680E+03</pdfrwt>
<pdfrwt beam="2">  1       -2 0.85202281E-01 0.61986680E+03</pdfrwt>
<totfact> 0.32999859E+01</totfact>
</mgrwt>
</event>
<event>
 4    1  0.4639964E-008  0.5657529E+03  0.7818608E-02  0.9979121E-01
         -2   -1    0    0    0  501 -0.00000000000E+00  0.00000000000E+00  0.66392589556E+03  0.66392589557E+03  0.25500000000E-02 0.  1.
          2   -1    0    0  501    0  0.00000000000E+00 -0.00000000000E+00 -0.74111532077E+03  0.74111532077E+03  0.25500000000E-02 0. -1.
    8880022    1    1    2    0    0  0.51228415266E+03 -0.18506657961E+03  0.37672432681E+03  0.67970402631E+03  0.15294330000E+03 0.  0.
    8880022    1    1    2    0    0 -0.51228415266E+03  0.18506657961E+03 -0.45391375202E+03  0.72533719003E+03  0.15294330000E+03 0.  0.
<mgrwt>
<rscale>  0 0.56575290E+03</rscale>
<asrwt>0</asrwt>
<pdfrwt beam="1">  1        2 0.11401774E+00 0.56575290E+03</pdfrwt>
<pdfrwt beam="2">  1       -2 0.10214245E+00 0.56575290E+03</pdfrwt>
<totfact> 0.30877359E+01</totfact>
</mgrwt>
</event>
<event>
 4    1  0.4639964E-008  0.8840201E+03  0.7818608E-02  0.9445780E-01
          2   -1    0    0  501    0  0.00000000000E+00  0.00000000000E+00  0.13602036762E+04  0.13602036762E+04  0.25500000000E-02 0. -1.
         -2   -1    0    0    0  501 -0.00000000000E+00 -0.00000000000E+00 -0.11936738038E+04  0.11936738038E+04  0.25500000000E-02 0.  1.
    8880022    1    1    2    0    0 -0.37588875353E+02  0.86987757563E+03  0.10029083188E+04  0.13369056321E+04  0.15294330000E+03 0.  0.
    8880022    1    1    2    0    0  0.37588875353E+02 -0.86987757563E+03 -0.83637844639E+03  0.12169718480E+04  0.15294330000E+03 0.  0.
<mgrwt>
<rscale>  0 0.88402012E+03</rscale>
<asrwt>0</asrwt>
<pdfrwt beam="1">  1        2 0.20926210E+00 0.88402012E+03</pdfrwt>
<pdfrwt beam="2">  1       -2 0.18364212E+00 0.88402012E+03</pdfrwt>
<totfact> 0.26291111E+00</totfact>
</mgrwt>
</event>
<event>
 4    1  0.4639964E-008  0.1307018E+04  0.7818608E-02  0.9024019E-01
         -2   -1    0    0    0  501 -0.00000000000E+00  0.00000000000E+00  0.12380928092E+04  0.12380928093E+04  0.25500000000E-02 0.  1.
          2   -1    0    0  501    0  0.00000000000E+00 -0.00000000000E+00 -0.23377343142E+04  0.23377343142E+04  0.25500000000E-02 0. -1.
    8880022    1    1    2    0    0  0.12496294763E+04 -0.35118320352E+03 -0.16943356407E+04  0.21398757877E+04  0.15294330000E+03 0.  0.
    8880022    1    1    2    0    0 -0.12496294763E+04  0.35118320352E+03  0.59469413571E+03  0.14359513358E+04  0.15294330000E+03 0.  0.
<mgrwt>
<rscale>  0 0.13070176E+04</rscale>
<asrwt>0</asrwt>
<pdfrwt beam="1">  1        2 0.35965143E+00 0.13070176E+04</pdfrwt>
<pdfrwt beam="2">  1       -2 0.19047582E+00 0.13070176E+04</pdfrwt>
<totfact> 0.63793400E-01</totfact>
</mgrwt>
</event>
<event>
 4    1  0.4639964E-008  0.8889639E+03  0.7818608E-02  0.9439483E-01
          2   -1    0    0  501    0  0.00000000000E+00  0.00000000000E+00  0.29625973369E+04  0.29625973369E+04  0.25500000000E-02 0. -1.
         -2   -1    0    0    0  501 -0.00000000000E+00 -0.00000000000E+00 -0.78841018710E+03  0.78841018710E+03  0.25500000000E-02 0.  1.
    8880022    1    1    2    0    0  0.27683439488E+03 -0.83079957605E+03  0.26126838659E+04  0.27597778631E+04  0.15294330000E+03 0.  0.
    8880022    1    1    2    0    0 -0.27683439488E+03  0.83079957605E+03 -0.43849671601E+03  0.99122966094E+03  0.15294330000E+03 0.  0.
<mgrwt>
<rscale>  0 0.88896393E+03</rscale>
<asrwt>0</asrwt>
<pdfrwt beam="1">  1        2 0.45578420E+00 0.88896393E+03</pdfrwt>
<pdfrwt beam="2">  1       -2 0.12129388E+00 0.88896393E+03</pdfrwt>
<totfact> 0.98513963E-01</totfact>
</mgrwt>
</event>
<event>
 4    1  0.4639964E-008  0.1011829E+04  0.7818608E-02  0.9295666E-01
         -2   -1    0    0    0  501 -0.00000000000E+00  0.00000000000E+00  0.13405156313E+04  0.13405156313E+04  0.25500000000E-02 0.  1.
          2   -1    0    0  501    0  0.00000000000E+00 -0.00000000000E+00 -0.96088026198E+03  0.96088026199E+03  0.25500000000E-02 0. -1.
    8880022    1    1    2    0    0 -0.95169220770E+03  0.30771315792E+03 -0.33140246227E+03  0.10647181274E+04  0.15294330000E+03 0.  0.
    8880022    1    1    2    0    0  0.95169220770E+03 -0.30771315792E+03  0.71103783163E+03  0.12366777659E+04  0.15294330000E+03 0.  0.
<mgrwt>
<rscale>  0 0.10118286E+04</rscale>
<asrwt>0</asrwt>
<pdfrwt beam="1">  1        2 0.14782773E+00 0.10118286E+04</pdfrwt>
<pdfrwt beam="2">  1       -2 0.20623317E+00 0.10118286E+04</pdfrwt>
<totfact> 0.32063832E+00</totfact>
</mgrwt>
</event>
<event>
 4    1  0.4639964E-008  0.7722499E+03  0.7818608E-02  0.9601076E-01
         -2   -1    0    0    0  501 -0.00000000000E+00  0.00000000000E+00  0.12326271013E+04  0.12326271013E+04  0.25500000000E-02 0.  1.
          2   -1    0    0  501    0  0.00000000000E+00 -0.00000000000E+00 -0.82415101420E+03  0.82415101420E+03  0.25500000000E-02 0. -1.
    8880022    1    1    2    0    0 -0.45665286883E+02 -0.75557458302E+03 -0.45661465614E+03  0.89714372658E+03  0.15294330000E+03 0.  0.
    8880022    1    1    2    0    0  0.45665286883E+02  0.75557458302E+03  0.86509074328E+03  0.11596343890E+04  0.15294330000E+03 0.  0.
<mgrwt>
<rscale>  0 0.77224991E+03</rscale>
<asrwt>0</asrwt>
<pdfrwt beam="1">  1        2 0.12679246E+00 0.77224991E+03</pdfrwt>
<pdfrwt beam="2">  1       -2 0.18963494E+00 0.77224991E+03</pdfrwt>
<totfact> 0.52506279E+00</totfact>
</mgrwt>
</event>
<event>
 4    1  0.4639964E-008  0.5888612E+03  0.7818608E-02  0.9928789E-01
          2   -1    0    0  501    0  0.00000000000E+00  0.00000000000E+00  0.82001091897E+03  0.82001091898E+03  0.25500000000E-02 0. -1.
         -2   -1    0    0    0  501 -0.00000000000E+00 -0.00000000000E+00 -0.53297669155E+03  0.53297669156E+03  0.25500000000E-02 0.  1.
    8880022    1    1    2    0    0 -0.43105839315E+03 -0.37088344335E+03 -0.16396352091E+03  0.61126226455E+03  0.15294330000E+03 0.  0.
    8880022    1    1    2    0    0  0.43105839315E+03  0.37088344335E+03  0.45099774834E+03  0.74172534598E+03  0.15294330000E+03 0.  0.
<mgrwt>
<rscale>  0 0.58886121E+03</rscale>
<asrwt>0</asrwt>
<pdfrwt beam="1">  1        2 0.12615553E+00 0.58886121E+03</pdfrwt>
<pdfrwt beam="2">  1       -2 0.81996414E-01 0.58886121E+03</pdfrwt>
<totfact> 0.44843029E+01</totfact>
</mgrwt>
</event>
<event>
 4    1  0.4639964E-008  0.3362854E+03  0.7818608E-02  0.1068389E+00
          2   -1    0    0  501    0  0.00000000000E+00  0.00000000000E+00  0.10987526139E+04  0.10987526139E+04  0.25500000000E-02 0. -1.
         -2   -1    0    0    0  501 -0.00000000000E+00 -0.00000000000E+00 -0.39061229753E+03  0.39061229754E+03  0.25500000000E-02 0.  1.
    8880022    1    1    2    0    0 -0.16902093691E+03  0.24724108032E+03  0.99315623360E+03  0.10485452714E+04  0.15294330000E+03 0. -1.
    8880022    1    1    2    0    0  0.16902093691E+03 -0.24724108032E+03 -0.28501591724E+03  0.44081964000E+03  0.15294330000E+03 0.  0.
<mgrwt>
<rscale>  0 0.33628542E+03</rscale>
<asrwt>0</asrwt>
<pdfrwt beam="1">  1        2 0.16903886E+00 0.33628542E+03</pdfrwt>
<pdfrwt beam="2">  1       -2 0.60094201E-01 0.33628542E+03</pdfrwt>
<totfact> 0.60355310E+01</totfact>
</mgrwt>
</event>
<event>
 4    1  0.4639964E-008  0.8409112E+03  0.7818608E-02  0.9502617E-01
         -2   -1    0    0    0  501 -0.00000000000E+00  0.00000000000E+00  0.30590093814E+03  0.30590093815E+03  0.25500000000E-02 0.  1.
          2   -1    0    0  501    0  0.00000000000E+00 -0.00000000000E+00 -0.23899811999E+04  0.23899811999E+04  0.25500000000E-02 0. -1.
    8880022    1    1    2    0    0  0.51842433007E+02  0.82525898865E+03 -0.12860903727E+04  0.15366066953E+04  0.15294330000E+03 0.  0.
    8880022    1    1    2    0    0 -0.51842433007E+02 -0.82525898865E+03 -0.79798988911E+03  0.11592754428E+04  0.15294330000E+03 0.  0.
<mgrwt>
<rscale>  0 0.84091123E+03</rscale>
<asrwt>0</asrwt>
<pdfrwt beam="1">  1        2 0.36768940E+00 0.84091123E+03</pdfrwt>
<pdfrwt beam="2">  1       -2 0.47061684E-01 0.84091123E+03</pdfrwt>
<totfact> 0.17758544E+01</totfact>
</mgrwt>
</event>
<event>
 4    1  0.7848779E-008  0.1484347E+04  0.7818608E-02  0.8894929E-01
         -2   -1    0    0    0  501 -0.00000000000E+00  0.00000000000E+00  0.19571744267E+04  0.19571744267E+04  0.25500000000E-02 0.  1.
          2   -1    0    0  501    0  0.00000000000E+00 -0.00000000000E+00 -0.19791501452E+04  0.19791501452E+04  0.25500000000E-02 0. -1.
    8880022    1    1    2    0    0 -0.13082165367E+04 -0.68444352006E+03  0.12814164964E+04  0.19609470491E+04  0.15294330000E+03 0.  0.
    8880022    1    1    2    0    0  0.13082165367E+04  0.68444352006E+03 -0.13033922148E+04  0.19753775228E+04  0.15294330000E+03 0.  0.
<mgrwt>
<rscale>  0 0.14843467E+04</rscale>
<asrwt>0</asrwt>
<pdfrwt beam="1">  1        2 0.30448464E+00 0.14843467E+04</pdfrwt>
<pdfrwt beam="2">  1       -2 0.30110376E+00 0.14843467E+04</pdfrwt>
<totfact> 0.20182203E-01</totfact>
</mgrwt>
</event>
<event>
 4    1  0.4639964E-008  0.3538905E+03  0.7818608E-02  0.1061029E+00
          2   -1    0    0  501    0  0.00000000000E+00  0.00000000000E+00  0.16439394102E+04  0.16439394102E+04  0.25500000000E-02 0. -1.
         -2   -1    0    0    0  501 -0.00000000000E+00 -0.00000000000E+00 -0.17877714618E+03  0.17877714620E+03  0.25500000000E-02 0.  1.
    8880022    1    1    2    0    0 -0.30941951955E+03 -0.78143424705E+02  0.42187645483E+02  0.35639624626E+03  0.15294330000E+03 0.  0.
    8880022    1    1    2    0    0  0.30941951955E+03  0.78143424705E+02  0.14229746185E+04  0.14663203101E+04  0.15294330000E+03 0.  0.
<mgrwt>
<rscale>  0 0.35389050E+03</rscale>
<asrwt>0</asrwt>
<pdfrwt beam="1">  1        2 0.25291376E+00 0.35389050E+03</pdfrwt>
<pdfrwt beam="2">  1       -2 0.27504176E-01 0.35389050E+03</pdfrwt>
<totfact> 0.13593323E+02</totfact>
</mgrwt>
</event>
<event>
 4    1  0.4639964E-008  0.8953158E+03  0.7818608E-02  0.9431456E-01
          2   -1    0    0  501    0  0.00000000000E+00  0.00000000000E+00  0.15580780852E+04  0.15580780852E+04  0.25500000000E-02 0. -1.
         -2   -1    0    0    0  501 -0.00000000000E+00 -0.00000000000E+00 -0.67171344240E+03  0.67171344241E+03  0.25500000000E-02 0.  1.
    8880022    1    1    2    0    0 -0.88125478089E+03  0.39860036582E+02  0.98259750970E+03  0.13293187467E+04  0.15294330000E+03 0.  0.
    8880022    1    1    2    0    0  0.88125478089E+03 -0.39860036582E+02 -0.96232866927E+02  0.90047278085E+03  0.15294330000E+03 0.  0.
<mgrwt>
<rscale>  0 0.89531585E+03</rscale>
<asrwt>0</asrwt>
<pdfrwt beam="1">  1        2 0.23970432E+00 0.89531585E+03</pdfrwt>
<pdfrwt beam="2">  1       -2 0.10334053E+00 0.89531585E+03</pdfrwt>
<totfact> 0.90545331E+00</totfact>
</mgrwt>
</event>
<event>
 4    1  0.4639964E-008  0.7360355E+03  0.7818608E-02  0.9657517E-01
         -2   -1    0    0    0  501 -0.00000000000E+00  0.00000000000E+00  0.39782193390E+03  0.39782193390E+03  0.25500000000E-02 0.  1.
          2   -1    0    0  501    0  0.00000000000E+00 -0.00000000000E+00 -0.16147378018E+04  0.16147378018E+04  0.25500000000E-02 0. -1.
    8880022    1    1    2    0    0 -0.71892412728E+03 -0.38789680431E+02 -0.21017932315E+03  0.76545642658E+03  0.15294330000E+03 0.  0.
    8880022    1    1    2    0    0  0.71892412728E+03  0.38789680431E+02 -0.10067365448E+04  0.12471033091E+04  0.15294330000E+03 0.  0.
<mgrwt>
<rscale>  0 0.73603546E+03</rscale>
<asrwt>0</asrwt>
<pdfrwt beam="1">  1        2 0.24842120E+00 0.73603546E+03</pdfrwt>
<pdfrwt beam="2">  1       -2 0.61203375E-01 0.73603546E+03</pdfrwt>
<totfact> 0.27908036E+01</totfact>
</mgrwt>
</event>
<event>
 4    1  0.4639964E-008  0.5448998E+03  0.7818608E-02  0.1002681E+00
         -2   -1    0    0    0  501 -0.00000000000E+00  0.00000000000E+00  0.35696311409E+03  0.35696311410E+03  0.25500000000E-02 0.  1.
          2   -1    0    0  501    0  0.00000000000E+00 -0.00000000000E+00 -0.22795595573E+04  0.22795595573E+04  0.25500000000E-02 0. -1.
    8880022    1    1    2    0    0 -0.44478795553E+03  0.27511413820E+03 -0.20118727031E+04  0.20843578246E+04  0.15294330000E+03 0.  0.
    8880022    1    1    2    0    0  0.44478795553E+03 -0.27511413820E+03  0.89276259923E+02  0.55216484679E+03  0.15294330000E+03 0.  0.
<mgrwt>
<rscale>  0 0.54489978E+03</rscale>
<asrwt>0</asrwt>
<pdfrwt beam="1">  1        2 0.35070146E+00 0.54489978E+03</pdfrwt>
<pdfrwt beam="2">  1       -2 0.54917403E-01 0.54489978E+03</pdfrwt>
<totfact> 0.15689353E+01</totfact>
</mgrwt>
</event>
<event>
 4    1  0.4639964E-008  0.6452752E+03  0.7818608E-02  0.9815686E-01
         -2   -1    0    0    0  501 -0.00000000000E+00  0.00000000000E+00  0.23432542075E+03  0.23432542077E+03  0.25500000000E-02 0.  1.
          2   -1    0    0  501    0  0.00000000000E+00 -0.00000000000E+00 -0.21997121426E+04  0.21997121426E+04  0.25500000000E-02 0. -1.
    8880022    1    1    2    0    0  0.84526000553E+02 -0.62116324554E+03 -0.44914692676E+03  0.78620165175E+03  0.15294330000E+03 0.  1.
    8880022    1    1    2    0    0 -0.84526000553E+02  0.62116324554E+03 -0.15162397951E+04  0.16478359116E+04  0.15294330000E+03 0.  0.
<mgrwt>
<rscale>  0 0.64527519E+03</rscale>
<asrwt>0</asrwt>
<pdfrwt beam="1">  1        2 0.33841724E+00 0.64527519E+03</pdfrwt>
<pdfrwt beam="2">  1       -2 0.36050066E-01 0.64527519E+03</pdfrwt>
<totfact> 0.39284723E+01</totfact>
</mgrwt>
</event>
<event>
 4    1  0.4639964E-008  0.5878275E+03  0.7818608E-02  0.9930987E-01
         -2   -1    0    0    0  501 -0.00000000000E+00  0.00000000000E+00  0.78902568230E+03  0.78902568230E+03  0.25500000000E-02 0.  1.
          2   -1    0    0  501    0  0.00000000000E+00 -0.00000000000E+00 -0.75298905549E+03  0.75298905549E+03  0.25500000000E-02 0. -1.
    8880022    1    1    2    0    0 -0.32987334947E+03  0.46187994624E+03  0.51673905523E+03  0.78266238932E+03  0.15294330000E+03 0.  1.
    8880022    1    1    2    0    0  0.32987334947E+03 -0.46187994624E+03 -0.48070242842E+03  0.75935234848E+03  0.15294330000E+03 0.  0.
<mgrwt>
<rscale>  0 0.58782750E+03</rscale>
<asrwt>0</asrwt>
<pdfrwt beam="1">  1        2 0.11584447E+00 0.58782750E+03</pdfrwt>
<pdfrwt beam="2">  1       -2 0.12138857E+00 0.58782750E+03</pdfrwt>
<totfact> 0.19870907E+01</totfact>
</mgrwt>
</event>
<event>
 4    1  0.4639964E-008  0.4206625E+03  0.7818608E-02  0.1036851E+00
          2   -1    0    0  501    0  0.00000000000E+00  0.00000000000E+00  0.14563515016E+04  0.14563515016E+04  0.25500000000E-02 0. -1.
         -2   -1    0    0    0  501 -0.00000000000E+00 -0.00000000000E+00 -0.20761428645E+03  0.20761428647E+03  0.25500000000E-02 0.  1.
    8880022    1    1    2    0    0  0.29462801354E+03  0.25837877886E+03  0.88564902507E+02  0.42988446669E+03  0.15294330000E+03 0.  0.
    8880022    1    1    2    0    0 -0.29462801354E+03 -0.25837877886E+03  0.11601723126E+04  0.12340813213E+04  0.15294330000E+03 0.  0.
<mgrwt>
<rscale>  0 0.42066247E+03</rscale>
<asrwt>0</asrwt>
<pdfrwt beam="1">  1        2 0.22405407E+00 0.42066247E+03</pdfrwt>
<pdfrwt beam="2">  1       -2 0.31940661E-01 0.42066247E+03</pdfrwt>
<totfact> 0.12912129E+02</totfact>
</mgrwt>
</event>
<event>
 4    1  0.4639964E-008  0.4829754E+03  0.7818608E-02  0.1018321E+00
         -2   -1    0    0    0  501 -0.00000000000E+00  0.00000000000E+00  0.32093979575E+03  0.32093979576E+03  0.25500000000E-02 0.  1.
          2   -1    0    0  501    0  0.00000000000E+00 -0.00000000000E+00 -0.13378115444E+04  0.13378115444E+04  0.25500000000E-02 0. -1.
    8880022    1    1    2    0    0 -0.42917844160E+03  0.16024808815E+03  0.52059032359E+02  0.48577297204E+03  0.15294330000E+03 0.  1.
    8880022    1    1    2    0    0  0.42917844160E+03 -0.16024808815E+03 -0.10689307810E+04  0.11729783681E+04  0.15294330000E+03 0.  0.
<mgrwt>
<rscale>  0 0.48297540E+03</rscale>
<asrwt>0</asrwt>
<pdfrwt beam="1">  1        2 0.20581716E+00 0.48297540E+03</pdfrwt>
<pdfrwt beam="2">  1       -2 0.49375354E-01 0.48297540E+03</pdfrwt>
<totfact> 0.64132962E+01</totfact>
</mgrwt>
</event>
<event>
 4    1  0.4639964E-008  0.8221842E+03  0.7818608E-02  0.9528450E-01
         -2   -1    0    0    0  501 -0.00000000000E+00  0.00000000000E+00  0.76891573688E+03  0.76891573689E+03  0.25500000000E-02 0.  1.
          2   -1    0    0  501    0  0.00000000000E+00 -0.00000000000E+00 -0.23772584468E+04  0.23772584468E+04  0.25500000000E-02 0. -1.
    8880022    1    1    2    0    0  0.80383837789E+03  0.80243894520E+02  0.44461231664E+03  0.93470154889E+03  0.15294330000E+03 0.  0.
    8880022    1    1    2    0    0 -0.80383837789E+03 -0.80243894520E+02 -0.20529550265E+04  0.22114726348E+04  0.15294330000E+03 0.  0.
<mgrwt>
<rscale>  0 0.82218421E+03</rscale>
<asrwt>0</asrwt>
<pdfrwt beam="1">  1        2 0.36573206E+00 0.82218421E+03</pdfrwt>
<pdfrwt beam="2">  1       -2 0.11829473E+00 0.82218421E+03</pdfrwt>
<totfact> 0.23290021E+00</totfact>
</mgrwt>
</event>
<event>
 4    1  0.4639964E-008  0.8793497E+03  0.7818608E-02  0.9451770E-01
          2   -1    0    0  501    0  0.00000000000E+00  0.00000000000E+00  0.15440619048E+04  0.15440619048E+04  0.25500000000E-02 0. -1.
         -2   -1    0    0    0  501 -0.00000000000E+00 -0.00000000000E+00 -0.63246021220E+03  0.63246021220E+03  0.25500000000E-02 0.  1.
    8880022    1    1    2    0    0  0.64169318500E+03 -0.58145855841E+03 -0.40739811075E+02  0.88029289674E+03  0.15294330000E+03 0.  0.
    8880022    1    1    2    0    0 -0.64169318500E+03  0.58145855841E+03  0.95234150366E+03  0.12962292202E+04  0.15294330000E+03 0.  0.
<mgrwt>
<rscale>  0 0.87934968E+03</rscale>
<asrwt>0</asrwt>
<pdfrwt beam="1">  1        2 0.23754799E+00 0.87934968E+03</pdfrwt>
<pdfrwt beam="2">  1       -2 0.97301571E-01 0.87934968E+03</pdfrwt>
<totfact> 0.10657605E+01</totfact>
</mgrwt>
</event>
<event>
 4    1  0.4639964E-008  0.1983921E+03  0.7818608E-02  0.1151103E+00
          2   -1    0    0  501    0  0.00000000000E+00  0.00000000000E+00  0.86239641488E+03  0.86239641488E+03  0.25500000000E-02 0. -1.
         -2   -1    0    0    0  501 -0.00000000000E+00 -0.00000000000E+00 -0.11929895145E+03  0.11929895148E+03  0.25500000000E-02 0.  1.
    8880022    1    1    2    0    0 -0.19436129783E+02  0.12485998392E+03 -0.14144806384E+02  0.19889571963E+03  0.15294330000E+03 0.  1.
    8880022    1    1    2    0    0  0.19436129783E+02 -0.12485998392E+03  0.75724226980E+03  0.78279964673E+03  0.15294330000E+03 0.  0.
<mgrwt>
<rscale>  0 0.19839212E+03</rscale>
<asrwt>0</asrwt>
<pdfrwt beam="1">  1        2 0.13267637E+00 0.19839212E+03</pdfrwt>
<pdfrwt beam="2">  1       -2 0.18353686E-01 0.19839212E+03</pdfrwt>
<totfact> 0.78824829E+02</totfact>
</mgrwt>
</event>
<event>
 4    1  0.4639964E-008  0.6467179E+03  0.7818608E-02  0.9812957E-01
          2   -1    0    0  501    0  0.00000000000E+00  0.00000000000E+00  0.19133473402E+04  0.19133473402E+04  0.25500000000E-02 0. -1.
         -2   -1    0    0    0  501 -0.00000000000E+00 -0.00000000000E+00 -0.45425479290E+03  0.45425479290E+03  0.25500000000E-02 0.  1.
    8880022    1    1    2    0    0 -0.54358557024E+03 -0.31522553443E+03  0.15822019501E+04  0.17092709188E+04  0.15294330000E+03 0.  0.
    8880022    1    1    2    0    0  0.54358557024E+03  0.31522553443E+03 -0.12310940281E+03  0.65833121436E+03  0.15294330000E+03 0.  0.
<mgrwt>
<rscale>  0 0.64671792E+03</rscale>
<asrwt>0</asrwt>
<pdfrwt beam="1">  1        2 0.29436113E+00 0.64671792E+03</pdfrwt>
<pdfrwt beam="2">  1       -2 0.69885354E-01 0.64671792E+03</pdfrwt>
<totfact> 0.14613846E+01</totfact>
</mgrwt>
</event>
<event>
 4    1  0.4639964E-008  0.4092783E+03  0.7818608E-02  0.1040613E+00
          2   -1    0    0  501    0  0.00000000000E+00  0.00000000000E+00  0.15962697561E+04  0.15962697561E+04  0.25500000000E-02 0. -1.
         -2   -1    0    0    0  501 -0.00000000000E+00 -0.00000000000E+00 -0.19734849040E+03  0.19734849042E+03  0.25500000000E-02 0.  1.
    8880022    1    1    2    0    0 -0.30428611243E+03  0.22699572853E+03  0.13131444053E+04  0.13754479202E+04  0.15294330000E+03 0.  0.
    8880022    1    1    2    0    0  0.30428611243E+03 -0.22699572853E+03  0.85776860355E+02  0.41817032628E+03  0.15294330000E+03 0.  1.
<mgrwt>
<rscale>  0 0.40927833E+03</rscale>
<asrwt>0</asrwt>
<pdfrwt beam="1">  1        2 0.24557998E+00 0.40927833E+03</pdfrwt>
<pdfrwt beam="2">  1       -2 0.30361304E-01 0.40927833E+03</pdfrwt>
<totfact> 0.11923456E+02</totfact>
</mgrwt>
</event>
<event>
 4    1  0.4639964E-008  0.6961853E+03  0.7818608E-02  0.9723778E-01
          2   -1    0    0  501    0  0.00000000000E+00  0.00000000000E+00  0.23871522965E+04  0.23871522965E+04  0.25500000000E-02 0. -1.
         -2   -1    0    0    0  501 -0.00000000000E+00 -0.00000000000E+00 -0.29103870317E+03  0.29103870318E+03  0.25500000000E-02 0.  1.
    8880022    1    1    2    0    0  0.57639225442E+03  0.35924127229E+03  0.31170018265E+03  0.76277846034E+03  0.15294330000E+03 0.  0.
    8880022    1    1    2    0    0 -0.57639225442E+03 -0.35924127229E+03  0.17844134107E+04  0.19154125393E+04  0.15294330000E+03 0.  0.
<mgrwt>
<rscale>  0 0.69618530E+03</rscale>
<asrwt>0</asrwt>
<pdfrwt beam="1">  1        2 0.36725420E+00 0.69618530E+03</pdfrwt>
<pdfrwt beam="2">  1       -2 0.44775185E-01 0.69618530E+03</pdfrwt>
<totfact> 0.20116892E+01</totfact>
</mgrwt>
</event>
<event>
 4    1  0.4639964E-008  0.3527651E+03  0.7818608E-02  0.1061486E+00
         -2   -1    0    0    0  501 -0.00000000000E+00  0.00000000000E+00  0.25707646576E+03  0.25707646578E+03  0.25500000000E-02 0.  1.
          2   -1    0    0  501    0  0.00000000000E+00 -0.00000000000E+00 -0.85975331399E+03  0.85975331400E+03  0.25500000000E-02 0. -1.
    8880022    1    1    2    0    0  0.15137446454E+03  0.27953056203E+03 -0.67046943972E+03  0.75760971894E+03  0.15294330000E+03 0.  0.
    8880022    1    1    2    0    0 -0.15137446454E+03 -0.27953056203E+03  0.67792591494E+02  0.35922006083E+03  0.15294330000E+03 0.  1.
<mgrwt>
<rscale>  0 0.35276510E+03</rscale>
<asrwt>0</asrwt>
<pdfrwt beam="1">  1        2 0.13226974E+00 0.35276510E+03</pdfrwt>
<pdfrwt beam="2">  1       -2 0.39550226E-01 0.35276510E+03</pdfrwt>
<totfact> 0.19665586E+02</totfact>
</mgrwt>
</event>
<event>
 4    1  0.4639964E-008  0.1101633E+04  0.7818608E-02  0.9203602E-01
          2   -1    0    0  501    0  0.00000000000E+00  0.00000000000E+00  0.16175087090E+04  0.16175087090E+04  0.25500000000E-02 0. -1.
         -2   -1    0    0    0  501 -0.00000000000E+00 -0.00000000000E+00 -0.16431312572E+04  0.16431312572E+04  0.25500000000E-02 0.  1.
    8880022    1    1    2    0    0 -0.10512182786E+04 -0.29179304366E+03  0.11889680735E+04  0.16208762391E+04  0.15294330000E+03 0.  0.
    8880022    1    1    2    0    0  0.10512182786E+04  0.29179304366E+03 -0.12145906217E+04  0.16397637272E+04  0.15294330000E+03 0.  0.
<mgrwt>
<rscale>  0 0.11016327E+04</rscale>
<asrwt>0</asrwt>
<pdfrwt beam="1">  1        2 0.24884749E+00 0.11016327E+04</pdfrwt>
<pdfrwt beam="2">  1       -2 0.25278943E+00 0.11016327E+04</pdfrwt>
<totfact> 0.66320125E-01</totfact>
</mgrwt>
</event>
<event>
 4    1  0.4639964E-008  0.3636468E+03  0.7818608E-02  0.1057149E+00
          2   -1    0    0  501    0  0.00000000000E+00  0.00000000000E+00  0.15429419556E+04  0.15429419556E+04  0.25500000000E-02 0. -1.
         -2   -1    0    0    0  501 -0.00000000000E+00 -0.00000000000E+00 -0.15759013217E+03  0.15759013219E+03  0.25500000000E-02 0.  1.
    8880022    1    1    2    0    0 -0.52912080173E+02  0.32564964332E+03  0.11841728049E+03  0.38244173903E+03  0.15294330000E+03 0.  0.
    8880022    1    1    2    0    0  0.52912080173E+02 -0.32564964332E+03  0.12669345430E+04  0.13180903488E+04  0.15294330000E+03 0.  0.
<mgrwt>
<rscale>  0 0.36364685E+03</rscale>
<asrwt>0</asrwt>
<pdfrwt beam="1">  1        2 0.23737567E+00 0.36364685E+03</pdfrwt>
<pdfrwt beam="2">  1       -2 0.24244637E-01 0.36364685E+03</pdfrwt>
<totfact> 0.19270414E+02</totfact>
</mgrwt>
</event>
<event>
 4    1  0.4639964E-008  0.4137633E+03  0.7818608E-02  0.1039115E+00
         -2   -1    0    0    0  501 -0.00000000000E+00  0.00000000000E+00  0.10084550096E+04  0.10084550096E+04  0.25500000000E-02 0.  1.
          2   -1    0    0  501    0  0.00000000000E+00 -0.00000000000E+00 -0.98844687851E+03  0.98844687852E+03  0.25500000000E-02 0. -1.
    8880022    1    1    2    0    0  0.11043677272E+03 -0.36825554232E+03  0.91867728542E+03  0.10075554739E+04  0.15294330000E+03 0.  0.
    8880022    1    1    2    0    0 -0.11043677272E+03  0.36825554232E+03 -0.89866915437E+03  0.98934641418E+03  0.15294330000E+03 0.  0.
<mgrwt>
<rscale>  0 0.41376331E+03</rscale>
<asrwt>0</asrwt>
<pdfrwt beam="1">  1        2 0.15206875E+00 0.41376331E+03</pdfrwt>
<pdfrwt beam="2">  1       -2 0.15514692E+00 0.41376331E+03</pdfrwt>
<totfact> 0.75688114E+00</totfact>
</mgrwt>
</event>
<event>
 4    1  0.4639964E-008  0.7728629E+03  0.7818608E-02  0.9600149E-01
         -2   -1    0    0    0  501 -0.00000000000E+00  0.00000000000E+00  0.27753691890E+04  0.27753691890E+04  0.25500000000E-02 0.  1.
          2   -1    0    0  501    0  0.00000000000E+00 -0.00000000000E+00 -0.61488345087E+03  0.61488345087E+03  0.25500000000E-02 0. -1.
    8880022    1    1    2    0    0 -0.48103753522E+02  0.75604989234E+03  0.24468776502E+04  0.25660333783E+04  0.15294330000E+03 0.  0.
    8880022    1    1    2    0    0  0.48103753522E+02 -0.75604989234E+03 -0.28639191203E+03  0.82421926154E+03  0.15294330000E+03 0.  0.
<mgrwt>
<rscale>  0 0.77286290E+03</rscale>
<asrwt>0</asrwt>
<pdfrwt beam="1">  1        2 0.94597455E-01 0.77286290E+03</pdfrwt>
<pdfrwt beam="2">  1       -2 0.42697987E+00 0.77286290E+03</pdfrwt>
<totfact> 0.25215607E-01</totfact>
</mgrwt>
</event>
<event>
 4    1  0.4639964E-008  0.2741186E+03  0.7818608E-02  0.1098945E+00
         -2   -1    0    0    0  501 -0.00000000000E+00  0.00000000000E+00  0.11898578344E+04  0.11898578345E+04  0.25500000000E-02 0.  1.
          2   -1    0    0  501    0  0.00000000000E+00 -0.00000000000E+00 -0.15780816058E+03  0.15780816060E+03  0.25500000000E-02 0. -1.
    8880022    1    1    2    0    0  0.22725365115E+03 -0.10254064704E+02  0.10378964652E+04  0.10734850224E+04  0.15294330000E+03 0.  1.
    8880022    1    1    2    0    0 -0.22725365115E+03  0.10254064704E+02 -0.58467913055E+01  0.27418097270E+03  0.15294330000E+03 0.  0.
<mgrwt>
<rscale>  0 0.27411863E+03</rscale>
<asrwt>0</asrwt>
<pdfrwt beam="1">  1        2 0.24278179E-01 0.27411863E+03</pdfrwt>
<pdfrwt beam="2">  1       -2 0.18305505E+00 0.27411863E+03</pdfrwt>
<totfact> 0.41480327E+01</totfact>
</mgrwt>
</event>
<event>
 4    1  0.4639964E-008  0.8619038E+03  0.7818608E-02  0.9474498E-01
         -2   -1    0    0    0  501 -0.00000000000E+00  0.00000000000E+00  0.10033873271E+04  0.10033873271E+04  0.25500000000E-02 0.  1.
          2   -1    0    0  501    0  0.00000000000E+00 -0.00000000000E+00 -0.96798645062E+03  0.96798645062E+03  0.25500000000E-02 0. -1.
    8880022    1    1    2    0    0 -0.83959830065E+03  0.12066996687E+03 -0.46027530265E+03  0.97710365602E+03  0.15294330000E+03 0.  0.
    8880022    1    1    2    0    0  0.83959830065E+03 -0.12066996687E+03  0.49567617914E+03  0.99427012172E+03  0.15294330000E+03 0.  0.
<mgrwt>
<rscale>  0 0.86190382E+03</rscale>
<asrwt>0</asrwt>
<pdfrwt beam="1">  1        2 0.14892099E+00 0.86190382E+03</pdfrwt>
<pdfrwt beam="2">  1       -2 0.15436728E+00 0.86190382E+03</pdfrwt>
<totfact> 0.73709682E+00</totfact>
</mgrwt>
</event>
<event>
 4    1  0.4639964E-008  0.5242980E+03  0.7818608E-02  0.1007624E+00
          2   -1    0    0  501    0  0.00000000000E+00  0.00000000000E+00  0.13125771550E+04  0.13125771550E+04  0.25500000000E-02 0. -1.
         -2   -1    0    0    0  501 -0.00000000000E+00 -0.00000000000E+00 -0.31013001639E+03  0.31013001640E+03  0.25500000000E-02 0.  1.
    8880022    1    1    2    0    0 -0.16489147179E+03  0.47361114732E+03  0.96356274241E+03  0.10969692466E+04  0.15294330000E+03 0.  0.
    8880022    1    1    2    0    0  0.16489147179E+03 -0.47361114732E+03  0.38884396201E+02  0.52573792484E+03  0.15294330000E+03 0.  0.
<mgrwt>
<rscale>  0 0.52429798E+03</rscale>
<asrwt>0</asrwt>
<pdfrwt beam="1">  1        2 0.20193495E+00 0.52429798E+03</pdfrwt>
<pdfrwt beam="2">  1       -2 0.47712310E-01 0.52429798E+03</pdfrwt>
<totfact> 0.70596263E+01</totfact>
</mgrwt>
</event>
<event>
 4    1  0.4639964E-008  0.3927719E+03  0.7818608E-02  0.1046312E+00
         -2   -1    0    0    0  501 -0.00000000000E+00  0.00000000000E+00  0.26680131855E+03  0.26680131856E+03  0.25500000000E-02 0.  1.
          2   -1    0    0  501    0  0.00000000000E+00 -0.00000000000E+00 -0.10574496154E+04  0.10574496154E+04  0.25500000000E-02 0. -1.
    8880022    1    1    2    0    0 -0.53583836172E+02  0.35778047934E+03 -0.84106501767E+03  0.92825649249E+03  0.15294330000E+03 0.  0.
    8880022    1    1    2    0    0  0.53583836172E+02 -0.35778047934E+03  0.50416720856E+02  0.39599444144E+03  0.15294330000E+03 0.  0.
<mgrwt>
<rscale>  0 0.39277188E+03</rscale>
<asrwt>0</asrwt>
<pdfrwt beam="1">  1        2 0.16268455E+00 0.39277188E+03</pdfrwt>
<pdfrwt beam="2">  1       -2 0.41046357E-01 0.39277188E+03</pdfrwt>
<totfact> 0.13631701E+02</totfact>
</mgrwt>
</event>
<event>
 4    1  0.4639964E-008  0.1044864E+04  0.7818608E-02  0.9260663E-01
         -2   -1    0    0    0  501 -0.00000000000E+00  0.00000000000E+00  0.88310942112E+03  0.88310942113E+03  0.25500000000E-02 0.  1.
          2   -1    0    0  501    0  0.00000000000E+00 -0.00000000000E+00 -0.20507154933E+04  0.20507154933E+04  0.25500000000E-02 0. -1.
    8880022    1    1    2    0    0  0.87280686222E+03 -0.55367618699E+03 -0.15082644953E+04  0.18348303953E+04  0.15294330000E+03 0.  0.
    8880022    1    1    2    0    0 -0.87280686222E+03  0.55367618699E+03  0.34065842312E+03  0.10989945191E+04  0.15294330000E+03 0.  0.
<mgrwt>
<rscale>  0 0.10448640E+04</rscale>
<asrwt>0</asrwt>
<pdfrwt beam="1">  1        2 0.31549469E+00 0.10448640E+04</pdfrwt>
<pdfrwt beam="2">  1       -2 0.13586299E+00 0.10448640E+04</pdfrwt>
<totfact> 0.24127402E+00</totfact>
</mgrwt>
</event>
<event>
 4    1  0.4639964E-008  0.6405384E+03  0.7818608E-02  0.9824697E-01
          2   -1    0    0  501    0  0.00000000000E+00  0.00000000000E+00  0.39286016363E+04  0.39286016363E+04  0.25500000000E-02 0. -1.
         -2   -1    0    0    0  501 -0.00000000000E+00 -0.00000000000E+00 -0.12788467337E+03  0.12788467339E+03  0.25500000000E-02 0.  1.
    8880022    1    1    2    0    0  0.50513025502E+03  0.36296173438E+03  0.10318677746E+04  0.12145124752E+04  0.15294330000E+03 0.  0.
    8880022    1    1    2    0    0 -0.50513025502E+03 -0.36296173438E+03  0.27688491884E+04  0.28419738346E+04  0.15294330000E+03 0.  0.
<mgrwt>
<rscale>  0 0.64053840E+03</rscale>
<asrwt>0</asrwt>
<pdfrwt beam="1">  1        2 0.60440017E+00 0.64053840E+03</pdfrwt>
<pdfrwt beam="2">  1       -2 0.19674568E-01 0.64053840E+03</pdfrwt>
<totfact> 0.96434788E+00</totfact>
</mgrwt>
</event>
<event>
 4    1  0.4639964E-008  0.1058737E+04  0.7818608E-02  0.9246369E-01
         -2   -1    0    0    0  501 -0.00000000000E+00  0.00000000000E+00  0.79155815261E+03  0.79155815261E+03  0.25500000000E-02 0.  1.
          2   -1    0    0  501    0  0.00000000000E+00 -0.00000000000E+00 -0.24602648739E+04  0.24602648739E+04  0.25500000000E-02 0. -1.
    8880022    1    1    2    0    0 -0.92325729218E+03 -0.49510530394E+03  0.22487758283E+03  0.10823561659E+04  0.15294330000E+03 0.  0.
    8880022    1    1    2    0    0  0.92325729218E+03  0.49510530394E+03 -0.18935843041E+04  0.21694668606E+04  0.15294330000E+03 0.  0.
<mgrwt>
<rscale>  0 0.10587374E+04</rscale>
<asrwt>0</asrwt>
<pdfrwt beam="1">  1        2 0.37850229E+00 0.10587374E+04</pdfrwt>
<pdfrwt beam="2">  1       -2 0.12177818E+00 0.10587374E+04</pdfrwt>
<totfact> 0.18749152E+00</totfact>
</mgrwt>
</event>
<event>
 4    1  0.4639964E-008  0.8358928E+03  0.7818608E-02  0.9509469E-01
         -2   -1    0    0    0  501 -0.00000000000E+00  0.00000000000E+00  0.63653033457E+03  0.63653033457E+03  0.25500000000E-02 0.  1.
          2   -1    0    0  501    0  0.00000000000E+00 -0.00000000000E+00 -0.13917032544E+04  0.13917032544E+04  0.25500000000E-02 0. -1.
    8880022    1    1    2    0    0 -0.49730359671E+02  0.82027562096E+03  0.88529114412E+02  0.84056782007E+03  0.15294330000E+03 0.  0.
    8880022    1    1    2    0    0  0.49730359671E+02 -0.82027562096E+03 -0.84370203420E+03  0.11876657689E+04  0.15294330000E+03 0.  0.
<mgrwt>
<rscale>  0 0.83589285E+03</rscale>
<asrwt>0</asrwt>
<pdfrwt beam="1">  1        2 0.21410819E+00 0.83589285E+03</pdfrwt>
<pdfrwt beam="2">  1       -2 0.97927744E-01 0.83589285E+03</pdfrwt>
<totfact> 0.12850115E+01</totfact>
</mgrwt>
</event>
<event>
 4    1  0.5791552E-008  0.8176940E+03  0.7818608E-02  0.9534753E-01
          2   -1    0    0  501    0  0.00000000000E+00  0.00000000000E+00  0.17584185545E+04  0.17584185545E+04  0.25500000000E-02 0. -1.
         -2   -1    0    0    0  501 -0.00000000000E+00 -0.00000000000E+00 -0.16746898714E+04  0.16746898714E+04  0.25500000000E-02 0.  1.
    8880022    1    1    2    0    0  0.76021711212E+03  0.25942569571E+03 -0.14672867535E+04  0.16797481416E+04  0.15294330000E+03 0.  0.
    8880022    1    1    2    0    0 -0.76021711212E+03 -0.25942569571E+03  0.15510154366E+04  0.17533602843E+04  0.15294330000E+03 0.  0.
<mgrwt>
<rscale>  0 0.81769395E+03</rscale>
<asrwt>0</asrwt>
<pdfrwt beam="1">  1        2 0.27052593E+00 0.81769395E+03</pdfrwt>
<pdfrwt beam="2">  1       -2 0.25764460E+00 0.81769395E+03</pdfrwt>
<totfact> 0.54317482E-01</totfact>
</mgrwt>
</event>
<event>
 4    1  0.4639964E-008  0.5800281E+03  0.7818608E-02  0.9947730E-01
         -2   -1    0    0    0  501 -0.00000000000E+00  0.00000000000E+00  0.76882702230E+03  0.76882702231E+03  0.25500000000E-02 0.  1.
          2   -1    0    0  501    0  0.00000000000E+00 -0.00000000000E+00 -0.14514870787E+04  0.14514870787E+04  0.25500000000E-02 0. -1.
    8880022    1    1    2    0    0  0.21269795177E+03 -0.51749441308E+03 -0.12691727088E+04  0.13954325151E+04  0.15294330000E+03 0.  0.
    8880022    1    1    2    0    0 -0.21269795177E+03  0.51749441308E+03  0.58651265246E+03  0.82488158591E+03  0.15294330000E+03 0.  0.
<mgrwt>
<rscale>  0 0.58002805E+03</rscale>
<asrwt>0</asrwt>
<pdfrwt beam="1">  1        2 0.22330570E+00 0.58002805E+03</pdfrwt>
<pdfrwt beam="2">  1       -2 0.11828108E+00 0.58002805E+03</pdfrwt>
<totfact> 0.78315694E+00</totfact>
</mgrwt>
</event>
<event>
 4    1  0.4639964E-008  0.1070233E+04  0.7818608E-02  0.9234700E-01
          2   -1    0    0  501    0  0.00000000000E+00  0.00000000000E+00  0.14499849150E+04  0.14499849150E+04  0.25500000000E-02 0. -1.
         -2   -1    0    0    0  501 -0.00000000000E+00 -0.00000000000E+00 -0.14692179043E+04  0.14692179043E+04  0.25500000000E-02 0.  1.
    8880022    1    1    2    0    0 -0.97066372744E+03  0.42405062177E+03 -0.10020820604E+04  0.14661402083E+04  0.15294330000E+03 0.  0.
    8880022    1    1    2    0    0  0.97066372744E+03 -0.42405062177E+03  0.98284907113E+03  0.14530626109E+04  0.15294330000E+03 0.  0.
<mgrwt>
<rscale>  0 0.10702330E+04</rscale>
<asrwt>0</asrwt>
<pdfrwt beam="1">  1        2 0.22307460E+00 0.10702330E+04</pdfrwt>
<pdfrwt beam="2">  1       -2 0.22603352E+00 0.10702330E+04</pdfrwt>
<totfact> 0.12096304E+00</totfact>
</mgrwt>
</event>
<event>
 4    1  0.4639964E-008  0.7023650E+03  0.7818608E-02  0.9713196E-01
         -2   -1    0    0    0  501 -0.00000000000E+00  0.00000000000E+00  0.30608914961E+03  0.30608914962E+03  0.25500000000E-02 0.  1.
          2   -1    0    0  501    0  0.00000000000E+00 -0.00000000000E+00 -0.20032997479E+04  0.20032997479E+04  0.25500000000E-02 0. -1.
    8880022    1    1    2    0    0 -0.67025120356E+03  0.14383424701E+03 -0.33806683365E+03  0.77949073343E+03  0.15294330000E+03 0.  0.
    8880022    1    1    2    0    0  0.67025120356E+03 -0.14383424701E+03 -0.13591437646E+04  0.15298981641E+04  0.15294330000E+03 0.  0.
<mgrwt>
<rscale>  0 0.70236502E+03</rscale>
<asrwt>0</asrwt>
<pdfrwt beam="1">  1        2 0.30819995E+00 0.70236502E+03</pdfrwt>
<pdfrwt beam="2">  1       -2 0.47090640E-01 0.70236502E+03</pdfrwt>
<totfact> 0.29556833E+01</totfact>
</mgrwt>
</event>
<event>
 4    1  0.5438653E-008  0.1274891E+04  0.7818608E-02  0.9049717E-01
          2   -1    0    0  501    0  0.00000000000E+00  0.00000000000E+00  0.27601930910E+04  0.27601930910E+04  0.25500000000E-02 0. -1.
         -2   -1    0    0    0  501 -0.00000000000E+00 -0.00000000000E+00 -0.12782466605E+04  0.12782466605E+04  0.25500000000E-02 0.  1.
    8880022    1    1    2    0    0 -0.62183281096E+03  0.11023973210E+04  0.22238667476E+04  0.25633826991E+04  0.15294330000E+03 0.  0.
    8880022    1    1    2    0    0  0.62183281096E+03 -0.11023973210E+04 -0.74192031708E+03  0.14750570525E+04  0.15294330000E+03 0.  0.
<mgrwt>
<rscale>  0 0.12748912E+04</rscale>
<asrwt>0</asrwt>
<pdfrwt beam="1">  1        2 0.42464509E+00 0.12748912E+04</pdfrwt>
<pdfrwt beam="2">  1       -2 0.19665333E+00 0.12748912E+04</pdfrwt>
<totfact> 0.33125744E-01</totfact>
</mgrwt>
</event>
<event>
 4    1  0.4639964E-008  0.4977628E+03  0.7818608E-02  0.1014365E+00
         -2   -1    0    0    0  501 -0.00000000000E+00  0.00000000000E+00  0.37983342104E+03  0.37983342105E+03  0.25500000000E-02 0.  1.
          2   -1    0    0  501    0  0.00000000000E+00 -0.00000000000E+00 -0.80252405529E+03  0.80252405530E+03  0.25500000000E-02 0. -1.
    8880022    1    1    2    0    0  0.45635694037E+03  0.12694299701E+03 -0.46711556610E+03  0.68261613416E+03  0.15294330000E+03 0.  0.
    8880022    1    1    2    0    0 -0.45635694037E+03 -0.12694299701E+03  0.44424931846E+02  0.49974134219E+03  0.15294330000E+03 0.  0.
<mgrwt>
<rscale>  0 0.49776283E+03</rscale>
<asrwt>0</asrwt>
<pdfrwt beam="1">  1        2 0.12346524E+00 0.49776283E+03</pdfrwt>
<pdfrwt beam="2">  1       -2 0.58435911E-01 0.49776283E+03</pdfrwt>
<totfact> 0.97067140E+01</totfact>
</mgrwt>
</event>
<event>
 4    1  0.4639964E-008  0.5615092E+03  0.7818608E-02  0.9988646E-01
          2   -1    0    0  501    0  0.00000000000E+00  0.00000000000E+00  0.33124911808E+04  0.33124911808E+04  0.25500000000E-02 0. -1.
         -2   -1    0    0    0  501 -0.00000000000E+00 -0.00000000000E+00 -0.11721725877E+03  0.11721725880E+03  0.25500000000E-02 0.  1.
    8880022    1    1    2    0    0 -0.54023213724E+03  0.70848631847E+01  0.85413630514E+03  0.10221748569E+04  0.15294330000E+03 0.  0.
    8880022    1    1    2    0    0  0.54023213724E+03 -0.70848631847E+01  0.23411376169E+04  0.24075335827E+04  0.15294330000E+03 0.  0.
<mgrwt>
<rscale>  0 0.56150923E+03</rscale>
<asrwt>0</asrwt>
<pdfrwt beam="1">  1        2 0.50961401E+00 0.56150923E+03</pdfrwt>
<pdfrwt beam="2">  1       -2 0.18033425E-01 0.56150923E+03</pdfrwt>
<totfact> 0.30917836E+01</totfact>
</mgrwt>
</event>
<event>
 4    1  0.4639964E-008  0.1690014E+03  0.7818608E-02  0.1178893E+00
          2   -1    0    0  501    0  0.00000000000E+00  0.00000000000E+00  0.14143640423E+04  0.14143640423E+04  0.25500000000E-02 0. -1.
         -2   -1    0    0    0  501 -0.00000000000E+00 -0.00000000000E+00 -0.74608256020E+03  0.74608256021E+03  0.25500000000E-02 0.  1.
    8880022    1    1    2    0    0 -0.71208198530E+02  0.99612224452E+01  0.13996448068E+04  0.14098110057E+04  0.15294330000E+03 0. -1.
    8880022    1    1    2    0    0  0.71208198530E+02 -0.99612224452E+01 -0.73136332471E+03  0.75063559683E+03  0.15294330000E+03 0.  0.
<mgrwt>
<rscale>  0 0.16900144E+03</rscale>
<asrwt>0</asrwt>
<pdfrwt beam="1">  1        2 0.21759447E+00 0.16900144E+03</pdfrwt>
<pdfrwt beam="2">  1       -2 0.11478193E+00 0.16900144E+03</pdfrwt>
<totfact> 0.10061650E+01</totfact>
</mgrwt>
</event>
<event>
 4    1  0.4639964E-008  0.9693871E+03  0.7818608E-02  0.9342773E-01
          2   -1    0    0  501    0  0.00000000000E+00  0.00000000000E+00  0.24119371124E+04  0.24119371124E+04  0.25500000000E-02 0. -1.
         -2   -1    0    0    0  501 -0.00000000000E+00 -0.00000000000E+00 -0.11186151037E+04  0.11186151037E+04  0.25500000000E-02 0.  1.
    8880022    1    1    2    0    0 -0.65422535635E+03 -0.69879105849E+03  0.20717369474E+04  0.22873140127E+04  0.15294330000E+03 0. -1.
    8880022    1    1    2    0    0  0.65422535635E+03  0.69879105849E+03 -0.77841493880E+03  0.12432382034E+04  0.15294330000E+03 0.  0.
<mgrwt>
<rscale>  0 0.96938713E+03</rscale>
<asrwt>0</asrwt>
<pdfrwt beam="1">  1        2 0.37106724E+00 0.96938713E+03</pdfrwt>
<pdfrwt beam="2">  1       -2 0.17209463E+00 0.96938713E+03</pdfrwt>
<totfact> 0.81332584E-01</totfact>
</mgrwt>
</event>
<event>
 4    1  0.4639964E-008  0.7918452E+03  0.7818608E-02  0.9571896E-01
          2   -1    0    0  501    0  0.00000000000E+00  0.00000000000E+00  0.26959116149E+04  0.26959116149E+04  0.25500000000E-02 0. -1.
         -2   -1    0    0    0  501 -0.00000000000E+00 -0.00000000000E+00 -0.27164758896E+03  0.27164758897E+03  0.25500000000E-02 0.  1.
    8880022    1    1    2    0    0 -0.50050801622E+03 -0.59423809085E+03  0.17748193212E+04  0.19434511722E+04  0.15294330000E+03 0.  0.
    8880022    1    1    2    0    0  0.50050801622E+03  0.59423809085E+03  0.64944470472E+03  0.10241080316E+04  0.15294330000E+03 0.  0.
<mgrwt>
<rscale>  0 0.79184521E+03</rscale>
<asrwt>0</asrwt>
<pdfrwt beam="1">  1        2 0.41475564E+00 0.79184521E+03</pdfrwt>
<pdfrwt beam="2">  1       -2 0.41791936E-01 0.79184521E+03</pdfrwt>
<totfact> 0.15145027E+01</totfact>
</mgrwt>
</event>
<event>
 4    1  0.4639964E-008  0.3461279E+03  0.7818608E-02  0.1064216E+00
         -2   -1    0    0    0  501 -0.00000000000E+00  0.00000000000E+00  0.17228840273E+03  0.17228840275E+03  0.25500000000E-02 0.  1.
          2   -1    0    0  501    0  0.00000000000E+00 -0.00000000000E+00 -0.13480193166E+04  0.13480193166E+04  0.25500000000E-02 0. -1.
    8880022    1    1    2    0    0  0.15723104050E+03 -0.26775231357E+03 -0.58942179317E+02  0.35111071621E+03  0.15294330000E+03 0.  1.
    8880022    1    1    2    0    0 -0.15723104050E+03  0.26775231357E+03 -0.11167887346E+04  0.11691970031E+04  0.15294330000E+03 0.  0.
<mgrwt>
<rscale>  0 0.34612795E+03</rscale>
<asrwt>0</asrwt>
<pdfrwt beam="1">  1        2 0.20738758E+00 0.34612795E+03</pdfrwt>
<pdfrwt beam="2">  1       -2 0.26505909E-01 0.34612795E+03</pdfrwt>
<totfact> 0.21061501E+02</totfact>
</mgrwt>
</event>
<event>
 4    1  0.4639964E-008  0.7925408E+03  0.7818608E-02  0.9570877E-01
          2   -1    0    0  501    0  0.00000000000E+00  0.00000000000E+00  0.11658474691E+04  0.11658474691E+04  0.25500000000E-02 0. -1.
         -2   -1    0    0    0  501 -0.00000000000E+00 -0.00000000000E+00 -0.67217166890E+03  0.67217166891E+03  0.25500000000E-02 0.  1.
    8880022    1    1    2    0    0 -0.71668205410E+03 -0.30182123167E+03  0.65625353539E+03  0.10289750134E+04  0.15294330000E+03 0.  0.
    8880022    1    1    2    0    0  0.71668205410E+03  0.30182123167E+03 -0.16257773517E+03  0.80904412459E+03  0.15294330000E+03 0.  0.
<mgrwt>
<rscale>  0 0.79254077E+03</rscale>
<asrwt>0</asrwt>
<pdfrwt beam="1">  1        2 0.17936115E+00 0.79254077E+03</pdfrwt>
<pdfrwt beam="2">  1       -2 0.10341103E+00 0.79254077E+03</pdfrwt>
<totfact> 0.15353624E+01</totfact>
</mgrwt>
</event>
<event>
 4    1  0.4639964E-008  0.7944469E+03  0.7818608E-02  0.9568090E-01
          2   -1    0    0  501    0  0.00000000000E+00  0.00000000000E+00  0.30855440993E+04  0.30855440993E+04  0.25500000000E-02 0. -1.
         -2   -1    0    0    0  501 -0.00000000000E+00 -0.00000000000E+00 -0.20474669555E+03  0.20474669557E+03  0.25500000000E-02 0.  1.
    8880022    1    1    2    0    0  0.43972749538E+03 -0.64373443431E+03  0.14914778110E+04  0.16898674522E+04  0.15294330000E+03 0.  1.
    8880022    1    1    2    0    0 -0.43972749538E+03  0.64373443431E+03  0.13893195927E+04  0.16004233427E+04  0.15294330000E+03 0. -1.
<mgrwt>
<rscale>  0 0.79444694E+03</rscale>
<asrwt>0</asrwt>
<pdfrwt beam="1">  1        2 0.47469908E+00 0.79444694E+03</pdfrwt>
<pdfrwt beam="2">  1       -2 0.31499492E-01 0.79444694E+03</pdfrwt>
<totfact> 0.15181050E+01</totfact>
</mgrwt>
</event>
<event>
 4    1  0.4639964E-008  0.3513328E+03  0.7818608E-02  0.1062069E+00
         -2   -1    0    0    0  501 -0.00000000000E+00  0.00000000000E+00  0.11705607273E+03  0.11705607275E+03  0.25500000000E-02 0.  1.
          2   -1    0    0  501    0  0.00000000000E+00 -0.00000000000E+00 -0.21111431542E+04  0.21111431542E+04  0.25500000000E-02 0. -1.
    8880022    1    1    2    0    0 -0.20642644786E+03  0.23964807775E+03 -0.17852335525E+04  0.18194761800E+04  0.15294330000E+03 0.  0.
    8880022    1    1    2    0    0  0.20642644786E+03 -0.23964807775E+03 -0.20885352897E+03  0.40872304697E+03  0.15294330000E+03 0.  0.
<mgrwt>
<rscale>  0 0.35133279E+03</rscale>
<asrwt>0</asrwt>
<pdfrwt beam="1">  1        2 0.32479123E+00 0.35133279E+03</pdfrwt>
<pdfrwt beam="2">  1       -2 0.18008628E-01 0.35133279E+03</pdfrwt>
<totfact> 0.16119504E+02</totfact>
</mgrwt>
</event>
<event>
 4    1  0.4639964E-008  0.1944526E+03  0.7818608E-02  0.1154506E+00
         -2   -1    0    0    0  501 -0.00000000000E+00  0.00000000000E+00  0.29705406340E+03  0.29705406341E+03  0.25500000000E-02 0.  1.
          2   -1    0    0  501    0  0.00000000000E+00 -0.00000000000E+00 -0.89874861816E+03  0.89874861816E+03  0.25500000000E-02 0. -1.
    8880022    1    1    2    0    0 -0.59777704302E+02  0.10414795791E+03 -0.85479260659E+03  0.87663117921E+03  0.15294330000E+03 0. -1.
    8880022    1    1    2    0    0  0.59777704302E+02 -0.10414795791E+03  0.25309805183E+03  0.31917150237E+03  0.15294330000E+03 0.  0.
<mgrwt>
<rscale>  0 0.19445263E+03</rscale>
<asrwt>0</asrwt>
<pdfrwt beam="1">  1        2 0.13826902E+00 0.19445263E+03</pdfrwt>
<pdfrwt beam="2">  1       -2 0.45700625E-01 0.19445263E+03</pdfrwt>
<totfact> 0.14354077E+02</totfact>
</mgrwt>
</event>
<event>
 4    1  0.4639964E-008  0.9824119E+03  0.7818608E-02  0.9328048E-01
          2   -1    0    0  501    0  0.00000000000E+00  0.00000000000E+00  0.82480942946E+03  0.82480942946E+03  0.25500000000E-02 0. -1.
         -2   -1    0    0    0  501 -0.00000000000E+00 -0.00000000000E+00 -0.12006002441E+04  0.12006002441E+04  0.25500000000E-02 0.  1.
    8880022    1    1    2    0    0  0.96678099820E+03 -0.84118924235E+02 -0.26559419830E+02  0.98277085208E+03  0.15294330000E+03 0.  0.
    8880022    1    1    2    0    0 -0.96678099820E+03  0.84118924235E+02 -0.34923139478E+03  0.10426388215E+04  0.15294330000E+03 0.  0.
<mgrwt>
<rscale>  0 0.98241190E+03</rscale>
<asrwt>0</asrwt>
<pdfrwt beam="1">  1        2 0.12689376E+00 0.98241190E+03</pdfrwt>
<pdfrwt beam="2">  1       -2 0.18470773E+00 0.98241190E+03</pdfrwt>
<totfact> 0.55304304E+00</totfact>
</mgrwt>
</event>
<event>
 4    1  0.4639964E-008  0.3101457E+03  0.7818608E-02  0.1080276E+00
         -2   -1    0    0    0  501 -0.00000000000E+00  0.00000000000E+00  0.80697465685E+02  0.80697465725E+02  0.25500000000E-02 0.  1.
          2   -1    0    0  501    0  0.00000000000E+00 -0.00000000000E+00 -0.19917673143E+04  0.19917673143E+04  0.25500000000E-02 0. -1.
    8880022    1    1    2    0    0 -0.36609437721E+02 -0.26731710136E+03 -0.29890118261E+03  0.43073455119E+03  0.15294330000E+03 0.  0.
    8880022    1    1    2    0    0  0.36609437721E+02  0.26731710136E+03 -0.16121686660E+04  0.16417302288E+04  0.15294330000E+03 0.  0.
<mgrwt>
<rscale>  0 0.31014567E+03</rscale>
<asrwt>0</asrwt>
<pdfrwt beam="1">  1        2 0.30642570E+00 0.31014567E+03</pdfrwt>
<pdfrwt beam="2">  1       -2 0.12414996E-01 0.31014567E+03</pdfrwt>
<totfact> 0.34948007E+02</totfact>
</mgrwt>
</event>
<event>
 4    1  0.4639964E-008  0.5007448E+03  0.7818608E-02  0.1013585E+00
          2   -1    0    0  501    0  0.00000000000E+00  0.00000000000E+00  0.47026129881E+03  0.47026129882E+03  0.25500000000E-02 0. -1.
         -2   -1    0    0    0  501 -0.00000000000E+00 -0.00000000000E+00 -0.70474221876E+03  0.70474221877E+03  0.25500000000E-02 0.  1.
    8880022    1    1    2    0    0 -0.44994085782E+03 -0.15781939856E+03 -0.40709090732E+03  0.64534362780E+03  0.15294330000E+03 0.  0.
    8880022    1    1    2    0    0  0.44994085782E+03  0.15781939856E+03  0.17260998737E+03  0.52965988979E+03  0.15294330000E+03 0.  0.
<mgrwt>
<rscale>  0 0.50074484E+03</rscale>
<asrwt>0</asrwt>
<pdfrwt beam="1">  1        2 0.72347892E-01 0.50074484E+03</pdfrwt>
<pdfrwt beam="2">  1       -2 0.10842188E+00 0.50074484E+03</pdfrwt>
<totfact> 0.46442587E+01</totfact>
</mgrwt>
</event>
<event>
 4    1  0.4639964E-008  0.9354583E+03  0.7818608E-02  0.9382311E-01
         -2   -1    0    0    0  501 -0.00000000000E+00  0.00000000000E+00  0.58587311999E+03  0.58587312000E+03  0.25500000000E-02 0.  1.
          2   -1    0    0  501    0  0.00000000000E+00 -0.00000000000E+00 -0.19147010272E+04  0.19147010272E+04  0.25500000000E-02 0. -1.
    8880022    1    1    2    0    0 -0.90961472884E+03  0.15585798062E+03 -0.78096472465E+02  0.93871261687E+03  0.15294330000E+03 0.  0.
    8880022    1    1    2    0    0  0.90961472884E+03 -0.15585798062E+03 -0.12507314347E+04  0.15618615303E+04  0.15294330000E+03 0.  0.
<mgrwt>
<rscale>  0 0.93545835E+03</rscale>
<asrwt>0</asrwt>
<pdfrwt beam="1">  1        2 0.29456939E+00 0.93545835E+03</pdfrwt>
<pdfrwt beam="2">  1       -2 0.90134327E-01 0.93545835E+03</pdfrwt>
<totfact> 0.79098361E+00</totfact>
</mgrwt>
</event>
<event>
 4    1  0.4639964E-008  0.5963200E+03  0.7818608E-02  0.9913070E-01
          2   -1    0    0  501    0  0.00000000000E+00  0.00000000000E+00  0.11312878021E+04  0.11312878022E+04  0.25500000000E-02 0. -1.
         -2   -1    0    0    0  501 -0.00000000000E+00 -0.00000000000E+00 -0.88938585248E+03  0.88938585248E+03  0.25500000000E-02 0.  1.
    8880022    1    1    2    0    0 -0.45370192630E+03 -0.35547217912E+03 -0.69146065848E+03  0.91308017353E+03  0.15294330000E+03 0.  0.
    8880022    1    1    2    0    0  0.45370192630E+03  0.35547217912E+03  0.93336260815E+03  0.11075934811E+04  0.15294330000E+03 0.  0.
<mgrwt>
<rscale>  0 0.59632002E+03</rscale>
<asrwt>0</asrwt>
<pdfrwt beam="1">  1        2 0.17404428E+00 0.59632002E+03</pdfrwt>
<pdfrwt beam="2">  1       -2 0.13682859E+00 0.59632002E+03</pdfrwt>
<totfact> 0.82797337E+00</totfact>
</mgrwt>
</event>
<event>
 4    1  0.4639964E-008  0.2913571E+03  0.7818608E-02  0.1089643E+00
          2   -1    0    0  501    0  0.00000000000E+00  0.00000000000E+00  0.61011420060E+03  0.61011420060E+03  0.25500000000E-02 0. -1.
         -2   -1    0    0    0  501 -0.00000000000E+00 -0.00000000000E+00 -0.38759070093E+03  0.38759070094E+03  0.25500000000E-02 0.  1.
    8880022    1    1    2    0    0  0.10571835122E+03 -0.22432327310E+03  0.51066251775E+03  0.58793295595E+03  0.15294330000E+03 0.  0.
    8880022    1    1    2    0    0 -0.10571835122E+03  0.22432327310E+03 -0.28813901808E+03  0.40977194559E+03  0.15294330000E+03 0.  0.
<mgrwt>
<rscale>  0 0.29135709E+03</rscale>
<asrwt>0</asrwt>
<pdfrwt beam="1">  1        2 0.93863723E-01 0.29135709E+03</pdfrwt>
<pdfrwt beam="2">  1       -2 0.59629339E-01 0.29135709E+03</pdfrwt>
<totfact> 0.13366070E+02</totfact>
</mgrwt>
</event>
<event>
 4    1  0.4639964E-008  0.9772081E+03  0.7818608E-02  0.9333902E-01
          2   -1    0    0  501    0  0.00000000000E+00  0.00000000000E+00  0.19199753122E+04  0.19199753122E+04  0.25500000000E-02 0. -1.
         -2   -1    0    0    0  501 -0.00000000000E+00 -0.00000000000E+00 -0.89289718809E+03  0.89289718810E+03  0.25500000000E-02 0.  1.
    8880022    1    1    2    0    0  0.15361372276E+03  0.95286246672E+03 -0.42253063108E+03  0.10646444681E+04  0.15294330000E+03 0.  0.
    8880022    1    1    2    0    0 -0.15361372276E+03 -0.95286246672E+03  0.14496087552E+04  0.17482280322E+04  0.15294330000E+03 0.  0.
<mgrwt>
<rscale>  0 0.97720812E+03</rscale>
<asrwt>0</asrwt>
<pdfrwt beam="1">  1        2 0.29538082E+00 0.97720812E+03</pdfrwt>
<pdfrwt beam="2">  1       -2 0.13736880E+00 0.97720812E+03</pdfrwt>
<totfact> 0.27928449E+00</totfact>
</mgrwt>
</event>
<event>
 4    1  0.4639964E-008  0.2247550E+03  0.7818608E-02  0.1130387E+00
          2   -1    0    0  501    0  0.00000000000E+00  0.00000000000E+00  0.64969404140E+03  0.64969404140E+03  0.25500000000E-02 0. -1.
         -2   -1    0    0    0  501 -0.00000000000E+00 -0.00000000000E+00 -0.49441711474E+03  0.49441711475E+03  0.25500000000E-02 0.  1.
    8880022    1    1    2    0    0  0.11902169985E+03  0.11382884669E+03  0.60279067267E+03  0.64332839161E+03  0.15294330000E+03 0. -1.
    8880022    1    1    2    0    0 -0.11902169985E+03 -0.11382884669E+03 -0.44751374601E+03  0.50078276454E+03  0.15294330000E+03 0.  0.
<mgrwt>
<rscale>  0 0.22475503E+03</rscale>
<asrwt>0</asrwt>
<pdfrwt beam="1">  1        2 0.99952929E-01 0.22475503E+03</pdfrwt>
<pdfrwt beam="2">  1       -2 0.76064172E-01 0.22475503E+03</pdfrwt>
<totfact> 0.74692605E+01</totfact>
</mgrwt>
</event>
<event>
 4    1  0.4639964E-008  0.4359925E+03  0.7818608E-02  0.1031984E+00
         -2   -1    0    0    0  501 -0.00000000000E+00  0.00000000000E+00  0.16047389626E+03  0.16047389628E+03  0.25500000000E-02 0.  1.
          2   -1    0    0  501    0  0.00000000000E+00 -0.00000000000E+00 -0.13710572442E+04  0.13710572442E+04  0.25500000000E-02 0. -1.
    8880022    1    1    2    0    0 -0.35206046718E+02  0.40676569106E+03 -0.32285881336E+03  0.54251936327E+03  0.15294330000E+03 0.  0.
    8880022    1    1    2    0    0  0.35206046718E+02 -0.40676569106E+03 -0.88772453457E+03  0.98901177720E+03  0.15294330000E+03 0.  0.
<mgrwt>
<rscale>  0 0.43599248E+03</rscale>
<asrwt>0</asrwt>
<pdfrwt beam="1">  1        2 0.21093188E+00 0.43599248E+03</pdfrwt>
<pdfrwt beam="2">  1       -2 0.24688293E-01 0.43599248E+03</pdfrwt>
<totfact> 0.22951759E+02</totfact>
</mgrwt>
</event>
<event>
 4    1  0.4639964E-008  0.2530315E+03  0.7818608E-02  0.1111404E+00
         -2   -1    0    0    0  501 -0.00000000000E+00  0.00000000000E+00  0.45038615238E+03  0.45038615239E+03  0.25500000000E-02 0.  1.
          2   -1    0    0  501    0  0.00000000000E+00 -0.00000000000E+00 -0.12024869732E+04  0.12024869732E+04  0.25500000000E-02 0. -1.
    8880022    1    1    2    0    0  0.15184295355E+03  0.13257828431E+03  0.40000034827E+03  0.47331302079E+03  0.15294330000E+03 0.  0.
    8880022    1    1    2    0    0 -0.15184295355E+03 -0.13257828431E+03 -0.11521011691E+04  0.11795601048E+04  0.15294330000E+03 0. -1.
<mgrwt>
<rscale>  0 0.25303149E+03</rscale>
<asrwt>0</asrwt>
<pdfrwt beam="1">  1        2 0.18499799E+00 0.25303149E+03</pdfrwt>
<pdfrwt beam="2">  1       -2 0.69290178E-01 0.25303149E+03</pdfrwt>
<totfact> 0.39669324E+01</totfact>
</mgrwt>
</event>
<event>
 4    1  0.4639964E-008  0.3906980E+03  0.7818608E-02  0.1047049E+00
          2   -1    0    0  501    0  0.00000000000E+00  0.00000000000E+00  0.11742310710E+04  0.11742310710E+04  0.25500000000E-02 0. -1.
         -2   -1    0    0    0  501 -0.00000000000E+00 -0.00000000000E+00 -0.29850307289E+03  0.29850307290E+03  0.25500000000E-02 0.  1.
    8880022    1    1    2    0    0 -0.35830560470E+03 -0.29502653264E+02  0.99112420896E+03  0.10653507232E+04  0.15294330000E+03 0.  0.
    8880022    1    1    2    0    0  0.35830560470E+03  0.29502653264E+02 -0.11539621088E+03  0.40738342064E+03  0.15294330000E+03 0.  0.
<mgrwt>
<rscale>  0 0.39069805E+03</rscale>
<asrwt>0</asrwt>
<pdfrwt beam="1">  1        2 0.18065093E+00 0.39069805E+03</pdfrwt>
<pdfrwt beam="2">  1       -2 0.45923550E-01 0.39069805E+03</pdfrwt>
<totfact> 0.93251383E+01</totfact>
</mgrwt>
</event>
<event>
 4    1  0.4639964E-008  0.6414100E+03  0.7818608E-02  0.9823033E-01
          2   -1    0    0  501    0  0.00000000000E+00  0.00000000000E+00  0.16196697953E+04  0.16196697953E+04  0.25500000000E-02 0. -1.
         -2   -1    0    0    0  501 -0.00000000000E+00 -0.00000000000E+00 -0.27945282160E+03  0.27945282161E+03  0.25500000000E-02 0.  1.
    8880022    1    1    2    0    0 -0.61981863454E+03 -0.61967807110E+02  0.95664534686E+03  0.11517712974E+04  0.15294330000E+03 0.  0.
    8880022    1    1    2    0    0  0.61981863454E+03  0.61967807110E+02  0.38357162686E+03  0.74735131952E+03  0.15294330000E+03 0.  0.
<mgrwt>
<rscale>  0 0.64141001E+03</rscale>
<asrwt>0</asrwt>
<pdfrwt beam="1">  1        2 0.24917997E+00 0.64141001E+03</pdfrwt>
<pdfrwt beam="2">  1       -2 0.42992741E-01 0.64141001E+03</pdfrwt>
<totfact> 0.57760874E+01</totfact>
</mgrwt>
</event>
<event>
 4    1  0.4639964E-008  0.4327322E+03  0.7818608E-02  0.1033000E+00
          2   -1    0    0  501    0  0.00000000000E+00  0.00000000000E+00  0.98504457439E+03  0.98504457439E+03  0.25500000000E-02 0. -1.
         -2   -1    0    0    0  501 -0.00000000000E+00 -0.00000000000E+00 -0.99557681406E+03  0.99557681407E+03  0.25500000000E-02 0.  1.
    8880022    1    1    2    0    0  0.13479601401E+03  0.38170081449E+03  0.88549358156E+03  0.98557395114E+03  0.15294330000E+03 0.  0.
    8880022    1    1    2    0    0 -0.13479601401E+03 -0.38170081449E+03 -0.89602582123E+03  0.99504743732E+03  0.15294330000E+03 0.  0.
<mgrwt>
<rscale>  0 0.43273217E+03</rscale>
<asrwt>0</asrwt>
<pdfrwt beam="1">  1        2 0.15154532E+00 0.43273217E+03</pdfrwt>
<pdfrwt beam="2">  1       -2 0.15316566E+00 0.43273217E+03</pdfrwt>
<totfact> 0.78345346E+00</totfact>
</mgrwt>
</event>
<event>
 4    1  0.4639964E-008  0.5424472E+03  0.7818608E-02  0.1003257E+00
         -2   -1    0    0    0  501 -0.00000000000E+00  0.00000000000E+00  0.76166002221E+03  0.76166002221E+03  0.25500000000E-02 0.  1.
          2   -1    0    0  501    0  0.00000000000E+00 -0.00000000000E+00 -0.16773611943E+04  0.16773611943E+04  0.25500000000E-02 0. -1.
    8880022    1    1    2    0    0 -0.42259379968E+03 -0.30376279758E+03  0.61204486452E+03  0.81783123316E+03  0.15294330000E+03 0.  1.
    8880022    1    1    2    0    0  0.42259379968E+03  0.30376279758E+03 -0.15277460367E+04  0.16211899834E+04  0.15294330000E+03 0.  0.
<mgrwt>
<rscale>  0 0.54244724E+03</rscale>
<asrwt>0</asrwt>
<pdfrwt beam="1">  1        2 0.25805557E+00 0.54244724E+03</pdfrwt>
<pdfrwt beam="2">  1       -2 0.11717846E+00 0.54244724E+03</pdfrwt>
<totfact> 0.60711990E+00</totfact>
</mgrwt>
</event>
<event>
 4    1  0.4639964E-008  0.1594151E+04  0.7818608E-02  0.8824149E-01
          2   -1    0    0  501    0  0.00000000000E+00  0.00000000000E+00  0.17065282471E+04  0.17065282471E+04  0.25500000000E-02 0. -1.
         -2   -1    0    0    0  501 -0.00000000000E+00 -0.00000000000E+00 -0.18894774448E+04  0.18894774448E+04  0.25500000000E-02 0.  1.
    8880022    1    1    2    0    0  0.14054574818E+04 -0.73662495309E+03 -0.91906186056E+03  0.18401069021E+04  0.15294330000E+03 0.  0.
    8880022    1    1    2    0    0 -0.14054574818E+04  0.73662495309E+03  0.73611266286E+03  0.17558987898E+04  0.15294330000E+03 0.  0.
<mgrwt>
<rscale>  0 0.15941514E+04</rscale>
<asrwt>0</asrwt>
<pdfrwt beam="1">  1        2 0.26254281E+00 0.15941514E+04</pdfrwt>
<pdfrwt beam="2">  1       -2 0.29068884E+00 0.15941514E+04</pdfrwt>
<totfact> 0.32762702E-01</totfact>
</mgrwt>
</event>
<event>
 4    1  0.4639964E-008  0.3124963E+03  0.7818608E-02  0.1079155E+00
         -2   -1    0    0    0  501 -0.00000000000E+00  0.00000000000E+00  0.32699168181E+03  0.32699168182E+03  0.25500000000E-02 0.  1.
          2   -1    0    0  501    0  0.00000000000E+00 -0.00000000000E+00 -0.62202398534E+03  0.62202398535E+03  0.25500000000E-02 0. -1.
    8880022    1    1    2    0    0 -0.19965424816E+03 -0.18547361780E+03  0.19461824344E+03  0.36814425895E+03  0.15294330000E+03 0.  0.
    8880022    1    1    2    0    0  0.19965424816E+03  0.18547361780E+03 -0.48965054698E+03  0.58087140821E+03  0.15294330000E+03 0.  0.
<mgrwt>
<rscale>  0 0.31249630E+03</rscale>
<asrwt>0</asrwt>
<pdfrwt beam="1">  1        2 0.95695998E-01 0.31249630E+03</pdfrwt>
<pdfrwt beam="2">  1       -2 0.50306413E-01 0.31249630E+03</pdfrwt>
<totfact> 0.18449555E+02</totfact>
</mgrwt>
</event>
<event>
 4    1  0.4639964E-008  0.2626784E+03  0.7818608E-02  0.1105545E+00
          2   -1    0    0  501    0  0.00000000000E+00  0.00000000000E+00  0.66257100751E+03  0.66257100751E+03  0.25500000000E-02 0. -1.
         -2   -1    0    0    0  501 -0.00000000000E+00 -0.00000000000E+00 -0.13733050471E+03  0.13733050473E+03  0.25500000000E-02 0.  1.
    8880022    1    1    2    0    0 -0.18865679666E+03 -0.10008447505E+03  0.45924217624E+03  0.52905889892E+03  0.15294330000E+03 0.  0.
    8880022    1    1    2    0    0  0.18865679666E+03  0.10008447505E+03  0.65998326552E+02  0.27084261333E+03  0.15294330000E+03 0.  0.
<mgrwt>
<rscale>  0 0.26267840E+03</rscale>
<asrwt>0</asrwt>
<pdfrwt beam="1">  1        2 0.10193400E+00 0.26267840E+03</pdfrwt>
<pdfrwt beam="2">  1       -2 0.21127770E-01 0.26267840E+03</pdfrwt>
<totfact> 0.85947896E+02</totfact>
</mgrwt>
</event>
<event>
 4    1  0.4639964E-008  0.8067605E+03  0.7818608E-02  0.9550283E-01
          2   -1    0    0  501    0  0.00000000000E+00  0.00000000000E+00  0.28844648469E+04  0.28844648469E+04  0.25500000000E-02 0. -1.
         -2   -1    0    0    0  501 -0.00000000000E+00 -0.00000000000E+00 -0.53971366569E+03  0.53971366569E+03  0.25500000000E-02 0.  1.
    8880022    1    1    2    0    0  0.59099252102E+03  0.52744544715E+03  0.24784190015E+04  0.26064196246E+04  0.15294330000E+03 0.  0.
    8880022    1    1    2    0    0 -0.59099252102E+03 -0.52744544715E+03 -0.13366782031E+03  0.81775888795E+03  0.15294330000E+03 0.  0.
<mgrwt>
<rscale>  0 0.80676051E+03</rscale>
<asrwt>0</asrwt>
<pdfrwt beam="1">  1        2 0.44376382E+00 0.80676051E+03</pdfrwt>
<pdfrwt beam="2">  1       -2 0.83032872E-01 0.80676051E+03</pdfrwt>
<totfact> 0.27441519E+00</totfact>
</mgrwt>
</event>
<event>
 4    1  0.4639964E-008  0.1014572E+04  0.7818608E-02  0.9292706E-01
          2   -1    0    0  501    0  0.00000000000E+00  0.00000000000E+00  0.14021003564E+04  0.14021003564E+04  0.25500000000E-02 0. -1.
         -2   -1    0    0    0  501 -0.00000000000E+00 -0.00000000000E+00 -0.12748213761E+04  0.12748213761E+04  0.25500000000E-02 0.  1.
    8880022    1    1    2    0    0  0.35400297331E+03 -0.93842736369E+03  0.93529853085E+03  0.13799054377E+04  0.15294330000E+03 0.  0.
    8880022    1    1    2    0    0 -0.35400297331E+03  0.93842736369E+03 -0.80801955055E+03  0.12970162949E+04  0.15294330000E+03 0.  0.
<mgrwt>
<rscale>  0 0.10145717E+04</rscale>
<asrwt>0</asrwt>
<pdfrwt beam="1">  1        2 0.21570775E+00 0.10145717E+04</pdfrwt>
<pdfrwt beam="2">  1       -2 0.19612637E+00 0.10145717E+04</pdfrwt>
<totfact> 0.20173284E+00</totfact>
</mgrwt>
</event>
<event>
 4    1  0.4639964E-008  0.3700828E+03  0.7818608E-02  0.1054661E+00
         -2   -1    0    0    0  501 -0.00000000000E+00  0.00000000000E+00  0.60841485579E+03  0.60841485579E+03  0.25500000000E-02 0.  1.
          2   -1    0    0  501    0  0.00000000000E+00 -0.00000000000E+00 -0.28168326699E+03  0.28168326700E+03  0.25500000000E-02 0. -1.
    8880022    1    1    2    0    0  0.33227488420E+03  0.56240484656E+02 -0.36080898493E+02  0.37183743092E+03  0.15294330000E+03 0.  0.
    8880022    1    1    2    0    0 -0.33227488420E+03 -0.56240484656E+02  0.36281248730E+03  0.51826069187E+03  0.15294330000E+03 0.  0.
<mgrwt>
<rscale>  0 0.37008275E+03</rscale>
<asrwt>0</asrwt>
<pdfrwt beam="1">  1        2 0.43335888E-01 0.37008275E+03</pdfrwt>
<pdfrwt beam="2">  1       -2 0.93602284E-01 0.37008275E+03</pdfrwt>
<totfact> 0.11706086E+02</totfact>
</mgrwt>
</event>
<event>
 4    1  0.4639964E-008  0.3437860E+03  0.7818608E-02  0.1065195E+00
         -2   -1    0    0    0  501 -0.00000000000E+00  0.00000000000E+00  0.16926532759E+03  0.16926532761E+03  0.25500000000E-02 0.  1.
          2   -1    0    0  501    0  0.00000000000E+00 -0.00000000000E+00 -0.16889607348E+04  0.16889607348E+04  0.25500000000E-02 0. -1.
    8880022    1    1    2    0    0 -0.13093538566E+03  0.27866305617E+03 -0.48252356257E+02  0.34715575322E+03  0.15294330000E+03 0.  0.
    8880022    1    1    2    0    0  0.13093538566E+03 -0.27866305617E+03 -0.14714430509E+04  0.15110703092E+04  0.15294330000E+03 0.  0.
<mgrwt>
<rscale>  0 0.34378602E+03</rscale>
<asrwt>0</asrwt>
<pdfrwt beam="1">  1        2 0.25984010E+00 0.34378602E+03</pdfrwt>
<pdfrwt beam="2">  1       -2 0.26040821E-01 0.34378602E+03</pdfrwt>
<totfact> 0.14218042E+02</totfact>
</mgrwt>
</event>
<event>
 4    1  0.4639964E-008  0.1832766E+03  0.7818608E-02  0.1164669E+00
          2   -1    0    0  501    0  0.00000000000E+00  0.00000000000E+00  0.13784733353E+04  0.13784733353E+04  0.25500000000E-02 0. -1.
         -2   -1    0    0    0  501 -0.00000000000E+00 -0.00000000000E+00 -0.64298434424E+03  0.64298434425E+03  0.25500000000E-02 0.  1.
    8880022    1    1    2    0    0  0.80193734915E+02  0.61380907553E+02  0.13591361045E+04  0.13714376597E+04  0.15294330000E+03 0.  0.
    8880022    1    1    2    0    0 -0.80193734915E+02 -0.61380907553E+02 -0.62364711349E+03  0.65002001978E+03  0.15294330000E+03 0.  1.
<mgrwt>
<rscale>  0 0.18327658E+03</rscale>
<asrwt>0</asrwt>
<pdfrwt beam="1">  1        2 0.21207282E+00 0.18327658E+03</pdfrwt>
<pdfrwt beam="2">  1       -2 0.98920669E-01 0.18327658E+03</pdfrwt>
<totfact> 0.14788189E+01</totfact>
</mgrwt>
</event>
<event>
 4    1  0.4639964E-008  0.3873786E+03  0.7818608E-02  0.1048240E+00
         -2   -1    0    0    0  501 -0.00000000000E+00  0.00000000000E+00  0.84936545301E+03  0.84936545301E+03  0.25500000000E-02 0.  1.
          2   -1    0    0  501    0  0.00000000000E+00 -0.00000000000E+00 -0.10608245441E+04  0.10608245441E+04  0.25500000000E-02 0. -1.
    8880022    1    1    2    0    0  0.37770564026E+02 -0.35389815070E+03  0.76621226309E+03  0.85857055721E+03  0.15294330000E+03 0.  0.
    8880022    1    1    2    0    0 -0.37770564026E+02  0.35389815070E+03 -0.97767135421E+03  0.10516194399E+04  0.15294330000E+03 0.  0.
<mgrwt>
<rscale>  0 0.38737859E+03</rscale>
<asrwt>0</asrwt>
<pdfrwt beam="1">  1        2 0.16320378E+00 0.38737859E+03</pdfrwt>
<pdfrwt beam="2">  1       -2 0.13067161E+00 0.38737859E+03</pdfrwt>
<totfact> 0.10686310E+01</totfact>
</mgrwt>
</event>
<event>
 4    1  0.4639964E-008  0.2461442E+03  0.7818608E-02  0.1115766E+00
          2   -1    0    0  501    0  0.00000000000E+00  0.00000000000E+00  0.11235768954E+04  0.11235768954E+04  0.25500000000E-02 0. -1.
         -2   -1    0    0    0  501 -0.00000000000E+00 -0.00000000000E+00 -0.29529653307E+03  0.29529653308E+03  0.25500000000E-02 0.  1.
    8880022    1    1    2    0    0  0.49711512732E+02  0.18634394232E+03  0.10555403310E+04  0.10838599277E+04  0.15294330000E+03 0.  0.
    8880022    1    1    2    0    0 -0.49711512732E+02 -0.18634394232E+03 -0.22725996870E+03  0.33501350081E+03  0.15294330000E+03 0.  0.
<mgrwt>
<rscale>  0 0.24614417E+03</rscale>
<asrwt>0</asrwt>
<pdfrwt beam="1">  1        2 0.17285798E+00 0.24614417E+03</pdfrwt>
<pdfrwt beam="2">  1       -2 0.45430236E-01 0.24614417E+03</pdfrwt>
<totfact> 0.10475794E+02</totfact>
</mgrwt>
</event>
<event>
 4    1  0.4639964E-008  0.5620680E+03  0.7818608E-02  0.9987386E-01
          2   -1    0    0  501    0  0.00000000000E+00  0.00000000000E+00  0.22894184304E+04  0.22894184304E+04  0.25500000000E-02 0. -1.
         -2   -1    0    0    0  501 -0.00000000000E+00 -0.00000000000E+00 -0.15825661385E+03  0.15825661387E+03  0.25500000000E-02 0.  1.
    8880022    1    1    2    0    0 -0.53094966116E+03  0.10305924060E+03  0.62763870917E+03  0.84252641028E+03  0.15294330000E+03 0.  0.
    8880022    1    1    2    0    0  0.53094966116E+03 -0.10305924060E+03  0.15035231074E+04  0.16051486340E+04  0.15294330000E+03 0.  0.
<mgrwt>
<rscale>  0 0.56206797E+03</rscale>
<asrwt>0</asrwt>
<pdfrwt beam="1">  1        2 0.35221817E+00 0.56206797E+03</pdfrwt>
<pdfrwt beam="2">  1       -2 0.24347175E-01 0.56206797E+03</pdfrwt>
<totfact> 0.73355537E+01</totfact>
</mgrwt>
</event>
<event>
 4    1  0.4639964E-008  0.1815825E+03  0.7818608E-02  0.1166280E+00
          2   -1    0    0  501    0  0.00000000000E+00  0.00000000000E+00  0.18937100662E+04  0.18937100662E+04  0.25500000000E-02 0. -1.
         -2   -1    0    0    0  501 -0.00000000000E+00 -0.00000000000E+00 -0.63297926337E+02  0.63297926388E+02  0.25500000000E-02 0.  1.
    8880022    1    1    2    0    0 -0.36577827151E+02 -0.90788903813E+02  0.82080865128E+02  0.19927238627E+03  0.15294330000E+03 0.  0.
    8880022    1    1    2    0    0  0.36577827151E+02  0.90788903813E+02  0.17483312747E+04  0.17577356063E+04  0.15294330000E+03 0. -1.
<mgrwt>
<rscale>  0 0.18158253E+03</rscale>
<asrwt>0</asrwt>
<pdfrwt beam="1">  1        2 0.29133993E+00 0.18158253E+03</pdfrwt>
<pdfrwt beam="2">  1       -2 0.97381451E-02 0.18158253E+03</pdfrwt>
<totfact> 0.59573540E+02</totfact>
</mgrwt>
</event>
<event>
 4    1  0.4639964E-008  0.6654054E+03  0.7818608E-02  0.9778294E-01
         -2   -1    0    0    0  501 -0.00000000000E+00  0.00000000000E+00  0.83215000697E+03  0.83215000697E+03  0.25500000000E-02 0.  1.
          2   -1    0    0  501    0  0.00000000000E+00 -0.00000000000E+00 -0.18189683495E+04  0.18189683495E+04  0.25500000000E-02 0. -1.
    8880022    1    1    2    0    0  0.52667697672E+03 -0.37680770488E+03  0.62154806107E+03  0.91054177801E+03  0.15294330000E+03 0.  1.
    8880022    1    1    2    0    0 -0.52667697672E+03  0.37680770488E+03 -0.16083664036E+04  0.17405765785E+04  0.15294330000E+03 0.  0.
<mgrwt>
<rscale>  0 0.66540539E+03</rscale>
<asrwt>0</asrwt>
<pdfrwt beam="1">  1        2 0.27984128E+00 0.66540539E+03</pdfrwt>
<pdfrwt beam="2">  1       -2 0.12802308E+00 0.66540539E+03</pdfrwt>
<totfact> 0.39839726E+00</totfact>
</mgrwt>
</event>
<event>
 4    1  0.4639964E-008  0.6248162E+03  0.7818608E-02  0.9855217E-01
          2   -1    0    0  501    0  0.00000000000E+00  0.00000000000E+00  0.24208834748E+04  0.24208834748E+04  0.25500000000E-02 0. -1.
         -2   -1    0    0    0  501 -0.00000000000E+00 -0.00000000000E+00 -0.24700918329E+03  0.24700918331E+03  0.25500000000E-02 0.  1.
    8880022    1    1    2    0    0  0.15976262055E+03  0.58436245445E+03  0.18728838221E+04  0.19743578797E+04  0.15294330000E+03 0.  0.
    8880022    1    1    2    0    0 -0.15976262055E+03 -0.58436245445E+03  0.30099046933E+03  0.69353477832E+03  0.15294330000E+03 0.  0.
<mgrwt>
<rscale>  0 0.62481615E+03</rscale>
<asrwt>0</asrwt>
<pdfrwt beam="1">  1        2 0.37244362E+00 0.62481615E+03</pdfrwt>
<pdfrwt beam="2">  1       -2 0.38001412E-01 0.62481615E+03</pdfrwt>
<totfact> 0.26878000E+01</totfact>
</mgrwt>
</event>
<event>
 4    1  0.4639964E-008  0.7334528E+03  0.7818608E-02  0.9661674E-01
         -2   -1    0    0    0  501 -0.00000000000E+00  0.00000000000E+00  0.45656216671E+03  0.45656216672E+03  0.25500000000E-02 0.  1.
          2   -1    0    0  501    0  0.00000000000E+00 -0.00000000000E+00 -0.15853928941E+04  0.15853928941E+04  0.25500000000E-02 0. -1.
    8880022    1    1    2    0    0 -0.50950591673E+03  0.50494067196E+03 -0.47033661448E+02  0.73495930480E+03  0.15294330000E+03 0.  0.
    8880022    1    1    2    0    0  0.50950591673E+03 -0.50494067196E+03 -0.10817970660E+04  0.13069957561E+04  0.15294330000E+03 0.  0.
<mgrwt>
<rscale>  0 0.73345280E+03</rscale>
<asrwt>0</asrwt>
<pdfrwt beam="1">  1        2 0.24390660E+00 0.73345280E+03</pdfrwt>
<pdfrwt beam="2">  1       -2 0.70240334E-01 0.73345280E+03</pdfrwt>
<totfact> 0.21544409E+01</totfact>
</mgrwt>
</event>
<event>
 4    1  0.4639964E-008  0.4147805E+03  0.7818608E-02  0.1038779E+00
         -2   -1    0    0    0  501 -0.00000000000E+00  0.00000000000E+00  0.53675616026E+03  0.53675616027E+03  0.25500000000E-02 0.  1.
          2   -1    0    0  501    0  0.00000000000E+00 -0.00000000000E+00 -0.46692252649E+03  0.46692252649E+03  0.25500000000E-02 0. -1.
    8880022    1    1    2    0    0  0.33478796267E+03 -0.19122827640E+03  0.31592023238E+03  0.52139090890E+03  0.15294330000E+03 0.  0.
    8880022    1    1    2    0    0 -0.33478796267E+03  0.19122827640E+03 -0.24608659861E+03  0.48228777786E+03  0.15294330000E+03 0.  0.
<mgrwt>
<rscale>  0 0.41478053E+03</rscale>
<asrwt>0</asrwt>
<pdfrwt beam="1">  1        2 0.71834235E-01 0.41478053E+03</pdfrwt>
<pdfrwt beam="2">  1       -2 0.82577871E-01 0.41478053E+03</pdfrwt>
<totfact> 0.88795995E+01</totfact>
</mgrwt>
</event>
<event>
 4    1  0.4639964E-008  0.5257645E+03  0.7818608E-02  0.1007265E+00
          2   -1    0    0  501    0  0.00000000000E+00  0.00000000000E+00  0.19462610212E+04  0.19462610212E+04  0.25500000000E-02 0. -1.
         -2   -1    0    0    0  501 -0.00000000000E+00 -0.00000000000E+00 -0.26633027531E+03  0.26633027533E+03  0.25500000000E-02 0.  1.
    8880022    1    1    2    0    0 -0.38966750724E+03  0.31811304738E+03  0.84183984635E+02  0.53246152292E+03  0.15294330000E+03 0.  0.
    8880022    1    1    2    0    0  0.38966750724E+03 -0.31811304738E+03  0.15957467612E+04  0.16801297736E+04  0.15294330000E+03 0.  0.
<mgrwt>
<rscale>  0 0.52576452E+03</rscale>
<asrwt>0</asrwt>
<pdfrwt beam="1">  1        2 0.29942477E+00 0.52576452E+03</pdfrwt>
<pdfrwt beam="2">  1       -2 0.40973889E-01 0.52576452E+03</pdfrwt>
<totfact> 0.42966645E+01</totfact>
</mgrwt>
</event>
<event>
 4    1  0.4639964E-008  0.4814336E+03  0.7818608E-02  0.1018742E+00
         -2   -1    0    0    0  501 -0.00000000000E+00  0.00000000000E+00  0.56985821486E+03  0.56985821487E+03  0.25500000000E-02 0.  1.
          2   -1    0    0  501    0  0.00000000000E+00 -0.00000000000E+00 -0.14170174818E+04  0.14170174818E+04  0.25500000000E-02 0. -1.
    8880022    1    1    2    0    0  0.44081921610E+03 -0.11859617819E+03 -0.12624128856E+04  0.13510975470E+04  0.15294330000E+03 0.  0.
    8880022    1    1    2    0    0 -0.44081921610E+03  0.11859617819E+03  0.41525361867E+03  0.63577814967E+03  0.15294330000E+03 0.  0.
<mgrwt>
<rscale>  0 0.48143358E+03</rscale>
<asrwt>0</asrwt>
<pdfrwt beam="1">  1        2 0.21800269E+00 0.48143358E+03</pdfrwt>
<pdfrwt beam="2">  1       -2 0.87670495E-01 0.48143358E+03</pdfrwt>
<totfact> 0.16931024E+01</totfact>
</mgrwt>
</event>
<event>
 4    1  0.4639964E-008  0.3642080E+03  0.7818608E-02  0.1056930E+00
          2   -1    0    0  501    0  0.00000000000E+00  0.00000000000E+00  0.12455720567E+04  0.12455720567E+04  0.25500000000E-02 0. -1.
         -2   -1    0    0    0  501 -0.00000000000E+00 -0.00000000000E+00 -0.29342062057E+03  0.29342062058E+03  0.25500000000E-02 0.  1.
    8880022    1    1    2    0    0 -0.22851002187E+02 -0.32974785269E+03 -0.13810390631E+03  0.38951271688E+03  0.15294330000E+03 0.  0.
    8880022    1    1    2    0    0  0.22851002187E+02  0.32974785269E+03  0.10902553425E+04  0.11494799605E+04  0.15294330000E+03 0.  0.
<mgrwt>
<rscale>  0 0.36420800E+03</rscale>
<asrwt>0</asrwt>
<pdfrwt beam="1">  1        2 0.19162647E+00 0.36420800E+03</pdfrwt>
<pdfrwt beam="2">  1       -2 0.45141634E-01 0.36420800E+03</pdfrwt>
<totfact> 0.88148070E+01</totfact>
</mgrwt>
</event>
<event>
 4    1  0.4639964E-008  0.8296996E+03  0.7818608E-02  0.9517996E-01
         -2   -1    0    0    0  501 -0.00000000000E+00  0.00000000000E+00  0.94859554699E+03  0.94859554699E+03  0.25500000000E-02 0.  1.
          2   -1    0    0  501    0  0.00000000000E+00 -0.00000000000E+00 -0.21473288489E+04  0.21473288489E+04  0.25500000000E-02 0. -1.
    8880022    1    1    2    0    0  0.72719013423E+03 -0.36905860581E+03  0.66014816902E+03  0.10602815682E+04  0.15294330000E+03 0.  0.
    8880022    1    1    2    0    0 -0.72719013423E+03  0.36905860581E+03 -0.18588814709E+04  0.20356428277E+04  0.15294330000E+03 0.  0.
<mgrwt>
<rscale>  0 0.82969958E+03</rscale>
<asrwt>0</asrwt>
<pdfrwt beam="1">  1        2 0.33035828E+00 0.82969958E+03</pdfrwt>
<pdfrwt beam="2">  1       -2 0.14593778E+00 0.82969958E+03</pdfrwt>
<totfact> 0.18285084E+00</totfact>
</mgrwt>
</event>
<event>
 4    1  0.4639964E-008  0.3518737E+03  0.7818608E-02  0.1061849E+00
         -2   -1    0    0    0  501 -0.00000000000E+00  0.00000000000E+00  0.52794565118E+02  0.52794565179E+02  0.25500000000E-02 0.  1.
          2   -1    0    0  501    0  0.00000000000E+00 -0.00000000000E+00 -0.25990383132E+04  0.25990383132E+04  0.25500000000E-02 0. -1.
    8880022    1    1    2    0    0 -0.30978026128E+03  0.66780562593E+02 -0.85877176769E+03  0.92806468299E+03  0.15294330000E+03 0.  0.
    8880022    1    1    2    0    0  0.30978026128E+03 -0.66780562593E+02 -0.16874719804E+04  0.17237681954E+04  0.15294330000E+03 0.  0.
<mgrwt>
<rscale>  0 0.35187371E+03</rscale>
<asrwt>0</asrwt>
<pdfrwt beam="1">  1        2 0.39985195E+00 0.35187371E+03</pdfrwt>
<pdfrwt beam="2">  1       -2 0.81222428E-02 0.35187371E+03</pdfrwt>
<totfact> 0.32111155E+02</totfact>
</mgrwt>
</event>
<event>
 4    1  0.4639964E-008  0.1003648E+04  0.7818608E-02  0.9304553E-01
          2   -1    0    0  501    0  0.00000000000E+00  0.00000000000E+00  0.56329122599E+03  0.56329122599E+03  0.25500000000E-02 0. -1.
         -2   -1    0    0    0  501 -0.00000000000E+00 -0.00000000000E+00 -0.18219850027E+04  0.18219850027E+04  0.25500000000E-02 0.  1.
    8880022    1    1    2    0    0 -0.28243706809E+03 -0.95086623760E+03 -0.79161665272E+03  0.12782667472E+04  0.15294330000E+03 0.  0.
    8880022    1    1    2    0    0  0.28243706809E+03  0.95086623760E+03 -0.46707712399E+03  0.11070094814E+04  0.15294330000E+03 0.  0.
<mgrwt>
<rscale>  0 0.10036478E+04</rscale>
<asrwt>0</asrwt>
<pdfrwt beam="1">  1        2 0.86660190E-01 0.10036478E+04</pdfrwt>
<pdfrwt beam="2">  1       -2 0.28030538E+00 0.10036478E+04</pdfrwt>
<totfact> 0.22505973E+00</totfact>
</mgrwt>
</event>
<event>
 4    1  0.4639964E-008  0.4287419E+03  0.7818608E-02  0.1034258E+00
          2   -1    0    0  501    0  0.00000000000E+00  0.00000000000E+00  0.24226177292E+04  0.24226177292E+04  0.25500000000E-02 0. -1.
         -2   -1    0    0    0  501 -0.00000000000E+00 -0.00000000000E+00 -0.18899218432E+03  0.18899218433E+03  0.25500000000E-02 0.  1.
    8880022    1    1    2    0    0 -0.35128632278E+03  0.19242107674E+03  0.10658821188E+03  0.44179254326E+03  0.15294330000E+03 0.  0.
    8880022    1    1    2    0    0  0.35128632278E+03 -0.19242107674E+03  0.21270373330E+04  0.21698173702E+04  0.15294330000E+03 0.  0.
<mgrwt>
<rscale>  0 0.42874189E+03</rscale>
<asrwt>0</asrwt>
<pdfrwt beam="1">  1        2 0.37271039E+00 0.42874189E+03</pdfrwt>
<pdfrwt beam="2">  1       -2 0.29075723E-01 0.42874189E+03</pdfrwt>
<totfact> 0.46133126E+01</totfact>
</mgrwt>
</event>
<event>
 4    1  0.4639964E-008  0.5380779E+03  0.7818608E-02  0.1004292E+00
          2   -1    0    0  501    0  0.00000000000E+00  0.00000000000E+00  0.34227864455E+04  0.34227864455E+04  0.25500000000E-02 0. -1.
         -2   -1    0    0    0  501 -0.00000000000E+00 -0.00000000000E+00 -0.25555299504E+03  0.25555299505E+03  0.25500000000E-02 0.  1.
    8880022    1    1    2    0    0  0.49755945993E+03  0.13627437169E+03  0.30879169013E+04  0.31344470904E+04  0.15294330000E+03 0.  0.
    8880022    1    1    2    0    0 -0.49755945993E+03 -0.13627437169E+03  0.79316549211E+02  0.54389235014E+03  0.15294330000E+03 0.  1.
<mgrwt>
<rscale>  0 0.53807785E+03</rscale>
<asrwt>0</asrwt>
<pdfrwt beam="1">  1        2 0.52658250E+00 0.53807785E+03</pdfrwt>
<pdfrwt beam="2">  1       -2 0.39315847E-01 0.53807785E+03</pdfrwt>
<totfact> 0.63905793E+00</totfact>
</mgrwt>
</event>
<event>
 4    1  0.4639964E-008  0.7425578E+03  0.7818608E-02  0.9647099E-01
         -2   -1    0    0    0  501 -0.00000000000E+00  0.00000000000E+00  0.62082568413E+03  0.62082568414E+03  0.25500000000E-02 0.  1.
          2   -1    0    0  501    0  0.00000000000E+00 -0.00000000000E+00 -0.26044227597E+04  0.26044227597E+04  0.25500000000E-02 0. -1.
    8880022    1    1    2    0    0 -0.87341237109E+02 -0.72136813584E+03  0.31729117576E+03  0.80750592711E+03  0.15294330000E+03 0.  0.
    8880022    1    1    2    0    0  0.87341237109E+02  0.72136813584E+03 -0.23008882514E+04  0.24177425168E+04  0.15294330000E+03 0. -1.
<mgrwt>
<rscale>  0 0.74255783E+03</rscale>
<asrwt>0</asrwt>
<pdfrwt beam="1">  1        2 0.40068042E+00 0.74255783E+03</pdfrwt>
<pdfrwt beam="2">  1       -2 0.95511646E-01 0.74255783E+03</pdfrwt>
<totfact> 0.29376805E+00</totfact>
</mgrwt>
</event>
<event>
 4    1  0.4639964E-008  0.3925643E+03  0.7818608E-02  0.1046385E+00
          2   -1    0    0  501    0  0.00000000000E+00  0.00000000000E+00  0.18397640258E+04  0.18397640258E+04  0.25500000000E-02 0. -1.
         -2   -1    0    0    0  501 -0.00000000000E+00 -0.00000000000E+00 -0.74968510098E+03  0.74968510098E+03  0.25500000000E-02 0.  1.
    8880022    1    1    2    0    0 -0.29817957886E+03 -0.20446035348E+03  0.17652905452E+04  0.18084129671E+04  0.15294330000E+03 0.  0.
    8880022    1    1    2    0    0  0.29817957886E+03  0.20446035348E+03 -0.67521162042E+03  0.78103615970E+03  0.15294330000E+03 0.  0.
<mgrwt>
<rscale>  0 0.39256433E+03</rscale>
<asrwt>0</asrwt>
<pdfrwt beam="1">  1        2 0.28304062E+00 0.39256433E+03</pdfrwt>
<pdfrwt beam="2">  1       -2 0.11533617E+00 0.39256433E+03</pdfrwt>
<totfact> 0.53658912E+00</totfact>
</mgrwt>
</event>
<event>
 4    1  0.4639964E-008  0.7594719E+03  0.7818608E-02  0.9620607E-01
         -2   -1    0    0    0  501 -0.00000000000E+00  0.00000000000E+00  0.50357426198E+03  0.50357426198E+03  0.25500000000E-02 0.  1.
          2   -1    0    0  501    0  0.00000000000E+00 -0.00000000000E+00 -0.34890192536E+04  0.34890192536E+04  0.25500000000E-02 0. -1.
    8880022    1    1    2    0    0  0.65591788821E+03  0.35096661612E+03 -0.31288468022E+04  0.32197018195E+04  0.15294330000E+03 0.  0.
    8880022    1    1    2    0    0 -0.65591788821E+03 -0.35096661612E+03  0.14340181053E+03  0.77289169615E+03  0.15294330000E+03 0.  0.
<mgrwt>
<rscale>  0 0.75947185E+03</rscale>
<asrwt>0</asrwt>
<pdfrwt beam="1">  1        2 0.53677218E+00 0.75947185E+03</pdfrwt>
<pdfrwt beam="2">  1       -2 0.77472966E-01 0.75947185E+03</pdfrwt>
<totfact> 0.13340794E+00</totfact>
</mgrwt>
</event>
<event>
 4    1  0.4639964E-008  0.7189955E+03  0.7818608E-02  0.9685288E-01
         -2   -1    0    0    0  501 -0.00000000000E+00  0.00000000000E+00  0.34533509930E+03  0.34533509931E+03  0.25500000000E-02 0.  1.
          2   -1    0    0  501    0  0.00000000000E+00 -0.00000000000E+00 -0.19906387141E+04  0.19906387141E+04  0.25500000000E-02 0. -1.
    8880022    1    1    2    0    0 -0.70217771132E+03 -0.22569242263E+02 -0.24100178830E+03  0.75831156126E+03  0.15294330000E+03 0.  0.
    8880022    1    1    2    0    0  0.70217771132E+03  0.22569242263E+02 -0.14043018265E+04  0.15776622522E+04  0.15294330000E+03 0.  0.
<mgrwt>
<rscale>  0 0.71899552E+03</rscale>
<asrwt>0</asrwt>
<pdfrwt beam="1">  1        2 0.30625210E+00 0.71899552E+03</pdfrwt>
<pdfrwt beam="2">  1       -2 0.53128478E-01 0.71899552E+03</pdfrwt>
<totfact> 0.23439812E+01</totfact>
</mgrwt>
</event>
<event>
 4    1  0.4639964E-008  0.2604527E+03  0.7818608E-02  0.1106872E+00
          2   -1    0    0  501    0  0.00000000000E+00  0.00000000000E+00  0.88466931017E+03  0.88466931018E+03  0.25500000000E-02 0. -1.
         -2   -1    0    0    0  501 -0.00000000000E+00 -0.00000000000E+00 -0.14328929703E+03  0.14328929705E+03  0.25500000000E-02 0.  1.
    8880022    1    1    2    0    0 -0.52572829968E+02 -0.20415697084E+03  0.72112639584E+03  0.76671957258E+03  0.15294330000E+03 0.  0.
    8880022    1    1    2    0    0  0.52572829968E+02  0.20415697084E+03  0.20253617304E+02  0.26123903465E+03  0.15294330000E+03 0.  0.
<mgrwt>
<rscale>  0 0.26045273E+03</rscale>
<asrwt>0</asrwt>
<pdfrwt beam="1">  1        2 0.13610297E+00 0.26045273E+03</pdfrwt>
<pdfrwt beam="2">  1       -2 0.22044507E-01 0.26045273E+03</pdfrwt>
<totfact> 0.55490775E+02</totfact>
</mgrwt>
</event>
<event>
 4    1  0.4639964E-008  0.5932336E+03  0.7818608E-02  0.9919544E-01
          2   -1    0    0  501    0  0.00000000000E+00  0.00000000000E+00  0.12259042935E+04  0.12259042935E+04  0.25500000000E-02 0. -1.
         -2   -1    0    0    0  501 -0.00000000000E+00 -0.00000000000E+00 -0.40338515277E+03  0.40338515278E+03  0.25500000000E-02 0.  1.
    8880022    1    1    2    0    0 -0.25149614760E+03  0.51505746848E+03  0.84869865614E+03  0.10354784257E+04  0.15294330000E+03 0.  0.
    8880022    1    1    2    0    0  0.25149614760E+03 -0.51505746848E+03 -0.26179515456E+02  0.59381102056E+03  0.15294330000E+03 0.  0.
<mgrwt>
<rscale>  0 0.59323365E+03</rscale>
<asrwt>0</asrwt>
<pdfrwt beam="1">  1        2 0.18860066E+00 0.59323365E+03</pdfrwt>
<pdfrwt beam="2">  1       -2 0.62059255E-01 0.59323365E+03</pdfrwt>
<totfact> 0.45646897E+01</totfact>
</mgrwt>
</event>
<event>
 4    1  0.4639964E-008  0.3361874E+03  0.7818608E-02  0.1068431E+00
          2   -1    0    0  501    0  0.00000000000E+00  0.00000000000E+00  0.22753483309E+03  0.22753483310E+03  0.25500000000E-02 0. -1.
         -2   -1    0    0    0  501 -0.00000000000E+00 -0.00000000000E+00 -0.10958443840E+04  0.10958443840E+04  0.25500000000E-02 0.  1.
    8880022    1    1    2    0    0  0.19047270669E+02 -0.29877668896E+03  0.55102170992E+02  0.34067317278E+03  0.15294330000E+03 0. -1.
    8880022    1    1    2    0    0 -0.19047270669E+02  0.29877668896E+03 -0.92341172189E+03  0.98270604431E+03  0.15294330000E+03 0.  0.
<mgrwt>
<rscale>  0 0.33618739E+03</rscale>
<asrwt>0</asrwt>
<pdfrwt beam="1">  1        2 0.35005360E-01 0.33618739E+03</pdfrwt>
<pdfrwt beam="2">  1       -2 0.16859144E+00 0.33618739E+03</pdfrwt>
<totfact> 0.34344193E+01</totfact>
</mgrwt>
</event>
<event>
 4    1  0.4639964E-008  0.4505237E+03  0.7818608E-02  0.1027566E+00
         -2   -1    0    0    0  501 -0.00000000000E+00  0.00000000000E+00  0.47702668757E+03  0.47702668758E+03  0.25500000000E-02 0.  1.
          2   -1    0    0  501    0  0.00000000000E+00 -0.00000000000E+00 -0.52325221688E+03  0.52325221688E+03  0.25500000000E-02 0. -1.
    8880022    1    1    2    0    0 -0.40815778478E+03 -0.11396127710E+03  0.19306649708E+03  0.49014923775E+03  0.15294330000E+03 0.  0.
    8880022    1    1    2    0    0  0.40815778478E+03  0.11396127710E+03 -0.23929202639E+03  0.51012966671E+03  0.15294330000E+03 0.  0.
<mgrwt>
<rscale>  0 0.45052370E+03</rscale>
<asrwt>0</asrwt>
<pdfrwt beam="1">  1        2 0.80500341E-01 0.45052370E+03</pdfrwt>
<pdfrwt beam="2">  1       -2 0.73388721E-01 0.45052370E+03</pdfrwt>
<totfact> 0.10096069E+02</totfact>
</mgrwt>
</event>
<event>
 4    1  0.4639964E-008  0.1754640E+04  0.7818608E-02  0.8730800E-01
         -2   -1    0    0    0  501 -0.00000000000E+00  0.00000000000E+00  0.14017530435E+04  0.14017530435E+04  0.25500000000E-02 0.  1.
          2   -1    0    0  501    0  0.00000000000E+00 -0.00000000000E+00 -0.27132059331E+04  0.27132059331E+04  0.25500000000E-02 0. -1.
    8880022    1    1    2    0    0 -0.18091559457E+03 -0.17385739960E+04 -0.15537184906E+04  0.23436729279E+04  0.15294330000E+03 0.  0.
    8880022    1    1    2    0    0  0.18091559457E+03  0.17385739960E+04  0.24226560094E+03  0.17712860487E+04  0.15294330000E+03 0.  0.
<mgrwt>
<rscale>  0 0.17546400E+04</rscale>
<asrwt>0</asrwt>
<pdfrwt beam="1">  1        2 0.41741630E+00 0.17546400E+04</pdfrwt>
<pdfrwt beam="2">  1       -2 0.21565431E+00 0.17546400E+04</pdfrwt>
<totfact> 0.25096346E-01</totfact>
</mgrwt>
</event>
<event>
 4    1  0.4639964E-008  0.6412402E+03  0.7818608E-02  0.9823357E-01
          2   -1    0    0  501    0  0.00000000000E+00  0.00000000000E+00  0.30814886717E+04  0.30814886717E+04  0.25500000000E-02 0. -1.
         -2   -1    0    0    0  501 -0.00000000000E+00 -0.00000000000E+00 -0.16371302817E+03  0.16371302819E+03  0.25500000000E-02 0.  1.
    8880022    1    1    2    0    0  0.22120562486E+03  0.58212151060E+03  0.76112276630E+03  0.99523710741E+03  0.15294330000E+03 0.  0.
    8880022    1    1    2    0    0 -0.22120562486E+03 -0.58212151060E+03  0.21566528772E+04  0.22499645925E+04  0.15294330000E+03 0.  0.
<mgrwt>
<rscale>  0 0.64124023E+03</rscale>
<asrwt>0</asrwt>
<pdfrwt beam="1">  1        2 0.47407517E+00 0.64124023E+03</pdfrwt>
<pdfrwt beam="2">  1       -2 0.25186620E-01 0.64124023E+03</pdfrwt>
<totfact> 0.23657435E+01</totfact>
</mgrwt>
</event>
<event>
 4    1  0.4639964E-008  0.7514016E+03  0.7818608E-02  0.9633154E-01
          2   -1    0    0  501    0  0.00000000000E+00  0.00000000000E+00  0.27567449692E+04  0.27567449692E+04  0.25500000000E-02 0. -1.
         -2   -1    0    0    0  501 -0.00000000000E+00 -0.00000000000E+00 -0.29404065880E+03  0.29404065881E+03  0.25500000000E-02 0.  1.
    8880022    1    1    2    0    0  0.42673685342E+03  0.59925653697E+03  0.39104305966E+03  0.84706497194E+03  0.15294330000E+03 0.  0.
    8880022    1    1    2    0    0 -0.42673685342E+03 -0.59925653697E+03  0.20716612508E+04  0.22037206561E+04  0.15294330000E+03 0.  0.
<mgrwt>
<rscale>  0 0.75140162E+03</rscale>
<asrwt>0</asrwt>
<pdfrwt beam="1">  1        2 0.42411460E+00 0.75140162E+03</pdfrwt>
<pdfrwt beam="2">  1       -2 0.45237026E-01 0.75140162E+03</pdfrwt>
<totfact> 0.12004352E+01</totfact>
</mgrwt>
</event>
<event>
 4    1  0.4639964E-008  0.1062671E+04  0.7818608E-02  0.9242359E-01
         -2   -1    0    0    0  501 -0.00000000000E+00  0.00000000000E+00  0.11974974459E+04  0.11974974459E+04  0.25500000000E-02 0.  1.
          2   -1    0    0  501    0  0.00000000000E+00 -0.00000000000E+00 -0.11624282318E+04  0.11624282318E+04  0.25500000000E-02 0. -1.
    8880022    1    1    2    0    0  0.90686278227E+03 -0.53242547876E+03  0.53016919602E+03  0.11875807449E+04  0.15294330000E+03 0.  0.
    8880022    1    1    2    0    0 -0.90686278227E+03  0.53242547876E+03 -0.49509998193E+03  0.11723449328E+04  0.15294330000E+03 0.  0.
<mgrwt>
<rscale>  0 0.10626705E+04</rscale>
<asrwt>0</asrwt>
<pdfrwt beam="1">  1        2 0.17883511E+00 0.10626705E+04</pdfrwt>
<pdfrwt beam="2">  1       -2 0.18423038E+00 0.10626705E+04</pdfrwt>
<totfact> 0.33322258E+00</totfact>
</mgrwt>
</event>
<event>
 4    1  0.4639964E-008  0.8636321E+03  0.7818608E-02  0.9472221E-01
         -2   -1    0    0    0  501 -0.00000000000E+00  0.00000000000E+00  0.13711181255E+04  0.13711181255E+04  0.25500000000E-02 0.  1.
          2   -1    0    0  501    0  0.00000000000E+00 -0.00000000000E+00 -0.12653185843E+04  0.12653185843E+04  0.25500000000E-02 0. -1.
    8880022    1    1    2    0    0  0.21180910625E+02  0.84971763629E+03  0.10482068676E+04  0.13581597780E+04  0.15294330000E+03 0.  0.
    8880022    1    1    2    0    0 -0.21180910625E+02 -0.84971763629E+03 -0.94240732635E+03  0.12782769317E+04  0.15294330000E+03 0.  0.
<mgrwt>
<rscale>  0 0.86363207E+03</rscale>
<asrwt>0</asrwt>
<pdfrwt beam="1">  1        2 0.19466440E+00 0.86363207E+03</pdfrwt>
<pdfrwt beam="2">  1       -2 0.21094125E+00 0.86363207E+03</pdfrwt>
<totfact> 0.19790021E+00</totfact>
</mgrwt>
</event>
<event>
 4    1  0.4639964E-008  0.6435592E+03  0.7818608E-02  0.9818940E-01
         -2   -1    0    0    0  501 -0.00000000000E+00  0.00000000000E+00  0.22608844212E+03  0.22608844213E+03  0.25500000000E-02 0.  1.
          2   -1    0    0  501    0  0.00000000000E+00 -0.00000000000E+00 -0.19734526317E+04  0.19734526317E+04  0.25500000000E-02 0. -1.
    8880022    1    1    2    0    0 -0.53937808122E+03  0.31598752226E+03 -0.57912626852E+03  0.86576885866E+03  0.15294330000E+03 0.  0.
    8880022    1    1    2    0    0  0.53937808122E+03 -0.31598752226E+03 -0.11682379210E+04  0.13337722151E+04  0.15294330000E+03 0.  0.
<mgrwt>
<rscale>  0 0.64355923E+03</rscale>
<asrwt>0</asrwt>
<pdfrwt beam="1">  1        2 0.30360809E+00 0.64355923E+03</pdfrwt>
<pdfrwt beam="2">  1       -2 0.34782839E-01 0.64355923E+03</pdfrwt>
<totfact> 0.55880383E+01</totfact>
</mgrwt>
</event>
<event>
 4    1  0.4639964E-008  0.3699582E+03  0.7818608E-02  0.1054709E+00
         -2   -1    0    0    0  501 -0.00000000000E+00  0.00000000000E+00  0.11578670946E+03  0.11578670949E+03  0.25500000000E-02 0.  1.
          2   -1    0    0  501    0  0.00000000000E+00 -0.00000000000E+00 -0.18933327873E+04  0.18933327873E+04  0.25500000000E-02 0. -1.
    8880022    1    1    2    0    0  0.26264009945E+03 -0.21094449238E+03 -0.15044806873E+04  0.15493002266E+04  0.15294330000E+03 0.  0.
    8880022    1    1    2    0    0 -0.26264009945E+03  0.21094449238E+03 -0.27306539052E+03  0.45981927016E+03  0.15294330000E+03 0.  1.
<mgrwt>
<rscale>  0 0.36995818E+03</rscale>
<asrwt>0</asrwt>
<pdfrwt beam="1">  1        2 0.29128195E+00 0.36995818E+03</pdfrwt>
<pdfrwt beam="2">  1       -2 0.17813341E-01 0.36995818E+03</pdfrwt>
<totfact> 0.21372657E+02</totfact>
</mgrwt>
</event>
<event>
 4    1  0.4639964E-008  0.8008305E+03  0.7818608E-02  0.9558816E-01
         -2   -1    0    0    0  501 -0.00000000000E+00  0.00000000000E+00  0.55376234697E+03  0.55376234698E+03  0.25500000000E-02 0.  1.
          2   -1    0    0  501    0  0.00000000000E+00 -0.00000000000E+00 -0.19103626228E+04  0.19103626228E+04  0.25500000000E-02 0. -1.
    8880022    1    1    2    0    0 -0.55536235099E+03  0.55633664853E+03  0.94826360410E+02  0.80642513543E+03  0.15294330000E+03 0.  0.
    8880022    1    1    2    0    0  0.55536235099E+03 -0.55633664853E+03 -0.14514266362E+04  0.16576998343E+04  0.15294330000E+03 0.  0.
<mgrwt>
<rscale>  0 0.80083048E+03</rscale>
<asrwt>0</asrwt>
<pdfrwt beam="1">  1        2 0.29390194E+00 0.80083048E+03</pdfrwt>
<pdfrwt beam="2">  1       -2 0.85194208E-01 0.80083048E+03</pdfrwt>
<totfact> 0.92135317E+00</totfact>
</mgrwt>
</event>
<event>
 4    1  0.4639964E-008  0.4583863E+03  0.7818608E-02  0.1025250E+00
          2   -1    0    0  501    0  0.00000000000E+00  0.00000000000E+00  0.16695276540E+04  0.16695276540E+04  0.25500000000E-02 0. -1.
         -2   -1    0    0    0  501 -0.00000000000E+00 -0.00000000000E+00 -0.25058131789E+03  0.25058131791E+03  0.25500000000E-02 0.  1.
    8880022    1    1    2    0    0 -0.33304485121E+03  0.27533161901E+03  0.32142125385E+02  0.45951185250E+03  0.15294330000E+03 0.  0.
    8880022    1    1    2    0    0  0.33304485121E+03 -0.27533161901E+03  0.13868042107E+04  0.14605971194E+04  0.15294330000E+03 0.  0.
<mgrwt>
<rscale>  0 0.45838633E+03</rscale>
<asrwt>0</asrwt>
<pdfrwt beam="1">  1        2 0.25685041E+00 0.45838633E+03</pdfrwt>
<pdfrwt beam="2">  1       -2 0.38550971E-01 0.45838633E+03</pdfrwt>
<totfact> 0.68912400E+01</totfact>
</mgrwt>
</event>
<event>
 4    1  0.4639964E-008  0.6828394E+03  0.7818608E-02  0.9747038E-01
         -2   -1    0    0    0  501 -0.00000000000E+00  0.00000000000E+00  0.12354876338E+04  0.12354876338E+04  0.25500000000E-02 0.  1.
          2   -1    0    0  501    0  0.00000000000E+00 -0.00000000000E+00 -0.10924806022E+04  0.10924806022E+04  0.25500000000E-02 0. -1.
    8880022    1    1    2    0    0 -0.30092669683E+03 -0.59356644236E+03 -0.87020937877E+03  0.11061347180E+04  0.15294330000E+03 0.  0.
    8880022    1    1    2    0    0  0.30092669683E+03  0.59356644236E+03  0.10132164104E+04  0.12218335180E+04  0.15294330000E+03 0.  0.
<mgrwt>
<rscale>  0 0.68283940E+03</rscale>
<asrwt>0</asrwt>
<pdfrwt beam="1">  1        2 0.16807394E+00 0.68283940E+03</pdfrwt>
<pdfrwt beam="2">  1       -2 0.19007502E+00 0.68283940E+03</pdfrwt>
<totfact> 0.35279665E+00</totfact>
</mgrwt>
</event>
<event>
 4    1  0.4639964E-008  0.3613359E+03  0.7818608E-02  0.1058056E+00
          2   -1    0    0  501    0  0.00000000000E+00  0.00000000000E+00  0.11730598242E+04  0.11730598242E+04  0.25500000000E-02 0. -1.
         -2   -1    0    0    0  501 -0.00000000000E+00 -0.00000000000E+00 -0.29968661205E+03  0.29968661206E+03  0.25500000000E-02 0.  1.
    8880022    1    1    2    0    0 -0.24406009569E+03 -0.21818945970E+03  0.10205178093E+04  0.10825988282E+04  0.15294330000E+03 0.  0.
    8880022    1    1    2    0    0  0.24406009569E+03  0.21818945970E+03 -0.14714459714E+03  0.39014760811E+03  0.15294330000E+03 0.  0.
<mgrwt>
<rscale>  0 0.36133589E+03</rscale>
<asrwt>0</asrwt>
<pdfrwt beam="1">  1        2 0.18047074E+00 0.36133589E+03</pdfrwt>
<pdfrwt beam="2">  1       -2 0.46105633E-01 0.36133589E+03</pdfrwt>
<totfact> 0.93109108E+01</totfact>
</mgrwt>
</event>
<event>
 4    1  0.4639964E-008  0.5041828E+03  0.7818608E-02  0.1012693E+00
          2   -1    0    0  501    0  0.00000000000E+00  0.00000000000E+00  0.16607229090E+04  0.16607229090E+04  0.25500000000E-02 0. -1.
         -2   -1    0    0    0  501 -0.00000000000E+00 -0.00000000000E+00 -0.30790767728E+03  0.30790767729E+03  0.25500000000E-02 0.  1.
    8880022    1    1    2    0    0 -0.41956591008E+02 -0.47858991884E+03 -0.21612305997E+02  0.50464582702E+03  0.15294330000E+03 0.  0.
    8880022    1    1    2    0    0  0.41956591008E+02  0.47858991884E+03  0.13744275377E+04  0.14639847593E+04  0.15294330000E+03 0.  0.
<mgrwt>
<rscale>  0 0.50418282E+03</rscale>
<asrwt>0</asrwt>
<pdfrwt beam="1">  1        2 0.25549583E+00 0.50418282E+03</pdfrwt>
<pdfrwt beam="2">  1       -2 0.47370413E-01 0.50418282E+03</pdfrwt>
<totfact> 0.46154142E+01</totfact>
</mgrwt>
</event>
<event>
 4    1  0.4639964E-008  0.4743638E+03  0.7818608E-02  0.1020696E+00
          2   -1    0    0  501    0  0.00000000000E+00  0.00000000000E+00  0.29893961333E+03  0.29893961334E+03  0.25500000000E-02 0. -1.
         -2   -1    0    0    0  501 -0.00000000000E+00 -0.00000000000E+00 -0.15459278691E+04  0.15459278691E+04  0.25500000000E-02 0.  1.
    8880022    1    1    2    0    0 -0.34727715536E+03 -0.28465405935E+03  0.37246723980E+02  0.47582384094E+03  0.15294330000E+03 0.  0.
    8880022    1    1    2    0    0  0.34727715536E+03  0.28465405935E+03 -0.12842349798E+04  0.13690436416E+04  0.15294330000E+03 0.  0.
<mgrwt>
<rscale>  0 0.47436379E+03</rscale>
<asrwt>0</asrwt>
<pdfrwt beam="1">  1        2 0.45990711E-01 0.47436379E+03</pdfrwt>
<pdfrwt beam="2">  1       -2 0.23783505E+00 0.47436379E+03</pdfrwt>
<totfact> 0.89539312E+00</totfact>
</mgrwt>
</event>
<event>
 4    1  0.4639964E-008  0.1220016E+04  0.7818608E-02  0.9095515E-01
          2   -1    0    0  501    0  0.00000000000E+00  0.00000000000E+00  0.23024995382E+04  0.23024995382E+04  0.25500000000E-02 0. -1.
         -2   -1    0    0    0  501 -0.00000000000E+00 -0.00000000000E+00 -0.89750176129E+03  0.89750176129E+03  0.25500000000E-02 0.  1.
    8880022    1    1    2    0    0  0.12102392049E+04 -0.19178308248E+02 -0.14373187812E+03  0.12284531926E+04  0.15294330000E+03 0.  0.
    8880022    1    1    2    0    0 -0.12102392049E+04  0.19178308248E+02  0.15487296550E+04  0.19715481069E+04  0.15294330000E+03 0.  0.
<mgrwt>
<rscale>  0 0.12200157E+04</rscale>
<asrwt>0</asrwt>
<pdfrwt beam="1">  1        2 0.35423070E+00 0.12200157E+04</pdfrwt>
<pdfrwt beam="2">  1       -2 0.13807719E+00 0.12200157E+04</pdfrwt>
<totfact> 0.16391960E+00</totfact>
</mgrwt>
</event>
<event>
 4    1  0.4639964E-008  0.8890438E+03  0.7818608E-02  0.9439382E-01
          2   -1    0    0  501    0  0.00000000000E+00  0.00000000000E+00  0.14930184724E+04  0.14930184724E+04  0.25500000000E-02 0. -1.
         -2   -1    0    0    0  501 -0.00000000000E+00 -0.00000000000E+00 -0.62296535573E+03  0.62296535574E+03  0.25500000000E-02 0.  1.
    8880022    1    1    2    0    0 -0.56386018794E+03 -0.67012608293E+03  0.24996416353E+02  0.88939516100E+03  0.15294330000E+03 0.  0.
    8880022    1    1    2    0    0  0.56386018794E+03  0.67012608293E+03  0.84505670032E+03  0.12265886671E+04  0.15294330000E+03 0.  0.
<mgrwt>
<rscale>  0 0.88904383E+03</rscale>
<asrwt>0</asrwt>
<pdfrwt beam="1">  1        2 0.22969515E+00 0.88904383E+03</pdfrwt>
<pdfrwt beam="2">  1       -2 0.95840825E-01 0.88904383E+03</pdfrwt>
<totfact> 0.11780500E+01</totfact>
</mgrwt>
</event>
<event>
 4    1  0.4639964E-008  0.3531776E+03  0.7818608E-02  0.1061318E+00
          2   -1    0    0  501    0  0.00000000000E+00  0.00000000000E+00  0.44851929159E+04  0.44851929159E+04  0.25500000000E-02 0. -1.
         -2   -1    0    0    0  501 -0.00000000000E+00 -0.00000000000E+00 -0.28466388653E+02  0.28466388767E+02  0.25500000000E-02 0.  1.
    8880022    1    1    2    0    0  0.31815256714E+03  0.11032302487E+02  0.18857342041E+04  0.19185223244E+04  0.15294330000E+03 0.  0.
    8880022    1    1    2    0    0 -0.31815256714E+03 -0.11032302487E+02  0.25709923232E+04  0.25951369803E+04  0.15294330000E+03 0.  0.
<mgrwt>
<rscale>  0 0.35317761E+03</rscale>
<asrwt>0</asrwt>
<pdfrwt beam="1">  1        2 0.69002884E+00 0.35317761E+03</pdfrwt>
<pdfrwt beam="2">  1       -2 0.43794497E-02 0.35317761E+03</pdfrwt>
<totfact> 0.40497379E+01</totfact>
</mgrwt>
</event>
<event>
 4    1  0.4639964E-008  0.4023085E+03  0.7818608E-02  0.1042983E+00
          2   -1    0    0  501    0  0.00000000000E+00  0.00000000000E+00  0.22497222135E+04  0.22497222135E+04  0.25500000000E-02 0. -1.
         -2   -1    0    0    0  501 -0.00000000000E+00 -0.00000000000E+00 -0.40641736511E+03  0.40641736512E+03  0.25500000000E-02 0.  1.
    8880022    1    1    2    0    0 -0.21366322232E+03 -0.30464491724E+03  0.21264555268E+04  0.21641777327E+04  0.15294330000E+03 0.  0.
    8880022    1    1    2    0    0  0.21366322232E+03  0.30464491724E+03 -0.28315067841E+03  0.49196184595E+03  0.15294330000E+03 0.  1.
<mgrwt>
<rscale>  0 0.40230853E+03</rscale>
<asrwt>0</asrwt>
<pdfrwt beam="1">  1        2 0.34611110E+00 0.40230853E+03</pdfrwt>
<pdfrwt beam="2">  1       -2 0.62525750E-01 0.40230853E+03</pdfrwt>
<totfact> 0.12876986E+01</totfact>
</mgrwt>
</event>
<event>
 4    1  0.4639964E-008  0.3257262E+03  0.7818608E-02  0.1073044E+00
          2   -1    0    0  501    0  0.00000000000E+00  0.00000000000E+00  0.14038686284E+04  0.14038686284E+04  0.25500000000E-02 0. -1.
         -2   -1    0    0    0  501 -0.00000000000E+00 -0.00000000000E+00 -0.20783010380E+03  0.20783010381E+03  0.25500000000E-02 0.  1.
    8880022    1    1    2    0    0 -0.21891004717E+03  0.18650544178E+03  0.12408633632E+04  0.12829027351E+04  0.15294330000E+03 0.  0.
    8880022    1    1    2    0    0  0.21891004717E+03 -0.18650544178E+03 -0.44824838581E+02  0.32879599714E+03  0.15294330000E+03 0.  0.
<mgrwt>
<rscale>  0 0.32572618E+03</rscale>
<asrwt>0</asrwt>
<pdfrwt beam="1">  1        2 0.21597979E+00 0.32572618E+03</pdfrwt>
<pdfrwt beam="2">  1       -2 0.31973863E-01 0.32572618E+03</pdfrwt>
<totfact> 0.13987779E+02</totfact>
</mgrwt>
</event>
<event>
 4    1  0.4639964E-008  0.2456439E+03  0.7818608E-02  0.1116089E+00
         -2   -1    0    0    0  501 -0.00000000000E+00  0.00000000000E+00  0.32702369532E+02  0.32702369631E+02  0.25500000000E-02 0.  1.
          2   -1    0    0  501    0  0.00000000000E+00 -0.00000000000E+00 -0.27854384342E+04  0.27854384342E+04  0.25500000000E-02 0. -1.
    8880022    1    1    2    0    0 -0.68519178010E+02 -0.17959507031E+03 -0.21950504231E+04  0.22087524262E+04  0.15294330000E+03 0.  0.
    8880022    1    1    2    0    0  0.68519178010E+02  0.17959507031E+03 -0.55768564155E+03  0.60938837767E+03  0.15294330000E+03 0.  0.
<mgrwt>
<rscale>  0 0.24564389E+03</rscale>
<asrwt>0</asrwt>
<pdfrwt beam="1">  1        2 0.42852880E+00 0.24564389E+03</pdfrwt>
<pdfrwt beam="2">  1       -2 0.50311360E-02 0.24564389E+03</pdfrwt>
<totfact> 0.54197358E+02</totfact>
</mgrwt>
</event>
<event>
 4    1  0.4639964E-008  0.5023703E+03  0.7818608E-02  0.1013162E+00
         -2   -1    0    0    0  501 -0.00000000000E+00  0.00000000000E+00  0.57626647011E+03  0.57626647012E+03  0.25500000000E-02 0.  1.
          2   -1    0    0  501    0  0.00000000000E+00 -0.00000000000E+00 -0.78723422653E+03  0.78723422653E+03  0.25500000000E-02 0. -1.
    8880022    1    1    2    0    0  0.14666884410E+03 -0.45549155897E+03  0.34862793948E+03  0.61148786032E+03  0.15294330000E+03 0.  0.
    8880022    1    1    2    0    0 -0.14666884410E+03  0.45549155897E+03 -0.55959569590E+03  0.75201283633E+03  0.15294330000E+03 0.  0.
<mgrwt>
<rscale>  0 0.50237034E+03</rscale>
<asrwt>0</asrwt>
<pdfrwt beam="1">  1        2 0.12111296E+00 0.50237034E+03</pdfrwt>
<pdfrwt beam="2">  1       -2 0.88656380E-01 0.50237034E+03</pdfrwt>
<totfact> 0.40022514E+01</totfact>
</mgrwt>
</event>
<event>
 4    1  0.4639964E-008  0.9030331E+03  0.7818608E-02  0.9421798E-01
          2   -1    0    0  501    0  0.00000000000E+00  0.00000000000E+00  0.19204136090E+04  0.19204136090E+04  0.25500000000E-02 0. -1.
         -2   -1    0    0    0  501 -0.00000000000E+00 -0.00000000000E+00 -0.54099286043E+03  0.54099286043E+03  0.25500000000E-02 0.  1.
    8880022    1    1    2    0    0  0.37707973036E+03  0.80615629250E+03  0.12604806599E+04  0.15505741640E+04  0.15294330000E+03 0.  0.
    8880022    1    1    2    0    0 -0.37707973036E+03 -0.80615629250E+03  0.11894008867E+03  0.91083230547E+03  0.15294330000E+03 0.  0.
<mgrwt>
<rscale>  0 0.90303308E+03</rscale>
<asrwt>0</asrwt>
<pdfrwt beam="1">  1        2 0.29544825E+00 0.90303308E+03</pdfrwt>
<pdfrwt beam="2">  1       -2 0.83229671E-01 0.90303308E+03</pdfrwt>
<totfact> 0.94655026E+00</totfact>
</mgrwt>
</event>
<event>
 4    1  0.4639964E-008  0.5389350E+03  0.7818608E-02  0.1004088E+00
         -2   -1    0    0    0  501 -0.00000000000E+00  0.00000000000E+00  0.29024379635E+04  0.29024379635E+04  0.25500000000E-02 0.  1.
          2   -1    0    0  501    0  0.00000000000E+00 -0.00000000000E+00 -0.57524204674E+03  0.57524204674E+03  0.25500000000E-02 0. -1.
    8880022    1    1    2    0    0 -0.40733188835E+03  0.31802520270E+03  0.27439692320E+04  0.27963937663E+04  0.15294330000E+03 0.  1.
    8880022    1    1    2    0    0  0.40733188835E+03 -0.31802520270E+03 -0.41677331529E+03  0.68128624393E+03  0.15294330000E+03 0.  0.
<mgrwt>
<rscale>  0 0.53893501E+03</rscale>
<asrwt>0</asrwt>
<pdfrwt beam="1">  1        2 0.88498776E-01 0.53893501E+03</pdfrwt>
<pdfrwt beam="2">  1       -2 0.44652892E+00 0.53893501E+03</pdfrwt>
<totfact> 0.21500681E-01</totfact>
</mgrwt>
</event>
<event>
 4    1  0.4639964E-008  0.2515156E+03  0.7818608E-02  0.1112351E+00
         -2   -1    0    0    0  501 -0.00000000000E+00  0.00000000000E+00  0.15602304714E+04  0.15602304714E+04  0.25500000000E-02 0.  1.
          2   -1    0    0  501    0  0.00000000000E+00 -0.00000000000E+00 -0.40179905486E+03  0.40179905487E+03  0.25500000000E-02 0. -1.
    8880022    1    1    2    0    0 -0.19471344707E+03  0.44216512561E+02  0.15094176608E+04  0.15302293142E+04  0.15294330000E+03 0.  0.
    8880022    1    1    2    0    0  0.19471344707E+03 -0.44216512561E+02 -0.35098624424E+03  0.43180021203E+03  0.15294330000E+03 0. -1.
<mgrwt>
<rscale>  0 0.25151557E+03</rscale>
<asrwt>0</asrwt>
<pdfrwt beam="1">  1        2 0.61815240E-01 0.25151557E+03</pdfrwt>
<pdfrwt beam="2">  1       -2 0.24003546E+00 0.25151557E+03</pdfrwt>
<totfact> 0.66376768E+00</totfact>
</mgrwt>
</event>
<event>
 4    1  0.4639964E-008  0.6178060E+03  0.7818608E-02  0.9869138E-01
          2   -1    0    0  501    0  0.00000000000E+00  0.00000000000E+00  0.95999134687E+03  0.95999134687E+03  0.25500000000E-02 0. -1.
         -2   -1    0    0    0  501 -0.00000000000E+00 -0.00000000000E+00 -0.47342810846E+03  0.47342810846E+03  0.25500000000E-02 0.  1.
    8880022    1    1    2    0    0  0.44066700325E+03  0.40509904215E+03 -0.43569166205E+02  0.61934042898E+03  0.15294330000E+03 0.  0.
    8880022    1    1    2    0    0 -0.44066700325E+03 -0.40509904215E+03  0.53013240461E+03  0.81407902635E+03  0.15294330000E+03 0.  0.
<mgrwt>
<rscale>  0 0.61780603E+03</rscale>
<asrwt>0</asrwt>
<pdfrwt beam="1">  1        2 0.14769097E+00 0.61780603E+03</pdfrwt>
<pdfrwt beam="2">  1       -2 0.72835095E-01 0.61780603E+03</pdfrwt>
<totfact> 0.46840997E+01</totfact>
</mgrwt>
</event>
<event>
 4    1  0.4639964E-008  0.3223772E+03  0.7818608E-02  0.1074560E+00
         -2   -1    0    0    0  501 -0.00000000000E+00  0.00000000000E+00  0.93274042522E+02  0.93274042557E+02  0.25500000000E-02 0.  1.
          2   -1    0    0  501    0  0.00000000000E+00 -0.00000000000E+00 -0.12409727127E+04  0.12409727127E+04  0.25500000000E-02 0. -1.
    8880022    1    1    2    0    0 -0.21728484136E+03 -0.18254506509E+03 -0.78706416362E+03  0.85052751498E+03  0.15294330000E+03 0.  0.
    8880022    1    1    2    0    0  0.21728484136E+03  0.18254506509E+03 -0.36063450654E+03  0.48371924026E+03  0.15294330000E+03 0.  0.
<mgrwt>
<rscale>  0 0.32237720E+03</rscale>
<asrwt>0</asrwt>
<pdfrwt beam="1">  1        2 0.19091887E+00 0.32237720E+03</pdfrwt>
<pdfrwt beam="2">  1       -2 0.14349854E-01 0.32237720E+03</pdfrwt>
<totfact> 0.69728424E+02</totfact>
</mgrwt>
</event>
<event>
 4    1  0.4639964E-008  0.2087633E+03  0.7818608E-02  0.1142549E+00
         -2   -1    0    0    0  501 -0.00000000000E+00  0.00000000000E+00  0.34747110567E+03  0.34747110568E+03  0.25500000000E-02 0.  1.
          2   -1    0    0  501    0  0.00000000000E+00 -0.00000000000E+00 -0.11356451173E+04  0.11356451173E+04  0.25500000000E-02 0. -1.
    8880022    1    1    2    0    0  0.25027153417E+02  0.13987169339E+03  0.30532252148E+03  0.36987017203E+03  0.15294330000E+03 0.  0.
    8880022    1    1    2    0    0 -0.25027153417E+02 -0.13987169339E+03 -0.10934965331E+04  0.11132460510E+04  0.15294330000E+03 0. -1.
<mgrwt>
<rscale>  0 0.20876327E+03</rscale>
<asrwt>0</asrwt>
<pdfrwt beam="1">  1        2 0.17471463E+00 0.20876327E+03</pdfrwt>
<pdfrwt beam="2">  1       -2 0.53457094E-01 0.20876327E+03</pdfrwt>
<totfact> 0.75300872E+01</totfact>
</mgrwt>
</event>
<event>
 4    1  0.4639964E-008  0.2506526E+03  0.7818608E-02  0.1112893E+00
         -2   -1    0    0    0  501 -0.00000000000E+00  0.00000000000E+00  0.30734625698E+03  0.30734625699E+03  0.25500000000E-02 0.  1.
          2   -1    0    0  501    0  0.00000000000E+00 -0.00000000000E+00 -0.22404765263E+03  0.22404765264E+03  0.25500000000E-02 0. -1.
    8880022    1    1    2    0    0 -0.16393328443E+03 -0.11207575681E+03 -0.36998309559E+02  0.25336855553E+03  0.15294330000E+03 0. -1.
    8880022    1    1    2    0    0  0.16393328443E+03  0.11207575681E+03  0.12029691391E+03  0.27802535409E+03  0.15294330000E+03 0.  1.
<mgrwt>
<rscale>  0 0.25065265E+03</rscale>
<asrwt>0</asrwt>
<pdfrwt beam="1">  1        2 0.34468870E-01 0.25065265E+03</pdfrwt>
<pdfrwt beam="2">  1       -2 0.47284039E-01 0.25065265E+03</pdfrwt>
<totfact> 0.64740992E+02</totfact>
</mgrwt>
</event>
<event>
 4    1  0.4639964E-008  0.1667699E+04  0.7818608E-02  0.8780004E-01
          2   -1    0    0  501    0  0.00000000000E+00  0.00000000000E+00  0.19975122384E+04  0.19975122384E+04  0.25500000000E-02 0. -1.
         -2   -1    0    0    0  501 -0.00000000000E+00 -0.00000000000E+00 -0.14787785160E+04  0.14787785160E+04  0.25500000000E-02 0.  1.
    8880022    1    1    2    0    0 -0.12899789217E+04 -0.10458405099E+04  0.67959375137E+03  0.18008518291E+04  0.15294330000E+03 0.  0.
    8880022    1    1    2    0    0  0.12899789217E+04  0.10458405099E+04 -0.16086002895E+03  0.16754389253E+04  0.15294330000E+03 0.  0.
<mgrwt>
<rscale>  0 0.16676989E+04</rscale>
<asrwt>0</asrwt>
<pdfrwt beam="1">  1        2 0.30730957E+00 0.16676989E+04</pdfrwt>
<pdfrwt beam="2">  1       -2 0.22750439E+00 0.16676989E+04</pdfrwt>
<totfact> 0.54810313E-01</totfact>
</mgrwt>
</event>
<event>
 4    1  0.4639964E-008  0.3149408E+03  0.7818608E-02  0.1078002E+00
          2   -1    0    0  501    0  0.00000000000E+00  0.00000000000E+00  0.11135532318E+04  0.11135532318E+04  0.25500000000E-02 0. -1.
         -2   -1    0    0    0  501 -0.00000000000E+00 -0.00000000000E+00 -0.16233857011E+03  0.16233857013E+03  0.25500000000E-02 0.  1.
    8880022    1    1    2    0    0 -0.88933667556E+02  0.26055107314E+03  0.90417802216E+03  0.95745788822E+03  0.15294330000E+03 0. -1.
    8880022    1    1    2    0    0  0.88933667556E+02 -0.26055107314E+03  0.47036639546E+02  0.31843391373E+03  0.15294330000E+03 0.  0.
<mgrwt>
<rscale>  0 0.31494081E+03</rscale>
<asrwt>0</asrwt>
<pdfrwt beam="1">  1        2 0.17131588E+00 0.31494081E+03</pdfrwt>
<pdfrwt beam="2">  1       -2 0.24975165E-01 0.31494081E+03</pdfrwt>
<totfact> 0.32001578E+02</totfact>
</mgrwt>
</event>
<event>
 4    1  0.4639964E-008  0.3734186E+03  0.7818608E-02  0.1053393E+00
         -2   -1    0    0    0  501 -0.00000000000E+00  0.00000000000E+00  0.10213021470E+03  0.10213021474E+03  0.25500000000E-02 0.  1.
          2   -1    0    0  501    0  0.00000000000E+00 -0.00000000000E+00 -0.13953455905E+04  0.13953455905E+04  0.25500000000E-02 0. -1.
    8880022    1    1    2    0    0  0.31269739996E+03  0.13516718681E+03 -0.75642216297E+03  0.84357333645E+03  0.15294330000E+03 0.  1.
    8880022    1    1    2    0    0 -0.31269739996E+03 -0.13516718681E+03 -0.53679321284E+03  0.65390246879E+03  0.15294330000E+03 0.  0.
<mgrwt>
<rscale>  0 0.37341865E+03</rscale>
<asrwt>0</asrwt>
<pdfrwt beam="1">  1        2 0.21466854E+00 0.37341865E+03</pdfrwt>
<pdfrwt beam="2">  1       -2 0.15712342E-01 0.37341865E+03</pdfrwt>
<totfact> 0.48921472E+02</totfact>
</mgrwt>
</event>
<event>
 4    1  0.4639964E-008  0.4087463E+03  0.7818608E-02  0.1040793E+00
         -2   -1    0    0    0  501 -0.00000000000E+00  0.00000000000E+00  0.10972052805E+03  0.10972052808E+03  0.25500000000E-02 0.  1.
          2   -1    0    0  501    0  0.00000000000E+00 -0.00000000000E+00 -0.19616090518E+04  0.19616090518E+04  0.25500000000E-02 0. -1.
    8880022    1    1    2    0    0 -0.37553767835E+03  0.51510274836E+02 -0.14158256699E+04  0.14736471209E+04  0.15294330000E+03 0. -1.
    8880022    1    1    2    0    0  0.37553767835E+03 -0.51510274836E+02 -0.43606285381E+03  0.59768245897E+03  0.15294330000E+03 0.  0.
<mgrwt>
<rscale>  0 0.40874627E+03</rscale>
<asrwt>0</asrwt>
<pdfrwt beam="1">  1        2 0.30178598E+00 0.40874627E+03</pdfrwt>
<pdfrwt beam="2">  1       -2 0.16880083E-01 0.40874627E+03</pdfrwt>
<totfact> 0.21398488E+02</totfact>
</mgrwt>
</event>
<event>
 4    1  0.4812368E-008  0.3789564E+03  0.7818608E-02  0.1051320E+00
         -2   -1    0    0    0  501 -0.00000000000E+00  0.00000000000E+00  0.83673456182E+03  0.83673456182E+03  0.25500000000E-02 0.  1.
          2   -1    0    0  501    0  0.00000000000E+00 -0.00000000000E+00 -0.22520683538E+04  0.22520683538E+04  0.25500000000E-02 0. -1.
    8880022    1    1    2    0    0  0.15999294367E+03 -0.30760133097E+03  0.77671941939E+03  0.86423436075E+03  0.15294330000E+03 0.  0.
    8880022    1    1    2    0    0 -0.15999294367E+03  0.30760133097E+03 -0.21920532113E+04  0.22245685548E+04  0.15294330000E+03 0.  0.
<mgrwt>
<rscale>  0 0.37895643E+03</rscale>
<asrwt>0</asrwt>
<pdfrwt beam="1">  1        2 0.34647205E+00 0.37895643E+03</pdfrwt>
<pdfrwt beam="2">  1       -2 0.12872840E+00 0.37895643E+03</pdfrwt>
<totfact> 0.24756755E+00</totfact>
</mgrwt>
</event>
<event>
 4    1  0.4639964E-008  0.2786479E+03  0.7818608E-02  0.1096430E+00
         -2   -1    0    0    0  501 -0.00000000000E+00  0.00000000000E+00  0.35920354533E+03  0.35920354534E+03  0.25500000000E-02 0.  1.
          2   -1    0    0  501    0  0.00000000000E+00 -0.00000000000E+00 -0.29310495507E+03  0.29310495508E+03  0.25500000000E-02 0. -1.
    8880022    1    1    2    0    0 -0.15255025768E+03 -0.17601536571E+03  0.20016135222E+03  0.34308775848E+03  0.15294330000E+03 0.  0.
    8880022    1    1    2    0    0  0.15255025768E+03  0.17601536571E+03 -0.13406276196E+03  0.30922074193E+03  0.15294330000E+03 0. -1.
<mgrwt>
<rscale>  0 0.27864788E+03</rscale>
<asrwt>0</asrwt>
<pdfrwt beam="1">  1        2 0.45093070E-01 0.27864788E+03</pdfrwt>
<pdfrwt beam="2">  1       -2 0.55262084E-01 0.27864788E+03</pdfrwt>
<totfact> 0.35343788E+02</totfact>
</mgrwt>
</event>
<event>
 4    1  0.4639964E-008  0.9495078E+03  0.7818608E-02  0.9365726E-01
          2   -1    0    0  501    0  0.00000000000E+00  0.00000000000E+00  0.10117143534E+04  0.10117143534E+04  0.25500000000E-02 0. -1.
         -2   -1    0    0    0  501 -0.00000000000E+00 -0.00000000000E+00 -0.14871590916E+04  0.14871590916E+04  0.25500000000E-02 0.  1.
    8880022    1    1    2    0    0  0.92700162735E+03  0.13726415585E+03  0.55326706410E+03  0.10989401998E+04  0.15294330000E+03 0.  0.
    8880022    1    1    2    0    0 -0.92700162735E+03 -0.13726415585E+03 -0.10287118024E+04  0.13999332452E+04  0.15294330000E+03 0.  0.
<mgrwt>
<rscale>  0 0.94950783E+03</rscale>
<asrwt>0</asrwt>
<pdfrwt beam="1">  1        2 0.15564836E+00 0.94950783E+03</pdfrwt>
<pdfrwt beam="2">  1       -2 0.22879371E+00 0.94950783E+03</pdfrwt>
<totfact> 0.21552322E+00</totfact>
</mgrwt>
</event>
<event>
 4    1  0.4639964E-008  0.3744767E+03  0.7818608E-02  0.1052994E+00
          2   -1    0    0  501    0  0.00000000000E+00  0.00000000000E+00  0.13485343303E+04  0.13485343303E+04  0.25500000000E-02 0. -1.
         -2   -1    0    0    0  501 -0.00000000000E+00 -0.00000000000E+00 -0.26132074888E+03  0.26132074889E+03  0.25500000000E-02 0.  1.
    8880022    1    1    2    0    0  0.14651208066E+03 -0.30882896047E+03 -0.80958709046E+02  0.38312802324E+03  0.15294330000E+03 0.  0.
    8880022    1    1    2    0    0 -0.14651208066E+03  0.30882896047E+03  0.11681722904E+04  0.12267270559E+04  0.15294330000E+03 0.  0.
<mgrwt>
<rscale>  0 0.37447666E+03</rscale>
<asrwt>0</asrwt>
<pdfrwt beam="1">  1        2 0.20746682E+00 0.37447666E+03</pdfrwt>
<pdfrwt beam="2">  1       -2 0.40203193E-01 0.37447666E+03</pdfrwt>
<totfact> 0.96532943E+01</totfact>
</mgrwt>
</event>
<event>
 4    1  0.4639964E-008  0.7949362E+03  0.7818608E-02  0.9567376E-01
          2   -1    0    0  501    0  0.00000000000E+00  0.00000000000E+00  0.16170713550E+04  0.16170713550E+04  0.25500000000E-02 0. -1.
         -2   -1    0    0    0  501 -0.00000000000E+00 -0.00000000000E+00 -0.42366721143E+03  0.42366721144E+03  0.25500000000E-02 0.  1.
    8880022    1    1    2    0    0  0.11336296821E+03  0.77180352235E+03  0.88097841324E+03  0.11866113337E+04  0.15294330000E+03 0.  0.
    8880022    1    1    2    0    0 -0.11336296821E+03 -0.77180352235E+03  0.31242573032E+03  0.85412723271E+03  0.15294330000E+03 0.  0.
<mgrwt>
<rscale>  0 0.79493616E+03</rscale>
<asrwt>0</asrwt>
<pdfrwt beam="1">  1        2 0.24878021E+00 0.79493616E+03</pdfrwt>
<pdfrwt beam="2">  1       -2 0.65179570E-01 0.79493616E+03</pdfrwt>
<totfact> 0.24156815E+01</totfact>
</mgrwt>
</event>
<event>
 4    1  0.4639964E-008  0.7055286E+03  0.7818608E-02  0.9707824E-01
          2   -1    0    0  501    0  0.00000000000E+00  0.00000000000E+00  0.18781827535E+04  0.18781827535E+04  0.25500000000E-02 0. -1.
         -2   -1    0    0    0  501 -0.00000000000E+00 -0.00000000000E+00 -0.38994779624E+03  0.38994779625E+03  0.25500000000E-02 0.  1.
    8880022    1    1    2    0    0 -0.48999256102E+03  0.48403116929E+03  0.13859931247E+04  0.15552322905E+04  0.15294330000E+03 0.  0.
    8880022    1    1    2    0    0  0.48999256102E+03 -0.48403116929E+03  0.10224183256E+03  0.71289825925E+03  0.15294330000E+03 0.  0.
<mgrwt>
<rscale>  0 0.70552855E+03</rscale>
<asrwt>0</asrwt>
<pdfrwt beam="1">  1        2 0.28895119E+00 0.70552855E+03</pdfrwt>
<pdfrwt beam="2">  1       -2 0.59991969E-01 0.70552855E+03</pdfrwt>
<totfact> 0.20989635E+01</totfact>
</mgrwt>
</event>
<event>
 4    1  0.4639964E-008  0.2791990E+03  0.7818608E-02  0.1096127E+00
          2   -1    0    0  501    0  0.00000000000E+00  0.00000000000E+00  0.22072676415E+04  0.22072676415E+04  0.25500000000E-02 0. -1.
         -2   -1    0    0    0  501 -0.00000000000E+00 -0.00000000000E+00 -0.75679447189E+03  0.75679447189E+03  0.25500000000E-02 0.  1.
    8880022    1    1    2    0    0  0.26524252980E+02 -0.23207091671E+03 -0.72180157941E+03  0.77391835450E+03  0.15294330000E+03 0.  0.
    8880022    1    1    2    0    0 -0.26524252980E+02  0.23207091671E+03  0.21722747490E+04  0.21901437589E+04  0.15294330000E+03 0.  0.
<mgrwt>
<rscale>  0 0.27919903E+03</rscale>
<asrwt>0</asrwt>
<pdfrwt beam="1">  1        2 0.33957964E+00 0.27919903E+03</pdfrwt>
<pdfrwt beam="2">  1       -2 0.11642992E+00 0.27919903E+03</pdfrwt>
<totfact> 0.35010436E+00</totfact>
</mgrwt>
</event>
<event>
 4    1  0.4639964E-008  0.6389757E+03  0.7818608E-02  0.9827688E-01
         -2   -1    0    0    0  501 -0.00000000000E+00  0.00000000000E+00  0.18797270441E+03  0.18797270443E+03  0.25500000000E-02 0.  1.
          2   -1    0    0  501    0  0.00000000000E+00 -0.00000000000E+00 -0.22839656684E+04  0.22839656684E+04  0.25500000000E-02 0. -1.
    8880022    1    1    2    0    0  0.24301257202E+03 -0.57082675053E+03 -0.77442629297E+03  0.10040049928E+04  0.15294330000E+03 0.  0.
    8880022    1    1    2    0    0 -0.24301257202E+03  0.57082675053E+03 -0.13215666711E+04  0.14679333801E+04  0.15294330000E+03 0.  0.
<mgrwt>
<rscale>  0 0.63897570E+03</rscale>
<asrwt>0</asrwt>
<pdfrwt beam="1">  1        2 0.35137931E+00 0.63897570E+03</pdfrwt>
<pdfrwt beam="2">  1       -2 0.28918879E-01 0.63897570E+03</pdfrwt>
<totfact> 0.53419287E+01</totfact>
</mgrwt>
</event>
<event>
 4    1  0.4639964E-008  0.5520995E+03  0.7818608E-02  0.1001009E+00
          2   -1    0    0  501    0  0.00000000000E+00  0.00000000000E+00  0.14104914257E+04  0.14104914257E+04  0.25500000000E-02 0. -1.
         -2   -1    0    0    0  501 -0.00000000000E+00 -0.00000000000E+00 -0.47678910748E+03  0.47678910748E+03  0.25500000000E-02 0.  1.
    8880022    1    1    2    0    0  0.43476560931E+03  0.30397550688E+03  0.11646026740E+04  0.12888418387E+04  0.15294330000E+03 0.  0.
    8880022    1    1    2    0    0 -0.43476560931E+03 -0.30397550688E+03 -0.23090035575E+03  0.59843869454E+03  0.15294330000E+03 0.  0.
<mgrwt>
<rscale>  0 0.55209954E+03</rscale>
<asrwt>0</asrwt>
<pdfrwt beam="1">  1        2 0.21699868E+00 0.55209954E+03</pdfrwt>
<pdfrwt beam="2">  1       -2 0.73352171E-01 0.55209954E+03</pdfrwt>
<totfact> 0.25128878E+01</totfact>
</mgrwt>
</event>
<event>
 4    1  0.4639964E-008  0.2954880E+03  0.7818608E-02  0.1087518E+00
          2   -1    0    0  501    0  0.00000000000E+00  0.00000000000E+00  0.20381274744E+04  0.20381274744E+04  0.25500000000E-02 0. -1.
         -2   -1    0    0    0  501 -0.00000000000E+00 -0.00000000000E+00 -0.20049855955E+03  0.20049855956E+03  0.25500000000E-02 0.  1.
    8880022    1    1    2    0    0 -0.23887845956E+03  0.82816612847E+02 -0.73741157587E+02  0.30455035896E+03  0.15294330000E+03 0.  0.
    8880022    1    1    2    0    0  0.23887845956E+03 -0.82816612847E+02  0.19113700725E+04  0.19340756750E+04  0.15294330000E+03 0.  0.
<mgrwt>
<rscale>  0 0.29548801E+03</rscale>
<asrwt>0</asrwt>
<pdfrwt beam="1">  1        2 0.31355809E+00 0.29548801E+03</pdfrwt>
<pdfrwt beam="2">  1       -2 0.30845930E-01 0.29548801E+03</pdfrwt>
<totfact> 0.69155445E+01</totfact>
</mgrwt>
</event>
<event>
 4    1  0.4639964E-008  0.1509435E+04  0.7818608E-02  0.8878203E-01
         -2   -1    0    0    0  501 -0.00000000000E+00  0.00000000000E+00  0.12133442487E+04  0.12133442487E+04  0.25500000000E-02 0.  1.
          2   -1    0    0  501    0  0.00000000000E+00 -0.00000000000E+00 -0.25997991961E+04  0.25997991961E+04  0.25500000000E-02 0. -1.
    8880022    1    1    2    0    0 -0.38827178952E+02  0.15011643441E+04 -0.16979765373E+04  0.22718974255E+04  0.15294330000E+03 0.  0.
    8880022    1    1    2    0    0  0.38827178952E+02 -0.15011643441E+04  0.31152158997E+03  0.15412460193E+04  0.15294330000E+03 0.  0.
<mgrwt>
<rscale>  0 0.15094349E+04</rscale>
<asrwt>0</asrwt>
<pdfrwt beam="1">  1        2 0.39996911E+00 0.15094349E+04</pdfrwt>
<pdfrwt beam="2">  1       -2 0.18666835E+00 0.15094349E+04</pdfrwt>
<totfact> 0.46712427E-01</totfact>
</mgrwt>
</event>
<event>
 4    1  0.4639964E-008  0.2990856E+03  0.7818608E-02  0.1085699E+00
          2   -1    0    0  501    0  0.00000000000E+00  0.00000000000E+00  0.11212591188E+04  0.11212591188E+04  0.25500000000E-02 0. -1.
         -2   -1    0    0    0  501 -0.00000000000E+00 -0.00000000000E+00 -0.99923550254E+02  0.99923550286E+02  0.25500000000E-02 0.  1.
    8880022    1    1    2    0    0  0.13248654140E+03  0.22024503049E+03  0.78482673491E+03  0.83988404792E+03  0.15294330000E+03 0.  0.
    8880022    1    1    2    0    0 -0.13248654140E+03 -0.22024503049E+03  0.23650883366E+03  0.38129862119E+03  0.15294330000E+03 0.  0.
<mgrwt>
<rscale>  0 0.29908562E+03</rscale>
<asrwt>0</asrwt>
<pdfrwt beam="1">  1        2 0.17250139E+00 0.29908562E+03</pdfrwt>
<pdfrwt beam="2">  1       -2 0.15372855E-01 0.29908562E+03</pdfrwt>
<totfact> 0.73023455E+02</totfact>
</mgrwt>
</event>
<event>
 4    1  0.4639964E-008  0.6615462E+03  0.7818608E-02  0.9785351E-01
          2   -1    0    0  501    0  0.00000000000E+00  0.00000000000E+00  0.30486595551E+04  0.30486595552E+04  0.25500000000E-02 0. -1.
         -2   -1    0    0    0  501 -0.00000000000E+00 -0.00000000000E+00 -0.22654138192E+03  0.22654138193E+03  0.25500000000E-02 0.  1.
    8880022    1    1    2    0    0 -0.31291013175E+03  0.56244023398E+03  0.24022185238E+04  0.24916454917E+04  0.15294330000E+03 0.  0.
    8880022    1    1    2    0    0  0.31291013175E+03 -0.56244023398E+03  0.41989964947E+03  0.78355544539E+03  0.15294330000E+03 0.  0.
<mgrwt>
<rscale>  0 0.66154623E+03</rscale>
<asrwt>0</asrwt>
<pdfrwt beam="1">  1        2 0.46902458E+00 0.66154623E+03</pdfrwt>
<pdfrwt beam="2">  1       -2 0.34852518E-01 0.66154623E+03</pdfrwt>
<totfact> 0.13541908E+01</totfact>
</mgrwt>
</event>
<event>
 4    1  0.4639964E-008  0.5765507E+03  0.7818608E-02  0.9955287E-01
          2   -1    0    0  501    0  0.00000000000E+00  0.00000000000E+00  0.26138868519E+04  0.26138868519E+04  0.25500000000E-02 0. -1.
         -2   -1    0    0    0  501 -0.00000000000E+00 -0.00000000000E+00 -0.19110314201E+03  0.19110314202E+03  0.25500000000E-02 0.  1.
    8880022    1    1    2    0    0  0.53447069563E+03 -0.15284018386E+03  0.40019377893E+03  0.70183029287E+03  0.15294330000E+03 0.  0.
    8880022    1    1    2    0    0 -0.53447069563E+03  0.15284018386E+03  0.20225899310E+04  0.21031597011E+04  0.15294330000E+03 0.  0.
<mgrwt>
<rscale>  0 0.57655069E+03</rscale>
<asrwt>0</asrwt>
<pdfrwt beam="1">  1        2 0.40213640E+00 0.57655069E+03</pdfrwt>
<pdfrwt beam="2">  1       -2 0.29400486E-01 0.57655069E+03</pdfrwt>
<totfact> 0.34211905E+01</totfact>
</mgrwt>
</event>
<event>
 4    1  0.4639964E-008  0.3538503E+03  0.7818608E-02  0.1061046E+00
         -2   -1    0    0    0  501 -0.00000000000E+00  0.00000000000E+00  0.13230439273E+03  0.13230439275E+03  0.25500000000E-02 0.  1.
          2   -1    0    0  501    0  0.00000000000E+00 -0.00000000000E+00 -0.11331041620E+04  0.11331041620E+04  0.25500000000E-02 0. -1.
    8880022    1    1    2    0    0  0.25388647917E+03  0.19328749948E+03 -0.75724284292E+03  0.83583896650E+03  0.15294330000E+03 0.  0.
    8880022    1    1    2    0    0 -0.25388647917E+03 -0.19328749948E+03 -0.24355692635E+03  0.42956958825E+03  0.15294330000E+03 0.  1.
<mgrwt>
<rscale>  0 0.35385033E+03</rscale>
<asrwt>0</asrwt>
<pdfrwt beam="1">  1        2 0.17432371E+00 0.35385033E+03</pdfrwt>
<pdfrwt beam="2">  1       -2 0.20354523E-01 0.35385033E+03</pdfrwt>
<totfact> 0.44430232E+02</totfact>
</mgrwt>
</event>
<event>
 4    1  0.4639964E-008  0.3126024E+03  0.7818608E-02  0.1079105E+00
         -2   -1    0    0    0  501 -0.00000000000E+00  0.00000000000E+00  0.16443246038E+04  0.16443246038E+04  0.25500000000E-02 0.  1.
          2   -1    0    0  501    0  0.00000000000E+00 -0.00000000000E+00 -0.24679104600E+03  0.24679104601E+03  0.25500000000E-02 0. -1.
    8880022    1    1    2    0    0 -0.24614023658E+03 -0.11723303450E+03  0.15226476597E+04  0.15544054005E+04  0.15294330000E+03 0.  0.
    8880022    1    1    2    0    0  0.24614023658E+03  0.11723303450E+03 -0.12511410196E+03  0.33671024927E+03  0.15294330000E+03 0.  0.
<mgrwt>
<rscale>  0 0.31260239E+03</rscale>
<asrwt>0</asrwt>
<pdfrwt beam="1">  1        2 0.37967853E-01 0.31260239E+03</pdfrwt>
<pdfrwt beam="2">  1       -2 0.25297302E+00 0.31260239E+03</pdfrwt>
<totfact> 0.92772037E+00</totfact>
</mgrwt>
</event>
<event>
 4    1  0.4639964E-008  0.2488316E+03  0.7818608E-02  0.1114045E+00
         -2   -1    0    0    0  501 -0.00000000000E+00  0.00000000000E+00  0.36378614941E+03  0.36378614942E+03  0.25500000000E-02 0.  1.
          2   -1    0    0  501    0  0.00000000000E+00 -0.00000000000E+00 -0.11329550977E+04  0.11329550977E+04  0.25500000000E-02 0. -1.
    8880022    1    1    2    0    0  0.15775098722E+03  0.11679109891E+03  0.30528639906E+03  0.39384892182E+03  0.15294330000E+03 0.  1.
    8880022    1    1    2    0    0 -0.15775098722E+03 -0.11679109891E+03 -0.10744553473E+04  0.11028923253E+04  0.15294330000E+03 0.  0.
<mgrwt>
<rscale>  0 0.24883165E+03</rscale>
<asrwt>0</asrwt>
<pdfrwt beam="1">  1        2 0.17430078E+00 0.24883165E+03</pdfrwt>
<pdfrwt beam="2">  1       -2 0.55967100E-01 0.24883165E+03</pdfrwt>
<totfact> 0.68074014E+01</totfact>
</mgrwt>
</event>
<event>
 4    1  0.4649379E-008  0.5569809E+03  0.7818608E-02  0.9998909E-01
          2   -1    0    0  501    0  0.00000000000E+00  0.00000000000E+00  0.24508918825E+04  0.24508918825E+04  0.25500000000E-02 0. -1.
         -2   -1    0    0    0  501 -0.00000000000E+00 -0.00000000000E+00 -0.42060649292E+03  0.42060649293E+03  0.25500000000E-02 0.  1.
    8880022    1    1    2    0    0  0.41197515396E+03  0.34221711250E+03  0.22155694918E+04  0.22845078038E+04  0.15294330000E+03 0. -1.
    8880022    1    1    2    0    0 -0.41197515396E+03 -0.34221711250E+03 -0.18528410227E+03  0.58699057159E+03  0.15294330000E+03 0.  0.
<mgrwt>
<rscale>  0 0.55698091E+03</rscale>
<asrwt>0</asrwt>
<pdfrwt beam="1">  1        2 0.37706029E+00 0.55698091E+03</pdfrwt>
<pdfrwt beam="2">  1       -2 0.64708691E-01 0.55698091E+03</pdfrwt>
<totfact> 0.89123741E+00</totfact>
</mgrwt>
</event>
<event>
 4    1  0.4639964E-008  0.4049105E+03  0.7818608E-02  0.1042092E+00
          2   -1    0    0  501    0  0.00000000000E+00  0.00000000000E+00  0.57393823537E+03  0.57393823537E+03  0.25500000000E-02 0. -1.
         -2   -1    0    0    0  501 -0.00000000000E+00 -0.00000000000E+00 -0.39720517107E+03  0.39720517108E+03  0.25500000000E-02 0.  1.
    8880022    1    1    2    0    0 -0.20467517727E+03  0.31411611937E+03  0.34568255396E+03  0.53239923532E+03  0.15294330000E+03 0.  0.
    8880022    1    1    2    0    0  0.20467517727E+03 -0.31411611937E+03 -0.16894948967E+03  0.43874417114E+03  0.15294330000E+03 0.  0.
<mgrwt>
<rscale>  0 0.40491051E+03</rscale>
<asrwt>0</asrwt>
<pdfrwt beam="1">  1        2 0.88298190E-01 0.40491051E+03</pdfrwt>
<pdfrwt beam="2">  1       -2 0.61108488E-01 0.40491051E+03</pdfrwt>
<totfact> 0.13482349E+02</totfact>
</mgrwt>
</event>
<event>
 4    1  0.4639964E-008  0.2214806E+03  0.7818608E-02  0.1132784E+00
          2   -1    0    0  501    0  0.00000000000E+00  0.00000000000E+00  0.11145100884E+04  0.11145100884E+04  0.25500000000E-02 0. -1.
         -2   -1    0    0    0  501 -0.00000000000E+00 -0.00000000000E+00 -0.98040982530E+02  0.98040982564E+02  0.25500000000E-02 0.  1.
    8880022    1    1    2    0    0 -0.13846064482E+03  0.80564600951E+02  0.58171900669E+02  0.22899263773E+03  0.15294330000E+03 0.  0.
    8880022    1    1    2    0    0  0.13846064482E+03 -0.80564600951E+02  0.95829720524E+03  0.98355843328E+03  0.15294330000E+03 0. -1.
<mgrwt>
<rscale>  0 0.22148060E+03</rscale>
<asrwt>0</asrwt>
<pdfrwt beam="1">  1        2 0.17146309E+00 0.22148060E+03</pdfrwt>
<pdfrwt beam="2">  1       -2 0.15083228E-01 0.22148060E+03</pdfrwt>
<totfact> 0.76473596E+02</totfact>
</mgrwt>
</event>
<event>
 4    1  0.4639964E-008  0.7230705E+03  0.7818608E-02  0.9678572E-01
          2   -1    0    0  501    0  0.00000000000E+00  0.00000000000E+00  0.13604066567E+04  0.13604066567E+04  0.25500000000E-02 0. -1.
         -2   -1    0    0    0  501 -0.00000000000E+00 -0.00000000000E+00 -0.10458065290E+04  0.10458065290E+04  0.25500000000E-02 0.  1.
    8880022    1    1    2    0    0  0.68496012370E+03 -0.17397959793E+03 -0.79953938004E+03  0.10780047054E+04  0.15294330000E+03 0.  1.
    8880022    1    1    2    0    0 -0.68496012370E+03  0.17397959793E+03  0.11141395077E+04  0.13282084803E+04  0.15294330000E+03 0.  0.
<mgrwt>
<rscale>  0 0.72307048E+03</rscale>
<asrwt>0</asrwt>
<pdfrwt beam="1">  1        2 0.20929333E+00 0.72307048E+03</pdfrwt>
<pdfrwt beam="2">  1       -2 0.16089331E+00 0.72307048E+03</pdfrwt>
<totfact> 0.38936298E+00</totfact>
</mgrwt>
</event>
<event>
 4    1  0.4639964E-008  0.3875756E+03  0.7818608E-02  0.1048169E+00
          2   -1    0    0  501    0  0.00000000000E+00  0.00000000000E+00  0.11649019310E+04  0.11649019310E+04  0.25500000000E-02 0. -1.
         -2   -1    0    0    0  501 -0.00000000000E+00 -0.00000000000E+00 -0.81908508433E+03  0.81908508433E+03  0.25500000000E-02 0.  1.
    8880022    1    1    2    0    0 -0.35240481702E+03  0.51322959973E+02  0.10834738815E+04  0.11507086974E+04  0.15294330000E+03 0.  0.
    8880022    1    1    2    0    0  0.35240481702E+03 -0.51322959973E+02 -0.73765703479E+03  0.83327831801E+03  0.15294330000E+03 0.  1.
<mgrwt>
<rscale>  0 0.38757561E+03</rscale>
<asrwt>0</asrwt>
<pdfrwt beam="1">  1        2 0.17921568E+00 0.38757561E+03</pdfrwt>
<pdfrwt beam="2">  1       -2 0.12601309E+00 0.38757561E+03</pdfrwt>
<totfact> 0.10143445E+01</totfact>
</mgrwt>
</event>
<event>
 4    1  0.4639964E-008  0.7752608E+03  0.7818608E-02  0.9596533E-01
         -2   -1    0    0    0  501 -0.00000000000E+00  0.00000000000E+00  0.41187170025E+03  0.41187170026E+03  0.25500000000E-02 0.  1.
          2   -1    0    0  501    0  0.00000000000E+00 -0.00000000000E+00 -0.23215067896E+04  0.23215067896E+04  0.25500000000E-02 0. -1.
    8880022    1    1    2    0    0  0.49491488734E+03  0.57679881342E+03 -0.17877307574E+04  0.19485919354E+04  0.15294330000E+03 0.  0.
    8880022    1    1    2    0    0 -0.49491488734E+03 -0.57679881342E+03 -0.12190433196E+03  0.78478655444E+03  0.15294330000E+03 0.  0.
<mgrwt>
<rscale>  0 0.77526078E+03</rscale>
<asrwt>0</asrwt>
<pdfrwt beam="1">  1        2 0.35715488E+00 0.77526078E+03</pdfrwt>
<pdfrwt beam="2">  1       -2 0.63364879E-01 0.77526078E+03</pdfrwt>
<totfact> 0.10564108E+01</totfact>
</mgrwt>
</event>
<event>
 4    1  0.4639964E-008  0.2759444E+03  0.7818608E-02  0.1097925E+00
          2   -1    0    0  501    0  0.00000000000E+00  0.00000000000E+00  0.31213202780E+04  0.31213202780E+04  0.25500000000E-02 0. -1.
         -2   -1    0    0    0  501 -0.00000000000E+00 -0.00000000000E+00 -0.87714358303E+02  0.87714358340E+02  0.25500000000E-02 0.  1.
    8880022    1    1    2    0    0  0.13562755418E+03  0.18536131863E+03  0.28800562380E+04  0.28932454509E+04  0.15294330000E+03 0.  0.
    8880022    1    1    2    0    0 -0.13562755418E+03 -0.18536131863E+03  0.15354968169E+03  0.31578918547E+03  0.15294330000E+03 0.  0.
<mgrwt>
<rscale>  0 0.27594439E+03</rscale>
<asrwt>0</asrwt>
<pdfrwt beam="1">  1        2 0.48020303E+00 0.27594439E+03</pdfrwt>
<pdfrwt beam="2">  1       -2 0.13494519E-01 0.27594439E+03</pdfrwt>
<totfact> 0.72038931E+01</totfact>
</mgrwt>
</event>
<event>
 4    1  0.4639964E-008  0.4638508E+03  0.7818608E-02  0.1023670E+00
         -2   -1    0    0    0  501 -0.00000000000E+00  0.00000000000E+00  0.14941884191E+03  0.14941884194E+03  0.25500000000E-02 0.  1.
          2   -1    0    0  501    0  0.00000000000E+00 -0.00000000000E+00 -0.18448717089E+04  0.18448717089E+04  0.25500000000E-02 0. -1.
    8880022    1    1    2    0    0 -0.15419850700E+03  0.40986432007E+03 -0.13148738450E+04  0.13942922297E+04  0.15294330000E+03 0.  0.
    8880022    1    1    2    0    0  0.15419850700E+03 -0.40986432007E+03 -0.38057902201E+03  0.59999832119E+03  0.15294330000E+03 0.  0.
<mgrwt>
<rscale>  0 0.46385083E+03</rscale>
<asrwt>0</asrwt>
<pdfrwt beam="1">  1        2 0.28382640E+00 0.46385083E+03</pdfrwt>
<pdfrwt beam="2">  1       -2 0.22987515E-01 0.46385083E+03</pdfrwt>
<totfact> 0.14356779E+02</totfact>
</mgrwt>
</event>
<event>
 4    1  0.4639964E-008  0.4697498E+03  0.7818608E-02  0.1021991E+00
          2   -1    0    0  501    0  0.00000000000E+00  0.00000000000E+00  0.48268929439E+04  0.48268929439E+04  0.25500000000E-02 0. -1.
         -2   -1    0    0    0  501 -0.00000000000E+00 -0.00000000000E+00 -0.16200973445E+03  0.16200973447E+03  0.25500000000E-02 0.  1.
    8880022    1    1    2    0    0 -0.40599957667E+03  0.18010421787E+03  0.44458487965E+04  0.44705968684E+04  0.15294330000E+03 0.  0.
    8880022    1    1    2    0    0  0.40599957667E+03 -0.18010421787E+03  0.21903441295E+03  0.51830580995E+03  0.15294330000E+03 0.  0.
<mgrwt>
<rscale>  0 0.46974976E+03</rscale>
<asrwt>0</asrwt>
<pdfrwt beam="1">  1        2 0.74259884E+00 0.46974976E+03</pdfrwt>
<pdfrwt beam="2">  1       -2 0.24924577E-01 0.46974976E+03</pdfrwt>
<totfact> 0.10223170E+00</totfact>
</mgrwt>
</event>
<event>
 4    1  0.4639964E-008  0.7213464E+03  0.7818608E-02  0.9681408E-01
         -2   -1    0    0    0  501 -0.00000000000E+00  0.00000000000E+00  0.43109732294E+03  0.43109732295E+03  0.25500000000E-02 0.  1.
          2   -1    0    0  501    0  0.00000000000E+00 -0.00000000000E+00 -0.17301727612E+04  0.17301727612E+04  0.25500000000E-02 0. -1.
    8880022    1    1    2    0    0 -0.68984818248E+03 -0.14511529087E+03 -0.12437627684E+04  0.14378061203E+04  0.15294330000E+03 0.  1.
    8880022    1    1    2    0    0  0.68984818248E+03  0.14511529087E+03 -0.55312669859E+02  0.72346396384E+03  0.15294330000E+03 0.  0.
<mgrwt>
<rscale>  0 0.72134639E+03</rscale>
<asrwt>0</asrwt>
<pdfrwt beam="1">  1        2 0.26618042E+00 0.72134639E+03</pdfrwt>
<pdfrwt beam="2">  1       -2 0.66322666E-01 0.72134639E+03</pdfrwt>
<totfact> 0.20357183E+01</totfact>
</mgrwt>
</event>
<event>
 4    1  0.4639964E-008  0.4915245E+03  0.7818608E-02  0.1016015E+00
         -2   -1    0    0    0  501 -0.00000000000E+00  0.00000000000E+00  0.19482669115E+03  0.19482669116E+03  0.25500000000E-02 0.  1.
          2   -1    0    0  501    0  0.00000000000E+00 -0.00000000000E+00 -0.35038640856E+04  0.35038640856E+04  0.25500000000E-02 0. -1.
    8880022    1    1    2    0    0 -0.26833310101E+03 -0.38236368105E+03 -0.31410157988E+04  0.31792415037E+04  0.15294330000E+03 0. -1.
    8880022    1    1    2    0    0  0.26833310101E+03  0.38236368105E+03 -0.16802159572E+03  0.51944927310E+03  0.15294330000E+03 0.  0.
<mgrwt>
<rscale>  0 0.49152446E+03</rscale>
<asrwt>0</asrwt>
<pdfrwt beam="1">  1        2 0.53905597E+00 0.49152446E+03</pdfrwt>
<pdfrwt beam="2">  1       -2 0.29973340E-01 0.49152446E+03</pdfrwt>
<totfact> 0.95400435E+00</totfact>
</mgrwt>
</event>
<event>
 4    1  0.4639964E-008  0.7078151E+03  0.7818608E-02  0.9703960E-01
          2   -1    0    0  501    0  0.00000000000E+00  0.00000000000E+00  0.14285600504E+04  0.14285600504E+04  0.25500000000E-02 0. -1.
         -2   -1    0    0    0  501 -0.00000000000E+00 -0.00000000000E+00 -0.83455595996E+03  0.83455595997E+03  0.25500000000E-02 0.  1.
    8880022    1    1    2    0    0 -0.63491813702E+03  0.27292763880E+03 -0.56459697385E+03  0.90541257592E+03  0.15294330000E+03 0.  0.
    8880022    1    1    2    0    0  0.63491813702E+03 -0.27292763880E+03  0.11586010643E+04  0.13577034344E+04  0.15294330000E+03 0.  0.
<mgrwt>
<rscale>  0 0.70781508E+03</rscale>
<asrwt>0</asrwt>
<pdfrwt beam="1">  1        2 0.21977847E+00 0.70781508E+03</pdfrwt>
<pdfrwt beam="2">  1       -2 0.12839322E+00 0.70781508E+03</pdfrwt>
<totfact> 0.64361286E+00</totfact>
</mgrwt>
</event>
<event>
 4    1  0.4639964E-008  0.4732514E+03  0.7818608E-02  0.1021007E+00
         -2   -1    0    0    0  501 -0.00000000000E+00  0.00000000000E+00  0.68721080228E+03  0.68721080229E+03  0.25500000000E-02 0.  1.
          2   -1    0    0  501    0  0.00000000000E+00 -0.00000000000E+00 -0.94549214648E+03  0.94549214648E+03  0.25500000000E-02 0. -1.
    8880022    1    1    2    0    0  0.30861009123E+03  0.32455363710E+03  0.53170289923E+03  0.71181098462E+03  0.15294330000E+03 0.  0.
    8880022    1    1    2    0    0 -0.30861009123E+03 -0.32455363710E+03 -0.78998424342E+03  0.92089196415E+03  0.15294330000E+03 0.  0.
<mgrwt>
<rscale>  0 0.47325142E+03</rscale>
<asrwt>0</asrwt>
<pdfrwt beam="1">  1        2 0.14546033E+00 0.47325142E+03</pdfrwt>
<pdfrwt beam="2">  1       -2 0.10572474E+00 0.47325142E+03</pdfrwt>
<totfact> 0.20806389E+01</totfact>
</mgrwt>
</event>
<event>
 4    1  0.4639964E-008  0.1690581E+03  0.7818608E-02  0.1178834E+00
         -2   -1    0    0    0  501 -0.00000000000E+00  0.00000000000E+00  0.74592941627E+02  0.74592941671E+02  0.25500000000E-02 0.  1.
          2   -1    0    0  501    0  0.00000000000E+00 -0.00000000000E+00 -0.82231202713E+03  0.82231202714E+03  0.25500000000E-02 0. -1.
    8880022    1    1    2    0    0  0.88971173846E+00  0.72029157131E+02 -0.70158345254E+03  0.72166473168E+03  0.15294330000E+03 0. -1.
    8880022    1    1    2    0    0 -0.88971173846E+00 -0.72029157131E+02 -0.46135632969E+02  0.17524023713E+03  0.15294330000E+03 0.  0.
<mgrwt>
<rscale>  0 0.16905811E+03</rscale>
<asrwt>0</asrwt>
<pdfrwt beam="1">  1        2 0.12650954E+00 0.16905811E+03</pdfrwt>
<pdfrwt beam="2">  1       -2 0.11475838E-01 0.16905811E+03</pdfrwt>
<totfact> 0.18095551E+03</totfact>
</mgrwt>
</event>
<event>
 4    1  0.4639964E-008  0.6989960E+03  0.7818608E-02  0.9718951E-01
          2   -1    0    0  501    0  0.00000000000E+00  0.00000000000E+00  0.10113414768E+04  0.10113414768E+04  0.25500000000E-02 0. -1.
         -2   -1    0    0    0  501 -0.00000000000E+00 -0.00000000000E+00 -0.10903904311E+04  0.10903904311E+04  0.25500000000E-02 0.  1.
    8880022    1    1    2    0    0  0.64705268989E+03  0.21570012239E+03  0.74471510450E+03  0.10213696521E+04  0.15294330000E+03 0.  0.
    8880022    1    1    2    0    0 -0.64705268989E+03 -0.21570012239E+03 -0.82376405878E+03  0.10803622558E+04  0.15294330000E+03 0.  0.
<mgrwt>
<rscale>  0 0.69899598E+03</rscale>
<asrwt>0</asrwt>
<pdfrwt beam="1">  1        2 0.15559100E+00 0.69899598E+03</pdfrwt>
<pdfrwt beam="2">  1       -2 0.16775237E+00 0.69899598E+03</pdfrwt>
<totfact> 0.56283989E+00</totfact>
</mgrwt>
</event>
<event>
 4    1  0.4639964E-008  0.1073419E+04  0.7818608E-02  0.9231494E-01
          2   -1    0    0  501    0  0.00000000000E+00  0.00000000000E+00  0.22790283007E+04  0.22790283007E+04  0.25500000000E-02 0. -1.
         -2   -1    0    0    0  501 -0.00000000000E+00 -0.00000000000E+00 -0.58852631236E+03  0.58852631236E+03  0.25500000000E-02 0.  1.
    8880022    1    1    2    0    0  0.23271650469E+03 -0.10366677687E+04  0.13835209075E+04  0.17511021640E+04  0.15294330000E+03 0.  0.
    8880022    1    1    2    0    0 -0.23271650469E+03  0.10366677687E+04  0.30698108084E+03  0.11164524491E+04  0.15294330000E+03 0.  0.
<mgrwt>
<rscale>  0 0.10734192E+04</rscale>
<asrwt>0</asrwt>
<pdfrwt beam="1">  1        2 0.35061974E+00 0.10734192E+04</pdfrwt>
<pdfrwt beam="2">  1       -2 0.90542510E-01 0.10734192E+04</pdfrwt>
<totfact> 0.48386399E+00</totfact>
</mgrwt>
</event>
<event>
 4    1  0.4639964E-008  0.4005904E+03  0.7818608E-02  0.1043575E+00
         -2   -1    0    0    0  501 -0.00000000000E+00  0.00000000000E+00  0.25089064553E+03  0.25089064554E+03  0.25500000000E-02 0.  1.
          2   -1    0    0  501    0  0.00000000000E+00 -0.00000000000E+00 -0.26425696101E+04  0.26425696101E+04  0.25500000000E-02 0. -1.
    8880022    1    1    2    0    0  0.57585772194E+02  0.36573878960E+03 -0.24553743659E+04  0.24878375978E+04  0.15294330000E+03 0.  0.
    8880022    1    1    2    0    0 -0.57585772194E+02 -0.36573878960E+03  0.63695401329E+02  0.40562265783E+03  0.15294330000E+03 0.  1.
<mgrwt>
<rscale>  0 0.40059036E+03</rscale>
<asrwt>0</asrwt>
<pdfrwt beam="1">  1        2 0.40654915E+00 0.40059036E+03</pdfrwt>
<pdfrwt beam="2">  1       -2 0.38598563E-01 0.40059036E+03</pdfrwt>
<totfact> 0.20608525E+01</totfact>
</mgrwt>
</event>
<event>
 4    1  0.4639964E-008  0.5810883E+03  0.7818608E-02  0.9945438E-01
          2   -1    0    0  501    0  0.00000000000E+00  0.00000000000E+00  0.10963038699E+04  0.10963038699E+04  0.25500000000E-02 0. -1.
         -2   -1    0    0    0  501 -0.00000000000E+00 -0.00000000000E+00 -0.32328610309E+03  0.32328610310E+03  0.25500000000E-02 0.  1.
    8880022    1    1    2    0    0  0.24306207723E+03 -0.50516614164E+03  0.54084268023E+03  0.79383528633E+03  0.15294330000E+03 0.  0.
    8880022    1    1    2    0    0 -0.24306207723E+03  0.50516614164E+03  0.23217508656E+03  0.62575468666E+03  0.15294330000E+03 0.  0.
<mgrwt>
<rscale>  0 0.58108834E+03</rscale>
<asrwt>0</asrwt>
<pdfrwt beam="1">  1        2 0.16866213E+00 0.58108834E+03</pdfrwt>
<pdfrwt beam="2">  1       -2 0.49736324E-01 0.58108834E+03</pdfrwt>
<totfact> 0.86340614E+01</totfact>
</mgrwt>
</event>
<event>
 4    1  0.4639964E-008  0.4037545E+03  0.7818608E-02  0.1042487E+00
         -2   -1    0    0    0  501 -0.00000000000E+00  0.00000000000E+00  0.45884568839E+03  0.45884568840E+03  0.25500000000E-02 0.  1.
          2   -1    0    0  501    0  0.00000000000E+00 -0.00000000000E+00 -0.67993660755E+03  0.67993660756E+03  0.25500000000E-02 0. -1.
    8880022    1    1    2    0    0 -0.29533719984E+03  0.22891476431E+03 -0.50399595611E+03  0.64577829610E+03  0.15294330000E+03 0. -1.
    8880022    1    1    2    0    0  0.29533719984E+03 -0.22891476431E+03  0.28290503695E+03  0.49300399985E+03  0.15294330000E+03 0.  0.
<mgrwt>
<rscale>  0 0.40375448E+03</rscale>
<asrwt>0</asrwt>
<pdfrwt beam="1">  1        2 0.10460563E+00 0.40375448E+03</pdfrwt>
<pdfrwt beam="2">  1       -2 0.70591644E-01 0.40375448E+03</pdfrwt>
<totfact> 0.80916317E+01</totfact>
</mgrwt>
</event>
<event>
 4    1  0.4639964E-008  0.6193535E+03  0.7818608E-02  0.9866048E-01
          2   -1    0    0  501    0  0.00000000000E+00  0.00000000000E+00  0.38560854616E+03  0.38560854617E+03  0.25500000000E-02 0. -1.
         -2   -1    0    0    0  501 -0.00000000000E+00 -0.00000000000E+00 -0.11321716617E+04  0.11321716617E+04  0.25500000000E-02 0.  1.
    8880022    1    1    2    0    0  0.33695396138E+03  0.49665797042E+03 -0.10892490085E+03  0.62885880666E+03  0.15294330000E+03 0.  0.
    8880022    1    1    2    0    0 -0.33695396138E+03 -0.49665797042E+03 -0.63763821468E+03  0.88892140120E+03  0.15294330000E+03 0.  0.
<mgrwt>
<rscale>  0 0.61935351E+03</rscale>
<asrwt>0</asrwt>
<pdfrwt beam="1">  1        2 0.59324392E-01 0.61935351E+03</pdfrwt>
<pdfrwt beam="2">  1       -2 0.17418025E+00 0.61935351E+03</pdfrwt>
<totfact> 0.16960931E+01</totfact>
</mgrwt>
</event>
<event>
 4    1  0.4639964E-008  0.2069286E+03  0.7818608E-02  0.1144022E+00
         -2   -1    0    0    0  501 -0.00000000000E+00  0.00000000000E+00  0.18782342907E+03  0.18782342909E+03  0.25500000000E-02 0.  1.
          2   -1    0    0  501    0  0.00000000000E+00 -0.00000000000E+00 -0.55076094331E+03  0.55076094331E+03  0.25500000000E-02 0. -1.
    8880022    1    1    2    0    0 -0.12832485880E+03 -0.54410536248E+02  0.10124340209E+03  0.23036852069E+03  0.15294330000E+03 0.  0.
    8880022    1    1    2    0    0  0.12832485880E+03  0.54410536248E+02 -0.46418091632E+03  0.50821585172E+03  0.15294330000E+03 0.  0.
<mgrwt>
<rscale>  0 0.20692856E+03</rscale>
<asrwt>0</asrwt>
<pdfrwt beam="1">  1        2 0.84732452E-01 0.20692856E+03</pdfrwt>
<pdfrwt beam="2">  1       -2 0.28895912E-01 0.20692856E+03</pdfrwt>
<totfact> 0.61400215E+02</totfact>
</mgrwt>
</event>
<event>
 4    1  0.4639964E-008  0.1151150E+04  0.7818608E-02  0.9156724E-01
         -2   -1    0    0    0  501 -0.00000000000E+00  0.00000000000E+00  0.73659955402E+03  0.73659955402E+03  0.25500000000E-02 0.  1.
          2   -1    0    0  501    0  0.00000000000E+00 -0.00000000000E+00 -0.20206408147E+04  0.20206408147E+04  0.25500000000E-02 0. -1.
    8880022    1    1    2    0    0 -0.10650897314E+04  0.40906943797E+03 -0.10986049112E+04  0.15912505601E+04  0.15294330000E+03 0.  0.
    8880022    1    1    2    0    0  0.10650897314E+04 -0.40906943797E+03 -0.18543634950E+03  0.11659898086E+04  0.15294330000E+03 0.  0.
<mgrwt>
<rscale>  0 0.11511497E+04</rscale>
<asrwt>0</asrwt>
<pdfrwt beam="1">  1        2 0.31086782E+00 0.11511497E+04</pdfrwt>
<pdfrwt beam="2">  1       -2 0.11332301E+00 0.11511497E+04</pdfrwt>
<totfact> 0.39065632E+00</totfact>
</mgrwt>
</event>
<event>
 4    1  0.4639964E-008  0.5634339E+03  0.7818608E-02  0.9984315E-01
         -2   -1    0    0    0  501 -0.00000000000E+00  0.00000000000E+00  0.15073773738E+03  0.15073773740E+03  0.25500000000E-02 0.  1.
          2   -1    0    0  501    0  0.00000000000E+00 -0.00000000000E+00 -0.27688244303E+04  0.27688244303E+04  0.25500000000E-02 0. -1.
    8880022    1    1    2    0    0  0.20451570523E+03 -0.50223441165E+03 -0.20232608029E+04  0.21002480824E+04  0.15294330000E+03 0.  0.
    8880022    1    1    2    0    0 -0.20451570523E+03  0.50223441165E+03 -0.59482588994E+03  0.81931408525E+03  0.15294330000E+03 0.  0.
<mgrwt>
<rscale>  0 0.56343387E+03</rscale>
<asrwt>0</asrwt>
<pdfrwt beam="1">  1        2 0.42597295E+00 0.56343387E+03</pdfrwt>
<pdfrwt beam="2">  1       -2 0.23190423E-01 0.56343387E+03</pdfrwt>
<totfact> 0.42881195E+01</totfact>
</mgrwt>
</event>
<event>
 4    1  0.4639964E-008  0.3369033E+03  0.7818608E-02  0.1068123E+00
         -2   -1    0    0    0  501 -0.00000000000E+00  0.00000000000E+00  0.18330692783E+03  0.18330692785E+03  0.25500000000E-02 0.  1.
          2   -1    0    0  501    0  0.00000000000E+00 -0.00000000000E+00 -0.89257341383E+03  0.89257341383E+03  0.25500000000E-02 0. -1.
    8880022    1    1    2    0    0  0.22583070620E+02  0.29933627807E+03 -0.56926103602E+02  0.34167885029E+03  0.15294330000E+03 0.  0.
    8880022    1    1    2    0    0 -0.22583070620E+02 -0.29933627807E+03 -0.65234038239E+03  0.73420149139E+03  0.15294330000E+03 0.  0.
<mgrwt>
<rscale>  0 0.33690333E+03</rscale>
<asrwt>0</asrwt>
<pdfrwt beam="1">  1        2 0.13731898E+00 0.33690333E+03</pdfrwt>
<pdfrwt beam="2">  1       -2 0.28201066E-01 0.33690333E+03</pdfrwt>
<totfact> 0.35204479E+02</totfact>
</mgrwt>
</event>
<event>
 4    1  0.4639964E-008  0.6138766E+03  0.7818608E-02  0.9877028E-01
         -2   -1    0    0    0  501 -0.00000000000E+00  0.00000000000E+00  0.34833248308E+03  0.34833248309E+03  0.25500000000E-02 0.  1.
          2   -1    0    0  501    0  0.00000000000E+00 -0.00000000000E+00 -0.15867769623E+04  0.15867769623E+04  0.25500000000E-02 0. -1.
    8880022    1    1    2    0    0 -0.32574094441E+03 -0.49733855235E+03 -0.11650186765E+04  0.13168572315E+04  0.15294330000E+03 0.  0.
    8880022    1    1    2    0    0  0.32574094441E+03  0.49733855235E+03 -0.73425802774E+02  0.61825221395E+03  0.15294330000E+03 0.  0.
<mgrwt>
<rscale>  0 0.61387658E+03</rscale>
<asrwt>0</asrwt>
<pdfrwt beam="1">  1        2 0.24411953E+00 0.61387658E+03</pdfrwt>
<pdfrwt beam="2">  1       -2 0.53589614E-01 0.61387658E+03</pdfrwt>
<totfact> 0.38769197E+01</totfact>
</mgrwt>
</event>
<event>
 4    1  0.4639964E-008  0.2825530E+03  0.7818608E-02  0.1094303E+00
         -2   -1    0    0    0  501 -0.00000000000E+00  0.00000000000E+00  0.92601121609E+03  0.92601121609E+03  0.25500000000E-02 0.  1.
          2   -1    0    0  501    0  0.00000000000E+00 -0.00000000000E+00 -0.58855520928E+03  0.58855520928E+03  0.25500000000E-02 0. -1.
    8880022    1    1    2    0    0 -0.21858401394E+03 -0.93089088224E+02  0.86835027903E+03  0.91316395549E+03  0.15294330000E+03 0.  1.
    8880022    1    1    2    0    0  0.21858401394E+03  0.93089088224E+02 -0.53089427222E+03  0.60140246989E+03  0.15294330000E+03 0.  0.
<mgrwt>
<rscale>  0 0.28255301E+03</rscale>
<asrwt>0</asrwt>
<pdfrwt beam="1">  1        2 0.90546955E-01 0.28255301E+03</pdfrwt>
<pdfrwt beam="2">  1       -2 0.14246326E+00 0.28255301E+03</pdfrwt>
<totfact> 0.18898423E+01</totfact>
</mgrwt>
</event>
<event>
 4    1  0.4639964E-008  0.2544505E+03  0.7818608E-02  0.1110524E+00
          2   -1    0    0  501    0  0.00000000000E+00  0.00000000000E+00  0.42370835078E+03  0.42370835079E+03  0.25500000000E-02 0. -1.
         -2   -1    0    0    0  501 -0.00000000000E+00 -0.00000000000E+00 -0.18984190700E+03  0.18984190702E+03  0.25500000000E-02 0.  1.
    8880022    1    1    2    0    0  0.14263186300E+02 -0.20285448708E+03  0.25243268863E+03  0.35842334846E+03  0.15294330000E+03 0.  0.
    8880022    1    1    2    0    0 -0.14263186300E+02  0.20285448708E+03 -0.18566244851E+02  0.25512690935E+03  0.15294330000E+03 0.  0.
<mgrwt>
<rscale>  0 0.25445046E+03</rscale>
<asrwt>0</asrwt>
<pdfrwt beam="1">  1        2 0.65185900E-01 0.25445046E+03</pdfrwt>
<pdfrwt beam="2">  1       -2 0.29206447E-01 0.25445046E+03</pdfrwt>
<totfact> 0.80661015E+02</totfact>
</mgrwt>
</event>
<event>
 4    1  0.4639964E-008  0.4270510E+03  0.7818608E-02  0.1034796E+00
          2   -1    0    0  501    0  0.00000000000E+00  0.00000000000E+00  0.21911663600E+04  0.21911663600E+04  0.25500000000E-02 0. -1.
         -2   -1    0    0    0  501 -0.00000000000E+00 -0.00000000000E+00 -0.12824099715E+03  0.12824099718E+03  0.25500000000E-02 0.  1.
    8880022    1    1    2    0    0 -0.36429426849E+03  0.16208194098E+03  0.34441154326E+03  0.54862722662E+03  0.15294330000E+03 0.  0.
    8880022    1    1    2    0    0  0.36429426849E+03 -0.16208194098E+03  0.17185138196E+04  0.17707801305E+04  0.15294330000E+03 0.  0.
<mgrwt>
<rscale>  0 0.42705096E+03</rscale>
<asrwt>0</asrwt>
<pdfrwt beam="1">  1        2 0.33710252E+00 0.42705096E+03</pdfrwt>
<pdfrwt beam="2">  1       -2 0.19729384E-01 0.42705096E+03</pdfrwt>
<totfact> 0.12297283E+02</totfact>
</mgrwt>
</event>
<event>
 4    1  0.4639964E-008  0.3477341E+03  0.7818608E-02  0.1063549E+00
          2   -1    0    0  501    0  0.00000000000E+00  0.00000000000E+00  0.23171048475E+03  0.23171048476E+03  0.25500000000E-02 0. -1.
         -2   -1    0    0    0  501 -0.00000000000E+00 -0.00000000000E+00 -0.79693276541E+03  0.79693276542E+03  0.25500000000E-02 0.  1.
    8880022    1    1    2    0    0  0.20299590954E+03 -0.23731836814E+03  0.19559749703E+02  0.34828376932E+03  0.15294330000E+03 0.  0.
    8880022    1    1    2    0    0 -0.20299590954E+03  0.23731836814E+03 -0.58478203037E+03  0.68035948087E+03  0.15294330000E+03 0.  0.
<mgrwt>
<rscale>  0 0.34773409E+03</rscale>
<asrwt>0</asrwt>
<pdfrwt beam="1">  1        2 0.35647767E-01 0.34773409E+03</pdfrwt>
<pdfrwt beam="2">  1       -2 0.12260504E+00 0.34773409E+03</pdfrwt>
<totfact> 0.76395816E+01</totfact>
</mgrwt>
</event>
<event>
 4    1  0.4639964E-008  0.5722197E+03  0.7818608E-02  0.9964779E-01
         -2   -1    0    0    0  501 -0.00000000000E+00  0.00000000000E+00  0.45829392518E+03  0.45829392519E+03  0.25500000000E-02 0.  1.
          2   -1    0    0  501    0  0.00000000000E+00 -0.00000000000E+00 -0.10376173710E+04  0.10376173710E+04  0.25500000000E-02 0. -1.
    8880022    1    1    2    0    0 -0.54099613552E+03  0.10661570578E+03 -0.70706927236E+03  0.90960559381E+03  0.15294330000E+03 0. -1.
    8880022    1    1    2    0    0  0.54099613552E+03 -0.10661570578E+03  0.12774582659E+03  0.58630570233E+03  0.15294330000E+03 0.  1.
<mgrwt>
<rscale>  0 0.57221970E+03</rscale>
<asrwt>0</asrwt>
<pdfrwt beam="1">  1        2 0.15963344E+00 0.57221970E+03</pdfrwt>
<pdfrwt beam="2">  1       -2 0.70506758E-01 0.57221970E+03</pdfrwt>
<totfact> 0.45134669E+01</totfact>
</mgrwt>
</event>
<event>
 4    1  0.4639964E-008  0.3565074E+03  0.7818608E-02  0.1059975E+00
          2   -1    0    0  501    0  0.00000000000E+00  0.00000000000E+00  0.21658412641E+04  0.21658412641E+04  0.25500000000E-02 0. -1.
         -2   -1    0    0    0  501 -0.00000000000E+00 -0.00000000000E+00 -0.30561176443E+03  0.30561176444E+03  0.25500000000E-02 0.  1.
    8880022    1    1    2    0    0 -0.71333800747E+02 -0.31403400441E+03  0.20408828352E+04  0.20717867331E+04  0.15294330000E+03 0. -1.
    8880022    1    1    2    0    0  0.71333800747E+02  0.31403400441E+03 -0.18065333559E+03  0.39966629547E+03  0.15294330000E+03 0.  0.
<mgrwt>
<rscale>  0 0.35650739E+03</rscale>
<asrwt>0</asrwt>
<pdfrwt beam="1">  1        2 0.33320637E+00 0.35650739E+03</pdfrwt>
<pdfrwt beam="2">  1       -2 0.47017192E-01 0.35650739E+03</pdfrwt>
<totfact> 0.25974866E+01</totfact>
</mgrwt>
</event>
<event>
 4    1  0.4639964E-008  0.4126680E+03  0.7818608E-02  0.1039479E+00
         -2   -1    0    0    0  501 -0.00000000000E+00  0.00000000000E+00  0.14210582755E+03  0.14210582757E+03  0.25500000000E-02 0.  1.
          2   -1    0    0  501    0  0.00000000000E+00 -0.00000000000E+00 -0.13248142560E+04  0.13248142560E+04  0.25500000000E-02 0. -1.
    8880022    1    1    2    0    0  0.38012656863E+03  0.49061046205E+02 -0.36475692184E+03  0.55076533976E+03  0.15294330000E+03 0.  0.
    8880022    1    1    2    0    0 -0.38012656863E+03 -0.49061046205E+02 -0.81795150659E+03  0.91615474379E+03  0.15294330000E+03 0.  0.
<mgrwt>
<rscale>  0 0.41266796E+03</rscale>
<asrwt>0</asrwt>
<pdfrwt beam="1">  1        2 0.20381757E+00 0.41266796E+03</pdfrwt>
<pdfrwt beam="2">  1       -2 0.21862436E-01 0.41266796E+03</pdfrwt>
<totfact> 0.30279090E+02</totfact>
</mgrwt>
</event>
<event>
 4    1  0.4639964E-008  0.7446198E+03  0.7818608E-02  0.9643829E-01
         -2   -1    0    0    0  501 -0.00000000000E+00  0.00000000000E+00  0.76993611038E+03  0.76993611038E+03  0.25500000000E-02 0.  1.
          2   -1    0    0  501    0  0.00000000000E+00 -0.00000000000E+00 -0.35456062657E+04  0.35456062657E+04  0.25500000000E-02 0. -1.
    8880022    1    1    2    0    0 -0.22620122286E+03 -0.69274818920E+03  0.53838323968E+03  0.91886626483E+03  0.15294330000E+03 0.  0.
    8880022    1    1    2    0    0  0.22620122286E+03  0.69274818920E+03 -0.33140533950E+04  0.33966761113E+04  0.15294330000E+03 0.  0.
<mgrwt>
<rscale>  0 0.74461984E+03</rscale>
<asrwt>0</asrwt>
<pdfrwt beam="1">  1        2 0.54547788E+00 0.74461984E+03</pdfrwt>
<pdfrwt beam="2">  1       -2 0.11845171E+00 0.74461984E+03</pdfrwt>
<totfact> 0.45247728E-01</totfact>
</mgrwt>
</event>
<event>
 4    1  0.4639964E-008  0.2484308E+03  0.7818608E-02  0.1114301E+00
          2   -1    0    0  501    0  0.00000000000E+00  0.00000000000E+00  0.14093132304E+04  0.14093132304E+04  0.25500000000E-02 0. -1.
         -2   -1    0    0    0  501 -0.00000000000E+00 -0.00000000000E+00 -0.13671304394E+03  0.13671304396E+03  0.25500000000E-02 0.  1.
    8880022    1    1    2    0    0  0.19566707416E+03  0.63736885801E+01  0.12735897782E+04  0.12975934663E+04  0.15294330000E+03 0.  0.
    8880022    1    1    2    0    0 -0.19566707416E+03 -0.63736885801E+01 -0.98959167054E+00  0.24843280807E+03  0.15294330000E+03 0.  0.
<mgrwt>
<rscale>  0 0.24843084E+03</rscale>
<asrwt>0</asrwt>
<pdfrwt beam="1">  1        2 0.21681742E+00 0.24843084E+03</pdfrwt>
<pdfrwt beam="2">  1       -2 0.21032776E-01 0.24843084E+03</pdfrwt>
<totfact> 0.29755389E+02</totfact>
</mgrwt>
</event>
<event>
 4    1  0.4639964E-008  0.1172455E+04  0.7818608E-02  0.9137314E-01
         -2   -1    0    0    0  501 -0.00000000000E+00  0.00000000000E+00  0.41785719405E+03  0.41785719406E+03  0.25500000000E-02 0.  1.
          2   -1    0    0  501    0  0.00000000000E+00 -0.00000000000E+00 -0.49688209832E+04  0.49688209832E+04  0.25500000000E-02 0. -1.
    8880022    1    1    2    0    0 -0.98043707662E+03 -0.62450152930E+03 -0.38411415078E+04  0.40160949637E+04  0.15294330000E+03 0. -1.
    8880022    1    1    2    0    0  0.98043707662E+03  0.62450152930E+03 -0.70982228138E+03  0.13705832136E+04  0.15294330000E+03 0.  0.
<mgrwt>
<rscale>  0 0.11724550E+04</rscale>
<asrwt>0</asrwt>
<pdfrwt beam="1">  1        2 0.76443395E+00 0.11724550E+04</pdfrwt>
<pdfrwt beam="2">  1       -2 0.64285726E-01 0.11724550E+04</pdfrwt>
<totfact> 0.89157139E-02</totfact>
</mgrwt>
</event>
<event>
 4    1  0.4639964E-008  0.7008016E+03  0.7818608E-02  0.9715862E-01
         -2   -1    0    0    0  501 -0.00000000000E+00  0.00000000000E+00  0.57898136447E+03  0.57898136448E+03  0.25500000000E-02 0.  1.
          2   -1    0    0  501    0  0.00000000000E+00 -0.00000000000E+00 -0.15875351048E+04  0.15875351048E+04  0.25500000000E-02 0. -1.
    8880022    1    1    2    0    0  0.25298973517E+03  0.63539544343E+03 -0.12434996667E+04  0.14273802051E+04  0.15294330000E+03 0.  0.
    8880022    1    1    2    0    0 -0.25298973517E+03 -0.63539544343E+03  0.23494592645E+03  0.73913626417E+03  0.15294330000E+03 0.  0.
<mgrwt>
<rscale>  0 0.70080156E+03</rscale>
<asrwt>0</asrwt>
<pdfrwt beam="1">  1        2 0.24423617E+00 0.70080156E+03</pdfrwt>
<pdfrwt beam="2">  1       -2 0.89074057E-01 0.70080156E+03</pdfrwt>
<totfact> 0.12672218E+01</totfact>
</mgrwt>
</event>
<event>
 4    1  0.4639964E-008  0.1649813E+03  0.7818608E-02  0.1183185E+00
         -2   -1    0    0    0  501 -0.00000000000E+00  0.00000000000E+00  0.12347031541E+03  0.12347031544E+03  0.25500000000E-02 0.  1.
          2   -1    0    0  501    0  0.00000000000E+00 -0.00000000000E+00 -0.59874213378E+03  0.59874213378E+03  0.25500000000E-02 0. -1.
    8880022    1    1    2    0    0  0.60210888155E+02 -0.14206406950E+02 -0.52466748319E+03  0.54999526724E+03  0.15294330000E+03 0. -1.
    8880022    1    1    2    0    0 -0.60210888155E+02  0.14206406950E+02  0.49395664826E+02  0.17221718198E+03  0.15294330000E+03 0.  0.
<mgrwt>
<rscale>  0 0.16498129E+03</rscale>
<asrwt>0</asrwt>
<pdfrwt beam="1">  1        2 0.92114173E-01 0.16498129E+03</pdfrwt>
<pdfrwt beam="2">  1       -2 0.18995433E-01 0.16498129E+03</pdfrwt>
<totfact> 0.11587380E+03</totfact>
</mgrwt>
</event>
<event>
 4    1  0.4639964E-008  0.6837525E+03  0.7818608E-02  0.9745428E-01
          2   -1    0    0  501    0  0.00000000000E+00  0.00000000000E+00  0.11812018799E+04  0.11812018799E+04  0.25500000000E-02 0. -1.
         -2   -1    0    0    0  501 -0.00000000000E+00 -0.00000000000E+00 -0.12386163917E+04  0.12386163917E+04  0.25500000000E-02 0.  1.
    8880022    1    1    2    0    0  0.64982142441E+03  0.14784409936E+03  0.96934051873E+03  0.11862286692E+04  0.15294330000E+03 0.  0.
    8880022    1    1    2    0    0 -0.64982142441E+03 -0.14784409936E+03 -0.10267550306E+04  0.12335896024E+04  0.15294330000E+03 0.  0.
<mgrwt>
<rscale>  0 0.68375245E+03</rscale>
<asrwt>0</asrwt>
<pdfrwt beam="1">  1        2 0.18172337E+00 0.68375245E+03</pdfrwt>
<pdfrwt beam="2">  1       -2 0.19055637E+00 0.68375245E+03</pdfrwt>
<totfact> 0.30962814E+00</totfact>
</mgrwt>
</event>
<event>
 4    1  0.4639964E-008  0.8193462E+03  0.7818608E-02  0.9532429E-01
          2   -1    0    0  501    0  0.00000000000E+00  0.00000000000E+00  0.33502689134E+04  0.33502689134E+04  0.25500000000E-02 0. -1.
         -2   -1    0    0    0  501 -0.00000000000E+00 -0.00000000000E+00 -0.83384909659E+03  0.83384909659E+03  0.25500000000E-02 0.  1.
    8880022    1    1    2    0    0 -0.70708181042E+03  0.38467106198E+03 -0.56523557492E+03  0.99539912634E+03  0.15294330000E+03 0.  0.
    8880022    1    1    2    0    0  0.70708181042E+03 -0.38467106198E+03  0.30816553917E+04  0.31887188836E+04  0.15294330000E+03 0.  0.
<mgrwt>
<rscale>  0 0.81934618E+03</rscale>
<asrwt>0</asrwt>
<pdfrwt beam="1">  1        2 0.51542598E+00 0.81934618E+03</pdfrwt>
<pdfrwt beam="2">  1       -2 0.12828448E+00 0.81934618E+03</pdfrwt>
<totfact> 0.49309975E-01</totfact>
</mgrwt>
</event>
<event>
 4    1  0.4639964E-008  0.4211078E+03  0.7818608E-02  0.1036706E+00
          2   -1    0    0  501    0  0.00000000000E+00  0.00000000000E+00  0.16752888752E+04  0.16752888753E+04  0.25500000000E-02 0. -1.
         -2   -1    0    0    0  501 -0.00000000000E+00 -0.00000000000E+00 -0.12649686714E+03  0.12649686716E+03  0.25500000000E-02 0.  1.
    8880022    1    1    2    0    0  0.20212781733E+03 -0.33628035437E+03  0.41044332305E+03  0.58804379575E+03  0.15294330000E+03 0.  0.
    8880022    1    1    2    0    0 -0.20212781733E+03  0.33628035437E+03  0.11383486851E+04  0.12137419467E+04  0.15294330000E+03 0.  0.
<mgrwt>
<rscale>  0 0.42110781E+03</rscale>
<asrwt>0</asrwt>
<pdfrwt beam="1">  1        2 0.25773674E+00 0.42110781E+03</pdfrwt>
<pdfrwt beam="2">  1       -2 0.19461057E-01 0.42110781E+03</pdfrwt>
<totfact> 0.23822288E+02</totfact>
</mgrwt>
</event>
<event>
 4    1  0.4639964E-008  0.5752786E+03  0.7818608E-02  0.9958065E-01
          2   -1    0    0  501    0  0.00000000000E+00  0.00000000000E+00  0.26139872127E+04  0.26139872127E+04  0.25500000000E-02 0. -1.
         -2   -1    0    0    0  501 -0.00000000000E+00 -0.00000000000E+00 -0.18560937897E+03  0.18560937899E+03  0.25500000000E-02 0.  1.
    8880022    1    1    2    0    0  0.27653937269E+03 -0.48070758762E+03  0.42495570090E+03  0.71521521948E+03  0.15294330000E+03 0.  0.
    8880022    1    1    2    0    0 -0.27653937269E+03  0.48070758762E+03  0.20034221328E+04  0.20843813722E+04  0.15294330000E+03 0.  0.
<mgrwt>
<rscale>  0 0.57527860E+03</rscale>
<asrwt>0</asrwt>
<pdfrwt beam="1">  1        2 0.40215182E+00 0.57527860E+03</pdfrwt>
<pdfrwt beam="2">  1       -2 0.28555293E-01 0.57527860E+03</pdfrwt>
<totfact> 0.36100120E+01</totfact>
</mgrwt>
</event>
<event>
 4    1  0.4639964E-008  0.1499428E+04  0.7818608E-02  0.8884834E-01
          2   -1    0    0  501    0  0.00000000000E+00  0.00000000000E+00  0.26072382322E+04  0.26072382322E+04  0.25500000000E-02 0. -1.
         -2   -1    0    0    0  501 -0.00000000000E+00 -0.00000000000E+00 -0.10325954719E+04  0.10325954719E+04  0.25500000000E-02 0.  1.
    8880022    1    1    2    0    0  0.28125570055E+03 -0.14648505124E+04  0.15263439538E+04  0.21396283114E+04  0.15294330000E+03 0.  0.
    8880022    1    1    2    0    0 -0.28125570055E+03  0.14648505124E+04  0.48298806580E+02  0.15002053927E+04  0.15294330000E+03 0.  0.
<mgrwt>
<rscale>  0 0.14994277E+04</rscale>
<asrwt>0</asrwt>
<pdfrwt beam="1">  1        2 0.40111358E+00 0.14994277E+04</pdfrwt>
<pdfrwt beam="2">  1       -2 0.15886084E+00 0.14994277E+04</pdfrwt>
<totfact> 0.73077311E-01</totfact>
</mgrwt>
</event>
<event>
 4    1  0.4639964E-008  0.1248534E+04  0.7818608E-02  0.9071404E-01
         -2   -1    0    0    0  501 -0.00000000000E+00  0.00000000000E+00  0.10903621733E+04  0.10903621733E+04  0.25500000000E-02 0.  1.
          2   -1    0    0  501    0  0.00000000000E+00 -0.00000000000E+00 -0.15394561994E+04  0.15394561994E+04  0.25500000000E-02 0. -1.
    8880022    1    1    2    0    0  0.11954683583E+04 -0.32603780116E+03 -0.57572267085E+03  0.13748794458E+04  0.15294330000E+03 0.  0.
    8880022    1    1    2    0    0 -0.11954683583E+04  0.32603780116E+03  0.12662864479E+03  0.12549389269E+04  0.15294330000E+03 0.  0.
<mgrwt>
<rscale>  0 0.12485339E+04</rscale>
<asrwt>0</asrwt>
<pdfrwt beam="1">  1        2 0.23683942E+00 0.12485339E+04</pdfrwt>
<pdfrwt beam="2">  1       -2 0.16774802E+00 0.12485339E+04</pdfrwt>
<totfact> 0.25771715E+00</totfact>
</mgrwt>
</event>
<event>
 4    1  0.4639964E-008  0.9405691E+03  0.7818608E-02  0.9376242E-01
         -2   -1    0    0    0  501 -0.00000000000E+00  0.00000000000E+00  0.22997192775E+03  0.22997192776E+03  0.25500000000E-02 0.  1.
          2   -1    0    0  501    0  0.00000000000E+00 -0.00000000000E+00 -0.46995419139E+04  0.46995419139E+04  0.25500000000E-02 0. -1.
    8880022    1    1    2    0    0  0.49086099615E+03  0.78761294574E+03 -0.32846640896E+04  0.34166779925E+04  0.15294330000E+03 0.  0.
    8880022    1    1    2    0    0 -0.49086099615E+03 -0.78761294574E+03 -0.11849058966E+04  0.15128358492E+04  0.15294330000E+03 0.  0.
<mgrwt>
<rscale>  0 0.94056915E+03</rscale>
<asrwt>0</asrwt>
<pdfrwt beam="1">  1        2 0.72300637E+00 0.94056915E+03</pdfrwt>
<pdfrwt beam="2">  1       -2 0.35380300E-01 0.94056915E+03</pdfrwt>
<totfact> 0.63425634E-01</totfact>
</mgrwt>
</event>
<event>
 4    1  0.4639964E-008  0.8206073E+03  0.7818608E-02  0.9530659E-01
          2   -1    0    0  501    0  0.00000000000E+00  0.00000000000E+00  0.70746053677E+03  0.70746053678E+03  0.25500000000E-02 0. -1.
         -2   -1    0    0    0  501 -0.00000000000E+00 -0.00000000000E+00 -0.17526262377E+04  0.17526262378E+04  0.25500000000E-02 0.  1.
    8880022    1    1    2    0    0 -0.33375350202E+03  0.73390280218E+03 -0.13540236658E+04  0.15832802859E+04  0.15294330000E+03 0.  0.
    8880022    1    1    2    0    0  0.33375350202E+03 -0.73390280218E+03  0.30885796478E+03  0.87680648867E+03  0.15294330000E+03 0.  0.
<mgrwt>
<rscale>  0 0.82060732E+03</rscale>
<asrwt>0</asrwt>
<pdfrwt beam="1">  1        2 0.10884008E+00 0.82060732E+03</pdfrwt>
<pdfrwt beam="2">  1       -2 0.26963480E+00 0.82060732E+03</pdfrwt>
<totfact> 0.20175013E+00</totfact>
</mgrwt>
</event>
<event>
 4    1  0.4639964E-008  0.1837809E+03  0.7818608E-02  0.1164193E+00
          2   -1    0    0  501    0  0.00000000000E+00  0.00000000000E+00  0.39952335985E+03  0.39952335986E+03  0.25500000000E-02 0. -1.
         -2   -1    0    0    0  501 -0.00000000000E+00 -0.00000000000E+00 -0.29820499413E+03  0.29820499414E+03  0.25500000000E-02 0.  1.
    8880022    1    1    2    0    0  0.32130250229E+01 -0.10185006585E+03 -0.24464279210E+03  0.30598285603E+03  0.15294330000E+03 0.  0.
    8880022    1    1    2    0    0 -0.32130250229E+01  0.10185006585E+03  0.34596115783E+03  0.39174549797E+03  0.15294330000E+03 0. -1.
<mgrwt>
<rscale>  0 0.18378088E+03</rscale>
<asrwt>0</asrwt>
<pdfrwt beam="1">  1        2 0.61465132E-01 0.18378088E+03</pdfrwt>
<pdfrwt beam="2">  1       -2 0.45877691E-01 0.18378088E+03</pdfrwt>
<totfact> 0.36803970E+02</totfact>
</mgrwt>
</event>
<event>
 4    1  0.4639964E-008  0.8366940E+03  0.7818608E-02  0.9508372E-01
          2   -1    0    0  501    0  0.00000000000E+00  0.00000000000E+00  0.23745646927E+04  0.23745646927E+04  0.25500000000E-02 0. -1.
         -2   -1    0    0    0  501 -0.00000000000E+00 -0.00000000000E+00 -0.52627197147E+03  0.52627197147E+03  0.25500000000E-02 0.  1.
    8880022    1    1    2    0    0 -0.33067626932E+03  0.75320539592E+03 -0.37739365377E+02  0.83754467120E+03  0.15294330000E+03 0.  0.
    8880022    1    1    2    0    0  0.33067626932E+03 -0.75320539592E+03  0.18860320866E+04  0.20632919930E+04  0.15294330000E+03 0.  0.
<mgrwt>
<rscale>  0 0.83669398E+03</rscale>
<asrwt>0</asrwt>
<pdfrwt beam="1">  1        2 0.36531765E+00 0.83669398E+03</pdfrwt>
<pdfrwt beam="2">  1       -2 0.80964918E-01 0.83669398E+03</pdfrwt>
<totfact> 0.57040315E+00</totfact>
</mgrwt>
</event>
<event>
 4    1  0.4639964E-008  0.3570486E+03  0.7818608E-02  0.1059759E+00
         -2   -1    0    0    0  501 -0.00000000000E+00  0.00000000000E+00  0.20584424287E+03  0.20584424288E+03  0.25500000000E-02 0.  1.
          2   -1    0    0  501    0  0.00000000000E+00 -0.00000000000E+00 -0.94173262357E+03  0.94173262357E+03  0.25500000000E-02 0. -1.
    8880022    1    1    2    0    0 -0.23744498951E+03  0.21843066449E+03 -0.32211909204E+02  0.35849872851E+03  0.15294330000E+03 0.  0.
    8880022    1    1    2    0    0  0.23744498951E+03 -0.21843066449E+03 -0.70367647150E+03  0.78907813795E+03  0.15294330000E+03 0.  0.
<mgrwt>
<rscale>  0 0.35704864E+03</rscale>
<asrwt>0</asrwt>
<pdfrwt beam="1">  1        2 0.14488194E+00 0.35704864E+03</pdfrwt>
<pdfrwt beam="2">  1       -2 0.31668346E-01 0.35704864E+03</pdfrwt>
<totfact> 0.26406008E+02</totfact>
</mgrwt>
</event>
<event>
 4    1  0.4639964E-008  0.1830777E+03  0.7818608E-02  0.1164857E+00
          2   -1    0    0  501    0  0.00000000000E+00  0.00000000000E+00  0.16867862769E+04  0.16867862769E+04  0.25500000000E-02 0. -1.
         -2   -1    0    0    0  501 -0.00000000000E+00 -0.00000000000E+00 -0.30055056150E+02  0.30055056258E+02  0.25500000000E-02 0.  1.
    8880022    1    1    2    0    0  0.92314951416E+02  0.40046787235E+02  0.32866439819E+03  0.37621501176E+03  0.15294330000E+03 0.  0.
    8880022    1    1    2    0    0 -0.92314951416E+02 -0.40046787235E+02  0.13280668226E+04  0.13406263214E+04  0.15294330000E+03 0.  0.
<mgrwt>
<rscale>  0 0.18307771E+03</rscale>
<asrwt>0</asrwt>
<pdfrwt beam="1">  1        2 0.25950563E+00 0.18307771E+03</pdfrwt>
<pdfrwt beam="2">  1       -2 0.46238539E-02 0.18307771E+03</pdfrwt>
<totfact> 0.23986554E+03</totfact>
</mgrwt>
</event>
<event>
 4    1  0.4639964E-008  0.7706467E+03  0.7818608E-02  0.9603504E-01
         -2   -1    0    0    0  501 -0.00000000000E+00  0.00000000000E+00  0.27492279300E+03  0.27492279301E+03  0.25500000000E-02 0.  1.
          2   -1    0    0  501    0  0.00000000000E+00 -0.00000000000E+00 -0.34111123857E+04  0.34111123857E+04  0.25500000000E-02 0. -1.
    8880022    1    1    2    0    0 -0.14537582848E+03  0.74119532357E+03 -0.45202896162E+03  0.89343520993E+03  0.15294330000E+03 0.  0.
    8880022    1    1    2    0    0  0.14537582848E+03 -0.74119532357E+03 -0.26841606311E+04  0.27925999688E+04  0.15294330000E+03 0.  0.
<mgrwt>
<rscale>  0 0.77064667E+03</rscale>
<asrwt>0</asrwt>
<pdfrwt beam="1">  1        2 0.52478649E+00 0.77064667E+03</pdfrwt>
<pdfrwt beam="2">  1       -2 0.42295817E-01 0.77064667E+03</pdfrwt>
<totfact> 0.53399725E+00</totfact>
</mgrwt>
</event>
<event>
 4    1  0.4639964E-008  0.1595811E+03  0.7818608E-02  0.1189170E+00
          2   -1    0    0  501    0  0.00000000000E+00  0.00000000000E+00  0.11563508291E+04  0.11563508291E+04  0.25500000000E-02 0. -1.
         -2   -1    0    0    0  501 -0.00000000000E+00 -0.00000000000E+00 -0.24674319904E+03  0.24674319905E+03  0.25500000000E-02 0.  1.
    8880022    1    1    2    0    0  0.22852683353E+01 -0.45489193133E+02  0.11243112191E+04  0.11355799662E+04  0.15294330000E+03 0.  0.
    8880022    1    1    2    0    0 -0.22852683353E+01  0.45489193133E+02 -0.21470358910E+03  0.26751406193E+03  0.15294330000E+03 0.  1.
<mgrwt>
<rscale>  0 0.15958115E+03</rscale>
<asrwt>0</asrwt>
<pdfrwt beam="1">  1        2 0.17790013E+00 0.15958115E+03</pdfrwt>
<pdfrwt beam="2">  1       -2 0.37960492E-01 0.15958115E+03</pdfrwt>
<totfact> 0.14497097E+02</totfact>
</mgrwt>
</event>
<event>
 4    1  0.4639964E-008  0.6188096E+03  0.7818608E-02  0.9867133E-01
         -2   -1    0    0    0  501 -0.00000000000E+00  0.00000000000E+00  0.32298549415E+03  0.32298549416E+03  0.25500000000E-02 0.  1.
          2   -1    0    0  501    0  0.00000000000E+00 -0.00000000000E+00 -0.14490077439E+04  0.14490077439E+04  0.25500000000E-02 0. -1.
    8880022    1    1    2    0    0  0.56414360755E+03  0.20316404499E+03 -0.18524145653E+03  0.64594093333E+03  0.15294330000E+03 0.  0.
    8880022    1    1    2    0    0 -0.56414360755E+03 -0.20316404499E+03 -0.94078079325E+03  0.11260523048E+04  0.15294330000E+03 0.  0.
<mgrwt>
<rscale>  0 0.61880958E+03</rscale>
<asrwt>0</asrwt>
<pdfrwt beam="1">  1        2 0.22292426E+00 0.61880958E+03</pdfrwt>
<pdfrwt beam="2">  1       -2 0.49690077E-01 0.61880958E+03</pdfrwt>
<totfact> 0.53863831E+01</totfact>
</mgrwt>
</event>
<event>
 4    1  0.4639964E-008  0.9064179E+03  0.7818608E-02  0.9417594E-01
          2   -1    0    0  501    0  0.00000000000E+00  0.00000000000E+00  0.14804940979E+04  0.14804940979E+04  0.25500000000E-02 0. -1.
         -2   -1    0    0    0  501 -0.00000000000E+00 -0.00000000000E+00 -0.71353986776E+03  0.71353986776E+03  0.25500000000E-02 0.  1.
    8880022    1    1    2    0    0 -0.48262538416E+03  0.75184738079E+03 -0.13371064430E+03  0.91622701055E+03  0.15294330000E+03 0.  0.
    8880022    1    1    2    0    0  0.48262538416E+03 -0.75184738079E+03  0.90066487440E+03  0.12778069551E+04  0.15294330000E+03 0.  0.
<mgrwt>
<rscale>  0 0.90641789E+03</rscale>
<asrwt>0</asrwt>
<pdfrwt beam="1">  1        2 0.22776832E+00 0.90641789E+03</pdfrwt>
<pdfrwt beam="2">  1       -2 0.10977536E+00 0.90641789E+03</pdfrwt>
<totfact> 0.86374226E+00</totfact>
</mgrwt>
</event>
<event>
 4    1  0.4639964E-008  0.4482111E+03  0.7818608E-02  0.1028257E+00
          2   -1    0    0  501    0  0.00000000000E+00  0.00000000000E+00  0.14367114331E+04  0.14367114331E+04  0.25500000000E-02 0. -1.
         -2   -1    0    0    0  501 -0.00000000000E+00 -0.00000000000E+00 -0.22679575277E+03  0.22679575278E+03  0.25500000000E-02 0.  1.
    8880022    1    1    2    0    0 -0.15172533902E+03  0.39304062469E+03  0.89900983683E+02  0.45713821874E+03  0.15294330000E+03 0.  0.
    8880022    1    1    2    0    0  0.15172533902E+03 -0.39304062469E+03  0.11200146967E+04  0.12063689672E+04  0.15294330000E+03 0. -1.
<mgrwt>
<rscale>  0 0.44821107E+03</rscale>
<asrwt>0</asrwt>
<pdfrwt beam="1">  1        2 0.22103253E+00 0.44821107E+03</pdfrwt>
<pdfrwt beam="2">  1       -2 0.34891654E-01 0.44821107E+03</pdfrwt>
<totfact> 0.11173909E+02</totfact>
</mgrwt>
</event>
<event>
 4    1  0.4639964E-008  0.3503072E+03  0.7818608E-02  0.1062489E+00
         -2   -1    0    0    0  501 -0.00000000000E+00  0.00000000000E+00  0.19367909122E+03  0.19367909124E+03  0.25500000000E-02 0.  1.
          2   -1    0    0  501    0  0.00000000000E+00 -0.00000000000E+00 -0.13955761126E+04  0.13955761126E+04  0.25500000000E-02 0. -1.
    8880022    1    1    2    0    0  0.19688508138E+03 -0.24608893440E+03 -0.11881098385E+04  0.12386767699E+04  0.15294330000E+03 0.  0.
    8880022    1    1    2    0    0 -0.19688508138E+03  0.24608893440E+03 -0.13787182848E+02  0.35057843392E+03  0.15294330000E+03 0.  1.
<mgrwt>
<rscale>  0 0.35030723E+03</rscale>
<asrwt>0</asrwt>
<pdfrwt beam="1">  1        2 0.21470401E+00 0.35030723E+03</pdfrwt>
<pdfrwt beam="2">  1       -2 0.29796784E-01 0.35030723E+03</pdfrwt>
<totfact> 0.16024706E+02</totfact>
</mgrwt>
</event>
<event>
 4    1  0.4639964E-008  0.3894450E+03  0.7818608E-02  0.1047497E+00
          2   -1    0    0  501    0  0.00000000000E+00  0.00000000000E+00  0.18028873484E+04  0.18028873484E+04  0.25500000000E-02 0. -1.
         -2   -1    0    0    0  501 -0.00000000000E+00 -0.00000000000E+00 -0.12286309013E+03  0.12286309016E+03  0.25500000000E-02 0.  1.
    8880022    1    1    2    0    0 -0.28835714779E+03 -0.21242868717E+03  0.13806790571E+04  0.14345529281E+04  0.15294330000E+03 0.  0.
    8880022    1    1    2    0    0  0.28835714779E+03  0.21242868717E+03  0.29934520120E+03  0.49119751049E+03  0.15294330000E+03 0.  0.
<mgrwt>
<rscale>  0 0.38944505E+03</rscale>
<asrwt>0</asrwt>
<pdfrwt beam="1">  1        2 0.27736727E+00 0.38944505E+03</pdfrwt>
<pdfrwt beam="2">  1       -2 0.18902015E-01 0.38944505E+03</pdfrwt>
<totfact> 0.21505670E+02</totfact>
</mgrwt>
</event>
<event>
 4    1  0.5718391E-008  0.4659837E+03  0.7818608E-02  0.1023060E+00
          2   -1    0    0  501    0  0.00000000000E+00  0.00000000000E+00  0.21264977702E+04  0.21264977702E+04  0.25500000000E-02 0. -1.
         -2   -1    0    0    0  501 -0.00000000000E+00 -0.00000000000E+00 -0.88345568922E+03  0.88345568923E+03  0.25500000000E-02 0.  1.
    8880022    1    1    2    0    0  0.12156541143E+03 -0.42304969273E+03 -0.79381141513E+03  0.92047672843E+03  0.15294330000E+03 0.  1.
    8880022    1    1    2    0    0 -0.12156541143E+03  0.42304969273E+03  0.20368534961E+04  0.20894767310E+04  0.15294330000E+03 0.  0.
<mgrwt>
<rscale>  0 0.46598374E+03</rscale>
<asrwt>0</asrwt>
<pdfrwt beam="1">  1        2 0.32715350E+00 0.46598374E+03</pdfrwt>
<pdfrwt beam="2">  1       -2 0.13591626E+00 0.46598374E+03</pdfrwt>
<totfact> 0.24500272E+00</totfact>
</mgrwt>
</event>
<event>
 4    1  0.4639964E-008  0.1613263E+03  0.7818608E-02  0.1187207E+00
          2   -1    0    0  501    0  0.00000000000E+00  0.00000000000E+00  0.16682727677E+04  0.16682727677E+04  0.25500000000E-02 0. -1.
         -2   -1    0    0    0  501 -0.00000000000E+00 -0.00000000000E+00 -0.35418134665E+03  0.35418134666E+03  0.25500000000E-02 0.  1.
    8880022    1    1    2    0    0 -0.51162577358E+02 -0.41140838909E+01  0.16457511363E+04  0.16536393170E+04  0.15294330000E+03 0. -1.
    8880022    1    1    2    0    0  0.51162577358E+02  0.41140838909E+01 -0.33165971527E+03  0.36881479736E+03  0.15294330000E+03 0.  0.
<mgrwt>
<rscale>  0 0.16132634E+03</rscale>
<asrwt>0</asrwt>
<pdfrwt beam="1">  1        2 0.25665735E+00 0.16132634E+03</pdfrwt>
<pdfrwt beam="2">  1       -2 0.54489437E-01 0.16132634E+03</pdfrwt>
<totfact> 0.38155288E+01</totfact>
</mgrwt>
</event>
<event>
 4    1  0.4639964E-008  0.6372353E+03  0.7818608E-02  0.9831030E-01
          2   -1    0    0  501    0  0.00000000000E+00  0.00000000000E+00  0.15471492343E+04  0.15471492343E+04  0.25500000000E-02 0. -1.
         -2   -1    0    0    0  501 -0.00000000000E+00 -0.00000000000E+00 -0.75013133828E+03  0.75013133828E+03  0.25500000000E-02 0.  1.
    8880022    1    1    2    0    0 -0.39517288267E+03  0.47593658185E+03  0.13246514708E+04  0.14699559209E+04  0.15294330000E+03 0.  0.
    8880022    1    1    2    0    0  0.39517288267E+03 -0.47593658185E+03 -0.52763357477E+03  0.82732465174E+03  0.15294330000E+03 0.  0.
<mgrwt>
<rscale>  0 0.63723535E+03</rscale>
<asrwt>0</asrwt>
<pdfrwt beam="1">  1        2 0.23802296E+00 0.63723535E+03</pdfrwt>
<pdfrwt beam="2">  1       -2 0.11540482E+00 0.63723535E+03</pdfrwt>
<totfact> 0.72888741E+00</totfact>
</mgrwt>
</event>
<event>
 4    1  0.4639964E-008  0.2158354E+03  0.7818608E-02  0.1137027E+00
          2   -1    0    0  501    0  0.00000000000E+00  0.00000000000E+00  0.31641382800E+03  0.31641382801E+03  0.25500000000E-02 0. -1.
         -2   -1    0    0    0  501 -0.00000000000E+00 -0.00000000000E+00 -0.56380312317E+03  0.56380312317E+03  0.25500000000E-02 0.  1.
    8880022    1    1    2    0    0  0.12530421169E+03 -0.86557162306E+02 -0.50200020019E+03  0.54643310827E+03  0.15294330000E+03 0.  0.
    8880022    1    1    2    0    0 -0.12530421169E+03  0.86557162306E+02  0.25461090502E+03  0.33378384291E+03  0.15294330000E+03 0. -1.
<mgrwt>
<rscale>  0 0.21583545E+03</rscale>
<asrwt>0</asrwt>
<pdfrwt beam="1">  1        2 0.48679050E-01 0.21583545E+03</pdfrwt>
<pdfrwt beam="2">  1       -2 0.86738942E-01 0.21583545E+03</pdfrwt>
<totfact> 0.12438589E+02</totfact>
</mgrwt>
</event>
<event>
 4    1  0.4639964E-008  0.5407302E+03  0.7818608E-02  0.1003663E+00
          2   -1    0    0  501    0  0.00000000000E+00  0.00000000000E+00  0.25901285306E+04  0.25901285306E+04  0.25500000000E-02 0. -1.
         -2   -1    0    0    0  501 -0.00000000000E+00 -0.00000000000E+00 -0.23372465689E+03  0.23372465691E+03  0.25500000000E-02 0.  1.
    8880022    1    1    2    0    0 -0.40054183955E+03 -0.32949017450E+03  0.16297569171E+03  0.56475682327E+03  0.15294330000E+03 0.  0.
    8880022    1    1    2    0    0  0.40054183955E+03  0.32949017450E+03  0.21934281820E+04  0.22590963642E+04  0.15294330000E+03 0.  0.
<mgrwt>
<rscale>  0 0.54073024E+03</rscale>
<asrwt>0</asrwt>
<pdfrwt beam="1">  1        2 0.39848132E+00 0.54073024E+03</pdfrwt>
<pdfrwt beam="2">  1       -2 0.35957639E-01 0.54073024E+03</pdfrwt>
<totfact> 0.24387092E+01</totfact>
</mgrwt>
</event>
<event>
 4    1  0.4639964E-008  0.2840165E+03  0.7818608E-02  0.1093515E+00
          2   -1    0    0  501    0  0.00000000000E+00  0.00000000000E+00  0.72332944767E+03  0.72332944767E+03  0.25500000000E-02 0. -1.
         -2   -1    0    0    0  501 -0.00000000000E+00 -0.00000000000E+00 -0.11172833577E+03  0.11172833580E+03  0.25500000000E-02 0.  1.
    8880022    1    1    2    0    0  0.17878971839E+03  0.15908473409E+03  0.32384997372E+03  0.43074838887E+03  0.15294330000E+03 0.  0.
    8880022    1    1    2    0    0 -0.17878971839E+03 -0.15908473409E+03  0.28775113818E+03  0.40430939460E+03  0.15294330000E+03 0.  0.
<mgrwt>
<rscale>  0 0.28401649E+03</rscale>
<asrwt>0</asrwt>
<pdfrwt beam="1">  1        2 0.11128145E+00 0.28401649E+03</pdfrwt>
<pdfrwt beam="2">  1       -2 0.17188975E-01 0.28401649E+03</pdfrwt>
<totfact> 0.10985445E+03</totfact>
</mgrwt>
</event>
<event>
 4    1  0.4639964E-008  0.5949677E+03  0.7818608E-02  0.9915902E-01
         -2   -1    0    0    0  501 -0.00000000000E+00  0.00000000000E+00  0.10818043631E+04  0.10818043631E+04  0.25500000000E-02 0.  1.
          2   -1    0    0  501    0  0.00000000000E+00 -0.00000000000E+00 -0.58478322461E+03  0.58478322461E+03  0.25500000000E-02 0. -1.
    8880022    1    1    2    0    0  0.22593092399E+03  0.52872504750E+03  0.80153424188E+03  0.99822029241E+03  0.15294330000E+03 0.  0.
    8880022    1    1    2    0    0 -0.22593092399E+03 -0.52872504750E+03 -0.30451310339E+03  0.66836729530E+03  0.15294330000E+03 0.  0.
<mgrwt>
<rscale>  0 0.59496774E+03</rscale>
<asrwt>0</asrwt>
<pdfrwt beam="1">  1        2 0.89966650E-01 0.59496774E+03</pdfrwt>
<pdfrwt beam="2">  1       -2 0.16643144E+00 0.59496774E+03</pdfrwt>
<totfact> 0.11958949E+01</totfact>
</mgrwt>
</event>
<event>
 4    1  0.4639964E-008  0.2864149E+03  0.7818608E-02  0.1092236E+00
          2   -1    0    0  501    0  0.00000000000E+00  0.00000000000E+00  0.88934354201E+03  0.88934354201E+03  0.25500000000E-02 0. -1.
         -2   -1    0    0    0  501 -0.00000000000E+00 -0.00000000000E+00 -0.22372111620E+03  0.22372111621E+03  0.25500000000E-02 0.  1.
    8880022    1    1    2    0    0  0.89575654658E+02 -0.22498458652E+03 -0.93834841143E+02  0.30139424763E+03  0.15294330000E+03 0. -1.
    8880022    1    1    2    0    0 -0.89575654658E+02  0.22498458652E+03  0.75945726695E+03  0.81167041059E+03  0.15294330000E+03 0. -1.
<mgrwt>
<rscale>  0 0.28641494E+03</rscale>
<asrwt>0</asrwt>
<pdfrwt beam="1">  1        2 0.13682208E+00 0.28641494E+03</pdfrwt>
<pdfrwt beam="2">  1       -2 0.34418634E-01 0.28641494E+03</pdfrwt>
<totfact> 0.24646727E+02</totfact>
</mgrwt>
</event>
<event>
 4    1  0.4639964E-008  0.5352112E+03  0.7818608E-02  0.1004976E+00
          2   -1    0    0  501    0  0.00000000000E+00  0.00000000000E+00  0.24984553994E+04  0.24984553994E+04  0.25500000000E-02 0. -1.
         -2   -1    0    0    0  501 -0.00000000000E+00 -0.00000000000E+00 -0.14366702656E+03  0.14366702658E+03  0.25500000000E-02 0.  1.
    8880022    1    1    2    0    0 -0.27396319481E+03 -0.43359380800E+03  0.17710864187E+04  0.18501886871E+04  0.15294330000E+03 0.  0.
    8880022    1    1    2    0    0  0.27396319481E+03  0.43359380800E+03  0.58370195414E+03  0.79193373885E+03  0.15294330000E+03 0.  0.
<mgrwt>
<rscale>  0 0.53521124E+03</rscale>
<asrwt>0</asrwt>
<pdfrwt beam="1">  1        2 0.38437772E+00 0.53521124E+03</pdfrwt>
<pdfrwt beam="2">  1       -2 0.22102621E-01 0.53521124E+03</pdfrwt>
<totfact> 0.66986931E+01</totfact>
</mgrwt>
</event>
<event>
 4    1  0.4639964E-008  0.2683086E+03  0.7818608E-02  0.1102252E+00
          2   -1    0    0  501    0  0.00000000000E+00  0.00000000000E+00  0.23410470751E+04  0.23410470751E+04  0.25500000000E-02 0. -1.
         -2   -1    0    0    0  501 -0.00000000000E+00 -0.00000000000E+00 -0.17146773433E+03  0.17146773435E+03  0.25500000000E-02 0.  1.
    8880022    1    1    2    0    0 -0.16755079984E+03 -0.14326404198E+03  0.22228369976E+04  0.22389716003E+04  0.15294330000E+03 0.  0.
    8880022    1    1    2    0    0  0.16755079984E+03  0.14326404198E+03 -0.53257656777E+02  0.27354320915E+03  0.15294330000E+03 0.  1.
<mgrwt>
<rscale>  0 0.26830861E+03</rscale>
<asrwt>0</asrwt>
<pdfrwt beam="1">  1        2 0.36016106E+00 0.26830861E+03</pdfrwt>
<pdfrwt beam="2">  1       -2 0.26379653E-01 0.26830861E+03</pdfrwt>
<totfact> 0.63859617E+01</totfact>
</mgrwt>
</event>
<event>
 4    1  0.4639964E-008  0.3887880E+03  0.7818608E-02  0.1047733E+00
          2   -1    0    0  501    0  0.00000000000E+00  0.00000000000E+00  0.97541303087E+03  0.97541303087E+03  0.25500000000E-02 0. -1.
         -2   -1    0    0    0  501 -0.00000000000E+00 -0.00000000000E+00 -0.19290517038E+03  0.19290517040E+03  0.25500000000E-02 0.  1.
    8880022    1    1    2    0    0  0.99421303332E+02 -0.34333640381E+03  0.65031460404E+03  0.75767091734E+03  0.15294330000E+03 0.  0.
    8880022    1    1    2    0    0 -0.99421303332E+02  0.34333640381E+03  0.13219325644E+03  0.41064728393E+03  0.15294330000E+03 0.  0.
<mgrwt>
<rscale>  0 0.38878803E+03</rscale>
<asrwt>0</asrwt>
<pdfrwt beam="1">  1        2 0.15006355E+00 0.38878803E+03</pdfrwt>
<pdfrwt beam="2">  1       -2 0.29677718E-01 0.38878803E+03</pdfrwt>
<totfact> 0.28240228E+02</totfact>
</mgrwt>
</event>
<event>
 4    1  0.4639964E-008  0.7626952E+03  0.7818608E-02  0.9615641E-01
          2   -1    0    0  501    0  0.00000000000E+00  0.00000000000E+00  0.32544493291E+04  0.32544493291E+04  0.25500000000E-02 0. -1.
         -2   -1    0    0    0  501 -0.00000000000E+00 -0.00000000000E+00 -0.28548241839E+03  0.28548241841E+03  0.25500000000E-02 0.  1.
    8880022    1    1    2    0    0 -0.12176286481E+03 -0.73721514215E+03  0.40219907682E+03  0.86224596924E+03  0.15294330000E+03 0.  0.
    8880022    1    1    2    0    0  0.12176286481E+03  0.73721514215E+03  0.25667678339E+04  0.26776857783E+04  0.15294330000E+03 0.  0.
<mgrwt>
<rscale>  0 0.76269523E+03</rscale>
<asrwt>0</asrwt>
<pdfrwt beam="1">  1        2 0.50068454E+00 0.76269523E+03</pdfrwt>
<pdfrwt beam="2">  1       -2 0.43920370E-01 0.76269523E+03</pdfrwt>
<totfact> 0.62890301E+00</totfact>
</mgrwt>
</event>
<event>
 4    1  0.4639964E-008  0.2668283E+03  0.7818608E-02  0.1103109E+00
         -2   -1    0    0    0  501 -0.00000000000E+00  0.00000000000E+00  0.85487615054E+03  0.85487615054E+03  0.25500000000E-02 0.  1.
          2   -1    0    0  501    0  0.00000000000E+00 -0.00000000000E+00 -0.30086087334E+03  0.30086087335E+03  0.25500000000E-02 0. -1.
    8880022    1    1    2    0    0  0.28057490395E+02 -0.21683739189E+03  0.76842754465E+03  0.81343605875E+03  0.15294330000E+03 0.  0.
    8880022    1    1    2    0    0 -0.28057490395E+02  0.21683739189E+03 -0.21441226745E+03  0.34230096514E+03  0.15294330000E+03 0.  0.
<mgrwt>
<rscale>  0 0.26682828E+03</rscale>
<asrwt>0</asrwt>
<pdfrwt beam="1">  1        2 0.46286288E-01 0.26682828E+03</pdfrwt>
<pdfrwt beam="2">  1       -2 0.13151941E+00 0.26682828E+03</pdfrwt>
<totfact> 0.48773272E+01</totfact>
</mgrwt>
</event>
<event>
 4    1  0.4639964E-008  0.1640658E+03  0.7818608E-02  0.1184182E+00
          2   -1    0    0  501    0  0.00000000000E+00  0.00000000000E+00  0.24557019501E+04  0.24557019501E+04  0.25500000000E-02 0. -1.
         -2   -1    0    0    0  501 -0.00000000000E+00 -0.00000000000E+00 -0.26939523895E+02  0.26939524016E+02  0.25500000000E-02 0.  1.
    8880022    1    1    2    0    0  0.29512692446E+02 -0.51525967840E+02  0.25838999240E+03  0.30607673150E+03  0.15294330000E+03 0.  1.
    8880022    1    1    2    0    0 -0.29512692446E+02  0.51525967840E+02  0.21703724338E+04  0.21765647426E+04  0.15294330000E+03 0.  0.
<mgrwt>
<rscale>  0 0.16406577E+03</rscale>
<asrwt>0</asrwt>
<pdfrwt beam="1">  1        2 0.37780014E+00 0.16406577E+03</pdfrwt>
<pdfrwt beam="2">  1       -2 0.41445439E-02 0.16406577E+03</pdfrwt>
<totfact> 0.11249904E+03</totfact>
</mgrwt>
</event>
<event>
 4    1  0.4639964E-008  0.6103207E+03  0.7818608E-02  0.9884222E-01
         -2   -1    0    0    0  501 -0.00000000000E+00  0.00000000000E+00  0.17910810042E+04  0.17910810042E+04  0.25500000000E-02 0.  1.
          2   -1    0    0  501    0  0.00000000000E+00 -0.00000000000E+00 -0.49517185403E+03  0.49517185403E+03  0.25500000000E-02 0. -1.
    8880022    1    1    2    0    0 -0.53535916780E+03 -0.24998060489E+03 -0.22262764336E+03  0.64965718804E+03  0.15294330000E+03 0.  0.
    8880022    1    1    2    0    0  0.53535916780E+03  0.24998060489E+03  0.15185367935E+04  0.16365956702E+04  0.15294330000E+03 0.  0.
<mgrwt>
<rscale>  0 0.61032073E+03</rscale>
<asrwt>0</asrwt>
<pdfrwt beam="1">  1        2 0.76180287E-01 0.61032073E+03</pdfrwt>
<pdfrwt beam="2">  1       -2 0.27555092E+00 0.61032073E+03</pdfrwt>
<totfact> 0.29561600E+00</totfact>
</mgrwt>
</event>
<event>
 4    1  0.4639964E-008  0.7240509E+03  0.7818608E-02  0.9676964E-01
         -2   -1    0    0    0  501 -0.00000000000E+00  0.00000000000E+00  0.83366432846E+03  0.83366432847E+03  0.25500000000E-02 0.  1.
          2   -1    0    0  501    0  0.00000000000E+00 -0.00000000000E+00 -0.98794231022E+03  0.98794231022E+03  0.25500000000E-02 0. -1.
    8880022    1    1    2    0    0  0.10719047169E+02 -0.70763208127E+03 -0.62625225798E+03  0.95730956543E+03  0.15294330000E+03 0.  0.
    8880022    1    1    2    0    0 -0.10719047169E+02  0.70763208127E+03  0.47197427622E+03  0.86429707326E+03  0.15294330000E+03 0.  0.
<mgrwt>
<rscale>  0 0.72405091E+03</rscale>
<asrwt>0</asrwt>
<pdfrwt beam="1">  1        2 0.15199113E+00 0.72405091E+03</pdfrwt>
<pdfrwt beam="2">  1       -2 0.12825605E+00 0.72405091E+03</pdfrwt>
<totfact> 0.11757079E+01</totfact>
</mgrwt>
</event>
<event>
 4    1  0.4639964E-008  0.6199138E+03  0.7818608E-02  0.9864931E-01
          2   -1    0    0  501    0  0.00000000000E+00  0.00000000000E+00  0.27305588249E+04  0.27305588249E+04  0.25500000000E-02 0. -1.
         -2   -1    0    0    0  501 -0.00000000000E+00 -0.00000000000E+00 -0.18262243104E+03  0.18262243105E+03  0.25500000000E-02 0.  1.
    8880022    1    1    2    0    0 -0.22290467076E+03  0.55786647222E+03  0.57639911911E+03  0.84648041359E+03  0.15294330000E+03 0.  0.
    8880022    1    1    2    0    0  0.22290467076E+03 -0.55786647222E+03  0.19715372748E+04  0.20667008424E+04  0.15294330000E+03 0.  0.
<mgrwt>
<rscale>  0 0.61991382E+03</rscale>
<asrwt>0</asrwt>
<pdfrwt beam="1">  1        2 0.42008599E+00 0.61991382E+03</pdfrwt>
<pdfrwt beam="2">  1       -2 0.28095758E-01 0.61991382E+03</pdfrwt>
<totfact> 0.31600538E+01</totfact>
</mgrwt>
</event>
<event>
 4    1  0.4639964E-008  0.5256474E+03  0.7818608E-02  0.1007293E+00
         -2   -1    0    0    0  501 -0.00000000000E+00  0.00000000000E+00  0.10060002765E+03  0.10060002768E+03  0.25500000000E-02 0.  1.
          2   -1    0    0  501    0  0.00000000000E+00 -0.00000000000E+00 -0.33692986078E+04  0.33692986078E+04  0.25500000000E-02 0. -1.
    8880022    1    1    2    0    0  0.40660788671E+03 -0.29594526862E+03 -0.88847485832E+03  0.10323239813E+04  0.15294330000E+03 0.  0.
    8880022    1    1    2    0    0 -0.40660788671E+03  0.29594526862E+03 -0.23802237218E+04  0.24375746542E+04  0.15294330000E+03 0. -1.
<mgrwt>
<rscale>  0 0.52564744E+03</rscale>
<asrwt>0</asrwt>
<pdfrwt beam="1">  1        2 0.51835355E+00 0.52564744E+03</pdfrwt>
<pdfrwt beam="2">  1       -2 0.15476930E-01 0.52564744E+03</pdfrwt>
<totfact> 0.37134847E+01</totfact>
</mgrwt>
</event>
<event>
 4    1  0.4639964E-008  0.5425430E+03  0.7818608E-02  0.1003235E+00
         -2   -1    0    0    0  501 -0.00000000000E+00  0.00000000000E+00  0.29682330875E+04  0.29682330875E+04  0.25500000000E-02 0.  1.
          2   -1    0    0  501    0  0.00000000000E+00 -0.00000000000E+00 -0.72202910378E+03  0.72202910378E+03  0.25500000000E-02 0. -1.
    8880022    1    1    2    0    0  0.49621159900E+03  0.15727458605E+03  0.28368445437E+04  0.28882589677E+04  0.15294330000E+03 0.  1.
    8880022    1    1    2    0    0 -0.49621159900E+03 -0.15727458605E+03 -0.59064056002E+03  0.80200322353E+03  0.15294330000E+03 0.  0.
<mgrwt>
<rscale>  0 0.54254299E+03</rscale>
<asrwt>0</asrwt>
<pdfrwt beam="1">  1        2 0.11108140E+00 0.54254299E+03</pdfrwt>
<pdfrwt beam="2">  1       -2 0.45665125E+00 0.54254299E+03</pdfrwt>
<totfact> 0.13950228E-01</totfact>
</mgrwt>
</event>
<event>
 4    1  0.4639964E-008  0.9469217E+03  0.7818608E-02  0.9368756E-01
          2   -1    0    0  501    0  0.00000000000E+00  0.00000000000E+00  0.35307032653E+04  0.35307032653E+04  0.25500000000E-02 0. -1.
         -2   -1    0    0    0  501 -0.00000000000E+00 -0.00000000000E+00 -0.37504986578E+03  0.37504986579E+03  0.25500000000E-02 0.  1.
    8880022    1    1    2    0    0  0.72807479887E+02  0.93164806501E+03  0.26874677395E+04  0.28494110883E+04  0.15294330000E+03 0.  0.
    8880022    1    1    2    0    0 -0.72807479887E+02 -0.93164806501E+03  0.46818566003E+03  0.10563420428E+04  0.15294330000E+03 0.  0.
<mgrwt>
<rscale>  0 0.94692170E+03</rscale>
<asrwt>0</asrwt>
<pdfrwt beam="1">  1        2 0.54318514E+00 0.94692170E+03</pdfrwt>
<pdfrwt beam="2">  1       -2 0.57699977E-01 0.94692170E+03</pdfrwt>
<totfact> 0.22781969E+00</totfact>
</mgrwt>
</event>
<event>
 4    1  0.4639964E-008  0.6286362E+03  0.7818608E-02  0.9847714E-01
          2   -1    0    0  501    0  0.00000000000E+00  0.00000000000E+00  0.10256220759E+04  0.10256220759E+04  0.25500000000E-02 0. -1.
         -2   -1    0    0    0  501 -0.00000000000E+00 -0.00000000000E+00 -0.95889590095E+03  0.95889590095E+03  0.25500000000E-02 0.  1.
    8880022    1    1    2    0    0  0.45801059739E+03  0.40251467159E+03  0.80079204590E+03  0.10180625334E+04  0.15294330000E+03 0.  0.
    8880022    1    1    2    0    0 -0.45801059739E+03 -0.40251467159E+03 -0.73406587097E+03  0.96645544341E+03  0.15294330000E+03 0.  0.
<mgrwt>
<rscale>  0 0.62863616E+03</rscale>
<asrwt>0</asrwt>
<pdfrwt beam="1">  1        2 0.15778801E+00 0.62863616E+03</pdfrwt>
<pdfrwt beam="2">  1       -2 0.14752245E+00 0.62863616E+03</pdfrwt>
<totfact> 0.78671579E+00</totfact>
</mgrwt>
</event>
<event>
 4    1  0.4639964E-008  0.5938000E+03  0.7818608E-02  0.9918353E-01
         -2   -1    0    0    0  501 -0.00000000000E+00  0.00000000000E+00  0.13105650704E+03  0.13105650707E+03  0.25500000000E-02 0.  1.
          2   -1    0    0  501    0  0.00000000000E+00 -0.00000000000E+00 -0.32791697080E+04  0.32791697080E+04  0.25500000000E-02 0. -1.
    8880022    1    1    2    0    0 -0.19428732617E+03 -0.53986962842E+03 -0.22965480267E+04  0.23720732014E+04  0.15294330000E+03 0.  0.
    8880022    1    1    2    0    0  0.19428732617E+03  0.53986962842E+03 -0.85156517425E+03  0.10381530137E+04  0.15294330000E+03 0.  0.
<mgrwt>
<rscale>  0 0.59379999E+03</rscale>
<asrwt>0</asrwt>
<pdfrwt beam="1">  1        2 0.50448758E+00 0.59379999E+03</pdfrwt>
<pdfrwt beam="2">  1       -2 0.20162542E-01 0.59379999E+03</pdfrwt>
<totfact> 0.26589269E+01</totfact>
</mgrwt>
</event>
<event>
 4    1  0.4639964E-008  0.7846220E+03  0.7818608E-02  0.9582547E-01
         -2   -1    0    0    0  501 -0.00000000000E+00  0.00000000000E+00  0.69637192510E+03  0.69637192510E+03  0.25500000000E-02 0.  1.
          2   -1    0    0  501    0  0.00000000000E+00 -0.00000000000E+00 -0.12943477149E+04  0.12943477149E+04  0.25500000000E-02 0. -1.
    8880022    1    1    2    0    0 -0.25150103374E+03 -0.72731509625E+03 -0.85939170493E+03  0.11636948804E+04  0.15294330000E+03 0.  0.
    8880022    1    1    2    0    0  0.25150103374E+03  0.72731509625E+03  0.26141591515E+03  0.82702475955E+03  0.15294330000E+03 0.  0.
<mgrwt>
<rscale>  0 0.78462199E+03</rscale>
<asrwt>0</asrwt>
<pdfrwt beam="1">  1        2 0.19913042E+00 0.78462199E+03</pdfrwt>
<pdfrwt beam="2">  1       -2 0.10713414E+00 0.78462199E+03</pdfrwt>
<totfact> 0.11860699E+01</totfact>
</mgrwt>
</event>
<event>
 4    1  0.4639964E-008  0.1119805E+04  0.7818608E-02  0.9186101E-01
         -2   -1    0    0    0  501 -0.00000000000E+00  0.00000000000E+00  0.86518375215E+03  0.86518375216E+03  0.25500000000E-02 0.  1.
          2   -1    0    0  501    0  0.00000000000E+00 -0.00000000000E+00 -0.24691179938E+04  0.24691179938E+04  0.25500000000E-02 0. -1.
    8880022    1    1    2    0    0 -0.38074674981E+03  0.10419226426E+04 -0.18733694539E+04  0.21825388071E+04  0.15294330000E+03 0.  0.
    8880022    1    1    2    0    0  0.38074674981E+03 -0.10419226426E+04  0.26943521226E+03  0.11517629388E+04  0.15294330000E+03 0.  0.
<mgrwt>
<rscale>  0 0.11198047E+04</rscale>
<asrwt>0</asrwt>
<pdfrwt beam="1">  1        2 0.37986430E+00 0.11198047E+04</pdfrwt>
<pdfrwt beam="2">  1       -2 0.13310519E+00 0.11198047E+04</pdfrwt>
<totfact> 0.14673837E+00</totfact>
</mgrwt>
</event>
<event>
 4    1  0.4639964E-008  0.3057756E+03  0.7818608E-02  0.1082389E+00
          2   -1    0    0  501    0  0.00000000000E+00  0.00000000000E+00  0.17633526980E+04  0.17633526980E+04  0.25500000000E-02 0. -1.
         -2   -1    0    0    0  501 -0.00000000000E+00 -0.00000000000E+00 -0.34996864556E+03  0.34996864557E+03  0.25500000000E-02 0.  1.
    8880022    1    1    2    0    0 -0.23776279473E+03 -0.11651565319E+03 -0.26663609349E+03  0.40570124890E+03  0.15294330000E+03 0.  0.
    8880022    1    1    2    0    0  0.23776279473E+03  0.11651565319E+03  0.16800201459E+04  0.17076200946E+04  0.15294330000E+03 0. -1.
<mgrwt>
<rscale>  0 0.30577557E+03</rscale>
<asrwt>0</asrwt>
<pdfrwt beam="1">  1        2 0.27128503E+00 0.30577557E+03</pdfrwt>
<pdfrwt beam="2">  1       -2 0.53841330E-01 0.30577557E+03</pdfrwt>
<totfact> 0.32849046E+01</totfact>
</mgrwt>
</event>
<event>
 4    1  0.4639964E-008  0.3141751E+03  0.7818608E-02  0.1078362E+00
         -2   -1    0    0    0  501 -0.00000000000E+00  0.00000000000E+00  0.48850215413E+03  0.48850215413E+03  0.25500000000E-02 0.  1.
          2   -1    0    0  501    0  0.00000000000E+00 -0.00000000000E+00 -0.55128328248E+03  0.55128328249E+03  0.25500000000E-02 0. -1.
    8880022    1    1    2    0    0 -0.37677243178E+02  0.27183591399E+03  0.38239837487E+03  0.49490858641E+03  0.15294330000E+03 0.  1.
    8880022    1    1    2    0    0  0.37677243178E+02 -0.27183591399E+03 -0.44517950322E+03  0.54487685021E+03  0.15294330000E+03 0.  0.
<mgrwt>
<rscale>  0 0.31417510E+03</rscale>
<asrwt>0</asrwt>
<pdfrwt beam="1">  1        2 0.84812813E-01 0.31417510E+03</pdfrwt>
<pdfrwt beam="2">  1       -2 0.75154177E-01 0.31417510E+03</pdfrwt>
<totfact> 0.91550686E+01</totfact>
</mgrwt>
</event>
<event>
 4    1  0.4639964E-008  0.7844478E+03  0.7818608E-02  0.9582805E-01
         -2   -1    0    0    0  501 -0.00000000000E+00  0.00000000000E+00  0.66167320490E+03  0.66167320491E+03  0.25500000000E-02 0.  1.
          2   -1    0    0  501    0  0.00000000000E+00 -0.00000000000E+00 -0.12059493682E+04  0.12059493682E+04  0.25500000000E-02 0. -1.
    8880022    1    1    2    0    0  0.57859540748E+03  0.50714309859E+03  0.17455219615E+03  0.80363355467E+03  0.15294330000E+03 0.  0.
    8880022    1    1    2    0    0 -0.57859540748E+03 -0.50714309859E+03 -0.71882835946E+03  0.10639890184E+04  0.15294330000E+03 0.  0.
<mgrwt>
<rscale>  0 0.78444784E+03</rscale>
<asrwt>0</asrwt>
<pdfrwt beam="1">  1        2 0.18553067E+00 0.78444784E+03</pdfrwt>
<pdfrwt beam="2">  1       -2 0.10179588E+00 0.78444784E+03</pdfrwt>
<totfact> 0.15103075E+01</totfact>
</mgrwt>
</event>
<event>
 4    1  0.4639964E-008  0.4443980E+03  0.7818608E-02  0.1029406E+00
         -2   -1    0    0    0  501 -0.00000000000E+00  0.00000000000E+00  0.87864093166E+02  0.87864093203E+02  0.25500000000E-02 0.  1.
          2   -1    0    0  501    0  0.00000000000E+00 -0.00000000000E+00 -0.24624626279E+04  0.24624626279E+04  0.25500000000E-02 0. -1.
    8880022    1    1    2    0    0  0.41625205056E+03  0.28847348721E+02 -0.81069132915E+03  0.92450528570E+03  0.15294330000E+03 0.  0.
    8880022    1    1    2    0    0 -0.41625205056E+03 -0.28847348721E+02 -0.15639072056E+04  0.16258214354E+04  0.15294330000E+03 0.  0.
<mgrwt>
<rscale>  0 0.44439801E+03</rscale>
<asrwt>0</asrwt>
<pdfrwt beam="1">  1        2 0.37884035E+00 0.44439801E+03</pdfrwt>
<pdfrwt beam="2">  1       -2 0.13517555E-01 0.44439801E+03</pdfrwt>
<totfact> 0.16509954E+02</totfact>
</mgrwt>
</event>
<event>
 4    1  0.4639964E-008  0.4390329E+03  0.7818608E-02  0.1031044E+00
         -2   -1    0    0    0  501 -0.00000000000E+00  0.00000000000E+00  0.30442654214E+03  0.30442654215E+03  0.25500000000E-02 0.  1.
          2   -1    0    0  501    0  0.00000000000E+00 -0.00000000000E+00 -0.10641894111E+04  0.10641894111E+04  0.25500000000E-02 0. -1.
    8880022    1    1    2    0    0 -0.33484890500E+03 -0.23923720669E+03 -0.81539025513E+03  0.92607297306E+03  0.15294330000E+03 0.  0.
    8880022    1    1    2    0    0  0.33484890500E+03  0.23923720669E+03  0.55627386139E+02  0.44254298023E+03  0.15294330000E+03 0.  0.
<mgrwt>
<rscale>  0 0.43903290E+03</rscale>
<asrwt>0</asrwt>
<pdfrwt beam="1">  1        2 0.16372145E+00 0.43903290E+03</pdfrwt>
<pdfrwt beam="2">  1       -2 0.46834853E-01 0.43903290E+03</pdfrwt>
<totfact> 0.10357175E+02</totfact>
</mgrwt>
</event>
<event>
 4    1  0.4639964E-008  0.6654152E+03  0.7818608E-02  0.9778276E-01
          2   -1    0    0  501    0  0.00000000000E+00  0.00000000000E+00  0.11954003366E+04  0.11954003366E+04  0.25500000000E-02 0. -1.
         -2   -1    0    0    0  501 -0.00000000000E+00 -0.00000000000E+00 -0.49046298389E+03  0.49046298389E+03  0.25500000000E-02 0.  1.
    8880022    1    1    2    0    0 -0.40797015321E+03  0.50293744347E+03 -0.64585208350E+02  0.66854216031E+03  0.15294330000E+03 0.  0.
    8880022    1    1    2    0    0  0.40797015321E+03 -0.50293744347E+03  0.76952256103E+03  0.10173211602E+04  0.15294330000E+03 0.  0.
<mgrwt>
<rscale>  0 0.66541519E+03</rscale>
<asrwt>0</asrwt>
<pdfrwt beam="1">  1        2 0.18390774E+00 0.66541519E+03</pdfrwt>
<pdfrwt beam="2">  1       -2 0.75455844E-01 0.66541519E+03</pdfrwt>
<totfact> 0.30874455E+01</totfact>
</mgrwt>
</event>
<event>
 4    1  0.4639964E-008  0.1566829E+03  0.7818608E-02  0.1192493E+00
         -2   -1    0    0    0  501 -0.00000000000E+00  0.00000000000E+00  0.81170846227E+03  0.81170846227E+03  0.25500000000E-02 0.  1.
          2   -1    0    0  501    0  0.00000000000E+00 -0.00000000000E+00 -0.17948305520E+03  0.17948305522E+03  0.25500000000E-02 0. -1.
    8880022    1    1    2    0    0 -0.32424961179E+02  0.10319613741E+02  0.76802765982E+03  0.78384693135E+03  0.15294330000E+03 0.  1.
    8880022    1    1    2    0    0  0.32424961179E+02 -0.10319613741E+02 -0.13580225274E+03  0.20734458614E+03  0.15294330000E+03 0.  0.
<mgrwt>
<rscale>  0 0.15668288E+03</rscale>
<asrwt>0</asrwt>
<pdfrwt beam="1">  1        2 0.27612778E-01 0.15668288E+03</pdfrwt>
<pdfrwt beam="2">  1       -2 0.12487822E+00 0.15668288E+03</pdfrwt>
<totfact> 0.98570828E+01</totfact>
</mgrwt>
</event>
<event>
 4    1  0.4639964E-008  0.5642538E+03  0.7818608E-02  0.9982475E-01
         -2   -1    0    0    0  501 -0.00000000000E+00  0.00000000000E+00  0.29710812269E+03  0.29710812271E+03  0.25500000000E-02 0.  1.
          2   -1    0    0  501    0  0.00000000000E+00 -0.00000000000E+00 -0.13131102780E+04  0.13131102780E+04  0.25500000000E-02 0. -1.
    8880022    1    1    2    0    0 -0.31327157617E+03  0.44367968422E+03 -0.85327833164E+03  0.10229693577E+04  0.15294330000E+03 0.  0.
    8880022    1    1    2    0    0  0.31327157617E+03 -0.44367968422E+03 -0.16272382362E+03  0.58724904292E+03  0.15294330000E+03 0.  0.
<mgrwt>
<rscale>  0 0.56425384E+03</rscale>
<asrwt>0</asrwt>
<pdfrwt beam="1">  1        2 0.20201696E+00 0.56425384E+03</pdfrwt>
<pdfrwt beam="2">  1       -2 0.45708943E-01 0.56425384E+03</pdfrwt>
<totfact> 0.76476678E+01</totfact>
</mgrwt>
</event>
<event>
 4    1  0.8192917E-008  0.4891168E+03  0.7818608E-02  0.1016659E+00
         -2   -1    0    0    0  501 -0.00000000000E+00  0.00000000000E+00  0.10113509989E+04  0.10113509989E+04  0.25500000000E-02 0.  1.
          2   -1    0    0  501    0  0.00000000000E+00 -0.00000000000E+00 -0.33819460793E+04  0.33819460793E+04  0.25500000000E-02 0. -1.
    8880022    1    1    2    0    0  0.12625924661E+03  0.44710420811E+03 -0.33037313404E+04  0.33397419051E+04  0.15294330000E+03 0. -1.
    8880022    1    1    2    0    0 -0.12625924661E+03 -0.44710420811E+03  0.93313625992E+03  0.10535551731E+04  0.15294330000E+03 0.  0.
<mgrwt>
<rscale>  0 0.48911678E+03</rscale>
<asrwt>0</asrwt>
<pdfrwt beam="1">  1        2 0.52029939E+00 0.48911678E+03</pdfrwt>
<pdfrwt beam="2">  1       -2 0.15559246E+00 0.48911678E+03</pdfrwt>
<totfact> 0.31518084E-01</totfact>
</mgrwt>
</event>
<event>
 4    1  0.4639964E-008  0.2401792E+03  0.7818608E-02  0.1119674E+00
          2   -1    0    0  501    0  0.00000000000E+00  0.00000000000E+00  0.15395987370E+04  0.15395987370E+04  0.25500000000E-02 0. -1.
         -2   -1    0    0    0  501 -0.00000000000E+00 -0.00000000000E+00 -0.12617720335E+03  0.12617720338E+03  0.25500000000E-02 0.  1.
    8880022    1    1    2    0    0  0.16602932185E+03  0.82028301484E+02  0.14050716910E+04  0.14254516785E+04  0.15294330000E+03 0. -1.
    8880022    1    1    2    0    0 -0.16602932185E+03 -0.82028301484E+02  0.83498426734E+01  0.24032426188E+03  0.15294330000E+03 0.  0.
<mgrwt>
<rscale>  0 0.24017916E+03</rscale>
<asrwt>0</asrwt>
<pdfrwt beam="1">  1        2 0.23686133E+00 0.24017916E+03</pdfrwt>
<pdfrwt beam="2">  1       -2 0.19411879E-01 0.24017916E+03</pdfrwt>
<totfact> 0.29119174E+02</totfact>
</mgrwt>
</event>
<event>
 4    1  0.4639964E-008  0.3152317E+03  0.7818608E-02  0.1077865E+00
         -2   -1    0    0    0  501 -0.00000000000E+00  0.00000000000E+00  0.79464373885E+03  0.79464373885E+03  0.25500000000E-02 0.  1.
          2   -1    0    0  501    0  0.00000000000E+00 -0.00000000000E+00 -0.10268949197E+04  0.10268949197E+04  0.25500000000E-02 0. -1.
    8880022    1    1    2    0    0 -0.27040888879E+03 -0.53464175914E+02  0.73738924029E+03  0.80194384463E+03  0.15294330000E+03 0.  0.
    8880022    1    1    2    0    0  0.27040888879E+03  0.53464175914E+02 -0.96964042111E+03  0.10195948139E+04  0.15294330000E+03 0.  0.
<mgrwt>
<rscale>  0 0.31523172E+03</rscale>
<asrwt>0</asrwt>
<pdfrwt beam="1">  1        2 0.15798383E+00 0.31523172E+03</pdfrwt>
<pdfrwt beam="2">  1       -2 0.12225288E+00 0.31523172E+03</pdfrwt>
<totfact> 0.13467937E+01</totfact>
</mgrwt>
</event>
<event>
 4    1  0.4639964E-008  0.3644988E+03  0.7818608E-02  0.1056817E+00
         -2   -1    0    0    0  501 -0.00000000000E+00  0.00000000000E+00  0.48632512615E+03  0.48632512616E+03  0.25500000000E-02 0.  1.
          2   -1    0    0  501    0  0.00000000000E+00 -0.00000000000E+00 -0.38419669167E+03  0.38419669168E+03  0.25500000000E-02 0. -1.
    8880022    1    1    2    0    0  0.22962711280E+02 -0.33006127359E+03  0.28502687173E+03  0.46270908901E+03  0.15294330000E+03 0.  0.
    8880022    1    1    2    0    0 -0.22962711280E+02  0.33006127359E+03 -0.18289843725E+03  0.40781272883E+03  0.15294330000E+03 0.  0.
<mgrwt>
<rscale>  0 0.36449881E+03</rscale>
<asrwt>0</asrwt>
<pdfrwt beam="1">  1        2 0.59107183E-01 0.36449881E+03</pdfrwt>
<pdfrwt beam="2">  1       -2 0.74819250E-01 0.36449881E+03</pdfrwt>
<totfact> 0.13790552E+02</totfact>
</mgrwt>
</event>
<event>
 4    1  0.4639964E-008  0.7349939E+03  0.7818608E-02  0.9659191E-01
         -2   -1    0    0    0  501 -0.00000000000E+00  0.00000000000E+00  0.49942425309E+03  0.49942425310E+03  0.25500000000E-02 0.  1.
          2   -1    0    0  501    0  0.00000000000E+00 -0.00000000000E+00 -0.10951287730E+04  0.10951287730E+04  0.25500000000E-02 0. -1.
    8880022    1    1    2    0    0  0.42539294388E+03  0.57953882040E+03 -0.20949228276E+03  0.76426636103E+03  0.15294330000E+03 0.  0.
    8880022    1    1    2    0    0 -0.42539294388E+03 -0.57953882040E+03 -0.38621223713E+03  0.83028666506E+03  0.15294330000E+03 0.  0.
<mgrwt>
<rscale>  0 0.73499391E+03</rscale>
<asrwt>0</asrwt>
<pdfrwt beam="1">  1        2 0.16848135E+00 0.73499391E+03</pdfrwt>
<pdfrwt beam="2">  1       -2 0.76834501E-01 0.73499391E+03</pdfrwt>
<totfact> 0.33815471E+01</totfact>
</mgrwt>
</event>
<event>
 4    1  0.4639964E-008  0.3781772E+03  0.7818608E-02  0.1051610E+00
         -2   -1    0    0    0  501 -0.00000000000E+00  0.00000000000E+00  0.39874096228E+03  0.39874096229E+03  0.25500000000E-02 0.  1.
          2   -1    0    0  501    0  0.00000000000E+00 -0.00000000000E+00 -0.16093536756E+04  0.16093536756E+04  0.25500000000E-02 0. -1.
    8880022    1    1    2    0    0  0.14128290471E+02 -0.34558176202E+03  0.27981226721E+03  0.47043907228E+03  0.15294330000E+03 0.  0.
    8880022    1    1    2    0    0 -0.14128290471E+02  0.34558176202E+03 -0.14904249806E+04  0.15376555656E+04  0.15294330000E+03 0.  0.
<mgrwt>
<rscale>  0 0.37817723E+03</rscale>
<asrwt>0</asrwt>
<pdfrwt beam="1">  1        2 0.24759287E+00 0.37817723E+03</pdfrwt>
<pdfrwt beam="2">  1       -2 0.61344764E-01 0.37817723E+03</pdfrwt>
<totfact> 0.29700879E+01</totfact>
</mgrwt>
</event>
<event>
 4    1  0.4639964E-008  0.1555322E+03  0.7818608E-02  0.1193835E+00
          2   -1    0    0  501    0  0.00000000000E+00  0.00000000000E+00  0.25623752266E+03  0.25623752267E+03  0.25500000000E-02 0. -1.
         -2   -1    0    0    0  501 -0.00000000000E+00 -0.00000000000E+00 -0.16855470403E+03  0.16855470405E+03  0.25500000000E-02 0.  1.
    8880022    1    1    2    0    0 -0.26568770024E+02 -0.96291902055E+01  0.18471477433E+03  0.24147426719E+03  0.15294330000E+03 0.  0.
    8880022    1    1    2    0    0  0.26568770024E+02  0.96291902055E+01 -0.97031955705E+02  0.18331795953E+03  0.15294330000E+03 0.  1.
<mgrwt>
<rscale>  0 0.15553223E+03</rscale>
<asrwt>0</asrwt>
<pdfrwt beam="1">  1        2 0.39421157E-01 0.15553223E+03</pdfrwt>
<pdfrwt beam="2">  1       -2 0.25931493E-01 0.15553223E+03</pdfrwt>
<totfact> 0.16997136E+03</totfact>
</mgrwt>
</event>
<event>
 4    1  0.4639964E-008  0.2515196E+03  0.7818608E-02  0.1112348E+00
         -2   -1    0    0    0  501 -0.00000000000E+00  0.00000000000E+00  0.15543660912E+03  0.15543660914E+03  0.25500000000E-02 0.  1.
          2   -1    0    0  501    0  0.00000000000E+00 -0.00000000000E+00 -0.57585239983E+03  0.57585239983E+03  0.25500000000E-02 0. -1.
    8880022    1    1    2    0    0  0.12665990745E+03 -0.15436236170E+03 -0.40820637001E+03  0.47947321551E+03  0.15294330000E+03 0.  0.
    8880022    1    1    2    0    0 -0.12665990745E+03  0.15436236170E+03 -0.12209420704E+02  0.25181579346E+03  0.15294330000E+03 0.  0.
<mgrwt>
<rscale>  0 0.25151963E+03</rscale>
<asrwt>0</asrwt>
<pdfrwt beam="1">  1        2 0.88592676E-01 0.25151963E+03</pdfrwt>
<pdfrwt beam="2">  1       -2 0.23913325E-01 0.25151963E+03</pdfrwt>
<totfact> 0.81676172E+02</totfact>
</mgrwt>
</event>
<event>
 4    1  0.4639964E-008  0.2092430E+03  0.7818608E-02  0.1142167E+00
         -2   -1    0    0    0  501 -0.00000000000E+00  0.00000000000E+00  0.52179747468E+03  0.52179747468E+03  0.25500000000E-02 0.  1.
          2   -1    0    0  501    0  0.00000000000E+00 -0.00000000000E+00 -0.25964762341E+03  0.25964762342E+03  0.25500000000E-02 0. -1.
    8880022    1    1    2    0    0  0.12930387894E+03  0.60592821441E+02  0.45252384168E+03  0.49855838517E+03  0.15294330000E+03 0.  1.
    8880022    1    1    2    0    0 -0.12930387894E+03 -0.60592821441E+02 -0.19037399041E+03  0.28288671294E+03  0.15294330000E+03 0.  0.
<mgrwt>
<rscale>  0 0.20924301E+03</rscale>
<asrwt>0</asrwt>
<pdfrwt beam="1">  1        2 0.39945789E-01 0.20924301E+03</pdfrwt>
<pdfrwt beam="2">  1       -2 0.80276534E-01 0.20924301E+03</pdfrwt>
<totfact> 0.18287421E+02</totfact>
</mgrwt>
</event>
<event>
 4    1  0.4639964E-008  0.4427552E+03  0.7818608E-02  0.1029905E+00
          2   -1    0    0  501    0  0.00000000000E+00  0.00000000000E+00  0.76973218932E+03  0.76973218933E+03  0.25500000000E-02 0. -1.
         -2   -1    0    0    0  501 -0.00000000000E+00 -0.00000000000E+00 -0.74067335447E+03  0.74067335447E+03  0.25500000000E-02 0.  1.
    8880022    1    1    2    0    0 -0.13271148551E+03 -0.39373612352E+03 -0.59721114325E+03  0.74343343750E+03  0.15294330000E+03 0.  0.
    8880022    1    1    2    0    0  0.13271148551E+03  0.39373612352E+03  0.62626997810E+03  0.76697210630E+03  0.15294330000E+03 0.  0.
<mgrwt>
<rscale>  0 0.44275515E+03</rscale>
<asrwt>0</asrwt>
<pdfrwt beam="1">  1        2 0.11842034E+00 0.44275515E+03</pdfrwt>
<pdfrwt beam="2">  1       -2 0.11394975E+00 0.44275515E+03</pdfrwt>
<totfact> 0.23010052E+01</totfact>
</mgrwt>
</event>
<event>
 4    1  0.4639964E-008  0.4550042E+03  0.7818608E-02  0.1026240E+00
         -2   -1    0    0    0  501 -0.00000000000E+00  0.00000000000E+00  0.45255392458E+03  0.45255392459E+03  0.25500000000E-02 0.  1.
          2   -1    0    0  501    0  0.00000000000E+00 -0.00000000000E+00 -0.68865532436E+03  0.68865532436E+03  0.25500000000E-02 0. -1.
    8880022    1    1    2    0    0 -0.11282389318E+03 -0.41341014689E+03  0.21255973758E+03  0.50220561076E+03  0.15294330000E+03 0.  0.
    8880022    1    1    2    0    0  0.11282389318E+03  0.41341014689E+03 -0.44866113736E+03  0.63900363819E+03  0.15294330000E+03 0.  0.
<mgrwt>
<rscale>  0 0.45500421E+03</rscale>
<asrwt>0</asrwt>
<pdfrwt beam="1">  1        2 0.10594697E+00 0.45500421E+03</pdfrwt>
<pdfrwt beam="2">  1       -2 0.69623681E-01 0.45500421E+03</pdfrwt>
<totfact> 0.81605929E+01</totfact>
</mgrwt>
</event>
<event>
 4    1  0.4639964E-008  0.4323810E+03  0.7818608E-02  0.1033110E+00
         -2   -1    0    0    0  501 -0.00000000000E+00  0.00000000000E+00  0.30326374744E+03  0.30326374745E+03  0.25500000000E-02 0.  1.
          2   -1    0    0  501    0  0.00000000000E+00 -0.00000000000E+00 -0.11340165267E+04  0.11340165267E+04  0.25500000000E-02 0. -1.
    8880022    1    1    2    0    0 -0.31916406079E+03 -0.24838678779E+03  0.70108815859E+02  0.43802807344E+03  0.15294330000E+03 0.  1.
    8880022    1    1    2    0    0  0.31916406079E+03  0.24838678779E+03 -0.90086159512E+03  0.99925220071E+03  0.15294330000E+03 0.  0.
<mgrwt>
<rscale>  0 0.43238102E+03</rscale>
<asrwt>0</asrwt>
<pdfrwt beam="1">  1        2 0.17446408E+00 0.43238102E+03</pdfrwt>
<pdfrwt beam="2">  1       -2 0.46655962E-01 0.43238102E+03</pdfrwt>
<totfact> 0.94841503E+01</totfact>
</mgrwt>
</event>
<event>
 4    1  0.7332303E-008  0.8781099E+03  0.7818608E-02  0.9453366E-01
         -2   -1    0    0    0  501 -0.00000000000E+00  0.00000000000E+00  0.77424348864E+03  0.77424348864E+03  0.25500000000E-02 0.  1.
          2   -1    0    0  501    0  0.00000000000E+00 -0.00000000000E+00 -0.25800127237E+04  0.25800127237E+04  0.25500000000E-02 0. -1.
    8880022    1    1    2    0    0 -0.70359186597E+03 -0.50263692568E+03  0.41127145396E+03  0.96965006820E+03  0.15294330000E+03 0.  0.
    8880022    1    1    2    0    0  0.70359186597E+03  0.50263692568E+03 -0.22170406891E+04  0.23846061442E+04  0.15294330000E+03 0.  0.
<mgrwt>
<rscale>  0 0.87810993E+03</rscale>
<asrwt>0</asrwt>
<pdfrwt beam="1">  1        2 0.39692503E+00 0.87810993E+03</pdfrwt>
<pdfrwt beam="2">  1       -2 0.11911438E+00 0.87810993E+03</pdfrwt>
<totfact> 0.17392925E+00</totfact>
</mgrwt>
</event>
<event>
 4    1  0.4639964E-008  0.5029786E+03  0.7818608E-02  0.1013004E+00
          2   -1    0    0  501    0  0.00000000000E+00  0.00000000000E+00  0.11450284055E+04  0.11450284055E+04  0.25500000000E-02 0. -1.
         -2   -1    0    0    0  501 -0.00000000000E+00 -0.00000000000E+00 -0.52336029085E+03  0.52336029086E+03  0.25500000000E-02 0.  1.
    8880022    1    1    2    0    0  0.47871508119E+03  0.20679553744E+02 -0.32328277431E+03  0.59791234983E+03  0.15294330000E+03 0.  0.
    8880022    1    1    2    0    0 -0.47871508119E+03 -0.20679553744E+02  0.94495088894E+03  0.10704763465E+04  0.15294330000E+03 0.  0.
<mgrwt>
<rscale>  0 0.50297855E+03</rscale>
<asrwt>0</asrwt>
<pdfrwt beam="1">  1        2 0.17615821E+00 0.50297855E+03</pdfrwt>
<pdfrwt beam="2">  1       -2 0.80516969E-01 0.50297855E+03</pdfrwt>
<totfact> 0.29246305E+01</totfact>
</mgrwt>
</event>
<event>
 4    1  0.4639964E-008  0.3852097E+03  0.7818608E-02  0.1049025E+00
         -2   -1    0    0    0  501 -0.00000000000E+00  0.00000000000E+00  0.26070112763E+03  0.26070112764E+03  0.25500000000E-02 0.  1.
          2   -1    0    0  501    0  0.00000000000E+00 -0.00000000000E+00 -0.12271086805E+04  0.12271086805E+04  0.25500000000E-02 0. -1.
    8880022    1    1    2    0    0  0.62206081323E+02 -0.34803056865E+03 -0.10279126915E+04  0.10977208332E+04  0.15294330000E+03 0.  0.
    8880022    1    1    2    0    0 -0.62206081323E+02  0.34803056865E+03  0.61505138651E+02  0.39008897493E+03  0.15294330000E+03 0.  0.
<mgrwt>
<rscale>  0 0.38520972E+03</rscale>
<asrwt>0</asrwt>
<pdfrwt beam="1">  1        2 0.18878595E+00 0.38520972E+03</pdfrwt>
<pdfrwt beam="2">  1       -2 0.40107866E-01 0.38520972E+03</pdfrwt>
<totfact> 0.11335825E+02</totfact>
</mgrwt>
</event>
<event>
 4    1  0.4639964E-008  0.1126392E+04  0.7818608E-02  0.9179844E-01
         -2   -1    0    0    0  501 -0.00000000000E+00  0.00000000000E+00  0.42784351336E+03  0.42784351336E+03  0.25500000000E-02 0.  1.
          2   -1    0    0  501    0  0.00000000000E+00 -0.00000000000E+00 -0.33343988778E+04  0.33343988778E+04  0.25500000000E-02 0. -1.
    8880022    1    1    2    0    0  0.10924072655E+04 -0.22806299708E+03 -0.82756051615E+03  0.13977175771E+04  0.15294330000E+03 0.  0.
    8880022    1    1    2    0    0 -0.10924072655E+04  0.22806299708E+03 -0.20789948483E+04  0.23645248142E+04  0.15294330000E+03 0.  0.
<mgrwt>
<rscale>  0 0.11263916E+04</rscale>
<asrwt>0</asrwt>
<pdfrwt beam="1">  1        2 0.51298443E+00 0.11263916E+04</pdfrwt>
<pdfrwt beam="2">  1       -2 0.65822081E-01 0.11263916E+04</pdfrwt>
<totfact> 0.22714997E+00</totfact>
</mgrwt>
</event>
<event>
 4    1  0.4639964E-008  0.3212426E+03  0.7818608E-02  0.1075079E+00
         -2   -1    0    0    0  501 -0.00000000000E+00  0.00000000000E+00  0.22346212369E+03  0.22346212370E+03  0.25500000000E-02 0.  1.
          2   -1    0    0  501    0  0.00000000000E+00 -0.00000000000E+00 -0.70315896496E+03  0.70315896496E+03  0.25500000000E-02 0. -1.
    8880022    1    1    2    0    0  0.28166178737E+03 -0.21720516379E+02  0.31588637765E+02  0.32279194281E+03  0.15294330000E+03 0.  1.
    8880022    1    1    2    0    0 -0.28166178737E+03  0.21720516379E+02 -0.51128547904E+03  0.60382914585E+03  0.15294330000E+03 0.  0.
<mgrwt>
<rscale>  0 0.32124258E+03</rscale>
<asrwt>0</asrwt>
<pdfrwt beam="1">  1        2 0.10817830E+00 0.32124258E+03</pdfrwt>
<pdfrwt beam="2">  1       -2 0.34378788E-01 0.32124258E+03</pdfrwt>
<totfact> 0.33256380E+02</totfact>
</mgrwt>
</event>
<event>
 4    1  0.4639964E-008  0.2299282E+03  0.7818608E-02  0.1126690E+00
          2   -1    0    0  501    0  0.00000000000E+00  0.00000000000E+00  0.15834612277E+04  0.15834612277E+04  0.25500000000E-02 0. -1.
         -2   -1    0    0    0  501 -0.00000000000E+00 -0.00000000000E+00 -0.94049458665E+03  0.94049458665E+03  0.25500000000E-02 0.  1.
    8880022    1    1    2    0    0  0.57823858626E+02  0.16165312052E+03  0.15608591069E+04  0.15777034368E+04  0.15294330000E+03 0.  0.
    8880022    1    1    2    0    0 -0.57823858626E+02 -0.16165312052E+03 -0.91789246587E+03  0.94625237750E+03  0.15294330000E+03 0.  0.
<mgrwt>
<rscale>  0 0.22992821E+03</rscale>
<asrwt>0</asrwt>
<pdfrwt beam="1">  1        2 0.24360942E+00 0.22992821E+03</pdfrwt>
<pdfrwt beam="2">  1       -2 0.14469148E+00 0.22992821E+03</pdfrwt>
<totfact> 0.44607187E+00</totfact>
</mgrwt>
</event>
<event>
 4    1  0.4639964E-008  0.1401377E+04  0.7818608E-02  0.8952823E-01
         -2   -1    0    0    0  501 -0.00000000000E+00  0.00000000000E+00  0.88931120839E+03  0.88931120840E+03  0.25500000000E-02 0.  1.
          2   -1    0    0  501    0  0.00000000000E+00 -0.00000000000E+00 -0.33133030741E+04  0.33133030741E+04  0.25500000000E-02 0. -1.
    8880022    1    1    2    0    0  0.12760152234E+04 -0.55879316489E+03 -0.24255044458E+04  0.28012368913E+04  0.15294330000E+03 0.  0.
    8880022    1    1    2    0    0 -0.12760152234E+04  0.55879316489E+03  0.15125801144E+01  0.14013773912E+04  0.15294330000E+03 0.  0.
<mgrwt>
<rscale>  0 0.14013766E+04</rscale>
<asrwt>0</asrwt>
<pdfrwt beam="1">  1        2 0.50973893E+00 0.14013766E+04</pdfrwt>
<pdfrwt beam="2">  1       -2 0.13681711E+00 0.14013766E+04</pdfrwt>
<totfact> 0.40127915E-01</totfact>
</mgrwt>
</event>
<event>
 4    1  0.4639964E-008  0.4927897E+03  0.7818608E-02  0.1015678E+00
         -2   -1    0    0    0  501 -0.00000000000E+00  0.00000000000E+00  0.21734158420E+04  0.21734158420E+04  0.25500000000E-02 0.  1.
          2   -1    0    0  501    0  0.00000000000E+00 -0.00000000000E+00 -0.44027445274E+03  0.44027445275E+03  0.25500000000E-02 0. -1.
    8880022    1    1    2    0    0  0.34819059173E+03  0.31339009590E+03 -0.26233496215E+03  0.55826635736E+03  0.15294330000E+03 0.  0.
    8880022    1    1    2    0    0 -0.34819059173E+03 -0.31339009590E+03  0.19954763514E+04  0.20554239374E+04  0.15294330000E+03 0.  0.
<mgrwt>
<rscale>  0 0.49278971E+03</rscale>
<asrwt>0</asrwt>
<pdfrwt beam="1">  1        2 0.67734530E-01 0.49278971E+03</pdfrwt>
<pdfrwt beam="2">  1       -2 0.33437167E+00 0.49278971E+03</pdfrwt>
<totfact> 0.15389334E+00</totfact>
</mgrwt>
</event>
<event>
 4    1  0.4639964E-008  0.2362400E+03  0.7818608E-02  0.1122323E+00
         -2   -1    0    0    0  501 -0.00000000000E+00  0.00000000000E+00  0.24029472510E+03  0.24029472511E+03  0.25500000000E-02 0.  1.
          2   -1    0    0  501    0  0.00000000000E+00 -0.00000000000E+00 -0.95441776092E+03  0.95441776093E+03  0.25500000000E-02 0. -1.
    8880022    1    1    2    0    0 -0.15768230912E+03  0.86913512063E+02 -0.87667702980E+03  0.90794930298E+03  0.15294330000E+03 0. -1.
    8880022    1    1    2    0    0  0.15768230912E+03 -0.86913512063E+02  0.16255399397E+03  0.28676318306E+03  0.15294330000E+03 0.  0.
<mgrwt>
<rscale>  0 0.23623997E+03</rscale>
<asrwt>0</asrwt>
<pdfrwt beam="1">  1        2 0.14683350E+00 0.23623997E+03</pdfrwt>
<pdfrwt beam="2">  1       -2 0.36968420E-01 0.23623997E+03</pdfrwt>
<totfact> 0.19724258E+02</totfact>
</mgrwt>
</event>
<event>
 4    1  0.4639964E-008  0.7461442E+03  0.7818608E-02  0.9641419E-01
          2   -1    0    0  501    0  0.00000000000E+00  0.00000000000E+00  0.12365552143E+04  0.12365552143E+04  0.25500000000E-02 0. -1.
         -2   -1    0    0    0  501 -0.00000000000E+00 -0.00000000000E+00 -0.96762705577E+03  0.96762705577E+03  0.25500000000E-02 0.  1.
    8880022    1    1    2    0    0 -0.69963756996E+03  0.20939626123E+03 -0.67142733424E+03  0.10037658301E+04  0.15294330000E+03 0.  0.
    8880022    1    1    2    0    0  0.69963756996E+03 -0.20939626123E+03  0.94035549275E+03  0.12004164399E+04  0.15294330000E+03 0. -1.
<mgrwt>
<rscale>  0 0.74614421E+03</rscale>
<asrwt>0</asrwt>
<pdfrwt beam="1">  1        2 0.19023926E+00 0.74614421E+03</pdfrwt>
<pdfrwt beam="2">  1       -2 0.14886570E+00 0.74614421E+03</pdfrwt>
<totfact> 0.56303839E+00</totfact>
</mgrwt>
</event>
<event>
 4    1  0.4639964E-008  0.4594314E+03  0.7818608E-02  0.1024946E+00
          2   -1    0    0  501    0  0.00000000000E+00  0.00000000000E+00  0.15742000709E+04  0.15742000709E+04  0.25500000000E-02 0. -1.
         -2   -1    0    0    0  501 -0.00000000000E+00 -0.00000000000E+00 -0.24810099426E+03  0.24810099427E+03  0.25500000000E-02 0.  1.
    8880022    1    1    2    0    0  0.30008348190E+03  0.31246680890E+03  0.45377421099E+02  0.46166694287E+03  0.15294330000E+03 0.  0.
    8880022    1    1    2    0    0 -0.30008348190E+03 -0.31246680890E+03  0.12807216555E+04  0.13606341223E+04  0.15294330000E+03 0.  0.
<mgrwt>
<rscale>  0 0.45943145E+03</rscale>
<asrwt>0</asrwt>
<pdfrwt beam="1">  1        2 0.24218461E+00 0.45943145E+03</pdfrwt>
<pdfrwt beam="2">  1       -2 0.38169386E-01 0.45943145E+03</pdfrwt>
<totfact> 0.79080150E+01</totfact>
</mgrwt>
</event>
<event>
 4    1  0.4639964E-008  0.6506313E+03  0.7818608E-02  0.9805595E-01
         -2   -1    0    0    0  501 -0.00000000000E+00  0.00000000000E+00  0.59797400061E+03  0.59797400061E+03  0.25500000000E-02 0.  1.
          2   -1    0    0  501    0  0.00000000000E+00 -0.00000000000E+00 -0.95462429463E+03  0.95462429463E+03  0.25500000000E-02 0. -1.
    8880022    1    1    2    0    0 -0.42915568125E+03 -0.46449424059E+03  0.21631041894E+03  0.68564666458E+03  0.15294330000E+03 0.  0.
    8880022    1    1    2    0    0  0.42915568125E+03  0.46449424059E+03 -0.57296071296E+03  0.86695163066E+03  0.15294330000E+03 0.  0.
<mgrwt>
<rscale>  0 0.65063135E+03</rscale>
<asrwt>0</asrwt>
<pdfrwt beam="1">  1        2 0.14686528E+00 0.65063135E+03</pdfrwt>
<pdfrwt beam="2">  1       -2 0.91996000E-01 0.65063135E+03</pdfrwt>
<totfact> 0.27791756E+01</totfact>
</mgrwt>
</event>
<event>
 4    1  0.4639964E-008  0.7135241E+03  0.7818608E-02  0.9694380E-01
         -2   -1    0    0    0  501 -0.00000000000E+00  0.00000000000E+00  0.30637678742E+03  0.30637678743E+03  0.25500000000E-02 0.  1.
          2   -1    0    0  501    0  0.00000000000E+00 -0.00000000000E+00 -0.21097983166E+04  0.21097983166E+04  0.25500000000E-02 0. -1.
    8880022    1    1    2    0    0 -0.54111647225E+02 -0.69483591095E+03 -0.34497616859E+03  0.79254351516E+03  0.15294330000E+03 0.  0.
    8880022    1    1    2    0    0  0.54111647225E+02  0.69483591095E+03 -0.14584453606E+04  0.16236315889E+04  0.15294330000E+03 0.  0.
<mgrwt>
<rscale>  0 0.71352412E+03</rscale>
<asrwt>0</asrwt>
<pdfrwt beam="1">  1        2 0.32458435E+00 0.71352412E+03</pdfrwt>
<pdfrwt beam="2">  1       -2 0.47134892E-01 0.71352412E+03</pdfrwt>
<totfact> 0.25763276E+01</totfact>
</mgrwt>
</event>
<event>
 4    1  0.4639964E-008  0.4120818E+03  0.7818608E-02  0.1039675E+00
          2   -1    0    0  501    0  0.00000000000E+00  0.00000000000E+00  0.19900927141E+03  0.19900927143E+03  0.25500000000E-02 0. -1.
         -2   -1    0    0    0  501 -0.00000000000E+00 -0.00000000000E+00 -0.11868919183E+04  0.11868919183E+04  0.25500000000E-02 0.  1.
    8880022    1    1    2    0    0  0.35200248458E+03  0.15004677362E+03 -0.86132074862E+03  0.95482190405E+03  0.15294330000E+03 0.  0.
    8880022    1    1    2    0    0 -0.35200248458E+03 -0.15004677362E+03 -0.12656189824E+03  0.43107928566E+03  0.15294330000E+03 0.  0.
<mgrwt>
<rscale>  0 0.41208183E+03</rscale>
<asrwt>0</asrwt>
<pdfrwt beam="1">  1        2 0.30616812E-01 0.41208183E+03</pdfrwt>
<pdfrwt beam="2">  1       -2 0.18259875E+00 0.41208183E+03</pdfrwt>
<totfact> 0.31623913E+01</totfact>
</mgrwt>
</event>
<event>
 4    1  0.4639964E-008  0.4803461E+03  0.7818608E-02  0.1019040E+00
          2   -1    0    0  501    0  0.00000000000E+00  0.00000000000E+00  0.49947444425E+03  0.49947444426E+03  0.25500000000E-02 0. -1.
         -2   -1    0    0    0  501 -0.00000000000E+00 -0.00000000000E+00 -0.82923089506E+03  0.82923089506E+03  0.25500000000E-02 0.  1.
    8880022    1    1    2    0    0 -0.16711364841E+03 -0.42357263739E+03 -0.60701831857E+03  0.77408245215E+03  0.15294330000E+03 0.  1.
    8880022    1    1    2    0    0  0.16711364841E+03  0.42357263739E+03  0.27726186777E+03  0.55462288716E+03  0.15294330000E+03 0.  0.
<mgrwt>
<rscale>  0 0.48034613E+03</rscale>
<asrwt>0</asrwt>
<pdfrwt beam="1">  1        2 0.76842222E-01 0.48034613E+03</pdfrwt>
<pdfrwt beam="2">  1       -2 0.12757398E+00 0.48034613E+03</pdfrwt>
<totfact> 0.29185997E+01</totfact>
</mgrwt>
</event>
<event>
 4    1  0.4639964E-008  0.7317650E+03  0.7818608E-02  0.9664401E-01
         -2   -1    0    0    0  501 -0.00000000000E+00  0.00000000000E+00  0.10544648124E+04  0.10544648124E+04  0.25500000000E-02 0.  1.
          2   -1    0    0  501    0  0.00000000000E+00 -0.00000000000E+00 -0.10024648874E+04  0.10024648874E+04  0.25500000000E-02 0. -1.
    8880022    1    1    2    0    0  0.97420660168E+02 -0.70894118224E+03 -0.69643859356E+03  0.10102013426E+04  0.15294330000E+03 0.  0.
    8880022    1    1    2    0    0 -0.97420660168E+02  0.70894118224E+03  0.74843851847E+03  0.10467283572E+04  0.15294330000E+03 0.  0.
<mgrwt>
<rscale>  0 0.73176502E+03</rscale>
<asrwt>0</asrwt>
<pdfrwt beam="1">  1        2 0.15422537E+00 0.73176502E+03</pdfrwt>
<pdfrwt beam="2">  1       -2 0.16222536E+00 0.73176502E+03</pdfrwt>
<totfact> 0.62211137E+00</totfact>
</mgrwt>
</event>
<event>
 4    1  0.4639964E-008  0.3458803E+03  0.7818608E-02  0.1064319E+00
         -2   -1    0    0    0  501 -0.00000000000E+00  0.00000000000E+00  0.16378797384E+03  0.16378797386E+03  0.25500000000E-02 0.  1.
          2   -1    0    0  501    0  0.00000000000E+00 -0.00000000000E+00 -0.19577059684E+04  0.19577059684E+04  0.25500000000E-02 0. -1.
    8880022    1    1    2    0    0  0.25414578351E+03 -0.17790853720E+03 -0.57089417886E+02  0.35056009689E+03  0.15294330000E+03 0.  0.
    8880022    1    1    2    0    0 -0.25414578351E+03  0.17790853720E+03 -0.17368285767E+04  0.17709338454E+04  0.15294330000E+03 0.  0.
<mgrwt>
<rscale>  0 0.34588030E+03</rscale>
<asrwt>0</asrwt>
<pdfrwt beam="1">  1        2 0.30118552E+00 0.34588030E+03</pdfrwt>
<pdfrwt beam="2">  1       -2 0.25198151E-01 0.34588030E+03</pdfrwt>
<totfact> 0.10852092E+02</totfact>
</mgrwt>
</event>
<event>
 4    1  0.4639964E-008  0.9014956E+03  0.7818608E-02  0.9423714E-01
          2   -1    0    0  501    0  0.00000000000E+00  0.00000000000E+00  0.85884792883E+03  0.85884792883E+03  0.25500000000E-02 0. -1.
         -2   -1    0    0    0  501 -0.00000000000E+00 -0.00000000000E+00 -0.10134330116E+04  0.10134330116E+04  0.25500000000E-02 0.  1.
    8880022    1    1    2    0    0  0.63682311273E+03 -0.61948277409E+03  0.16371903881E+03  0.91624132246E+03  0.15294330000E+03 0.  0.
    8880022    1    1    2    0    0 -0.63682311273E+03  0.61948277409E+03 -0.31830412159E+03  0.95603961798E+03  0.15294330000E+03 0.  0.
<mgrwt>
<rscale>  0 0.90149556E+03</rscale>
<asrwt>0</asrwt>
<pdfrwt beam="1">  1        2 0.13213045E+00 0.90149556E+03</pdfrwt>
<pdfrwt beam="2">  1       -2 0.15591277E+00 0.90149556E+03</pdfrwt>
<totfact> 0.84614477E+00</totfact>
</mgrwt>
</event>
<event>
 4    1  0.4639964E-008  0.1046605E+04  0.7818608E-02  0.9258857E-01
          2   -1    0    0  501    0  0.00000000000E+00  0.00000000000E+00  0.17397505770E+04  0.17397505770E+04  0.25500000000E-02 0. -1.
         -2   -1    0    0    0  501 -0.00000000000E+00 -0.00000000000E+00 -0.10273187638E+04  0.10273187638E+04  0.25500000000E-02 0.  1.
    8880022    1    1    2    0    0  0.10235762882E+04 -0.15582360190E+03 -0.50460890139E+03  0.11618998275E+04  0.15294330000E+03 0.  0.
    8880022    1    1    2    0    0 -0.10235762882E+04  0.15582360190E+03  0.12170407146E+04  0.16051695133E+04  0.15294330000E+03 0.  0.
<mgrwt>
<rscale>  0 0.10466045E+04</rscale>
<asrwt>0</asrwt>
<pdfrwt beam="1">  1        2 0.26765393E+00 0.10466045E+04</pdfrwt>
<pdfrwt beam="2">  1       -2 0.15804904E+00 0.10466045E+04</pdfrwt>
<totfact> 0.23999734E+00</totfact>
</mgrwt>
</event>
<event>
 4    1  0.4639964E-008  0.1061917E+04  0.7818608E-02  0.9243127E-01
          2   -1    0    0  501    0  0.00000000000E+00  0.00000000000E+00  0.40688659763E+04  0.40688659763E+04  0.25500000000E-02 0. -1.
         -2   -1    0    0    0  501 -0.00000000000E+00 -0.00000000000E+00 -0.43868331996E+03  0.43868331997E+03  0.25500000000E-02 0.  1.
    8880022    1    1    2    0    0 -0.73069526255E+03 -0.75522156865E+03  0.44744946211E+03  0.11523358272E+04  0.15294330000E+03 0.  0.
    8880022    1    1    2    0    0  0.73069526255E+03  0.75522156865E+03  0.31827331942E+04  0.33552134690E+04  0.15294330000E+03 0.  0.
<mgrwt>
<rscale>  0 0.10619166E+04</rscale>
<asrwt>0</asrwt>
<pdfrwt beam="1">  1        2 0.62597937E+00 0.10619166E+04</pdfrwt>
<pdfrwt beam="2">  1       -2 0.67489743E-01 0.10619166E+04</pdfrwt>
<totfact> 0.63159576E-01</totfact>
</mgrwt>
</event>
<event>
 4    1  0.4639964E-008  0.1179699E+04  0.7818608E-02  0.9130814E-01
         -2   -1    0    0    0  501 -0.00000000000E+00  0.00000000000E+00  0.95100632337E+03  0.95100632337E+03  0.25500000000E-02 0.  1.
          2   -1    0    0  501    0  0.00000000000E+00 -0.00000000000E+00 -0.22463994523E+04  0.22463994523E+04  0.25500000000E-02 0. -1.
    8880022    1    1    2    0    0 -0.10788524765E+04  0.45207989649E+03 -0.15915586158E+04  0.19810980237E+04  0.15294330000E+03 0.  0.
    8880022    1    1    2    0    0  0.10788524765E+04 -0.45207989649E+03  0.29616548688E+03  0.12163077520E+04  0.15294330000E+03 0.  0.
<mgrwt>
<rscale>  0 0.11796993E+04</rscale>
<asrwt>0</asrwt>
<pdfrwt beam="1">  1        2 0.34559992E+00 0.11796993E+04</pdfrwt>
<pdfrwt beam="2">  1       -2 0.14630867E+00 0.11796993E+04</pdfrwt>
<totfact> 0.15214515E+00</totfact>
</mgrwt>
</event>
<event>
 4    1  0.4639964E-008  0.6807176E+03  0.7818608E-02  0.9750788E-01
         -2   -1    0    0    0  501 -0.00000000000E+00  0.00000000000E+00  0.25826418980E+03  0.25826418981E+03  0.25500000000E-02 0.  1.
          2   -1    0    0  501    0  0.00000000000E+00 -0.00000000000E+00 -0.27459220701E+04  0.27459220701E+04  0.25500000000E-02 0. -1.
    8880022    1    1    2    0    0  0.62573999556E+03  0.22007798646E+03 -0.35951027257E+03  0.76982085661E+03  0.15294330000E+03 0.  0.
    8880022    1    1    2    0    0 -0.62573999556E+03 -0.22007798646E+03 -0.21281476078E+04  0.22343654033E+04  0.15294330000E+03 0.  0.
<mgrwt>
<rscale>  0 0.68071765E+03</rscale>
<asrwt>0</asrwt>
<pdfrwt beam="1">  1        2 0.42244953E+00 0.68071765E+03</pdfrwt>
<pdfrwt beam="2">  1       -2 0.39732954E-01 0.68071765E+03</pdfrwt>
<totfact> 0.15924840E+01</totfact>
</mgrwt>
</event>
<event>
 4    1  0.4639964E-008  0.6437366E+03  0.7818608E-02  0.9818604E-01
         -2   -1    0    0    0  501 -0.00000000000E+00  0.00000000000E+00  0.20193565377E+03  0.20193565378E+03  0.25500000000E-02 0.  1.
          2   -1    0    0  501    0  0.00000000000E+00 -0.00000000000E+00 -0.22243255377E+04  0.22243255377E+04  0.25500000000E-02 0. -1.
    8880022    1    1    2    0    0 -0.59201529282E+03  0.20130331407E+03 -0.67365260575E+03  0.93177498219E+03  0.15294330000E+03 0.  0.
    8880022    1    1    2    0    0  0.59201529282E+03 -0.20130331407E+03 -0.13487372782E+04  0.14944862093E+04  0.15294330000E+03 0.  0.
<mgrwt>
<rscale>  0 0.64373658E+03</rscale>
<asrwt>0</asrwt>
<pdfrwt beam="1">  1        2 0.34220391E+00 0.64373658E+03</pdfrwt>
<pdfrwt beam="2">  1       -2 0.31067025E-01 0.64373658E+03</pdfrwt>
<totfact> 0.50422656E+01</totfact>
</mgrwt>
</event>
<event>
 4    1  0.4639964E-008  0.7093591E+03  0.7818608E-02  0.9701359E-01
          2   -1    0    0  501    0  0.00000000000E+00  0.00000000000E+00  0.17745510009E+04  0.17745510009E+04  0.25500000000E-02 0. -1.
         -2   -1    0    0    0  501 -0.00000000000E+00 -0.00000000000E+00 -0.48181257265E+03  0.48181257265E+03  0.25500000000E-02 0.  1.
    8880022    1    1    2    0    0 -0.68379184537E+03  0.11057732948E+03  0.13700554240E+04  0.15428033418E+04  0.15294330000E+03 0.  0.
    8880022    1    1    2    0    0  0.68379184537E+03 -0.11057732948E+03 -0.77316995696E+02  0.71356023181E+03  0.15294330000E+03 0.  0.
<mgrwt>
<rscale>  0 0.70935907E+03</rscale>
<asrwt>0</asrwt>
<pdfrwt beam="1">  1        2 0.27300784E+00 0.70935907E+03</pdfrwt>
<pdfrwt beam="2">  1       -2 0.74125013E-01 0.70935907E+03</pdfrwt>
<totfact> 0.15129865E+01</totfact>
</mgrwt>
</event>
<event>
 4    1  0.4639964E-008  0.9581048E+03  0.7818608E-02  0.9355727E-01
         -2   -1    0    0    0  501 -0.00000000000E+00  0.00000000000E+00  0.81468533141E+03  0.81468533141E+03  0.25500000000E-02 0.  1.
          2   -1    0    0  501    0  0.00000000000E+00 -0.00000000000E+00 -0.14422283399E+04  0.14422283399E+04  0.25500000000E-02 0. -1.
    8880022    1    1    2    0    0 -0.74202624075E+03  0.58648967006E+03  0.21398971933E+03  0.98171091878E+03  0.15294330000E+03 0.  0.
    8880022    1    1    2    0    0  0.74202624075E+03 -0.58648967006E+03 -0.84153272778E+03  0.12752027525E+04  0.15294330000E+03 0.  0.
<mgrwt>
<rscale>  0 0.95810476E+03</rscale>
<asrwt>0</asrwt>
<pdfrwt beam="1">  1        2 0.22188128E+00 0.95810476E+03</pdfrwt>
<pdfrwt beam="2">  1       -2 0.12533620E+00 0.95810476E+03</pdfrwt>
<totfact> 0.65054182E+00</totfact>
</mgrwt>
</event>
<event>
 4    1  0.4639964E-008  0.7385156E+03  0.7818608E-02  0.9653542E-01
         -2   -1    0    0    0  501 -0.00000000000E+00  0.00000000000E+00  0.38343534899E+03  0.38343534900E+03  0.25500000000E-02 0.  1.
          2   -1    0    0  501    0  0.00000000000E+00 -0.00000000000E+00 -0.17620946362E+04  0.17620946362E+04  0.25500000000E-02 0. -1.
    8880022    1    1    2    0    0 -0.16060657809E+03  0.70442822843E+03 -0.11603318719E+04  0.13754182301E+04  0.15294330000E+03 0.  0.
    8880022    1    1    2    0    0  0.16060657809E+03 -0.70442822843E+03 -0.21832741531E+03  0.77011175502E+03  0.15294330000E+03 0.  0.
<mgrwt>
<rscale>  0 0.73851558E+03</rscale>
<asrwt>0</asrwt>
<pdfrwt beam="1">  1        2 0.27109148E+00 0.73851558E+03</pdfrwt>
<pdfrwt beam="2">  1       -2 0.58990055E-01 0.73851558E+03</pdfrwt>
<totfact> 0.25043419E+01</totfact>
</mgrwt>
</event>
<event>
 4    1  0.4639964E-008  0.8389418E+03  0.7818608E-02  0.9505300E-01
          2   -1    0    0  501    0  0.00000000000E+00  0.00000000000E+00  0.20206290784E+04  0.20206290784E+04  0.25500000000E-02 0. -1.
         -2   -1    0    0    0  501 -0.00000000000E+00 -0.00000000000E+00 -0.36334485725E+03  0.36334485726E+03  0.25500000000E-02 0.  1.
    8880022    1    1    2    0    0  0.57036163045E+03 -0.59591884679E+03  0.10710422998E+04  0.13604980421E+04  0.15294330000E+03 0.  0.
    8880022    1    1    2    0    0 -0.57036163045E+03  0.59591884679E+03  0.58624192137E+03  0.10234758936E+04  0.15294330000E+03 0.  0.
<mgrwt>
<rscale>  0 0.83894178E+03</rscale>
<asrwt>0</asrwt>
<pdfrwt beam="1">  1        2 0.31086602E+00 0.83894178E+03</pdfrwt>
<pdfrwt beam="2">  1       -2 0.55899208E-01 0.83894178E+03</pdfrwt>
<totfact> 0.19996418E+01</totfact>
</mgrwt>
</event>
<event>
 4    1  0.4639964E-008  0.4533385E+03  0.7818608E-02  0.1026731E+00
          2   -1    0    0  501    0  0.00000000000E+00  0.00000000000E+00  0.27058906010E+04  0.27058906011E+04  0.25500000000E-02 0. -1.
         -2   -1    0    0    0  501 -0.00000000000E+00 -0.00000000000E+00 -0.82206874556E+02  0.82206874596E+02  0.25500000000E-02 0.  1.
    8880022    1    1    2    0    0 -0.39261657240E+03 -0.16726133419E+03  0.16963974688E+04  0.17559271488E+04  0.15294330000E+03 0.  0.
    8880022    1    1    2    0    0  0.39261657240E+03  0.16726133419E+03  0.92728625773E+03  0.10321703268E+04  0.15294330000E+03 0.  0.
<mgrwt>
<rscale>  0 0.45333848E+03</rscale>
<asrwt>0</asrwt>
<pdfrwt beam="1">  1        2 0.41629092E+00 0.45333848E+03</pdfrwt>
<pdfrwt beam="2">  1       -2 0.12647210E-01 0.45333848E+03</pdfrwt>
<totfact> 0.13412348E+02</totfact>
</mgrwt>
</event>
<event>
 4    1  0.4639964E-008  0.4889447E+03  0.7818608E-02  0.1016705E+00
         -2   -1    0    0    0  501 -0.00000000000E+00  0.00000000000E+00  0.43418318120E+03  0.43418318121E+03  0.25500000000E-02 0.  1.
          2   -1    0    0  501    0  0.00000000000E+00 -0.00000000000E+00 -0.94197133747E+03  0.94197133748E+03  0.25500000000E-02 0. -1.
    8880022    1    1    2    0    0 -0.14099344866E+03  0.44248849978E+03 -0.69740639899E+03  0.85172916081E+03  0.15294330000E+03 0.  0.
    8880022    1    1    2    0    0  0.14099344866E+03 -0.44248849978E+03  0.18961824272E+03  0.52442535788E+03  0.15294330000E+03 0.  0.
<mgrwt>
<rscale>  0 0.48894466E+03</rscale>
<asrwt>0</asrwt>
<pdfrwt beam="1">  1        2 0.14491867E+00 0.48894466E+03</pdfrwt>
<pdfrwt beam="2">  1       -2 0.66797413E-01 0.48894466E+03</pdfrwt>
<totfact> 0.58926295E+01</totfact>
</mgrwt>
</event>
<event>
 4    1  0.4639964E-008  0.6608407E+03  0.7818608E-02  0.9786647E-01
         -2   -1    0    0    0  501 -0.00000000000E+00  0.00000000000E+00  0.10587047216E+04  0.10587047216E+04  0.25500000000E-02 0.  1.
          2   -1    0    0  501    0  0.00000000000E+00 -0.00000000000E+00 -0.68962379141E+03  0.68962379141E+03  0.25500000000E-02 0. -1.
    8880022    1    1    2    0    0  0.63883264419E+03  0.72191430964E+02  0.73869099332E+03  0.99114821628E+03  0.15294330000E+03 0.  0.
    8880022    1    1    2    0    0 -0.63883264419E+03 -0.72191430964E+02 -0.36961006313E+03  0.75718029674E+03  0.15294330000E+03 0.  0.
<mgrwt>
<rscale>  0 0.66084068E+03</rscale>
<asrwt>0</asrwt>
<pdfrwt beam="1">  1        2 0.10609597E+00 0.66084068E+03</pdfrwt>
<pdfrwt beam="2">  1       -2 0.16287765E+00 0.66084068E+03</pdfrwt>
<totfact> 0.10286505E+01</totfact>
</mgrwt>
</event>
<event>
 4    1  0.4639964E-008  0.2331960E+03  0.7818608E-02  0.1124410E+00
         -2   -1    0    0    0  501 -0.00000000000E+00  0.00000000000E+00  0.43073540475E+03  0.43073540476E+03  0.25500000000E-02 0.  1.
          2   -1    0    0  501    0  0.00000000000E+00 -0.00000000000E+00 -0.20266172946E+03  0.20266172948E+03  0.25500000000E-02 0. -1.
    8880022    1    1    2    0    0 -0.17329039181E+03 -0.30970213691E+02 -0.80427556314E+02  0.24667581734E+03  0.15294330000E+03 0.  0.
    8880022    1    1    2    0    0  0.17329039181E+03  0.30970213691E+02  0.30850123161E+03  0.38672131690E+03  0.15294330000E+03 0.  0.
<mgrwt>
<rscale>  0 0.23319598E+03</rscale>
<asrwt>0</asrwt>
<pdfrwt beam="1">  1        2 0.31178727E-01 0.23319598E+03</pdfrwt>
<pdfrwt beam="2">  1       -2 0.66266986E-01 0.23319598E+03</pdfrwt>
<totfact> 0.36210398E+02</totfact>
</mgrwt>
</event>
<event>
 4    1  0.4639964E-008  0.4154419E+03  0.7818608E-02  0.1038560E+00
         -2   -1    0    0    0  501 -0.00000000000E+00  0.00000000000E+00  0.10828219693E+03  0.10828219696E+03  0.25500000000E-02 0.  1.
          2   -1    0    0  501    0  0.00000000000E+00 -0.00000000000E+00 -0.32712564611E+04  0.32712564611E+04  0.25500000000E-02 0. -1.
    8880022    1    1    2    0    0 -0.35435445540E+03 -0.15373109305E+03 -0.27914767044E+04  0.28222214961E+04  0.15294330000E+03 0.  0.
    8880022    1    1    2    0    0  0.35435445540E+03  0.15373109305E+03 -0.37149755973E+03  0.55731716189E+03  0.15294330000E+03 0.  0.
<mgrwt>
<rscale>  0 0.41544191E+03</rscale>
<asrwt>0</asrwt>
<pdfrwt beam="1">  1        2 0.50327015E+00 0.41544191E+03</pdfrwt>
<pdfrwt beam="2">  1       -2 0.16658802E-01 0.41544191E+03</pdfrwt>
<totfact> 0.39030328E+01</totfact>
</mgrwt>
</event>
<event>
 4    1  0.4639964E-008  0.5588165E+03  0.7818608E-02  0.9994736E-01
          2   -1    0    0  501    0  0.00000000000E+00  0.00000000000E+00  0.99561546584E+03  0.99561546584E+03  0.25500000000E-02 0. -1.
         -2   -1    0    0    0  501 -0.00000000000E+00 -0.00000000000E+00 -0.78048299822E+03  0.78048299822E+03  0.25500000000E-02 0.  1.
    8880022    1    1    2    0    0  0.31619247790E+02 -0.53654860386E+03 -0.57924217777E+03  0.80485858053E+03  0.15294330000E+03 0.  0.
    8880022    1    1    2    0    0 -0.31619247790E+02  0.53654860386E+03  0.79437464538E+03  0.97123988354E+03  0.15294330000E+03 0.  0.
<mgrwt>
<rscale>  0 0.55881646E+03</rscale>
<asrwt>0</asrwt>
<pdfrwt beam="1">  1        2 0.15317161E+00 0.55881646E+03</pdfrwt>
<pdfrwt beam="2">  1       -2 0.12007431E+00 0.55881646E+03</pdfrwt>
<totfact> 0.14013018E+01</totfact>
</mgrwt>
</event>
<event>
 4    1  0.4639964E-008  0.2906171E+03  0.7818608E-02  0.1090027E+00
         -2   -1    0    0    0  501 -0.00000000000E+00  0.00000000000E+00  0.17289153030E+04  0.17289153030E+04  0.25500000000E-02 0.  1.
          2   -1    0    0  501    0  0.00000000000E+00 -0.00000000000E+00 -0.40990648700E+03  0.40990648701E+03  0.25500000000E-02 0. -1.
    8880022    1    1    2    0    0 -0.11271276257E+03  0.21991473720E+03  0.16631710887E+04  0.16883709254E+04  0.15294330000E+03 0.  0.
    8880022    1    1    2    0    0  0.11271276257E+03 -0.21991473720E+03 -0.34416227268E+03  0.45045086462E+03  0.15294330000E+03 0.  0.
<mgrwt>
<rscale>  0 0.29061712E+03</rscale>
<asrwt>0</asrwt>
<pdfrwt beam="1">  1        2 0.63062538E-01 0.29061712E+03</pdfrwt>
<pdfrwt beam="2">  1       -2 0.26598696E+00 0.29061712E+03</pdfrwt>
<totfact> 0.45057926E+00</totfact>
</mgrwt>
</event>
<event>
 4    1  0.4639964E-008  0.7249028E+03  0.7818608E-02  0.9675568E-01
          2   -1    0    0  501    0  0.00000000000E+00  0.00000000000E+00  0.19475934802E+04  0.19475934802E+04  0.25500000000E-02 0. -1.
         -2   -1    0    0    0  501 -0.00000000000E+00 -0.00000000000E+00 -0.62875496282E+03  0.62875496282E+03  0.25500000000E-02 0.  1.
    8880022    1    1    2    0    0 -0.31999444961E+03 -0.63221508648E+03 -0.31388054575E+03  0.78993987959E+03  0.15294330000E+03 0.  0.
    8880022    1    1    2    0    0  0.31999444961E+03  0.63221508648E+03  0.16327190632E+04  0.17864085634E+04  0.15294330000E+03 0.  0.
<mgrwt>
<rscale>  0 0.72490276E+03</rscale>
<asrwt>0</asrwt>
<pdfrwt beam="1">  1        2 0.29962976E+00 0.72490276E+03</pdfrwt>
<pdfrwt beam="2">  1       -2 0.96731533E-01 0.72490276E+03</pdfrwt>
<totfact> 0.66301801E+00</totfact>
</mgrwt>
</event>
<event>
 4    1  0.4639964E-008  0.7799320E+03  0.7818608E-02  0.9589528E-01
         -2   -1    0    0    0  501 -0.00000000000E+00  0.00000000000E+00  0.10953424932E+04  0.10953424932E+04  0.25500000000E-02 0.  1.
          2   -1    0    0  501    0  0.00000000000E+00 -0.00000000000E+00 -0.13725437892E+04  0.13725437892E+04  0.25500000000E-02 0. -1.
    8880022    1    1    2    0    0  0.61583484014E+03 -0.45348625576E+03  0.81352805121E+03  0.11269968401E+04  0.15294330000E+03 0.  0.
    8880022    1    1    2    0    0 -0.61583484014E+03  0.45348625576E+03 -0.10907293473E+04  0.13408894423E+04  0.15294330000E+03 0.  0.
<mgrwt>
<rscale>  0 0.77993204E+03</rscale>
<asrwt>0</asrwt>
<pdfrwt beam="1">  1        2 0.21116058E+00 0.77993204E+03</pdfrwt>
<pdfrwt beam="2">  1       -2 0.16851423E+00 0.77993204E+03</pdfrwt>
<totfact> 0.33465807E+00</totfact>
</mgrwt>
</event>
<event>
 4    1  0.4639964E-008  0.4122412E+03  0.7818608E-02  0.1039622E+00
         -2   -1    0    0    0  501 -0.00000000000E+00  0.00000000000E+00  0.26605713589E+03  0.26605713590E+03  0.25500000000E-02 0.  1.
          2   -1    0    0  501    0  0.00000000000E+00 -0.00000000000E+00 -0.22808755076E+04  0.22808755076E+04  0.25500000000E-02 0. -1.
    8880022    1    1    2    0    0  0.10615720675E+02 -0.38267283263E+03 -0.20879481185E+04  0.21282551982E+04  0.15294330000E+03 0.  0.
    8880022    1    1    2    0    0 -0.10615720675E+02  0.38267283263E+03  0.73129746699E+02  0.41867744533E+03  0.15294330000E+03 0.  0.
<mgrwt>
<rscale>  0 0.41224124E+03</rscale>
<asrwt>0</asrwt>
<pdfrwt beam="1">  1        2 0.35090391E+00 0.41224124E+03</pdfrwt>
<pdfrwt beam="2">  1       -2 0.40931869E-01 0.41224124E+03</pdfrwt>
<totfact> 0.29093791E+01</totfact>
</mgrwt>
</event>
<event>
 4    1  0.4639964E-008  0.7902409E+03  0.7818608E-02  0.9574251E-01
          2   -1    0    0  501    0  0.00000000000E+00  0.00000000000E+00  0.68433269196E+03  0.68433269196E+03  0.25500000000E-02 0. -1.
         -2   -1    0    0    0  501 -0.00000000000E+00 -0.00000000000E+00 -0.14805503280E+04  0.14805503280E+04  0.25500000000E-02 0.  1.
    8880022    1    1    2    0    0  0.13660342061E+03  0.76317008310E+03  0.27234843994E+03  0.83585548752E+03  0.15294330000E+03 0.  0.
    8880022    1    1    2    0    0 -0.13660342061E+03 -0.76317008310E+03 -0.10685660760E+04  0.13290275325E+04  0.15294330000E+03 0.  0.
<mgrwt>
<rscale>  0 0.79024093E+03</rscale>
<asrwt>0</asrwt>
<pdfrwt beam="1">  1        2 0.10528195E+00 0.79024093E+03</pdfrwt>
<pdfrwt beam="2">  1       -2 0.22777697E+00 0.79024093E+03</pdfrwt>
<totfact> 0.37979739E+00</totfact>
</mgrwt>
</event>
<event>
 4    1  0.4639964E-008  0.4299016E+03  0.7818608E-02  0.1033891E+00
         -2   -1    0    0    0  501 -0.00000000000E+00  0.00000000000E+00  0.22935550455E+03  0.22935550456E+03  0.25500000000E-02 0.  1.
          2   -1    0    0  501    0  0.00000000000E+00 -0.00000000000E+00 -0.23942753565E+04  0.23942753565E+04  0.25500000000E-02 0. -1.
    8880022    1    1    2    0    0 -0.39675571324E+03  0.63313643908E+02 -0.13957505366E+02  0.43012809541E+03  0.15294330000E+03 0.  0.
    8880022    1    1    2    0    0  0.39675571324E+03 -0.63313643908E+02 -0.21509623465E+04  0.21935027656E+04  0.15294330000E+03 0.  0.
<mgrwt>
<rscale>  0 0.42990158E+03</rscale>
<asrwt>0</asrwt>
<pdfrwt beam="1">  1        2 0.36835004E+00 0.42990158E+03</pdfrwt>
<pdfrwt beam="2">  1       -2 0.35285464E-01 0.42990158E+03</pdfrwt>
<totfact> 0.33360738E+01</totfact>
</mgrwt>
</event>
<event>
 4    1  0.4639964E-008  0.3721765E+03  0.7818608E-02  0.1053864E+00
         -2   -1    0    0    0  501 -0.00000000000E+00  0.00000000000E+00  0.70239659820E+03  0.70239659821E+03  0.25500000000E-02 0.  1.
          2   -1    0    0  501    0  0.00000000000E+00 -0.00000000000E+00 -0.38646970760E+03  0.38646970761E+03  0.25500000000E-02 0. -1.
    8880022    1    1    2    0    0  0.30047953421E+03  0.15759354188E+03 -0.22303477661E+03  0.43388920189E+03  0.15294330000E+03 0.  0.
    8880022    1    1    2    0    0 -0.30047953421E+03 -0.15759354188E+03  0.53896166722E+03  0.65497710393E+03  0.15294330000E+03 0.  1.
<mgrwt>
<rscale>  0 0.37217647E+03</rscale>
<asrwt>0</asrwt>
<pdfrwt beam="1">  1        2 0.59456878E-01 0.37217647E+03</pdfrwt>
<pdfrwt beam="2">  1       -2 0.10806101E+00 0.37217647E+03</pdfrwt>
<totfact> 0.59090447E+01</totfact>
</mgrwt>
</event>
<event>
 4    1  0.4639964E-008  0.1654738E+03  0.7818608E-02  0.1182652E+00
          2   -1    0    0  501    0  0.00000000000E+00  0.00000000000E+00  0.18564691125E+04  0.18564691125E+04  0.25500000000E-02 0. -1.
         -2   -1    0    0    0  501 -0.00000000000E+00 -0.00000000000E+00 -0.19478113537E+02  0.19478113704E+02  0.25500000000E-02 0.  1.
    8880022    1    1    2    0    0 -0.63002596539E+02  0.45381751096E+01  0.13806576517E+04  0.13905384304E+04  0.15294330000E+03 0. -1.
    8880022    1    1    2    0    0  0.63002596539E+02 -0.45381751096E+01  0.45633334720E+03  0.48540879574E+03  0.15294330000E+03 0.  0.
<mgrwt>
<rscale>  0 0.16547379E+03</rscale>
<asrwt>0</asrwt>
<pdfrwt beam="1">  1        2 0.28561068E+00 0.16547379E+03</pdfrwt>
<pdfrwt beam="2">  1       -2 0.29966323E-02 0.16547379E+03</pdfrwt>
<totfact> 0.37418204E+03</totfact>
</mgrwt>
</event>
<event>
 4    1  0.4639964E-008  0.3197173E+03  0.7818608E-02  0.1075779E+00
          2   -1    0    0  501    0  0.00000000000E+00  0.00000000000E+00  0.69771801682E+03  0.69771801682E+03  0.25500000000E-02 0. -1.
         -2   -1    0    0    0  501 -0.00000000000E+00 -0.00000000000E+00 -0.36652249179E+03  0.36652249180E+03  0.25500000000E-02 0.  1.
    8880022    1    1    2    0    0  0.10364577367E+03  0.26093114129E+03  0.57787381126E+03  0.66042206327E+03  0.15294330000E+03 0.  0.
    8880022    1    1    2    0    0 -0.10364577367E+03 -0.26093114129E+03 -0.24667828624E+03  0.40381844536E+03  0.15294330000E+03 0.  1.
<mgrwt>
<rscale>  0 0.31971731E+03</rscale>
<asrwt>0</asrwt>
<pdfrwt beam="1">  1        2 0.10734123E+00 0.31971731E+03</pdfrwt>
<pdfrwt beam="2">  1       -2 0.56388076E-01 0.31971731E+03</pdfrwt>
<totfact> 0.12727565E+02</totfact>
</mgrwt>
</event>
<event>
 4    1  0.4639964E-008  0.4902161E+03  0.7818608E-02  0.1016365E+00
         -2   -1    0    0    0  501 -0.00000000000E+00  0.00000000000E+00  0.40325146461E+03  0.40325146461E+03  0.25500000000E-02 0.  1.
          2   -1    0    0  501    0  0.00000000000E+00 -0.00000000000E+00 -0.17828830314E+04  0.17828830314E+04  0.25500000000E-02 0. -1.
    8880022    1    1    2    0    0  0.15376918151E+03 -0.43963080398E+03 -0.15816850917E+04  0.16559105010E+04  0.15294330000E+03 0.  0.
    8880022    1    1    2    0    0 -0.15376918151E+03  0.43963080398E+03  0.20205352488E+03  0.53022399504E+03  0.15294330000E+03 0.  0.
<mgrwt>
<rscale>  0 0.49021613E+03</rscale>
<asrwt>0</asrwt>
<pdfrwt beam="1">  1        2 0.27428969E+00 0.49021613E+03</pdfrwt>
<pdfrwt beam="2">  1       -2 0.62038688E-01 0.49021613E+03</pdfrwt>
<totfact> 0.22831498E+01</totfact>
</mgrwt>
</event>
<event>
 4    1  0.4639964E-008  0.1721082E+03  0.7818608E-02  0.1175667E+00
         -2   -1    0    0    0  501 -0.00000000000E+00  0.00000000000E+00  0.13194406352E+03  0.13194406354E+03  0.25500000000E-02 0.  1.
          2   -1    0    0  501    0  0.00000000000E+00 -0.00000000000E+00 -0.91928279256E+03  0.91928279257E+03  0.25500000000E-02 0. -1.
    8880022    1    1    2    0    0  0.76020247621E+02  0.21225052401E+02  0.63278768022E+02  0.18337239813E+03  0.15294330000E+03 0.  0.
    8880022    1    1    2    0    0 -0.76020247621E+02 -0.21225052401E+02 -0.85061749707E+03  0.86785445798E+03  0.15294330000E+03 0. -1.
<mgrwt>
<rscale>  0 0.17210820E+03</rscale>
<asrwt>0</asrwt>
<pdfrwt beam="1">  1        2 0.14142812E+00 0.17210820E+03</pdfrwt>
<pdfrwt beam="2">  1       -2 0.20299087E-01 0.17210820E+03</pdfrwt>
<totfact> 0.61172543E+02</totfact>
</mgrwt>
</event>
<event>
 4    1  0.4639964E-008  0.4460320E+03  0.7818608E-02  0.1028912E+00
         -2   -1    0    0    0  501 -0.00000000000E+00  0.00000000000E+00  0.57496688554E+03  0.57496688555E+03  0.25500000000E-02 0.  1.
          2   -1    0    0  501    0  0.00000000000E+00 -0.00000000000E+00 -0.65729045997E+03  0.65729045998E+03  0.25500000000E-02 0. -1.
    8880022    1    1    2    0    0  0.32212998723E+03 -0.26792758304E+03 -0.46516421799E+03  0.64445505750E+03  0.15294330000E+03 0.  0.
    8880022    1    1    2    0    0 -0.32212998723E+03  0.26792758304E+03  0.38284064356E+03  0.58780228802E+03  0.15294330000E+03 0.  0.
<mgrwt>
<rscale>  0 0.44603203E+03</rscale>
<asrwt>0</asrwt>
<pdfrwt beam="1">  1        2 0.10112161E+00 0.44603203E+03</pdfrwt>
<pdfrwt beam="2">  1       -2 0.88456444E-01 0.44603203E+03</pdfrwt>
<totfact> 0.50813124E+01</totfact>
</mgrwt>
</event>
<event>
 4    1  0.4639964E-008  0.9936245E+03  0.7818608E-02  0.9315565E-01
          2   -1    0    0  501    0  0.00000000000E+00  0.00000000000E+00  0.18028374388E+04  0.18028374388E+04  0.25500000000E-02 0. -1.
         -2   -1    0    0    0  501 -0.00000000000E+00 -0.00000000000E+00 -0.67104857818E+03  0.67104857818E+03  0.25500000000E-02 0.  1.
    8880022    1    1    2    0    0 -0.31913621446E+03  0.92846647692E+03  0.35423839173E+02  0.99425571335E+03  0.15294330000E+03 0.  0.
    8880022    1    1    2    0    0  0.31913621446E+03 -0.92846647692E+03  0.10963650214E+04  0.14796303036E+04  0.15294330000E+03 0.  0.
<mgrwt>
<rscale>  0 0.99362446E+03</rscale>
<asrwt>0</asrwt>
<pdfrwt beam="1">  1        2 0.27735961E+00 0.99362446E+03</pdfrwt>
<pdfrwt beam="2">  1       -2 0.10323824E+00 0.99362446E+03</pdfrwt>
<totfact> 0.65726014E+00</totfact>
</mgrwt>
</event>
<event>
 4    1  0.4639964E-008  0.5492315E+03  0.7818608E-02  0.1001672E+00
          2   -1    0    0  501    0  0.00000000000E+00  0.00000000000E+00  0.91440643350E+03  0.91440643350E+03  0.25500000000E-02 0. -1.
         -2   -1    0    0    0  501 -0.00000000000E+00 -0.00000000000E+00 -0.42105209390E+03  0.42105209390E+03  0.25500000000E-02 0.  1.
    8880022    1    1    2    0    0 -0.48855381696E+03  0.19894402286E+03 -0.64018562124E+02  0.55294989430E+03  0.15294330000E+03 0.  0.
    8880022    1    1    2    0    0  0.48855381696E+03 -0.19894402286E+03  0.55737290173E+03  0.78250863311E+03  0.15294330000E+03 0.  0.
<mgrwt>
<rscale>  0 0.54923147E+03</rscale>
<asrwt>0</asrwt>
<pdfrwt beam="1">  1        2 0.14067791E+00 0.54923147E+03</pdfrwt>
<pdfrwt beam="2">  1       -2 0.64777246E-01 0.54923147E+03</pdfrwt>
<totfact> 0.65143062E+01</totfact>
</mgrwt>
</event>
<event>
 4    1  0.4639964E-008  0.1861848E+03  0.7818608E-02  0.1161948E+00
          2   -1    0    0  501    0  0.00000000000E+00  0.00000000000E+00  0.23551314631E+03  0.23551314632E+03  0.25500000000E-02 0. -1.
         -2   -1    0    0    0  501 -0.00000000000E+00 -0.00000000000E+00 -0.21992667754E+03  0.21992667756E+03  0.25500000000E-02 0.  1.
    8880022    1    1    2    0    0  0.15363381413E+02 -0.10505753247E+03 -0.12316836095E+03  0.22323802716E+03  0.15294330000E+03 0.  0.
    8880022    1    1    2    0    0 -0.15363381413E+02  0.10505753247E+03  0.13875482971E+03  0.23220179672E+03  0.15294330000E+03 0.  0.
<mgrwt>
<rscale>  0 0.18618478E+03</rscale>
<asrwt>0</asrwt>
<pdfrwt beam="1">  1        2 0.36232792E-01 0.18618478E+03</pdfrwt>
<pdfrwt beam="2">  1       -2 0.33834873E-01 0.18618478E+03</pdfrwt>
<totfact> 0.11573326E+03</totfact>
</mgrwt>
</event>
<event>
 4    1  0.4639964E-008  0.1179440E+04  0.7818608E-02  0.9131046E-01
          2   -1    0    0  501    0  0.00000000000E+00  0.00000000000E+00  0.85988878681E+03  0.85988878681E+03  0.25500000000E-02 0. -1.
         -2   -1    0    0    0  501 -0.00000000000E+00 -0.00000000000E+00 -0.19524805927E+04  0.19524805927E+04  0.25500000000E-02 0.  1.
    8880022    1    1    2    0    0  0.38008725106E+03 -0.11059926149E+04 -0.11285362878E+04  0.16323822434E+04  0.15294330000E+03 0.  0.
    8880022    1    1    2    0    0 -0.38008725106E+03  0.11059926149E+04  0.35944481915E+02  0.11799871361E+04  0.15294330000E+03 0.  0.
<mgrwt>
<rscale>  0 0.11794395E+04</rscale>
<asrwt>0</asrwt>
<pdfrwt beam="1">  1        2 0.13229058E+00 0.11794395E+04</pdfrwt>
<pdfrwt beam="2">  1       -2 0.30038163E+00 0.11794395E+04</pdfrwt>
<totfact> 0.96990640E-01</totfact>
</mgrwt>
</event>
<event>
 4    1  0.4639964E-008  0.6569318E+03  0.7818608E-02  0.9793858E-01
          2   -1    0    0  501    0  0.00000000000E+00  0.00000000000E+00  0.29499361064E+04  0.29499361064E+04  0.25500000000E-02 0. -1.
         -2   -1    0    0    0  501 -0.00000000000E+00 -0.00000000000E+00 -0.32408327799E+03  0.32408327800E+03  0.25500000000E-02 0.  1.
    8880022    1    1    2    0    0 -0.59289569857E+03 -0.23799670012E+03  0.25254079303E+04  0.26094529323E+04  0.15294330000E+03 0.  0.
    8880022    1    1    2    0    0  0.59289569857E+03  0.23799670012E+03  0.10044489812E+03  0.66456645207E+03  0.15294330000E+03 0.  0.
<mgrwt>
<rscale>  0 0.65693180E+03</rscale>
<asrwt>0</asrwt>
<pdfrwt beam="1">  1        2 0.45383631E+00 0.65693180E+03</pdfrwt>
<pdfrwt beam="2">  1       -2 0.49858968E-01 0.65693180E+03</pdfrwt>
<totfact> 0.77104988E+00</totfact>
</mgrwt>
</event>
<event>
 4    1  0.4639964E-008  0.3161639E+03  0.7818608E-02  0.1077428E+00
         -2   -1    0    0    0  501 -0.00000000000E+00  0.00000000000E+00  0.23482880000E+03  0.23482880002E+03  0.25500000000E-02 0.  1.
          2   -1    0    0  501    0  0.00000000000E+00 -0.00000000000E+00 -0.55628532104E+03  0.55628532105E+03  0.25500000000E-02 0. -1.
    8880022    1    1    2    0    0 -0.24982809566E+03 -0.11897006051E+03 -0.35239960392E+03  0.47343963346E+03  0.15294330000E+03 0.  0.
    8880022    1    1    2    0    0  0.24982809566E+03  0.11897006051E+03  0.30943082882E+02  0.31767448760E+03  0.15294330000E+03 0.  0.
<mgrwt>
<rscale>  0 0.31616389E+03</rscale>
<asrwt>0</asrwt>
<pdfrwt beam="1">  1        2 0.85582357E-01 0.31616389E+03</pdfrwt>
<pdfrwt beam="2">  1       -2 0.36127508E-01 0.31616389E+03</pdfrwt>
<totfact> 0.40037398E+02</totfact>
</mgrwt>
</event>
<event>
 4    1  0.4639964E-008  0.4488157E+03  0.7818608E-02  0.1028076E+00
          2   -1    0    0  501    0  0.00000000000E+00  0.00000000000E+00  0.24390616498E+04  0.24390616498E+04  0.25500000000E-02 0. -1.
         -2   -1    0    0    0  501 -0.00000000000E+00 -0.00000000000E+00 -0.17888919721E+03  0.17888919722E+03  0.25500000000E-02 0.  1.
    8880022    1    1    2    0    0 -0.36422199966E+03  0.21304051011E+03  0.20904965072E+04  0.21381326487E+04  0.15294330000E+03 0.  0.
    8880022    1    1    2    0    0  0.36422199966E+03 -0.21304051011E+03  0.16967594546E+03  0.47981819835E+03  0.15294330000E+03 0.  0.
<mgrwt>
<rscale>  0 0.44881575E+03</rscale>
<asrwt>0</asrwt>
<pdfrwt beam="1">  1        2 0.37524024E+00 0.44881575E+03</pdfrwt>
<pdfrwt beam="2">  1       -2 0.27521416E-01 0.44881575E+03</pdfrwt>
<totfact> 0.49702981E+01</totfact>
</mgrwt>
</event>
<event>
 4    1  0.4639964E-008  0.4321342E+03  0.7818608E-02  0.1033188E+00
         -2   -1    0    0    0  501 -0.00000000000E+00  0.00000000000E+00  0.32837577076E+03  0.32837577077E+03  0.25500000000E-02 0.  1.
          2   -1    0    0  501    0  0.00000000000E+00 -0.00000000000E+00 -0.30300794347E+04  0.30300794347E+04  0.25500000000E-02 0. -1.
    8880022    1    1    2    0    0 -0.27323298231E+03  0.29781204227E+03  0.16261818656E+03  0.46171918171E+03  0.15294330000E+03 0.  0.
    8880022    1    1    2    0    0  0.27323298231E+03 -0.29781204227E+03 -0.28643218505E+04  0.28967360238E+04  0.15294330000E+03 0.  0.
<mgrwt>
<rscale>  0 0.43213416E+03</rscale>
<asrwt>0</asrwt>
<pdfrwt beam="1">  1        2 0.46616605E+00 0.43213416E+03</pdfrwt>
<pdfrwt beam="2">  1       -2 0.50519352E-01 0.43213416E+03</pdfrwt>
<totfact> 0.71287520E+00</totfact>
</mgrwt>
</event>
<event>
 4    1  0.4639964E-008  0.4057420E+03  0.7818608E-02  0.1041809E+00
          2   -1    0    0  501    0  0.00000000000E+00  0.00000000000E+00  0.48968708296E+03  0.48968708297E+03  0.25500000000E-02 0. -1.
         -2   -1    0    0    0  501 -0.00000000000E+00 -0.00000000000E+00 -0.64662512071E+03  0.64662512071E+03  0.25500000000E-02 0.  1.
    8880022    1    1    2    0    0  0.10780261712E+03  0.36001874368E+03 -0.47213577174E+03  0.62252609586E+03  0.15294330000E+03 0.  1.
    8880022    1    1    2    0    0 -0.10780261712E+03 -0.36001874368E+03  0.31519773399E+03  0.51378610782E+03  0.15294330000E+03 0.  0.
<mgrwt>
<rscale>  0 0.40574198E+03</rscale>
<asrwt>0</asrwt>
<pdfrwt beam="1">  1        2 0.75336474E-01 0.40574198E+03</pdfrwt>
<pdfrwt beam="2">  1       -2 0.99480788E-01 0.40574198E+03</pdfrwt>
<totfact> 0.54970381E+01</totfact>
</mgrwt>
</event>
<event>
 4    1  0.4639964E-008  0.2430251E+03  0.7818608E-02  0.1117794E+00
          2   -1    0    0  501    0  0.00000000000E+00  0.00000000000E+00  0.28720518685E+04  0.28720518685E+04  0.25500000000E-02 0. -1.
         -2   -1    0    0    0  501 -0.00000000000E+00 -0.00000000000E+00 -0.40890442750E+02  0.40890442829E+02  0.25500000000E-02 0.  1.
    8880022    1    1    2    0    0  0.16687715688E+03  0.88439684249E+02  0.38869904285E+03  0.45841919916E+03  0.15294330000E+03 0.  0.
    8880022    1    1    2    0    0 -0.16687715688E+03 -0.88439684249E+02  0.24424623829E+04  0.24545231122E+04  0.15294330000E+03 0.  0.
<mgrwt>
<rscale>  0 0.24302514E+03</rscale>
<asrwt>0</asrwt>
<pdfrwt beam="1">  1        2 0.44185403E+00 0.24302514E+03</pdfrwt>
<pdfrwt beam="2">  1       -2 0.62908389E-02 0.24302514E+03</pdfrwt>
<totfact> 0.34354012E+02</totfact>
</mgrwt>
</event>
<event>
 4    1  0.4639964E-008  0.9303167E+03  0.7818608E-02  0.9388458E-01
         -2   -1    0    0    0  501 -0.00000000000E+00  0.00000000000E+00  0.10489182559E+04  0.10489182559E+04  0.25500000000E-02 0.  1.
          2   -1    0    0  501    0  0.00000000000E+00 -0.00000000000E+00 -0.10000507895E+04  0.10000507895E+04  0.25500000000E-02 0. -1.
    8880022    1    1    2    0    0  0.90103646748E+03  0.17387027885E+03 -0.40403646838E+03  0.10142656015E+04  0.15294330000E+03 0.  0.
    8880022    1    1    2    0    0 -0.90103646748E+03 -0.17387027885E+03  0.45290393480E+03  0.10347034439E+04  0.15294330000E+03 0.  0.
<mgrwt>
<rscale>  0 0.93031674E+03</rscale>
<asrwt>0</asrwt>
<pdfrwt beam="1">  1        2 0.15385397E+00 0.93031674E+03</pdfrwt>
<pdfrwt beam="2">  1       -2 0.16137204E+00 0.93031674E+03</pdfrwt>
<totfact> 0.61866194E+00</totfact>
</mgrwt>
</event>
<event>
 4    1  0.4639964E-008  0.6276364E+03  0.7818608E-02  0.9849672E-01
         -2   -1    0    0    0  501 -0.00000000000E+00  0.00000000000E+00  0.55595742332E+03  0.55595742333E+03  0.25500000000E-02 0.  1.
          2   -1    0    0  501    0  0.00000000000E+00 -0.00000000000E+00 -0.15590662578E+04  0.15590662578E+04  0.25500000000E-02 0. -1.
    8880022    1    1    2    0    0 -0.34834658127E+03 -0.49918984018E+03 -0.12826289733E+04  0.14279581833E+04  0.15294330000E+03 0.  0.
    8880022    1    1    2    0    0  0.34834658127E+03  0.49918984018E+03  0.27952013882E+03  0.68706549778E+03  0.15294330000E+03 0.  0.
<mgrwt>
<rscale>  0 0.62763643E+03</rscale>
<asrwt>0</asrwt>
<pdfrwt beam="1">  1        2 0.23985635E+00 0.62763643E+03</pdfrwt>
<pdfrwt beam="2">  1       -2 0.85531912E-01 0.62763643E+03</pdfrwt>
<totfact> 0.14574775E+01</totfact>
</mgrwt>
</event>
<event>
 4    1  0.4639964E-008  0.6515018E+03  0.7818608E-02  0.9803965E-01
         -2   -1    0    0    0  501 -0.00000000000E+00  0.00000000000E+00  0.42822687577E+03  0.42822687578E+03  0.25500000000E-02 0.  1.
          2   -1    0    0  501    0  0.00000000000E+00 -0.00000000000E+00 -0.19231298329E+04  0.19231298329E+04  0.25500000000E-02 0. -1.
    8880022    1    1    2    0    0 -0.16768250308E+03 -0.61069260894E+03  0.70971796973E+02  0.65535603563E+03  0.15294330000E+03 0.  0.
    8880022    1    1    2    0    0  0.16768250308E+03  0.61069260894E+03 -0.15658747541E+04  0.16960006730E+04  0.15294330000E+03 0. -1.
<mgrwt>
<rscale>  0 0.65150176E+03</rscale>
<asrwt>0</asrwt>
<pdfrwt beam="1">  1        2 0.29586612E+00 0.65150176E+03</pdfrwt>
<pdfrwt beam="2">  1       -2 0.65881059E-01 0.65150176E+03</pdfrwt>
<totfact> 0.16389449E+01</totfact>
</mgrwt>
</event>
<event>
 4    1  0.4639964E-008  0.9070853E+03  0.7818608E-02  0.9416768E-01
         -2   -1    0    0    0  501 -0.00000000000E+00  0.00000000000E+00  0.44718328964E+03  0.44718328965E+03  0.25500000000E-02 0.  1.
          2   -1    0    0  501    0  0.00000000000E+00 -0.00000000000E+00 -0.22072976005E+04  0.22072976005E+04  0.25500000000E-02 0. -1.
    8880022    1    1    2    0    0  0.82242304493E+03  0.35075970752E+03 -0.33862239110E+03  0.96822973205E+03  0.15294330000E+03 0.  0.
    8880022    1    1    2    0    0 -0.82242304493E+03 -0.35075970752E+03 -0.14214919197E+04  0.16862511581E+04  0.15294330000E+03 0.  0.
<mgrwt>
<rscale>  0 0.90708527E+03</rscale>
<asrwt>0</asrwt>
<pdfrwt beam="1">  1        2 0.33958424E+00 0.90708527E+03</pdfrwt>
<pdfrwt beam="2">  1       -2 0.68797430E-01 0.90708527E+03</pdfrwt>
<totfact> 0.10048690E+01</totfact>
</mgrwt>
</event>
<event>
 4    1  0.4639964E-008  0.8729643E+03  0.7818608E-02  0.9460023E-01
          2   -1    0    0  501    0  0.00000000000E+00  0.00000000000E+00  0.13524296647E+04  0.13524296647E+04  0.25500000000E-02 0. -1.
         -2   -1    0    0    0  501 -0.00000000000E+00 -0.00000000000E+00 -0.62970044749E+03  0.62970044749E+03  0.25500000000E-02 0.  1.
    8880022    1    1    2    0    0 -0.70937552836E+03  0.48524363271E+03  0.68275446583E+03  0.11082510261E+04  0.15294330000E+03 0.  0.
    8880022    1    1    2    0    0  0.70937552836E+03 -0.48524363271E+03  0.39974751416E+02  0.87387908608E+03  0.15294330000E+03 0.  0.
<mgrwt>
<rscale>  0 0.87296430E+03</rscale>
<asrwt>0</asrwt>
<pdfrwt beam="1">  1        2 0.20806610E+00 0.87296430E+03</pdfrwt>
<pdfrwt beam="2">  1       -2 0.96876992E-01 0.87296430E+03</pdfrwt>
<totfact> 0.13822333E+01</totfact>
</mgrwt>
</event>
<event>
 4    1  0.4639964E-008  0.7363054E+03  0.7818608E-02  0.9657083E-01
         -2   -1    0    0    0  501 -0.00000000000E+00  0.00000000000E+00  0.18232784486E+03  0.18232784487E+03  0.25500000000E-02 0.  1.
          2   -1    0    0  501    0  0.00000000000E+00 -0.00000000000E+00 -0.41163671680E+04  0.41163671680E+04  0.25500000000E-02 0. -1.
    8880022    1    1    2    0    0 -0.10266187344E+02  0.72017264989E+03 -0.30995605117E+04  0.31858156034E+04  0.15294330000E+03 0.  0.
    8880022    1    1    2    0    0  0.10266187344E+02 -0.72017264989E+03 -0.83447881147E+03  0.11128794095E+04  0.15294330000E+03 0.  0.
<mgrwt>
<rscale>  0 0.73630543E+03</rscale>
<asrwt>0</asrwt>
<pdfrwt beam="1">  1        2 0.63328718E+00 0.73630543E+03</pdfrwt>
<pdfrwt beam="2">  1       -2 0.28050441E-01 0.73630543E+03</pdfrwt>
<totfact> 0.35504457E+00</totfact>
</mgrwt>
</event>
<event>
 4    1  0.4639964E-008  0.7765783E+03  0.7818608E-02  0.9594552E-01
          2   -1    0    0  501    0  0.00000000000E+00  0.00000000000E+00  0.19696638735E+04  0.19696638735E+04  0.25500000000E-02 0. -1.
         -2   -1    0    0    0  501 -0.00000000000E+00 -0.00000000000E+00 -0.41150764302E+03  0.41150764303E+03  0.25500000000E-02 0.  1.
    8880022    1    1    2    0    0 -0.72238159049E+03 -0.24051414447E+03  0.13814166207E+04  0.15847352299E+04  0.15294330000E+03 0.  0.
    8880022    1    1    2    0    0  0.72238159049E+03  0.24051414447E+03  0.17673960979E+03  0.79643628662E+03  0.15294330000E+03 0.  0.
<mgrwt>
<rscale>  0 0.77657831E+03</rscale>
<asrwt>0</asrwt>
<pdfrwt beam="1">  1        2 0.30302521E+00 0.77657831E+03</pdfrwt>
<pdfrwt beam="2">  1       -2 0.63308868E-01 0.77657831E+03</pdfrwt>
<totfact> 0.16529155E+01</totfact>
</mgrwt>
</event>
<event>
 4    1  0.4639964E-008  0.4298627E+03  0.7818608E-02  0.1033903E+00
         -2   -1    0    0    0  501 -0.00000000000E+00  0.00000000000E+00  0.52625509116E+03  0.52625509116E+03  0.25500000000E-02 0.  1.
          2   -1    0    0  501    0  0.00000000000E+00 -0.00000000000E+00 -0.98033958898E+03  0.98033958898E+03  0.25500000000E-02 0. -1.
    8880022    1    1    2    0    0 -0.28880517619E+03  0.27925226278E+03 -0.83054210124E+03  0.93519093826E+03  0.15294330000E+03 0. -1.
    8880022    1    1    2    0    0  0.28880517619E+03 -0.27925226278E+03  0.37645760342E+03  0.57140374189E+03  0.15294330000E+03 0.  0.
<mgrwt>
<rscale>  0 0.42986266E+03</rscale>
<asrwt>0</asrwt>
<pdfrwt beam="1">  1        2 0.15082147E+00 0.42986266E+03</pdfrwt>
<pdfrwt beam="2">  1       -2 0.80962322E-01 0.42986266E+03</pdfrwt>
<totfact> 0.36848025E+01</totfact>
</mgrwt>
</event>
<event>
 4    1  0.4639964E-008  0.5956796E+03  0.7818608E-02  0.9914410E-01
         -2   -1    0    0    0  501 -0.00000000000E+00  0.00000000000E+00  0.62842579703E+03  0.62842579704E+03  0.25500000000E-02 0.  1.
          2   -1    0    0  501    0  0.00000000000E+00 -0.00000000000E+00 -0.81686106350E+03  0.81686106351E+03  0.25500000000E-02 0. -1.
    8880022    1    1    2    0    0  0.40460185056E+03 -0.40956061780E+03 -0.49576873145E+03  0.77499731949E+03  0.15294330000E+03 0.  0.
    8880022    1    1    2    0    0 -0.40460185056E+03  0.40956061780E+03  0.30733346497E+03  0.67028954105E+03  0.15294330000E+03 0.  0.
<mgrwt>
<rscale>  0 0.59567962E+03</rscale>
<asrwt>0</asrwt>
<pdfrwt beam="1">  1        2 0.12567093E+00 0.59567962E+03</pdfrwt>
<pdfrwt beam="2">  1       -2 0.96680892E-01 0.59567962E+03</pdfrwt>
<totfact> 0.30863885E+01</totfact>
</mgrwt>
</event>
<event>
 4    1  0.4639964E-008  0.3048140E+03  0.7818608E-02  0.1082859E+00
          2   -1    0    0  501    0  0.00000000000E+00  0.00000000000E+00  0.94727151196E+03  0.94727151196E+03  0.25500000000E-02 0. -1.
         -2   -1    0    0    0  501 -0.00000000000E+00 -0.00000000000E+00 -0.53608560775E+03  0.53608560776E+03  0.25500000000E-02 0.  1.
    8880022    1    1    2    0    0  0.18505278962E+03 -0.18781748008E+03  0.87599728022E+03  0.92751432805E+03  0.15294330000E+03 0.  0.
    8880022    1    1    2    0    0 -0.18505278962E+03  0.18781748008E+03 -0.46481137601E+03  0.55584279167E+03  0.15294330000E+03 0.  1.
<mgrwt>
<rscale>  0 0.30481403E+03</rscale>
<asrwt>0</asrwt>
<pdfrwt beam="1">  1        2 0.14573408E+00 0.30481403E+03</pdfrwt>
<pdfrwt beam="2">  1       -2 0.82474709E-01 0.30481403E+03</pdfrwt>
<totfact> 0.37990081E+01</totfact>
</mgrwt>
</event>
<event>
 4    1  0.4639964E-008  0.3985610E+03  0.7818608E-02  0.1044279E+00
          2   -1    0    0  501    0  0.00000000000E+00  0.00000000000E+00  0.11479236361E+04  0.11479236361E+04  0.25500000000E-02 0. -1.
         -2   -1    0    0    0  501 -0.00000000000E+00 -0.00000000000E+00 -0.24301705596E+03  0.24301705597E+03  0.25500000000E-02 0.  1.
    8880022    1    1    2    0    0 -0.36028338104E+03 -0.75200422197E+02  0.90880620488E+03  0.99236061449E+03  0.15294330000E+03 0.  0.
    8880022    1    1    2    0    0  0.36028338104E+03  0.75200422197E+02 -0.38996247438E+01  0.39858007758E+03  0.15294330000E+03 0.  1.
<mgrwt>
<rscale>  0 0.39856100E+03</rscale>
<asrwt>0</asrwt>
<pdfrwt beam="1">  1        2 0.17660364E+00 0.39856100E+03</pdfrwt>
<pdfrwt beam="2">  1       -2 0.37387239E-01 0.39856100E+03</pdfrwt>
<totfact> 0.14391869E+02</totfact>
</mgrwt>
</event>
<event>
 4    1  0.4639964E-008  0.3420591E+03  0.7818608E-02  0.1065922E+00
          2   -1    0    0  501    0  0.00000000000E+00  0.00000000000E+00  0.43679529875E+04  0.43679529875E+04  0.25500000000E-02 0. -1.
         -2   -1    0    0    0  501 -0.00000000000E+00 -0.00000000000E+00 -0.81309180259E+02  0.81309180299E+02  0.25500000000E-02 0.  1.
    8880022    1    1    2    0    0 -0.30490534555E+03 -0.25406206444E+02  0.32163062451E+03  0.46952173188E+03  0.15294330000E+03 0.  0.
    8880022    1    1    2    0    0  0.30490534555E+03  0.25406206444E+02  0.39650131827E+04  0.39797404359E+04  0.15294330000E+03 0. -1.
<mgrwt>
<rscale>  0 0.34205906E+03</rscale>
<asrwt>0</asrwt>
<pdfrwt beam="1">  1        2 0.67199285E+00 0.34205906E+03</pdfrwt>
<pdfrwt beam="2">  1       -2 0.12509103E-01 0.34205906E+03</pdfrwt>
<totfact> 0.99679319E+00</totfact>
</mgrwt>
</event>
<event>
 4    1  0.4639964E-008  0.3782591E+03  0.7818608E-02  0.1051579E+00
          2   -1    0    0  501    0  0.00000000000E+00  0.00000000000E+00  0.18138543581E+04  0.18138543581E+04  0.25500000000E-02 0. -1.
         -2   -1    0    0    0  501 -0.00000000000E+00 -0.00000000000E+00 -0.19247416506E+03  0.19247416508E+03  0.25500000000E-02 0.  1.
    8880022    1    1    2    0    0 -0.44867403146E+02 -0.34303825340E+03  0.40034168694E+02  0.38037181131E+03  0.15294330000E+03 0.  0.
    8880022    1    1    2    0    0  0.44867403146E+02  0.34303825340E+03  0.15813460244E+04  0.16259567119E+04  0.15294330000E+03 0. -1.
<mgrwt>
<rscale>  0 0.37825914E+03</rscale>
<asrwt>0</asrwt>
<pdfrwt beam="1">  1        2 0.27905450E+00 0.37825914E+03</pdfrwt>
<pdfrwt beam="2">  1       -2 0.29611412E-01 0.37825914E+03</pdfrwt>
<totfact> 0.96021399E+01</totfact>
</mgrwt>
</event>
<event>
 4    1  0.4639964E-008  0.8081871E+03  0.7818608E-02  0.9548242E-01
          2   -1    0    0  501    0  0.00000000000E+00  0.00000000000E+00  0.25971801090E+04  0.25971801090E+04  0.25500000000E-02 0. -1.
         -2   -1    0    0    0  501 -0.00000000000E+00 -0.00000000000E+00 -0.57928861771E+03  0.57928861772E+03  0.25500000000E-02 0.  1.
    8880022    1    1    2    0    0  0.60935855445E+03 -0.50838662663E+03  0.22036770189E+04  0.23472023489E+04  0.15294330000E+03 0.  0.
    8880022    1    1    2    0    0 -0.60935855445E+03  0.50838662663E+03 -0.18578552765E+03  0.82926637778E+03  0.15294330000E+03 0.  0.
<mgrwt>
<rscale>  0 0.80818715E+03</rscale>
<asrwt>0</asrwt>
<pdfrwt beam="1">  1        2 0.39956617E+00 0.80818715E+03</pdfrwt>
<pdfrwt beam="2">  1       -2 0.89121326E-01 0.80818715E+03</pdfrwt>
<totfact> 0.34415706E+00</totfact>
</mgrwt>
</event>
<event>
 4    1  0.4639964E-008  0.7581730E+03  0.7818608E-02  0.9622615E-01
         -2   -1    0    0    0  501 -0.00000000000E+00  0.00000000000E+00  0.27985890062E+03  0.27985890064E+03  0.25500000000E-02 0.  1.
          2   -1    0    0  501    0  0.00000000000E+00 -0.00000000000E+00 -0.28334537421E+04  0.28334537421E+04  0.25500000000E-02 0. -1.
    8880022    1    1    2    0    0  0.50110477176E+03  0.54802250044E+03 -0.46033968665E+03  0.88698305135E+03  0.15294330000E+03 0.  0.
    8880022    1    1    2    0    0 -0.50110477176E+03 -0.54802250044E+03 -0.20932551548E+04  0.22263295914E+04  0.15294330000E+03 0.  0.
<mgrwt>
<rscale>  0 0.75817301E+03</rscale>
<asrwt>0</asrwt>
<pdfrwt beam="1">  1        2 0.43591594E+00 0.75817301E+03</pdfrwt>
<pdfrwt beam="2">  1       -2 0.43055217E-01 0.75817301E+03</pdfrwt>
<totfact> 0.11917367E+01</totfact>
</mgrwt>
</event>
<event>
 4    1  0.4639964E-008  0.6776962E+03  0.7818608E-02  0.9756154E-01
         -2   -1    0    0    0  501 -0.00000000000E+00  0.00000000000E+00  0.33275024346E+03  0.33275024347E+03  0.25500000000E-02 0.  1.
          2   -1    0    0  501    0  0.00000000000E+00 -0.00000000000E+00 -0.30912889700E+04  0.30912889700E+04  0.25500000000E-02 0. -1.
    8880022    1    1    2    0    0 -0.22358522348E+03  0.62120052670E+03 -0.26529816333E+04  0.27381715882E+04  0.15294330000E+03 0.  0.
    8880022    1    1    2    0    0  0.22358522348E+03 -0.62120052670E+03 -0.10555709325E+03  0.68586762533E+03  0.15294330000E+03 0.  0.
<mgrwt>
<rscale>  0 0.67769617E+03</rscale>
<asrwt>0</asrwt>
<pdfrwt beam="1">  1        2 0.47558290E+00 0.67769617E+03</pdfrwt>
<pdfrwt beam="2">  1       -2 0.51192347E-01 0.67769617E+03</pdfrwt>
<totfact> 0.59605175E+00</totfact>
</mgrwt>
</event>
<event>
 4    1  0.4639964E-008  0.7773614E+03  0.7818608E-02  0.9593376E-01
          2   -1    0    0  501    0  0.00000000000E+00  0.00000000000E+00  0.17425674467E+04  0.17425674467E+04  0.25500000000E-02 0. -1.
         -2   -1    0    0    0  501 -0.00000000000E+00 -0.00000000000E+00 -0.46121298366E+03  0.46121298366E+03  0.25500000000E-02 0.  1.
    8880022    1    1    2    0    0  0.15131594686E+03 -0.74699567628E+03  0.11895348830E+04  0.14210151115E+04  0.15294330000E+03 0.  0.
    8880022    1    1    2    0    0 -0.15131594686E+03  0.74699567628E+03  0.91819580046E+02  0.78276531889E+03  0.15294330000E+03 0.  0.
<mgrwt>
<rscale>  0 0.77736138E+03</rscale>
<asrwt>0</asrwt>
<pdfrwt beam="1">  1        2 0.26808730E+00 0.77736138E+03</pdfrwt>
<pdfrwt beam="2">  1       -2 0.70955843E-01 0.77736138E+03</pdfrwt>
<totfact> 0.17180076E+01</totfact>
</mgrwt>
</event>
<event>
 4    1  0.4639964E-008  0.2207942E+03  0.7818608E-02  0.1133292E+00
         -2   -1    0    0    0  501 -0.00000000000E+00  0.00000000000E+00  0.14439014282E+03  0.14439014284E+03  0.25500000000E-02 0.  1.
          2   -1    0    0  501    0  0.00000000000E+00 -0.00000000000E+00 -0.98725331665E+03  0.98725331665E+03  0.25500000000E-02 0. -1.
    8880022    1    1    2    0    0  0.76590462382E+02 -0.13961490695E+03  0.37551813893E+02  0.22396475819E+03  0.15294330000E+03 0.  1.
    8880022    1    1    2    0    0 -0.76590462382E+02  0.13961490695E+03 -0.88041498772E+03  0.90767870130E+03  0.15294330000E+03 0.  0.
<mgrwt>
<rscale>  0 0.22079419E+03</rscale>
<asrwt>0</asrwt>
<pdfrwt beam="1">  1        2 0.15188512E+00 0.22079419E+03</pdfrwt>
<pdfrwt beam="2">  1       -2 0.22213869E-01 0.22079419E+03</pdfrwt>
<totfact> 0.47316499E+02</totfact>
</mgrwt>
</event>
<event>
 4    1  0.4639964E-008  0.7450993E+03  0.7818608E-02  0.9643070E-01
         -2   -1    0    0    0  501 -0.00000000000E+00  0.00000000000E+00  0.35283524607E+03  0.35283524608E+03  0.25500000000E-02 0.  1.
          2   -1    0    0  501    0  0.00000000000E+00 -0.00000000000E+00 -0.28699486788E+04  0.28699486788E+04  0.25500000000E-02 0. -1.
    8880022    1    1    2    0    0  0.68589323946E+03  0.24765265570E+03 -0.23416056377E+04  0.24572932241E+04  0.15294330000E+03 0.  0.
    8880022    1    1    2    0    0 -0.68589323946E+03 -0.24765265570E+03 -0.17550779502E+03  0.76549070075E+03  0.15294330000E+03 0.  0.
<mgrwt>
<rscale>  0 0.74509934E+03</rscale>
<asrwt>0</asrwt>
<pdfrwt beam="1">  1        2 0.44153055E+00 0.74509934E+03</pdfrwt>
<pdfrwt beam="2">  1       -2 0.54282347E-01 0.74509934E+03</pdfrwt>
<totfact> 0.71103199E+00</totfact>
</mgrwt>
</event>
<event>
 4    1  0.4639964E-008  0.2116300E+03  0.7818608E-02  0.1140282E+00
         -2   -1    0    0    0  501 -0.00000000000E+00  0.00000000000E+00  0.16597464457E+04  0.16597464457E+04  0.25500000000E-02 0.  1.
          2   -1    0    0  501    0  0.00000000000E+00 -0.00000000000E+00 -0.89798237845E+02  0.89798237881E+02  0.25500000000E-02 0. -1.
    8880022    1    1    2    0    0 -0.12405177438E+03  0.77503413897E+02  0.53348705410E+02  0.21825067990E+03  0.15294330000E+03 0.  0.
    8880022    1    1    2    0    0  0.12405177438E+03 -0.77503413897E+02  0.15165995024E+04  0.15312940037E+04  0.15294330000E+03 0.  1.
<mgrwt>
<rscale>  0 0.21163004E+03</rscale>
<asrwt>0</asrwt>
<pdfrwt beam="1">  1        2 0.13815115E-01 0.21163004E+03</pdfrwt>
<pdfrwt beam="2">  1       -2 0.25534558E+00 0.21163004E+03</pdfrwt>
<totfact> 0.29099235E+01</totfact>
</mgrwt>
</event>
<event>
 4    1  0.4639964E-008  0.2109220E+03  0.7818608E-02  0.1140838E+00
         -2   -1    0    0    0  501 -0.00000000000E+00  0.00000000000E+00  0.55296634344E+02  0.55296634403E+02  0.25500000000E-02 0.  1.
          2   -1    0    0  501    0  0.00000000000E+00 -0.00000000000E+00 -0.27609122621E+04  0.27609122621E+04  0.25500000000E-02 0. -1.
    8880022    1    1    2    0    0  0.11023174968E+03  0.94580078369E+02 -0.25381257622E+04  0.25468746470E+04  0.15294330000E+03 0.  0.
    8880022    1    1    2    0    0 -0.11023174968E+03 -0.94580078369E+02 -0.16748986553E+03  0.26933424946E+03  0.15294330000E+03 0.  1.
<mgrwt>
<rscale>  0 0.21092198E+03</rscale>
<asrwt>0</asrwt>
<pdfrwt beam="1">  1        2 0.42475563E+00 0.21092198E+03</pdfrwt>
<pdfrwt beam="2">  1       -2 0.85071767E-02 0.21092198E+03</pdfrwt>
<totfact> 0.25132373E+02</totfact>
</mgrwt>
</event>
<event>
 4    1  0.4639964E-008  0.3439400E+03  0.7818608E-02  0.1065130E+00
          2   -1    0    0  501    0  0.00000000000E+00  0.00000000000E+00  0.88732237155E+03  0.88732237155E+03  0.25500000000E-02 0. -1.
         -2   -1    0    0    0  501 -0.00000000000E+00 -0.00000000000E+00 -0.22894473296E+03  0.22894473298E+03  0.25500000000E-02 0.  1.
    8880022    1    1    2    0    0  0.13710641427E+02  0.30775817324E+03  0.68990517095E+03  0.77088512296E+03  0.15294330000E+03 0.  0.
    8880022    1    1    2    0    0 -0.13710641427E+02 -0.30775817324E+03 -0.31527532364E+02  0.34538198157E+03  0.15294330000E+03 0.  0.
<mgrwt>
<rscale>  0 0.34394001E+03</rscale>
<asrwt>0</asrwt>
<pdfrwt beam="1">  1        2 0.13651113E+00 0.34394001E+03</pdfrwt>
<pdfrwt beam="2">  1       -2 0.35222267E-01 0.34394001E+03</pdfrwt>
<totfact> 0.23522408E+02</totfact>
</mgrwt>
</event>
<event>
 4    1  0.4639964E-008  0.3689812E+03  0.7818608E-02  0.1055083E+00
          2   -1    0    0  501    0  0.00000000000E+00  0.00000000000E+00  0.32913764709E+03  0.32913764710E+03  0.25500000000E-02 0. -1.
         -2   -1    0    0    0  501 -0.00000000000E+00 -0.00000000000E+00 -0.16837483768E+04  0.16837483768E+04  0.25500000000E-02 0.  1.
    8880022    1    1    2    0    0 -0.26269027910E+03 -0.20916335165E+03 -0.15514224501E+04  0.15946970753E+04  0.15294330000E+03 0.  0.
    8880022    1    1    2    0    0  0.26269027910E+03  0.20916335165E+03  0.19681172039E+03  0.41818894857E+03  0.15294330000E+03 0.  0.
<mgrwt>
<rscale>  0 0.36898122E+03</rscale>
<asrwt>0</asrwt>
<pdfrwt beam="1">  1        2 0.50636562E-01 0.36898122E+03</pdfrwt>
<pdfrwt beam="2">  1       -2 0.25903821E+00 0.36898122E+03</pdfrwt>
<totfact> 0.61513293E+00</totfact>
</mgrwt>
</event>
<event>
 4    1  0.4639964E-008  0.4726702E+03  0.7818608E-02  0.1021169E+00
          2   -1    0    0  501    0  0.00000000000E+00  0.00000000000E+00  0.75799306554E+03  0.75799306554E+03  0.25500000000E-02 0. -1.
         -2   -1    0    0    0  501 -0.00000000000E+00 -0.00000000000E+00 -0.77070718773E+03  0.77070718774E+03  0.25500000000E-02 0.  1.
    8880022    1    1    2    0    0 -0.27367610118E+03  0.35373278767E+03 -0.60702212122E+03  0.76934582737E+03  0.15294330000E+03 0.  1.
    8880022    1    1    2    0    0  0.27367610118E+03 -0.35373278767E+03  0.59430799902E+03  0.75935442591E+03  0.15294330000E+03 0.  0.
<mgrwt>
<rscale>  0 0.47267023E+03</rscale>
<asrwt>0</asrwt>
<pdfrwt beam="1">  1        2 0.11661432E+00 0.47267023E+03</pdfrwt>
<pdfrwt beam="2">  1       -2 0.11857034E+00 0.47267023E+03</pdfrwt>
<totfact> 0.21209290E+01</totfact>
</mgrwt>
</event>
<event>
 4    1  0.4639964E-008  0.1858595E+03  0.7818608E-02  0.1162250E+00
          2   -1    0    0  501    0  0.00000000000E+00  0.00000000000E+00  0.16913290023E+04  0.16913290023E+04  0.25500000000E-02 0. -1.
         -2   -1    0    0    0  501 -0.00000000000E+00 -0.00000000000E+00 -0.23261945354E+03  0.23261945356E+03  0.25500000000E-02 0.  1.
    8880022    1    1    2    0    0 -0.89550707429E+01 -0.10522320463E+03  0.16481281870E+04  0.16585747767E+04  0.15294330000E+03 0.  0.
    8880022    1    1    2    0    0  0.89550707429E+01  0.10522320463E+03 -0.18941863822E+03  0.26537367919E+03  0.15294330000E+03 0.  1.
<mgrwt>
<rscale>  0 0.18585954E+03</rscale>
<asrwt>0</asrwt>
<pdfrwt beam="1">  1        2 0.26020446E+00 0.18585954E+03</pdfrwt>
<pdfrwt beam="2">  1       -2 0.35787608E-01 0.18585954E+03</pdfrwt>
<totfact> 0.82896599E+01</totfact>
</mgrwt>
</event>
<event>
 4    1  0.4639964E-008  0.5145339E+03  0.7818608E-02  0.1010053E+00
          2   -1    0    0  501    0  0.00000000000E+00  0.00000000000E+00  0.15119613852E+04  0.15119613852E+04  0.25500000000E-02 0. -1.
         -2   -1    0    0    0  501 -0.00000000000E+00 -0.00000000000E+00 -0.26489355952E+03  0.26489355953E+03  0.25500000000E-02 0.  1.
    8880022    1    1    2    0    0 -0.97190820124E+02 -0.48156765794E+03  0.10627523238E+03  0.52539465425E+03  0.15294330000E+03 0.  0.
    8880022    1    1    2    0    0  0.97190820124E+02  0.48156765794E+03  0.11407925933E+04  0.12514602904E+04  0.15294330000E+03 0.  0.
<mgrwt>
<rscale>  0 0.51453388E+03</rscale>
<asrwt>0</asrwt>
<pdfrwt beam="1">  1        2 0.23260944E+00 0.51453388E+03</pdfrwt>
<pdfrwt beam="2">  1       -2 0.40752855E-01 0.51453388E+03</pdfrwt>
<totfact> 0.74725254E+01</totfact>
</mgrwt>
</event>
<event>
 4    1  0.4639964E-008  0.6559300E+03  0.7818608E-02  0.9795715E-01
          2   -1    0    0  501    0  0.00000000000E+00  0.00000000000E+00  0.66860218780E+03  0.66860218781E+03  0.25500000000E-02 0. -1.
         -2   -1    0    0    0  501 -0.00000000000E+00 -0.00000000000E+00 -0.10195972613E+04  0.10195972613E+04  0.25500000000E-02 0.  1.
    8880022    1    1    2    0    0 -0.61632122078E+03 -0.16431882857E+03 -0.68815898805E+03  0.95068763033E+03  0.15294330000E+03 0.  0.
    8880022    1    1    2    0    0  0.61632122078E+03  0.16431882857E+03  0.33716391453E+03  0.73751181881E+03  0.15294330000E+03 0.  0.
<mgrwt>
<rscale>  0 0.65593001E+03</rscale>
<asrwt>0</asrwt>
<pdfrwt beam="1">  1        2 0.10286188E+00 0.65593001E+03</pdfrwt>
<pdfrwt beam="2">  1       -2 0.15686112E+00 0.65593001E+03</pdfrwt>
<totfact> 0.11843231E+01</totfact>
</mgrwt>
</event>
<event>
 4    1  0.4639964E-008  0.5705298E+03  0.7818608E-02  0.9968507E-01
         -2   -1    0    0    0  501 -0.00000000000E+00  0.00000000000E+00  0.39268491306E+03  0.39268491307E+03  0.25500000000E-02 0.  1.
          2   -1    0    0  501    0  0.00000000000E+00 -0.00000000000E+00 -0.12072622556E+04  0.12072622556E+04  0.25500000000E-02 0. -1.
    8880022    1    1    2    0    0  0.54761638628E+03  0.47211137722E+02  0.40545723286E+02  0.57196871133E+03  0.15294330000E+03 0.  0.
    8880022    1    1    2    0    0 -0.54761638628E+03 -0.47211137722E+02 -0.85512306584E+03  0.10279784574E+04  0.15294330000E+03 0.  0.
<mgrwt>
<rscale>  0 0.57052980E+03</rscale>
<asrwt>0</asrwt>
<pdfrwt beam="1">  1        2 0.18573265E+00 0.57052980E+03</pdfrwt>
<pdfrwt beam="2">  1       -2 0.60413064E-01 0.57052980E+03</pdfrwt>
<totfact> 0.49681641E+01</totfact>
</mgrwt>
</event>
<event>
 4    1  0.4639964E-008  0.7416425E+03  0.7818608E-02  0.9648554E-01
          2   -1    0    0  501    0  0.00000000000E+00  0.00000000000E+00  0.32139069347E+04  0.32139069347E+04  0.25500000000E-02 0. -1.
         -2   -1    0    0    0  501 -0.00000000000E+00 -0.00000000000E+00 -0.23828263475E+03  0.23828263476E+03  0.25500000000E-02 0.  1.
    8880022    1    1    2    0    0  0.71602077638E+03 -0.11813624207E+03  0.57156622888E+03  0.93633409150E+03  0.15294330000E+03 0.  0.
    8880022    1    1    2    0    0 -0.71602077638E+03  0.11813624207E+03  0.24040580710E+04  0.25158554779E+04  0.15294330000E+03 0.  0.
<mgrwt>
<rscale>  0 0.74164249E+03</rscale>
<asrwt>0</asrwt>
<pdfrwt beam="1">  1        2 0.49444722E+00 0.74164249E+03</pdfrwt>
<pdfrwt beam="2">  1       -2 0.36658867E-01 0.74164249E+03</pdfrwt>
<totfact> 0.95387716E+00</totfact>
</mgrwt>
</event>
<event>
 4    1  0.4639964E-008  0.6824026E+03  0.7818608E-02  0.9747809E-01
          2   -1    0    0  501    0  0.00000000000E+00  0.00000000000E+00  0.15241608927E+04  0.15241608927E+04  0.25500000000E-02 0. -1.
         -2   -1    0    0    0  501 -0.00000000000E+00 -0.00000000000E+00 -0.40484597685E+03  0.40484597686E+03  0.25500000000E-02 0.  1.
    8880022    1    1    2    0    0 -0.62491862900E+03 -0.22750455851E+03  0.10373776507E+04  0.12417027262E+04  0.15294330000E+03 0.  0.
    8880022    1    1    2    0    0  0.62491862900E+03  0.22750455851E+03  0.81937265091E+02  0.68730414333E+03  0.15294330000E+03 0.  0.
<mgrwt>
<rscale>  0 0.68240257E+03</rscale>
<asrwt>0</asrwt>
<pdfrwt beam="1">  1        2 0.23448630E+00 0.68240257E+03</pdfrwt>
<pdfrwt beam="2">  1       -2 0.62283995E-01 0.68240257E+03</pdfrwt>
<totfact> 0.30371747E+01</totfact>
</mgrwt>
</event>
<event>
 4    1  0.4639964E-008  0.6281511E+03  0.7818608E-02  0.9848663E-01
         -2   -1    0    0    0  501 -0.00000000000E+00  0.00000000000E+00  0.38541952037E+03  0.38541952038E+03  0.25500000000E-02 0.  1.
          2   -1    0    0  501    0  0.00000000000E+00 -0.00000000000E+00 -0.20555807347E+04  0.20555807347E+04  0.25500000000E-02 0. -1.
    8880022    1    1    2    0    0 -0.57892793611E+02  0.60649037530E+03  0.29637351344E+02  0.62884988391E+03  0.15294330000E+03 0.  0.
    8880022    1    1    2    0    0  0.57892793611E+02 -0.60649037530E+03 -0.16997985657E+04  0.18121503712E+04  0.15294330000E+03 0.  0.
<mgrwt>
<rscale>  0 0.62815110E+03</rscale>
<asrwt>0</asrwt>
<pdfrwt beam="1">  1        2 0.31624318E+00 0.62815110E+03</pdfrwt>
<pdfrwt beam="2">  1       -2 0.59295312E-01 0.62815110E+03</pdfrwt>
<totfact> 0.17440505E+01</totfact>
</mgrwt>
</event>
<event>
 4    1  0.4639964E-008  0.6625972E+03  0.7818608E-02  0.9783424E-01
          2   -1    0    0  501    0  0.00000000000E+00  0.00000000000E+00  0.10684042384E+04  0.10684042384E+04  0.25500000000E-02 0. -1.
         -2   -1    0    0    0  501 -0.00000000000E+00 -0.00000000000E+00 -0.50287065264E+03  0.50287065265E+03  0.25500000000E-02 0.  1.
    8880022    1    1    2    0    0 -0.37046243660E+03 -0.52763716302E+03  0.61870340905E+03  0.90654782230E+03  0.15294330000E+03 0.  0.
    8880022    1    1    2    0    0  0.37046243660E+03  0.52763716302E+03 -0.53169823336E+02  0.66472706870E+03  0.15294330000E+03 0.  0.
<mgrwt>
<rscale>  0 0.66259720E+03</rscale>
<asrwt>0</asrwt>
<pdfrwt beam="1">  1        2 0.16436988E+00 0.66259720E+03</pdfrwt>
<pdfrwt beam="2">  1       -2 0.77364717E-01 0.66259720E+03</pdfrwt>
<totfact> 0.34848091E+01</totfact>
</mgrwt>
</event>
<event>
 4    1  0.4639964E-008  0.6701166E+03  0.7818608E-02  0.9769747E-01
          2   -1    0    0  501    0  0.00000000000E+00  0.00000000000E+00  0.14651186622E+04  0.14651186622E+04  0.25500000000E-02 0. -1.
         -2   -1    0    0    0  501 -0.00000000000E+00 -0.00000000000E+00 -0.51589926067E+03  0.51589926068E+03  0.25500000000E-02 0.  1.
    8880022    1    1    2    0    0  0.10781822181E+03 -0.64345923266E+03 -0.15644268623E+03  0.68813553908E+03  0.15294330000E+03 0.  0.
    8880022    1    1    2    0    0 -0.10781822181E+03  0.64345923266E+03  0.11056620878E+04  0.12928823838E+04  0.15294330000E+03 0.  0.
<mgrwt>
<rscale>  0 0.67011656E+03</rscale>
<asrwt>0</asrwt>
<pdfrwt beam="1">  1        2 0.22540287E+00 0.67011656E+03</pdfrwt>
<pdfrwt beam="2">  1       -2 0.79369117E-01 0.67011656E+03</pdfrwt>
<totfact> 0.19329397E+01</totfact>
</mgrwt>
</event>
<event>
 4    1  0.4639964E-008  0.3582279E+03  0.7818608E-02  0.1059288E+00
         -2   -1    0    0    0  501 -0.00000000000E+00  0.00000000000E+00  0.41515093766E+03  0.41515093767E+03  0.25500000000E-02 0.  1.
          2   -1    0    0  501    0  0.00000000000E+00 -0.00000000000E+00 -0.67839982536E+03  0.67839982537E+03  0.25500000000E-02 0. -1.
    8880022    1    1    2    0    0  0.27422224049E+03 -0.17244629847E+03  0.27178855456E+03  0.44966235604E+03  0.15294330000E+03 0.  0.
    8880022    1    1    2    0    0 -0.27422224049E+03  0.17244629847E+03 -0.53503744226E+03  0.64388840700E+03  0.15294330000E+03 0.  0.
<mgrwt>
<rscale>  0 0.35822788E+03</rscale>
<asrwt>0</asrwt>
<pdfrwt beam="1">  1        2 0.10436920E+00 0.35822788E+03</pdfrwt>
<pdfrwt beam="2">  1       -2 0.63869375E-01 0.35822788E+03</pdfrwt>
<totfact> 0.10108380E+02</totfact>
</mgrwt>
</event>
<event>
 4    1  0.4639964E-008  0.7463665E+03  0.7818608E-02  0.9641068E-01
          2   -1    0    0  501    0  0.00000000000E+00  0.00000000000E+00  0.10110102383E+04  0.10110102383E+04  0.25500000000E-02 0. -1.
         -2   -1    0    0    0  501 -0.00000000000E+00 -0.00000000000E+00 -0.79302055411E+03  0.79302055412E+03  0.25500000000E-02 0.  1.
    8880022    1    1    2    0    0 -0.54222728762E+03  0.48955167417E+03 -0.38931693452E+03  0.84180199670E+03  0.15294330000E+03 0.  1.
    8880022    1    1    2    0    0  0.54222728762E+03 -0.48955167417E+03  0.60730661867E+03  0.96222879568E+03  0.15294330000E+03 0.  0.
<mgrwt>
<rscale>  0 0.74636648E+03</rscale>
<asrwt>0</asrwt>
<pdfrwt beam="1">  1        2 0.15554004E+00 0.74636648E+03</pdfrwt>
<pdfrwt beam="2">  1       -2 0.12200316E+00 0.74636648E+03</pdfrwt>
<totfact> 0.12849026E+01</totfact>
</mgrwt>
</event>
<event>
 4    1  0.4639964E-008  0.4749754E+03  0.7818608E-02  0.1020525E+00
          2   -1    0    0  501    0  0.00000000000E+00  0.00000000000E+00  0.19385786396E+04  0.19385786396E+04  0.25500000000E-02 0. -1.
         -2   -1    0    0    0  501 -0.00000000000E+00 -0.00000000000E+00 -0.35025440227E+03  0.35025440228E+03  0.25500000000E-02 0.  1.
    8880022    1    1    2    0    0  0.49499854579E+02  0.44694491047E+03  0.17293277110E+04  0.17933700047E+04  0.15294330000E+03 0.  0.
    8880022    1    1    2    0    0 -0.49499854579E+02 -0.44694491047E+03 -0.14100347371E+03  0.49546303718E+03  0.15294330000E+03 0.  1.
<mgrwt>
<rscale>  0 0.47497541E+03</rscale>
<asrwt>0</asrwt>
<pdfrwt beam="1">  1        2 0.29824287E+00 0.47497541E+03</pdfrwt>
<pdfrwt beam="2">  1       -2 0.53885293E-01 0.47497541E+03</pdfrwt>
<totfact> 0.25336798E+01</totfact>
</mgrwt>
</event>
<event>
 4    1  0.4639964E-008  0.2406005E+03  0.7818608E-02  0.1119393E+00
          2   -1    0    0  501    0  0.00000000000E+00  0.00000000000E+00  0.31836578151E+03  0.31836578152E+03  0.25500000000E-02 0. -1.
         -2   -1    0    0    0  501 -0.00000000000E+00 -0.00000000000E+00 -0.25034567424E+03  0.25034567425E+03  0.25500000000E-02 0.  1.
    8880022    1    1    2    0    0  0.15879104756E+03  0.96344889428E+02 -0.11474972880E+03  0.26656347796E+03  0.15294330000E+03 0.  0.
    8880022    1    1    2    0    0 -0.15879104756E+03 -0.96344889428E+02  0.18276983608E+03  0.30214797782E+03  0.15294330000E+03 0.  0.
<mgrwt>
<rscale>  0 0.24060047E+03</rscale>
<asrwt>0</asrwt>
<pdfrwt beam="1">  1        2 0.48979351E-01 0.24060047E+03</pdfrwt>
<pdfrwt beam="2">  1       -2 0.38514719E-01 0.24060047E+03</pdfrwt>
<totfact> 0.65845701E+02</totfact>
</mgrwt>
</event>
<event>
 4    1  0.4639964E-008  0.5138656E+03  0.7818608E-02  0.1010222E+00
          2   -1    0    0  501    0  0.00000000000E+00  0.00000000000E+00  0.22307883305E+04  0.22307883305E+04  0.25500000000E-02 0. -1.
         -2   -1    0    0    0  501 -0.00000000000E+00 -0.00000000000E+00 -0.59528439634E+03  0.59528439634E+03  0.25500000000E-02 0.  1.
    8880022    1    1    2    0    0 -0.33160273614E+03  0.36153265568E+03 -0.44701761539E+03  0.68108930194E+03  0.15294330000E+03 0.  0.
    8880022    1    1    2    0    0  0.33160273614E+03 -0.36153265568E+03  0.20825215496E+04  0.21449834249E+04  0.15294330000E+03 0.  0.
<mgrwt>
<rscale>  0 0.51386563E+03</rscale>
<asrwt>0</asrwt>
<pdfrwt beam="1">  1        2 0.34319820E+00 0.51386563E+03</pdfrwt>
<pdfrwt beam="2">  1       -2 0.91582215E-01 0.51386563E+03</pdfrwt>
<totfact> 0.55114136E+00</totfact>
</mgrwt>
</event>
<event>
 4    1  0.4639964E-008  0.6432078E+03  0.7818608E-02  0.9819608E-01
         -2   -1    0    0    0  501 -0.00000000000E+00  0.00000000000E+00  0.34431182770E+03  0.34431182771E+03  0.25500000000E-02 0.  1.
          2   -1    0    0  501    0  0.00000000000E+00 -0.00000000000E+00 -0.18145442339E+04  0.18145442339E+04  0.25500000000E-02 0. -1.
    8880022    1    1    2    0    0 -0.47294216400E+03  0.40822824072E+03 -0.10773789049E+03  0.65216845452E+03  0.15294330000E+03 0.  0.
    8880022    1    1    2    0    0  0.47294216400E+03 -0.40822824072E+03 -0.13624945157E+04  0.15066876071E+04  0.15294330000E+03 0.  0.
<mgrwt>
<rscale>  0 0.64320777E+03</rscale>
<asrwt>0</asrwt>
<pdfrwt beam="1">  1        2 0.27916065E+00 0.64320777E+03</pdfrwt>
<pdfrwt beam="2">  1       -2 0.52971051E-01 0.64320777E+03</pdfrwt>
<totfact> 0.29719511E+01</totfact>
</mgrwt>
</event>
<event>
 4    1  0.4639964E-008  0.5571543E+03  0.7818608E-02  0.9998514E-01
          2   -1    0    0  501    0  0.00000000000E+00  0.00000000000E+00  0.14141276202E+04  0.14141276202E+04  0.25500000000E-02 0. -1.
         -2   -1    0    0    0  501 -0.00000000000E+00 -0.00000000000E+00 -0.42522508171E+03  0.42522508171E+03  0.25500000000E-02 0.  1.
    8880022    1    1    2    0    0 -0.13722139744E+03 -0.51787986619E+03 -0.14521631635E+03  0.57576792136E+03  0.15294330000E+03 0.  0.
    8880022    1    1    2    0    0  0.13722139744E+03  0.51787986619E+03  0.11341188549E+04  0.12635847806E+04  0.15294330000E+03 0.  0.
<mgrwt>
<rscale>  0 0.55715431E+03</rscale>
<asrwt>0</asrwt>
<pdfrwt beam="1">  1        2 0.21755810E+00 0.55715431E+03</pdfrwt>
<pdfrwt beam="2">  1       -2 0.65419243E-01 0.55715431E+03</pdfrwt>
<totfact> 0.32032994E+01</totfact>
</mgrwt>
</event>
<event>
 4    1  0.4639964E-008  0.9417005E+03  0.7818608E-02  0.9374904E-01
          2   -1    0    0  501    0  0.00000000000E+00  0.00000000000E+00  0.42031789393E+04  0.42031789393E+04  0.25500000000E-02 0. -1.
         -2   -1    0    0    0  501 -0.00000000000E+00 -0.00000000000E+00 -0.34262434400E+03  0.34262434401E+03  0.25500000000E-02 0.  1.
    8880022    1    1    2    0    0  0.40999349038E+03  0.83385464676E+03  0.52141853320E+03  0.10764186796E+04  0.15294330000E+03 0.  0.
    8880022    1    1    2    0    0 -0.40999349038E+03 -0.83385464676E+03  0.33391360621E+04  0.34693846037E+04  0.15294330000E+03 0.  0.
<mgrwt>
<rscale>  0 0.94170053E+03</rscale>
<asrwt>0</asrwt>
<pdfrwt beam="1">  1        2 0.64664292E+00 0.94170053E+03</pdfrwt>
<pdfrwt beam="2">  1       -2 0.52711437E-01 0.94170053E+03</pdfrwt>
<totfact> 0.84357540E-01</totfact>
</mgrwt>
</event>
<event>
 4    1  0.4639964E-008  0.2283161E+03  0.7818608E-02  0.1127831E+00
         -2   -1    0    0    0  501 -0.00000000000E+00  0.00000000000E+00  0.51873239120E+02  0.51873239183E+02  0.25500000000E-02 0.  1.
          2   -1    0    0  501    0  0.00000000000E+00 -0.00000000000E+00 -0.13212589159E+04  0.13212589159E+04  0.25500000000E-02 0. -1.
    8880022    1    1    2    0    0 -0.13392985929E+03  0.10392004824E+03 -0.29874830149E+03  0.37600370250E+03  0.15294330000E+03 0.  0.
    8880022    1    1    2    0    0  0.13392985929E+03 -0.10392004824E+03 -0.97063737530E+03  0.99712845259E+03  0.15294330000E+03 0. -1.
<mgrwt>
<rscale>  0 0.22831609E+03</rscale>
<asrwt>0</asrwt>
<pdfrwt beam="1">  1        2 0.20327058E+00 0.22831609E+03</pdfrwt>
<pdfrwt beam="2">  1       -2 0.79804993E-02 0.22831609E+03</pdfrwt>
<totfact> 0.16232611E+03</totfact>
</mgrwt>
</event>
<event>
 4    1  0.4639964E-008  0.1917389E+03  0.7818608E-02  0.1156902E+00
          2   -1    0    0  501    0  0.00000000000E+00  0.00000000000E+00  0.23868540844E+04  0.23868540844E+04  0.25500000000E-02 0. -1.
         -2   -1    0    0    0  501 -0.00000000000E+00 -0.00000000000E+00 -0.11917790601E+03  0.11917790603E+03  0.25500000000E-02 0.  1.
    8880022    1    1    2    0    0 -0.58343288441E+02  0.99841012743E+02 -0.35407384087E+02  0.19498077596E+03  0.15294330000E+03 0.  0.
    8880022    1    1    2    0    0  0.58343288441E+02 -0.99841012743E+02  0.23030835625E+04  0.23110512145E+04  0.15294330000E+03 0. -1.
<mgrwt>
<rscale>  0 0.19173894E+03</rscale>
<asrwt>0</asrwt>
<pdfrwt beam="1">  1        2 0.36720830E+00 0.19173894E+03</pdfrwt>
<pdfrwt beam="2">  1       -2 0.18335063E-01 0.19173894E+03</pdfrwt>
<totfact> 0.11695720E+02</totfact>
</mgrwt>
</event>
<event>
 4    1  0.4639964E-008  0.1000104E+04  0.7818608E-02  0.9308431E-01
          2   -1    0    0  501    0  0.00000000000E+00  0.00000000000E+00  0.10061314369E+04  0.10061314369E+04  0.25500000000E-02 0. -1.
         -2   -1    0    0    0  501 -0.00000000000E+00 -0.00000000000E+00 -0.21704189982E+04  0.21704189982E+04  0.25500000000E-02 0.  1.
    8880022    1    1    2    0    0 -0.98819501482E+03  0.16921733526E+02 -0.17514124140E+04  0.20168422916E+04  0.15294330000E+03 0.  0.
    8880022    1    1    2    0    0  0.98819501482E+03 -0.16921733526E+02  0.58712485267E+03  0.11597081435E+04  0.15294330000E+03 0.  0.
<mgrwt>
<rscale>  0 0.10001037E+04</rscale>
<asrwt>0</asrwt>
<pdfrwt beam="1">  1        2 0.15478945E+00 0.10001037E+04</pdfrwt>
<pdfrwt beam="2">  1       -2 0.33391061E+00 0.10001037E+04</pdfrwt>
<totfact> 0.49432769E-01</totfact>
</mgrwt>
</event>
<event>
 4    1  0.4639964E-008  0.2536415E+03  0.7818608E-02  0.1111025E+00
         -2   -1    0    0    0  501 -0.00000000000E+00  0.00000000000E+00  0.15254181871E+03  0.15254181873E+03  0.25500000000E-02 0.  1.
          2   -1    0    0  501    0  0.00000000000E+00 -0.00000000000E+00 -0.96002960382E+03  0.96002960382E+03  0.25500000000E-02 0. -1.
    8880022    1    1    2    0    0  0.54548176004E+02  0.19485089135E+03  0.12800064695E+02  0.25396430465E+03  0.15294330000E+03 0.  1.
    8880022    1    1    2    0    0 -0.54548176004E+02 -0.19485089135E+03 -0.82028784981E+03  0.85860711791E+03  0.15294330000E+03 0.  0.
<mgrwt>
<rscale>  0 0.25364153E+03</rscale>
<asrwt>0</asrwt>
<pdfrwt beam="1">  1        2 0.14769686E+00 0.25364153E+03</pdfrwt>
<pdfrwt beam="2">  1       -2 0.23467973E-01 0.25364153E+03</pdfrwt>
<totfact> 0.44550230E+02</totfact>
</mgrwt>
</event>
<event>
 4    1  0.4639964E-008  0.4791417E+03  0.7818608E-02  0.1019371E+00
          2   -1    0    0  501    0  0.00000000000E+00  0.00000000000E+00  0.12366671190E+04  0.12366671190E+04  0.25500000000E-02 0. -1.
         -2   -1    0    0    0  501 -0.00000000000E+00 -0.00000000000E+00 -0.36471438368E+03  0.36471438368E+03  0.25500000000E-02 0.  1.
    8880022    1    1    2    0    0  0.32202855157E+03 -0.32012918819E+03  0.99702858204E+03  0.11061838598E+04  0.15294330000E+03 0.  0.
    8880022    1    1    2    0    0 -0.32202855157E+03  0.32012918819E+03 -0.12507584669E+03  0.49519764296E+03  0.15294330000E+03 0.  0.
<mgrwt>
<rscale>  0 0.47914167E+03</rscale>
<asrwt>0</asrwt>
<pdfrwt beam="1">  1        2 0.19025648E+00 0.47914167E+03</pdfrwt>
<pdfrwt beam="2">  1       -2 0.56109905E-01 0.47914167E+03</pdfrwt>
<totfact> 0.56427460E+01</totfact>
</mgrwt>
</event>
<event>
 4    1  0.4639964E-008  0.1129518E+04  0.7818608E-02  0.9176890E-01
         -2   -1    0    0    0  501 -0.00000000000E+00  0.00000000000E+00  0.65906326379E+03  0.65906326379E+03  0.25500000000E-02 0.  1.
          2   -1    0    0  501    0  0.00000000000E+00 -0.00000000000E+00 -0.21186058637E+04  0.21186058637E+04  0.25500000000E-02 0. -1.
    8880022    1    1    2    0    0 -0.25534640118E+02 -0.11188237916E+04 -0.32180125558E+03  0.11744643015E+04  0.15294330000E+03 0.  0.
    8880022    1    1    2    0    0  0.25534640118E+02  0.11188237916E+04 -0.11377413443E+04  0.16032048260E+04  0.15294330000E+03 0.  0.
<mgrwt>
<rscale>  0 0.11295177E+04</rscale>
<asrwt>0</asrwt>
<pdfrwt beam="1">  1        2 0.32593936E+00 0.11295177E+04</pdfrwt>
<pdfrwt beam="2">  1       -2 0.10139435E+00 0.11295177E+04</pdfrwt>
<totfact> 0.45249786E+00</totfact>
</mgrwt>
</event>
<event>
 4    1  0.4639964E-008  0.6480662E+03  0.7818608E-02  0.9810415E-01
         -2   -1    0    0    0  501 -0.00000000000E+00  0.00000000000E+00  0.53789843148E+03  0.53789843149E+03  0.25500000000E-02 0.  1.
          2   -1    0    0  501    0  0.00000000000E+00 -0.00000000000E+00 -0.12772483646E+04  0.12772483646E+04  0.25500000000E-02 0. -1.
    8880022    1    1    2    0    0  0.11981579308E+03  0.61825745460E+03 -0.93550006837E+03  0.11380466315E+04  0.15294330000E+03 0.  0.
    8880022    1    1    2    0    0 -0.11981579308E+03 -0.61825745460E+03  0.19615013520E+03  0.67710016467E+03  0.15294330000E+03 0.  0.
<mgrwt>
<rscale>  0 0.64806617E+03</rscale>
<asrwt>0</asrwt>
<pdfrwt beam="1">  1        2 0.19649975E+00 0.64806617E+03</pdfrwt>
<pdfrwt beam="2">  1       -2 0.82753605E-01 0.64806617E+03</pdfrwt>
<totfact> 0.22544928E+01</totfact>
</mgrwt>
</event>
<event>
 4    1  0.4639964E-008  0.5746629E+03  0.7818608E-02  0.9959413E-01
          2   -1    0    0  501    0  0.00000000000E+00  0.00000000000E+00  0.31658659360E+04  0.31658659360E+04  0.25500000000E-02 0. -1.
         -2   -1    0    0    0  501 -0.00000000000E+00 -0.00000000000E+00 -0.31104320331E+03  0.31104320332E+03  0.25500000000E-02 0.  1.
    8880022    1    1    2    0    0 -0.55367865380E+03  0.16903125509E+02  0.28446929135E+04  0.29021569896E+04  0.15294330000E+03 0.  0.
    8880022    1    1    2    0    0  0.55367865380E+03 -0.16903125509E+02  0.10129819181E+02  0.57475214969E+03  0.15294330000E+03 0.  0.
<mgrwt>
<rscale>  0 0.57466288E+03</rscale>
<asrwt>0</asrwt>
<pdfrwt beam="1">  1        2 0.48705626E+00 0.57466288E+03</pdfrwt>
<pdfrwt beam="2">  1       -2 0.47852804E-01 0.57466288E+03</pdfrwt>
<totfact> 0.62892527E+00</totfact>
</mgrwt>
</event>
<event>
 4    1  0.4639964E-008  0.5486114E+03  0.7818608E-02  0.1001816E+00
         -2   -1    0    0    0  501 -0.00000000000E+00  0.00000000000E+00  0.49233617073E+03  0.49233617074E+03  0.25500000000E-02 0.  1.
          2   -1    0    0  501    0  0.00000000000E+00 -0.00000000000E+00 -0.98973225823E+03  0.98973225823E+03  0.25500000000E-02 0. -1.
    8880022    1    1    2    0    0  0.11536554475E+03  0.51407547413E+03  0.20950985383E+03  0.58725533960E+03  0.15294330000E+03 0.  1.
    8880022    1    1    2    0    0 -0.11536554475E+03 -0.51407547413E+03 -0.70690594133E+03  0.89481308938E+03  0.15294330000E+03 0.  0.
<mgrwt>
<rscale>  0 0.54861139E+03</rscale>
<asrwt>0</asrwt>
<pdfrwt beam="1">  1        2 0.15226650E+00 0.54861139E+03</pdfrwt>
<pdfrwt beam="2">  1       -2 0.75744026E-01 0.54861139E+03</pdfrwt>
<totfact> 0.41450624E+01</totfact>
</mgrwt>
</event>
<event>
 4    1  0.4639964E-008  0.7526740E+03  0.7818608E-02  0.9631165E-01
         -2   -1    0    0    0  501 -0.00000000000E+00  0.00000000000E+00  0.34302180477E+03  0.34302180478E+03  0.25500000000E-02 0.  1.
          2   -1    0    0  501    0  0.00000000000E+00 -0.00000000000E+00 -0.22898902557E+04  0.22898902558E+04  0.25500000000E-02 0. -1.
    8880022    1    1    2    0    0  0.71771559542E+03  0.16736441789E+03 -0.16684979593E+04  0.18304107783E+04  0.15294330000E+03 0.  0.
    8880022    1    1    2    0    0 -0.71771559542E+03 -0.16736441789E+03 -0.27837049171E+03  0.80250128221E+03  0.15294330000E+03 0.  0.
<mgrwt>
<rscale>  0 0.75267402E+03</rscale>
<asrwt>0</asrwt>
<pdfrwt beam="1">  1        2 0.35229080E+00 0.75267402E+03</pdfrwt>
<pdfrwt beam="2">  1       -2 0.52772587E-01 0.75267402E+03</pdfrwt>
<totfact> 0.16199139E+01</totfact>
</mgrwt>
</event>
<event>
 4    1  0.4639964E-008  0.6576822E+03  0.7818608E-02  0.9792470E-01
         -2   -1    0    0    0  501 -0.00000000000E+00  0.00000000000E+00  0.53049962003E+03  0.53049962004E+03  0.25500000000E-02 0.  1.
          2   -1    0    0  501    0  0.00000000000E+00 -0.00000000000E+00 -0.22856200028E+04  0.22856200028E+04  0.25500000000E-02 0. -1.
    8880022    1    1    2    0    0  0.55631957822E+03  0.31569403828E+03  0.25175925310E+03  0.70422196320E+03  0.15294330000E+03 0.  0.
    8880022    1    1    2    0    0 -0.55631957822E+03 -0.31569403828E+03 -0.20068796359E+04  0.21118976596E+04  0.15294330000E+03 0.  0.
<mgrwt>
<rscale>  0 0.65768218E+03</rscale>
<asrwt>0</asrwt>
<pdfrwt beam="1">  1        2 0.35163384E+00 0.65768218E+03</pdfrwt>
<pdfrwt beam="2">  1       -2 0.81615327E-01 0.65768218E+03</pdfrwt>
<totfact> 0.64759791E+00</totfact>
</mgrwt>
</event>
<event>
 4    1  0.4639964E-008  0.7465733E+03  0.7818608E-02  0.9640742E-01
         -2   -1    0    0    0  501 -0.00000000000E+00  0.00000000000E+00  0.16866884612E+04  0.16866884612E+04  0.25500000000E-02 0.  1.
          2   -1    0    0  501    0  0.00000000000E+00 -0.00000000000E+00 -0.56611498369E+03  0.56611498370E+03  0.25500000000E-02 0. -1.
    8880022    1    1    2    0    0  0.41280444519E+03  0.60296976647E+03  0.12870375163E+04  0.14878969288E+04  0.15294330000E+03 0.  0.
    8880022    1    1    2    0    0 -0.41280444519E+03 -0.60296976647E+03 -0.16646403876E+03  0.76490651616E+03  0.15294330000E+03 0.  0.
<mgrwt>
<rscale>  0 0.74657331E+03</rscale>
<asrwt>0</asrwt>
<pdfrwt beam="1">  1        2 0.87094615E-01 0.74657331E+03</pdfrwt>
<pdfrwt beam="2">  1       -2 0.25949053E+00 0.74657331E+03</pdfrwt>
<totfact> 0.30858678E+00</totfact>
</mgrwt>
</event>
<event>
 4    1  0.4639964E-008  0.5121781E+03  0.7818608E-02  0.1010648E+00
          2   -1    0    0  501    0  0.00000000000E+00  0.00000000000E+00  0.10762439572E+04  0.10762439572E+04  0.25500000000E-02 0. -1.
         -2   -1    0    0    0  501 -0.00000000000E+00 -0.00000000000E+00 -0.54685932169E+03  0.54685932170E+03  0.25500000000E-02 0.  1.
    8880022    1    1    2    0    0  0.14589702279E+03 -0.46652849830E+03 -0.33951132805E+03  0.61448708357E+03  0.15294330000E+03 0.  0.
    8880022    1    1    2    0    0 -0.14589702279E+03  0.46652849830E+03  0.86889596357E+03  0.10086161953E+04  0.15294330000E+03 0.  0.
<mgrwt>
<rscale>  0 0.51217813E+03</rscale>
<asrwt>0</asrwt>
<pdfrwt beam="1">  1        2 0.16557599E+00 0.51217813E+03</pdfrwt>
<pdfrwt beam="2">  1       -2 0.84132203E-01 0.51217813E+03</pdfrwt>
<totfact> 0.29102245E+01</totfact>
</mgrwt>
</event>
<event>
 4    1  0.4639964E-008  0.3143009E+03  0.7818608E-02  0.1078303E+00
          2   -1    0    0  501    0  0.00000000000E+00  0.00000000000E+00  0.24903707528E+04  0.24903707528E+04  0.25500000000E-02 0. -1.
         -2   -1    0    0    0  501 -0.00000000000E+00 -0.00000000000E+00 -0.66031313328E+02  0.66031313377E+02  0.25500000000E-02 0.  1.
    8880022    1    1    2    0    0 -0.16574467981E+02 -0.27407783991E+03  0.40449942537E+03  0.51225463732E+03  0.15294330000E+03 0.  0.
    8880022    1    1    2    0    0  0.16574467981E+02  0.27407783991E+03  0.20198400141E+04  0.20441474289E+04  0.15294330000E+03 0.  0.
<mgrwt>
<rscale>  0 0.31430086E+03</rscale>
<asrwt>0</asrwt>
<pdfrwt beam="1">  1        2 0.38313402E+00 0.31430086E+03</pdfrwt>
<pdfrwt beam="2">  1       -2 0.10158662E-01 0.31430086E+03</pdfrwt>
<totfact> 0.26051670E+02</totfact>
</mgrwt>
</event>
<event>
 4    1  0.4639964E-008  0.1197624E+04  0.7818608E-02  0.9114939E-01
          2   -1    0    0  501    0  0.00000000000E+00  0.00000000000E+00  0.15446674680E+04  0.15446674680E+04  0.25500000000E-02 0. -1.
         -2   -1    0    0    0  501 -0.00000000000E+00 -0.00000000000E+00 -0.12327182599E+04  0.12327182599E+04  0.25500000000E-02 0.  1.
    8880022    1    1    2    0    0 -0.10804716985E+04 -0.49344989392E+03  0.84578550069E+03  0.14661707456E+04  0.15294330000E+03 0.  0.
    8880022    1    1    2    0    0  0.10804716985E+04  0.49344989392E+03 -0.53383629260E+03  0.13112149822E+04  0.15294330000E+03 0.  0.
<mgrwt>
<rscale>  0 0.11976241E+04</rscale>
<asrwt>0</asrwt>
<pdfrwt beam="1">  1        2 0.23764115E+00 0.11976241E+04</pdfrwt>
<pdfrwt beam="2">  1       -2 0.18964896E+00 0.11976241E+04</pdfrwt>
<totfact> 0.18115400E+00</totfact>
</mgrwt>
</event>
<event>
 4    1  0.4639964E-008  0.6023866E+03  0.7818608E-02  0.9900467E-01
          2   -1    0    0  501    0  0.00000000000E+00  0.00000000000E+00  0.17600139985E+04  0.17600139985E+04  0.25500000000E-02 0. -1.
         -2   -1    0    0    0  501 -0.00000000000E+00 -0.00000000000E+00 -0.29417890578E+03  0.29417890579E+03  0.25500000000E-02 0.  1.
    8880022    1    1    2    0    0 -0.48864810701E+03 -0.31733410338E+03  0.17114786109E+03  0.62622771340E+03  0.15294330000E+03 0.  0.
    8880022    1    1    2    0    0  0.48864810701E+03  0.31733410338E+03  0.12946872316E+04  0.14279651909E+04  0.15294330000E+03 0.  0.
<mgrwt>
<rscale>  0 0.60238655E+03</rscale>
<asrwt>0</asrwt>
<pdfrwt beam="1">  1        2 0.27077139E+00 0.60238655E+03</pdfrwt>
<pdfrwt beam="2">  1       -2 0.45258293E-01 0.60238655E+03</pdfrwt>
<totfact> 0.43987811E+01</totfact>
</mgrwt>
</event>
<event>
 4    1  0.4639964E-008  0.8928599E+03  0.7818608E-02  0.9434551E-01
         -2   -1    0    0    0  501 -0.00000000000E+00  0.00000000000E+00  0.13573099723E+04  0.13573099723E+04  0.25500000000E-02 0.  1.
          2   -1    0    0  501    0  0.00000000000E+00 -0.00000000000E+00 -0.10100369798E+04  0.10100369798E+04  0.25500000000E-02 0. -1.
    8880022    1    1    2    0    0  0.37807481472E+02 -0.87885024908E+03  0.93937277120E+03  0.12960015518E+04  0.15294330000E+03 0.  0.
    8880022    1    1    2    0    0 -0.37807481472E+02  0.87885024908E+03 -0.59209977866E+03  0.10713454004E+04  0.15294330000E+03 0. -1.
<mgrwt>
<rscale>  0 0.89285991E+03</rscale>
<asrwt>0</asrwt>
<pdfrwt beam="1">  1        2 0.15539030E+00 0.89285991E+03</pdfrwt>
<pdfrwt beam="2">  1       -2 0.20881692E+00 0.89285991E+03</pdfrwt>
<totfact> 0.29082394E+00</totfact>
</mgrwt>
</event>
<event>
 4    1  0.4639964E-008  0.4555100E+03  0.7818608E-02  0.1026092E+00
          2   -1    0    0  501    0  0.00000000000E+00  0.00000000000E+00  0.14593130763E+04  0.14593130764E+04  0.25500000000E-02 0. -1.
         -2   -1    0    0    0  501 -0.00000000000E+00 -0.00000000000E+00 -0.54450683111E+03  0.54450683111E+03  0.25500000000E-02 0.  1.
    8880022    1    1    2    0    0  0.97451410421E+02 -0.41785277152E+03  0.13186248077E+04  0.13950844966E+04  0.15294330000E+03 0.  0.
    8880022    1    1    2    0    0 -0.97451410421E+02  0.41785277152E+03 -0.40381856247E+03  0.60873541089E+03  0.15294330000E+03 0.  0.
<mgrwt>
<rscale>  0 0.45551001E+03</rscale>
<asrwt>0</asrwt>
<pdfrwt beam="1">  1        2 0.22450970E+00 0.45551001E+03</pdfrwt>
<pdfrwt beam="2">  1       -2 0.83770282E-01 0.45551001E+03</pdfrwt>
<totfact> 0.17879588E+01</totfact>
</mgrwt>
</event>
<event>
 4    1  0.4639964E-008  0.9206267E+03  0.7818608E-02  0.9400158E-01
          2   -1    0    0  501    0  0.00000000000E+00  0.00000000000E+00  0.23909311232E+04  0.23909311232E+04  0.25500000000E-02 0. -1.
         -2   -1    0    0    0  501 -0.00000000000E+00 -0.00000000000E+00 -0.13225450059E+04  0.13225450059E+04  0.25500000000E-02 0.  1.
    8880022    1    1    2    0    0  0.90129549410E+03  0.10875790463E+03  0.21227257182E+04  0.23137670534E+04  0.15294330000E+03 0.  0.
    8880022    1    1    2    0    0 -0.90129549410E+03 -0.10875790463E+03 -0.10543396009E+04  0.13997090757E+04  0.15294330000E+03 0.  0.
<mgrwt>
<rscale>  0 0.92062669E+03</rscale>
<asrwt>0</asrwt>
<pdfrwt beam="1">  1        2 0.36783556E+00 0.92062669E+03</pdfrwt>
<pdfrwt beam="2">  1       -2 0.20346846E+00 0.92062669E+03</pdfrwt>
<totfact> 0.51755581E-01</totfact>
</mgrwt>
</event>
<event>
 4    1  0.4639964E-008  0.2745861E+03  0.7818608E-02  0.1098683E+00
          2   -1    0    0  501    0  0.00000000000E+00  0.00000000000E+00  0.22110423925E+04  0.22110423925E+04  0.25500000000E-02 0. -1.
         -2   -1    0    0    0  501 -0.00000000000E+00 -0.00000000000E+00 -0.48874648983E+02  0.48874649050E+02  0.25500000000E-02 0.  1.
    8880022    1    1    2    0    0  0.11099677686E+03  0.19921242028E+03  0.45982479689E+03  0.53557106879E+03  0.15294330000E+03 0.  0.
    8880022    1    1    2    0    0 -0.11099677686E+03 -0.19921242028E+03  0.17023429466E+04  0.17243459728E+04  0.15294330000E+03 0.  0.
<mgrwt>
<rscale>  0 0.27458610E+03</rscale>
<asrwt>0</asrwt>
<pdfrwt beam="1">  1        2 0.34016034E+00 0.27458610E+03</pdfrwt>
<pdfrwt beam="2">  1       -2 0.75191774E-02 0.27458610E+03</pdfrwt>
<totfact> 0.59874105E+02</totfact>
</mgrwt>
</event>
<event>
 4    1  0.4639964E-008  0.7216564E+03  0.7818608E-02  0.9680897E-01
          2   -1    0    0  501    0  0.00000000000E+00  0.00000000000E+00  0.53569387098E+03  0.53569387099E+03  0.25500000000E-02 0. -1.
         -2   -1    0    0    0  501 -0.00000000000E+00 -0.00000000000E+00 -0.99695184831E+03  0.99695184831E+03  0.25500000000E-02 0.  1.
    8880022    1    1    2    0    0  0.67971844108E+03  0.18809348260E+03 -0.10981942997E+03  0.72996457281E+03  0.15294330000E+03 0.  0.
    8880022    1    1    2    0    0 -0.67971844108E+03 -0.18809348260E+03 -0.35143854737E+03  0.80268114649E+03  0.15294330000E+03 0.  1.
<mgrwt>
<rscale>  0 0.72165641E+03</rscale>
<asrwt>0</asrwt>
<pdfrwt beam="1">  1        2 0.82414442E-01 0.72165641E+03</pdfrwt>
<pdfrwt beam="2">  1       -2 0.15337721E+00 0.72165641E+03</pdfrwt>
<totfact> 0.16308604E+01</totfact>
</mgrwt>
</event>
<event>
 4    1  0.4639964E-008  0.7002710E+03  0.7818608E-02  0.9716769E-01
          2   -1    0    0  501    0  0.00000000000E+00  0.00000000000E+00  0.19280165776E+04  0.19280165776E+04  0.25500000000E-02 0. -1.
         -2   -1    0    0    0  501 -0.00000000000E+00 -0.00000000000E+00 -0.77900703616E+03  0.77900703616E+03  0.25500000000E-02 0.  1.
    8880022    1    1    2    0    0  0.67074972419E+03 -0.13070037668E+03 -0.53628429372E+03  0.88203190287E+03  0.15294330000E+03 0.  0.
    8880022    1    1    2    0    0 -0.67074972419E+03  0.13070037668E+03  0.16852938352E+04  0.18249917109E+04  0.15294330000E+03 0.  0.
<mgrwt>
<rscale>  0 0.70027097E+03</rscale>
<asrwt>0</asrwt>
<pdfrwt beam="1">  1        2 0.29661794E+00 0.70027097E+03</pdfrwt>
<pdfrwt beam="2">  1       -2 0.11984724E+00 0.70027097E+03</pdfrwt>
<totfact> 0.40726577E+00</totfact>
</mgrwt>
</event>
<event>
 4    1  0.4639964E-008  0.4340210E+03  0.7818608E-02  0.1032597E+00
         -2   -1    0    0    0  501 -0.00000000000E+00  0.00000000000E+00  0.17264799616E+03  0.17264799618E+03  0.25500000000E-02 0.  1.
          2   -1    0    0  501    0  0.00000000000E+00 -0.00000000000E+00 -0.13004692287E+04  0.13004692287E+04  0.25500000000E-02 0. -1.
    8880022    1    1    2    0    0  0.31418951612E+03  0.25742480418E+03 -0.85945701726E+03  0.96282947575E+03  0.15294330000E+03 0.  0.
    8880022    1    1    2    0    0 -0.31418951612E+03 -0.25742480418E+03 -0.26836421529E+03  0.51028774913E+03  0.15294330000E+03 0.  0.
<mgrwt>
<rscale>  0 0.43402101E+03</rscale>
<asrwt>0</asrwt>
<pdfrwt beam="1">  1        2 0.20007218E+00 0.43402101E+03</pdfrwt>
<pdfrwt beam="2">  1       -2 0.26561231E-01 0.43402101E+03</pdfrwt>
<totfact> 0.22058266E+02</totfact>
</mgrwt>
</event>
<event>
 4    1  0.4639964E-008  0.7702656E+03  0.7818608E-02  0.9604083E-01
         -2   -1    0    0    0  501 -0.00000000000E+00  0.00000000000E+00  0.76204281242E+03  0.76204281243E+03  0.25500000000E-02 0.  1.
          2   -1    0    0  501    0  0.00000000000E+00 -0.00000000000E+00 -0.19188198716E+04  0.19188198716E+04  0.25500000000E-02 0. -1.
    8880022    1    1    2    0    0 -0.49461736275E+03 -0.57032543580E+03 -0.16116878222E+04  0.17862941324E+04  0.15294330000E+03 0.  0.
    8880022    1    1    2    0    0  0.49461736275E+03  0.57032543580E+03  0.45491076301E+03  0.89456855163E+03  0.15294330000E+03 0.  0.
<mgrwt>
<rscale>  0 0.77026560E+03</rscale>
<asrwt>0</asrwt>
<pdfrwt beam="1">  1        2 0.29520306E+00 0.77026560E+03</pdfrwt>
<pdfrwt beam="2">  1       -2 0.11723736E+00 0.77026560E+03</pdfrwt>
<totfact> 0.42984174E+00</totfact>
</mgrwt>
</event>
<event>
 4    1  0.4639964E-008  0.1087994E+04  0.7818608E-02  0.9216973E-01
          2   -1    0    0  501    0  0.00000000000E+00  0.00000000000E+00  0.12790882840E+04  0.12790882840E+04  0.25500000000E-02 0. -1.
         -2   -1    0    0    0  501 -0.00000000000E+00 -0.00000000000E+00 -0.94561729305E+03  0.94561729305E+03  0.25500000000E-02 0.  1.
    8880022    1    1    2    0    0 -0.10742346677E+04 -0.79742650556E+02  0.42846350748E+01  0.10880023082E+04  0.15294330000E+03 0. -1.
    8880022    1    1    2    0    0  0.10742346677E+04  0.79742650556E+02  0.32918635592E+03  0.11367032689E+04  0.15294330000E+03 0.  1.
<mgrwt>
<rscale>  0 0.10879939E+04</rscale>
<asrwt>0</asrwt>
<pdfrwt beam="1">  1        2 0.19678281E+00 0.10879939E+04</pdfrwt>
<pdfrwt beam="2">  1       -2 0.14547958E+00 0.10879939E+04</pdfrwt>
<totfact> 0.54296806E+00</totfact>
</mgrwt>
</event>
<event>
 4    1  0.4639964E-008  0.3278478E+03  0.7818608E-02  0.1072093E+00
          2   -1    0    0  501    0  0.00000000000E+00  0.00000000000E+00  0.25012681981E+04  0.25012681981E+04  0.25500000000E-02 0. -1.
         -2   -1    0    0    0  501 -0.00000000000E+00 -0.00000000000E+00 -0.29125090596E+03  0.29125090597E+03  0.25500000000E-02 0.  1.
    8880022    1    1    2    0    0 -0.27086641394E+03 -0.10355633807E+03  0.23941559250E+04  0.24164988673E+04  0.15294330000E+03 0.  0.
    8880022    1    1    2    0    0  0.27086641394E+03  0.10355633807E+03 -0.18413863286E+03  0.37602023680E+03  0.15294330000E+03 0.  0.
<mgrwt>
<rscale>  0 0.32784780E+03</rscale>
<asrwt>0</asrwt>
<pdfrwt beam="1">  1        2 0.38481051E+00 0.32784780E+03</pdfrwt>
<pdfrwt beam="2">  1       -2 0.44807830E-01 0.32784780E+03</pdfrwt>
<totfact> 0.18959476E+01</totfact>
</mgrwt>
</event>
<event>
 4    1  0.4639964E-008  0.1649571E+03  0.7818608E-02  0.1183211E+00
          2   -1    0    0  501    0  0.00000000000E+00  0.00000000000E+00  0.15969711981E+04  0.15969711981E+04  0.25500000000E-02 0. -1.
         -2   -1    0    0    0  501 -0.00000000000E+00 -0.00000000000E+00 -0.10516776900E+03  0.10516776903E+03  0.25500000000E-02 0.  1.
    8880022    1    1    2    0    0 -0.38043971615E+02 -0.48701541871E+02 -0.33179030483E+02  0.16826076499E+03  0.15294330000E+03 0.  1.
    8880022    1    1    2    0    0  0.38043971615E+02  0.48701541871E+02  0.15249824596E+04  0.15338782021E+04  0.15294330000E+03 0.  0.
<mgrwt>
<rscale>  0 0.16495708E+03</rscale>
<asrwt>0</asrwt>
<pdfrwt beam="1">  1        2 0.24568786E+00 0.16495708E+03</pdfrwt>
<pdfrwt beam="2">  1       -2 0.16179658E-01 0.16495708E+03</pdfrwt>
<totfact> 0.37527658E+02</totfact>
</mgrwt>
</event>
<event>
 4    1  0.4639964E-008  0.4844349E+03  0.7818608E-02  0.1017923E+00
         -2   -1    0    0    0  501 -0.00000000000E+00  0.00000000000E+00  0.56749471561E+03  0.56749471562E+03  0.25500000000E-02 0.  1.
          2   -1    0    0  501    0  0.00000000000E+00 -0.00000000000E+00 -0.99178147963E+03  0.99178147963E+03  0.25500000000E-02 0. -1.
    8880022    1    1    2    0    0  0.18272079057E+02  0.45929473857E+03 -0.80745274312E+03  0.94162471884E+03  0.15294330000E+03 0.  0.
    8880022    1    1    2    0    0 -0.18272079057E+02 -0.45929473857E+03  0.38316597910E+03  0.61765147641E+03  0.15294330000E+03 0.  0.
<mgrwt>
<rscale>  0 0.48443491E+03</rscale>
<asrwt>0</asrwt>
<pdfrwt beam="1">  1        2 0.15258177E+00 0.48443491E+03</pdfrwt>
<pdfrwt beam="2">  1       -2 0.87306879E-01 0.48443491E+03</pdfrwt>
<totfact> 0.30310126E+01</totfact>
</mgrwt>
</event>
<event>
 4    1  0.4639964E-008  0.2374923E+03  0.7818608E-02  0.1121475E+00
         -2   -1    0    0    0  501 -0.00000000000E+00  0.00000000000E+00  0.22120520868E+04  0.22120520868E+04  0.25500000000E-02 0.  1.
          2   -1    0    0  501    0  0.00000000000E+00 -0.00000000000E+00 -0.36507756444E+03  0.36507756445E+03  0.25500000000E-02 0. -1.
    8880022    1    1    2    0    0 -0.17829664027E+03 -0.34946269573E+02  0.21662395311E+04  0.21792191934E+04  0.15294330000E+03 0.  1.
    8880022    1    1    2    0    0  0.17829664027E+03  0.34946269573E+02 -0.31926500873E+03  0.39791045789E+03  0.15294330000E+03 0.  0.
<mgrwt>
<rscale>  0 0.23749229E+03</rscale>
<asrwt>0</asrwt>
<pdfrwt beam="1">  1        2 0.56165779E-01 0.23749229E+03</pdfrwt>
<pdfrwt beam="2">  1       -2 0.34031571E+00 0.23749229E+03</pdfrwt>
<totfact> 0.19125835E+00</totfact>
</mgrwt>
</event>
<event>
 4    1  0.4639964E-008  0.3631794E+03  0.7818608E-02  0.1057332E+00
         -2   -1    0    0    0  501 -0.00000000000E+00  0.00000000000E+00  0.15647139315E+03  0.15647139317E+03  0.25500000000E-02 0.  1.
          2   -1    0    0  501    0  0.00000000000E+00 -0.00000000000E+00 -0.85631853486E+03  0.85631853487E+03  0.25500000000E-02 0. -1.
    8880022    1    1    2    0    0 -0.32934550360E+03  0.62553098215E+01 -0.41317042917E+03  0.55009912397E+03  0.15294330000E+03 0.  0.
    8880022    1    1    2    0    0  0.32934550360E+03 -0.62553098215E+01 -0.28667671254E+03  0.46269080407E+03  0.15294330000E+03 0.  0.
<mgrwt>
<rscale>  0 0.36317935E+03</rscale>
<asrwt>0</asrwt>
<pdfrwt beam="1">  1        2 0.13174131E+00 0.36317935E+03</pdfrwt>
<pdfrwt beam="2">  1       -2 0.24072523E-01 0.36317935E+03</pdfrwt>
<totfact> 0.49322960E+02</totfact>
</mgrwt>
</event>
<event>
 4    1  0.4639964E-008  0.5920395E+03  0.7818608E-02  0.9922060E-01
         -2   -1    0    0    0  501 -0.00000000000E+00  0.00000000000E+00  0.39975546103E+03  0.39975546104E+03  0.25500000000E-02 0.  1.
          2   -1    0    0  501    0  0.00000000000E+00 -0.00000000000E+00 -0.91991855929E+03  0.91991855930E+03  0.25500000000E-02 0. -1.
    8880022    1    1    2    0    0  0.10978414038E+02  0.57183794982E+03 -0.40291442804E+03  0.71613605954E+03  0.15294330000E+03 0.  0.
    8880022    1    1    2    0    0 -0.10978414038E+02 -0.57183794982E+03 -0.11724867022E+03  0.60353796079E+03  0.15294330000E+03 0.  0.
<mgrwt>
<rscale>  0 0.59203954E+03</rscale>
<asrwt>0</asrwt>
<pdfrwt beam="1">  1        2 0.14152593E+00 0.59203954E+03</pdfrwt>
<pdfrwt beam="2">  1       -2 0.61500840E-01 0.59203954E+03</pdfrwt>
<totfact> 0.71821554E+01</totfact>
</mgrwt>
</event>
<event>
 4    1  0.4639964E-008  0.4621990E+03  0.7818608E-02  0.1024145E+00
         -2   -1    0    0    0  501 -0.00000000000E+00  0.00000000000E+00  0.11508278932E+03  0.11508278935E+03  0.25500000000E-02 0.  1.
          2   -1    0    0  501    0  0.00000000000E+00 -0.00000000000E+00 -0.32623514240E+04  0.32623514240E+04  0.25500000000E-02 0. -1.
    8880022    1    1    2    0    0 -0.26647310691E+03 -0.34529463730E+03 -0.46498948537E+03  0.65562426570E+03  0.15294330000E+03 0.  0.
    8880022    1    1    2    0    0  0.26647310691E+03  0.34529463730E+03 -0.26822791493E+04  0.27218099477E+04  0.15294330000E+03 0.  0.
<mgrwt>
<rscale>  0 0.46219904E+03</rscale>
<asrwt>0</asrwt>
<pdfrwt beam="1">  1        2 0.50190015E+00 0.46219904E+03</pdfrwt>
<pdfrwt beam="2">  1       -2 0.17705047E-01 0.46219904E+03</pdfrwt>
<totfact> 0.35193956E+01</totfact>
</mgrwt>
</event>
<event>
 4    1  0.4639964E-008  0.2797009E+03  0.7818608E-02  0.1095852E+00
          2   -1    0    0  501    0  0.00000000000E+00  0.00000000000E+00  0.15900940004E+04  0.15900940004E+04  0.25500000000E-02 0. -1.
         -2   -1    0    0    0  501 -0.00000000000E+00 -0.00000000000E+00 -0.39415274773E+03  0.39415274774E+03  0.25500000000E-02 0.  1.
    8880022    1    1    2    0    0  0.22407657622E+03 -0.68048582185E+02  0.15261100637E+04  0.15515297293E+04  0.15294330000E+03 0.  0.
    8880022    1    1    2    0    0 -0.22407657622E+03  0.68048582185E+02 -0.33016881104E+03  0.43271701878E+03  0.15294330000E+03 0.  0.
<mgrwt>
<rscale>  0 0.27970087E+03</rscale>
<asrwt>0</asrwt>
<pdfrwt beam="1">  1        2 0.24462984E+00 0.27970087E+03</pdfrwt>
<pdfrwt beam="2">  1       -2 0.60638885E-01 0.27970087E+03</pdfrwt>
<totfact> 0.32025366E+01</totfact>
</mgrwt>
</event>
<event>
 4    1  0.4639964E-008  0.6223537E+03  0.7818608E-02  0.9860085E-01
         -2   -1    0    0    0  501 -0.00000000000E+00  0.00000000000E+00  0.23717068968E+03  0.23717068969E+03  0.25500000000E-02 0.  1.
          2   -1    0    0  501    0  0.00000000000E+00 -0.00000000000E+00 -0.25190248854E+04  0.25190248854E+04  0.25500000000E-02 0. -1.
    8880022    1    1    2    0    0 -0.22992023095E+03 -0.55773575641E+03 -0.19581895527E+04  0.20547093381E+04  0.15294330000E+03 0.  0.
    8880022    1    1    2    0    0  0.22992023095E+03  0.55773575641E+03 -0.32366464299E+03  0.70148623702E+03  0.15294330000E+03 0.  0.
<mgrwt>
<rscale>  0 0.62235371E+03</rscale>
<asrwt>0</asrwt>
<pdfrwt beam="1">  1        2 0.38754227E+00 0.62235371E+03</pdfrwt>
<pdfrwt beam="2">  1       -2 0.36487800E-01 0.62235371E+03</pdfrwt>
<totfact> 0.25605480E+01</totfact>
</mgrwt>
</event>
<event>
 4    1  0.4639964E-008  0.4354497E+03  0.7818608E-02  0.1032152E+00
         -2   -1    0    0    0  501 -0.00000000000E+00  0.00000000000E+00  0.13499017076E+03  0.13499017079E+03  0.25500000000E-02 0.  1.
          2   -1    0    0  501    0  0.00000000000E+00 -0.00000000000E+00 -0.42794975803E+04  0.42794975803E+04  0.25500000000E-02 0. -1.
    8880022    1    1    2    0    0  0.26676632170E+03 -0.30831887967E+03 -0.38813427114E+04  0.39056929857E+04  0.15294330000E+03 0.  0.
    8880022    1    1    2    0    0 -0.26676632170E+03  0.30831887967E+03 -0.26316469813E+03  0.50879476541E+03  0.15294330000E+03 0.  0.
<mgrwt>
<rscale>  0 0.43544972E+03</rscale>
<asrwt>0</asrwt>
<pdfrwt beam="1">  1        2 0.65838414E+00 0.43544972E+03</pdfrwt>
<pdfrwt beam="2">  1       -2 0.20767722E-01 0.43544972E+03</pdfrwt>
<totfact> 0.48584236E+00</totfact>
</mgrwt>
</event>
<event>
 4    1  0.4639964E-008  0.1110661E+04  0.7818608E-02  0.9194863E-01
          2   -1    0    0  501    0  0.00000000000E+00  0.00000000000E+00  0.14687745349E+04  0.14687745349E+04  0.25500000000E-02 0. -1.
         -2   -1    0    0    0  501 -0.00000000000E+00 -0.00000000000E+00 -0.20423561027E+04  0.20423561027E+04  0.25500000000E-02 0.  1.
    8880022    1    1    2    0    0  0.51638373709E+03 -0.97135179267E+03  0.10602871173E+04  0.15355054195E+04  0.15294330000E+03 0.  0.
    8880022    1    1    2    0    0 -0.51638373709E+03  0.97135179267E+03 -0.16338686852E+04  0.19756252181E+04  0.15294330000E+03 0.  0.
<mgrwt>
<rscale>  0 0.11106611E+04</rscale>
<asrwt>0</asrwt>
<pdfrwt beam="1">  1        2 0.22596531E+00 0.11106611E+04</pdfrwt>
<pdfrwt beam="2">  1       -2 0.31420863E+00 0.11106611E+04</pdfrwt>
<totfact> 0.34017644E-01</totfact>
</mgrwt>
</event>
<event>
 4    1  0.4639964E-008  0.4543520E+03  0.7818608E-02  0.1026432E+00
         -2   -1    0    0    0  501 -0.00000000000E+00  0.00000000000E+00  0.51283144474E+03  0.51283144475E+03  0.25500000000E-02 0.  1.
          2   -1    0    0  501    0  0.00000000000E+00 -0.00000000000E+00 -0.91904491462E+03  0.91904491462E+03  0.25500000000E-02 0. -1.
    8880022    1    1    2    0    0  0.37762107137E+02 -0.42616672454E+03 -0.73982199547E+03  0.86820060576E+03  0.15294330000E+03 0.  0.
    8880022    1    1    2    0    0 -0.37762107137E+02  0.42616672454E+03  0.33360852560E+03  0.56367575361E+03  0.15294330000E+03 0.  0.
<mgrwt>
<rscale>  0 0.45435196E+03</rscale>
<asrwt>0</asrwt>
<pdfrwt beam="1">  1        2 0.14139153E+00 0.45435196E+03</pdfrwt>
<pdfrwt beam="2">  1       -2 0.78897145E-01 0.45435196E+03</pdfrwt>
<totfact> 0.42580534E+01</totfact>
</mgrwt>
</event>
<event>
 4    1  0.4639964E-008  0.2942255E+03  0.7818608E-02  0.1088163E+00
          2   -1    0    0  501    0  0.00000000000E+00  0.00000000000E+00  0.30124026525E+04  0.30124026525E+04  0.25500000000E-02 0. -1.
         -2   -1    0    0    0  501 -0.00000000000E+00 -0.00000000000E+00 -0.51401048531E+02  0.51401048594E+02  0.25500000000E-02 0.  1.
    8880022    1    1    2    0    0 -0.25084548033E+03 -0.15922413442E+02  0.24977089474E+04  0.25149788503E+04  0.15294330000E+03 0. -1.
    8880022    1    1    2    0    0  0.25084548033E+03  0.15922413442E+02  0.46329265649E+03  0.54882485077E+03  0.15294330000E+03 0.  0.
<mgrwt>
<rscale>  0 0.29422548E+03</rscale>
<asrwt>0</asrwt>
<pdfrwt beam="1">  1        2 0.46344651E+00 0.29422548E+03</pdfrwt>
<pdfrwt beam="2">  1       -2 0.79078545E-02 0.29422548E+03</pdfrwt>
<totfact> 0.19613814E+02</totfact>
</mgrwt>
</event>
<event>
 4    1  0.4639964E-008  0.2109721E+03  0.7818608E-02  0.1140798E+00
         -2   -1    0    0    0  501 -0.00000000000E+00  0.00000000000E+00  0.73931022061E+02  0.73931022105E+02  0.25500000000E-02 0.  1.
          2   -1    0    0  501    0  0.00000000000E+00 -0.00000000000E+00 -0.75729050420E+03  0.75729050421E+03  0.25500000000E-02 0. -1.
    8880022    1    1    2    0    0 -0.99136520111E+02 -0.10625220101E+03 -0.15349872122E+03  0.26090436997E+03  0.15294330000E+03 0.  0.
    8880022    1    1    2    0    0  0.99136520111E+02  0.10625220101E+03 -0.52986076092E+03  0.57031715634E+03  0.15294330000E+03 0.  0.
<mgrwt>
<rscale>  0 0.21097211E+03</rscale>
<asrwt>0</asrwt>
<pdfrwt beam="1">  1        2 0.11650623E+00 0.21097211E+03</pdfrwt>
<pdfrwt beam="2">  1       -2 0.11374004E-01 0.21097211E+03</pdfrwt>
<totfact> 0.20419920E+03</totfact>
</mgrwt>
</event>
<event>
 4    1  0.4639964E-008  0.6017368E+03  0.7818608E-02  0.9901809E-01
         -2   -1    0    0    0  501 -0.00000000000E+00  0.00000000000E+00  0.58314639036E+03  0.58314639037E+03  0.25500000000E-02 0.  1.
          2   -1    0    0  501    0  0.00000000000E+00 -0.00000000000E+00 -0.81997761894E+03  0.81997761894E+03  0.25500000000E-02 0. -1.
    8880022    1    1    2    0    0 -0.35695856794E+02 -0.58087981612E+03 -0.46407993537E+03  0.75990617473E+03  0.15294330000E+03 0. -1.
    8880022    1    1    2    0    0  0.35695856794E+02  0.58087981612E+03  0.22724870679E+03  0.64321783458E+03  0.15294330000E+03 0.  0.
<mgrwt>
<rscale>  0 0.60173683E+03</rscale>
<asrwt>0</asrwt>
<pdfrwt beam="1">  1        2 0.12615040E+00 0.60173683E+03</pdfrwt>
<pdfrwt beam="2">  1       -2 0.89714829E-01 0.60173683E+03</pdfrwt>
<totfact> 0.36497243E+01</totfact>
</mgrwt>
</event>
<event>
 4    1  0.4639964E-008  0.9732066E+03  0.7818608E-02  0.9338429E-01
          2   -1    0    0  501    0  0.00000000000E+00  0.00000000000E+00  0.24020678963E+04  0.24020678963E+04  0.25500000000E-02 0. -1.
         -2   -1    0    0    0  501 -0.00000000000E+00 -0.00000000000E+00 -0.11531944130E+04  0.11531944130E+04  0.25500000000E-02 0.  1.
    8880022    1    1    2    0    0 -0.12488624137E+03  0.95296530584E+03  0.20664909119E+04  0.22841882124E+04  0.15294330000E+03 0.  0.
    8880022    1    1    2    0    0  0.12488624137E+03 -0.95296530584E+03 -0.81761742859E+03  0.12710740970E+04  0.15294330000E+03 0.  0.
<mgrwt>
<rscale>  0 0.97320661E+03</rscale>
<asrwt>0</asrwt>
<pdfrwt beam="1">  1        2 0.36954890E+00 0.97320661E+03</pdfrwt>
<pdfrwt beam="2">  1       -2 0.17741453E+00 0.97320661E+03</pdfrwt>
<totfact> 0.75554566E-01</totfact>
</mgrwt>
</event>
<event>
 4    1  0.4639964E-008  0.1217051E+04  0.7818608E-02  0.9098061E-01
          2   -1    0    0  501    0  0.00000000000E+00  0.00000000000E+00  0.31643668823E+04  0.31643668823E+04  0.25500000000E-02 0. -1.
         -2   -1    0    0    0  501 -0.00000000000E+00 -0.00000000000E+00 -0.79220622358E+03  0.79220622358E+03  0.25500000000E-02 0.  1.
    8880022    1    1    2    0    0  0.89978479652E+02  0.12040453720E+04 -0.79295390860E+02  0.12196314184E+04  0.15294330000E+03 0.  0.
    8880022    1    1    2    0    0 -0.89978479652E+02 -0.12040453720E+04  0.24514560496E+04  0.27369416875E+04  0.15294330000E+03 0.  0.
<mgrwt>
<rscale>  0 0.12170510E+04</rscale>
<asrwt>0</asrwt>
<pdfrwt beam="1">  1        2 0.48682568E+00 0.12170510E+04</pdfrwt>
<pdfrwt beam="2">  1       -2 0.12187788E+00 0.12170510E+04</pdfrwt>
<totfact> 0.69054334E-01</totfact>
</mgrwt>
</event>
<event>
 4    1  0.4639964E-008  0.7569452E+03  0.7818608E-02  0.9624517E-01
         -2   -1    0    0    0  501 -0.00000000000E+00  0.00000000000E+00  0.10182937380E+04  0.10182937380E+04  0.25500000000E-02 0.  1.
          2   -1    0    0  501    0  0.00000000000E+00 -0.00000000000E+00 -0.13572222604E+04  0.13572222604E+04  0.25500000000E-02 0. -1.
    8880022    1    1    2    0    0  0.41639340522E+03 -0.61334409261E+03 -0.10782530696E+04  0.13174201224E+04  0.15294330000E+03 0.  0.
    8880022    1    1    2    0    0 -0.41639340522E+03  0.61334409261E+03  0.73932454715E+03  0.10580958760E+04  0.15294330000E+03 0.  0.
<mgrwt>
<rscale>  0 0.75694524E+03</rscale>
<asrwt>0</asrwt>
<pdfrwt beam="1">  1        2 0.20880343E+00 0.75694524E+03</pdfrwt>
<pdfrwt beam="2">  1       -2 0.15666057E+00 0.75694524E+03</pdfrwt>
<totfact> 0.41803976E+00</totfact>
</mgrwt>
</event>
<event>
 4    1  0.4639964E-008  0.7442393E+03  0.7818608E-02  0.9644432E-01
         -2   -1    0    0    0  501 -0.00000000000E+00  0.00000000000E+00  0.38215855137E+03  0.38215855138E+03  0.25500000000E-02 0.  1.
          2   -1    0    0  501    0  0.00000000000E+00 -0.00000000000E+00 -0.20642887362E+04  0.20642887362E+04  0.25500000000E-02 0. -1.
    8880022    1    1    2    0    0 -0.14904599550E+03 -0.71294158567E+03 -0.17344898835E+03  0.76418362841E+03  0.15294330000E+03 0.  0.
    8880022    1    1    2    0    0  0.14904599550E+03  0.71294158567E+03 -0.15086811965E+04  0.16822636592E+04  0.15294330000E+03 0.  0.
<mgrwt>
<rscale>  0 0.74423925E+03</rscale>
<asrwt>0</asrwt>
<pdfrwt beam="1">  1        2 0.31758288E+00 0.74423925E+03</pdfrwt>
<pdfrwt beam="2">  1       -2 0.58793624E-01 0.74423925E+03</pdfrwt>
<totfact> 0.17243386E+01</totfact>
</mgrwt>
</event>
<event>
 4    1  0.4639964E-008  0.3542572E+03  0.7818608E-02  0.1060881E+00
          2   -1    0    0  501    0  0.00000000000E+00  0.00000000000E+00  0.13458033101E+04  0.13458033101E+04  0.25500000000E-02 0. -1.
         -2   -1    0    0    0  501 -0.00000000000E+00 -0.00000000000E+00 -0.16605744121E+03  0.16605744123E+03  0.25500000000E-02 0.  1.
    8880022    1    1    2    0    0 -0.31517914919E+03 -0.52617822427E+02  0.89336124801E+02  0.36534795405E+03  0.15294330000E+03 0.  0.
    8880022    1    1    2    0    0  0.31517914919E+03  0.52617822427E+02  0.10904097441E+04  0.11465127973E+04  0.15294330000E+03 0.  0.
<mgrwt>
<rscale>  0 0.35425723E+03</rscale>
<asrwt>0</asrwt>
<pdfrwt beam="1">  1        2 0.20704667E+00 0.35425723E+03</pdfrwt>
<pdfrwt beam="2">  1       -2 0.25547298E-01 0.35425723E+03</pdfrwt>
<totfact> 0.22535296E+02</totfact>
</mgrwt>
</event>
<event>
 4    1  0.4639964E-008  0.2392622E+03  0.7818608E-02  0.1120285E+00
          2   -1    0    0  501    0  0.00000000000E+00  0.00000000000E+00  0.34649895507E+04  0.34649895507E+04  0.25500000000E-02 0. -1.
         -2   -1    0    0    0  501 -0.00000000000E+00 -0.00000000000E+00 -0.69744272974E+02  0.69744273021E+02  0.25500000000E-02 0.  1.
    8880022    1    1    2    0    0 -0.32951216503E+02  0.18102198576E+03  0.32415316410E+04  0.32503497926E+04  0.15294330000E+03 0.  0.
    8880022    1    1    2    0    0  0.32951216503E+02 -0.18102198576E+03  0.15371363673E+03  0.28438403107E+03  0.15294330000E+03 0.  1.
<mgrwt>
<rscale>  0 0.23926219E+03</rscale>
<asrwt>0</asrwt>
<pdfrwt beam="1">  1        2 0.53307538E+00 0.23926219E+03</pdfrwt>
<pdfrwt beam="2">  1       -2 0.10729887E-01 0.23926219E+03</pdfrwt>
<totfact> 0.64507729E+01</totfact>
</mgrwt>
</event>
<event>
 4    1  0.4639964E-008  0.7860775E+03  0.7818608E-02  0.9580391E-01
         -2   -1    0    0    0  501 -0.00000000000E+00  0.00000000000E+00  0.95077153929E+03  0.95077153930E+03  0.25500000000E-02 0.  1.
          2   -1    0    0  501    0  0.00000000000E+00 -0.00000000000E+00 -0.78001241742E+03  0.78001241742E+03  0.25500000000E-02 0. -1.
    8880022    1    1    2    0    0  0.60009080577E+03  0.48416642872E+03 -0.26804895041E+03  0.83052272619E+03  0.15294330000E+03 0.  0.
    8880022    1    1    2    0    0 -0.60009080577E+03 -0.48416642872E+03  0.43880807229E+03  0.90026123053E+03  0.15294330000E+03 0.  0.
<mgrwt>
<rscale>  0 0.78607745E+03</rscale>
<asrwt>0</asrwt>
<pdfrwt beam="1">  1        2 0.12000191E+00 0.78607745E+03</pdfrwt>
<pdfrwt beam="2">  1       -2 0.14627255E+00 0.78607745E+03</pdfrwt>
<totfact> 0.11542274E+01</totfact>
</mgrwt>
</event>
<event>
 4    1  0.4639964E-008  0.4507187E+03  0.7818608E-02  0.1027508E+00
          2   -1    0    0  501    0  0.00000000000E+00  0.00000000000E+00  0.74445427175E+03  0.74445427175E+03  0.25500000000E-02 0. -1.
         -2   -1    0    0    0  501 -0.00000000000E+00 -0.00000000000E+00 -0.11596626362E+04  0.11596626362E+04  0.25500000000E-02 0.  1.
    8880022    1    1    2    0    0  0.14169402767E+03 -0.39959796266E+03 -0.10401461620E+04  0.11336010853E+04  0.15294330000E+03 0.  0.
    8880022    1    1    2    0    0 -0.14169402767E+03  0.39959796266E+03  0.62493779751E+03  0.77051582269E+03  0.15294330000E+03 0.  0.
<mgrwt>
<rscale>  0 0.45071874E+03</rscale>
<asrwt>0</asrwt>
<pdfrwt beam="1">  1        2 0.11453143E+00 0.45071874E+03</pdfrwt>
<pdfrwt beam="2">  1       -2 0.17840964E+00 0.45071874E+03</pdfrwt>
<totfact> 0.75114121E+00</totfact>
</mgrwt>
</event>
<event>
 4    1  0.4639964E-008  0.7007269E+03  0.7818608E-02  0.9715990E-01
         -2   -1    0    0    0  501 -0.00000000000E+00  0.00000000000E+00  0.19637837362E+03  0.19637837364E+03  0.25500000000E-02 0.  1.
          2   -1    0    0  501    0  0.00000000000E+00 -0.00000000000E+00 -0.36792975958E+04  0.36792975958E+04  0.25500000000E-02 0. -1.
    8880022    1    1    2    0    0  0.53285620164E+03 -0.42859161390E+03 -0.28383897868E+04  0.29236064608E+04  0.15294330000E+03 0.  0.
    8880022    1    1    2    0    0 -0.53285620164E+03  0.42859161390E+03 -0.64452943544E+03  0.95206950865E+03  0.15294330000E+03 0.  0.
<mgrwt>
<rscale>  0 0.70072688E+03</rscale>
<asrwt>0</asrwt>
<pdfrwt beam="1">  1        2 0.56604573E+00 0.70072688E+03</pdfrwt>
<pdfrwt beam="2">  1       -2 0.30212060E-01 0.70072688E+03</pdfrwt>
<totfact> 0.67308165E+00</totfact>
</mgrwt>
</event>
<event>
 4    1  0.4639964E-008  0.6128083E+03  0.7818608E-02  0.9879183E-01
          2   -1    0    0  501    0  0.00000000000E+00  0.00000000000E+00  0.23640017433E+04  0.23640017433E+04  0.25500000000E-02 0. -1.
         -2   -1    0    0    0  501 -0.00000000000E+00 -0.00000000000E+00 -0.10941473947E+04  0.10941473947E+04  0.25500000000E-02 0.  1.
    8880022    1    1    2    0    0  0.33333885660E+03  0.49094564440E+03  0.22335626747E+04  0.23161036880E+04  0.15294330000E+03 0.  0.
    8880022    1    1    2    0    0 -0.33333885660E+03 -0.49094564440E+03 -0.96370832608E+03  0.11420454500E+04  0.15294330000E+03 0.  1.
<mgrwt>
<rscale>  0 0.61280835E+03</rscale>
<asrwt>0</asrwt>
<pdfrwt beam="1">  1        2 0.36369257E+00 0.61280835E+03</pdfrwt>
<pdfrwt beam="2">  1       -2 0.16833037E+00 0.61280835E+03</pdfrwt>
<totfact> 0.99027859E-01</totfact>
</mgrwt>
</event>
<event>
 4    1  0.4639964E-008  0.7700233E+03  0.7818608E-02  0.9604450E-01
          2   -1    0    0  501    0  0.00000000000E+00  0.00000000000E+00  0.59579553877E+03  0.59579553878E+03  0.25500000000E-02 0. -1.
         -2   -1    0    0    0  501 -0.00000000000E+00 -0.00000000000E+00 -0.11844193766E+04  0.11844193766E+04  0.25500000000E-02 0.  1.
    8880022    1    1    2    0    0 -0.73763700716E+03 -0.15948640336E+03  0.61460360545E+02  0.77247219764E+03  0.15294330000E+03 0.  0.
    8880022    1    1    2    0    0  0.73763700716E+03  0.15948640336E+03 -0.65008419841E+03  0.10077427178E+04  0.15294330000E+03 0.  0.
<mgrwt>
<rscale>  0 0.77002332E+03</rscale>
<asrwt>0</asrwt>
<pdfrwt beam="1">  1        2 0.91660852E-01 0.77002332E+03</pdfrwt>
<pdfrwt beam="2">  1       -2 0.18221836E+00 0.77002332E+03</pdfrwt>
<totfact> 0.88909193E+00</totfact>
</mgrwt>
</event>
<event>
 4    1  0.4639964E-008  0.1660813E+03  0.7818608E-02  0.1181997E+00
          2   -1    0    0  501    0  0.00000000000E+00  0.00000000000E+00  0.35544993545E+04  0.35544993545E+04  0.25500000000E-02 0. -1.
         -2   -1    0    0    0  501 -0.00000000000E+00 -0.00000000000E+00 -0.19888422022E+02  0.19888422186E+02  0.25500000000E-02 0.  1.
    8880022    1    1    2    0    0 -0.64600453205E+02 -0.42583994740E+01  0.37166612920E+03  0.40708563857E+03  0.15294330000E+03 0.  0.
    8880022    1    1    2    0    0  0.64600453205E+02  0.42583994740E+01  0.31629448033E+04  0.31673021381E+04  0.15294330000E+03 0. -1.
<mgrwt>
<rscale>  0 0.16608132E+03</rscale>
<asrwt>0</asrwt>
<pdfrwt beam="1">  1        2 0.54684533E+00 0.16608132E+03</pdfrwt>
<pdfrwt beam="2">  1       -2 0.30597613E-02 0.16608132E+03</pdfrwt>
<totfact> 0.39861035E+02</totfact>
</mgrwt>
</event>
<event>
 4    1  0.4639964E-008  0.5434213E+03  0.7818608E-02  0.1003028E+00
          2   -1    0    0  501    0  0.00000000000E+00  0.00000000000E+00  0.10059739431E+04  0.10059739431E+04  0.25500000000E-02 0. -1.
         -2   -1    0    0    0  501 -0.00000000000E+00 -0.00000000000E+00 -0.78313430626E+03  0.78313430627E+03  0.25500000000E-02 0.  1.
    8880022    1    1    2    0    0  0.14118871379E+03 -0.50197687794E+03  0.81871532841E+03  0.98265023323E+03  0.15294330000E+03 0. -1.
    8880022    1    1    2    0    0 -0.14118871379E+03  0.50197687794E+03 -0.59587569160E+03  0.80645801611E+03  0.15294330000E+03 0.  0.
<mgrwt>
<rscale>  0 0.54342128E+03</rscale>
<asrwt>0</asrwt>
<pdfrwt beam="1">  1        2 0.15476522E+00 0.54342128E+03</pdfrwt>
<pdfrwt beam="2">  1       -2 0.12048220E+00 0.54342128E+03</pdfrwt>
<totfact> 0.13721008E+01</totfact>
</mgrwt>
</event>
<event>
 4    1  0.4639964E-008  0.3217186E+03  0.7818608E-02  0.1074861E+00
         -2   -1    0    0    0  501 -0.00000000000E+00  0.00000000000E+00  0.26195917027E+03  0.26195917029E+03  0.25500000000E-02 0.  1.
          2   -1    0    0  501    0  0.00000000000E+00 -0.00000000000E+00 -0.12168319987E+04  0.12168319987E+04  0.25500000000E-02 0. -1.
    8880022    1    1    2    0    0  0.28228367606E+03  0.20667475163E+02  0.13017204792E+03  0.34705566322E+03  0.15294330000E+03 0.  0.
    8880022    1    1    2    0    0 -0.28228367606E+03 -0.20667475163E+02 -0.10850448763E+04  0.11317355058E+04  0.15294330000E+03 0.  0.
<mgrwt>
<rscale>  0 0.32171862E+03</rscale>
<asrwt>0</asrwt>
<pdfrwt beam="1">  1        2 0.18720492E+00 0.32171862E+03</pdfrwt>
<pdfrwt beam="2">  1       -2 0.40301411E-01 0.32171862E+03</pdfrwt>
<totfact> 0.11504853E+02</totfact>
</mgrwt>
</event>
<event>
 4    1  0.4639964E-008  0.2952357E+03  0.7818608E-02  0.1087647E+00
         -2   -1    0    0    0  501 -0.00000000000E+00  0.00000000000E+00  0.34614924262E+03  0.34614924263E+03  0.25500000000E-02 0.  1.
          2   -1    0    0  501    0  0.00000000000E+00 -0.00000000000E+00 -0.39854015968E+03  0.39854015968E+03  0.25500000000E-02 0. -1.
    8880022    1    1    2    0    0 -0.24291124821E+03 -0.69040679150E+02 -0.25212214663E+03  0.38823925577E+03  0.15294330000E+03 0. -1.
    8880022    1    1    2    0    0  0.24291124821E+03  0.69040679150E+02  0.19973122957E+03  0.35645014654E+03  0.15294330000E+03 0.  0.
<mgrwt>
<rscale>  0 0.29523574E+03</rscale>
<asrwt>0</asrwt>
<pdfrwt beam="1">  1        2 0.61313871E-01 0.29523574E+03</pdfrwt>
<pdfrwt beam="2">  1       -2 0.53253730E-01 0.29523574E+03</pdfrwt>
<totfact> 0.27264299E+02</totfact>
</mgrwt>
</event>
<event>
 4    1  0.4639964E-008  0.2642190E+03  0.7818608E-02  0.1104635E+00
          2   -1    0    0  501    0  0.00000000000E+00  0.00000000000E+00  0.11156866433E+04  0.11156866433E+04  0.25500000000E-02 0. -1.
         -2   -1    0    0    0  501 -0.00000000000E+00 -0.00000000000E+00 -0.11490947257E+03  0.11490947260E+03  0.25500000000E-02 0.  1.
    8880022    1    1    2    0    0 -0.11433594959E+03  0.18261242917E+03  0.85137676499E+02  0.27759698419E+03  0.15294330000E+03 0.  0.
    8880022    1    1    2    0    0  0.11433594959E+03 -0.18261242917E+03  0.91563949421E+03  0.95299913170E+03  0.15294330000E+03 0.  0.
<mgrwt>
<rscale>  0 0.26421897E+03</rscale>
<asrwt>0</asrwt>
<pdfrwt beam="1">  1        2 0.17164409E+00 0.26421897E+03</pdfrwt>
<pdfrwt beam="2">  1       -2 0.17678381E-01 0.26421897E+03</pdfrwt>
<totfact> 0.58354141E+02</totfact>
</mgrwt>
</event>
<event>
 4    1  0.4639964E-008  0.3325708E+03  0.7818608E-02  0.1070005E+00
         -2   -1    0    0    0  501 -0.00000000000E+00  0.00000000000E+00  0.87422844052E+03  0.87422844052E+03  0.25500000000E-02 0.  1.
          2   -1    0    0  501    0  0.00000000000E+00 -0.00000000000E+00 -0.27219964529E+03  0.27219964531E+03  0.25500000000E-02 0. -1.
    8880022    1    1    2    0    0 -0.13535295508E+03 -0.26247140016E+03  0.72036707735E+03  0.79343054988E+03  0.15294330000E+03 0.  1.
    8880022    1    1    2    0    0  0.13535295508E+03  0.26247140016E+03 -0.11833828212E+03  0.35299753594E+03  0.15294330000E+03 0.  0.
<mgrwt>
<rscale>  0 0.33257076E+03</rscale>
<asrwt>0</asrwt>
<pdfrwt beam="1">  1        2 0.41876868E-01 0.33257076E+03</pdfrwt>
<pdfrwt beam="2">  1       -2 0.13449669E+00 0.33257076E+03</pdfrwt>
<totfact> 0.50957753E+01</totfact>
</mgrwt>
</event>
<event>
 4    1  0.4639964E-008  0.2054064E+03  0.7818608E-02  0.1145256E+00
         -2   -1    0    0    0  501 -0.00000000000E+00  0.00000000000E+00  0.58462308502E+02  0.58462308558E+02  0.25500000000E-02 0.  1.
          2   -1    0    0  501    0  0.00000000000E+00 -0.00000000000E+00 -0.18948894349E+04  0.18948894349E+04  0.25500000000E-02 0. -1.
    8880022    1    1    2    0    0  0.13526865683E+03 -0.22417001288E+02 -0.16867138979E+04  0.16991749639E+04  0.15294330000E+03 0.  0.
    8880022    1    1    2    0    0 -0.13526865683E+03  0.22417001288E+02 -0.14971322845E+03  0.25417677953E+03  0.15294330000E+03 0.  1.
<mgrwt>
<rscale>  0 0.20540639E+03</rscale>
<asrwt>0</asrwt>
<pdfrwt beam="1">  1        2 0.29152140E+00 0.20540639E+03</pdfrwt>
<pdfrwt beam="2">  1       -2 0.89942028E-02 0.20540639E+03</pdfrwt>
<totfact> 0.67108515E+02</totfact>
</mgrwt>
</event>
<event>
 4    1  0.4639964E-008  0.7679655E+03  0.7818608E-02  0.9607579E-01
          2   -1    0    0  501    0  0.00000000000E+00  0.00000000000E+00  0.82785258256E+03  0.82785258257E+03  0.25500000000E-02 0. -1.
         -2   -1    0    0    0  501 -0.00000000000E+00 -0.00000000000E+00 -0.17100809222E+04  0.17100809222E+04  0.25500000000E-02 0.  1.
    8880022    1    1    2    0    0 -0.63511143897E+03 -0.40374841062E+03  0.52813499342E+03  0.93203945371E+03  0.15294330000E+03 0.  0.
    8880022    1    1    2    0    0  0.63511143897E+03  0.40374841062E+03 -0.14103633331E+04  0.16058940511E+04  0.15294330000E+03 0.  0.
<mgrwt>
<rscale>  0 0.76796548E+03</rscale>
<asrwt>0</asrwt>
<pdfrwt beam="1">  1        2 0.12736194E+00 0.76796548E+03</pdfrwt>
<pdfrwt beam="2">  1       -2 0.26308937E+00 0.76796548E+03</pdfrwt>
<totfact> 0.18137357E+00</totfact>
</mgrwt>
</event>
<event>
 4    1  0.4639964E-008  0.5259171E+03  0.7818608E-02  0.1007227E+00
         -2   -1    0    0    0  501 -0.00000000000E+00  0.00000000000E+00  0.26614568031E+03  0.26614568032E+03  0.25500000000E-02 0.  1.
          2   -1    0    0  501    0  0.00000000000E+00 -0.00000000000E+00 -0.22760871930E+04  0.22760871930E+04  0.25500000000E-02 0. -1.
    8880022    1    1    2    0    0  0.50151154326E+03 -0.41028629661E+02 -0.19419914444E+04  0.20119442337E+04  0.15294330000E+03 0.  0.
    8880022    1    1    2    0    0 -0.50151154326E+03  0.41028629661E+02 -0.67950068263E+02  0.53028863957E+03  0.15294330000E+03 0.  0.
<mgrwt>
<rscale>  0 0.52591713E+03</rscale>
<asrwt>0</asrwt>
<pdfrwt beam="1">  1        2 0.35016725E+00 0.52591713E+03</pdfrwt>
<pdfrwt beam="2">  1       -2 0.40945491E-01 0.52591713E+03</pdfrwt>
<totfact> 0.28498391E+01</totfact>
</mgrwt>
</event>
<event>
 4    1  0.4639964E-008  0.4953257E+03  0.7818608E-02  0.1015006E+00
          2   -1    0    0  501    0  0.00000000000E+00  0.00000000000E+00  0.13094483608E+04  0.13094483608E+04  0.25500000000E-02 0. -1.
         -2   -1    0    0    0  501 -0.00000000000E+00 -0.00000000000E+00 -0.36876073493E+03  0.36876073494E+03  0.25500000000E-02 0.  1.
    8880022    1    1    2    0    0  0.18243652690E+03  0.43436483737E+03  0.10588550400E+04  0.11689831252E+04  0.15294330000E+03 0.  0.
    8880022    1    1    2    0    0 -0.18243652690E+03 -0.43436483737E+03 -0.11816741412E+03  0.50922597054E+03  0.15294330000E+03 0.  0.
<mgrwt>
<rscale>  0 0.49532570E+03</rscale>
<asrwt>0</asrwt>
<pdfrwt beam="1">  1        2 0.20145359E+00 0.49532570E+03</pdfrwt>
<pdfrwt beam="2">  1       -2 0.56732422E-01 0.49532570E+03</pdfrwt>
<totfact> 0.49992303E+01</totfact>
</mgrwt>
</event>
<event>
 4    1  0.4639964E-008  0.3173722E+03  0.7818608E-02  0.1076865E+00
         -2   -1    0    0    0  501 -0.00000000000E+00  0.00000000000E+00  0.17242256293E+03  0.17242256295E+03  0.25500000000E-02 0.  1.
          2   -1    0    0  501    0  0.00000000000E+00 -0.00000000000E+00 -0.17196572918E+04  0.17196572918E+04  0.25500000000E-02 0. -1.
    8880022    1    1    2    0    0  0.63585220819E+02 -0.27072193612E+03 -0.48790440247E+01  0.31740968021E+03  0.15294330000E+03 0.  0.
    8880022    1    1    2    0    0 -0.63585220819E+02  0.27072193612E+03 -0.15423556848E+04  0.15746701745E+04  0.15294330000E+03 0.  0.
<mgrwt>
<rscale>  0 0.31737218E+03</rscale>
<asrwt>0</asrwt>
<pdfrwt beam="1">  1        2 0.26456265E+00 0.31737218E+03</pdfrwt>
<pdfrwt beam="2">  1       -2 0.26526549E-01 0.31737218E+03</pdfrwt>
<totfact> 0.13319971E+02</totfact>
</mgrwt>
</event>
<event>
 4    1  0.4639964E-008  0.9123446E+03  0.7818608E-02  0.9410280E-01
          2   -1    0    0  501    0  0.00000000000E+00  0.00000000000E+00  0.13514301722E+04  0.13514301723E+04  0.25500000000E-02 0. -1.
         -2   -1    0    0    0  501 -0.00000000000E+00 -0.00000000000E+00 -0.94063008275E+03  0.94063008275E+03  0.25500000000E-02 0.  1.
    8880022    1    1    2    0    0  0.78409121693E+03 -0.44066087234E+03 -0.46794020838E+03  0.10253490784E+04  0.15294330000E+03 0.  0.
    8880022    1    1    2    0    0 -0.78409121693E+03  0.44066087234E+03  0.87874029788E+03  0.12667111766E+04  0.15294330000E+03 0.  0.
<mgrwt>
<rscale>  0 0.91234461E+03</rscale>
<asrwt>0</asrwt>
<pdfrwt beam="1">  1        2 0.20791233E+00 0.91234461E+03</pdfrwt>
<pdfrwt beam="2">  1       -2 0.14471232E+00 0.91234461E+03</pdfrwt>
<totfact> 0.50930169E+00</totfact>
</mgrwt>
</event>
<event>
 4    1  0.4639964E-008  0.5453334E+03  0.7818608E-02  0.1002580E+00
          2   -1    0    0  501    0  0.00000000000E+00  0.00000000000E+00  0.54673117696E+03  0.54673117697E+03  0.25500000000E-02 0. -1.
         -2   -1    0    0    0  501 -0.00000000000E+00 -0.00000000000E+00 -0.10549154188E+04  0.10549154188E+04  0.25500000000E-02 0.  1.
    8880022    1    1    2    0    0  0.43613068127E+03 -0.28945974015E+03  0.30325811257E+03  0.62398241014E+03  0.15294330000E+03 0.  0.
    8880022    1    1    2    0    0 -0.43613068127E+03  0.28945974015E+03 -0.81144235442E+03  0.97766418564E+03  0.15294330000E+03 0.  0.
<mgrwt>
<rscale>  0 0.54533344E+03</rscale>
<asrwt>0</asrwt>
<pdfrwt beam="1">  1        2 0.84112489E-01 0.54533344E+03</pdfrwt>
<pdfrwt beam="2">  1       -2 0.16229468E+00 0.54533344E+03</pdfrwt>
<totfact> 0.13957176E+01</totfact>
</mgrwt>
</event>
<event>
 4    1  0.4639964E-008  0.2145007E+04  0.7818608E-02  0.8541673E-01
          2   -1    0    0  501    0  0.00000000000E+00  0.00000000000E+00  0.27201890154E+04  0.27201890154E+04  0.25500000000E-02 0. -1.
         -2   -1    0    0    0  501 -0.00000000000E+00 -0.00000000000E+00 -0.19533885812E+04  0.19533885812E+04  0.25500000000E-02 0.  1.
    8880022    1    1    2    0    0  0.10003503904E+04 -0.18912858805E+04  0.12391121317E+04  0.24771866529E+04  0.15294330000E+03 0.  0.
    8880022    1    1    2    0    0 -0.10003503904E+04  0.18912858805E+04 -0.47231169744E+03  0.21963909437E+04  0.15294330000E+03 0.  0.
<mgrwt>
<rscale>  0 0.21450070E+04</rscale>
<asrwt>0</asrwt>
<pdfrwt beam="1">  1        2 0.41849062E+00 0.21450070E+04</pdfrwt>
<pdfrwt beam="2">  1       -2 0.30052132E+00 0.21450070E+04</pdfrwt>
<totfact> 0.71132121E-02</totfact>
</mgrwt>
</event>
<event>
 4    1  0.4639964E-008  0.4507153E+03  0.7818608E-02  0.1027509E+00
          2   -1    0    0  501    0  0.00000000000E+00  0.00000000000E+00  0.25253314437E+04  0.25253314437E+04  0.25500000000E-02 0. -1.
         -2   -1    0    0    0  501 -0.00000000000E+00 -0.00000000000E+00 -0.62336397253E+03  0.62336397254E+03  0.25500000000E-02 0.  1.
    8880022    1    1    2    0    0  0.84028508781E+02  0.41556204842E+03  0.24202424358E+04  0.24618524951E+04  0.15294330000E+03 0.  0.
    8880022    1    1    2    0    0 -0.84028508781E+02 -0.41556204842E+03 -0.51827496464E+03  0.68684292117E+03  0.15294330000E+03 0.  0.
<mgrwt>
<rscale>  0 0.45071528E+03</rscale>
<asrwt>0</asrwt>
<pdfrwt beam="1">  1        2 0.38851253E+00 0.45071528E+03</pdfrwt>
<pdfrwt beam="2">  1       -2 0.95902150E-01 0.45071528E+03</pdfrwt>
<totfact> 0.34695868E+00</totfact>
</mgrwt>
</event>
<event>
 4    1  0.4639964E-008  0.8424892E+03  0.7818608E-02  0.9500474E-01
          2   -1    0    0  501    0  0.00000000000E+00  0.00000000000E+00  0.37606373387E+04  0.37606373387E+04  0.25500000000E-02 0. -1.
         -2   -1    0    0    0  501 -0.00000000000E+00 -0.00000000000E+00 -0.65757130355E+03  0.65757130356E+03  0.25500000000E-02 0.  1.
    8880022    1    1    2    0    0  0.49944494859E+03 -0.66102278459E+03 -0.31378309670E+03  0.89902606370E+03  0.15294330000E+03 0.  0.
    8880022    1    1    2    0    0 -0.49944494859E+03  0.66102278459E+03  0.34168491318E+04  0.35191825786E+04  0.15294330000E+03 0.  0.
<mgrwt>
<rscale>  0 0.84248919E+03</rscale>
<asrwt>0</asrwt>
<pdfrwt beam="1">  1        2 0.57855960E+00 0.84248919E+03</pdfrwt>
<pdfrwt beam="2">  1       -2 0.10116481E+00 0.84248919E+03</pdfrwt>
<totfact> 0.45515327E-01</totfact>
</mgrwt>
</event>
<event>
 4    1  0.4639964E-008  0.7240995E+03  0.7818608E-02  0.9676884E-01
          2   -1    0    0  501    0  0.00000000000E+00  0.00000000000E+00  0.19469085515E+04  0.19469085515E+04  0.25500000000E-02 0. -1.
         -2   -1    0    0    0  501 -0.00000000000E+00 -0.00000000000E+00 -0.94249668226E+03  0.94249668226E+03  0.25500000000E-02 0.  1.
    8880022    1    1    2    0    0  0.43468093988E+03  0.55855245511E+03  0.17231805113E+04  0.18691364563E+04  0.15294330000E+03 0.  0.
    8880022    1    1    2    0    0 -0.43468093988E+03 -0.55855245511E+03 -0.71876864203E+03  0.10202687775E+04  0.15294330000E+03 0.  0.
<mgrwt>
<rscale>  0 0.72409945E+03</rscale>
<asrwt>0</asrwt>
<pdfrwt beam="1">  1        2 0.29952439E+00 0.72409945E+03</pdfrwt>
<pdfrwt beam="2">  1       -2 0.14499949E+00 0.72409945E+03</pdfrwt>
<totfact> 0.24397939E+00</totfact>
</mgrwt>
</event>
<event>
 4    1  0.4639964E-008  0.3556098E+03  0.7818608E-02  0.1060336E+00
         -2   -1    0    0    0  501 -0.00000000000E+00  0.00000000000E+00  0.26735419299E+03  0.26735419300E+03  0.25500000000E-02 0.  1.
          2   -1    0    0  501    0  0.00000000000E+00 -0.00000000000E+00 -0.18936740856E+04  0.18936740856E+04  0.25500000000E-02 0. -1.
    8880022    1    1    2    0    0  0.83604604926E+01 -0.32093116286E+03 -0.17490507154E+04  0.17848352211E+04  0.15294330000E+03 0. -1.
    8880022    1    1    2    0    0 -0.83604604926E+01  0.32093116286E+03  0.12273082279E+03  0.37619305745E+03  0.15294330000E+03 0.  0.
<mgrwt>
<rscale>  0 0.35560984E+03</rscale>
<asrwt>0</asrwt>
<pdfrwt beam="1">  1        2 0.29133447E+00 0.35560984E+03</pdfrwt>
<pdfrwt beam="2">  1       -2 0.41131416E-01 0.35560984E+03</pdfrwt>
<totfact> 0.47166098E+01</totfact>
</mgrwt>
</event>
<event>
 4    1  0.4639964E-008  0.3033927E+03  0.7818608E-02  0.1083557E+00
         -2   -1    0    0    0  501 -0.00000000000E+00  0.00000000000E+00  0.12822440048E+03  0.12822440050E+03  0.25500000000E-02 0.  1.
          2   -1    0    0  501    0  0.00000000000E+00 -0.00000000000E+00 -0.14106497933E+04  0.14106497933E+04  0.25500000000E-02 0. -1.
    8880022    1    1    2    0    0  0.11442926504E+03  0.23571466640E+03 -0.11804307071E+04  0.12187960321E+04  0.15294330000E+03 0.  0.
    8880022    1    1    2    0    0 -0.11442926504E+03 -0.23571466640E+03 -0.10199468572E+03  0.32007816167E+03  0.15294330000E+03 0.  1.
<mgrwt>
<rscale>  0 0.30339267E+03</rscale>
<asrwt>0</asrwt>
<pdfrwt beam="1">  1        2 0.21702303E+00 0.30339267E+03</pdfrwt>
<pdfrwt beam="2">  1       -2 0.19726832E-01 0.30339267E+03</pdfrwt>
<totfact> 0.32881764E+02</totfact>
</mgrwt>
</event>
<event>
 4    1  0.4639964E-008  0.5733873E+03  0.7818608E-02  0.9962211E-01
          2   -1    0    0  501    0  0.00000000000E+00  0.00000000000E+00  0.10836657854E+04  0.10836657854E+04  0.25500000000E-02 0. -1.
         -2   -1    0    0    0  501 -0.00000000000E+00 -0.00000000000E+00 -0.76829297565E+03  0.76829297565E+03  0.25500000000E-02 0.  1.
    8880022    1    1    2    0    0  0.12808519528E+03  0.53756444826E+03  0.87799600217E+03  0.10486419723E+04  0.15294330000E+03 0. -1.
    8880022    1    1    2    0    0 -0.12808519528E+03 -0.53756444826E+03 -0.56262319245E+03  0.80331678869E+03  0.15294330000E+03 0.  0.
<mgrwt>
<rscale>  0 0.57338731E+03</rscale>
<asrwt>0</asrwt>
<pdfrwt beam="1">  1        2 0.16671781E+00 0.57338731E+03</pdfrwt>
<pdfrwt beam="2">  1       -2 0.11819892E+00 0.57338731E+03</pdfrwt>
<totfact> 0.12815586E+01</totfact>
</mgrwt>
</event>
<event>
 4    1  0.4639964E-008  0.5250473E+03  0.7818608E-02  0.1007440E+00
         -2   -1    0    0    0  501 -0.00000000000E+00  0.00000000000E+00  0.41175278679E+03  0.41175278680E+03  0.25500000000E-02 0.  1.
          2   -1    0    0  501    0  0.00000000000E+00 -0.00000000000E+00 -0.11535340563E+04  0.11535340563E+04  0.25500000000E-02 0. -1.
    8880022    1    1    2    0    0  0.47302202580E+03  0.16891774198E+03  0.13607664482E+03  0.54239427239E+03  0.15294330000E+03 0.  0.
    8880022    1    1    2    0    0 -0.47302202580E+03 -0.16891774198E+03 -0.87785791434E+03  0.10228925707E+04  0.15294330000E+03 0.  0.
<mgrwt>
<rscale>  0 0.52504732E+03</rscale>
<asrwt>0</asrwt>
<pdfrwt beam="1">  1        2 0.17746678E+00 0.52504732E+03</pdfrwt>
<pdfrwt beam="2">  1       -2 0.63346583E-01 0.52504732E+03</pdfrwt>
<totfact> 0.48621531E+01</totfact>
</mgrwt>
</event>
<event>
 4    1  0.4639964E-008  0.3545547E+03  0.7818608E-02  0.1060761E+00
          2   -1    0    0  501    0  0.00000000000E+00  0.00000000000E+00  0.88716297668E+03  0.88716297668E+03  0.25500000000E-02 0. -1.
         -2   -1    0    0    0  501 -0.00000000000E+00 -0.00000000000E+00 -0.50930632290E+03  0.50930632291E+03  0.25500000000E-02 0.  1.
    8880022    1    1    2    0    0  0.31767258353E+03 -0.37436738435E+02  0.78213312480E+03  0.85874400006E+03  0.15294330000E+03 0.  0.
    8880022    1    1    2    0    0 -0.31767258353E+03  0.37436738435E+02 -0.40427647103E+03  0.53772529953E+03  0.15294330000E+03 0.  0.
<mgrwt>
<rscale>  0 0.35455470E+03</rscale>
<asrwt>0</asrwt>
<pdfrwt beam="1">  1        2 0.13648661E+00 0.35455470E+03</pdfrwt>
<pdfrwt beam="2">  1       -2 0.78354820E-01 0.35455470E+03</pdfrwt>
<totfact> 0.46104075E+01</totfact>
</mgrwt>
</event>
<event>
 4    1  0.4639964E-008  0.6490008E+03  0.7818608E-02  0.9808656E-01
         -2   -1    0    0    0  501 -0.00000000000E+00  0.00000000000E+00  0.13143062874E+04  0.13143062874E+04  0.25500000000E-02 0.  1.
          2   -1    0    0  501    0  0.00000000000E+00 -0.00000000000E+00 -0.88172597168E+03  0.88172597169E+03  0.25500000000E-02 0. -1.
    8880022    1    1    2    0    0  0.30363689794E+03 -0.55282453302E+03  0.10923233299E+04  0.12705794899E+04  0.15294330000E+03 0.  0.
    8880022    1    1    2    0    0 -0.30363689794E+03  0.55282453302E+03 -0.65974301423E+03  0.92545276915E+03  0.15294330000E+03 0.  0.
<mgrwt>
<rscale>  0 0.64900076E+03</rscale>
<asrwt>0</asrwt>
<pdfrwt beam="1">  1        2 0.13565015E+00 0.64900076E+03</pdfrwt>
<pdfrwt beam="2">  1       -2 0.20220097E+00 0.64900076E+03</pdfrwt>
<totfact> 0.40332355E+00</totfact>
</mgrwt>
</event>
<event>
 4    1  0.4639964E-008  0.8294434E+03  0.7818608E-02  0.9518350E-01
         -2   -1    0    0    0  501 -0.00000000000E+00  0.00000000000E+00  0.15723118679E+04  0.15723118679E+04  0.25500000000E-02 0.  1.
          2   -1    0    0  501    0  0.00000000000E+00 -0.00000000000E+00 -0.16200981831E+04  0.16200981831E+04  0.25500000000E-02 0. -1.
    8880022    1    1    2    0    0  0.25084845047E+03  0.77566733949E+03 -0.13876159591E+04  0.16166182201E+04  0.15294330000E+03 0.  0.
    8880022    1    1    2    0    0 -0.25084845047E+03 -0.77566733949E+03  0.13398296439E+04  0.15757918309E+04  0.15294330000E+03 0.  0.
<mgrwt>
<rscale>  0 0.82944344E+03</rscale>
<asrwt>0</asrwt>
<pdfrwt beam="1">  1        2 0.24924587E+00 0.82944344E+03</pdfrwt>
<pdfrwt beam="2">  1       -2 0.24189414E+00 0.82944344E+03</pdfrwt>
<totfact> 0.80466715E-01</totfact>
</mgrwt>
</event>
<event>
 4    1  0.4639964E-008  0.2256776E+03  0.7818608E-02  0.1129720E+00
          2   -1    0    0  501    0  0.00000000000E+00  0.00000000000E+00  0.63002394723E+03  0.63002394724E+03  0.25500000000E-02 0. -1.
         -2   -1    0    0    0  501 -0.00000000000E+00 -0.00000000000E+00 -0.17564138036E+03  0.17564138038E+03  0.25500000000E-02 0.  1.
    8880022    1    1    2    0    0 -0.23088923594E+02  0.16433387961E+03 -0.68760766727E+02  0.23592036460E+03  0.15294330000E+03 0.  0.
    8880022    1    1    2    0    0  0.23088923594E+02 -0.16433387961E+03  0.52314333360E+03  0.56974496302E+03  0.15294330000E+03 0. -1.
<mgrwt>
<rscale>  0 0.22567759E+03</rscale>
<asrwt>0</asrwt>
<pdfrwt beam="1">  1        2 0.96926762E-01 0.22567759E+03</pdfrwt>
<pdfrwt beam="2">  1       -2 0.27021750E-01 0.22567759E+03</pdfrwt>
<totfact> 0.59272018E+02</totfact>
</mgrwt>
</event>
<event>
 4    1  0.4639964E-008  0.5436956E+03  0.7818608E-02  0.1002964E+00
          2   -1    0    0  501    0  0.00000000000E+00  0.00000000000E+00  0.20196508547E+04  0.20196508547E+04  0.25500000000E-02 0. -1.
         -2   -1    0    0    0  501 -0.00000000000E+00 -0.00000000000E+00 -0.53294042687E+03  0.53294042688E+03  0.25500000000E-02 0.  1.
    8880022    1    1    2    0    0  0.47770996572E+03 -0.20977705406E+03  0.18303549597E+04  0.19093988990E+04  0.15294330000E+03 0.  0.
    8880022    1    1    2    0    0 -0.47770996572E+03  0.20977705406E+03 -0.34364453189E+03  0.64319238263E+03  0.15294330000E+03 0.  0.
<mgrwt>
<rscale>  0 0.54369557E+03</rscale>
<asrwt>0</asrwt>
<pdfrwt beam="1">  1        2 0.31071551E+00 0.54369557E+03</pdfrwt>
<pdfrwt beam="2">  1       -2 0.81990836E-01 0.54369557E+03</pdfrwt>
<totfact> 0.91649196E+00</totfact>
</mgrwt>
</event>
<event>
 4    1  0.4639964E-008  0.4794334E+03  0.7818608E-02  0.1019291E+00
          2   -1    0    0  501    0  0.00000000000E+00  0.00000000000E+00  0.14790486849E+04  0.14790486849E+04  0.25500000000E-02 0. -1.
         -2   -1    0    0    0  501 -0.00000000000E+00 -0.00000000000E+00 -0.11443419488E+04  0.11443419488E+04  0.25500000000E-02 0.  1.
    8880022    1    1    2    0    0 -0.18893294236E+03  0.41324210511E+03 -0.10520254593E+04  0.11561201988E+04  0.15294330000E+03 0.  0.
    8880022    1    1    2    0    0  0.18893294236E+03 -0.41324210511E+03  0.13867321954E+04  0.14672704349E+04  0.15294330000E+03 0.  0.
<mgrwt>
<rscale>  0 0.47943336E+03</rscale>
<asrwt>0</asrwt>
<pdfrwt beam="1">  1        2 0.22754595E+00 0.47943336E+03</pdfrwt>
<pdfrwt beam="2">  1       -2 0.17605261E+00 0.47943336E+03</pdfrwt>
<totfact> 0.27430583E+00</totfact>
</mgrwt>
</event>
<event>
 4    1  0.4639964E-008  0.5297014E+03  0.7818608E-02  0.1006305E+00
          2   -1    0    0  501    0  0.00000000000E+00  0.00000000000E+00  0.17909793730E+04  0.17909793730E+04  0.25500000000E-02 0. -1.
         -2   -1    0    0    0  501 -0.00000000000E+00 -0.00000000000E+00 -0.27102600544E+03  0.27102600545E+03  0.25500000000E-02 0.  1.
    8880022    1    1    2    0    0  0.30261732594E+03 -0.40695782721E+03  0.14296970755E+04  0.15246695707E+04  0.15294330000E+03 0.  0.
    8880022    1    1    2    0    0 -0.30261732594E+03  0.40695782721E+03  0.90256292123E+02  0.53733580782E+03  0.15294330000E+03 0.  1.
<mgrwt>
<rscale>  0 0.52970140E+03</rscale>
<asrwt>0</asrwt>
<pdfrwt beam="1">  1        2 0.27553529E+00 0.52970140E+03</pdfrwt>
<pdfrwt beam="2">  1       -2 0.41696309E-01 0.52970140E+03</pdfrwt>
<totfact> 0.50310749E+01</totfact>
</mgrwt>
</event>
<event>
 4    1  0.4639964E-008  0.5871460E+03  0.7818608E-02  0.9932439E-01
          2   -1    0    0  501    0  0.00000000000E+00  0.00000000000E+00  0.20112126824E+04  0.20112126824E+04  0.25500000000E-02 0. -1.
         -2   -1    0    0    0  501 -0.00000000000E+00 -0.00000000000E+00 -0.27384727453E+03  0.27384727454E+03  0.25500000000E-02 0.  1.
    8880022    1    1    2    0    0 -0.40709391035E+03  0.39449119659E+03  0.16989695218E+03  0.61123267534E+03  0.15294330000E+03 0.  0.
    8880022    1    1    2    0    0  0.40709391035E+03 -0.39449119659E+03  0.15674684557E+04  0.16738272816E+04  0.15294330000E+03 0.  0.
<mgrwt>
<rscale>  0 0.58714599E+03</rscale>
<asrwt>0</asrwt>
<pdfrwt beam="1">  1        2 0.30941734E+00 0.58714599E+03</pdfrwt>
<pdfrwt beam="2">  1       -2 0.42130349E-01 0.58714599E+03</pdfrwt>
<totfact> 0.37144104E+01</totfact>
</mgrwt>
</event>
<event>
 4    1  0.4639964E-008  0.5738448E+03  0.7818608E-02  0.9961207E-01
         -2   -1    0    0    0  501 -0.00000000000E+00  0.00000000000E+00  0.66627643903E+03  0.66627643903E+03  0.25500000000E-02 0.  1.
          2   -1    0    0  501    0  0.00000000000E+00 -0.00000000000E+00 -0.16711660879E+04  0.16711660879E+04  0.25500000000E-02 0. -1.
    8880022    1    1    2    0    0  0.24404985262E+03  0.49633236713E+03  0.47834617394E+03  0.74706951776E+03  0.15294330000E+03 0.  0.
    8880022    1    1    2    0    0 -0.24404985262E+03 -0.49633236713E+03 -0.14832358228E+04  0.15903730092E+04  0.15294330000E+03 0.  0.
<mgrwt>
<rscale>  0 0.57384475E+03</rscale>
<asrwt>0</asrwt>
<pdfrwt beam="1">  1        2 0.25710247E+00 0.57384475E+03</pdfrwt>
<pdfrwt beam="2">  1       -2 0.10250407E+00 0.57384475E+03</pdfrwt>
<totfact> 0.83909272E+00</totfact>
</mgrwt>
</event>
<event>
 4    1  0.4639964E-008  0.6409349E+03  0.7818608E-02  0.9823939E-01
         -2   -1    0    0    0  501 -0.00000000000E+00  0.00000000000E+00  0.34988613855E+03  0.34988613856E+03  0.25500000000E-02 0.  1.
          2   -1    0    0  501    0  0.00000000000E+00 -0.00000000000E+00 -0.15664906224E+04  0.15664906224E+04  0.25500000000E-02 0. -1.
    8880022    1    1    2    0    0 -0.57273783015E+03 -0.24367460476E+03 -0.10878724603E+04  0.12626417061E+04  0.15294330000E+03 0.  0.
    8880022    1    1    2    0    0  0.57273783015E+03  0.24367460476E+03 -0.12873202358E+03  0.65373505490E+03  0.15294330000E+03 0.  0.
<mgrwt>
<rscale>  0 0.64093493E+03</rscale>
<asrwt>0</asrwt>
<pdfrwt beam="1">  1        2 0.24099855E+00 0.64093493E+03</pdfrwt>
<pdfrwt beam="2">  1       -2 0.53828638E-01 0.64093493E+03</pdfrwt>
<totfact> 0.39270259E+01</totfact>
</mgrwt>
</event>
<event>
 4    1  0.4639964E-008  0.6458764E+03  0.7818608E-02  0.9814548E-01
          2   -1    0    0  501    0  0.00000000000E+00  0.00000000000E+00  0.29311174596E+04  0.29311174596E+04  0.25500000000E-02 0. -1.
         -2   -1    0    0    0  501 -0.00000000000E+00 -0.00000000000E+00 -0.28174138417E+03  0.28174138418E+03  0.25500000000E-02 0.  1.
    8880022    1    1    2    0    0  0.50146880460E+03 -0.37721840074E+03  0.19462887191E+03  0.67456410714E+03  0.15294330000E+03 0.  0.
    8880022    1    1    2    0    0 -0.50146880460E+03  0.37721840074E+03  0.24547472035E+04  0.25382947366E+04  0.15294330000E+03 0.  0.
<mgrwt>
<rscale>  0 0.64587641E+03</rscale>
<asrwt>0</asrwt>
<pdfrwt beam="1">  1        2 0.45094118E+00 0.64587641E+03</pdfrwt>
<pdfrwt beam="2">  1       -2 0.43344825E-01 0.64587641E+03</pdfrwt>
<totfact> 0.10499981E+01</totfact>
</mgrwt>
</event>
<event>
 4    1  0.4639964E-008  0.7857617E+03  0.7818608E-02  0.9580858E-01
         -2   -1    0    0    0  501 -0.00000000000E+00  0.00000000000E+00  0.40331597810E+03  0.40331597811E+03  0.25500000000E-02 0.  1.
          2   -1    0    0  501    0  0.00000000000E+00 -0.00000000000E+00 -0.23096089213E+04  0.23096089213E+04  0.25500000000E-02 0. -1.
    8880022    1    1    2    0    0 -0.37030888127E+03  0.67594459325E+03 -0.17408023337E+04  0.19099251762E+04  0.15294330000E+03 0.  0.
    8880022    1    1    2    0    0  0.37030888127E+03 -0.67594459325E+03 -0.16549060955E+03  0.80299972326E+03  0.15294330000E+03 0.  0.
<mgrwt>
<rscale>  0 0.78576168E+03</rscale>
<asrwt>0</asrwt>
<pdfrwt beam="1">  1        2 0.35532444E+00 0.78576168E+03</pdfrwt>
<pdfrwt beam="2">  1       -2 0.62048613E-01 0.78576168E+03</pdfrwt>
<totfact> 0.11199742E+01</totfact>
</mgrwt>
</event>
<event>
 4    1  0.4639964E-008  0.1788472E+03  0.7818608E-02  0.1168923E+00
          2   -1    0    0  501    0  0.00000000000E+00  0.00000000000E+00  0.15911928960E+04  0.15911928960E+04  0.25500000000E-02 0. -1.
         -2   -1    0    0    0  501 -0.00000000000E+00 -0.00000000000E+00 -0.20544525933E+02  0.20544526091E+02  0.25500000000E-02 0.  1.
    8880022    1    1    2    0    0  0.92679376990E+02  0.22837565857E+01  0.66706595143E+03  0.69062531016E+03  0.15294330000E+03 0. -1.
    8880022    1    1    2    0    0 -0.92679376990E+02 -0.22837565857E+01  0.90358241864E+03  0.92111211193E+03  0.15294330000E+03 0.  0.
<mgrwt>
<rscale>  0 0.17884724E+03</rscale>
<asrwt>0</asrwt>
<pdfrwt beam="1">  1        2 0.24479895E+00 0.17884724E+03</pdfrwt>
<pdfrwt beam="2">  1       -2 0.31606958E-02 0.17884724E+03</pdfrwt>
<totfact> 0.47481031E+03</totfact>
</mgrwt>
</event>
<event>
 4    1  0.4639964E-008  0.3497492E+03  0.7818608E-02  0.1062718E+00
          2   -1    0    0  501    0  0.00000000000E+00  0.00000000000E+00  0.10538070136E+04  0.10538070136E+04  0.25500000000E-02 0. -1.
         -2   -1    0    0    0  501 -0.00000000000E+00 -0.00000000000E+00 -0.19779003411E+03  0.19779003413E+03  0.25500000000E-02 0.  1.
    8880022    1    1    2    0    0 -0.13754620665E+03  0.28286730476E+03  0.83023764157E+03  0.90089903183E+03  0.15294330000E+03 0.  0.
    8880022    1    1    2    0    0  0.13754620665E+03 -0.28286730476E+03  0.25779337901E+02  0.35069801588E+03  0.15294330000E+03 0.  0.
<mgrwt>
<rscale>  0 0.34974923E+03</rscale>
<asrwt>0</asrwt>
<pdfrwt beam="1">  1        2 0.16212416E+00 0.34974923E+03</pdfrwt>
<pdfrwt beam="2">  1       -2 0.30429236E-01 0.34974923E+03</pdfrwt>
<totfact> 0.24223610E+02</totfact>
</mgrwt>
</event>
<event>
 4    1  0.4639964E-008  0.7562234E+03  0.7818608E-02  0.9625637E-01
         -2   -1    0    0    0  501 -0.00000000000E+00  0.00000000000E+00  0.91442704600E+03  0.91442704600E+03  0.25500000000E-02 0.  1.
          2   -1    0    0  501    0  0.00000000000E+00 -0.00000000000E+00 -0.11793375314E+04  0.11793375314E+04  0.25500000000E-02 0. -1.
    8880022    1    1    2    0    0 -0.16379035587E+03  0.72225677890E+03  0.58503004074E+03  0.95610351789E+03  0.15294330000E+03 0.  0.
    8880022    1    1    2    0    0  0.16379035587E+03 -0.72225677890E+03 -0.84994052614E+03  0.11376610595E+04  0.15294330000E+03 0.  0.
<mgrwt>
<rscale>  0 0.75622337E+03</rscale>
<asrwt>0</asrwt>
<pdfrwt beam="1">  1        2 0.18143654E+00 0.75622337E+03</pdfrwt>
<pdfrwt beam="2">  1       -2 0.14068108E+00 0.75622337E+03</pdfrwt>
<totfact> 0.70470776E+00</totfact>
</mgrwt>
</event>
<event>
 4    1  0.4639964E-008  0.2432394E+03  0.7818608E-02  0.1117653E+00
          2   -1    0    0  501    0  0.00000000000E+00  0.00000000000E+00  0.23587249109E+03  0.23587249110E+03  0.25500000000E-02 0. -1.
         -2   -1    0    0    0  501 -0.00000000000E+00 -0.00000000000E+00 -0.35576900291E+03  0.35576900292E+03  0.25500000000E-02 0.  1.
    8880022    1    1    2    0    0 -0.68665322801E+02 -0.17623511441E+03 -0.22060534696E+03  0.32837800510E+03  0.15294330000E+03 0.  0.
    8880022    1    1    2    0    0  0.68665322801E+02  0.17623511441E+03  0.10070883515E+03  0.26326348892E+03  0.15294330000E+03 0. -1.
<mgrwt>
<rscale>  0 0.24323938E+03</rscale>
<asrwt>0</asrwt>
<pdfrwt beam="1">  1        2 0.36288076E-01 0.24323938E+03</pdfrwt>
<pdfrwt beam="2">  1       -2 0.54733693E-01 0.24323938E+03</pdfrwt>
<totfact> 0.45634333E+02</totfact>
</mgrwt>
</event>
<event>
 4    1  0.4921398E-008  0.6045265E+03  0.7818608E-02  0.9896059E-01
         -2   -1    0    0    0  501 -0.00000000000E+00  0.00000000000E+00  0.87960553882E+03  0.87960553883E+03  0.25500000000E-02 0.  1.
          2   -1    0    0  501    0  0.00000000000E+00 -0.00000000000E+00 -0.12230702490E+04  0.12230702490E+04  0.25500000000E-02 0. -1.
    8880022    1    1    2    0    0 -0.44262829993E+03  0.38228376614E+03  0.68257478361E+03  0.91178982117E+03  0.15294330000E+03 0.  0.
    8880022    1    1    2    0    0  0.44262829993E+03 -0.38228376614E+03 -0.10260394938E+04  0.11908859667E+04  0.15294330000E+03 0.  0.
<mgrwt>
<rscale>  0 0.60452654E+03</rscale>
<asrwt>0</asrwt>
<pdfrwt beam="1">  1        2 0.18816465E+00 0.60452654E+03</pdfrwt>
<pdfrwt beam="2">  1       -2 0.13532393E+00 0.60452654E+03</pdfrwt>
<totfact> 0.75053707E+00</totfact>
</mgrwt>
</event>
<event>
 4    1  0.4863280E-008  0.6180772E+03  0.7818608E-02  0.9868596E-01
          2   -1    0    0  501    0  0.00000000000E+00  0.00000000000E+00  0.14709614645E+04  0.14709614645E+04  0.25500000000E-02 0. -1.
         -2   -1    0    0    0  501 -0.00000000000E+00 -0.00000000000E+00 -0.17070959409E+04  0.17070959409E+04  0.25500000000E-02 0.  1.
    8880022    1    1    2    0    0 -0.59091868448E+03 -0.97174382345E+02 -0.15812391640E+04  0.16977445918E+04  0.15294330000E+03 0.  0.
    8880022    1    1    2    0    0  0.59091868448E+03  0.97174382345E+02  0.13451046876E+04  0.14803128135E+04  0.15294330000E+03 0.  0.
<mgrwt>
<rscale>  0 0.61807718E+03</rscale>
<asrwt>0</asrwt>
<pdfrwt beam="1">  1        2 0.22630176E+00 0.61807718E+03</pdfrwt>
<pdfrwt beam="2">  1       -2 0.26263014E+00 0.61807718E+03</pdfrwt>
<totfact> 0.76311610E-01</totfact>
</mgrwt>
</event>
<event>
 4    1  0.4639964E-008  0.6329004E+03  0.7818608E-02  0.9839405E-01
         -2   -1    0    0    0  501 -0.00000000000E+00  0.00000000000E+00  0.29098131092E+04  0.29098131092E+04  0.25500000000E-02 0.  1.
          2   -1    0    0  501    0  0.00000000000E+00 -0.00000000000E+00 -0.26044384497E+03  0.26044384498E+03  0.25500000000E-02 0. -1.
    8880022    1    1    2    0    0  0.53254576326E+03 -0.30588605313E+03  0.24130612928E+04  0.24946798839E+04  0.15294330000E+03 0.  0.
    8880022    1    1    2    0    0 -0.53254576326E+03  0.30588605313E+03  0.23630797141E+03  0.67557707024E+03  0.15294330000E+03 0.  0.
<mgrwt>
<rscale>  0 0.63290040E+03</rscale>
<asrwt>0</asrwt>
<pdfrwt beam="1">  1        2 0.40068281E-01 0.63290040E+03</pdfrwt>
<pdfrwt beam="2">  1       -2 0.44766359E+00 0.63290040E+03</pdfrwt>
<totfact> 0.50362988E-01</totfact>
</mgrwt>
</event>
<event>
 4    1  0.4639964E-008  0.6362863E+03  0.7818608E-02  0.9832858E-01
         -2   -1    0    0    0  501 -0.00000000000E+00  0.00000000000E+00  0.41020577321E+03  0.41020577322E+03  0.25500000000E-02 0.  1.
          2   -1    0    0  501    0  0.00000000000E+00 -0.00000000000E+00 -0.13661445901E+04  0.13661445901E+04  0.25500000000E-02 0. -1.
    8880022    1    1    2    0    0  0.38354790539E+03  0.48410703971E+03 -0.94588836017E+03  0.11399846773E+04  0.15294330000E+03 0.  0.
    8880022    1    1    2    0    0 -0.38354790539E+03 -0.48410703971E+03 -0.10050456727E+02  0.63636568600E+03  0.15294330000E+03 0.  0.
<mgrwt>
<rscale>  0 0.63628631E+03</rscale>
<asrwt>0</asrwt>
<pdfrwt beam="1">  1        2 0.21017609E+00 0.63628631E+03</pdfrwt>
<pdfrwt beam="2">  1       -2 0.63108581E-01 0.63628631E+03</pdfrwt>
<totfact> 0.36406652E+01</totfact>
</mgrwt>
</event>
<event>
 4    1  0.4639964E-008  0.5245847E+03  0.7818608E-02  0.1007554E+00
          2   -1    0    0  501    0  0.00000000000E+00  0.00000000000E+00  0.12303946304E+04  0.12303946305E+04  0.25500000000E-02 0. -1.
         -2   -1    0    0    0  501 -0.00000000000E+00 -0.00000000000E+00 -0.53552006218E+03  0.53552006219E+03  0.25500000000E-02 0.  1.
    8880022    1    1    2    0    0 -0.79677446204E+02 -0.49542802362E+03 -0.32636470895E+03  0.61782117015E+03  0.15294330000E+03 0.  1.
    8880022    1    1    2    0    0  0.79677446204E+02  0.49542802362E+03  0.10212392772E+04  0.11480935225E+04  0.15294330000E+03 0.  0.
<mgrwt>
<rscale>  0 0.52458467E+03</rscale>
<asrwt>0</asrwt>
<pdfrwt beam="1">  1        2 0.18929148E+00 0.52458467E+03</pdfrwt>
<pdfrwt beam="2">  1       -2 0.82387703E-01 0.52458467E+03</pdfrwt>
<totfact> 0.24669464E+01</totfact>
</mgrwt>
</event>
<event>
 4    1  0.4639964E-008  0.9513688E+03  0.7818608E-02  0.9363552E-01
          2   -1    0    0  501    0  0.00000000000E+00  0.00000000000E+00  0.24494742099E+04  0.24494742099E+04  0.25500000000E-02 0. -1.
         -2   -1    0    0    0  501 -0.00000000000E+00 -0.00000000000E+00 -0.70551919563E+03  0.70551919564E+03  0.25500000000E-02 0.  1.
    8880022    1    1    2    0    0 -0.86081501077E+03 -0.37511124478E+03  0.19606326268E+04  0.21792620033E+04  0.15294330000E+03 0.  0.
    8880022    1    1    2    0    0  0.86081501077E+03  0.37511124478E+03 -0.21667761245E+03  0.97573140232E+03  0.15294330000E+03 0.  0.
<mgrwt>
<rscale>  0 0.95136879E+03</rscale>
<asrwt>0</asrwt>
<pdfrwt beam="1">  1        2 0.37684219E+00 0.95136879E+03</pdfrwt>
<pdfrwt beam="2">  1       -2 0.10854141E+00 0.95136879E+03</pdfrwt>
<totfact> 0.25624003E+00</totfact>
</mgrwt>
</event>
<event>
 4    1  0.4639964E-008  0.7168370E+03  0.7818608E-02  0.9688864E-01
          2   -1    0    0  501    0  0.00000000000E+00  0.00000000000E+00  0.28909679794E+04  0.28909679794E+04  0.25500000000E-02 0. -1.
         -2   -1    0    0    0  501 -0.00000000000E+00 -0.00000000000E+00 -0.46300387397E+03  0.46300387398E+03  0.25500000000E-02 0.  1.
    8880022    1    1    2    0    0  0.69677699621E+03  0.70465799937E+02  0.25302873984E+04  0.26298687387E+04  0.15294330000E+03 0. -1.
    8880022    1    1    2    0    0 -0.69677699621E+03 -0.70465799937E+02 -0.10232329294E+03  0.72410311469E+03  0.15294330000E+03 0.  0.
<mgrwt>
<rscale>  0 0.71683699E+03</rscale>
<asrwt>0</asrwt>
<pdfrwt beam="1">  1        2 0.44476431E+00 0.71683699E+03</pdfrwt>
<pdfrwt beam="2">  1       -2 0.71231365E-01 0.71683699E+03</pdfrwt>
<totfact> 0.38953134E+00</totfact>
</mgrwt>
</event>
<event>
 4    1  0.4639964E-008  0.2571518E+03  0.7818608E-02  0.1108867E+00
          2   -1    0    0  501    0  0.00000000000E+00  0.00000000000E+00  0.12905235639E+04  0.12905235639E+04  0.25500000000E-02 0. -1.
         -2   -1    0    0    0  501 -0.00000000000E+00 -0.00000000000E+00 -0.59435526620E+02  0.59435526674E+02  0.25500000000E-02 0.  1.
    8880022    1    1    2    0    0 -0.20446598194E+03  0.30480516450E+02  0.86617984517E+03  0.90354555881E+03  0.15294330000E+03 0.  0.
    8880022    1    1    2    0    0  0.20446598194E+03 -0.30480516450E+02  0.36490819208E+03  0.44641353173E+03  0.15294330000E+03 0.  1.
<mgrwt>
<rscale>  0 0.25715181E+03</rscale>
<asrwt>0</asrwt>
<pdfrwt beam="1">  1        2 0.19854207E+00 0.25715181E+03</pdfrwt>
<pdfrwt beam="2">  1       -2 0.91439277E-02 0.25715181E+03</pdfrwt>
<totfact> 0.13614333E+03</totfact>
</mgrwt>
</event>
<event>
 4    1  0.4639964E-008  0.3969064E+03  0.7818608E-02  0.1044856E+00
          2   -1    0    0  501    0  0.00000000000E+00  0.00000000000E+00  0.34610741646E+03  0.34610741647E+03  0.25500000000E-02 0. -1.
         -2   -1    0    0    0  501 -0.00000000000E+00 -0.00000000000E+00 -0.54985583138E+03  0.54985583138E+03  0.25500000000E-02 0.  1.
    8880022    1    1    2    0    0  0.20421165282E+03 -0.30404053990E+03 -0.28778227168E+03  0.49025843996E+03  0.15294330000E+03 0.  0.
    8880022    1    1    2    0    0 -0.20421165282E+03  0.30404053990E+03  0.84033856759E+02  0.40570480789E+03  0.15294330000E+03 0.  0.
<mgrwt>
<rscale>  0 0.39690641E+03</rscale>
<asrwt>0</asrwt>
<pdfrwt beam="1">  1        2 0.53247295E-01 0.39690641E+03</pdfrwt>
<pdfrwt beam="2">  1       -2 0.84593205E-01 0.39690641E+03</pdfrwt>
<totfact> 0.11744277E+02</totfact>
</mgrwt>
</event>
<event>
 4    1  0.4639964E-008  0.4676526E+03  0.7818608E-02  0.1022585E+00
         -2   -1    0    0    0  501 -0.00000000000E+00  0.00000000000E+00  0.39188273240E+03  0.39188273241E+03  0.25500000000E-02 0.  1.
          2   -1    0    0  501    0  0.00000000000E+00 -0.00000000000E+00 -0.11507561417E+04  0.11507561417E+04  0.25500000000E-02 0. -1.
    8880022    1    1    2    0    0 -0.43354988055E+03 -0.85684311521E+02  0.17410980506E+03  0.49901220165E+03  0.15294330000E+03 0.  0.
    8880022    1    1    2    0    0  0.43354988055E+03  0.85684311521E+02 -0.93298321431E+03  0.10436266724E+04  0.15294330000E+03 0.  0.
<mgrwt>
<rscale>  0 0.46765260E+03</rscale>
<asrwt>0</asrwt>
<pdfrwt beam="1">  1        2 0.17703941E+00 0.46765260E+03</pdfrwt>
<pdfrwt beam="2">  1       -2 0.60289652E-01 0.46765260E+03</pdfrwt>
<totfact> 0.54617331E+01</totfact>
</mgrwt>
</event>
<event>
 4    1  0.4639964E-008  0.3294212E+03  0.7818608E-02  0.1071393E+00
          2   -1    0    0  501    0  0.00000000000E+00  0.00000000000E+00  0.78781898753E+03  0.78781898753E+03  0.25500000000E-02 0. -1.
         -2   -1    0    0    0  501 -0.00000000000E+00 -0.00000000000E+00 -0.31855967896E+03  0.31855967897E+03  0.25500000000E-02 0.  1.
    8880022    1    1    2    0    0  0.28765348052E+03 -0.48807544323E+02  0.65139815714E+03  0.72995747367E+03  0.15294330000E+03 0.  0.
    8880022    1    1    2    0    0 -0.28765348052E+03  0.48807544323E+02 -0.18213884857E+03  0.37642119283E+03  0.15294330000E+03 0.  0.
<mgrwt>
<rscale>  0 0.32942124E+03</rscale>
<asrwt>0</asrwt>
<pdfrwt beam="1">  1        2 0.12120292E+00 0.32942124E+03</pdfrwt>
<pdfrwt beam="2">  1       -2 0.49009181E-01 0.32942124E+03</pdfrwt>
<totfact> 0.14514106E+02</totfact>
</mgrwt>
</event>
<event>
 4    1  0.4639964E-008  0.1106743E+04  0.7818608E-02  0.9198644E-01
         -2   -1    0    0    0  501 -0.00000000000E+00  0.00000000000E+00  0.10949435865E+04  0.10949435865E+04  0.25500000000E-02 0.  1.
          2   -1    0    0  501    0  0.00000000000E+00 -0.00000000000E+00 -0.16800552416E+04  0.16800552416E+04  0.25500000000E-02 0. -1.
    8880022    1    1    2    0    0  0.52967096153E+03  0.95965517981E+03 -0.10946056470E+04  0.15566125295E+04  0.15294330000E+03 0.  0.
    8880022    1    1    2    0    0 -0.52967096153E+03 -0.95965517981E+03  0.50949399190E+03  0.12183862985E+04  0.15294330000E+03 0.  0.
<mgrwt>
<rscale>  0 0.11067434E+04</rscale>
<asrwt>0</asrwt>
<pdfrwt beam="1">  1        2 0.25847004E+00 0.11067434E+04</pdfrwt>
<pdfrwt beam="2">  1       -2 0.16845286E+00 0.11067434E+04</pdfrwt>
<totfact> 0.21579876E+00</totfact>
</mgrwt>
</event>
<event>
 4    1  0.4639964E-008  0.2733707E+03  0.7818608E-02  0.1099366E+00
          2   -1    0    0  501    0  0.00000000000E+00  0.00000000000E+00  0.74316712023E+03  0.74316712023E+03  0.25500000000E-02 0. -1.
         -2   -1    0    0    0  501 -0.00000000000E+00 -0.00000000000E+00 -0.12689530747E+03  0.12689530749E+03  0.25500000000E-02 0.  1.
    8880022    1    1    2    0    0  0.18334937319E+03 -0.13312734997E+03  0.50632593357E+03  0.57541071243E+03  0.15294330000E+03 0.  0.
    8880022    1    1    2    0    0 -0.18334937319E+03  0.13312734997E+03  0.10994587918E+03  0.29465171529E+03  0.15294330000E+03 0. -1.
<mgrwt>
<rscale>  0 0.27337070E+03</rscale>
<asrwt>0</asrwt>
<pdfrwt beam="1">  1        2 0.11433340E+00 0.27337070E+03</pdfrwt>
<pdfrwt beam="2">  1       -2 0.19522355E-01 0.27337070E+03</pdfrwt>
<totfact> 0.85579581E+02</totfact>
</mgrwt>
</event>
<event>
 4    1  0.4639964E-008  0.4200866E+03  0.7818608E-02  0.1037038E+00
         -2   -1    0    0    0  501 -0.00000000000E+00  0.00000000000E+00  0.30555268332E+03  0.30555268333E+03  0.25500000000E-02 0.  1.
          2   -1    0    0  501    0  0.00000000000E+00 -0.00000000000E+00 -0.18766697278E+04  0.18766697278E+04  0.25500000000E-02 0. -1.
    8880022    1    1    2    0    0  0.28934237555E+03  0.26336687537E+03  0.12226040018E+03  0.43751614805E+03  0.15294330000E+03 0.  1.
    8880022    1    1    2    0    0 -0.28934237555E+03 -0.26336687537E+03 -0.16933774447E+04  0.17447062631E+04  0.15294330000E+03 0.  0.
<mgrwt>
<rscale>  0 0.42008663E+03</rscale>
<asrwt>0</asrwt>
<pdfrwt beam="1">  1        2 0.28871841E+00 0.42008663E+03</pdfrwt>
<pdfrwt beam="2">  1       -2 0.47008106E-01 0.42008663E+03</pdfrwt>
<totfact> 0.36477070E+01</totfact>
</mgrwt>
</event>
<event>
 4    1  0.4639964E-008  0.4961556E+03  0.7818608E-02  0.1014787E+00
         -2   -1    0    0    0  501 -0.00000000000E+00  0.00000000000E+00  0.21658792266E+03  0.21658792268E+03  0.25500000000E-02 0.  1.
          2   -1    0    0  501    0  0.00000000000E+00 -0.00000000000E+00 -0.17432440239E+04  0.17432440239E+04  0.25500000000E-02 0. -1.
    8880022    1    1    2    0    0  0.32342191551E+03  0.34376880079E+03 -0.13414006949E+04  0.14302189346E+04  0.15294330000E+03 0.  0.
    8880022    1    1    2    0    0 -0.32342191551E+03 -0.34376880079E+03 -0.18525540642E+03  0.52961301198E+03  0.15294330000E+03 0.  0.
<mgrwt>
<rscale>  0 0.49615560E+03</rscale>
<asrwt>0</asrwt>
<pdfrwt beam="1">  1        2 0.26819138E+00 0.49615560E+03</pdfrwt>
<pdfrwt beam="2">  1       -2 0.33321220E-01 0.49615560E+03</pdfrwt>
<totfact> 0.82431130E+01</totfact>
</mgrwt>
</event>
<event>
 4    1  0.4639964E-008  0.4118173E+03  0.7818608E-02  0.1039763E+00
         -2   -1    0    0    0  501 -0.00000000000E+00  0.00000000000E+00  0.40151693022E+03  0.40151693023E+03  0.25500000000E-02 0.  1.
          2   -1    0    0  501    0  0.00000000000E+00 -0.00000000000E+00 -0.10282429324E+04  0.10282429324E+04  0.25500000000E-02 0. -1.
    8880022    1    1    2    0    0  0.37812731832E+03  0.56759129952E+02  0.23538343950E+03  0.47434047297E+03  0.15294330000E+03 0.  0.
    8880022    1    1    2    0    0 -0.37812731832E+03 -0.56759129952E+02 -0.86210944167E+03  0.95541938965E+03  0.15294330000E+03 0.  0.
<mgrwt>
<rscale>  0 0.41181734E+03</rscale>
<asrwt>0</asrwt>
<pdfrwt beam="1">  1        2 0.15819122E+00 0.41181734E+03</pdfrwt>
<pdfrwt beam="2">  1       -2 0.61771836E-01 0.41181734E+03</pdfrwt>
<totfact> 0.62041527E+01</totfact>
</mgrwt>
</event>
<event>
 4    1  0.4639964E-008  0.7531833E+03  0.7818608E-02  0.9630369E-01
         -2   -1    0    0    0  501 -0.00000000000E+00  0.00000000000E+00  0.12945257360E+04  0.12945257360E+04  0.25500000000E-02 0.  1.
          2   -1    0    0  501    0  0.00000000000E+00 -0.00000000000E+00 -0.77695957231E+03  0.77695957232E+03  0.25500000000E-02 0. -1.
    8880022    1    1    2    0    0  0.37046049314E+03 -0.63769309879E+03  0.94267360228E+03  0.12066145361E+04  0.15294330000E+03 0.  0.
    8880022    1    1    2    0    0 -0.37046049314E+03  0.63769309879E+03 -0.42510743863E+03  0.86487077221E+03  0.15294330000E+03 0.  0.
<mgrwt>
<rscale>  0 0.75318332E+03</rscale>
<asrwt>0</asrwt>
<pdfrwt beam="1">  1        2 0.11953224E+00 0.75318332E+03</pdfrwt>
<pdfrwt beam="2">  1       -2 0.19915780E+00 0.75318332E+03</pdfrwt>
<totfact> 0.49252675E+00</totfact>
</mgrwt>
</event>
<event>
 4    1  0.4639964E-008  0.2985545E+03  0.7818608E-02  0.1085965E+00
          2   -1    0    0  501    0  0.00000000000E+00  0.00000000000E+00  0.42456175762E+03  0.42456175762E+03  0.25500000000E-02 0. -1.
         -2   -1    0    0    0  501 -0.00000000000E+00 -0.00000000000E+00 -0.50549266207E+03  0.50549266207E+03  0.25500000000E-02 0.  1.
    8880022    1    1    2    0    0  0.23759439821E+03 -0.96395268497E+02  0.31511214336E+03  0.43408577696E+03  0.15294330000E+03 0. -1.
    8880022    1    1    2    0    0 -0.23759439821E+03  0.96395268497E+02 -0.39604304781E+03  0.49596864274E+03  0.15294330000E+03 0.  0.
<mgrwt>
<rscale>  0 0.29855452E+03</rscale>
<asrwt>0</asrwt>
<pdfrwt beam="1">  1        2 0.65317193E-01 0.29855452E+03</pdfrwt>
<pdfrwt beam="2">  1       -2 0.77768102E-01 0.29855452E+03</pdfrwt>
<totfact> 0.11415348E+02</totfact>
</mgrwt>
</event>
<event>
 4    1  0.4639964E-008  0.3549251E+03  0.7818608E-02  0.1060612E+00
         -2   -1    0    0    0  501 -0.00000000000E+00  0.00000000000E+00  0.11417332355E+04  0.11417332355E+04  0.25500000000E-02 0.  1.
          2   -1    0    0  501    0  0.00000000000E+00 -0.00000000000E+00 -0.28369360524E+03  0.28369360525E+03  0.25500000000E-02 0. -1.
    8880022    1    1    2    0    0  0.25252228825E+03  0.19700922115E+03  0.98615981566E+03  0.10480853850E+04  0.15294330000E+03 0.  0.
    8880022    1    1    2    0    0 -0.25252228825E+03 -0.19700922115E+03 -0.12812018540E+03  0.37734145572E+03  0.15294330000E+03 0.  0.
<mgrwt>
<rscale>  0 0.35492505E+03</rscale>
<asrwt>0</asrwt>
<pdfrwt beam="1">  1        2 0.43645170E-01 0.35492505E+03</pdfrwt>
<pdfrwt beam="2">  1       -2 0.17565127E+00 0.35492505E+03</pdfrwt>
<totfact> 0.24043410E+01</totfact>
</mgrwt>
</event>
<event>
 4    1  0.4639964E-008  0.4608285E+03  0.7818608E-02  0.1024541E+00
         -2   -1    0    0    0  501 -0.00000000000E+00  0.00000000000E+00  0.15667271623E+03  0.15667271625E+03  0.25500000000E-02 0.  1.
          2   -1    0    0  501    0  0.00000000000E+00 -0.00000000000E+00 -0.18118549747E+04  0.18118549747E+04  0.25500000000E-02 0. -1.
    8880022    1    1    2    0    0  0.20887887114E+03 -0.38123599285E+03 -0.33359640136E+03  0.56890199250E+03  0.15294330000E+03 0.  0.
    8880022    1    1    2    0    0 -0.20887887114E+03  0.38123599285E+03 -0.13215858571E+04  0.13996256984E+04  0.15294330000E+03 0.  0.
<mgrwt>
<rscale>  0 0.46082851E+03</rscale>
<asrwt>0</asrwt>
<pdfrwt beam="1">  1        2 0.27874690E+00 0.46082851E+03</pdfrwt>
<pdfrwt beam="2">  1       -2 0.24103496E-01 0.46082851E+03</pdfrwt>
<totfact> 0.13754182E+02</totfact>
</mgrwt>
</event>
<event>
 4    1  0.4639964E-008  0.4305507E+03  0.7818608E-02  0.1033686E+00
         -2   -1    0    0    0  501 -0.00000000000E+00  0.00000000000E+00  0.33606162533E+03  0.33606162534E+03  0.25500000000E-02 0.  1.
          2   -1    0    0  501    0  0.00000000000E+00 -0.00000000000E+00 -0.75013039829E+03  0.75013039830E+03  0.25500000000E-02 0. -1.
    8880022    1    1    2    0    0  0.14688654618E+03 -0.37470868245E+03 -0.48642653953E+03  0.64960348331E+03  0.15294330000E+03 0.  0.
    8880022    1    1    2    0    0 -0.14688654618E+03  0.37470868245E+03  0.72357766572E+02  0.43658854033E+03  0.15294330000E+03 0.  0.
<mgrwt>
<rscale>  0 0.43055070E+03</rscale>
<asrwt>0</asrwt>
<pdfrwt beam="1">  1        2 0.11540468E+00 0.43055070E+03</pdfrwt>
<pdfrwt beam="2">  1       -2 0.51701789E-01 0.43055070E+03</pdfrwt>
<totfact> 0.13716946E+02</totfact>
</mgrwt>
</event>
<event>
 4    1  0.4639964E-008  0.1095169E+04  0.7818608E-02  0.9209913E-01
         -2   -1    0    0    0  501 -0.00000000000E+00  0.00000000000E+00  0.61287171407E+03  0.61287171408E+03  0.25500000000E-02 0.  1.
          2   -1    0    0  501    0  0.00000000000E+00 -0.00000000000E+00 -0.27606996961E+04  0.27606996961E+04  0.25500000000E-02 0. -1.
    8880022    1    1    2    0    0  0.10114203080E+04  0.39119458219E+03 -0.16380247962E+03  0.11073514103E+04  0.15294330000E+03 0.  0.
    8880022    1    1    2    0    0 -0.10114203080E+04 -0.39119458219E+03 -0.19840255024E+04  0.22662199999E+04  0.15294330000E+03 0.  0.
<mgrwt>
<rscale>  0 0.10951693E+04</rscale>
<asrwt>0</asrwt>
<pdfrwt beam="1">  1        2 0.42472302E+00 0.10951693E+04</pdfrwt>
<pdfrwt beam="2">  1       -2 0.94287958E-01 0.10951693E+04</pdfrwt>
<totfact> 0.23187063E+00</totfact>
</mgrwt>
</event>
<event>
 4    1  0.4639964E-008  0.1886578E+04  0.7818608E-02  0.8661566E-01
         -2   -1    0    0    0  501 -0.00000000000E+00  0.00000000000E+00  0.11088072558E+04  0.11088072558E+04  0.25500000000E-02 0.  1.
          2   -1    0    0  501    0  0.00000000000E+00 -0.00000000000E+00 -0.34551700916E+04  0.34551700916E+04  0.25500000000E-02 0. -1.
    8880022    1    1    2    0    0 -0.15510958447E+04 -0.10629609108E+04 -0.56520221868E+03  0.19694236259E+04  0.15294330000E+03 0.  0.
    8880022    1    1    2    0    0  0.15510958447E+04  0.10629609108E+04 -0.17811606171E+04  0.25945537216E+04  0.15294330000E+03 0.  0.
<mgrwt>
<rscale>  0 0.18865778E+04</rscale>
<asrwt>0</asrwt>
<pdfrwt beam="1">  1        2 0.53156462E+00 0.18865778E+04</pdfrwt>
<pdfrwt beam="2">  1       -2 0.17058573E+00 0.18865778E+04</pdfrwt>
<totfact> 0.16760121E-01</totfact>
</mgrwt>
</event>
<event>
 4    1  0.4639964E-008  0.2849924E+03  0.7818608E-02  0.1092993E+00
         -2   -1    0    0    0  501 -0.00000000000E+00  0.00000000000E+00  0.12042381878E+04  0.12042381878E+04  0.25500000000E-02 0.  1.
          2   -1    0    0  501    0  0.00000000000E+00 -0.00000000000E+00 -0.41422215722E+03  0.41422215723E+03  0.25500000000E-02 0. -1.
    8880022    1    1    2    0    0 -0.14993414189E+03 -0.18801268872E+03  0.11354315516E+04  0.11706517328E+04  0.15294330000E+03 0.  0.
    8880022    1    1    2    0    0  0.14993414189E+03  0.18801268872E+03 -0.34541552104E+03  0.44780861226E+03  0.15294330000E+03 0. -1.
<mgrwt>
<rscale>  0 0.28499241E+03</rscale>
<asrwt>0</asrwt>
<pdfrwt beam="1">  1        2 0.63726487E-01 0.28499241E+03</pdfrwt>
<pdfrwt beam="2">  1       -2 0.18526741E+00 0.28499241E+03</pdfrwt>
<totfact> 0.13896703E+01</totfact>
</mgrwt>
</event>
<event>
 4    1  0.4639964E-008  0.2250337E+03  0.7818608E-02  0.1130185E+00
         -2   -1    0    0    0  501 -0.00000000000E+00  0.00000000000E+00  0.63075362440E+02  0.63075362492E+02  0.25500000000E-02 0.  1.
          2   -1    0    0  501    0  0.00000000000E+00 -0.00000000000E+00 -0.14777191420E+04  0.14777191420E+04  0.25500000000E-02 0. -1.
    8880022    1    1    2    0    0  0.53967161226E+02  0.15600024667E+03 -0.18669343665E+03  0.29239463702E+03  0.15294330000E+03 0.  0.
    8880022    1    1    2    0    0 -0.53967161226E+02 -0.15600024667E+03 -0.12279503429E+04  0.12483998675E+04  0.15294330000E+03 0. -1.
<mgrwt>
<rscale>  0 0.22503374E+03</rscale>
<asrwt>0</asrwt>
<pdfrwt beam="1">  1        2 0.22734138E+00 0.22503374E+03</pdfrwt>
<pdfrwt beam="2">  1       -2 0.97039031E-02 0.22503374E+03</pdfrwt>
<totfact> 0.98216569E+02</totfact>
</mgrwt>
</event>
<event>
 4    1  0.4639964E-008  0.4001134E+03  0.7818608E-02  0.1043740E+00
          2   -1    0    0  501    0  0.00000000000E+00  0.00000000000E+00  0.67603180688E+03  0.67603180689E+03  0.25500000000E-02 0. -1.
         -2   -1    0    0    0  501 -0.00000000000E+00 -0.00000000000E+00 -0.48687580142E+03  0.48687580143E+03  0.25500000000E-02 0.  1.
    8880022    1    1    2    0    0 -0.75385604050E+02  0.36196140260E+03  0.51128786323E+03  0.64923491771E+03  0.15294330000E+03 0.  0.
    8880022    1    1    2    0    0  0.75385604050E+02 -0.36196140260E+03 -0.32213185778E+03  0.51367269061E+03  0.15294330000E+03 0.  0.
<mgrwt>
<rscale>  0 0.40011336E+03</rscale>
<asrwt>0</asrwt>
<pdfrwt beam="1">  1        2 0.10400489E+00 0.40011336E+03</pdfrwt>
<pdfrwt beam="2">  1       -2 0.74903970E-01 0.40011336E+03</pdfrwt>
<totfact> 0.71634740E+01</totfact>
</mgrwt>
</event>
<event>
 4    1  0.4639964E-008  0.2464387E+03  0.7818608E-02  0.1115576E+00
          2   -1    0    0  501    0  0.00000000000E+00  0.00000000000E+00  0.12548434497E+04  0.12548434497E+04  0.25500000000E-02 0. -1.
         -2   -1    0    0    0  501 -0.00000000000E+00 -0.00000000000E+00 -0.13052785475E+03  0.13052785478E+03  0.25500000000E-02 0.  1.
    8880022    1    1    2    0    0  0.11174911478E+03  0.15764684771E+03  0.11116162252E+04  0.11386055851E+04  0.15294330000E+03 0.  0.
    8880022    1    1    2    0    0 -0.11174911478E+03 -0.15764684771E+03  0.12699369721E+02  0.24676571937E+03  0.15294330000E+03 0.  0.
<mgrwt>
<rscale>  0 0.24643873E+03</rscale>
<asrwt>0</asrwt>
<pdfrwt beam="1">  1        2 0.19305284E+00 0.24643873E+03</pdfrwt>
<pdfrwt beam="2">  1       -2 0.20081209E-01 0.24643873E+03</pdfrwt>
<totfact> 0.39193822E+02</totfact>
</mgrwt>
</event>
<event>
 4    1  0.4639964E-008  0.3690010E+03  0.7818608E-02  0.1055076E+00
          2   -1    0    0  501    0  0.00000000000E+00  0.00000000000E+00  0.95152859003E+03  0.95152859003E+03  0.25500000000E-02 0. -1.
         -2   -1    0    0    0  501 -0.00000000000E+00 -0.00000000000E+00 -0.24675869372E+03  0.24675869373E+03  0.25500000000E-02 0.  1.
    8880022    1    1    2    0    0  0.12445338999E+03 -0.31189973485E+03  0.74071588159E+03  0.82753958282E+03  0.15294330000E+03 0. -1.
    8880022    1    1    2    0    0 -0.12445338999E+03  0.31189973485E+03 -0.35945985281E+02  0.37074770094E+03  0.15294330000E+03 0.  1.
<mgrwt>
<rscale>  0 0.36900101E+03</rscale>
<asrwt>0</asrwt>
<pdfrwt beam="1">  1        2 0.14638902E+00 0.36900101E+03</pdfrwt>
<pdfrwt beam="2">  1       -2 0.37962875E-01 0.36900101E+03</pdfrwt>
<totfact> 0.18491310E+02</totfact>
</mgrwt>
</event>
<event>
 4    1  0.4639964E-008  0.4958813E+03  0.7818608E-02  0.1014860E+00
          2   -1    0    0  501    0  0.00000000000E+00  0.00000000000E+00  0.83250766276E+03  0.83250766276E+03  0.25500000000E-02 0. -1.
         -2   -1    0    0    0  501 -0.00000000000E+00 -0.00000000000E+00 -0.70976480579E+03  0.70976480579E+03  0.25500000000E-02 0.  1.
    8880022    1    1    2    0    0 -0.45373228901E+03  0.12897153180E+03  0.65059581108E+03  0.81803007800E+03  0.15294330000E+03 0.  0.
    8880022    1    1    2    0    0  0.45373228901E+03 -0.12897153180E+03 -0.52785295411E+03  0.72424239055E+03  0.15294330000E+03 0.  0.
<mgrwt>
<rscale>  0 0.49588134E+03</rscale>
<asrwt>0</asrwt>
<pdfrwt beam="1">  1        2 0.12807810E+00 0.49588134E+03</pdfrwt>
<pdfrwt beam="2">  1       -2 0.10919459E+00 0.49588134E+03</pdfrwt>
<totfact> 0.22833022E+01</totfact>
</mgrwt>
</event>
<event>
 4    1  0.4639964E-008  0.5954717E+03  0.7818608E-02  0.9914846E-01
         -2   -1    0    0    0  501 -0.00000000000E+00  0.00000000000E+00  0.87487629386E+03  0.87487629387E+03  0.25500000000E-02 0.  1.
          2   -1    0    0  501    0  0.00000000000E+00 -0.00000000000E+00 -0.50972743520E+03  0.50972743521E+03  0.25500000000E-02 0. -1.
    8880022    1    1    2    0    0 -0.35547177072E+03  0.45258674974E+03  0.49592869859E+03  0.77493991568E+03  0.15294330000E+03 0.  0.
    8880022    1    1    2    0    0  0.35547177072E+03 -0.45258674974E+03 -0.13077983993E+03  0.60966381339E+03  0.15294330000E+03 0.  0.
<mgrwt>
<rscale>  0 0.59547174E+03</rscale>
<asrwt>0</asrwt>
<pdfrwt beam="1">  1        2 0.78419606E-01 0.59547174E+03</pdfrwt>
<pdfrwt beam="2">  1       -2 0.13459635E+00 0.59547174E+03</pdfrwt>
<totfact> 0.24591336E+01</totfact>
</mgrwt>
</event>
<event>
 4    1  0.4639964E-008  0.5731661E+03  0.7818608E-02  0.9962697E-01
          2   -1    0    0  501    0  0.00000000000E+00  0.00000000000E+00  0.12726375629E+04  0.12726375629E+04  0.25500000000E-02 0. -1.
         -2   -1    0    0    0  501 -0.00000000000E+00 -0.00000000000E+00 -0.46652720370E+03  0.46652720370E+03  0.25500000000E-02 0.  1.
    8880022    1    1    2    0    0 -0.36057063102E+03 -0.41846934620E+03 -0.17812011246E+03  0.60020513255E+03  0.15294330000E+03 0.  0.
    8880022    1    1    2    0    0  0.36057063102E+03  0.41846934620E+03  0.98423047168E+03  0.11389596341E+04  0.15294330000E+03 0.  0.
<mgrwt>
<rscale>  0 0.57316614E+03</rscale>
<asrwt>0</asrwt>
<pdfrwt beam="1">  1        2 0.19579039E+00 0.57316614E+03</pdfrwt>
<pdfrwt beam="2">  1       -2 0.71773418E-01 0.57316614E+03</pdfrwt>
<totfact> 0.31445104E+01</totfact>
</mgrwt>
</event>
<event>
 4    1  0.4639964E-008  0.4031422E+03  0.7818608E-02  0.1042697E+00
          2   -1    0    0  501    0  0.00000000000E+00  0.00000000000E+00  0.17439736385E+04  0.17439736385E+04  0.25500000000E-02 0. -1.
         -2   -1    0    0    0  501 -0.00000000000E+00 -0.00000000000E+00 -0.27098476558E+03  0.27098476559E+03  0.25500000000E-02 0.  1.
    8880022    1    1    2    0    0  0.84794832296E+02  0.36323795493E+03 -0.79563942764E+02  0.41091854361E+03  0.15294330000E+03 0.  0.
    8880022    1    1    2    0    0 -0.84794832296E+02 -0.36323795493E+03  0.15525528157E+04  0.16040398605E+04  0.15294330000E+03 0.  0.
<mgrwt>
<rscale>  0 0.40314219E+03</rscale>
<asrwt>0</asrwt>
<pdfrwt beam="1">  1        2 0.26830364E+00 0.40314219E+03</pdfrwt>
<pdfrwt beam="2">  1       -2 0.41689964E-01 0.40314219E+03</pdfrwt>
<totfact> 0.54595148E+01</totfact>
</mgrwt>
</event>
<event>
 4    1  0.4639964E-008  0.7629251E+03  0.7818608E-02  0.9615288E-01
          2   -1    0    0  501    0  0.00000000000E+00  0.00000000000E+00  0.12390241812E+04  0.12390241812E+04  0.25500000000E-02 0. -1.
         -2   -1    0    0    0  501 -0.00000000000E+00 -0.00000000000E+00 -0.93589745608E+03  0.93589745609E+03  0.25500000000E-02 0.  1.
    8880022    1    1    2    0    0 -0.72670081652E+03 -0.17483992872E+03 -0.61589080889E+03  0.98049794436E+03  0.15294330000E+03 0.  0.
    8880022    1    1    2    0    0  0.72670081652E+03  0.17483992872E+03  0.91901753401E+03  0.11944236929E+04  0.15294330000E+03 0.  0.
<mgrwt>
<rscale>  0 0.76292511E+03</rscale>
<asrwt>0</asrwt>
<pdfrwt beam="1">  1        2 0.19061910E+00 0.76292511E+03</pdfrwt>
<pdfrwt beam="2">  1       -2 0.14398422E+00 0.76292511E+03</pdfrwt>
<totfact> 0.61109010E+00</totfact>
</mgrwt>
</event>
<event>
 4    1  0.4639964E-008  0.1060358E+04  0.7818608E-02  0.9244715E-01
         -2   -1    0    0    0  501 -0.00000000000E+00  0.00000000000E+00  0.14941887955E+04  0.14941887955E+04  0.25500000000E-02 0.  1.
          2   -1    0    0  501    0  0.00000000000E+00 -0.00000000000E+00 -0.91048806244E+03  0.91048806244E+03  0.25500000000E-02 0. -1.
    8880022    1    1    2    0    0 -0.74619014141E+03 -0.73767683484E+03 -0.20901248671E+03  0.10807611727E+04  0.15294330000E+03 0.  0.
    8880022    1    1    2    0    0  0.74619014141E+03  0.73767683484E+03  0.79271321976E+03  0.13239156852E+04  0.15294330000E+03 0.  0.
<mgrwt>
<rscale>  0 0.10603577E+04</rscale>
<asrwt>0</asrwt>
<pdfrwt beam="1">  1        2 0.14007509E+00 0.10603577E+04</pdfrwt>
<pdfrwt beam="2">  1       -2 0.22987520E+00 0.10603577E+04</pdfrwt>
<totfact> 0.24413326E+00</totfact>
</mgrwt>
</event>
<event>
 4    1  0.4639964E-008  0.3729371E+03  0.7818608E-02  0.1053576E+00
         -2   -1    0    0    0  501 -0.00000000000E+00  0.00000000000E+00  0.30805416207E+03  0.30805416208E+03  0.25500000000E-02 0.  1.
          2   -1    0    0  501    0  0.00000000000E+00 -0.00000000000E+00 -0.66019239123E+03  0.66019239124E+03  0.25500000000E-02 0. -1.
    8880022    1    1    2    0    0 -0.24939504269E+03 -0.23128458283E+03  0.96131264496E+02  0.38512766533E+03  0.15294330000E+03 0.  0.
    8880022    1    1    2    0    0  0.24939504269E+03  0.23128458283E+03 -0.44826949366E+03  0.58311888799E+03  0.15294330000E+03 0.  0.
<mgrwt>
<rscale>  0 0.37293712E+03</rscale>
<asrwt>0</asrwt>
<pdfrwt beam="1">  1        2 0.10156806E+00 0.37293712E+03</pdfrwt>
<pdfrwt beam="2">  1       -2 0.47392948E-01 0.37293712E+03</pdfrwt>
<totfact> 0.19247237E+02</totfact>
</mgrwt>
</event>
<event>
 4    1  0.4639964E-008  0.4625772E+03  0.7818608E-02  0.1024036E+00
         -2   -1    0    0    0  501 -0.00000000000E+00  0.00000000000E+00  0.37874347083E+03  0.37874347084E+03  0.25500000000E-02 0.  1.
          2   -1    0    0  501    0  0.00000000000E+00 -0.00000000000E+00 -0.73992942216E+03  0.73992942216E+03  0.25500000000E-02 0. -1.
    8880022    1    1    2    0    0  0.42729932288E+03  0.89450063036E+02  0.91395174213E+02  0.47151962419E+03  0.15294330000E+03 0.  0.
    8880022    1    1    2    0    0 -0.42729932288E+03 -0.89450063036E+02 -0.45258112554E+03  0.64715326881E+03  0.15294330000E+03 0.  0.
<mgrwt>
<rscale>  0 0.46257721E+03</rscale>
<asrwt>0</asrwt>
<pdfrwt beam="1">  1        2 0.11383530E+00 0.46257721E+03</pdfrwt>
<pdfrwt beam="2">  1       -2 0.58268226E-01 0.46257721E+03</pdfrwt>
<totfact> 0.10878638E+02</totfact>
</mgrwt>
</event>
<event>
 4    1  0.4639964E-008  0.5598869E+03  0.7818608E-02  0.9992311E-01
          2   -1    0    0  501    0  0.00000000000E+00  0.00000000000E+00  0.21911054787E+04  0.21911054787E+04  0.25500000000E-02 0. -1.
         -2   -1    0    0    0  501 -0.00000000000E+00 -0.00000000000E+00 -0.23673502738E+03  0.23673502739E+03  0.25500000000E-02 0.  1.
    8880022    1    1    2    0    0 -0.51892005122E+03 -0.14423465492E+03  0.17407682324E+04  0.18285916295E+04  0.15294330000E+03 0. -1.
    8880022    1    1    2    0    0  0.51892005122E+03  0.14423465492E+03  0.21360221890E+03  0.59924887666E+03  0.15294330000E+03 0.  0.
<mgrwt>
<rscale>  0 0.55988687E+03</rscale>
<asrwt>0</asrwt>
<pdfrwt beam="1">  1        2 0.33709317E+00 0.55988687E+03</pdfrwt>
<pdfrwt beam="2">  1       -2 0.36420771E-01 0.55988687E+03</pdfrwt>
<totfact> 0.39494889E+01</totfact>
</mgrwt>
</event>
<event>
 4    1  0.4639964E-008  0.1058678E+04  0.7818608E-02  0.9246430E-01
          2   -1    0    0  501    0  0.00000000000E+00  0.00000000000E+00  0.24813587922E+04  0.24813587922E+04  0.25500000000E-02 0. -1.
         -2   -1    0    0    0  501 -0.00000000000E+00 -0.00000000000E+00 -0.69742179320E+03  0.69742179320E+03  0.25500000000E-02 0.  1.
    8880022    1    1    2    0    0  0.57370703779E+03  0.87650840594E+03 -0.51474804114E+02  0.10599283275E+04  0.15294330000E+03 0.  0.
    8880022    1    1    2    0    0 -0.57370703779E+03 -0.87650840594E+03  0.18354118031E+04  0.21188522579E+04  0.15294330000E+03 0.  0.
<mgrwt>
<rscale>  0 0.10586777E+04</rscale>
<asrwt>0</asrwt>
<pdfrwt beam="1">  1        2 0.38174751E+00 0.10586777E+04</pdfrwt>
<pdfrwt beam="2">  1       -2 0.10729566E+00 0.10586777E+04</pdfrwt>
<totfact> 0.24891486E+00</totfact>
</mgrwt>
</event>
<event>
 4    1  0.4639964E-008  0.6369502E+03  0.7818608E-02  0.9831579E-01
          2   -1    0    0  501    0  0.00000000000E+00  0.00000000000E+00  0.16796682806E+04  0.16796682806E+04  0.25500000000E-02 0. -1.
         -2   -1    0    0    0  501 -0.00000000000E+00 -0.00000000000E+00 -0.71159293800E+03  0.71159293800E+03  0.25500000000E-02 0.  1.
    8880022    1    1    2    0    0 -0.31139907972E+03 -0.53417652590E+03 -0.48771334123E+03  0.80222808721E+03  0.15294330000E+03 0.  0.
    8880022    1    1    2    0    0  0.31139907972E+03  0.53417652590E+03  0.14557886838E+04  0.15890331314E+04  0.15294330000E+03 0.  0.
<mgrwt>
<rscale>  0 0.63695023E+03</rscale>
<asrwt>0</asrwt>
<pdfrwt beam="1">  1        2 0.25841051E+00 0.63695023E+03</pdfrwt>
<pdfrwt beam="2">  1       -2 0.10947584E+00 0.63695023E+03</pdfrwt>
<totfact> 0.70091086E+00</totfact>
</mgrwt>
</event>
<event>
 4    1  0.4639964E-008  0.1751519E+03  0.7818608E-02  0.1172579E+00
         -2   -1    0    0    0  501 -0.00000000000E+00  0.00000000000E+00  0.19082492257E+03  0.19082492259E+03  0.25500000000E-02 0.  1.
          2   -1    0    0  501    0  0.00000000000E+00 -0.00000000000E+00 -0.97369779991E+03  0.97369779991E+03  0.25500000000E-02 0. -1.
    8880022    1    1    2    0    0 -0.84654136267E+02 -0.10964107855E+02 -0.92346248448E+03  0.93992613949E+03  0.15294330000E+03 0.  0.
    8880022    1    1    2    0    0  0.84654136267E+02  0.10964107855E+02  0.14058960714E+03  0.22459658301E+03  0.15294330000E+03 0.  1.
<mgrwt>
<rscale>  0 0.17515190E+03</rscale>
<asrwt>0</asrwt>
<pdfrwt beam="1">  1        2 0.14979966E+00 0.17515190E+03</pdfrwt>
<pdfrwt beam="2">  1       -2 0.29357681E-01 0.17515190E+03</pdfrwt>
<totfact> 0.29654542E+02</totfact>
</mgrwt>
</event>
<event>
 4    1  0.4639964E-008  0.7117711E+03  0.7818608E-02  0.9697311E-01
          2   -1    0    0  501    0  0.00000000000E+00  0.00000000000E+00  0.17163803834E+04  0.17163803834E+04  0.25500000000E-02 0. -1.
         -2   -1    0    0    0  501 -0.00000000000E+00 -0.00000000000E+00 -0.45325952499E+03  0.45325952499E+03  0.25500000000E-02 0.  1.
    8880022    1    1    2    0    0 -0.15918811608E+03 -0.67667246871E+03  0.12722393436E+04  0.14578103740E+04  0.15294330000E+03 0.  0.
    8880022    1    1    2    0    0  0.15918811608E+03  0.67667246871E+03 -0.91184851842E+01  0.71182953437E+03  0.15294330000E+03 0.  0.
<mgrwt>
<rscale>  0 0.71177113E+03</rscale>
<asrwt>0</asrwt>
<pdfrwt beam="1">  1        2 0.26405853E+00 0.71177113E+03</pdfrwt>
<pdfrwt beam="2">  1       -2 0.69732233E-01 0.71177113E+03</pdfrwt>
<totfact> 0.18604612E+01</totfact>
</mgrwt>
</event>
<event>
 4    1  0.4639964E-008  0.6203025E+03  0.7818608E-02  0.9864158E-01
          2   -1    0    0  501    0  0.00000000000E+00  0.00000000000E+00  0.15846937419E+04  0.15846937419E+04  0.25500000000E-02 0. -1.
         -2   -1    0    0    0  501 -0.00000000000E+00 -0.00000000000E+00 -0.65729965694E+03  0.65729965694E+03  0.25500000000E-02 0.  1.
    8880022    1    1    2    0    0 -0.54505030896E+03  0.25358171574E+03  0.13538833388E+04  0.14892196862E+04  0.15294330000E+03 0.  0.
    8880022    1    1    2    0    0  0.54505030896E+03 -0.25358171574E+03 -0.42648925377E+03  0.75277371265E+03  0.15294330000E+03 0.  0.
<mgrwt>
<rscale>  0 0.62030249E+03</rscale>
<asrwt>0</asrwt>
<pdfrwt beam="1">  1        2 0.24379904E+00 0.62030249E+03</pdfrwt>
<pdfrwt beam="2">  1       -2 0.10112302E+00 0.62030249E+03</pdfrwt>
<totfact> 0.95793970E+00</totfact>
</mgrwt>
</event>
<event>
 4    1  0.4639964E-008  0.1994491E+03  0.7818608E-02  0.1150205E+00
          2   -1    0    0  501    0  0.00000000000E+00  0.00000000000E+00  0.41391596894E+04  0.41391596894E+04  0.25500000000E-02 0. -1.
         -2   -1    0    0    0  501 -0.00000000000E+00 -0.00000000000E+00 -0.27069953193E+02  0.27069953313E+02  0.25500000000E-02 0.  1.
    8880022    1    1    2    0    0  0.31647038932E+02  0.12404334999E+03  0.37289955316E+04  0.37343255904E+04  0.15294330000E+03 0.  0.
    8880022    1    1    2    0    0 -0.31647038932E+02 -0.12404334999E+03  0.38309420464E+03  0.43190405230E+03  0.15294330000E+03 0.  0.
<mgrwt>
<rscale>  0 0.19944909E+03</rscale>
<asrwt>0</asrwt>
<pdfrwt beam="1">  1        2 0.63679401E+00 0.19944909E+03</pdfrwt>
<pdfrwt beam="2">  1       -2 0.41646068E-02 0.19944909E+03</pdfrwt>
<totfact> 0.93348769E+01</totfact>
</mgrwt>
</event>
<event>
 4    1  0.4639964E-008  0.8634691E+03  0.7818608E-02  0.9472435E-01
          2   -1    0    0  501    0  0.00000000000E+00  0.00000000000E+00  0.81817102022E+03  0.81817102022E+03  0.25500000000E-02 0. -1.
         -2   -1    0    0    0  501 -0.00000000000E+00 -0.00000000000E+00 -0.11848147818E+04  0.11848147818E+04  0.25500000000E-02 0.  1.
    8880022    1    1    2    0    0  0.67746660061E+03  0.51305574655E+03  0.29788612309E+03  0.91340844607E+03  0.15294330000E+03 0.  0.
    8880022    1    1    2    0    0 -0.67746660061E+03 -0.51305574655E+03 -0.66452988471E+03  0.10895773560E+04  0.15294330000E+03 0.  0.
<mgrwt>
<rscale>  0 0.86346908E+03</rscale>
<asrwt>0</asrwt>
<pdfrwt beam="1">  1        2 0.12587246E+00 0.86346908E+03</pdfrwt>
<pdfrwt beam="2">  1       -2 0.18227920E+00 0.86346908E+03</pdfrwt>
<totfact> 0.58802650E+00</totfact>
</mgrwt>
</event>
<event>
 4    1  0.4639964E-008  0.1669490E+03  0.7818608E-02  0.1181067E+00
          2   -1    0    0  501    0  0.00000000000E+00  0.00000000000E+00  0.19120986165E+04  0.19120986165E+04  0.25500000000E-02 0. -1.
         -2   -1    0    0    0  501 -0.00000000000E+00 -0.00000000000E+00 -0.74638885635E+02  0.74638885678E+02  0.25500000000E-02 0.  1.
    8880022    1    1    2    0    0  0.57004677268E+02  0.35082702249E+02  0.18098344672E+04  0.18175183028E+04  0.15294330000E+03 0.  0.
    8880022    1    1    2    0    0 -0.57004677268E+02 -0.35082702249E+02  0.27625263617E+02  0.16921919936E+03  0.15294330000E+03 0.  1.
<mgrwt>
<rscale>  0 0.16694904E+03</rscale>
<asrwt>0</asrwt>
<pdfrwt beam="1">  1        2 0.29416904E+00 0.16694904E+03</pdfrwt>
<pdfrwt beam="2">  1       -2 0.11482904E-01 0.16694904E+03</pdfrwt>
<totfact> 0.45023917E+02</totfact>
</mgrwt>
</event>
<event>
 4    1  0.4639964E-008  0.6158983E+03  0.7818608E-02  0.9872960E-01
          2   -1    0    0  501    0  0.00000000000E+00  0.00000000000E+00  0.53528655093E+03  0.53528655093E+03  0.25500000000E-02 0. -1.
         -2   -1    0    0    0  501 -0.00000000000E+00 -0.00000000000E+00 -0.11802490310E+04  0.11802490310E+04  0.25500000000E-02 0.  1.
    8880022    1    1    2    0    0 -0.37657424488E+03  0.46274281944E+03  0.21973114232E+03  0.65392087195E+03  0.15294330000E+03 0.  0.
    8880022    1    1    2    0    0  0.37657424488E+03 -0.46274281944E+03 -0.86469362240E+03  0.10616147100E+04  0.15294330000E+03 0.  0.
<mgrwt>
<rscale>  0 0.61589831E+03</rscale>
<asrwt>0</asrwt>
<pdfrwt beam="1">  1        2 0.82351777E-01 0.61589831E+03</pdfrwt>
<pdfrwt beam="2">  1       -2 0.18157677E+00 0.61589831E+03</pdfrwt>
<totfact> 0.10384940E+01</totfact>
</mgrwt>
</event>
<event>
 4    1  0.4639964E-008  0.5322018E+03  0.7818608E-02  0.1005700E+00
         -2   -1    0    0    0  501 -0.00000000000E+00  0.00000000000E+00  0.60075402694E+03  0.60075402694E+03  0.25500000000E-02 0.  1.
          2   -1    0    0  501    0  0.00000000000E+00 -0.00000000000E+00 -0.98252484250E+03  0.98252484251E+03  0.25500000000E-02 0. -1.
    8880022    1    1    2    0    0  0.45474777137E+03 -0.23032920099E+03  0.38005204765E+03  0.65397116781E+03  0.15294330000E+03 0.  0.
    8880022    1    1    2    0    0 -0.45474777137E+03  0.23032920099E+03 -0.76182286321E+03  0.92930770164E+03  0.15294330000E+03 0.  0.
<mgrwt>
<rscale>  0 0.53220178E+03</rscale>
<asrwt>0</asrwt>
<pdfrwt beam="1">  1        2 0.15115767E+00 0.53220178E+03</pdfrwt>
<pdfrwt beam="2">  1       -2 0.92423696E-01 0.53220178E+03</pdfrwt>
<totfact> 0.26775250E+01</totfact>
</mgrwt>
</event>
<event>
 4    1  0.4639964E-008  0.7215814E+03  0.7818608E-02  0.9681021E-01
          2   -1    0    0  501    0  0.00000000000E+00  0.00000000000E+00  0.78788493659E+03  0.78788493659E+03  0.25500000000E-02 0. -1.
         -2   -1    0    0    0  501 -0.00000000000E+00 -0.00000000000E+00 -0.20722799156E+04  0.20722799156E+04  0.25500000000E-02 0.  1.
    8880022    1    1    2    0    0 -0.64725585012E+03 -0.27990698463E+03 -0.18224239804E+04  0.19600787925E+04  0.15294330000E+03 0.  0.
    8880022    1    1    2    0    0  0.64725585012E+03  0.27990698463E+03  0.53802900135E+03  0.90008605970E+03  0.15294330000E+03 0.  0.
<mgrwt>
<rscale>  0 0.72158139E+03</rscale>
<asrwt>0</asrwt>
<pdfrwt beam="1">  1        2 0.12121307E+00 0.72158139E+03</pdfrwt>
<pdfrwt beam="2">  1       -2 0.31881229E+00 0.72158139E+03</pdfrwt>
<totfact> 0.90265977E-01</totfact>
</mgrwt>
</event>
<event>
 4    1  0.4639964E-008  0.5337657E+03  0.7818608E-02  0.1005323E+00
          2   -1    0    0  501    0  0.00000000000E+00  0.00000000000E+00  0.23715087745E+04  0.23715087745E+04  0.25500000000E-02 0. -1.
         -2   -1    0    0    0  501 -0.00000000000E+00 -0.00000000000E+00 -0.15982401093E+03  0.15982401095E+03  0.25500000000E-02 0.  1.
    8880022    1    1    2    0    0 -0.11907951390E+03 -0.49732705134E+03  0.17365423707E+04  0.18167237503E+04  0.15294330000E+03 0.  0.
    8880022    1    1    2    0    0  0.11907951390E+03  0.49732705134E+03  0.47514239287E+03  0.71460903517E+03  0.15294330000E+03 0.  0.
<mgrwt>
<rscale>  0 0.53376566E+03</rscale>
<asrwt>0</asrwt>
<pdfrwt beam="1">  1        2 0.36484751E+00 0.53376566E+03</pdfrwt>
<pdfrwt beam="2">  1       -2 0.24588309E-01 0.53376566E+03</pdfrwt>
<totfact> 0.65250803E+01</totfact>
</mgrwt>
</event>
<event>
 4    1  0.4639964E-008  0.8084302E+03  0.7818608E-02  0.9547894E-01
         -2   -1    0    0    0  501 -0.00000000000E+00  0.00000000000E+00  0.22136867957E+04  0.22136867957E+04  0.25500000000E-02 0.  1.
          2   -1    0    0  501    0  0.00000000000E+00 -0.00000000000E+00 -0.11346423785E+04  0.11346423785E+04  0.25500000000E-02 0. -1.
    8880022    1    1    2    0    0 -0.55611085829E+03  0.56648775697E+03  0.19794969272E+04  0.21382159393E+04  0.15294330000E+03 0.  0.
    8880022    1    1    2    0    0  0.55611085829E+03 -0.56648775697E+03 -0.90045250993E+03  0.12101132349E+04  0.15294330000E+03 0.  0.
<mgrwt>
<rscale>  0 0.80843016E+03</rscale>
<asrwt>0</asrwt>
<pdfrwt beam="1">  1        2 0.17456037E+00 0.80843016E+03</pdfrwt>
<pdfrwt beam="2">  1       -2 0.34056720E+00 0.80843016E+03</pdfrwt>
<totfact> 0.38687556E-01</totfact>
</mgrwt>
</event>
<event>
 4    1  0.4639964E-008  0.8521477E+03  0.7818608E-02  0.9487459E-01
          2   -1    0    0  501    0  0.00000000000E+00  0.00000000000E+00  0.27160604863E+04  0.27160604863E+04  0.25500000000E-02 0. -1.
         -2   -1    0    0    0  501 -0.00000000000E+00 -0.00000000000E+00 -0.36017416429E+03  0.36017416430E+03  0.25500000000E-02 0.  1.
    8880022    1    1    2    0    0 -0.73373117780E+03 -0.40546584968E+03  0.39712632056E+03  0.94014092775E+03  0.15294330000E+03 0.  0.
    8880022    1    1    2    0    0  0.73373117780E+03  0.40546584968E+03  0.19587600015E+04  0.21360937229E+04  0.15294330000E+03 0.  0.
<mgrwt>
<rscale>  0 0.85214767E+03</rscale>
<asrwt>0</asrwt>
<pdfrwt beam="1">  1        2 0.41785545E+00 0.85214767E+03</pdfrwt>
<pdfrwt beam="2">  1       -2 0.55411412E-01 0.85214767E+03</pdfrwt>
<totfact> 0.82515315E+00</totfact>
</mgrwt>
</event>
<event>
 4    1  0.4639964E-008  0.1955826E+03  0.7818608E-02  0.1153520E+00
         -2   -1    0    0    0  501 -0.00000000000E+00  0.00000000000E+00  0.35598194253E+02  0.35598194344E+02  0.25500000000E-02 0.  1.
          2   -1    0    0  501    0  0.00000000000E+00 -0.00000000000E+00 -0.20490180355E+04  0.20490180355E+04  0.25500000000E-02 0. -1.
    8880022    1    1    2    0    0  0.39366540096E+02  0.11537398852E+03 -0.17255030688E+04  0.17365521516E+04  0.15294330000E+03 0.  0.
    8880022    1    1    2    0    0 -0.39366540096E+02 -0.11537398852E+03 -0.28791677245E+03  0.34806407826E+03  0.15294330000E+03 0.  0.
<mgrwt>
<rscale>  0 0.19558255E+03</rscale>
<asrwt>0</asrwt>
<pdfrwt beam="1">  1        2 0.31523345E+00 0.19558255E+03</pdfrwt>
<pdfrwt beam="2">  1       -2 0.54766469E-02 0.19558255E+03</pdfrwt>
<totfact> 0.12033197E+03</totfact>
</mgrwt>
</event>
<event>
 4    1  0.4639964E-008  0.2253422E+03  0.7818608E-02  0.1129962E+00
          2   -1    0    0  501    0  0.00000000000E+00  0.00000000000E+00  0.18019975762E+04  0.18019975762E+04  0.25500000000E-02 0. -1.
         -2   -1    0    0    0  501 -0.00000000000E+00 -0.00000000000E+00 -0.39831260311E+02  0.39831260393E+02  0.25500000000E-02 0.  1.
    8880022    1    1    2    0    0 -0.87329447607E+02 -0.14057398046E+03  0.13791707491E+04  0.13974587953E+04  0.15294330000E+03 0. -1.
    8880022    1    1    2    0    0  0.87329447607E+02  0.14057398046E+03  0.38299556683E+03  0.44437004133E+03  0.15294330000E+03 0.  1.
<mgrwt>
<rscale>  0 0.22534225E+03</rscale>
<asrwt>0</asrwt>
<pdfrwt beam="1">  1        2 0.27723040E+00 0.22534225E+03</pdfrwt>
<pdfrwt beam="2">  1       -2 0.61278860E-02 0.22534225E+03</pdfrwt>
<totfact> 0.13581077E+03</totfact>
</mgrwt>
</event>
<event>
 4    1  0.4639964E-008  0.5419625E+03  0.7818608E-02  0.1003372E+00
         -2   -1    0    0    0  501 -0.00000000000E+00  0.00000000000E+00  0.16901711758E+03  0.16901711760E+03  0.25500000000E-02 0.  1.
          2   -1    0    0  501    0  0.00000000000E+00 -0.00000000000E+00 -0.30036067465E+04  0.30036067465E+04  0.25500000000E-02 0. -1.
    8880022    1    1    2    0    0  0.60010219076E+02 -0.51645958800E+03 -0.38751295185E+03  0.66625045838E+03  0.15294330000E+03 0.  0.
    8880022    1    1    2    0    0 -0.60010219076E+02  0.51645958800E+03 -0.24470766771E+04  0.25063734057E+04  0.15294330000E+03 0.  0.
<mgrwt>
<rscale>  0 0.54196253E+03</rscale>
<asrwt>0</asrwt>
<pdfrwt beam="1">  1        2 0.46209331E+00 0.54196253E+03</pdfrwt>
<pdfrwt beam="2">  1       -2 0.26002636E-01 0.54196253E+03</pdfrwt>
<totfact> 0.25450353E+01</totfact>
</mgrwt>
</event>
<event>
 4    1  0.4639964E-008  0.3628793E+03  0.7818608E-02  0.1057450E+00
         -2   -1    0    0    0  501 -0.00000000000E+00  0.00000000000E+00  0.41476633009E+03  0.41476633010E+03  0.25500000000E-02 0.  1.
          2   -1    0    0  501    0  0.00000000000E+00 -0.00000000000E+00 -0.42769887513E+03  0.42769887513E+03  0.25500000000E-02 0. -1.
    8880022    1    1    2    0    0 -0.30412545488E+03  0.12568791015E+03 -0.22029908486E+03  0.42451511501E+03  0.15294330000E+03 0.  0.
    8880022    1    1    2    0    0  0.30412545488E+03 -0.12568791015E+03  0.20736653982E+03  0.41795009022E+03  0.15294330000E+03 0.  0.
<mgrwt>
<rscale>  0 0.36287931E+03</rscale>
<asrwt>0</asrwt>
<pdfrwt beam="1">  1        2 0.65799827E-01 0.36287931E+03</pdfrwt>
<pdfrwt beam="2">  1       -2 0.63810205E-01 0.36287931E+03</pdfrwt>
<totfact> 0.17258212E+02</totfact>
</mgrwt>
</event>
<event>
 4    1  0.4639964E-008  0.3537369E+03  0.7818608E-02  0.1061092E+00
         -2   -1    0    0    0  501 -0.00000000000E+00  0.00000000000E+00  0.21704093846E+03  0.21704093847E+03  0.25500000000E-02 0.  1.
          2   -1    0    0  501    0  0.00000000000E+00 -0.00000000000E+00 -0.78928333952E+03  0.78928333953E+03  0.25500000000E-02 0. -1.
    8880022    1    1    2    0    0  0.25607022091E+03 -0.19017403136E+03 -0.24884839676E+02  0.35461109472E+03  0.15294330000E+03 0.  0.
    8880022    1    1    2    0    0 -0.25607022091E+03  0.19017403136E+03 -0.54735756139E+03  0.65171318328E+03  0.15294330000E+03 0.  0.
<mgrwt>
<rscale>  0 0.35373687E+03</rscale>
<asrwt>0</asrwt>
<pdfrwt beam="1">  1        2 0.12142820E+00 0.35373687E+03</pdfrwt>
<pdfrwt beam="2">  1       -2 0.33390914E-01 0.35373687E+03</pdfrwt>
<totfact> 0.30297643E+02</totfact>
</mgrwt>
</event>
<event>
 4    1  0.4639964E-008  0.6951915E+03  0.7818608E-02  0.9725491E-01
          2   -1    0    0  501    0  0.00000000000E+00  0.00000000000E+00  0.12907570865E+04  0.12907570865E+04  0.25500000000E-02 0. -1.
         -2   -1    0    0    0  501 -0.00000000000E+00 -0.00000000000E+00 -0.94336138986E+03  0.94336138986E+03  0.25500000000E-02 0.  1.
    8880022    1    1    2    0    0  0.77373323713E+02  0.67373062631E+03 -0.69380149451E+03  0.98216686711E+03  0.15294330000E+03 0.  0.
    8880022    1    1    2    0    0 -0.77373323713E+02 -0.67373062631E+03  0.10411971912E+04  0.12519516093E+04  0.15294330000E+03 0.  0.
<mgrwt>
<rscale>  0 0.69519151E+03</rscale>
<asrwt>0</asrwt>
<pdfrwt beam="1">  1        2 0.19857801E+00 0.69519151E+03</pdfrwt>
<pdfrwt beam="2">  1       -2 0.14513252E+00 0.69519151E+03</pdfrwt>
<totfact> 0.56399319E+00</totfact>
</mgrwt>
</event>
<event>
 4    1  0.4639964E-008  0.4970853E+03  0.7818608E-02  0.1014542E+00
         -2   -1    0    0    0  501 -0.00000000000E+00  0.00000000000E+00  0.14157826212E+03  0.14157826214E+03  0.25500000000E-02 0.  1.
          2   -1    0    0  501    0  0.00000000000E+00 -0.00000000000E+00 -0.30344881309E+04  0.30344881309E+04  0.25500000000E-02 0. -1.
    8880022    1    1    2    0    0 -0.41782114818E+03  0.22164762815E+03 -0.24815451956E+04  0.25308418350E+04  0.15294330000E+03 0.  0.
    8880022    1    1    2    0    0  0.41782114818E+03 -0.22164762815E+03 -0.41136467314E+03  0.64522455801E+03  0.15294330000E+03 0.  0.
<mgrwt>
<rscale>  0 0.49708534E+03</rscale>
<asrwt>0</asrwt>
<pdfrwt beam="1">  1        2 0.46684428E+00 0.49708534E+03</pdfrwt>
<pdfrwt beam="2">  1       -2 0.21781273E-01 0.49708534E+03</pdfrwt>
<totfact> 0.33760549E+01</totfact>
</mgrwt>
</event>
<event>
 4    1  0.4639964E-008  0.2809984E+03  0.7818608E-02  0.1095145E+00
         -2   -1    0    0    0  501 -0.00000000000E+00  0.00000000000E+00  0.84060353700E+03  0.84060353701E+03  0.25500000000E-02 0.  1.
          2   -1    0    0  501    0  0.00000000000E+00 -0.00000000000E+00 -0.13569672423E+03  0.13569672425E+03  0.25500000000E-02 0. -1.
    8880022    1    1    2    0    0  0.17769084055E+03 -0.15490137689E+03  0.62326678597E+03  0.68368239036E+03  0.15294330000E+03 0.  0.
    8880022    1    1    2    0    0 -0.17769084055E+03  0.15490137689E+03  0.81640026809E+02  0.29261787090E+03  0.15294330000E+03 0. -1.
<mgrwt>
<rscale>  0 0.28099844E+03</rscale>
<asrwt>0</asrwt>
<pdfrwt beam="1">  1        2 0.20876419E-01 0.28099844E+03</pdfrwt>
<pdfrwt beam="2">  1       -2 0.12932362E+00 0.28099844E+03</pdfrwt>
<totfact> 0.12254519E+02</totfact>
</mgrwt>
</event>
<event>
 4    1  0.8150694E-008  0.9873888E+03  0.7818608E-02  0.9322486E-01
          2   -1    0    0  501    0  0.00000000000E+00  0.00000000000E+00  0.15512855833E+04  0.15512855833E+04  0.25500000000E-02 0. -1.
         -2   -1    0    0    0  501 -0.00000000000E+00 -0.00000000000E+00 -0.20212606367E+04  0.20212606367E+04  0.25500000000E-02 0.  1.
    8880022    1    1    2    0    0  0.95582048454E+03  0.19481320044E+03  0.12478023150E+04  0.15912093678E+04  0.15294330000E+03 0.  0.
    8880022    1    1    2    0    0 -0.95582048454E+03 -0.19481320044E+03 -0.17177773684E+04  0.19813368523E+04  0.15294330000E+03 0.  0.
<mgrwt>
<rscale>  0 0.98738880E+03</rscale>
<asrwt>0</asrwt>
<pdfrwt beam="1">  1        2 0.23865932E+00 0.98738880E+03</pdfrwt>
<pdfrwt beam="2">  1       -2 0.31096318E+00 0.98738880E+03</pdfrwt>
<totfact> 0.32638186E-01</totfact>
</mgrwt>
</event>
<event>
 4    1  0.4639964E-008  0.6213480E+03  0.7818608E-02  0.9862079E-01
         -2   -1    0    0    0  501 -0.00000000000E+00  0.00000000000E+00  0.69722820215E+03  0.69722820215E+03  0.25500000000E-02 0.  1.
          2   -1    0    0  501    0  0.00000000000E+00 -0.00000000000E+00 -0.83348584472E+03  0.83348584473E+03  0.25500000000E-02 0. -1.
    8880022    1    1    2    0    0  0.60096278920E+03 -0.39057141005E+02  0.37528338330E+03  0.72588635822E+03  0.15294330000E+03 0.  0.
    8880022    1    1    2    0    0 -0.60096278920E+03  0.39057141005E+02 -0.51154102587E+03  0.80482768866E+03  0.15294330000E+03 0. -1.
<mgrwt>
<rscale>  0 0.62134804E+03</rscale>
<asrwt>0</asrwt>
<pdfrwt beam="1">  1        2 0.12822859E+00 0.62134804E+03</pdfrwt>
<pdfrwt beam="2">  1       -2 0.10726588E+00 0.62134804E+03</pdfrwt>
<totfact> 0.23410861E+01</totfact>
</mgrwt>
</event>
<event>
 4    1  0.4639964E-008  0.3075876E+03  0.7818608E-02  0.1081508E+00
         -2   -1    0    0    0  501 -0.00000000000E+00  0.00000000000E+00  0.18790136049E+03  0.18790136051E+03  0.25500000000E-02 0.  1.
          2   -1    0    0  501    0  0.00000000000E+00 -0.00000000000E+00 -0.17504465244E+04  0.17504465244E+04  0.25500000000E-02 0. -1.
    8880022    1    1    2    0    0  0.25797785236E+03  0.68307267896E+02  0.36720397616E+02  0.30977168330E+03  0.15294330000E+03 0.  0.
    8880022    1    1    2    0    0 -0.25797785236E+03 -0.68307267896E+02 -0.15992655615E+04  0.16285762016E+04  0.15294330000E+03 0.  0.
<mgrwt>
<rscale>  0 0.30758756E+03</rscale>
<asrwt>0</asrwt>
<pdfrwt beam="1">  1        2 0.26929945E+00 0.30758756E+03</pdfrwt>
<pdfrwt beam="2">  1       -2 0.28907903E-01 0.30758756E+03</pdfrwt>
<totfact> 0.11009745E+02</totfact>
</mgrwt>
</event>
<event>
 4    1  0.4639964E-008  0.3379331E+03  0.7818608E-02  0.1067680E+00
         -2   -1    0    0    0  501 -0.00000000000E+00  0.00000000000E+00  0.13159026376E+03  0.13159026379E+03  0.25500000000E-02 0.  1.
          2   -1    0    0  501    0  0.00000000000E+00 -0.00000000000E+00 -0.18455336634E+04  0.18455336634E+04  0.25500000000E-02 0. -1.
    8880022    1    1    2    0    0  0.15630335734E+03 -0.25763611693E+03 -0.13744782190E+03  0.36481593307E+03  0.15294330000E+03 0.  0.
    8880022    1    1    2    0    0 -0.15630335734E+03  0.25763611693E+03 -0.15764955777E+04  0.16123079941E+04  0.15294330000E+03 0.  0.
<mgrwt>
<rscale>  0 0.33793307E+03</rscale>
<asrwt>0</asrwt>
<pdfrwt beam="1">  1        2 0.28392824E+00 0.33793307E+03</pdfrwt>
<pdfrwt beam="2">  1       -2 0.20244657E-01 0.33793307E+03</pdfrwt>
<totfact> 0.18300114E+02</totfact>
</mgrwt>
</event>
<event>
 4    1  0.4639964E-008  0.6208805E+03  0.7818608E-02  0.9863008E-01
         -2   -1    0    0    0  501 -0.00000000000E+00  0.00000000000E+00  0.32159307840E+03  0.32159307841E+03  0.25500000000E-02 0.  1.
          2   -1    0    0  501    0  0.00000000000E+00 -0.00000000000E+00 -0.34504816952E+04  0.34504816952E+04  0.25500000000E-02 0. -1.
    8880022    1    1    2    0    0  0.18721197180E+03 -0.57188513403E+03 -0.30880545665E+04  0.31498529469E+04  0.15294330000E+03 0.  0.
    8880022    1    1    2    0    0 -0.18721197180E+03  0.57188513403E+03 -0.40834050353E+02  0.62222182667E+03  0.15294330000E+03 0.  0.
<mgrwt>
<rscale>  0 0.62088049E+03</rscale>
<asrwt>0</asrwt>
<pdfrwt beam="1">  1        2 0.53084331E+00 0.62088049E+03</pdfrwt>
<pdfrwt beam="2">  1       -2 0.49475861E-01 0.62088049E+03</pdfrwt>
<totfact> 0.37998196E+00</totfact>
</mgrwt>
</event>
<event>
 4    1  0.4639964E-008  0.1010621E+04  0.7818608E-02  0.9296971E-01
          2   -1    0    0  501    0  0.00000000000E+00  0.00000000000E+00  0.52443810376E+03  0.52443810377E+03  0.25500000000E-02 0. -1.
         -2   -1    0    0    0  501 -0.00000000000E+00 -0.00000000000E+00 -0.22197589724E+04  0.22197589724E+04  0.25500000000E-02 0.  1.
    8880022    1    1    2    0    0 -0.69037807388E+03  0.72204034081E+03 -0.36714830775E+03  0.10752458656E+04  0.15294330000E+03 0.  0.
    8880022    1    1    2    0    0  0.69037807388E+03 -0.72204034081E+03 -0.13281725609E+04  0.16689512105E+04  0.15294330000E+03 0.  0.
<mgrwt>
<rscale>  0 0.10106215E+04</rscale>
<asrwt>0</asrwt>
<pdfrwt beam="1">  1        2 0.80682786E-01 0.10106215E+04</pdfrwt>
<pdfrwt beam="2">  1       -2 0.34150138E+00 0.10106215E+04</pdfrwt>
<totfact> 0.10367144E+00</totfact>
</mgrwt>
</event>
<event>
 4    1  0.4639964E-008  0.2540837E+03  0.7818608E-02  0.1110751E+00
         -2   -1    0    0    0  501 -0.00000000000E+00  0.00000000000E+00  0.36345399163E+03  0.36345399164E+03  0.25500000000E-02 0.  1.
          2   -1    0    0  501    0  0.00000000000E+00 -0.00000000000E+00 -0.80104901705E+03  0.80104901705E+03  0.25500000000E-02 0. -1.
    8880022    1    1    2    0    0 -0.31790159745E+02  0.20039022173E+03  0.29485905411E+03  0.38923048445E+03  0.15294330000E+03 0.  0.
    8880022    1    1    2    0    0  0.31790159745E+02 -0.20039022173E+03 -0.73245407953E+03  0.77527252424E+03  0.15294330000E+03 0.  0.
<mgrwt>
<rscale>  0 0.25408366E+03</rscale>
<asrwt>0</asrwt>
<pdfrwt beam="1">  1        2 0.12323831E+00 0.25408366E+03</pdfrwt>
<pdfrwt beam="2">  1       -2 0.55915999E-01 0.25408366E+03</pdfrwt>
<totfact> 0.11004015E+02</totfact>
</mgrwt>
</event>
<event>
 4    1  0.4639964E-008  0.3155105E+03  0.7818608E-02  0.1077734E+00
         -2   -1    0    0    0  501 -0.00000000000E+00  0.00000000000E+00  0.38137766205E+03  0.38137766205E+03  0.25500000000E-02 0.  1.
          2   -1    0    0  501    0  0.00000000000E+00 -0.00000000000E+00 -0.57110172077E+03  0.57110172077E+03  0.25500000000E-02 0. -1.
    8880022    1    1    2    0    0 -0.22158698865E+03  0.16448227436E+03  0.25605750670E+03  0.40634014307E+03  0.15294330000E+03 0.  0.
    8880022    1    1    2    0    0  0.22158698865E+03 -0.16448227436E+03 -0.44578156542E+03  0.54613923976E+03  0.15294330000E+03 0.  0.
<mgrwt>
<rscale>  0 0.31551048E+03</rscale>
<asrwt>0</asrwt>
<pdfrwt beam="1">  1        2 0.87861803E-01 0.31551048E+03</pdfrwt>
<pdfrwt beam="2">  1       -2 0.58673486E-01 0.31551048E+03</pdfrwt>
<totfact> 0.14889852E+02</totfact>
</mgrwt>
</event>
<event>
 4    1  0.4639964E-008  0.2268614E+03  0.7818608E-02  0.1128869E+00
         -2   -1    0    0    0  501 -0.00000000000E+00  0.00000000000E+00  0.14683947904E+02  0.14683948125E+02  0.25500000000E-02 0.  1.
          2   -1    0    0  501    0  0.00000000000E+00 -0.00000000000E+00 -0.39662647508E+04  0.39662647508E+04  0.25500000000E-02 0. -1.
    8880022    1    1    2    0    0  0.14565504397E+03 -0.82819252301E+02 -0.26546472380E+04  0.26643231846E+04  0.15294330000E+03 0.  1.
    8880022    1    1    2    0    0 -0.14565504397E+03  0.82819252301E+02 -0.12969335648E+04  0.13166255143E+04  0.15294330000E+03 0. -1.
<mgrwt>
<rscale>  0 0.22686135E+03</rscale>
<asrwt>0</asrwt>
<pdfrwt beam="1">  1        2 0.61019372E+00 0.22686135E+03</pdfrwt>
<pdfrwt beam="2">  1       -2 0.22590721E-02 0.22686135E+03</pdfrwt>
<totfact> 0.31145595E+02</totfact>
</mgrwt>
</event>
<event>
 4    1  0.4639964E-008  0.1986730E+03  0.7818608E-02  0.1150863E+00
          2   -1    0    0  501    0  0.00000000000E+00  0.00000000000E+00  0.19280539632E+04  0.19280539632E+04  0.25500000000E-02 0. -1.
         -2   -1    0    0    0  501 -0.00000000000E+00 -0.00000000000E+00 -0.70676855492E+02  0.70676855538E+02  0.25500000000E-02 0.  1.
    8880022    1    1    2    0    0 -0.12172130393E+03 -0.35541764696E+02  0.86403766684E+02  0.21664846360E+03  0.15294330000E+03 0.  1.
    8880022    1    1    2    0    0  0.12172130393E+03  0.35541764696E+02  0.17709733410E+04  0.17820823551E+04  0.15294330000E+03 0.  0.
<mgrwt>
<rscale>  0 0.19867296E+03</rscale>
<asrwt>0</asrwt>
<pdfrwt beam="1">  1        2 0.29662368E+00 0.19867296E+03</pdfrwt>
<pdfrwt beam="2">  1       -2 0.10873363E-01 0.19867296E+03</pdfrwt>
<totfact> 0.47814910E+02</totfact>
</mgrwt>
</event>
<event>
 4    1  0.4639964E-008  0.3696949E+03  0.7818608E-02  0.1054810E+00
          2   -1    0    0  501    0  0.00000000000E+00  0.00000000000E+00  0.20305764309E+04  0.20305764309E+04  0.25500000000E-02 0. -1.
         -2   -1    0    0    0  501 -0.00000000000E+00 -0.00000000000E+00 -0.10424639043E+03  0.10424639046E+03  0.25500000000E-02 0.  1.
    8880022    1    1    2    0    0  0.12991282966E+03 -0.31049212278E+03  0.15985535875E+04  0.16407461494E+04  0.15294330000E+03 0.  0.
    8880022    1    1    2    0    0 -0.12991282966E+03  0.31049212278E+03  0.32777645290E+03  0.49407667190E+03  0.15294330000E+03 0.  0.
<mgrwt>
<rscale>  0 0.36969495E+03</rscale>
<asrwt>0</asrwt>
<pdfrwt beam="1">  1        2 0.31239636E+00 0.36969495E+03</pdfrwt>
<pdfrwt beam="2">  1       -2 0.16037907E-01 0.36969495E+03</pdfrwt>
<totfact> 0.21576716E+02</totfact>
</mgrwt>
</event>
<event>
 4    1  0.4639964E-008  0.3796285E+03  0.7818608E-02  0.1051071E+00
          2   -1    0    0  501    0  0.00000000000E+00  0.00000000000E+00  0.10476580933E+04  0.10476580933E+04  0.25500000000E-02 0. -1.
         -2   -1    0    0    0  501 -0.00000000000E+00 -0.00000000000E+00 -0.45054360328E+03  0.45054360329E+03  0.25500000000E-02 0.  1.
    8880022    1    1    2    0    0 -0.62295780128E+02  0.34182652827E+03  0.92291193682E+03  0.99793999609E+03  0.15294330000E+03 0.  0.
    8880022    1    1    2    0    0  0.62295780128E+02 -0.34182652827E+03 -0.32579744679E+03  0.50026170052E+03  0.15294330000E+03 0.  0.
<mgrwt>
<rscale>  0 0.37962849E+03</rscale>
<asrwt>0</asrwt>
<pdfrwt beam="1">  1        2 0.16117817E+00 0.37962849E+03</pdfrwt>
<pdfrwt beam="2">  1       -2 0.69314401E-01 0.37962849E+03</pdfrwt>
<totfact> 0.47476904E+01</totfact>
</mgrwt>
</event>
<event>
 4    1  0.4639964E-008  0.5856838E+03  0.7818608E-02  0.9935561E-01
          2   -1    0    0  501    0  0.00000000000E+00  0.00000000000E+00  0.12845513958E+04  0.12845513958E+04  0.25500000000E-02 0. -1.
         -2   -1    0    0    0  501 -0.00000000000E+00 -0.00000000000E+00 -0.70224776366E+03  0.70224776366E+03  0.25500000000E-02 0.  1.
    8880022    1    1    2    0    0 -0.54513831212E+03 -0.14986037438E+03  0.10731891937E+04  0.12226040282E+04  0.15294330000E+03 0.  0.
    8880022    1    1    2    0    0  0.54513831212E+03  0.14986037438E+03 -0.49088556157E+03  0.76419513131E+03  0.15294330000E+03 0.  0.
<mgrwt>
<rscale>  0 0.58568384E+03</rscale>
<asrwt>0</asrwt>
<pdfrwt beam="1">  1        2 0.19762329E+00 0.58568384E+03</pdfrwt>
<pdfrwt beam="2">  1       -2 0.10803812E+00 0.58568384E+03</pdfrwt>
<totfact> 0.12104351E+01</totfact>
</mgrwt>
</event>
<event>
 4    1  0.4639964E-008  0.4338947E+03  0.7818608E-02  0.1032637E+00
         -2   -1    0    0    0  501 -0.00000000000E+00  0.00000000000E+00  0.71317680655E+03  0.71317680656E+03  0.25500000000E-02 0.  1.
          2   -1    0    0  501    0  0.00000000000E+00 -0.00000000000E+00 -0.79209625466E+03  0.79209625466E+03  0.25500000000E-02 0. -1.
    8880022    1    1    2    0    0  0.23311023300E+03  0.33246442618E+03  0.57509556012E+03  0.72041622115E+03  0.15294330000E+03 0.  1.
    8880022    1    1    2    0    0 -0.23311023300E+03 -0.33246442618E+03 -0.65401500823E+03  0.78485684007E+03  0.15294330000E+03 0.  0.
<mgrwt>
<rscale>  0 0.43389472E+03</rscale>
<asrwt>0</asrwt>
<pdfrwt beam="1">  1        2 0.12186096E+00 0.43389472E+03</pdfrwt>
<pdfrwt beam="2">  1       -2 0.10971951E+00 0.43389472E+03</pdfrwt>
<totfact> 0.24325428E+01</totfact>
</mgrwt>
</event>
<event>
 4    1  0.4639964E-008  0.2211503E+03  0.7818608E-02  0.1133028E+00
         -2   -1    0    0    0  501 -0.00000000000E+00  0.00000000000E+00  0.31065370875E+03  0.31065370876E+03  0.25500000000E-02 0.  1.
          2   -1    0    0  501    0  0.00000000000E+00 -0.00000000000E+00 -0.19771580456E+04  0.19771580456E+04  0.25500000000E-02 0. -1.
    8880022    1    1    2    0    0 -0.11041380837E+03  0.11543212496E+03  0.26416657160E+03  0.34451620444E+03  0.15294330000E+03 0.  0.
    8880022    1    1    2    0    0  0.11041380837E+03 -0.11543212496E+03 -0.19306709084E+04  0.19432955499E+04  0.15294330000E+03 0. -1.
<mgrwt>
<rscale>  0 0.22115026E+03</rscale>
<asrwt>0</asrwt>
<pdfrwt beam="1">  1        2 0.30417815E+00 0.22115026E+03</pdfrwt>
<pdfrwt beam="2">  1       -2 0.47792879E-01 0.22115026E+03</pdfrwt>
<totfact> 0.33265326E+01</totfact>
</mgrwt>
</event>
<event>
 4    1  0.4639964E-008  0.7261292E+03  0.7818608E-02  0.9673562E-01
          2   -1    0    0  501    0  0.00000000000E+00  0.00000000000E+00  0.12255134573E+04  0.12255134573E+04  0.25500000000E-02 0. -1.
         -2   -1    0    0    0  501 -0.00000000000E+00 -0.00000000000E+00 -0.47584702963E+03  0.47584702964E+03  0.25500000000E-02 0.  1.
    8880022    1    1    2    0    0  0.70962270369E+03 -0.17537637577E+02  0.63819553132E+03  0.96672495548E+03  0.15294330000E+03 0. -1.
    8880022    1    1    2    0    0 -0.70962270369E+03  0.17537637577E+02  0.11147089633E+03  0.73463553145E+03  0.15294330000E+03 0.  0.
<mgrwt>
<rscale>  0 0.72612919E+03</rscale>
<asrwt>0</asrwt>
<pdfrwt beam="1">  1        2 0.18854053E+00 0.72612919E+03</pdfrwt>
<pdfrwt beam="2">  1       -2 0.73207237E-01 0.72612919E+03</pdfrwt>
<totfact> 0.31473442E+01</totfact>
</mgrwt>
</event>
<event>
 4    1  0.4639964E-008  0.3544709E+03  0.7818608E-02  0.1060795E+00
         -2   -1    0    0    0  501 -0.00000000000E+00  0.00000000000E+00  0.21585160798E+03  0.21585160800E+03  0.25500000000E-02 0.  1.
          2   -1    0    0  501    0  0.00000000000E+00 -0.00000000000E+00 -0.96854941206E+03  0.96854941206E+03  0.25500000000E-02 0. -1.
    8880022    1    1    2    0    0 -0.11867553671E+03 -0.29694124015E+03 -0.75041463406E+03  0.82992274287E+03  0.15294330000E+03 0.  0.
    8880022    1    1    2    0    0  0.11867553671E+03  0.29694124015E+03 -0.22831700158E+01  0.35447827719E+03  0.15294330000E+03 0.  0.
<mgrwt>
<rscale>  0 0.35447092E+03</rscale>
<asrwt>0</asrwt>
<pdfrwt beam="1">  1        2 0.14900760E+00 0.35447092E+03</pdfrwt>
<pdfrwt beam="2">  1       -2 0.33207940E-01 0.35447092E+03</pdfrwt>
<totfact> 0.23254403E+02</totfact>
</mgrwt>
</event>
<event>
 4    1  0.4639964E-008  0.4539959E+03  0.7818608E-02  0.1026537E+00
         -2   -1    0    0    0  501 -0.00000000000E+00  0.00000000000E+00  0.11567856304E+03  0.11567856307E+03  0.25500000000E-02 0.  1.
          2   -1    0    0  501    0  0.00000000000E+00 -0.00000000000E+00 -0.35183867451E+04  0.35183867451E+04  0.25500000000E-02 0. -1.
    8880022    1    1    2    0    0 -0.37595057706E+03  0.20342517894E+03 -0.29779200554E+04  0.30123280281E+04  0.15294330000E+03 0.  0.
    8880022    1    1    2    0    0  0.37595057706E+03 -0.20342517894E+03 -0.42478812671E+03  0.62173728007E+03  0.15294330000E+03 0.  0.
<mgrwt>
<rscale>  0 0.45399592E+03</rscale>
<asrwt>0</asrwt>
<pdfrwt beam="1">  1        2 0.54129019E+00 0.45399592E+03</pdfrwt>
<pdfrwt beam="2">  1       -2 0.17796705E-01 0.45399592E+03</pdfrwt>
<totfact> 0.23759909E+01</totfact>
</mgrwt>
</event>
<event>
 4    1  0.4639964E-008  0.2702606E+03  0.7818608E-02  0.1101131E+00
         -2   -1    0    0    0  501 -0.00000000000E+00  0.00000000000E+00  0.12591122573E+03  0.12591122576E+03  0.25500000000E-02 0.  1.
          2   -1    0    0  501    0  0.00000000000E+00 -0.00000000000E+00 -0.12545903907E+04  0.12545903907E+04  0.25500000000E-02 0. -1.
    8880022    1    1    2    0    0  0.11550657946E+03  0.19054489312E+03 -0.10704492747E+04  0.11040391428E+04  0.15294330000E+03 0. -1.
    8880022    1    1    2    0    0 -0.11550657946E+03 -0.19054489312E+03 -0.58229890290E+02  0.27646247364E+03  0.15294330000E+03 0.  0.
<mgrwt>
<rscale>  0 0.27026058E+03</rscale>
<asrwt>0</asrwt>
<pdfrwt beam="1">  1        2 0.19301390E+00 0.27026058E+03</pdfrwt>
<pdfrwt beam="2">  1       -2 0.19370959E-01 0.27026058E+03</pdfrwt>
<totfact> 0.41567717E+02</totfact>
</mgrwt>
</event>
<event>
 4    1  0.4639964E-008  0.2704036E+03  0.7818608E-02  0.1101049E+00
          2   -1    0    0  501    0  0.00000000000E+00  0.00000000000E+00  0.60499655027E+03  0.60499655027E+03  0.25500000000E-02 0. -1.
         -2   -1    0    0    0  501 -0.00000000000E+00 -0.00000000000E+00 -0.64882090733E+03  0.64882090733E+03  0.25500000000E-02 0.  1.
    8880022    1    1    2    0    0  0.21472472793E+03 -0.60164327770E+02 -0.58742699609E+03  0.64667502184E+03  0.15294330000E+03 0.  0.
    8880022    1    1    2    0    0 -0.21472472793E+03  0.60164327770E+02  0.54360263904E+03  0.60714243576E+03  0.15294330000E+03 0.  0.
<mgrwt>
<rscale>  0 0.27040360E+03</rscale>
<asrwt>0</asrwt>
<pdfrwt beam="1">  1        2 0.93076392E-01 0.27040360E+03</pdfrwt>
<pdfrwt beam="2">  1       -2 0.99818601E-01 0.27040360E+03</pdfrwt>
<totfact> 0.43633803E+01</totfact>
</mgrwt>
</event>
<event>
 4    1  0.4639964E-008  0.2111085E+03  0.7818608E-02  0.1140691E+00
         -2   -1    0    0    0  501 -0.00000000000E+00  0.00000000000E+00  0.34124938308E+03  0.34124938309E+03  0.25500000000E-02 0.  1.
          2   -1    0    0  501    0  0.00000000000E+00 -0.00000000000E+00 -0.44322447350E+03  0.44322447351E+03  0.25500000000E-02 0. -1.
    8880022    1    1    2    0    0 -0.51381298542E+02  0.13614377177E+03  0.27843158480E+03  0.34941517549E+03  0.15294330000E+03 0.  1.
    8880022    1    1    2    0    0  0.51381298542E+02 -0.13614377177E+03 -0.38040667523E+03  0.43505868110E+03  0.15294330000E+03 0.  0.
<mgrwt>
<rscale>  0 0.21110854E+03</rscale>
<asrwt>0</asrwt>
<pdfrwt beam="1">  1        2 0.68188380E-01 0.21110854E+03</pdfrwt>
<pdfrwt beam="2">  1       -2 0.52499905E-01 0.21110854E+03</pdfrwt>
<totfact> 0.25115799E+02</totfact>
</mgrwt>
</event>
<event>
 4    1  0.4639964E-008  0.6876437E+03  0.7818608E-02  0.9738600E-01
         -2   -1    0    0    0  501 -0.00000000000E+00  0.00000000000E+00  0.44966194986E+03  0.44966194987E+03  0.25500000000E-02 0.  1.
          2   -1    0    0  501    0  0.00000000000E+00 -0.00000000000E+00 -0.14489969971E+04  0.14489969971E+04  0.25500000000E-02 0. -1.
    8880022    1    1    2    0    0  0.21331199828E+03  0.63557867221E+03 -0.24935470830E+01  0.68764825890E+03  0.15294330000E+03 0.  0.
    8880022    1    1    2    0    0 -0.21331199828E+03 -0.63557867221E+03 -0.99684150020E+03  0.12110106881E+04  0.15294330000E+03 0.  0.
<mgrwt>
<rscale>  0 0.68764374E+03</rscale>
<asrwt>0</asrwt>
<pdfrwt beam="1">  1        2 0.22292261E+00 0.68764374E+03</pdfrwt>
<pdfrwt beam="2">  1       -2 0.69178762E-01 0.68764374E+03</pdfrwt>
<totfact> 0.26666221E+01</totfact>
</mgrwt>
</event>
<event>
 4    1  0.4639964E-008  0.3321025E+03  0.7818608E-02  0.1070210E+00
         -2   -1    0    0    0  501 -0.00000000000E+00  0.00000000000E+00  0.88972429335E+02  0.88972429372E+02  0.25500000000E-02 0.  1.
          2   -1    0    0  501    0  0.00000000000E+00 -0.00000000000E+00 -0.45722152359E+04  0.45722152359E+04  0.25500000000E-02 0. -1.
    8880022    1    1    2    0    0 -0.78261175138E+01  0.29468486716E+03 -0.42313529861E+04  0.42443656964E+04  0.15294330000E+03 0.  0.
    8880022    1    1    2    0    0  0.78261175138E+01 -0.29468486716E+03 -0.25188982049E+03  0.41682196887E+03  0.15294330000E+03 0.  1.
<mgrwt>
<rscale>  0 0.33210250E+03</rscale>
<asrwt>0</asrwt>
<pdfrwt beam="1">  1        2 0.70341755E+00 0.33210250E+03</pdfrwt>
<pdfrwt beam="2">  1       -2 0.13688070E-01 0.33210250E+03</pdfrwt>
<totfact> 0.56009700E+00</totfact>
</mgrwt>
</event>
<event>
 4    1  0.4639964E-008  0.6884219E+03  0.7818608E-02  0.9737240E-01
          2   -1    0    0  501    0  0.00000000000E+00  0.00000000000E+00  0.47208675101E+03  0.47208675102E+03  0.25500000000E-02 0. -1.
         -2   -1    0    0    0  501 -0.00000000000E+00 -0.00000000000E+00 -0.19556930231E+04  0.19556930231E+04  0.25500000000E-02 0.  1.
    8880022    1    1    2    0    0  0.57543478476E+03 -0.34555433985E+03  0.10503766805E+03  0.69638894163E+03  0.15294330000E+03 0. -1.
    8880022    1    1    2    0    0 -0.57543478476E+03  0.34555433985E+03 -0.15886439401E+04  0.17313908325E+04  0.15294330000E+03 0.  0.
<mgrwt>
<rscale>  0 0.68842185E+03</rscale>
<asrwt>0</asrwt>
<pdfrwt beam="1">  1        2 0.72628732E-01 0.68842185E+03</pdfrwt>
<pdfrwt beam="2">  1       -2 0.30087585E+00 0.68842185E+03</pdfrwt>
<totfact> 0.21736706E+00</totfact>
</mgrwt>
</event>
<event>
 4    1  0.4639964E-008  0.1818237E+03  0.7818608E-02  0.1166050E+00
         -2   -1    0    0    0  501 -0.00000000000E+00  0.00000000000E+00  0.49770345013E+03  0.49770345013E+03  0.25500000000E-02 0.  1.
          2   -1    0    0  501    0  0.00000000000E+00 -0.00000000000E+00 -0.79389084250E+03  0.79389084250E+03  0.25500000000E-02 0. -1.
    8880022    1    1    2    0    0  0.42829771780E+02  0.88508761147E+02  0.47009647188E+03  0.50403426078E+03  0.15294330000E+03 0.  0.
    8880022    1    1    2    0    0 -0.42829771780E+02 -0.88508761147E+02 -0.76628386425E+03  0.78756003185E+03  0.15294330000E+03 0. -1.
<mgrwt>
<rscale>  0 0.18182366E+03</rscale>
<asrwt>0</asrwt>
<pdfrwt beam="1">  1        2 0.12213705E+00 0.18182366E+03</pdfrwt>
<pdfrwt beam="2">  1       -2 0.76569761E-01 0.18182366E+03</pdfrwt>
<totfact> 0.58298476E+01</totfact>
</mgrwt>
</event>
<event>
 4    1  0.4639964E-008  0.5886951E+03  0.7818608E-02  0.9929142E-01
         -2   -1    0    0    0  501 -0.00000000000E+00  0.00000000000E+00  0.14111174451E+03  0.14111174453E+03  0.25500000000E-02 0.  1.
          2   -1    0    0  501    0  0.00000000000E+00 -0.00000000000E+00 -0.25120935735E+04  0.25120935735E+04  0.25500000000E-02 0. -1.
    8880022    1    1    2    0    0 -0.43457479532E+03 -0.36649008318E+03 -0.13838326693E+04  0.15038466489E+04  0.15294330000E+03 0.  0.
    8880022    1    1    2    0    0  0.43457479532E+03  0.36649008318E+03 -0.98714915967E+03  0.11493586691E+04  0.15294330000E+03 0.  0.
<mgrwt>
<rscale>  0 0.58869507E+03</rscale>
<asrwt>0</asrwt>
<pdfrwt beam="1">  1        2 0.38647590E+00 0.58869507E+03</pdfrwt>
<pdfrwt beam="2">  1       -2 0.21709501E-01 0.58869507E+03</pdfrwt>
<totfact> 0.67306358E+01</totfact>
</mgrwt>
</event>
<event>
 4    1  0.4639964E-008  0.5369160E+03  0.7818608E-02  0.1004569E+00
          2   -1    0    0  501    0  0.00000000000E+00  0.00000000000E+00  0.18736635492E+04  0.18736635492E+04  0.25500000000E-02 0. -1.
         -2   -1    0    0    0  501 -0.00000000000E+00 -0.00000000000E+00 -0.16131448121E+03  0.16131448123E+03  0.25500000000E-02 0.  1.
    8880022    1    1    2    0    0  0.33491239444E+03 -0.39079512760E+03  0.10749253068E+04  0.12015586594E+04  0.15294330000E+03 0.  0.
    8880022    1    1    2    0    0 -0.33491239444E+03  0.39079512760E+03  0.63742376122E+03  0.83341937108E+03  0.15294330000E+03 0.  0.
<mgrwt>
<rscale>  0 0.53691601E+03</rscale>
<asrwt>0</asrwt>
<pdfrwt beam="1">  1        2 0.28825594E+00 0.53691601E+03</pdfrwt>
<pdfrwt beam="2">  1       -2 0.24817612E-01 0.53691601E+03</pdfrwt>
<totfact> 0.11962138E+02</totfact>
</mgrwt>
</event>
<event>
 4    1  0.4639964E-008  0.5190531E+03  0.7818608E-02  0.1008922E+00
         -2   -1    0    0    0  501 -0.00000000000E+00  0.00000000000E+00  0.24645270570E+03  0.24645270572E+03  0.25500000000E-02 0.  1.
          2   -1    0    0  501    0  0.00000000000E+00 -0.00000000000E+00 -0.15474877313E+04  0.15474877313E+04  0.25500000000E-02 0. -1.
    8880022    1    1    2    0    0  0.38410657159E+03  0.31382570534E+03 -0.11365234590E+04  0.12494405378E+04  0.15294330000E+03 0.  0.
    8880022    1    1    2    0    0 -0.38410657159E+03 -0.31382570534E+03 -0.16451156659E+03  0.54449989920E+03  0.15294330000E+03 0.  0.
<mgrwt>
<rscale>  0 0.51905307E+03</rscale>
<asrwt>0</asrwt>
<pdfrwt beam="1">  1        2 0.23807503E+00 0.51905307E+03</pdfrwt>
<pdfrwt beam="2">  1       -2 0.37915802E-01 0.51905307E+03</pdfrwt>
<totfact> 0.82090558E+01</totfact>
</mgrwt>
</event>
<event>
 4    1  0.4639964E-008  0.1829851E+03  0.7818608E-02  0.1164945E+00
          2   -1    0    0  501    0  0.00000000000E+00  0.00000000000E+00  0.25218763178E+03  0.25218763180E+03  0.25500000000E-02 0. -1.
         -2   -1    0    0    0  501 -0.00000000000E+00 -0.00000000000E+00 -0.89076421879E+03  0.89076421879E+03  0.25500000000E-02 0.  1.
    8880022    1    1    2    0    0 -0.19373957439E+02 -0.98572562892E+02 -0.84645602780E+03  0.86600886855E+03  0.15294330000E+03 0.  0.
    8880022    1    1    2    0    0  0.19373957439E+02  0.98572562892E+02  0.20787944080E+03  0.27694298204E+03  0.15294330000E+03 0. -1.
<mgrwt>
<rscale>  0 0.18298512E+03</rscale>
<asrwt>0</asrwt>
<pdfrwt beam="1">  1        2 0.38798098E-01 0.18298512E+03</pdfrwt>
<pdfrwt beam="2">  1       -2 0.13704065E+00 0.18298512E+03</pdfrwt>
<totfact> 0.53998938E+01</totfact>
</mgrwt>
</event>
<event>
 4    1  0.4639964E-008  0.1592547E+03  0.7818608E-02  0.1189541E+00
         -2   -1    0    0    0  501 -0.00000000000E+00  0.00000000000E+00  0.11070654423E+03  0.11070654426E+03  0.25500000000E-02 0.  1.
          2   -1    0    0  501    0  0.00000000000E+00 -0.00000000000E+00 -0.60851356450E+03  0.60851356450E+03  0.25500000000E-02 0. -1.
    8880022    1    1    2    0    0 -0.37329875829E+02  0.24018494673E+02  0.35056576885E+02  0.16306754525E+03  0.15294330000E+03 0.  0.
    8880022    1    1    2    0    0  0.37329875829E+02 -0.24018494673E+02 -0.53286359715E+03  0.55615256351E+03  0.15294330000E+03 0. -1.
<mgrwt>
<rscale>  0 0.15925470E+03</rscale>
<asrwt>0</asrwt>
<pdfrwt beam="1">  1        2 0.93617469E-01 0.15925470E+03</pdfrwt>
<pdfrwt beam="2">  1       -2 0.17031776E-01 0.15925470E+03</pdfrwt>
<totfact> 0.13650208E+03</totfact>
</mgrwt>
</event>
<event>
 4    1  0.4639964E-008  0.3337410E+03  0.7818608E-02  0.1069493E+00
         -2   -1    0    0    0  501 -0.00000000000E+00  0.00000000000E+00  0.21075724653E+03  0.21075724655E+03  0.25500000000E-02 0.  1.
          2   -1    0    0  501    0  0.00000000000E+00 -0.00000000000E+00 -0.27807910906E+04  0.27807910906E+04  0.25500000000E-02 0. -1.
    8880022    1    1    2    0    0 -0.14353029319E+03  0.25959672559E+03  0.61138140150E+02  0.33929475415E+03  0.15294330000E+03 0.  0.
    8880022    1    1    2    0    0  0.14353029319E+03 -0.25959672559E+03 -0.26311719843E+04  0.26522535830E+04  0.15294330000E+03 0.  0.
<mgrwt>
<rscale>  0 0.33374100E+03</rscale>
<asrwt>0</asrwt>
<pdfrwt beam="1">  1        2 0.42781399E+00 0.33374100E+03</pdfrwt>
<pdfrwt beam="2">  1       -2 0.32424194E-01 0.33374100E+03</pdfrwt>
<totfact> 0.24415397E+01</totfact>
</mgrwt>
</event>
<event>
 4    1  0.4639964E-008  0.4257328E+03  0.7818608E-02  0.1035216E+00
         -2   -1    0    0    0  501 -0.00000000000E+00  0.00000000000E+00  0.64620723160E+03  0.64620723161E+03  0.25500000000E-02 0.  1.
          2   -1    0    0  501    0  0.00000000000E+00 -0.00000000000E+00 -0.79529772908E+03  0.79529772908E+03  0.25500000000E-02 0. -1.
    8880022    1    1    2    0    0 -0.37708454808E+03  0.12515607983E+03  0.50534774135E+03  0.66077590258E+03  0.15294330000E+03 0.  0.
    8880022    1    1    2    0    0  0.37708454808E+03 -0.12515607983E+03 -0.65443823883E+03  0.78072905811E+03  0.15294330000E+03 0.  0.
<mgrwt>
<rscale>  0 0.42573284E+03</rscale>
<asrwt>0</asrwt>
<pdfrwt beam="1">  1        2 0.12235350E+00 0.42573284E+03</pdfrwt>
<pdfrwt beam="2">  1       -2 0.99416497E-01 0.42573284E+03</pdfrwt>
<totfact> 0.30625872E+01</totfact>
</mgrwt>
</event>
<event>
 4    1  0.4639964E-008  0.2223517E+03  0.7818608E-02  0.1132142E+00
          2   -1    0    0  501    0  0.00000000000E+00  0.00000000000E+00  0.11378032988E+04  0.11378032988E+04  0.25500000000E-02 0. -1.
         -2   -1    0    0    0  501 -0.00000000000E+00 -0.00000000000E+00 -0.33870683101E+03  0.33870683102E+03  0.25500000000E-02 0.  1.
    8880022    1    1    2    0    0 -0.14684354908E+03  0.66974670644E+02  0.10888234566E+04  0.11112951035E+04  0.15294330000E+03 0. -1.
    8880022    1    1    2    0    0  0.14684354908E+03 -0.66974670644E+02 -0.28972698880E+03  0.36521502634E+03  0.15294330000E+03 0.  0.
<mgrwt>
<rscale>  0 0.22235172E+03</rscale>
<asrwt>0</asrwt>
<pdfrwt beam="1">  1        2 0.17504666E+00 0.22235172E+03</pdfrwt>
<pdfrwt beam="2">  1       -2 0.52108742E-01 0.22235172E+03</pdfrwt>
<totfact> 0.78745520E+01</totfact>
</mgrwt>
</event>
<event>
 4    1  0.4639964E-008  0.1814245E+03  0.7818608E-02  0.1166431E+00
         -2   -1    0    0    0  501 -0.00000000000E+00  0.00000000000E+00  0.35239601415E+03  0.35239601416E+03  0.25500000000E-02 0.  1.
          2   -1    0    0  501    0  0.00000000000E+00 -0.00000000000E+00 -0.10978989169E+04  0.10978989169E+04  0.25500000000E-02 0. -1.
    8880022    1    1    2    0    0  0.58574937813E+02  0.78052458161E+02  0.32086475536E+03  0.36860419668E+03  0.15294330000E+03 0.  1.
    8880022    1    1    2    0    0 -0.58574937813E+02 -0.78052458161E+02 -0.10663676581E+04  0.10816907344E+04  0.15294330000E+03 0.  0.
<mgrwt>
<rscale>  0 0.18142454E+03</rscale>
<asrwt>0</asrwt>
<pdfrwt beam="1">  1        2 0.16890752E+00 0.18142454E+03</pdfrwt>
<pdfrwt beam="2">  1       -2 0.54214772E-01 0.18142454E+03</pdfrwt>
<totfact> 0.77627182E+01</totfact>
</mgrwt>
</event>
<event>
 4    1  0.4639964E-008  0.5025777E+03  0.7818608E-02  0.1013108E+00
          2   -1    0    0  501    0  0.00000000000E+00  0.00000000000E+00  0.70054025339E+03  0.70054025339E+03  0.25500000000E-02 0. -1.
         -2   -1    0    0    0  501 -0.00000000000E+00 -0.00000000000E+00 -0.92415341551E+03  0.92415341551E+03  0.25500000000E-02 0.  1.
    8880022    1    1    2    0    0 -0.15386290637E+03  0.45334196615E+03  0.52257963190E+03  0.72503369364E+03  0.15294330000E+03 0.  0.
    8880022    1    1    2    0    0  0.15386290637E+03 -0.45334196615E+03 -0.74619279402E+03  0.89965997526E+03  0.15294330000E+03 0.  0.
<mgrwt>
<rscale>  0 0.50257774E+03</rscale>
<asrwt>0</asrwt>
<pdfrwt beam="1">  1        2 0.10777542E+00 0.50257774E+03</pdfrwt>
<pdfrwt beam="2">  1       -2 0.14217745E+00 0.50257774E+03</pdfrwt>
<totfact> 0.14773344E+01</totfact>
</mgrwt>
</event>
<event>
 4    1  0.4639964E-008  0.2030520E+03  0.7818608E-02  0.1147189E+00
         -2   -1    0    0    0  501 -0.00000000000E+00  0.00000000000E+00  0.28199804089E+02  0.28199804204E+02  0.25500000000E-02 0.  1.
          2   -1    0    0  501    0  0.00000000000E+00 -0.00000000000E+00 -0.30924258289E+04  0.30924258289E+04  0.25500000000E-02 0. -1.
    8880022    1    1    2    0    0 -0.10951435580E+03 -0.76453075961E+02 -0.26650430135E+04  0.26727671773E+04  0.15294330000E+03 0. -1.
    8880022    1    1    2    0    0  0.10951435580E+03  0.76453075961E+02 -0.39918301130E+03  0.44785845585E+03  0.15294330000E+03 0.  0.
<mgrwt>
<rscale>  0 0.20305201E+03</rscale>
<asrwt>0</asrwt>
<pdfrwt beam="1">  1        2 0.47575755E+00 0.20305201E+03</pdfrwt>
<pdfrwt beam="2">  1       -2 0.43384338E-02 0.20305201E+03</pdfrwt>
<totfact> 0.45485530E+02</totfact>
</mgrwt>
</event>
<event>
 4    1  0.4639964E-008  0.1575622E+03  0.7818608E-02  0.1191477E+00
         -2   -1    0    0    0  501 -0.00000000000E+00  0.00000000000E+00  0.30810406646E+03  0.30810406647E+03  0.25500000000E-02 0.  1.
          2   -1    0    0  501    0  0.00000000000E+00 -0.00000000000E+00 -0.49711527989E+03  0.49711527989E+03  0.25500000000E-02 0. -1.
    8880022    1    1    2    0    0  0.58012170136E+01 -0.37423731982E+02 -0.46304468557E+03  0.48911780144E+03  0.15294330000E+03 0. -1.
    8880022    1    1    2    0    0 -0.58012170136E+01  0.37423731982E+02  0.27403347215E+03  0.31610154493E+03  0.15294330000E+03 0.  0.
<mgrwt>
<rscale>  0 0.15756219E+03</rscale>
<asrwt>0</asrwt>
<pdfrwt beam="1">  1        2 0.76479274E-01 0.15756219E+03</pdfrwt>
<pdfrwt beam="2">  1       -2 0.47400626E-01 0.15756219E+03</pdfrwt>
<totfact> 0.27252035E+02</totfact>
</mgrwt>
</event>
<event>
 4    1  0.4639964E-008  0.1960191E+04  0.7818608E-02  0.8625462E-01
         -2   -1    0    0    0  501 -0.00000000000E+00  0.00000000000E+00  0.18132590336E+04  0.18132590336E+04  0.25500000000E-02 0.  1.
          2   -1    0    0  501    0  0.00000000000E+00 -0.00000000000E+00 -0.23912463840E+04  0.23912463840E+04  0.25500000000E-02 0. -1.
    8880022    1    1    2    0    0 -0.43961026296E+03 -0.19041272584E+04  0.42030680912E+03  0.20047461850E+04  0.15294330000E+03 0.  0.
    8880022    1    1    2    0    0  0.43961026296E+03  0.19041272584E+04 -0.99829415959E+03  0.21997592326E+04  0.15294330000E+03 0.  0.
<mgrwt>
<rscale>  0 0.19601912E+04</rscale>
<asrwt>0</asrwt>
<pdfrwt beam="1">  1        2 0.36788406E+00 0.19601912E+04</pdfrwt>
<pdfrwt beam="2">  1       -2 0.27896293E+00 0.19601912E+04</pdfrwt>
<totfact> 0.15327169E-01</totfact>
</mgrwt>
</event>
<event>
 4    1  0.4639964E-008  0.5053246E+03  0.7818608E-02  0.1012398E+00
         -2   -1    0    0    0  501 -0.00000000000E+00  0.00000000000E+00  0.11800340076E+04  0.11800340076E+04  0.25500000000E-02 0.  1.
          2   -1    0    0  501    0  0.00000000000E+00 -0.00000000000E+00 -0.34755424165E+03  0.34755424166E+03  0.25500000000E-02 0. -1.
    8880022    1    1    2    0    0 -0.23568751074E+03  0.42001512460E+03 -0.52967853759E+02  0.50809305660E+03  0.15294330000E+03 0.  0.
    8880022    1    1    2    0    0  0.23568751074E+03 -0.42001512460E+03  0.88544761972E+03  0.10194951927E+04  0.15294330000E+03 0.  0.
<mgrwt>
<rscale>  0 0.50532461E+03</rscale>
<asrwt>0</asrwt>
<pdfrwt beam="1">  1        2 0.53469884E-01 0.50532461E+03</pdfrwt>
<pdfrwt beam="2">  1       -2 0.18154369E+00 0.50532461E+03</pdfrwt>
<totfact> 0.17172032E+01</totfact>
</mgrwt>
</event>
<event>
 4    1  0.4639964E-008  0.6869737E+03  0.7818608E-02  0.9739772E-01
          2   -1    0    0  501    0  0.00000000000E+00  0.00000000000E+00  0.70406117490E+03  0.70406117490E+03  0.25500000000E-02 0. -1.
         -2   -1    0    0    0  501 -0.00000000000E+00 -0.00000000000E+00 -0.12811234149E+04  0.12811234149E+04  0.25500000000E-02 0.  1.
    8880022    1    1    2    0    0 -0.45555730667E+03  0.49092641506E+03 -0.97391348260E+03  0.11918222725E+04  0.15294330000E+03 0.  0.
    8880022    1    1    2    0    0  0.45555730667E+03 -0.49092641506E+03  0.39685124263E+03  0.79336231726E+03  0.15294330000E+03 0.  0.
<mgrwt>
<rscale>  0 0.68697370E+03</rscale>
<asrwt>0</asrwt>
<pdfrwt beam="1">  1        2 0.10831710E+00 0.68697370E+03</pdfrwt>
<pdfrwt beam="2">  1       -2 0.19709591E+00 0.68697370E+03</pdfrwt>
<totfact> 0.58177216E+00</totfact>
</mgrwt>
</event>
<event>
 4    1  0.4639964E-008  0.1790036E+03  0.7818608E-02  0.1168771E+00
          2   -1    0    0  501    0  0.00000000000E+00  0.00000000000E+00  0.55975358091E+03  0.55975358092E+03  0.25500000000E-02 0. -1.
         -2   -1    0    0    0  501 -0.00000000000E+00 -0.00000000000E+00 -0.37333393335E+03  0.37333393336E+03  0.25500000000E-02 0.  1.
    8880022    1    1    2    0    0  0.27716167290E+02 -0.88783180529E+02  0.52249834780E+03  0.55231043403E+03  0.15294330000E+03 0.  0.
    8880022    1    1    2    0    0 -0.27716167290E+02  0.88783180529E+02 -0.33607870024E+03  0.38077708025E+03  0.15294330000E+03 0.  1.
<mgrwt>
<rscale>  0 0.17900361E+03</rscale>
<asrwt>0</asrwt>
<pdfrwt beam="1">  1        2 0.86115935E-01 0.17900361E+03</pdfrwt>
<pdfrwt beam="2">  1       -2 0.57435990E-01 0.17900361E+03</pdfrwt>
<totfact> 0.16200734E+02</totfact>
</mgrwt>
</event>
<event>
 4    1  0.4639964E-008  0.8895015E+03  0.7818608E-02  0.9438801E-01
         -2   -1    0    0    0  501 -0.00000000000E+00  0.00000000000E+00  0.42027536127E+03  0.42027536127E+03  0.25500000000E-02 0.  1.
          2   -1    0    0  501    0  0.00000000000E+00 -0.00000000000E+00 -0.28075741656E+04  0.28075741656E+04  0.25500000000E-02 0. -1.
    8880022    1    1    2    0    0 -0.32030985968E+03  0.81561190367E+03 -0.26728660740E+03  0.92879220880E+03  0.15294330000E+03 0.  0.
    8880022    1    1    2    0    0  0.32030985968E+03 -0.81561190367E+03 -0.21200121969E+04  0.22990573181E+04  0.15294330000E+03 0.  0.
<mgrwt>
<rscale>  0 0.88950145E+03</rscale>
<asrwt>0</asrwt>
<pdfrwt beam="1">  1        2 0.43193448E+00 0.88950145E+03</pdfrwt>
<pdfrwt beam="2">  1       -2 0.64657750E-01 0.88950145E+03</pdfrwt>
<totfact> 0.52265067E+00</totfact>
</mgrwt>
</event>
<event>
 4    1  0.4639964E-008  0.3632065E+03  0.7818608E-02  0.1057321E+00
         -2   -1    0    0    0  501 -0.00000000000E+00  0.00000000000E+00  0.20312838631E+03  0.20312838633E+03  0.25500000000E-02 0.  1.
          2   -1    0    0  501    0  0.00000000000E+00 -0.00000000000E+00 -0.12797667178E+04  0.12797667178E+04  0.25500000000E-02 0. -1.
    8880022    1    1    2    0    0  0.29093209027E+03 -0.15455044435E+03 -0.17964901557E+02  0.36365053513E+03  0.15294330000E+03 0.  0.
    8880022    1    1    2    0    0 -0.29093209027E+03  0.15455044435E+03 -0.10586734300E+04  0.11192445690E+04  0.15294330000E+03 0.  0.
<mgrwt>
<rscale>  0 0.36320652E+03</rscale>
<asrwt>0</asrwt>
<pdfrwt beam="1">  1        2 0.19688718E+00 0.36320652E+03</pdfrwt>
<pdfrwt beam="2">  1       -2 0.31250522E-01 0.36320652E+03</pdfrwt>
<totfact> 0.16998358E+02</totfact>
</mgrwt>
</event>
<event>
 4    1  0.4639964E-008  0.5422392E+03  0.7818608E-02  0.1003306E+00
          2   -1    0    0  501    0  0.00000000000E+00  0.00000000000E+00  0.23784963237E+04  0.23784963237E+04  0.25500000000E-02 0. -1.
         -2   -1    0    0    0  501 -0.00000000000E+00 -0.00000000000E+00 -0.17396483641E+03  0.17396483643E+03  0.25500000000E-02 0.  1.
    8880022    1    1    2    0    0 -0.73989077554E+02  0.51493428256E+03  0.17888398443E+04  0.18692167719E+04  0.15294330000E+03 0.  0.
    8880022    1    1    2    0    0  0.73989077554E+02 -0.51493428256E+03  0.41569164304E+03  0.68324438824E+03  0.15294330000E+03 0.  0.
<mgrwt>
<rscale>  0 0.54223920E+03</rscale>
<asrwt>0</asrwt>
<pdfrwt beam="1">  1        2 0.36592250E+00 0.54223920E+03</pdfrwt>
<pdfrwt beam="2">  1       -2 0.26763822E-01 0.54223920E+03</pdfrwt>
<totfact> 0.55431144E+01</totfact>
</mgrwt>
</event>
<event>
 4    1  0.4749057E-008  0.4825235E+03  0.7818608E-02  0.1018444E+00
         -2   -1    0    0    0  501 -0.00000000000E+00  0.00000000000E+00  0.14582552716E+04  0.14582552716E+04  0.25500000000E-02 0.  1.
          2   -1    0    0  501    0  0.00000000000E+00 -0.00000000000E+00 -0.17272020052E+04  0.17272020052E+04  0.25500000000E-02 0. -1.
    8880022    1    1    2    0    0  0.36749594753E+03  0.27273439606E+03 -0.16518012609E+04  0.17208359541E+04  0.15294330000E+03 0.  0.
    8880022    1    1    2    0    0 -0.36749594753E+03 -0.27273439606E+03  0.13828545274E+04  0.14646213228E+04  0.15294330000E+03 0.  0.
<mgrwt>
<rscale>  0 0.48252355E+03</rscale>
<asrwt>0</asrwt>
<pdfrwt beam="1">  1        2 0.26572339E+00 0.48252355E+03</pdfrwt>
<pdfrwt beam="2">  1       -2 0.22434696E+00 0.48252355E+03</pdfrwt>
<totfact> 0.97969930E-01</totfact>
</mgrwt>
</event>
<event>
 4    1  0.4639964E-008  0.1766521E+03  0.7818608E-02  0.1171083E+00
         -2   -1    0    0    0  501 -0.00000000000E+00  0.00000000000E+00  0.77195491398E+03  0.77195491398E+03  0.25500000000E-02 0.  1.
          2   -1    0    0  501    0  0.00000000000E+00 -0.00000000000E+00 -0.17761191479E+04  0.17761191479E+04  0.25500000000E-02 0. -1.
    8880022    1    1    2    0    0  0.73867049774E+02  0.48559040857E+02  0.75737287421E+03  0.77770151414E+03  0.15294330000E+03 0.  0.
    8880022    1    1    2    0    0 -0.73867049774E+02 -0.48559040857E+02 -0.17615371081E+04  0.17703725478E+04  0.15294330000E+03 0. -1.
<mgrwt>
<rscale>  0 0.17665213E+03</rscale>
<asrwt>0</asrwt>
<pdfrwt beam="1">  1        2 0.27324910E+00 0.17665213E+03</pdfrwt>
<pdfrwt beam="2">  1       -2 0.11876230E+00 0.17665213E+03</pdfrwt>
<totfact> 0.59711172E+00</totfact>
</mgrwt>
</event>
<event>
 4    1  0.4639964E-008  0.5872890E+03  0.7818608E-02  0.9932134E-01
          2   -1    0    0  501    0  0.00000000000E+00  0.00000000000E+00  0.86047668906E+03  0.86047668906E+03  0.25500000000E-02 0. -1.
         -2   -1    0    0    0  501 -0.00000000000E+00 -0.00000000000E+00 -0.10118575838E+04  0.10118575839E+04  0.25500000000E-02 0.  1.
    8880022    1    1    2    0    0  0.53536208861E+03  0.18682652542E+03  0.65179223455E+03  0.87734912467E+03  0.15294330000E+03 0.  0.
    8880022    1    1    2    0    0 -0.53536208861E+03 -0.18682652542E+03 -0.80317312934E+03  0.99498514825E+03  0.15294330000E+03 0.  0.
<mgrwt>
<rscale>  0 0.58728900E+03</rscale>
<asrwt>0</asrwt>
<pdfrwt beam="1">  1        2 0.13238103E+00 0.58728900E+03</pdfrwt>
<pdfrwt beam="2">  1       -2 0.15567040E+00 0.58728900E+03</pdfrwt>
<totfact> 0.88049619E+00</totfact>
</mgrwt>
</event>
<event>
 4    1  0.4639964E-008  0.6817725E+03  0.7818608E-02  0.9748921E-01
          2   -1    0    0  501    0  0.00000000000E+00  0.00000000000E+00  0.27351988034E+04  0.27351988035E+04  0.25500000000E-02 0. -1.
         -2   -1    0    0    0  501 -0.00000000000E+00 -0.00000000000E+00 -0.19112888085E+03  0.19112888086E+03  0.25500000000E-02 0.  1.
    8880022    1    1    2    0    0  0.66230466871E+03  0.52675172274E+02  0.78483655949E+03  0.10396067651E+04  0.15294330000E+03 0.  0.
    8880022    1    1    2    0    0 -0.66230466871E+03 -0.52675172274E+02  0.17592333631E+04  0.18867209192E+04  0.15294330000E+03 0.  0.
<mgrwt>
<rscale>  0 0.68177254E+03</rscale>
<asrwt>0</asrwt>
<pdfrwt beam="1">  1        2 0.42079980E+00 0.68177254E+03</pdfrwt>
<pdfrwt beam="2">  1       -2 0.29404444E-01 0.68177254E+03</pdfrwt>
<totfact> 0.28572391E+01</totfact>
</mgrwt>
</event>
<event>
 4    1  0.4639964E-008  0.7356463E+03  0.7818608E-02  0.9658142E-01
         -2   -1    0    0    0  501 -0.00000000000E+00  0.00000000000E+00  0.30798281395E+03  0.30798281396E+03  0.25500000000E-02 0.  1.
          2   -1    0    0  501    0  0.00000000000E+00 -0.00000000000E+00 -0.28224280662E+04  0.28224280662E+04  0.25500000000E-02 0. -1.
    8880022    1    1    2    0    0 -0.40322634373E+03 -0.59598016619E+03 -0.22188107424E+04  0.23375834972E+04  0.15294330000E+03 0.  0.
    8880022    1    1    2    0    0  0.40322634373E+03  0.59598016619E+03 -0.29563450985E+03  0.79282738297E+03  0.15294330000E+03 0.  0.
<mgrwt>
<rscale>  0 0.73564631E+03</rscale>
<asrwt>0</asrwt>
<pdfrwt beam="1">  1        2 0.43421969E+00 0.73564631E+03</pdfrwt>
<pdfrwt beam="2">  1       -2 0.47381973E-01 0.73564631E+03</pdfrwt>
<totfact> 0.10033057E+01</totfact>
</mgrwt>
</event>
<event>
 4    1  0.4639964E-008  0.4485404E+03  0.7818608E-02  0.1028158E+00
          2   -1    0    0  501    0  0.00000000000E+00  0.00000000000E+00  0.12019703967E+04  0.12019703967E+04  0.25500000000E-02 0. -1.
         -2   -1    0    0    0  501 -0.00000000000E+00 -0.00000000000E+00 -0.26319403509E+03  0.26319403511E+03  0.25500000000E-02 0.  1.
    8880022    1    1    2    0    0  0.41513482700E+03 -0.73890968178E+02  0.91139393487E+03  0.10157890319E+04  0.15294330000E+03 0.  0.
    8880022    1    1    2    0    0 -0.41513482700E+03  0.73890968178E+02  0.27382426761E+02  0.44937539995E+03  0.15294330000E+03 0.  0.
<mgrwt>
<rscale>  0 0.44854036E+03</rscale>
<asrwt>0</asrwt>
<pdfrwt beam="1">  1        2 0.18491852E+00 0.44854036E+03</pdfrwt>
<pdfrwt beam="2">  1       -2 0.40491390E-01 0.44854036E+03</pdfrwt>
<totfact> 0.11404993E+02</totfact>
</mgrwt>
</event>
<event>
 4    1  0.4639964E-008  0.4495568E+03  0.7818608E-02  0.1027854E+00
          2   -1    0    0  501    0  0.00000000000E+00  0.00000000000E+00  0.44600534869E+03  0.44600534870E+03  0.25500000000E-02 0. -1.
         -2   -1    0    0    0  501 -0.00000000000E+00 -0.00000000000E+00 -0.15646539274E+04  0.15646539274E+04  0.25500000000E-02 0.  1.
    8880022    1    1    2    0    0  0.25221277454E+03  0.33926150997E+03 -0.14066638326E+04  0.14767547010E+04  0.15294330000E+03 0.  0.
    8880022    1    1    2    0    0 -0.25221277454E+03 -0.33926150997E+03  0.28801525395E+03  0.53390457510E+03  0.15294330000E+03 0.  0.
<mgrwt>
<rscale>  0 0.44955679E+03</rscale>
<asrwt>0</asrwt>
<pdfrwt beam="1">  1        2 0.68616208E-01 0.44955679E+03</pdfrwt>
<pdfrwt beam="2">  1       -2 0.24071599E+00 0.44955679E+03</pdfrwt>
<totfact> 0.55499963E+00</totfact>
</mgrwt>
</event>
<event>
 4    1  0.4639964E-008  0.8074039E+03  0.7818608E-02  0.9549362E-01
          2   -1    0    0  501    0  0.00000000000E+00  0.00000000000E+00  0.57513854146E+03  0.57513854147E+03  0.25500000000E-02 0. -1.
         -2   -1    0    0    0  501 -0.00000000000E+00 -0.00000000000E+00 -0.18325165730E+04  0.18325165730E+04  0.25500000000E-02 0.  1.
    8880022    1    1    2    0    0  0.53677585118E+03 -0.58342182130E+03  0.11483342249E+03  0.81552909446E+03  0.15294330000E+03 0.  0.
    8880022    1    1    2    0    0 -0.53677585118E+03  0.58342182130E+03 -0.13722114540E+04  0.15921260200E+04  0.15294330000E+03 0.  0.
<mgrwt>
<rscale>  0 0.80740386E+03</rscale>
<asrwt>0</asrwt>
<pdfrwt beam="1">  1        2 0.88482853E-01 0.80740386E+03</pdfrwt>
<pdfrwt beam="2">  1       -2 0.28192562E+00 0.80740386E+03</pdfrwt>
<totfact> 0.22006026E+00</totfact>
</mgrwt>
</event>
<event>
 4    1  0.4639964E-008  0.5972450E+03  0.7818608E-02  0.9911138E-01
          2   -1    0    0  501    0  0.00000000000E+00  0.00000000000E+00  0.89776786708E+03  0.89776786709E+03  0.25500000000E-02 0. -1.
         -2   -1    0    0    0  501 -0.00000000000E+00 -0.00000000000E+00 -0.46931778602E+03  0.46931778603E+03  0.25500000000E-02 0.  1.
    8880022    1    1    2    0    0  0.37324846809E+03  0.44044922197E+03 -0.53500773960E+02  0.59963649146E+03  0.15294330000E+03 0.  0.
    8880022    1    1    2    0    0 -0.37324846809E+03 -0.44044922197E+03  0.48195085502E+03  0.76744916166E+03  0.15294330000E+03 0.  0.
<mgrwt>
<rscale>  0 0.59724500E+03</rscale>
<asrwt>0</asrwt>
<pdfrwt beam="1">  1        2 0.13811813E+00 0.59724500E+03</pdfrwt>
<pdfrwt beam="2">  1       -2 0.72202737E-01 0.59724500E+03</pdfrwt>
<totfact> 0.52572747E+01</totfact>
</mgrwt>
</event>
<event>
 4    1  0.4639964E-008  0.2157648E+03  0.7818608E-02  0.1137081E+00
         -2   -1    0    0    0  501 -0.00000000000E+00  0.00000000000E+00  0.30508737449E+03  0.30508737450E+03  0.25500000000E-02 0.  1.
          2   -1    0    0  501    0  0.00000000000E+00 -0.00000000000E+00 -0.60509436192E+03  0.60509436192E+03  0.25500000000E-02 0. -1.
    8880022    1    1    2    0    0 -0.10857005265E+03 -0.10665514220E+03 -0.54355008035E+03  0.58480861703E+03  0.15294330000E+03 0.  0.
    8880022    1    1    2    0    0  0.10857005265E+03  0.10665514220E+03  0.24354309293E+03  0.32537311939E+03  0.15294330000E+03 0.  1.
<mgrwt>
<rscale>  0 0.21576475E+03</rscale>
<asrwt>0</asrwt>
<pdfrwt beam="1">  1        2 0.93091440E-01 0.21576475E+03</pdfrwt>
<pdfrwt beam="2">  1       -2 0.46936519E-01 0.21576475E+03</pdfrwt>
<totfact> 0.22107988E+02</totfact>
</mgrwt>
</event>
<event>
 4    1  0.4639964E-008  0.6963850E+03  0.7818608E-02  0.9723434E-01
         -2   -1    0    0    0  501 -0.00000000000E+00  0.00000000000E+00  0.67143435838E+03  0.67143435838E+03  0.25500000000E-02 0.  1.
          2   -1    0    0  501    0  0.00000000000E+00 -0.00000000000E+00 -0.21417405979E+04  0.21417405979E+04  0.25500000000E-02 0. -1.
    8880022    1    1    2    0    0 -0.64323872306E+03  0.21864196075E+03  0.40995798062E+03  0.80809501962E+03  0.15294330000E+03 0.  0.
    8880022    1    1    2    0    0  0.64323872306E+03 -0.21864196075E+03 -0.18802642202E+04  0.20050799367E+04  0.15294330000E+03 0.  0.
<mgrwt>
<rscale>  0 0.69638496E+03</rscale>
<asrwt>0</asrwt>
<pdfrwt beam="1">  1        2 0.32949855E+00 0.69638496E+03</pdfrwt>
<pdfrwt beam="2">  1       -2 0.10329759E+00 0.69638496E+03</pdfrwt>
<totfact> 0.44686653E+00</totfact>
</mgrwt>
</event>
<event>
 4    1  0.4639964E-008  0.6545005E+03  0.7818608E-02  0.9798371E-01
          2   -1    0    0  501    0  0.00000000000E+00  0.00000000000E+00  0.13810567695E+04  0.13810567695E+04  0.25500000000E-02 0. -1.
         -2   -1    0    0    0  501 -0.00000000000E+00 -0.00000000000E+00 -0.73600665589E+03  0.73600665590E+03  0.25500000000E-02 0.  1.
    8880022    1    1    2    0    0 -0.32245495385E+03 -0.54863651935E+03 -0.48263344795E+03  0.81320718499E+03  0.15294330000E+03 0.  0.
    8880022    1    1    2    0    0  0.32245495385E+03  0.54863651935E+03  0.11276835616E+04  0.13038562404E+04  0.15294330000E+03 0.  0.
<mgrwt>
<rscale>  0 0.65450048E+03</rscale>
<asrwt>0</asrwt>
<pdfrwt beam="1">  1        2 0.21247027E+00 0.65450048E+03</pdfrwt>
<pdfrwt beam="2">  1       -2 0.11323179E+00 0.65450048E+03</pdfrwt>
<totfact> 0.94201160E+00</totfact>
</mgrwt>
</event>
<event>
 4    1  0.4639964E-008  0.1310550E+04  0.7818608E-02  0.9021241E-01
         -2   -1    0    0    0  501 -0.00000000000E+00  0.00000000000E+00  0.17924324858E+04  0.17924324858E+04  0.25500000000E-02 0.  1.
          2   -1    0    0  501    0  0.00000000000E+00 -0.00000000000E+00 -0.12633039424E+04  0.12633039424E+04  0.25500000000E-02 0. -1.
    8880022    1    1    2    0    0  0.67579343255E+03  0.11124081679E+04  0.10153972780E+04  0.16578817752E+04  0.15294330000E+03 0.  0.
    8880022    1    1    2    0    0 -0.67579343255E+03 -0.11124081679E+04 -0.48626873468E+03  0.13978546530E+04  0.15294330000E+03 0.  0.
<mgrwt>
<rscale>  0 0.13105496E+04</rscale>
<asrwt>0</asrwt>
<pdfrwt beam="1">  1        2 0.19435445E+00 0.13105496E+04</pdfrwt>
<pdfrwt beam="2">  1       -2 0.27575884E+00 0.13105496E+04</pdfrwt>
<totfact> 0.74677858E-01</totfact>
</mgrwt>
</event>
<event>
 4    1  0.4639964E-008  0.2595788E+03  0.7818608E-02  0.1107397E+00
          2   -1    0    0  501    0  0.00000000000E+00  0.00000000000E+00  0.13562500170E+04  0.13562500170E+04  0.25500000000E-02 0. -1.
         -2   -1    0    0    0  501 -0.00000000000E+00 -0.00000000000E+00 -0.62947468788E+02  0.62947468840E+02  0.25500000000E-02 0.  1.
    8880022    1    1    2    0    0  0.20969024103E+03  0.44177065123E+01  0.97240213390E+03  0.10064527194E+04  0.15294330000E+03 0.  0.
    8880022    1    1    2    0    0 -0.20969024103E+03 -0.44177065123E+01  0.32090041428E+03  0.41274476643E+03  0.15294330000E+03 0.  1.
<mgrwt>
<rscale>  0 0.25957882E+03</rscale>
<asrwt>0</asrwt>
<pdfrwt beam="1">  1        2 0.20865384E+00 0.25957882E+03</pdfrwt>
<pdfrwt beam="2">  1       -2 0.96842266E-02 0.25957882E+03</pdfrwt>
<totfact> 0.11432273E+03</totfact>
</mgrwt>
</event>
<event>
 4    1  0.4639964E-008  0.6349689E+03  0.7818608E-02  0.9835400E-01
          2   -1    0    0  501    0  0.00000000000E+00  0.00000000000E+00  0.25849470618E+04  0.25849470618E+04  0.25500000000E-02 0. -1.
         -2   -1    0    0    0  501 -0.00000000000E+00 -0.00000000000E+00 -0.17354587676E+03  0.17354587678E+03  0.25500000000E-02 0.  1.
    8880022    1    1    2    0    0  0.23961745116E+03 -0.56778284916E+03  0.16445737232E+04  0.17628976916E+04  0.15294330000E+03 0.  0.
    8880022    1    1    2    0    0 -0.23961745116E+03  0.56778284916E+03  0.76682746176E+03  0.99559524699E+03  0.15294330000E+03 0.  0.
<mgrwt>
<rscale>  0 0.63496893E+03</rscale>
<asrwt>0</asrwt>
<pdfrwt beam="1">  1        2 0.39768412E+00 0.63496893E+03</pdfrwt>
<pdfrwt beam="2">  1       -2 0.26699368E-01 0.63496893E+03</pdfrwt>
<totfact> 0.41952943E+01</totfact>
</mgrwt>
</event>
<event>
 4    1  0.4639964E-008  0.8266510E+03  0.7818608E-02  0.9522222E-01
          2   -1    0    0  501    0  0.00000000000E+00  0.00000000000E+00  0.39358485774E+04  0.39358485774E+04  0.25500000000E-02 0. -1.
         -2   -1    0    0    0  501 -0.00000000000E+00 -0.00000000000E+00 -0.46463193840E+03  0.46463193840E+03  0.25500000000E-02 0.  1.
    8880022    1    1    2    0    0  0.26301537242E+02 -0.81195343466E+03 -0.56737453768E+01  0.82667042727E+03  0.15294330000E+03 0.  0.
    8880022    1    1    2    0    0 -0.26301537242E+02  0.81195343466E+03  0.34768903844E+04  0.35738100886E+04  0.15294330000E+03 0.  0.
<mgrwt>
<rscale>  0 0.82665096E+03</rscale>
<asrwt>0</asrwt>
<pdfrwt beam="1">  1        2 0.60551517E+00 0.82665096E+03</pdfrwt>
<pdfrwt beam="2">  1       -2 0.71481836E-01 0.82665096E+03</pdfrwt>
<totfact> 0.74502277E-01</totfact>
</mgrwt>
</event>
<event>
 4    1  0.4639964E-008  0.4970274E+03  0.7818608E-02  0.1014558E+00
          2   -1    0    0  501    0  0.00000000000E+00  0.00000000000E+00  0.25587527600E+04  0.25587527600E+04  0.25500000000E-02 0. -1.
         -2   -1    0    0    0  501 -0.00000000000E+00 -0.00000000000E+00 -0.13442514000E+03  0.13442514003E+03  0.25500000000E-02 0.  1.
    8880022    1    1    2    0    0 -0.60171726768E+02 -0.46906712840E+03  0.19269847725E+04  0.19900519023E+04  0.15294330000E+03 0.  0.
    8880022    1    1    2    0    0  0.60171726768E+02  0.46906712840E+03  0.49734284758E+03  0.70312599774E+03  0.15294330000E+03 0.  0.
<mgrwt>
<rscale>  0 0.49702742E+03</rscale>
<asrwt>0</asrwt>
<pdfrwt beam="1">  1        2 0.39365428E+00 0.49702742E+03</pdfrwt>
<pdfrwt beam="2">  1       -2 0.20680790E-01 0.49702742E+03</pdfrwt>
<totfact> 0.70116467E+01</totfact>
</mgrwt>
</event>
<event>
 4    1  0.4639964E-008  0.3628840E+03  0.7818608E-02  0.1057448E+00
          2   -1    0    0  501    0  0.00000000000E+00  0.00000000000E+00  0.11673041534E+04  0.11673041534E+04  0.25500000000E-02 0. -1.
         -2   -1    0    0    0  501 -0.00000000000E+00 -0.00000000000E+00 -0.13193656739E+03  0.13193656742E+03  0.25500000000E-02 0.  1.
    8880022    1    1    2    0    0  0.22264298496E+03 -0.24232885157E+03  0.27034999282E+03  0.45251954951E+03  0.15294330000E+03 0. -1.
    8880022    1    1    2    0    0 -0.22264298496E+03  0.24232885157E+03  0.76501759323E+03  0.84672117136E+03  0.15294330000E+03 0.  0.
<mgrwt>
<rscale>  0 0.36288404E+03</rscale>
<asrwt>0</asrwt>
<pdfrwt beam="1">  1        2 0.17958525E+00 0.36288404E+03</pdfrwt>
<pdfrwt beam="2">  1       -2 0.20297934E-01 0.36288404E+03</pdfrwt>
<totfact> 0.42598894E+02</totfact>
</mgrwt>
</event>
<event>
 4    1  0.4639964E-008  0.3519751E+03  0.7818608E-02  0.1061807E+00
         -2   -1    0    0    0  501 -0.00000000000E+00  0.00000000000E+00  0.20358253725E+03  0.20358253727E+03  0.25500000000E-02 0.  1.
          2   -1    0    0  501    0  0.00000000000E+00 -0.00000000000E+00 -0.13150719867E+04  0.13150719867E+04  0.25500000000E-02 0. -1.
    8880022    1    1    2    0    0 -0.31623838125E+03  0.22092711286E+02  0.82894029086E+00  0.35197605291E+03  0.15294330000E+03 0.  0.
    8880022    1    1    2    0    0  0.31623838125E+03 -0.22092711286E+02 -0.11123183897E+04  0.11666784710E+04  0.15294330000E+03 0. -1.
<mgrwt>
<rscale>  0 0.35197508E+03</rscale>
<asrwt>0</asrwt>
<pdfrwt beam="1">  1        2 0.20231876E+00 0.35197508E+03</pdfrwt>
<pdfrwt beam="2">  1       -2 0.31320391E-01 0.35197508E+03</pdfrwt>
<totfact> 0.16200203E+02</totfact>
</mgrwt>
</event>
<event>
 4    1  0.4639964E-008  0.4760596E+03  0.7818608E-02  0.1020224E+00
          2   -1    0    0  501    0  0.00000000000E+00  0.00000000000E+00  0.20970848898E+04  0.20970848898E+04  0.25500000000E-02 0. -1.
         -2   -1    0    0    0  501 -0.00000000000E+00 -0.00000000000E+00 -0.12728021060E+03  0.12728021062E+03  0.25500000000E-02 0.  1.
    8880022    1    1    2    0    0  0.44951310755E+03  0.34337025120E+02  0.14169758411E+04  0.14948087678E+04  0.15294330000E+03 0.  0.
    8880022    1    1    2    0    0 -0.44951310755E+03 -0.34337025120E+02  0.55282883813E+03  0.72955633260E+03  0.15294330000E+03 0.  0.
<mgrwt>
<rscale>  0 0.47605957E+03</rscale>
<asrwt>0</asrwt>
<pdfrwt beam="1">  1        2 0.32262842E+00 0.47605957E+03</pdfrwt>
<pdfrwt beam="2">  1       -2 0.19581572E-01 0.47605957E+03</pdfrwt>
<totfact> 0.13886528E+02</totfact>
</mgrwt>
</event>
<event>
 4    1  0.4639964E-008  0.3379461E+03  0.7818608E-02  0.1067674E+00
         -2   -1    0    0    0  501 -0.00000000000E+00  0.00000000000E+00  0.19640574886E+03  0.19640574888E+03  0.25500000000E-02 0.  1.
          2   -1    0    0  501    0  0.00000000000E+00 -0.00000000000E+00 -0.14471118662E+04  0.14471118662E+04  0.25500000000E-02 0. -1.
    8880022    1    1    2    0    0 -0.20002293634E+03 -0.22540353545E+03  0.10208953759E+02  0.33810028779E+03  0.15294330000E+03 0.  0.
    8880022    1    1    2    0    0  0.20002293634E+03  0.22540353545E+03 -0.12609150711E+04  0.13054173273E+04  0.15294330000E+03 0.  0.
<mgrwt>
<rscale>  0 0.33794612E+03</rscale>
<asrwt>0</asrwt>
<pdfrwt beam="1">  1        2 0.22263259E+00 0.33794612E+03</pdfrwt>
<pdfrwt beam="2">  1       -2 0.30216270E-01 0.33794612E+03</pdfrwt>
<totfact> 0.14667676E+02</totfact>
</mgrwt>
</event>
<event>
 4    1  0.4639964E-008  0.1996915E+03  0.7818608E-02  0.1150000E+00
         -2   -1    0    0    0  501 -0.00000000000E+00  0.00000000000E+00  0.10862122432E+03  0.10862122435E+03  0.25500000000E-02 0.  1.
          2   -1    0    0  501    0  0.00000000000E+00 -0.00000000000E+00 -0.24086852220E+04  0.24086852220E+04  0.25500000000E-02 0. -1.
    8880022    1    1    2    0    0  0.18119667991E+02  0.12710913873E+03 -0.23088040359E+04  0.23174237387E+04  0.15294330000E+03 0.  0.
    8880022    1    1    2    0    0 -0.18119667991E+02 -0.12710913873E+03  0.87400382643E+01  0.19988270761E+03  0.15294330000E+03 0.  1.
<mgrwt>
<rscale>  0 0.19969153E+03</rscale>
<asrwt>0</asrwt>
<pdfrwt beam="1">  1        2 0.37056692E+00 0.19969153E+03</pdfrwt>
<pdfrwt beam="2">  1       -2 0.16710959E-01 0.19969153E+03</pdfrwt>
<totfact> 0.13255429E+02</totfact>
</mgrwt>
</event>
<event>
 4    1  0.4639964E-008  0.4724881E+03  0.7818608E-02  0.1021220E+00
          2   -1    0    0  501    0  0.00000000000E+00  0.00000000000E+00  0.94661348924E+03  0.94661348924E+03  0.25500000000E-02 0. -1.
         -2   -1    0    0    0  501 -0.00000000000E+00 -0.00000000000E+00 -0.28259214949E+03  0.28259214950E+03  0.25500000000E-02 0.  1.
    8880022    1    1    2    0    0 -0.37696579579E+03 -0.24031265497E+03  0.82012783813E+02  0.47955305552E+03  0.15294330000E+03 0.  0.
    8880022    1    1    2    0    0  0.37696579579E+03  0.24031265497E+03  0.58200855593E+03  0.74965258322E+03  0.15294330000E+03 0.  0.
<mgrwt>
<rscale>  0 0.47248813E+03</rscale>
<asrwt>0</asrwt>
<pdfrwt beam="1">  1        2 0.14563284E+00 0.47248813E+03</pdfrwt>
<pdfrwt beam="2">  1       -2 0.43475716E-01 0.47248813E+03</pdfrwt>
<totfact> 0.14163665E+02</totfact>
</mgrwt>
</event>
<event>
 4    1  0.4639964E-008  0.9932387E+03  0.7818608E-02  0.9315992E-01
          2   -1    0    0  501    0  0.00000000000E+00  0.00000000000E+00  0.34144837618E+04  0.34144837618E+04  0.25500000000E-02 0. -1.
         -2   -1    0    0    0  501 -0.00000000000E+00 -0.00000000000E+00 -0.73581769600E+03  0.73581769601E+03  0.25500000000E-02 0.  1.
    8880022    1    1    2    0    0  0.78408534744E+03 -0.59020467346E+03 -0.27787955083E+03  0.10313777613E+04  0.15294330000E+03 0.  0.
    8880022    1    1    2    0    0 -0.78408534744E+03  0.59020467346E+03  0.29565456167E+04  0.31189236966E+04  0.15294330000E+03 0.  0.
<mgrwt>
<rscale>  0 0.99323866E+03</rscale>
<asrwt>0</asrwt>
<pdfrwt beam="1">  1        2 0.52530519E+00 0.99323866E+03</pdfrwt>
<pdfrwt beam="2">  1       -2 0.11320272E+00 0.99323866E+03</pdfrwt>
<totfact> 0.58879324E-01</totfact>
</mgrwt>
</event>
<event>
 4    1  0.4639964E-008  0.1350307E+04  0.7818608E-02  0.8990596E-01
         -2   -1    0    0    0  501 -0.00000000000E+00  0.00000000000E+00  0.36815413961E+04  0.36815413961E+04  0.25500000000E-02 0.  1.
          2   -1    0    0  501    0  0.00000000000E+00 -0.00000000000E+00 -0.11918172512E+04  0.11918172512E+04  0.25500000000E-02 0. -1.
    8880022    1    1    2    0    0  0.14705736571E+03  0.13335332245E+04  0.31076836491E+04  0.33883662798E+04  0.15294330000E+03 0.  1.
    8880022    1    1    2    0    0 -0.14705736571E+03 -0.13335332245E+04 -0.61795950420E+03  0.14849923675E+04  0.15294330000E+03 0.  0.
<mgrwt>
<rscale>  0 0.13503068E+04</rscale>
<asrwt>0</asrwt>
<pdfrwt beam="1">  1        2 0.18335650E+00 0.13503068E+04</pdfrwt>
<pdfrwt beam="2">  1       -2 0.56639098E+00 0.13503068E+04</pdfrwt>
<totfact> 0.12717287E-02</totfact>
</mgrwt>
</event>
<event>
 4    1  0.4639964E-008  0.3875003E+03  0.7818608E-02  0.1048196E+00
         -2   -1    0    0    0  501 -0.00000000000E+00  0.00000000000E+00  0.27513394723E+03  0.27513394724E+03  0.25500000000E-02 0.  1.
          2   -1    0    0  501    0  0.00000000000E+00 -0.00000000000E+00 -0.59780210446E+03  0.59780210446E+03  0.25500000000E-02 0. -1.
    8880022    1    1    2    0    0  0.23391824761E+03 -0.26841582026E+03 -0.32550345372E+02  0.38886498574E+03  0.15294330000E+03 0.  0.
    8880022    1    1    2    0    0 -0.23391824761E+03  0.26841582026E+03 -0.29011781186E+03  0.48407106596E+03  0.15294330000E+03 0.  0.
<mgrwt>
<rscale>  0 0.38750026E+03</rscale>
<asrwt>0</asrwt>
<pdfrwt beam="1">  1        2 0.91969554E-01 0.38750026E+03</pdfrwt>
<pdfrwt beam="2">  1       -2 0.42328300E-01 0.38750026E+03</pdfrwt>
<totfact> 0.27051216E+02</totfact>
</mgrwt>
</event>
<event>
 4    1  0.4639964E-008  0.5089322E+03  0.7818608E-02  0.1011473E+00
          2   -1    0    0  501    0  0.00000000000E+00  0.00000000000E+00  0.15101100763E+04  0.15101100763E+04  0.25500000000E-02 0. -1.
         -2   -1    0    0    0  501 -0.00000000000E+00 -0.00000000000E+00 -0.76256316872E+03  0.76256316872E+03  0.25500000000E-02 0.  1.
    8880022    1    1    2    0    0 -0.15284368968E+03  0.46071592781E+03 -0.62663924317E+03  0.80727241605E+03  0.15294330000E+03 0.  1.
    8880022    1    1    2    0    0  0.15284368968E+03 -0.46071592781E+03  0.13741861507E+04  0.14654008290E+04  0.15294330000E+03 0.  0.
<mgrwt>
<rscale>  0 0.50893223E+03</rscale>
<asrwt>0</asrwt>
<pdfrwt beam="1">  1        2 0.23232463E+00 0.50893223E+03</pdfrwt>
<pdfrwt beam="2">  1       -2 0.11731741E+00 0.50893223E+03</pdfrwt>
<totfact> 0.75206034E+00</totfact>
</mgrwt>
</event>
<event>
 4    1  0.4639964E-008  0.2081561E+03  0.7818608E-02  0.1143035E+00
          2   -1    0    0  501    0  0.00000000000E+00  0.00000000000E+00  0.20501486811E+04  0.20501486811E+04  0.25500000000E-02 0. -1.
         -2   -1    0    0    0  501 -0.00000000000E+00 -0.00000000000E+00 -0.54078268731E+02  0.54078268792E+02  0.25500000000E-02 0.  1.
    8880022    1    1    2    0    0  0.33093861200E+02  0.13726648402E+03  0.18192137358E+04  0.18310837121E+04  0.15294330000E+03 0. -1.
    8880022    1    1    2    0    0 -0.33093861200E+02 -0.13726648402E+03  0.17685667662E+03  0.27314323782E+03  0.15294330000E+03 0.  0.
<mgrwt>
<rscale>  0 0.20815606E+03</rscale>
<asrwt>0</asrwt>
<pdfrwt beam="1">  1        2 0.31540744E+00 0.20815606E+03</pdfrwt>
<pdfrwt beam="2">  1       -2 0.83197351E-02 0.20815606E+03</pdfrwt>
<totfact> 0.62924110E+02</totfact>
</mgrwt>
</event>
<event>
 4    1  0.4639964E-008  0.9243601E+03  0.7818608E-02  0.9395632E-01
         -2   -1    0    0    0  501 -0.00000000000E+00  0.00000000000E+00  0.10066966541E+04  0.10066966541E+04  0.25500000000E-02 0.  1.
          2   -1    0    0  501    0  0.00000000000E+00 -0.00000000000E+00 -0.16618324072E+04  0.16618324072E+04  0.25500000000E-02 0. -1.
    8880022    1    1    2    0    0 -0.79119972686E+03 -0.45282761023E+03 -0.12608513238E+04  0.15633897678E+04  0.15294330000E+03 0.  0.
    8880022    1    1    2    0    0  0.79119972686E+03  0.45282761023E+03  0.60571557071E+03  0.11051392935E+04  0.15294330000E+03 0.  0.
<mgrwt>
<rscale>  0 0.92436005E+03</rscale>
<asrwt>0</asrwt>
<pdfrwt beam="1">  1        2 0.25566652E+00 0.92436005E+03</pdfrwt>
<pdfrwt beam="2">  1       -2 0.15487641E+00 0.92436005E+03</pdfrwt>
<totfact> 0.28438062E+00</totfact>
</mgrwt>
</event>
<event>
 4    1  0.4639964E-008  0.2929887E+03  0.7818608E-02  0.1088799E+00
          2   -1    0    0  501    0  0.00000000000E+00  0.00000000000E+00  0.21649077235E+03  0.21649077236E+03  0.25500000000E-02 0. -1.
         -2   -1    0    0    0  501 -0.00000000000E+00 -0.00000000000E+00 -0.63868848190E+03  0.63868848191E+03  0.25500000000E-02 0.  1.
    8880022    1    1    2    0    0  0.23213888930E+03  0.92532602809E+02  0.52196737502E+02  0.29760191352E+03  0.15294330000E+03 0.  0.
    8880022    1    1    2    0    0 -0.23213888930E+03 -0.92532602809E+02 -0.47439444706E+03  0.55757734075E+03  0.15294330000E+03 0.  1.
<mgrwt>
<rscale>  0 0.29298874E+03</rscale>
<asrwt>0</asrwt>
<pdfrwt beam="1">  1        2 0.33306273E-01 0.29298874E+03</pdfrwt>
<pdfrwt beam="2">  1       -2 0.98259766E-01 0.29298874E+03</pdfrwt>
<totfact> 0.14030407E+02</totfact>
</mgrwt>
</event>
<event>
 4    1  0.4639964E-008  0.2495873E+03  0.7818608E-02  0.1113566E+00
         -2   -1    0    0    0  501 -0.00000000000E+00  0.00000000000E+00  0.44394434563E+03  0.44394434564E+03  0.25500000000E-02 0.  1.
          2   -1    0    0  501    0  0.00000000000E+00 -0.00000000000E+00 -0.66149584687E+03  0.66149584687E+03  0.25500000000E-02 0. -1.
    8880022    1    1    2    0    0  0.17083587908E+03  0.98576115617E+02 -0.59938335484E+03  0.64927205948E+03  0.15294330000E+03 0.  0.
    8880022    1    1    2    0    0 -0.17083587908E+03 -0.98576115617E+02  0.38183185360E+03  0.45616813303E+03  0.15294330000E+03 0.  0.
<mgrwt>
<rscale>  0 0.24958726E+03</rscale>
<asrwt>0</asrwt>
<pdfrwt beam="1">  1        2 0.10176859E+00 0.24958726E+03</pdfrwt>
<pdfrwt beam="2">  1       -2 0.68299130E-01 0.24958726E+03</pdfrwt>
<totfact> 0.91806857E+01</totfact>
</mgrwt>
</event>
<event>
 4    1  0.4639964E-008  0.1344981E+04  0.7818608E-02  0.8994636E-01
          2   -1    0    0  501    0  0.00000000000E+00  0.00000000000E+00  0.20993441095E+04  0.20993441095E+04  0.25500000000E-02 0. -1.
         -2   -1    0    0    0  501 -0.00000000000E+00 -0.00000000000E+00 -0.10023051531E+04  0.10023051531E+04  0.25500000000E-02 0.  1.
    8880022    1    1    2    0    0  0.16535191089E+03  0.13259870472E+04  0.11293983612E+04  0.17562787976E+04  0.15294330000E+03 0.  0.
    8880022    1    1    2    0    0 -0.16535191089E+03 -0.13259870472E+04 -0.32359404727E+02  0.13453704649E+04  0.15294330000E+03 0.  0.
<mgrwt>
<rscale>  0 0.13449812E+04</rscale>
<asrwt>0</asrwt>
<pdfrwt beam="1">  1        2 0.32297601E+00 0.13449812E+04</pdfrwt>
<pdfrwt beam="2">  1       -2 0.15420079E+00 0.13449812E+04</pdfrwt>
<totfact> 0.15686627E+00</totfact>
</mgrwt>
</event>
<event>
 4    1  0.4639964E-008  0.1657400E+03  0.7818608E-02  0.1182365E+00
          2   -1    0    0  501    0  0.00000000000E+00  0.00000000000E+00  0.68429653900E+03  0.68429653901E+03  0.25500000000E-02 0. -1.
         -2   -1    0    0    0  501 -0.00000000000E+00 -0.00000000000E+00 -0.53875414149E+02  0.53875414210E+02  0.25500000000E-02 0.  1.
    8880022    1    1    2    0    0 -0.68376570925E+01  0.63492819954E+02  0.12887102411E+03  0.20994638746E+03  0.15294330000E+03 0.  0.
    8880022    1    1    2    0    0  0.68376570925E+01 -0.63492819954E+02  0.50155010075E+03  0.52822556575E+03  0.15294330000E+03 0. -1.
<mgrwt>
<rscale>  0 0.16573999E+03</rscale>
<asrwt>0</asrwt>
<pdfrwt beam="1">  1        2 0.10527639E+00 0.16573999E+03</pdfrwt>
<pdfrwt beam="2">  1       -2 0.82885252E-02 0.16573999E+03</pdfrwt>
<totfact> 0.37840865E+03</totfact>
</mgrwt>
</event>
<event>
 4    1  0.4639964E-008  0.1898497E+04  0.7818608E-02  0.8655605E-01
          2   -1    0    0  501    0  0.00000000000E+00  0.00000000000E+00  0.44436767282E+04  0.44436767282E+04  0.25500000000E-02 0. -1.
         -2   -1    0    0    0  501 -0.00000000000E+00 -0.00000000000E+00 -0.92138429112E+03  0.92138429112E+03  0.25500000000E-02 0.  1.
    8880022    1    1    2    0    0  0.11786561906E+04  0.14804286434E+04  0.26891934689E+04  0.32918159958E+04  0.15294330000E+03 0.  0.
    8880022    1    1    2    0    0 -0.11786561906E+04 -0.14804286434E+04  0.83309896827E+03  0.20732450236E+04  0.15294330000E+03 0.  0.
<mgrwt>
<rscale>  0 0.18984970E+04</rscale>
<asrwt>0</asrwt>
<pdfrwt beam="1">  1        2 0.68364257E+00 0.18984970E+04</pdfrwt>
<pdfrwt beam="2">  1       -2 0.14175143E+00 0.18984970E+04</pdfrwt>
<totfact> 0.44678182E-02</totfact>
</mgrwt>
</event>
<event>
 4    1  0.4639964E-008  0.7632803E+03  0.7818608E-02  0.9614743E-01
          2   -1    0    0  501    0  0.00000000000E+00  0.00000000000E+00  0.13961454967E+04  0.13961454967E+04  0.25500000000E-02 0. -1.
         -2   -1    0    0    0  501 -0.00000000000E+00 -0.00000000000E+00 -0.77977671483E+03  0.77977671483E+03  0.25500000000E-02 0.  1.
    8880022    1    1    2    0    0 -0.65725001853E+03 -0.35668966789E+03 -0.43359476750E+03  0.87783892683E+03  0.15294330000E+03 0.  0.
    8880022    1    1    2    0    0  0.65725001853E+03  0.35668966789E+03  0.10499635494E+04  0.12980832847E+04  0.15294330000E+03 0.  0.
<mgrwt>
<rscale>  0 0.76328026E+03</rscale>
<asrwt>0</asrwt>
<pdfrwt beam="1">  1        2 0.21479162E+00 0.76328026E+03</pdfrwt>
<pdfrwt beam="2">  1       -2 0.11996565E+00 0.76328026E+03</pdfrwt>
<totfact> 0.78930432E+00</totfact>
</mgrwt>
</event>
<event>
 4    1  0.4639964E-008  0.9461371E+03  0.7818608E-02  0.9369677E-01
          2   -1    0    0  501    0  0.00000000000E+00  0.00000000000E+00  0.21941398109E+04  0.21941398109E+04  0.25500000000E-02 0. -1.
         -2   -1    0    0    0  501 -0.00000000000E+00 -0.00000000000E+00 -0.66082101029E+03  0.66082101030E+03  0.25500000000E-02 0.  1.
    8880022    1    1    2    0    0 -0.38285193464E+03  0.85159150478E+03 -0.11631478472E+03  0.95325992102E+03  0.15294330000E+03 0.  0.
    8880022    1    1    2    0    0  0.38285193464E+03 -0.85159150478E+03  0.16496335853E+04  0.19017009002E+04  0.15294330000E+03 0.  0.
<mgrwt>
<rscale>  0 0.94613707E+03</rscale>
<asrwt>0</asrwt>
<pdfrwt beam="1">  1        2 0.33755997E+00 0.94613707E+03</pdfrwt>
<pdfrwt beam="2">  1       -2 0.10166477E+00 0.94613707E+03</pdfrwt>
<totfact> 0.41749565E+00</totfact>
</mgrwt>
</event>
<event>
 4    1  0.4639964E-008  0.3534942E+03  0.7818608E-02  0.1061190E+00
          2   -1    0    0  501    0  0.00000000000E+00  0.00000000000E+00  0.55138969198E+03  0.55138969198E+03  0.25500000000E-02 0. -1.
         -2   -1    0    0    0  501 -0.00000000000E+00 -0.00000000000E+00 -0.25816206786E+03  0.25816206788E+03  0.25500000000E-02 0.  1.
    8880022    1    1    2    0    0  0.25168282216E+03 -0.19550520655E+03  0.28809066791E+03  0.45602019112E+03  0.15294330000E+03 0.  0.
    8880022    1    1    2    0    0 -0.25168282216E+03  0.19550520655E+03  0.51369562006E+01  0.35353156874E+03  0.15294330000E+03 0.  0.
<mgrwt>
<rscale>  0 0.35349425E+03</rscale>
<asrwt>0</asrwt>
<pdfrwt beam="1">  1        2 0.84829183E-01 0.35349425E+03</pdfrwt>
<pdfrwt beam="2">  1       -2 0.39717242E-01 0.35349425E+03</pdfrwt>
<totfact> 0.33701923E+02</totfact>
</mgrwt>
</event>
<event>
 4    1  0.4639964E-008  0.1048190E+04  0.7818608E-02  0.9257215E-01
         -2   -1    0    0    0  501 -0.00000000000E+00  0.00000000000E+00  0.54910398826E+03  0.54910398826E+03  0.25500000000E-02 0.  1.
          2   -1    0    0  501    0  0.00000000000E+00 -0.00000000000E+00 -0.23937590100E+04  0.23937590100E+04  0.25500000000E-02 0. -1.
    8880022    1    1    2    0    0  0.10228198481E+04  0.17073170651E+03 -0.15184272881E+04  0.18450807136E+04  0.15294330000E+03 0.  0.
    8880022    1    1    2    0    0 -0.10228198481E+04 -0.17073170651E+03 -0.32622773355E+03  0.10977822846E+04  0.15294330000E+03 0.  0.
<mgrwt>
<rscale>  0 0.10481896E+04</rscale>
<asrwt>0</asrwt>
<pdfrwt beam="1">  1        2 0.36827061E+00 0.10481896E+04</pdfrwt>
<pdfrwt beam="2">  1       -2 0.84477538E-01 0.10481896E+04</pdfrwt>
<totfact> 0.49064835E+00</totfact>
</mgrwt>
</event>
<event>
 4    1  0.4639964E-008  0.4499455E+03  0.7818608E-02  0.1027738E+00
          2   -1    0    0  501    0  0.00000000000E+00  0.00000000000E+00  0.84152808843E+03  0.84152808843E+03  0.25500000000E-02 0. -1.
         -2   -1    0    0    0  501 -0.00000000000E+00 -0.00000000000E+00 -0.25386681497E+03  0.25386681498E+03  0.25500000000E-02 0.  1.
    8880022    1    1    2    0    0  0.42305493903E+03 -0.91547999645E+01  0.41915156076E+03  0.61493005757E+03  0.15294330000E+03 0.  0.
    8880022    1    1    2    0    0 -0.42305493903E+03  0.91547999645E+01  0.16850971270E+03  0.48046484584E+03  0.15294330000E+03 0.  0.
<mgrwt>
<rscale>  0 0.44994549E+03</rscale>
<asrwt>0</asrwt>
<pdfrwt beam="1">  1        2 0.12946586E+00 0.44994549E+03</pdfrwt>
<pdfrwt beam="2">  1       -2 0.39056433E-01 0.44994549E+03</pdfrwt>
<totfact> 0.20536317E+02</totfact>
</mgrwt>
</event>
<event>
 4    1  0.4639964E-008  0.2678752E+03  0.7818608E-02  0.1102502E+00
         -2   -1    0    0    0  501 -0.00000000000E+00  0.00000000000E+00  0.38022525921E+03  0.38022525922E+03  0.25500000000E-02 0.  1.
          2   -1    0    0  501    0  0.00000000000E+00 -0.00000000000E+00 -0.12191580869E+04  0.12191580869E+04  0.25500000000E-02 0. -1.
    8880022    1    1    2    0    0 -0.21479463257E+03 -0.47209671848E+02 -0.11546620876E+04  0.11853276664E+04  0.15294330000E+03 0.  0.
    8880022    1    1    2    0    0  0.21479463257E+03  0.47209671848E+02  0.31572925990E+03  0.41405567968E+03  0.15294330000E+03 0.  1.
<mgrwt>
<rscale>  0 0.26787523E+03</rscale>
<asrwt>0</asrwt>
<pdfrwt beam="1">  1        2 0.18756278E+00 0.26787523E+03</pdfrwt>
<pdfrwt beam="2">  1       -2 0.58496194E-01 0.26787523E+03</pdfrwt>
<totfact> 0.55198163E+01</totfact>
</mgrwt>
</event>
<event>
 4    1  0.4639964E-008  0.2646478E+03  0.7818608E-02  0.1104382E+00
          2   -1    0    0  501    0  0.00000000000E+00  0.00000000000E+00  0.67347141879E+03  0.67347141879E+03  0.25500000000E-02 0. -1.
         -2   -1    0    0    0  501 -0.00000000000E+00 -0.00000000000E+00 -0.73642615575E+03  0.73642615575E+03  0.25500000000E-02 0.  1.
    8880022    1    1    2    0    0 -0.16726598399E+03  0.13663412044E+03  0.62180237690E+03  0.67577854450E+03  0.15294330000E+03 0. -1.
    8880022    1    1    2    0    0  0.16726598399E+03 -0.13663412044E+03 -0.68475711386E+03  0.73411903004E+03  0.15294330000E+03 0.  0.
<mgrwt>
<rscale>  0 0.26464778E+03</rscale>
<asrwt>0</asrwt>
<pdfrwt beam="1">  1        2 0.10361099E+00 0.26464778E+03</pdfrwt>
<pdfrwt beam="2">  1       -2 0.11329633E+00 0.26464778E+03</pdfrwt>
<totfact> 0.28510349E+01</totfact>
</mgrwt>
</event>
<event>
 4    1  0.4639964E-008  0.8820827E+03  0.7818608E-02  0.9448260E-01
         -2   -1    0    0    0  501 -0.00000000000E+00  0.00000000000E+00  0.60140067021E+03  0.60140067022E+03  0.25500000000E-02 0.  1.
          2   -1    0    0  501    0  0.00000000000E+00 -0.00000000000E+00 -0.15784626799E+04  0.15784626799E+04  0.25500000000E-02 0. -1.
    8880022    1    1    2    0    0  0.73340444599E+03  0.46561381036E+03 -0.25643369975E+02  0.88245540240E+03  0.15294330000E+03 0.  0.
    8880022    1    1    2    0    0 -0.73340444599E+03 -0.46561381036E+03 -0.95141863972E+03  0.12974079477E+04  0.15294330000E+03 0.  0.
<mgrwt>
<rscale>  0 0.88208274E+03</rscale>
<asrwt>0</asrwt>
<pdfrwt beam="1">  1        2 0.24284041E+00 0.88208274E+03</pdfrwt>
<pdfrwt beam="2">  1       -2 0.92523181E-01 0.88208274E+03</pdfrwt>
<totfact> 0.11471249E+01</totfact>
</mgrwt>
</event>
<event>
 4    1  0.4639964E-008  0.1088505E+04  0.7818608E-02  0.9216469E-01
         -2   -1    0    0    0  501 -0.00000000000E+00  0.00000000000E+00  0.11037107043E+04  0.11037107043E+04  0.25500000000E-02 0.  1.
          2   -1    0    0  501    0  0.00000000000E+00 -0.00000000000E+00 -0.12773470128E+04  0.12773470128E+04  0.25500000000E-02 0. -1.
    8880022    1    1    2    0    0  0.10061398458E+04  0.38617864812E+03 -0.56240347125E+03  0.12252104533E+04  0.15294330000E+03 0.  0.
    8880022    1    1    2    0    0 -0.10061398458E+04 -0.38617864812E+03  0.38876716272E+03  0.11558472638E+04  0.15294330000E+03 0.  0.
<mgrwt>
<rscale>  0 0.10885049E+04</rscale>
<asrwt>0</asrwt>
<pdfrwt beam="1">  1        2 0.19651492E+00 0.10885049E+04</pdfrwt>
<pdfrwt beam="2">  1       -2 0.16980165E+00 0.10885049E+04</pdfrwt>
<totfact> 0.35790912E+00</totfact>
</mgrwt>
</event>
<event>
 4    1  0.4639964E-008  0.5113421E+03  0.7818608E-02  0.1010860E+00
          2   -1    0    0  501    0  0.00000000000E+00  0.00000000000E+00  0.16173221298E+04  0.16173221298E+04  0.25500000000E-02 0. -1.
         -2   -1    0    0    0  501 -0.00000000000E+00 -0.00000000000E+00 -0.37880377408E+03  0.37880377409E+03  0.25500000000E-02 0.  1.
    8880022    1    1    2    0    0  0.45209465674E+03 -0.18354695113E+03  0.13749002599E+04  0.14669088041E+04  0.15294330000E+03 0.  0.
    8880022    1    1    2    0    0 -0.45209465674E+03  0.18354695113E+03 -0.13638190415E+03  0.52921709980E+03  0.15294330000E+03 0.  0.
<mgrwt>
<rscale>  0 0.51134207E+03</rscale>
<asrwt>0</asrwt>
<pdfrwt beam="1">  1        2 0.24881879E+00 0.51134207E+03</pdfrwt>
<pdfrwt beam="2">  1       -2 0.58277503E-01 0.51134207E+03</pdfrwt>
<totfact> 0.31860465E+01</totfact>
</mgrwt>
</event>
<event>
 4    1  0.4639964E-008  0.4913526E+03  0.7818608E-02  0.1016061E+00
         -2   -1    0    0    0  501 -0.00000000000E+00  0.00000000000E+00  0.13098390434E+03  0.13098390437E+03  0.25500000000E-02 0.  1.
          2   -1    0    0  501    0  0.00000000000E+00 -0.00000000000E+00 -0.20871045581E+04  0.20871045581E+04  0.25500000000E-02 0. -1.
    8880022    1    1    2    0    0  0.19084145591E+03 -0.42616342190E+03 -0.13572018724E+04  0.14434071841E+04  0.15294330000E+03 0.  0.
    8880022    1    1    2    0    0 -0.19084145591E+03  0.42616342190E+03 -0.59891878131E+03  0.77468127839E+03  0.15294330000E+03 0.  0.
<mgrwt>
<rscale>  0 0.49135260E+03</rscale>
<asrwt>0</asrwt>
<pdfrwt beam="1">  1        2 0.32109299E+00 0.49135260E+03</pdfrwt>
<pdfrwt beam="2">  1       -2 0.20151371E-01 0.49135260E+03</pdfrwt>
<totfact> 0.13344743E+02</totfact>
</mgrwt>
</event>
<event>
 4    1  0.4639964E-008  0.4522374E+03  0.7818608E-02  0.1027057E+00
         -2   -1    0    0    0  501 -0.00000000000E+00  0.00000000000E+00  0.21078830355E+03  0.21078830356E+03  0.25500000000E-02 0.  1.
          2   -1    0    0  501    0  0.00000000000E+00 -0.00000000000E+00 -0.17425538063E+04  0.17425538064E+04  0.25500000000E-02 0. -1.
    8880022    1    1    2    0    0  0.15461312270E+03 -0.39651203484E+03 -0.11568186875E+03  0.46679862816E+03  0.15294330000E+03 0.  0.
    8880022    1    1    2    0    0 -0.15461312270E+03  0.39651203484E+03 -0.14160836341E+04  0.14865434818E+04  0.15294330000E+03 0.  0.
<mgrwt>
<rscale>  0 0.45223740E+03</rscale>
<asrwt>0</asrwt>
<pdfrwt beam="1">  1        2 0.26808519E+00 0.45223740E+03</pdfrwt>
<pdfrwt beam="2">  1       -2 0.32428971E-01 0.45223740E+03</pdfrwt>
<totfact> 0.87419891E+01</totfact>
</mgrwt>
</event>
<event>
 4    1  0.4639964E-008  0.6184068E+03  0.7818608E-02  0.9867937E-01
         -2   -1    0    0    0  501 -0.00000000000E+00  0.00000000000E+00  0.28757494992E+03  0.28757494993E+03  0.25500000000E-02 0.  1.
          2   -1    0    0  501    0  0.00000000000E+00 -0.00000000000E+00 -0.25516877184E+04  0.25516877184E+04  0.25500000000E-02 0. -1.
    8880022    1    1    2    0    0  0.31127390973E+03 -0.51199990932E+03 -0.14969476891E+03  0.63626687080E+03  0.15294330000E+03 0.  0.
    8880022    1    1    2    0    0 -0.31127390973E+03  0.51199990932E+03 -0.21144179996E+04  0.22029957976E+04  0.15294330000E+03 0.  0.
<mgrwt>
<rscale>  0 0.61840683E+03</rscale>
<asrwt>0</asrwt>
<pdfrwt beam="1">  1        2 0.39256733E+00 0.61840683E+03</pdfrwt>
<pdfrwt beam="2">  1       -2 0.44242302E-01 0.61840683E+03</pdfrwt>
<totfact> 0.16875869E+01</totfact>
</mgrwt>
</event>
<event>
 4    1  0.4639964E-008  0.5804905E+03  0.7818608E-02  0.9946730E-01
         -2   -1    0    0    0  501 -0.00000000000E+00  0.00000000000E+00  0.13758693279E+03  0.13758693282E+03  0.25500000000E-02 0.  1.
          2   -1    0    0  501    0  0.00000000000E+00 -0.00000000000E+00 -0.26728146844E+04  0.26728146844E+04  0.25500000000E-02 0. -1.
    8880022    1    1    2    0    0  0.38565994879E+03 -0.40600978178E+03 -0.16741186867E+04  0.17719036568E+04  0.15294330000E+03 0. -1.
    8880022    1    1    2    0    0 -0.38565994879E+03  0.40600978178E+03 -0.86110906495E+03  0.10384979604E+04  0.15294330000E+03 0.  1.
<mgrwt>
<rscale>  0 0.58049048E+03</rscale>
<asrwt>0</asrwt>
<pdfrwt beam="1">  1        2 0.41120222E+00 0.58049048E+03</pdfrwt>
<pdfrwt beam="2">  1       -2 0.21167222E-01 0.58049048E+03</pdfrwt>
<totfact> 0.57081923E+01</totfact>
</mgrwt>
</event>
<event>
 4    1  0.4639964E-008  0.5121362E+03  0.7818608E-02  0.1010659E+00
         -2   -1    0    0    0  501 -0.00000000000E+00  0.00000000000E+00  0.10129625938E+04  0.10129625938E+04  0.25500000000E-02 0.  1.
          2   -1    0    0  501    0  0.00000000000E+00 -0.00000000000E+00 -0.33736103653E+03  0.33736103654E+03  0.25500000000E-02 0. -1.
    8880022    1    1    2    0    0 -0.25328238189E+03  0.41801897447E+03  0.66334678979E+03  0.83804083703E+03  0.15294330000E+03 0. -1.
    8880022    1    1    2    0    0  0.25328238189E+03 -0.41801897447E+03  0.12254767487E+02  0.51228279332E+03  0.15294330000E+03 0.  0.
<mgrwt>
<rscale>  0 0.51213619E+03</rscale>
<asrwt>0</asrwt>
<pdfrwt beam="1">  1        2 0.51901698E-01 0.51213619E+03</pdfrwt>
<pdfrwt beam="2">  1       -2 0.15584040E+00 0.51213619E+03</pdfrwt>
<totfact> 0.26951928E+01</totfact>
</mgrwt>
</event>
<event>
 4    1  0.4639964E-008  0.5282915E+03  0.7818608E-02  0.1006647E+00
          2   -1    0    0  501    0  0.00000000000E+00  0.00000000000E+00  0.96797807344E+03  0.96797807344E+03  0.25500000000E-02 0. -1.
         -2   -1    0    0    0  501 -0.00000000000E+00 -0.00000000000E+00 -0.59317206690E+03  0.59317206691E+03  0.25500000000E-02 0.  1.
    8880022    1    1    2    0    0 -0.39720442528E+03  0.31293591944E+03  0.74698743186E+03  0.91492192099E+03  0.15294330000E+03 0.  0.
    8880022    1    1    2    0    0  0.39720442528E+03 -0.31293591944E+03 -0.37218142532E+03  0.64622821936E+03  0.15294330000E+03 0.  0.
<mgrwt>
<rscale>  0 0.52829149E+03</rscale>
<asrwt>0</asrwt>
<pdfrwt beam="1">  1        2 0.14891970E+00 0.52829149E+03</pdfrwt>
<pdfrwt beam="2">  1       -2 0.91257242E-01 0.52829149E+03</pdfrwt>
<totfact> 0.28182219E+01</totfact>
</mgrwt>
</event>
<event>
 4    1  0.4639964E-008  0.2415981E+03  0.7818608E-02  0.1118733E+00
         -2   -1    0    0    0  501 -0.00000000000E+00  0.00000000000E+00  0.12329199729E+03  0.12329199732E+03  0.25500000000E-02 0.  1.
          2   -1    0    0  501    0  0.00000000000E+00 -0.00000000000E+00 -0.50598076345E+03  0.50598076346E+03  0.25500000000E-02 0. -1.
    8880022    1    1    2    0    0  0.16615329679E+03 -0.85854816467E+02 -0.11153570779E+03  0.26610117375E+03  0.15294330000E+03 0.  0.
    8880022    1    1    2    0    0 -0.16615329679E+03  0.85854816467E+02 -0.27115305837E+03  0.36317158703E+03  0.15294330000E+03 0.  0.
<mgrwt>
<rscale>  0 0.24159806E+03</rscale>
<asrwt>0</asrwt>
<pdfrwt beam="1">  1        2 0.77843193E-01 0.24159806E+03</pdfrwt>
<pdfrwt beam="2">  1       -2 0.18968000E-01 0.24159806E+03</pdfrwt>
<totfact> 0.14121469E+03</totfact>
</mgrwt>
</event>
<event>
 4    1  0.4639964E-008  0.6491124E+03  0.7818608E-02  0.9808446E-01
          2   -1    0    0  501    0  0.00000000000E+00  0.00000000000E+00  0.16513513994E+04  0.16513513994E+04  0.25500000000E-02 0. -1.
         -2   -1    0    0    0  501 -0.00000000000E+00 -0.00000000000E+00 -0.42138506491E+03  0.42138506491E+03  0.25500000000E-02 0.  1.
    8880022    1    1    2    0    0 -0.17975458770E+03  0.60468470257E+03  0.12659099888E+04  0.14226296265E+04  0.15294330000E+03 0.  1.
    8880022    1    1    2    0    0  0.17975458770E+03 -0.60468470257E+03 -0.35943654313E+02  0.65010683785E+03  0.15294330000E+03 0.  1.
<mgrwt>
<rscale>  0 0.64911244E+03</rscale>
<asrwt>0</asrwt>
<pdfrwt beam="1">  1        2 0.25405407E+00 0.64911244E+03</pdfrwt>
<pdfrwt beam="2">  1       -2 0.64828470E-01 0.64911244E+03</pdfrwt>
<totfact> 0.23846094E+01</totfact>
</mgrwt>
</event>
<event>
 4    1  0.4639964E-008  0.4339771E+03  0.7818608E-02  0.1032611E+00
          2   -1    0    0  501    0  0.00000000000E+00  0.00000000000E+00  0.10235005701E+04  0.10235005701E+04  0.25500000000E-02 0. -1.
         -2   -1    0    0    0  501 -0.00000000000E+00 -0.00000000000E+00 -0.11611548244E+04  0.11611548244E+04  0.25500000000E-02 0.  1.
    8880022    1    1    2    0    0  0.38180603216E+03  0.13845069561E+03  0.93321727787E+03  0.10291892839E+04  0.15294330000E+03 0.  0.
    8880022    1    1    2    0    0 -0.38180603216E+03 -0.13845069561E+03 -0.10708715322E+04  0.11554661106E+04  0.15294330000E+03 0.  1.
<mgrwt>
<rscale>  0 0.43397707E+03</rscale>
<asrwt>0</asrwt>
<pdfrwt beam="1">  1        2 0.15746163E+00 0.43397707E+03</pdfrwt>
<pdfrwt beam="2">  1       -2 0.17863920E+00 0.43397707E+03</pdfrwt>
<totfact> 0.48806065E+00</totfact>
</mgrwt>
</event>
<event>
 4    1  0.4639964E-008  0.5439024E+03  0.7818608E-02  0.1002915E+00
         -2   -1    0    0    0  501 -0.00000000000E+00  0.00000000000E+00  0.18893996435E+03  0.18893996437E+03  0.25500000000E-02 0.  1.
          2   -1    0    0  501    0  0.00000000000E+00 -0.00000000000E+00 -0.35778210560E+04  0.35778210560E+04  0.25500000000E-02 0. -1.
    8880022    1    1    2    0    0  0.51470493672E+03 -0.86700895030E+02 -0.31068221925E+04  0.31540726063E+04  0.15294330000E+03 0. -1.
    8880022    1    1    2    0    0 -0.51470493672E+03  0.86700895030E+02 -0.28205889910E+03  0.61268841401E+03  0.15294330000E+03 0.  0.
<mgrwt>
<rscale>  0 0.54390245E+03</rscale>
<asrwt>0</asrwt>
<pdfrwt beam="1">  1        2 0.55043396E+00 0.54390245E+03</pdfrwt>
<pdfrwt beam="2">  1       -2 0.29067689E-01 0.54390245E+03</pdfrwt>
<totfact> 0.88524020E+00</totfact>
</mgrwt>
</event>
<event>
 4    1  0.4639964E-008  0.2564445E+03  0.7818608E-02  0.1109298E+00
         -2   -1    0    0    0  501 -0.00000000000E+00  0.00000000000E+00  0.21315030312E+04  0.21315030312E+04  0.25500000000E-02 0.  1.
          2   -1    0    0  501    0  0.00000000000E+00 -0.00000000000E+00 -0.23280060999E+03  0.23280061001E+03  0.25500000000E-02 0. -1.
    8880022    1    1    2    0    0  0.20565241770E+03  0.88999953246E+01  0.20503841113E+04  0.20663588226E+04  0.15294330000E+03 0.  0.
    8880022    1    1    2    0    0 -0.20565241770E+03 -0.88999953246E+01 -0.15168169008E+03  0.29794481862E+03  0.15294330000E+03 0.  0.
<mgrwt>
<rscale>  0 0.25644450E+03</rscale>
<asrwt>0</asrwt>
<pdfrwt beam="1">  1        2 0.35815479E-01 0.25644450E+03</pdfrwt>
<pdfrwt beam="2">  1       -2 0.32792354E+00 0.25644450E+03</pdfrwt>
<totfact> 0.36566057E+00</totfact>
</mgrwt>
</event>
<event>
 4    1  0.4639964E-008  0.1047310E+04  0.7818608E-02  0.9258126E-01
         -2   -1    0    0    0  501 -0.00000000000E+00  0.00000000000E+00  0.12489926264E+04  0.12489926265E+04  0.25500000000E-02 0.  1.
          2   -1    0    0  501    0  0.00000000000E+00 -0.00000000000E+00 -0.16309418490E+04  0.16309418490E+04  0.25500000000E-02 0. -1.
    8880022    1    1    2    0    0  0.76576428112E+03  0.69790463638E+03 -0.11692434455E+04  0.15697094328E+04  0.15294330000E+03 0.  0.
    8880022    1    1    2    0    0 -0.76576428112E+03 -0.69790463638E+03  0.78729422296E+03  0.13102250426E+04  0.15294330000E+03 0.  0.
<mgrwt>
<rscale>  0 0.10473096E+04</rscale>
<asrwt>0</asrwt>
<pdfrwt beam="1">  1        2 0.25091413E+00 0.10473096E+04</pdfrwt>
<pdfrwt beam="2">  1       -2 0.19215271E+00 0.10473096E+04</pdfrwt>
<totfact> 0.15874279E+00</totfact>
</mgrwt>
</event>
<event>
 4    1  0.4639964E-008  0.6876767E+03  0.7818608E-02  0.9738542E-01
          2   -1    0    0  501    0  0.00000000000E+00  0.00000000000E+00  0.18843114152E+04  0.18843114152E+04  0.25500000000E-02 0. -1.
         -2   -1    0    0    0  501 -0.00000000000E+00 -0.00000000000E+00 -0.50110989064E+03  0.50110989065E+03  0.25500000000E-02 0.  1.
    8880022    1    1    2    0    0  0.67012120724E+03  0.21097723250E+02  0.15342814753E+04  0.16813443564E+04  0.15294330000E+03 0.  0.
    8880022    1    1    2    0    0 -0.67012120724E+03 -0.21097723250E+02 -0.15107995069E+03  0.70407694951E+03  0.15294330000E+03 0.  0.
<mgrwt>
<rscale>  0 0.68767667E+03</rscale>
<asrwt>0</asrwt>
<pdfrwt beam="1">  1        2 0.28989407E+00 0.68767667E+03</pdfrwt>
<pdfrwt beam="2">  1       -2 0.77093828E-01 0.68767667E+03</pdfrwt>
<totfact> 0.12126779E+01</totfact>
</mgrwt>
</event>
<event>
 4    1  0.4639964E-008  0.7961326E+03  0.7818608E-02  0.9565632E-01
          2   -1    0    0  501    0  0.00000000000E+00  0.00000000000E+00  0.45275370520E+04  0.45275370520E+04  0.25500000000E-02 0. -1.
         -2   -1    0    0    0  501 -0.00000000000E+00 -0.00000000000E+00 -0.21250975858E+03  0.21250975859E+03  0.25500000000E-02 0.  1.
    8880022    1    1    2    0    0  0.38850240022E+03  0.67786533645E+03  0.35419721676E+04  0.36303435124E+04  0.15294330000E+03 0.  0.
    8880022    1    1    2    0    0 -0.38850240022E+03 -0.67786533645E+03  0.77305512585E+03  0.11097032982E+04  0.15294330000E+03 0.  0.
<mgrwt>
<rscale>  0 0.79613264E+03</rscale>
<asrwt>0</asrwt>
<pdfrwt beam="1">  1        2 0.69654419E+00 0.79613264E+03</pdfrwt>
<pdfrwt beam="2">  1       -2 0.32693808E-01 0.79613264E+03</pdfrwt>
<totfact> 0.11356235E+00</totfact>
</mgrwt>
</event>
<event>
 4    1  0.4639964E-008  0.8422371E+03  0.7818608E-02  0.9500816E-01
         -2   -1    0    0    0  501 -0.00000000000E+00  0.00000000000E+00  0.56892458701E+03  0.56892458701E+03  0.25500000000E-02 0.  1.
          2   -1    0    0  501    0  0.00000000000E+00 -0.00000000000E+00 -0.16119228569E+04  0.16119228569E+04  0.25500000000E-02 0. -1.
    8880022    1    1    2    0    0 -0.22081431659E+03  0.79825608013E+03 -0.25638714735E+01  0.84224103339E+03  0.15294330000E+03 0.  0.
    8880022    1    1    2    0    0  0.22081431659E+03 -0.79825608013E+03 -0.10404343984E+04  0.13386064106E+04  0.15294330000E+03 0.  0.
<mgrwt>
<rscale>  0 0.84223713E+03</rscale>
<asrwt>0</asrwt>
<pdfrwt beam="1">  1        2 0.24798813E+00 0.84223713E+03</pdfrwt>
<pdfrwt beam="2">  1       -2 0.87526860E-01 0.84223713E+03</pdfrwt>
<totfact> 0.12555838E+01</totfact>
</mgrwt>
</event>
<event>
 4    1  0.4639964E-008  0.9464029E+03  0.7818608E-02  0.9369365E-01
          2   -1    0    0  501    0  0.00000000000E+00  0.00000000000E+00  0.75373252501E+03  0.75373252501E+03  0.25500000000E-02 0. -1.
         -2   -1    0    0    0  501 -0.00000000000E+00 -0.00000000000E+00 -0.12306968202E+04  0.12306968202E+04  0.25500000000E-02 0.  1.
    8880022    1    1    2    0    0  0.36857799368E+03  0.85815909747E+03 -0.42259069046E+03  0.10364657827E+04  0.15294330000E+03 0.  0.
    8880022    1    1    2    0    0 -0.36857799368E+03 -0.85815909747E+03 -0.54373604751E+02  0.94796356255E+03  0.15294330000E+03 0.  0.
<mgrwt>
<rscale>  0 0.94640289E+03</rscale>
<asrwt>0</asrwt>
<pdfrwt beam="1">  1        2 0.11595885E+00 0.94640289E+03</pdfrwt>
<pdfrwt beam="2">  1       -2 0.18933797E+00 0.94640289E+03</pdfrwt>
<totfact> 0.58215315E+00</totfact>
</mgrwt>
</event>
<event>
 4    1  0.4639964E-008  0.5902539E+03  0.7818608E-02  0.9925835E-01
         -2   -1    0    0    0  501 -0.00000000000E+00  0.00000000000E+00  0.24783872647E+03  0.24783872648E+03  0.25500000000E-02 0.  1.
          2   -1    0    0  501    0  0.00000000000E+00 -0.00000000000E+00 -0.14981830688E+04  0.14981830688E+04  0.25500000000E-02 0. -1.
    8880022    1    1    2    0    0 -0.56089186894E+03 -0.10202135632E+03 -0.84201598203E+03  0.10282950028E+04  0.15294330000E+03 0.  0.
    8880022    1    1    2    0    0  0.56089186894E+03  0.10202135632E+03 -0.40832836027E+03  0.71772679245E+03  0.15294330000E+03 0.  0.
<mgrwt>
<rscale>  0 0.59025393E+03</rscale>
<asrwt>0</asrwt>
<pdfrwt beam="1">  1        2 0.23048970E+00 0.59025393E+03</pdfrwt>
<pdfrwt beam="2">  1       -2 0.38129036E-01 0.59025393E+03</pdfrwt>
<totfact> 0.85646481E+01</totfact>
</mgrwt>
</event>
<event>
 4    1  0.4639964E-008  0.2197023E+03  0.7818608E-02  0.1134105E+00
         -2   -1    0    0    0  501 -0.00000000000E+00  0.00000000000E+00  0.10559902910E+03  0.10559902913E+03  0.25500000000E-02 0.  1.
          2   -1    0    0  501    0  0.00000000000E+00 -0.00000000000E+00 -0.10655150369E+04  0.10655150369E+04  0.25500000000E-02 0. -1.
    8880022    1    1    2    0    0 -0.12521758722E+03  0.95906190989E+02 -0.92243442062E+03  0.94823749925E+03  0.15294330000E+03 0.  0.
    8880022    1    1    2    0    0  0.12521758722E+03 -0.95906190989E+02 -0.37481587159E+02  0.22287656676E+03  0.15294330000E+03 0.  1.
<mgrwt>
<rscale>  0 0.21970229E+03</rscale>
<asrwt>0</asrwt>
<pdfrwt beam="1">  1        2 0.16392538E+00 0.21970229E+03</pdfrwt>
<pdfrwt beam="2">  1       -2 0.16246005E-01 0.21970229E+03</pdfrwt>
<totfact> 0.72241744E+02</totfact>
</mgrwt>
</event>
<event>
 4    1  0.4639964E-008  0.2905346E+03  0.7818608E-02  0.1090070E+00
          2   -1    0    0  501    0  0.00000000000E+00  0.00000000000E+00  0.72385332285E+03  0.72385332285E+03  0.25500000000E-02 0. -1.
         -2   -1    0    0    0  501 -0.00000000000E+00 -0.00000000000E+00 -0.78418998698E+03  0.78418998699E+03  0.25500000000E-02 0.  1.
    8880022    1    1    2    0    0 -0.82956370475E+02  0.23267341067E+03 -0.72587156448E+03  0.78185667265E+03  0.15294330000E+03 0.  0.
    8880022    1    1    2    0    0  0.82956370475E+02 -0.23267341067E+03  0.66553490034E+03  0.72618663719E+03  0.15294330000E+03 0.  0.
<mgrwt>
<rscale>  0 0.29053456E+03</rscale>
<asrwt>0</asrwt>
<pdfrwt beam="1">  1        2 0.11136205E+00 0.29053456E+03</pdfrwt>
<pdfrwt beam="2">  1       -2 0.12064461E+00 0.29053456E+03</pdfrwt>
<totfact> 0.22291953E+01</totfact>
</mgrwt>
</event>
<event>
 4    1  0.4639964E-008  0.8055711E+03  0.7818608E-02  0.9551988E-01
          2   -1    0    0  501    0  0.00000000000E+00  0.00000000000E+00  0.15834193581E+04  0.15834193581E+04  0.25500000000E-02 0. -1.
         -2   -1    0    0    0  501 -0.00000000000E+00 -0.00000000000E+00 -0.62676089920E+03  0.62676089921E+03  0.25500000000E-02 0.  1.
    8880022    1    1    2    0    0  0.68062471514E+02 -0.78798518918E+03  0.11284586783E+04  0.13864933466E+04  0.15294330000E+03 0. -1.
    8880022    1    1    2    0    0 -0.68062471514E+02  0.78798518918E+03 -0.17180021948E+03  0.82368691068E+03  0.15294330000E+03 0.  0.
<mgrwt>
<rscale>  0 0.80557111E+03</rscale>
<asrwt>0</asrwt>
<pdfrwt beam="1">  1        2 0.24360298E+00 0.80557111E+03</pdfrwt>
<pdfrwt beam="2">  1       -2 0.96424753E-01 0.80557111E+03</pdfrwt>
<totfact> 0.10446032E+01</totfact>
</mgrwt>
</event>
<event>
 4    1  0.4639964E-008  0.3658002E+03  0.7818608E-02  0.1056311E+00
          2   -1    0    0  501    0  0.00000000000E+00  0.00000000000E+00  0.71350421478E+03  0.71350421479E+03  0.25500000000E-02 0. -1.
         -2   -1    0    0    0  501 -0.00000000000E+00 -0.00000000000E+00 -0.25081782814E+03  0.25081782815E+03  0.25500000000E-02 0.  1.
    8880022    1    1    2    0    0 -0.14952615380E+03 -0.29674915999E+03  0.47352554519E+03  0.59836128684E+03  0.15294330000E+03 0.  0.
    8880022    1    1    2    0    0  0.14952615380E+03  0.29674915999E+03 -0.10839158548E+02  0.36596075609E+03  0.15294330000E+03 0.  0.
<mgrwt>
<rscale>  0 0.36580020E+03</rscale>
<asrwt>0</asrwt>
<pdfrwt beam="1">  1        2 0.10976988E+00 0.36580020E+03</pdfrwt>
<pdfrwt beam="2">  1       -2 0.38587359E-01 0.36580020E+03</pdfrwt>
<totfact> 0.26157594E+02</totfact>
</mgrwt>
</event>
<event>
 4    1  0.4639964E-008  0.5439751E+03  0.7818608E-02  0.1002898E+00
         -2   -1    0    0    0  501 -0.00000000000E+00  0.00000000000E+00  0.81894987164E+03  0.81894987164E+03  0.25500000000E-02 0.  1.
          2   -1    0    0  501    0  0.00000000000E+00 -0.00000000000E+00 -0.75657450944E+03  0.75657450944E+03  0.25500000000E-02 0. -1.
    8880022    1    1    2    0    0 -0.31049246763E+03 -0.41965664602E+03 -0.53819427443E+03  0.76522023173E+03  0.15294330000E+03 0. -1.
    8880022    1    1    2    0    0  0.31049246763E+03  0.41965664602E+03  0.60056963663E+03  0.81030414935E+03  0.15294330000E+03 0.  0.
<mgrwt>
<rscale>  0 0.54397512E+03</rscale>
<asrwt>0</asrwt>
<pdfrwt beam="1">  1        2 0.11639608E+00 0.54397512E+03</pdfrwt>
<pdfrwt beam="2">  1       -2 0.12599229E+00 0.54397512E+03</pdfrwt>
<totfact> 0.18104533E+01</totfact>
</mgrwt>
</event>
<event>
 4    1  0.4639964E-008  0.4896904E+03  0.7818608E-02  0.1016505E+00
          2   -1    0    0  501    0  0.00000000000E+00  0.00000000000E+00  0.56579055708E+03  0.56579055709E+03  0.25500000000E-02 0. -1.
         -2   -1    0    0    0  501 -0.00000000000E+00 -0.00000000000E+00 -0.66687270404E+03  0.66687270404E+03  0.25500000000E-02 0.  1.
    8880022    1    1    2    0    0  0.45536021063E+03 -0.95142396655E+02  0.32154036839E+03  0.58581981751E+03  0.15294330000E+03 0.  0.
    8880022    1    1    2    0    0 -0.45536021063E+03  0.95142396655E+02 -0.42262251535E+03  0.64684344362E+03  0.15294330000E+03 0.  0.
<mgrwt>
<rscale>  0 0.48969036E+03</rscale>
<asrwt>0</asrwt>
<pdfrwt beam="1">  1        2 0.87044701E-01 0.48969036E+03</pdfrwt>
<pdfrwt beam="2">  1       -2 0.10259580E+00 0.48969036E+03</pdfrwt>
<totfact> 0.42850140E+01</totfact>
</mgrwt>
</event>
<event>
 4    1  0.4639964E-008  0.8069178E+03  0.7818608E-02  0.9550058E-01
          2   -1    0    0  501    0  0.00000000000E+00  0.00000000000E+00  0.23468789637E+04  0.23468789637E+04  0.25500000000E-02 0. -1.
         -2   -1    0    0    0  501 -0.00000000000E+00 -0.00000000000E+00 -0.41020121684E+03  0.41020121685E+03  0.25500000000E-02 0.  1.
    8880022    1    1    2    0    0 -0.25019130148E+03  0.75175060250E+03  0.18408298385E+03  0.82764899182E+03  0.15294330000E+03 0.  0.
    8880022    1    1    2    0    0  0.25019130148E+03 -0.75175060250E+03  0.17525947630E+04  0.19294311887E+04  0.15294330000E+03 0.  0.
<mgrwt>
<rscale>  0 0.80691778E+03</rscale>
<asrwt>0</asrwt>
<pdfrwt beam="1">  1        2 0.36105830E+00 0.80691778E+03</pdfrwt>
<pdfrwt beam="2">  1       -2 0.63107880E-01 0.80691778E+03</pdfrwt>
<totfact> 0.10264893E+01</totfact>
</mgrwt>
</event>
<event>
 4    1  0.4639964E-008  0.6815898E+03  0.7818608E-02  0.9749245E-01
          2   -1    0    0  501    0  0.00000000000E+00  0.00000000000E+00  0.27390722844E+04  0.27390722844E+04  0.25500000000E-02 0. -1.
         -2   -1    0    0    0  501 -0.00000000000E+00 -0.00000000000E+00 -0.25385606548E+03  0.25385606549E+03  0.25500000000E-02 0.  1.
    8880022    1    1    2    0    0 -0.64879370797E+03  0.14226643655E+03  0.21047052307E+04  0.22123175124E+04  0.15294330000E+03 0.  0.
    8880022    1    1    2    0    0  0.64879370797E+03 -0.14226643655E+03  0.38051098824E+03  0.78061083752E+03  0.15294330000E+03 0.  0.
<mgrwt>
<rscale>  0 0.68158981E+03</rscale>
<asrwt>0</asrwt>
<pdfrwt beam="1">  1        2 0.42139574E+00 0.68158981E+03</pdfrwt>
<pdfrwt beam="2">  1       -2 0.39054779E-01 0.68158981E+03</pdfrwt>
<totfact> 0.16615975E+01</totfact>
</mgrwt>
</event>
<event>
 4    1  0.4639964E-008  0.8537261E+03  0.7818608E-02  0.9485350E-01
         -2   -1    0    0    0  501 -0.00000000000E+00  0.00000000000E+00  0.36190550826E+03  0.36190550827E+03  0.25500000000E-02 0.  1.
          2   -1    0    0  501    0  0.00000000000E+00 -0.00000000000E+00 -0.29160398578E+04  0.29160398578E+04  0.25500000000E-02 0. -1.
    8880022    1    1    2    0    0  0.32441557871E+03 -0.77473294874E+03 -0.21886737038E+04  0.23492851773E+04  0.15294330000E+03 0.  0.
    8880022    1    1    2    0    0 -0.32441557871E+03  0.77473294874E+03 -0.36546064572E+03  0.92866018874E+03  0.15294330000E+03 0.  0.
<mgrwt>
<rscale>  0 0.85372611E+03</rscale>
<asrwt>0</asrwt>
<pdfrwt beam="1">  1        2 0.44862150E+00 0.85372611E+03</pdfrwt>
<pdfrwt beam="2">  1       -2 0.55677772E-01 0.85372611E+03</pdfrwt>
<totfact> 0.62101057E+00</totfact>
</mgrwt>
</event>
<event>
 4    1  0.4639964E-008  0.4823859E+03  0.7818608E-02  0.1018482E+00
          2   -1    0    0  501    0  0.00000000000E+00  0.00000000000E+00  0.82732804890E+03  0.82732804890E+03  0.25500000000E-02 0. -1.
         -2   -1    0    0    0  501 -0.00000000000E+00 -0.00000000000E+00 -0.53899983781E+03  0.53899983781E+03  0.25500000000E-02 0.  1.
    8880022    1    1    2    0    0 -0.26757427097E+03 -0.37109100727E+03  0.61657452523E+03  0.78285396105E+03  0.15294330000E+03 0.  0.
    8880022    1    1    2    0    0  0.26757427097E+03  0.37109100727E+03 -0.32824631415E+03  0.58347392566E+03  0.15294330000E+03 0.  0.
<mgrwt>
<rscale>  0 0.48238592E+03</rscale>
<asrwt>0</asrwt>
<pdfrwt beam="1">  1        2 0.12728124E+00 0.48238592E+03</pdfrwt>
<pdfrwt beam="2">  1       -2 0.82923052E-01 0.48238592E+03</pdfrwt>
<totfact> 0.43746534E+01</totfact>
</mgrwt>
</event>
<event>
 4    1  0.4639964E-008  0.3905217E+03  0.7818608E-02  0.1047112E+00
          2   -1    0    0  501    0  0.00000000000E+00  0.00000000000E+00  0.24212660925E+03  0.24212660927E+03  0.25500000000E-02 0. -1.
         -2   -1    0    0    0  501 -0.00000000000E+00 -0.00000000000E+00 -0.11350954543E+04  0.11350954543E+04  0.25500000000E-02 0.  1.
    8880022    1    1    2    0    0  0.30617015524E+03 -0.18808338825E+03  0.12927608967E+02  0.39073558961E+03  0.15294330000E+03 0. -1.
    8880022    1    1    2    0    0 -0.30617015524E+03  0.18808338825E+03 -0.90589645398E+03  0.98648647392E+03  0.15294330000E+03 0.  0.
<mgrwt>
<rscale>  0 0.39052167E+03</rscale>
<asrwt>0</asrwt>
<pdfrwt beam="1">  1        2 0.37250248E-01 0.39052167E+03</pdfrwt>
<pdfrwt beam="2">  1       -2 0.17463007E+00 0.39052167E+03</pdfrwt>
<totfact> 0.28913789E+01</totfact>
</mgrwt>
</event>
<event>
 4    1  0.4639964E-008  0.3526768E+03  0.7818608E-02  0.1061522E+00
          2   -1    0    0  501    0  0.00000000000E+00  0.00000000000E+00  0.26941493340E+04  0.26941493340E+04  0.25500000000E-02 0. -1.
         -2   -1    0    0    0  501 -0.00000000000E+00 -0.00000000000E+00 -0.81548280049E+02  0.81548280088E+02  0.25500000000E-02 0.  1.
    8880022    1    1    2    0    0  0.10768935330E+03 -0.29898535248E+03  0.22204586018E+04  0.22482920836E+04  0.15294330000E+03 0.  0.
    8880022    1    1    2    0    0 -0.10768935330E+03  0.29898535248E+03  0.39214245218E+03  0.52740553053E+03  0.15294330000E+03 0.  1.
<mgrwt>
<rscale>  0 0.35267675E+03</rscale>
<asrwt>0</asrwt>
<pdfrwt beam="1">  1        2 0.41448445E+00 0.35267675E+03</pdfrwt>
<pdfrwt beam="2">  1       -2 0.12545891E-01 0.35267675E+03</pdfrwt>
<totfact> 0.14108374E+02</totfact>
</mgrwt>
</event>
<event>
 4    1  0.4639964E-008  0.4072427E+03  0.7818608E-02  0.1041300E+00
         -2   -1    0    0    0  501 -0.00000000000E+00  0.00000000000E+00  0.17861538714E+03  0.17861538716E+03  0.25500000000E-02 0.  1.
          2   -1    0    0  501    0  0.00000000000E+00 -0.00000000000E+00 -0.18717026993E+04  0.18717026993E+04  0.25500000000E-02 0. -1.
    8880022    1    1    2    0    0  0.37177745664E+03 -0.65088414589E+02 -0.11881003858E+03  0.42421982186E+03  0.15294330000E+03 0.  0.
    8880022    1    1    2    0    0 -0.37177745664E+03  0.65088414589E+02 -0.15742772735E+04  0.16260982646E+04  0.15294330000E+03 0.  0.
<mgrwt>
<rscale>  0 0.40724272E+03</rscale>
<asrwt>0</asrwt>
<pdfrwt beam="1">  1        2 0.28795425E+00 0.40724272E+03</pdfrwt>
<pdfrwt beam="2">  1       -2 0.27479292E-01 0.40724272E+03</pdfrwt>
<totfact> 0.10189971E+02</totfact>
</mgrwt>
</event>
<event>
 4    1  0.4639964E-008  0.6149096E+03  0.7818608E-02  0.9874947E-01
         -2   -1    0    0    0  501 -0.00000000000E+00  0.00000000000E+00  0.19557870369E+03  0.19557870371E+03  0.25500000000E-02 0.  1.
          2   -1    0    0  501    0  0.00000000000E+00 -0.00000000000E+00 -0.30243672077E+04  0.30243672077E+04  0.25500000000E-02 0. -1.
    8880022    1    1    2    0    0 -0.67761983660E+02 -0.59171829226E+03 -0.23813920287E+04  0.24595003296E+04  0.15294330000E+03 0.  0.
    8880022    1    1    2    0    0  0.67761983660E+02  0.59171829226E+03 -0.44739647538E+03  0.76044558190E+03  0.15294330000E+03 0.  0.
<mgrwt>
<rscale>  0 0.61490965E+03</rscale>
<asrwt>0</asrwt>
<pdfrwt beam="1">  1        2 0.46528723E+00 0.61490965E+03</pdfrwt>
<pdfrwt beam="2">  1       -2 0.30089034E-01 0.61490965E+03</pdfrwt>
<totfact> 0.18634933E+01</totfact>
</mgrwt>
</event>
<event>
 4    1  0.4639964E-008  0.1928295E+03  0.7818608E-02  0.1155934E+00
          2   -1    0    0  501    0  0.00000000000E+00  0.00000000000E+00  0.11869773740E+04  0.11869773740E+04  0.25500000000E-02 0. -1.
         -2   -1    0    0    0  501 -0.00000000000E+00 -0.00000000000E+00 -0.12073256272E+03  0.12073256274E+03  0.25500000000E-02 0.  1.
    8880022    1    1    2    0    0 -0.11170834906E+03  0.36232732623E+02 -0.29547888482E+02  0.19508023193E+03  0.15294330000E+03 0.  1.
    8880022    1    1    2    0    0  0.11170834906E+03 -0.36232732623E+02  0.10957926998E+04  0.11126297048E+04  0.15294330000E+03 0.  0.
<mgrwt>
<rscale>  0 0.19282951E+03</rscale>
<asrwt>0</asrwt>
<pdfrwt beam="1">  1        2 0.18261191E+00 0.19282951E+03</pdfrwt>
<pdfrwt beam="2">  1       -2 0.18574240E-01 0.19282951E+03</pdfrwt>
<totfact> 0.49238510E+02</totfact>
</mgrwt>
</event>
<event>
 4    1  0.4639964E-008  0.4430691E+03  0.7818608E-02  0.1029809E+00
         -2   -1    0    0    0  501 -0.00000000000E+00  0.00000000000E+00  0.23653766471E+03  0.23653766473E+03  0.25500000000E-02 0.  1.
          2   -1    0    0  501    0  0.00000000000E+00 -0.00000000000E+00 -0.20444667507E+04  0.20444667507E+04  0.25500000000E-02 0. -1.
    8880022    1    1    2    0    0  0.11466475710E+03 -0.39971308371E+03 -0.24919654096E+02  0.44376930717E+03  0.15294330000E+03 0.  0.
    8880022    1    1    2    0    0 -0.11466475710E+03  0.39971308371E+03 -0.17830094319E+04  0.18372351083E+04  0.15294330000E+03 0.  0.
<mgrwt>
<rscale>  0 0.44306908E+03</rscale>
<asrwt>0</asrwt>
<pdfrwt beam="1">  1        2 0.31453333E+00 0.44306908E+03</pdfrwt>
<pdfrwt beam="2">  1       -2 0.36390411E-01 0.44306908E+03</pdfrwt>
<totfact> 0.48570529E+01</totfact>
</mgrwt>
</event>
<event>
 4    1  0.4639964E-008  0.5689836E+03  0.7818608E-02  0.9971930E-01
         -2   -1    0    0    0  501 -0.00000000000E+00  0.00000000000E+00  0.48552104292E+03  0.48552104293E+03  0.25500000000E-02 0.  1.
          2   -1    0    0  501    0  0.00000000000E+00 -0.00000000000E+00 -0.68875955562E+03  0.68875955563E+03  0.25500000000E-02 0. -1.
    8880022    1    1    2    0    0  0.51304672257E+03 -0.19270111684E+03 -0.20647285694E+03  0.60528782710E+03  0.15294330000E+03 0.  0.
    8880022    1    1    2    0    0 -0.51304672257E+03  0.19270111684E+03  0.32343442396E+01  0.56899277145E+03  0.15294330000E+03 0.  0.
<mgrwt>
<rscale>  0 0.56898358E+03</rscale>
<asrwt>0</asrwt>
<pdfrwt beam="1">  1        2 0.10596301E+00 0.56898358E+03</pdfrwt>
<pdfrwt beam="2">  1       -2 0.74695545E-01 0.56898358E+03</pdfrwt>
<totfact> 0.69199795E+01</totfact>
</mgrwt>
</event>
<event>
 4    1  0.4639964E-008  0.1701733E+03  0.7818608E-02  0.1177667E+00
          2   -1    0    0  501    0  0.00000000000E+00  0.00000000000E+00  0.80509394424E+03  0.80509394424E+03  0.25500000000E-02 0. -1.
         -2   -1    0    0    0  501 -0.00000000000E+00 -0.00000000000E+00 -0.44308097548E+02  0.44308097621E+02  0.25500000000E-02 0.  1.
    8880022    1    1    2    0    0 -0.24279653355E+02  0.70553512655E+02  0.19615281422E+03  0.25968226596E+03  0.15294330000E+03 0.  1.
    8880022    1    1    2    0    0  0.24279653355E+02 -0.70553512655E+02  0.56463303247E+03  0.58971977590E+03  0.15294330000E+03 0. -1.
<mgrwt>
<rscale>  0 0.17017330E+03</rscale>
<asrwt>0</asrwt>
<pdfrwt beam="1">  1        2 0.12386060E+00 0.17017330E+03</pdfrwt>
<pdfrwt beam="2">  1       -2 0.68166306E-02 0.17017330E+03</pdfrwt>
<totfact> 0.42009381E+03</totfact>
</mgrwt>
</event>
<event>
 4    1  0.4639964E-008  0.9263371E+03  0.7818608E-02  0.9393245E-01
          2   -1    0    0  501    0  0.00000000000E+00  0.00000000000E+00  0.12700810161E+04  0.12700810161E+04  0.25500000000E-02 0. -1.
         -2   -1    0    0    0  501 -0.00000000000E+00 -0.00000000000E+00 -0.80506559103E+03  0.80506559104E+03  0.25500000000E-02 0.  1.
    8880022    1    1    2    0    0  0.43304232365E+03  0.80447691021E+03  0.64854845669E+03  0.11308030363E+04  0.15294330000E+03 0. -1.
    8880022    1    1    2    0    0 -0.43304232365E+03 -0.80447691021E+03 -0.18353303163E+03  0.94434357087E+03  0.15294330000E+03 0.  1.
<mgrwt>
<rscale>  0 0.92633709E+03</rscale>
<asrwt>0</asrwt>
<pdfrwt beam="1">  1        2 0.19539708E+00 0.92633709E+03</pdfrwt>
<pdfrwt beam="2">  1       -2 0.12385625E+00 0.92633709E+03</pdfrwt>
<totfact> 0.84464118E+00</totfact>
</mgrwt>
</event>
<event>
 4    1  0.4639964E-008  0.4511249E+03  0.7818608E-02  0.1027387E+00
          2   -1    0    0  501    0  0.00000000000E+00  0.00000000000E+00  0.37054581845E+03  0.37054581846E+03  0.25500000000E-02 0. -1.
         -2   -1    0    0    0  501 -0.00000000000E+00 -0.00000000000E+00 -0.23476906289E+04  0.23476906289E+04  0.25500000000E-02 0.  1.
    8880022    1    1    2    0    0  0.38504895399E+03 -0.17849180148E+03 -0.21781359959E+04  0.22243628503E+04  0.15294330000E+03 0.  0.
    8880022    1    1    2    0    0 -0.38504895399E+03  0.17849180148E+03  0.20099118550E+03  0.49387359701E+03  0.15294330000E+03 0.  0.
<mgrwt>
<rscale>  0 0.45112490E+03</rscale>
<asrwt>0</asrwt>
<pdfrwt beam="1">  1        2 0.57007050E-01 0.45112490E+03</pdfrwt>
<pdfrwt beam="2">  1       -2 0.36118316E+00 0.45112490E+03</pdfrwt>
<totfact> 0.12914519E+00</totfact>
</mgrwt>
</event>
<event>
 4    1  0.4639964E-008  0.5915852E+03  0.7818608E-02  0.9923019E-01
         -2   -1    0    0    0  501 -0.00000000000E+00  0.00000000000E+00  0.59347738632E+03  0.59347738632E+03  0.25500000000E-02 0.  1.
          2   -1    0    0  501    0  0.00000000000E+00 -0.00000000000E+00 -0.14962239145E+04  0.14962239145E+04  0.25500000000E-02 0. -1.
    8880022    1    1    2    0    0 -0.49581511193E+03  0.28416336090E+03  0.36191735768E+03  0.69351082739E+03  0.15294330000E+03 0.  0.
    8880022    1    1    2    0    0  0.49581511193E+03 -0.28416336090E+03 -0.12646638859E+04  0.13961904735E+04  0.15294330000E+03 0.  0.
<mgrwt>
<rscale>  0 0.59158524E+03</rscale>
<asrwt>0</asrwt>
<pdfrwt beam="1">  1        2 0.23018829E+00 0.59158524E+03</pdfrwt>
<pdfrwt beam="2">  1       -2 0.91304214E-01 0.59158524E+03</pdfrwt>
<totfact> 0.13670620E+01</totfact>
</mgrwt>
</event>
<event>
 4    1  0.4639964E-008  0.2553219E+03  0.7818608E-02  0.1109987E+00
         -2   -1    0    0    0  501 -0.00000000000E+00  0.00000000000E+00  0.32707121104E+03  0.32707121105E+03  0.25500000000E-02 0.  1.
          2   -1    0    0  501    0  0.00000000000E+00 -0.00000000000E+00 -0.52092579046E+03  0.52092579047E+03  0.25500000000E-02 0. -1.
    8880022    1    1    2    0    0 -0.24391549821E+02 -0.20298442695E+03 -0.43008018849E+03  0.50015822179E+03  0.15294330000E+03 0.  0.
    8880022    1    1    2    0    0  0.24391549821E+02  0.20298442695E+03  0.23622560906E+03  0.34783877972E+03  0.15294330000E+03 0.  1.
<mgrwt>
<rscale>  0 0.25532191E+03</rscale>
<asrwt>0</asrwt>
<pdfrwt beam="1">  1        2 0.80142429E-01 0.25532191E+03</pdfrwt>
<pdfrwt beam="2">  1       -2 0.50318648E-01 0.25532191E+03</pdfrwt>
<totfact> 0.22763047E+02</totfact>
</mgrwt>
</event>
<event>
 4    1  0.4639964E-008  0.6455572E+03  0.7818608E-02  0.9815152E-01
         -2   -1    0    0    0  501 -0.00000000000E+00  0.00000000000E+00  0.60898183872E+03  0.60898183873E+03  0.25500000000E-02 0.  1.
          2   -1    0    0  501    0  0.00000000000E+00 -0.00000000000E+00 -0.96804976049E+03  0.96804976049E+03  0.25500000000E-02 0. -1.
    8880022    1    1    2    0    0  0.38378462705E+03  0.49604616112E+03 -0.60641505662E+03  0.88571062308E+03  0.15294330000E+03 0.  0.
    8880022    1    1    2    0    0 -0.38378462705E+03 -0.49604616112E+03  0.24734713485E+03  0.69132097614E+03  0.15294330000E+03 0.  0.
<mgrwt>
<rscale>  0 0.64555719E+03</rscale>
<asrwt>0</asrwt>
<pdfrwt beam="1">  1        2 0.14893073E+00 0.64555719E+03</pdfrwt>
<pdfrwt beam="2">  1       -2 0.93689514E-01 0.64555719E+03</pdfrwt>
<totfact> 0.26127728E+01</totfact>
</mgrwt>
</event>
<event>
 4    1  0.4639964E-008  0.6727753E+03  0.7818608E-02  0.9764957E-01
          2   -1    0    0  501    0  0.00000000000E+00  0.00000000000E+00  0.61443051154E+03  0.61443051155E+03  0.25500000000E-02 0. -1.
         -2   -1    0    0    0  501 -0.00000000000E+00 -0.00000000000E+00 -0.14722571543E+04  0.14722571543E+04  0.25500000000E-02 0.  1.
    8880022    1    1    2    0    0  0.36631920228E+03  0.54318058780E+03 -0.11664023261E+04  0.13465217964E+04  0.15294330000E+03 0.  0.
    8880022    1    1    2    0    0 -0.36631920228E+03 -0.54318058780E+03  0.30857568332E+03  0.74016586943E+03  0.15294330000E+03 0.  0.
<mgrwt>
<rscale>  0 0.67277527E+03</rscale>
<asrwt>0</asrwt>
<pdfrwt beam="1">  1        2 0.94527771E-01 0.67277527E+03</pdfrwt>
<pdfrwt beam="2">  1       -2 0.22650110E+00 0.67277527E+03</pdfrwt>
<totfact> 0.44898035E+00</totfact>
</mgrwt>
</event>
<event>
 4    1  0.4639964E-008  0.4636433E+03  0.7818608E-02  0.1023730E+00
         -2   -1    0    0    0  501 -0.00000000000E+00  0.00000000000E+00  0.68545491587E+03  0.68545491588E+03  0.25500000000E-02 0.  1.
          2   -1    0    0  501    0  0.00000000000E+00 -0.00000000000E+00 -0.52619275519E+03  0.52619275520E+03  0.25500000000E-02 0. -1.
    8880022    1    1    2    0    0  0.44454399434E+02  0.43542763074E+03  0.46470012482E+03  0.65643832480E+03  0.15294330000E+03 0.  0.
    8880022    1    1    2    0    0 -0.44454399434E+02 -0.43542763074E+03 -0.30543796414E+03  0.55520934628E+03  0.15294330000E+03 0.  0.
<mgrwt>
<rscale>  0 0.46364326E+03</rscale>
<asrwt>0</asrwt>
<pdfrwt beam="1">  1        2 0.80952732E-01 0.46364326E+03</pdfrwt>
<pdfrwt beam="2">  1       -2 0.10545460E+00 0.46364326E+03</pdfrwt>
<totfact> 0.43806126E+01</totfact>
</mgrwt>
</event>
<event>
 4    1  0.4639964E-008  0.5775981E+03  0.7818608E-02  0.9953005E-01
          2   -1    0    0  501    0  0.00000000000E+00  0.00000000000E+00  0.10601940374E+04  0.10601940374E+04  0.25500000000E-02 0. -1.
         -2   -1    0    0    0  501 -0.00000000000E+00 -0.00000000000E+00 -0.11311974694E+04  0.11311974694E+04  0.25500000000E-02 0.  1.
    8880022    1    1    2    0    0  0.48782457915E+03  0.26880310452E+03 -0.96640396133E+03  0.11258579833E+04  0.15294330000E+03 0.  0.
    8880022    1    1    2    0    0 -0.48782457915E+03 -0.26880310452E+03  0.89540052932E+03  0.10655335236E+04  0.15294330000E+03 0.  0.
<mgrwt>
<rscale>  0 0.57759811E+03</rscale>
<asrwt>0</asrwt>
<pdfrwt beam="1">  1        2 0.16310677E+00 0.57759811E+03</pdfrwt>
<pdfrwt beam="2">  1       -2 0.17403038E+00 0.57759811E+03</pdfrwt>
<totfact> 0.48340675E+00</totfact>
</mgrwt>
</event>
<event>
 4    1  0.4639964E-008  0.4131514E+03  0.7818608E-02  0.1039319E+00
         -2   -1    0    0    0  501 -0.00000000000E+00  0.00000000000E+00  0.34312652169E+03  0.34312652170E+03  0.25500000000E-02 0.  1.
          2   -1    0    0  501    0  0.00000000000E+00 -0.00000000000E+00 -0.15149524968E+04  0.15149524968E+04  0.25500000000E-02 0. -1.
    8880022    1    1    2    0    0 -0.23928556080E+03  0.30007472202E+03 -0.13472883528E+04  0.14092125379E+04  0.15294330000E+03 0.  0.
    8880022    1    1    2    0    0  0.23928556080E+03 -0.30007472202E+03  0.17546237768E+03  0.44886648059E+03  0.15294330000E+03 0.  0.
<mgrwt>
<rscale>  0 0.41315139E+03</rscale>
<asrwt>0</asrwt>
<pdfrwt beam="1">  1        2 0.23306961E+00 0.41315139E+03</pdfrwt>
<pdfrwt beam="2">  1       -2 0.52788696E-01 0.41315139E+03</pdfrwt>
<totfact> 0.45232641E+01</totfact>
</mgrwt>
</event>
<event>
 4    1  0.4639964E-008  0.6209929E+03  0.7818608E-02  0.9862785E-01
         -2   -1    0    0    0  501 -0.00000000000E+00  0.00000000000E+00  0.48058543124E+03  0.48058543124E+03  0.25500000000E-02 0.  1.
          2   -1    0    0  501    0  0.00000000000E+00 -0.00000000000E+00 -0.19761721331E+04  0.19761721331E+04  0.25500000000E-02 0. -1.
    8880022    1    1    2    0    0  0.59017249605E+03 -0.11805511006E+03  0.19889663052E+03  0.65206756303E+03  0.15294330000E+03 0.  0.
    8880022    1    1    2    0    0 -0.59017249605E+03  0.11805511006E+03 -0.16944833324E+04  0.18046900013E+04  0.15294330000E+03 0.  0.
<mgrwt>
<rscale>  0 0.62099294E+03</rscale>
<asrwt>0</asrwt>
<pdfrwt beam="1">  1        2 0.30402648E+00 0.62099294E+03</pdfrwt>
<pdfrwt beam="2">  1       -2 0.73936221E-01 0.62099294E+03</pdfrwt>
<totfact> 0.11995645E+01</totfact>
</mgrwt>
</event>
<event>
 4    1  0.4639964E-008  0.5103930E+03  0.7818608E-02  0.1011101E+00
         -2   -1    0    0    0  501 -0.00000000000E+00  0.00000000000E+00  0.11606609598E+03  0.11606609600E+03  0.25500000000E-02 0.  1.
          2   -1    0    0  501    0  0.00000000000E+00 -0.00000000000E+00 -0.33327378677E+04  0.33327378677E+04  0.25500000000E-02 0. -1.
    8880022    1    1    2    0    0 -0.43014142742E+03  0.22822727607E+03 -0.62292819539E+03  0.80532013930E+03  0.15294330000E+03 0.  0.
    8880022    1    1    2    0    0  0.43014142742E+03 -0.22822727607E+03 -0.25937435763E+04  0.26434838244E+04  0.15294330000E+03 0.  0.
<mgrwt>
<rscale>  0 0.51039298E+03</rscale>
<asrwt>0</asrwt>
<pdfrwt beam="1">  1        2 0.51272883E+00 0.51039298E+03</pdfrwt>
<pdfrwt beam="2">  1       -2 0.17856325E-01 0.51039298E+03</pdfrwt>
<totfact> 0.30874196E+01</totfact>
</mgrwt>
</event>
<event>
 4    1  0.4639964E-008  0.8072826E+03  0.7818608E-02  0.9549535E-01
          2   -1    0    0  501    0  0.00000000000E+00  0.00000000000E+00  0.17371297865E+04  0.17371297865E+04  0.25500000000E-02 0. -1.
         -2   -1    0    0    0  501 -0.00000000000E+00 -0.00000000000E+00 -0.79887241747E+03  0.79887241747E+03  0.25500000000E-02 0.  1.
    8880022    1    1    2    0    0  0.57728589479E+03 -0.54318921822E+03  0.13925830939E+04  0.16096561302E+04  0.15294330000E+03 0.  0.
    8880022    1    1    2    0    0 -0.57728589479E+03  0.54318921822E+03 -0.45432572485E+03  0.92634607377E+03  0.15294330000E+03 0.  0.
<mgrwt>
<rscale>  0 0.80728259E+03</rscale>
<asrwt>0</asrwt>
<pdfrwt beam="1">  1        2 0.26725074E+00 0.80728259E+03</pdfrwt>
<pdfrwt beam="2">  1       -2 0.12290345E+00 0.80728259E+03</pdfrwt>
<totfact> 0.47774904E+00</totfact>
</mgrwt>
</event>
<event>
 4    1  0.4639964E-008  0.9834186E+03  0.7818608E-02  0.9326920E-01
          2   -1    0    0  501    0  0.00000000000E+00  0.00000000000E+00  0.15830379693E+04  0.15830379693E+04  0.25500000000E-02 0. -1.
         -2   -1    0    0    0  501 -0.00000000000E+00 -0.00000000000E+00 -0.94756188843E+03  0.94756188843E+03  0.25500000000E-02 0.  1.
    8880022    1    1    2    0    0  0.91628727656E+03  0.32270422855E+03  0.10719141210E+04  0.14546861957E+04  0.15294330000E+03 0.  0.
    8880022    1    1    2    0    0 -0.91628727656E+03 -0.32270422855E+03 -0.43643804007E+03  0.10759136620E+04  0.15294330000E+03 0.  0.
<mgrwt>
<rscale>  0 0.98341855E+03</rscale>
<asrwt>0</asrwt>
<pdfrwt beam="1">  1        2 0.24354430E+00 0.98341855E+03</pdfrwt>
<pdfrwt beam="2">  1       -2 0.14577876E+00 0.98341855E+03</pdfrwt>
<totfact> 0.36658872E+00</totfact>
</mgrwt>
</event>
<event>
 4    1  0.4639964E-008  0.6382737E+03  0.7818608E-02  0.9829035E-01
         -2   -1    0    0    0  501 -0.00000000000E+00  0.00000000000E+00  0.34567939170E+03  0.34567939171E+03  0.25500000000E-02 0.  1.
          2   -1    0    0  501    0  0.00000000000E+00 -0.00000000000E+00 -0.15459615717E+04  0.15459615717E+04  0.25500000000E-02 0. -1.
    8880022    1    1    2    0    0 -0.19236175271E+03 -0.58906587296E+03 -0.10612441479E+04  0.12383991445E+04  0.15294330000E+03 0. -1.
    8880022    1    1    2    0    0  0.19236175271E+03  0.58906587296E+03 -0.13903803209E+03  0.65324181892E+03  0.15294330000E+03 0.  1.
<mgrwt>
<rscale>  0 0.63827369E+03</rscale>
<asrwt>0</asrwt>
<pdfrwt beam="1">  1        2 0.23784024E+00 0.63827369E+03</pdfrwt>
<pdfrwt beam="2">  1       -2 0.53181446E-01 0.63827369E+03</pdfrwt>
<totfact> 0.41335931E+01</totfact>
</mgrwt>
</event>
<event>
 4    1  0.4639964E-008  0.5217099E+03  0.7818608E-02  0.1008263E+00
         -2   -1    0    0    0  501 -0.00000000000E+00  0.00000000000E+00  0.18160648644E+03  0.18160648646E+03  0.25500000000E-02 0.  1.
          2   -1    0    0  501    0  0.00000000000E+00 -0.00000000000E+00 -0.25613422962E+04  0.25613422962E+04  0.25500000000E-02 0. -1.
    8880022    1    1    2    0    0  0.47830471212E+03  0.14147159900E+03 -0.30650559838E+03  0.60508424687E+03  0.15294330000E+03 0.  0.
    8880022    1    1    2    0    0 -0.47830471212E+03 -0.14147159900E+03 -0.20732302113E+04  0.21378645358E+04  0.15294330000E+03 0.  0.
<mgrwt>
<rscale>  0 0.52170994E+03</rscale>
<asrwt>0</asrwt>
<pdfrwt beam="1">  1        2 0.39405263E+00 0.52170994E+03</pdfrwt>
<pdfrwt beam="2">  1       -2 0.27939461E-01 0.52170994E+03</pdfrwt>
<totfact> 0.40671110E+01</totfact>
</mgrwt>
</event>
<event>
 4    1  0.4639964E-008  0.4824686E+03  0.7818608E-02  0.1018459E+00
          2   -1    0    0  501    0  0.00000000000E+00  0.00000000000E+00  0.25883625389E+04  0.25883625389E+04  0.25500000000E-02 0. -1.
         -2   -1    0    0    0  501 -0.00000000000E+00 -0.00000000000E+00 -0.22795612477E+03  0.22795612478E+03  0.25500000000E-02 0.  1.
    8880022    1    1    2    0    0  0.24651170232E+03  0.38550779899E+03  0.84471871294E+02  0.48980754641E+03  0.15294330000E+03 0.  0.
    8880022    1    1    2    0    0 -0.24651170232E+03 -0.38550779899E+03  0.22759345429E+04  0.23265111173E+04  0.15294330000E+03 0.  0.
<mgrwt>
<rscale>  0 0.48246858E+03</rscale>
<asrwt>0</asrwt>
<pdfrwt beam="1">  1        2 0.39820962E+00 0.48246858E+03</pdfrwt>
<pdfrwt beam="2">  1       -2 0.35070173E-01 0.48246858E+03</pdfrwt>
<totfact> 0.25968185E+01</totfact>
</mgrwt>
</event>
<event>
 4    1  0.4639964E-008  0.1654777E+03  0.7818608E-02  0.1182648E+00
         -2   -1    0    0    0  501 -0.00000000000E+00  0.00000000000E+00  0.47777306220E+03  0.47777306221E+03  0.25500000000E-02 0.  1.
          2   -1    0    0  501    0  0.00000000000E+00 -0.00000000000E+00 -0.44985520331E+03  0.44985520332E+03  0.25500000000E-02 0. -1.
    8880022    1    1    2    0    0 -0.58445668235E+02 -0.23985709926E+02 -0.41930295597E+03  0.45077470239E+03  0.15294330000E+03 0.  0.
    8880022    1    1    2    0    0  0.58445668235E+02  0.23985709926E+02  0.44722081486E+03  0.47685356313E+03  0.15294330000E+03 0.  1.
<mgrwt>
<rscale>  0 0.16547768E+03</rscale>
<asrwt>0</asrwt>
<pdfrwt beam="1">  1        2 0.69208492E-01 0.16547768E+03</pdfrwt>
<pdfrwt beam="2">  1       -2 0.73503549E-01 0.16547768E+03</pdfrwt>
<totfact> 0.12329858E+02</totfact>
</mgrwt>
</event>
<event>
 4    1  0.4639964E-008  0.9558908E+03  0.7818608E-02  0.9358292E-01
         -2   -1    0    0    0  501 -0.00000000000E+00  0.00000000000E+00  0.21608829475E+04  0.21608829475E+04  0.25500000000E-02 0.  1.
          2   -1    0    0  501    0  0.00000000000E+00 -0.00000000000E+00 -0.86972467371E+03  0.86972467372E+03  0.25500000000E-02 0. -1.
    8880022    1    1    2    0    0  0.85026607113E+03 -0.40912478639E+03 -0.44060183361E+03  0.10525479140E+04  0.15294330000E+03 0.  0.
    8880022    1    1    2    0    0 -0.85026607113E+03  0.40912478639E+03  0.17317601074E+04  0.19780597071E+04  0.15294330000E+03 0.  0.
<mgrwt>
<rscale>  0 0.95589076E+03</rscale>
<asrwt>0</asrwt>
<pdfrwt beam="1">  1        2 0.13380380E+00 0.95589076E+03</pdfrwt>
<pdfrwt beam="2">  1       -2 0.33244352E+00 0.95589076E+03</pdfrwt>
<totfact> 0.62624844E-01</totfact>
</mgrwt>
</event>
<event>
 4    1  0.4639964E-008  0.1541252E+03  0.7818608E-02  0.1195494E+00
         -2   -1    0    0    0  501 -0.00000000000E+00  0.00000000000E+00  0.17769927681E+03  0.17769927683E+03  0.25500000000E-02 0.  1.
          2   -1    0    0  501    0  0.00000000000E+00 -0.00000000000E+00 -0.23531694815E+03  0.23531694816E+03  0.25500000000E-02 0. -1.
    8880022    1    1    2    0    0 -0.13629616265E+02  0.13309794119E+02 -0.16452749435E+03  0.22544149234E+03  0.15294330000E+03 0.  0.
    8880022    1    1    2    0    0  0.13629616265E+02 -0.13309794119E+02  0.10690982301E+03  0.18757473265E+03  0.15294330000E+03 0.  1.
<mgrwt>
<rscale>  0 0.15412518E+03</rscale>
<asrwt>0</asrwt>
<pdfrwt beam="1">  1        2 0.36202608E-01 0.15412518E+03</pdfrwt>
<pdfrwt beam="2">  1       -2 0.27338350E-01 0.15412518E+03</pdfrwt>
<totfact> 0.16954959E+03</totfact>
</mgrwt>
</event>
<event>
 4    1  0.4639964E-008  0.1554844E+03  0.7818608E-02  0.1193891E+00
         -2   -1    0    0    0  501 -0.00000000000E+00  0.00000000000E+00  0.25558947326E+03  0.25558947327E+03  0.25500000000E-02 0.  1.
          2   -1    0    0  501    0  0.00000000000E+00 -0.00000000000E+00 -0.16081976439E+04  0.16081976439E+04  0.25500000000E-02 0. -1.
    8880022    1    1    2    0    0 -0.20746557176E+02 -0.18796734437E+02 -0.15803775334E+04  0.15880077261E+04  0.15294330000E+03 0. -1.
    8880022    1    1    2    0    0  0.20746557176E+02  0.18796734437E+02  0.22776936285E+03  0.27577939105E+03  0.15294330000E+03 0.  0.
<mgrwt>
<rscale>  0 0.15548437E+03</rscale>
<asrwt>0</asrwt>
<pdfrwt beam="1">  1        2 0.24741502E+00 0.15548437E+03</pdfrwt>
<pdfrwt beam="2">  1       -2 0.39321458E-01 0.15548437E+03</pdfrwt>
<totfact> 0.77769348E+01</totfact>
</mgrwt>
</event>
<event>
 4    1  0.4639964E-008  0.4238193E+03  0.7818608E-02  0.1035830E+00
         -2   -1    0    0    0  501 -0.00000000000E+00  0.00000000000E+00  0.20780814380E+03  0.20780814382E+03  0.25500000000E-02 0.  1.
          2   -1    0    0  501    0  0.00000000000E+00 -0.00000000000E+00 -0.18887690662E+04  0.18887690662E+04  0.25500000000E-02 0. -1.
    8880022    1    1    2    0    0  0.21587562214E+03 -0.33110248228E+03 -0.16124965698E+04  0.16672636200E+04  0.15294330000E+03 0. -1.
    8880022    1    1    2    0    0 -0.21587562214E+03  0.33110248228E+03 -0.68464352653E+02  0.42931359005E+03  0.15294330000E+03 0.  0.
<mgrwt>
<rscale>  0 0.42381929E+03</rscale>
<asrwt>0</asrwt>
<pdfrwt beam="1">  1        2 0.29057984E+00 0.42381929E+03</pdfrwt>
<pdfrwt beam="2">  1       -2 0.31970485E-01 0.42381929E+03</pdfrwt>
<totfact> 0.75351501E+01</totfact>
</mgrwt>
</event>
<event>
 4    1  0.4639964E-008  0.3619367E+03  0.7818608E-02  0.1057820E+00
         -2   -1    0    0    0  501 -0.00000000000E+00  0.00000000000E+00  0.39992035221E+03  0.39992035222E+03  0.25500000000E-02 0.  1.
          2   -1    0    0  501    0  0.00000000000E+00 -0.00000000000E+00 -0.90404445251E+03  0.90404445251E+03  0.25500000000E-02 0. -1.
    8880022    1    1    2    0    0  0.12235034633E+03  0.30436316188E+03 -0.77269843198E+03  0.85326494206E+03  0.15294330000E+03 0.  0.
    8880022    1    1    2    0    0 -0.12235034633E+03 -0.30436316188E+03  0.26857433168E+03  0.45069986267E+03  0.15294330000E+03 0.  1.
<mgrwt>
<rscale>  0 0.36193673E+03</rscale>
<asrwt>0</asrwt>
<pdfrwt beam="1">  1        2 0.13908376E+00 0.36193673E+03</pdfrwt>
<pdfrwt beam="2">  1       -2 0.61526208E-01 0.36193673E+03</pdfrwt>
<totfact> 0.75587500E+01</totfact>
</mgrwt>
</event>
<event>
 4    1  0.4639964E-008  0.3487556E+03  0.7818608E-02  0.1063127E+00
         -2   -1    0    0    0  501 -0.00000000000E+00  0.00000000000E+00  0.51739135809E+03  0.51739135809E+03  0.25500000000E-02 0.  1.
          2   -1    0    0  501    0  0.00000000000E+00 -0.00000000000E+00 -0.68108153870E+03  0.68108153871E+03  0.25500000000E-02 0. -1.
    8880022    1    1    2    0    0  0.16483365533E+03 -0.26658707853E+03 -0.56675925722E+03  0.66546713895E+03  0.15294330000E+03 0. -1.
    8880022    1    1    2    0    0 -0.16483365533E+03  0.26658707853E+03  0.40306907660E+03  0.53300575785E+03  0.15294330000E+03 0.  0.
<mgrwt>
<rscale>  0 0.34875558E+03</rscale>
<asrwt>0</asrwt>
<pdfrwt beam="1">  1        2 0.10478178E+00 0.34875558E+03</pdfrwt>
<pdfrwt beam="2">  1       -2 0.79598671E-01 0.34875558E+03</pdfrwt>
<totfact> 0.62502047E+01</totfact>
</mgrwt>
</event>
<event>
 4    1  0.4639964E-008  0.2714667E+03  0.7818608E-02  0.1100443E+00
         -2   -1    0    0    0  501 -0.00000000000E+00  0.00000000000E+00  0.27490965094E+03  0.27490965095E+03  0.25500000000E-02 0.  1.
          2   -1    0    0  501    0  0.00000000000E+00 -0.00000000000E+00 -0.29772650647E+04  0.29772650647E+04  0.25500000000E-02 0. -1.
    8880022    1    1    2    0    0  0.13298603458E+02 -0.22388764564E+03  0.19997840112E+03  0.33717287058E+03  0.15294330000E+03 0.  0.
    8880022    1    1    2    0    0 -0.13298603458E+02  0.22388764564E+03 -0.29023338149E+04  0.29150018451E+04  0.15294330000E+03 0. -1.
<mgrwt>
<rscale>  0 0.27146673E+03</rscale>
<asrwt>0</asrwt>
<pdfrwt beam="1">  1        2 0.45804076E+00 0.27146673E+03</pdfrwt>
<pdfrwt beam="2">  1       -2 0.42293794E-01 0.27146673E+03</pdfrwt>
<totfact> 0.11655446E+01</totfact>
</mgrwt>
</event>
<event>
 4    1  0.4639964E-008  0.3314012E+03  0.7818608E-02  0.1070519E+00
          2   -1    0    0  501    0  0.00000000000E+00  0.00000000000E+00  0.23129498369E+04  0.23129498369E+04  0.25500000000E-02 0. -1.
         -2   -1    0    0    0  501 -0.00000000000E+00 -0.00000000000E+00 -0.14727552057E+03  0.14727552059E+03  0.25500000000E-02 0.  1.
    8880022    1    1    2    0    0  0.23440249463E+03 -0.17745578284E+03  0.20954133762E+04  0.21214579785E+04  0.15294330000E+03 0.  0.
    8880022    1    1    2    0    0 -0.23440249463E+03  0.17745578284E+03  0.70260940146E+02  0.33876737900E+03  0.15294330000E+03 0.  0.
<mgrwt>
<rscale>  0 0.33140117E+03</rscale>
<asrwt>0</asrwt>
<pdfrwt beam="1">  1        2 0.35583843E+00 0.33140117E+03</pdfrwt>
<pdfrwt beam="2">  1       -2 0.22657773E-01 0.33140117E+03</pdfrwt>
<totfact> 0.84850021E+01</totfact>
</mgrwt>
</event>
<event>
 4    1  0.4639964E-008  0.3621477E+03  0.7818608E-02  0.1057737E+00
          2   -1    0    0  501    0  0.00000000000E+00  0.00000000000E+00  0.94876639158E+03  0.94876639159E+03  0.25500000000E-02 0. -1.
         -2   -1    0    0    0  501 -0.00000000000E+00 -0.00000000000E+00 -0.18219084670E+03  0.18219084671E+03  0.25500000000E-02 0.  1.
    8880022    1    1    2    0    0 -0.71240624578E+02 -0.32044358924E+03  0.10552736429E+03  0.37720948835E+03  0.15294330000E+03 0.  0.
    8880022    1    1    2    0    0  0.71240624578E+02  0.32044358924E+03  0.66104818060E+03  0.75374774995E+03  0.15294330000E+03 0.  0.
<mgrwt>
<rscale>  0 0.36214772E+03</rscale>
<asrwt>0</asrwt>
<pdfrwt beam="1">  1        2 0.14596406E+00 0.36214772E+03</pdfrwt>
<pdfrwt beam="2">  1       -2 0.28029360E-01 0.36214772E+03</pdfrwt>
<totfact> 0.32663696E+02</totfact>
</mgrwt>
</event>
<event>
 4    1  0.4639964E-008  0.8312949E+03  0.7818608E-02  0.9515792E-01
          2   -1    0    0  501    0  0.00000000000E+00  0.00000000000E+00  0.21054752160E+04  0.21054752160E+04  0.25500000000E-02 0. -1.
         -2   -1    0    0    0  501 -0.00000000000E+00 -0.00000000000E+00 -0.71223766140E+03  0.71223766140E+03  0.25500000000E-02 0.  1.
    8880022    1    1    2    0    0  0.81638892187E+03  0.34185326087E+02 -0.33788480442E+03  0.89733901194E+03  0.15294330000E+03 0.  0.
    8880022    1    1    2    0    0 -0.81638892187E+03 -0.34185326087E+02  0.17311223590E+04  0.19203738655E+04  0.15294330000E+03 0.  0.
<mgrwt>
<rscale>  0 0.83129487E+03</rscale>
<asrwt>0</asrwt>
<pdfrwt beam="1">  1        2 0.32391926E+00 0.83129487E+03</pdfrwt>
<pdfrwt beam="2">  1       -2 0.10957502E+00 0.83129487E+03</pdfrwt>
<totfact> 0.39672626E+00</totfact>
</mgrwt>
</event>
<event>
 4    1  0.4639964E-008  0.4244351E+03  0.7818608E-02  0.1035632E+00
          2   -1    0    0  501    0  0.00000000000E+00  0.00000000000E+00  0.24903024206E+04  0.24903024206E+04  0.25500000000E-02 0. -1.
         -2   -1    0    0    0  501 -0.00000000000E+00 -0.00000000000E+00 -0.24814845815E+03  0.24814845816E+03  0.25500000000E-02 0.  1.
    8880022    1    1    2    0    0 -0.39586734924E+03 -0.65193421554E+01 -0.31422450731E+02  0.42559662057E+03  0.15294330000E+03 0.  0.
    8880022    1    1    2    0    0  0.39586734924E+03  0.65193421554E+01  0.22735764132E+04  0.23128542582E+04  0.15294330000E+03 0.  0.
<mgrwt>
<rscale>  0 0.42443505E+03</rscale>
<asrwt>0</asrwt>
<pdfrwt beam="1">  1        2 0.38312345E+00 0.42443505E+03</pdfrwt>
<pdfrwt beam="2">  1       -2 0.38176686E-01 0.42443505E+03</pdfrwt>
<totfact> 0.25447833E+01</totfact>
</mgrwt>
</event>
<event>
 4    1  0.4639964E-008  0.2767398E+03  0.7818608E-02  0.1097483E+00
         -2   -1    0    0    0  501 -0.00000000000E+00  0.00000000000E+00  0.44375759444E+03  0.44375759445E+03  0.25500000000E-02 0.  1.
          2   -1    0    0  501    0  0.00000000000E+00 -0.00000000000E+00 -0.17874666862E+03  0.17874666863E+03  0.25500000000E-02 0. -1.
    8880022    1    1    2    0    0 -0.91440187743E+02 -0.21173552934E+03  0.19030477241E+03  0.33585830604E+03  0.15294330000E+03 0.  0.
    8880022    1    1    2    0    0  0.91440187743E+02  0.21173552934E+03  0.74706153420E+02  0.28664595705E+03  0.15294330000E+03 0.  1.
<mgrwt>
<rscale>  0 0.27673976E+03</rscale>
<asrwt>0</asrwt>
<pdfrwt beam="1">  1        2 0.27499487E-01 0.27673976E+03</pdfrwt>
<pdfrwt beam="2">  1       -2 0.68270399E-01 0.27673976E+03</pdfrwt>
<totfact> 0.39043882E+02</totfact>
</mgrwt>
</event>
<event>
 4    1  0.4639964E-008  0.1898424E+03  0.7818608E-02  0.1158604E+00
          2   -1    0    0  501    0  0.00000000000E+00  0.00000000000E+00  0.39673172727E+03  0.39673172728E+03  0.25500000000E-02 0. -1.
         -2   -1    0    0    0  501 -0.00000000000E+00 -0.00000000000E+00 -0.28773756317E+03  0.28773756319E+03  0.25500000000E-02 0.  1.
    8880022    1    1    2    0    0 -0.12968227029E+02  0.11171533754E+03 -0.22860494988E+03  0.29715377783E+03  0.15294330000E+03 0.  1.
    8880022    1    1    2    0    0  0.12968227029E+02 -0.11171533754E+03  0.33759911398E+03  0.38731551264E+03  0.15294330000E+03 0.  0.
<mgrwt>
<rscale>  0 0.18984242E+03</rscale>
<asrwt>0</asrwt>
<pdfrwt beam="1">  1        2 0.61035650E-01 0.18984242E+03</pdfrwt>
<pdfrwt beam="2">  1       -2 0.44267317E-01 0.18984242E+03</pdfrwt>
<totfact> 0.39750320E+02</totfact>
</mgrwt>
</event>
<event>
 4    1  0.4639964E-008  0.1148531E+04  0.7818608E-02  0.9159140E-01
          2   -1    0    0  501    0  0.00000000000E+00  0.00000000000E+00  0.11911584088E+04  0.11911584088E+04  0.25500000000E-02 0. -1.
         -2   -1    0    0    0  501 -0.00000000000E+00 -0.00000000000E+00 -0.18036110816E+04  0.18036110817E+04  0.25500000000E-02 0.  1.
    8880022    1    1    2    0    0 -0.49902579639E+03  0.10230858879E+04  0.62407455790E+03  0.13071312812E+04  0.15294330000E+03 0.  0.
    8880022    1    1    2    0    0  0.49902579639E+03 -0.10230858879E+04 -0.12365272308E+04  0.16876382092E+04  0.15294330000E+03 0.  0.
<mgrwt>
<rscale>  0 0.11485309E+04</rscale>
<asrwt>0</asrwt>
<pdfrwt beam="1">  1        2 0.18325514E+00 0.11485309E+04</pdfrwt>
<pdfrwt beam="2">  1       -2 0.27747863E+00 0.11485309E+04</pdfrwt>
<totfact> 0.82054262E-01</totfact>
</mgrwt>
</event>
<event>
 4    1  0.4639964E-008  0.2609423E+03  0.7818608E-02  0.1106578E+00
         -2   -1    0    0    0  501 -0.00000000000E+00  0.00000000000E+00  0.74757085065E+02  0.74757085109E+02  0.25500000000E-02 0.  1.
          2   -1    0    0  501    0  0.00000000000E+00 -0.00000000000E+00 -0.10595074620E+04  0.10595074620E+04  0.25500000000E-02 0. -1.
    8880022    1    1    2    0    0  0.34401129510E+02 -0.20860433878E+03 -0.27992478615E+03  0.38268622497E+03  0.15294330000E+03 0.  0.
    8880022    1    1    2    0    0 -0.34401129510E+02  0.20860433878E+03 -0.70482559077E+03  0.75157832212E+03  0.15294330000E+03 0.  0.
<mgrwt>
<rscale>  0 0.26094226E+03</rscale>
<asrwt>0</asrwt>
<pdfrwt beam="1">  1        2 0.16300114E+00 0.26094226E+03</pdfrwt>
<pdfrwt beam="2">  1       -2 0.11501091E-01 0.26094226E+03</pdfrwt>
<totfact> 0.12806820E+03</totfact>
</mgrwt>
</event>
<event>
 4    1  0.4639964E-008  0.7669987E+03  0.7818608E-02  0.9609053E-01
         -2   -1    0    0    0  501 -0.00000000000E+00  0.00000000000E+00  0.40105814511E+03  0.40105814512E+03  0.25500000000E-02 0.  1.
          2   -1    0    0  501    0  0.00000000000E+00 -0.00000000000E+00 -0.21945072858E+04  0.21945072858E+04  0.25500000000E-02 0. -1.
    8880022    1    1    2    0    0  0.73399736495E+03 -0.16168862768E+03 -0.16440344781E+04  0.18141489360E+04  0.15294330000E+03 0.  0.
    8880022    1    1    2    0    0 -0.73399736495E+03  0.16168862768E+03 -0.14941466266E+03  0.78141649490E+03  0.15294330000E+03 0.  0.
<mgrwt>
<rscale>  0 0.76699869E+03</rscale>
<asrwt>0</asrwt>
<pdfrwt beam="1">  1        2 0.33761650E+00 0.76699869E+03</pdfrwt>
<pdfrwt beam="2">  1       -2 0.61701254E-01 0.76699869E+03</pdfrwt>
<totfact> 0.13163642E+01</totfact>
</mgrwt>
</event>
<event>
 4    1  0.4639964E-008  0.4777683E+03  0.7818608E-02  0.1019750E+00
          2   -1    0    0  501    0  0.00000000000E+00  0.00000000000E+00  0.75664374272E+03  0.75664374273E+03  0.25500000000E-02 0. -1.
         -2   -1    0    0    0  501 -0.00000000000E+00 -0.00000000000E+00 -0.44302007978E+03  0.44302007979E+03  0.25500000000E-02 0.  1.
    8880022    1    1    2    0    0  0.28410181733E+02 -0.45173420778E+03 -0.18199641764E+03  0.51125852751E+03  0.15294330000E+03 0.  0.
    8880022    1    1    2    0    0 -0.28410181733E+02  0.45173420778E+03  0.49562008058E+03  0.68840529501E+03  0.15294330000E+03 0.  0.
<mgrwt>
<rscale>  0 0.47776834E+03</rscale>
<asrwt>0</asrwt>
<pdfrwt beam="1">  1        2 0.11640673E+00 0.47776834E+03</pdfrwt>
<pdfrwt beam="2">  1       -2 0.68156936E-01 0.47776834E+03</pdfrwt>
<totfact> 0.75731048E+01</totfact>
</mgrwt>
</event>
<event>
 4    1  0.4639964E-008  0.4504910E+03  0.7818608E-02  0.1027576E+00
          2   -1    0    0  501    0  0.00000000000E+00  0.00000000000E+00  0.18321774584E+04  0.18321774584E+04  0.25500000000E-02 0. -1.
         -2   -1    0    0    0  501 -0.00000000000E+00 -0.00000000000E+00 -0.19627089125E+03  0.19627089127E+03  0.25500000000E-02 0.  1.
    8880022    1    1    2    0    0  0.30249409689E+03  0.29672849077E+03  0.14873794036E+04  0.15541041211E+04  0.15294330000E+03 0.  0.
    8880022    1    1    2    0    0 -0.30249409689E+03 -0.29672849077E+03  0.14852716358E+03  0.47434422861E+03  0.15294330000E+03 0.  1.
<mgrwt>
<rscale>  0 0.45049099E+03</rscale>
<asrwt>0</asrwt>
<pdfrwt beam="1">  1        2 0.28187346E+00 0.45049099E+03</pdfrwt>
<pdfrwt beam="2">  1       -2 0.30195522E-01 0.45049099E+03</pdfrwt>
<totfact> 0.89357179E+01</totfact>
</mgrwt>
</event>
<event>
 4    1  0.4639964E-008  0.2926645E+03  0.7818608E-02  0.1088966E+00
         -2   -1    0    0    0  501 -0.00000000000E+00  0.00000000000E+00  0.19469723238E+03  0.19469723240E+03  0.25500000000E-02 0.  1.
          2   -1    0    0  501    0  0.00000000000E+00 -0.00000000000E+00 -0.24260108058E+04  0.24260108058E+04  0.25500000000E-02 0. -1.
    8880022    1    1    2    0    0  0.19245940206E+03 -0.15880876223E+03 -0.23012647432E+04  0.23197999732E+04  0.15294330000E+03 0. -1.
    8880022    1    1    2    0    0 -0.19245940206E+03  0.15880876223E+03  0.69951169794E+02  0.30090806498E+03  0.15294330000E+03 0.  0.
<mgrwt>
<rscale>  0 0.29266448E+03</rscale>
<asrwt>0</asrwt>
<pdfrwt beam="1">  1        2 0.37323241E+00 0.29266448E+03</pdfrwt>
<pdfrwt beam="2">  1       -2 0.29953422E-01 0.29266448E+03</pdfrwt>
<totfact> 0.45265184E+01</totfact>
</mgrwt>
</event>
<event>
 4    1  0.4639964E-008  0.9739646E+03  0.7818608E-02  0.9337570E-01
         -2   -1    0    0    0  501 -0.00000000000E+00  0.00000000000E+00  0.60875508538E+03  0.60875508538E+03  0.25500000000E-02 0.  1.
          2   -1    0    0  501    0  0.00000000000E+00 -0.00000000000E+00 -0.33895307048E+04  0.33895307048E+04  0.25500000000E-02 0. -1.
    8880022    1    1    2    0    0 -0.14264294159E+03 -0.95124567847E+03 -0.28598171534E+04  0.30211191889E+04  0.15294330000E+03 0.  0.
    8880022    1    1    2    0    0  0.14264294159E+03  0.95124567847E+03  0.79041533969E+02  0.97716660131E+03  0.15294330000E+03 0.  0.
<mgrwt>
<rscale>  0 0.97396458E+03</rscale>
<asrwt>0</asrwt>
<pdfrwt beam="1">  1        2 0.52146625E+00 0.97396458E+03</pdfrwt>
<pdfrwt beam="2">  1       -2 0.93654631E-01 0.97396458E+03</pdfrwt>
<totfact> 0.96698628E-01</totfact>
</mgrwt>
</event>
<event>
 4    1  0.4639964E-008  0.2669662E+03  0.7818608E-02  0.1103029E+00
         -2   -1    0    0    0  501 -0.00000000000E+00  0.00000000000E+00  0.30911518608E+03  0.30911518609E+03  0.25500000000E-02 0.  1.
          2   -1    0    0  501    0  0.00000000000E+00 -0.00000000000E+00 -0.48160323217E+03  0.48160323217E+03  0.25500000000E-02 0. -1.
    8880022    1    1    2    0    0  0.19361619019E+03 -0.10194156943E+03  0.19919779091E+03  0.33309266819E+03  0.15294330000E+03 0.  0.
    8880022    1    1    2    0    0 -0.19361619019E+03  0.10194156943E+03 -0.37168583701E+03  0.45762575007E+03  0.15294330000E+03 0. -1.
<mgrwt>
<rscale>  0 0.26696623E+03</rscale>
<asrwt>0</asrwt>
<pdfrwt beam="1">  1        2 0.74092805E-01 0.26696623E+03</pdfrwt>
<pdfrwt beam="2">  1       -2 0.47556182E-01 0.26696623E+03</pdfrwt>
<totfact> 0.27798491E+02</totfact>
</mgrwt>
</event>
<event>
 4    1  0.4639964E-008  0.6432243E+03  0.7818608E-02  0.9819577E-01
          2   -1    0    0  501    0  0.00000000000E+00  0.00000000000E+00  0.63858957749E+03  0.63858957750E+03  0.25500000000E-02 0. -1.
         -2   -1    0    0    0  501 -0.00000000000E+00 -0.00000000000E+00 -0.14735664420E+04  0.14735664420E+04  0.25500000000E-02 0.  1.
    8880022    1    1    2    0    0  0.22914813990E+02  0.62435629939E+03 -0.12080130030E+04  0.13685879386E+04  0.15294330000E+03 0.  0.
    8880022    1    1    2    0    0 -0.22914813990E+02 -0.62435629939E+03  0.37303613848E+03  0.74356808089E+03  0.15294330000E+03 0.  0.
<mgrwt>
<rscale>  0 0.64322432E+03</rscale>
<asrwt>0</asrwt>
<pdfrwt beam="1">  1        2 0.98244551E-01 0.64322432E+03</pdfrwt>
<pdfrwt beam="2">  1       -2 0.22670253E+00 0.64322432E+03</pdfrwt>
<totfact> 0.42911216E+00</totfact>
</mgrwt>
</event>
<event>
 4    1  0.4639964E-008  0.1445555E+04  0.7818608E-02  0.8921488E-01
          2   -1    0    0  501    0  0.00000000000E+00  0.00000000000E+00  0.10690244057E+04  0.10690244057E+04  0.25500000000E-02 0. -1.
         -2   -1    0    0    0  501 -0.00000000000E+00 -0.00000000000E+00 -0.20926115478E+04  0.20926115478E+04  0.25500000000E-02 0.  1.
    8880022    1    1    2    0    0 -0.62539115086E+03  0.12942658079E+04 -0.91760708197E+03  0.17122010638E+04  0.15294330000E+03 0.  0.
    8880022    1    1    2    0    0  0.62539115086E+03 -0.12942658079E+04 -0.10598006012E+03  0.14494348896E+04  0.15294330000E+03 0.  0.
<mgrwt>
<rscale>  0 0.14455552E+04</rscale>
<asrwt>0</asrwt>
<pdfrwt beam="1">  1        2 0.16446529E+00 0.14455552E+04</pdfrwt>
<pdfrwt beam="2">  1       -2 0.32194024E+00 0.14455552E+04</pdfrwt>
<totfact> 0.50525612E-01</totfact>
</mgrwt>
</event>
<event>
 4    1  0.4639964E-008  0.3376174E+03  0.7818608E-02  0.1067815E+00
         -2   -1    0    0    0  501 -0.00000000000E+00  0.00000000000E+00  0.33431694747E+03  0.33431694748E+03  0.25500000000E-02 0.  1.
          2   -1    0    0  501    0  0.00000000000E+00 -0.00000000000E+00 -0.70068470295E+03  0.70068470296E+03  0.25500000000E-02 0. -1.
    8880022    1    1    2    0    0  0.29334773831E+03  0.67386564980E+02  0.18761691456E+03  0.38624552341E+03  0.15294330000E+03 0.  0.
    8880022    1    1    2    0    0 -0.29334773831E+03 -0.67386564980E+02 -0.55398467004E+03  0.64875612703E+03  0.15294330000E+03 0.  1.
<mgrwt>
<rscale>  0 0.33761738E+03</rscale>
<asrwt>0</asrwt>
<pdfrwt beam="1">  1        2 0.10779765E+00 0.33761738E+03</pdfrwt>
<pdfrwt beam="2">  1       -2 0.51433377E-01 0.33761738E+03</pdfrwt>
<totfact> 0.15242030E+02</totfact>
</mgrwt>
</event>
<event>
 4    1  0.4639964E-008  0.9641894E+03  0.7818608E-02  0.9348717E-01
          2   -1    0    0  501    0  0.00000000000E+00  0.00000000000E+00  0.12432967240E+04  0.12432967240E+04  0.25500000000E-02 0. -1.
         -2   -1    0    0    0  501 -0.00000000000E+00 -0.00000000000E+00 -0.15309376918E+04  0.15309376918E+04  0.25500000000E-02 0.  1.
    8880022    1    1    2    0    0  0.95108096988E+03 -0.41406585301E+02 -0.11359547299E+04  0.14899846704E+04  0.15294330000E+03 0.  0.
    8880022    1    1    2    0    0 -0.95108096988E+03  0.41406585301E+02  0.84831376206E+03  0.12842497454E+04  0.15294330000E+03 0.  0.
<mgrwt>
<rscale>  0 0.96418938E+03</rscale>
<asrwt>0</asrwt>
<pdfrwt beam="1">  1        2 0.19127642E+00 0.96418938E+03</pdfrwt>
<pdfrwt beam="2">  1       -2 0.23552887E+00 0.96418938E+03</pdfrwt>
<totfact> 0.14098294E+00</totfact>
</mgrwt>
</event>
<event>
 4    1  0.4639964E-008  0.4299618E+03  0.7818608E-02  0.1033872E+00
         -2   -1    0    0    0  501 -0.00000000000E+00  0.00000000000E+00  0.60136066660E+03  0.60136066661E+03  0.25500000000E-02 0.  1.
          2   -1    0    0  501    0  0.00000000000E+00 -0.00000000000E+00 -0.11414535322E+04  0.11414535322E+04  0.25500000000E-02 0. -1.
    8880022    1    1    2    0    0 -0.14162216989E+03  0.37605670805E+03  0.47483148237E+03  0.64057167931E+03  0.15294330000E+03 0.  0.
    8880022    1    1    2    0    0  0.14162216989E+03 -0.37605670805E+03 -0.10149243479E+04  0.11022425195E+04  0.15294330000E+03 0.  0.
<mgrwt>
<rscale>  0 0.42996179E+03</rscale>
<asrwt>0</asrwt>
<pdfrwt beam="1">  1        2 0.17560824E+00 0.42996179E+03</pdfrwt>
<pdfrwt beam="2">  1       -2 0.92517026E-01 0.42996179E+03</pdfrwt>
<totfact> 0.21712788E+01</totfact>
</mgrwt>
</event>
<event>
 4    1  0.4639964E-008  0.2725403E+03  0.7818608E-02  0.1099834E+00
          2   -1    0    0  501    0  0.00000000000E+00  0.00000000000E+00  0.29405681217E+04  0.29405681217E+04  0.25500000000E-02 0. -1.
         -2   -1    0    0    0  501 -0.00000000000E+00 -0.00000000000E+00 -0.11457612154E+03  0.11457612156E+03  0.25500000000E-02 0.  1.
    8880022    1    1    2    0    0 -0.20746922987E+03  0.88561279992E+02  0.27617104796E+04  0.27751257643E+04  0.15294330000E+03 0.  0.
    8880022    1    1    2    0    0  0.20746922987E+03 -0.88561279992E+02  0.64281520588E+02  0.28001847897E+03  0.15294330000E+03 0.  1.
<mgrwt>
<rscale>  0 0.27254034E+03</rscale>
<asrwt>0</asrwt>
<pdfrwt beam="1">  1        2 0.45239514E+00 0.27254034E+03</pdfrwt>
<pdfrwt beam="2">  1       -2 0.17627094E-01 0.27254034E+03</pdfrwt>
<totfact> 0.59270995E+01</totfact>
</mgrwt>
</event>
<event>
 4    1  0.4639964E-008  0.7694764E+03  0.7818608E-02  0.9605281E-01
         -2   -1    0    0    0  501 -0.00000000000E+00  0.00000000000E+00  0.84888249907E+03  0.84888249908E+03  0.25500000000E-02 0.  1.
          2   -1    0    0  501    0  0.00000000000E+00 -0.00000000000E+00 -0.16256722590E+04  0.16256722590E+04  0.25500000000E-02 0. -1.
    8880022    1    1    2    0    0  0.48277010644E+03 -0.57934045303E+03 -0.13232951727E+04  0.15307527898E+04  0.15294330000E+03 0.  0.
    8880022    1    1    2    0    0 -0.48277010644E+03  0.57934045303E+03  0.54650541279E+03  0.94380196833E+03  0.15294330000E+03 0.  0.
<mgrwt>
<rscale>  0 0.76947644E+03</rscale>
<asrwt>0</asrwt>
<pdfrwt beam="1">  1        2 0.25010342E+00 0.76947644E+03</pdfrwt>
<pdfrwt beam="2">  1       -2 0.13059731E+00 0.76947644E+03</pdfrwt>
<totfact> 0.47473909E+00</totfact>
</mgrwt>
</event>
<event>
 4    1  0.4639964E-008  0.3615510E+03  0.7818608E-02  0.1057971E+00
          2   -1    0    0  501    0  0.00000000000E+00  0.00000000000E+00  0.18759471066E+04  0.18759471066E+04  0.25500000000E-02 0. -1.
         -2   -1    0    0    0  501 -0.00000000000E+00 -0.00000000000E+00 -0.12850275404E+03  0.12850275406E+03  0.25500000000E-02 0.  1.
    8880022    1    1    2    0    0 -0.31477543420E+03 -0.90795939400E+02  0.19565067581E+03  0.41109404830E+03  0.15294330000E+03 0.  0.
    8880022    1    1    2    0    0  0.31477543420E+03  0.90795939400E+02  0.15517936767E+04  0.15933558123E+04  0.15294330000E+03 0.  0.
<mgrwt>
<rscale>  0 0.36155101E+03</rscale>
<asrwt>0</asrwt>
<pdfrwt beam="1">  1        2 0.28860723E+00 0.36155101E+03</pdfrwt>
<pdfrwt beam="2">  1       -2 0.19769656E-01 0.36155101E+03</pdfrwt>
<totfact> 0.18289491E+02</totfact>
</mgrwt>
</event>
<event>
 4    1  0.4639964E-008  0.4064597E+03  0.7818608E-02  0.1041566E+00
         -2   -1    0    0    0  501 -0.00000000000E+00  0.00000000000E+00  0.21926389671E+03  0.21926389672E+03  0.25500000000E-02 0.  1.
          2   -1    0    0  501    0  0.00000000000E+00 -0.00000000000E+00 -0.17052584851E+04  0.17052584851E+04  0.25500000000E-02 0. -1.
    8880022    1    1    2    0    0 -0.25478846553E+03 -0.27730971177E+03 -0.14618953873E+04  0.15173488771E+04  0.15294330000E+03 0.  0.
    8880022    1    1    2    0    0  0.25478846553E+03  0.27730971177E+03 -0.24099201054E+02  0.40717350468E+03  0.15294330000E+03 0.  0.
<mgrwt>
<rscale>  0 0.40645970E+03</rscale>
<asrwt>0</asrwt>
<pdfrwt beam="1">  1        2 0.26234745E+00 0.40645970E+03</pdfrwt>
<pdfrwt beam="2">  1       -2 0.33732908E-01 0.40645970E+03</pdfrwt>
<totfact> 0.85729985E+01</totfact>
</mgrwt>
</event>
<event>
 4    1  0.4639964E-008  0.5255045E+03  0.7818608E-02  0.1007328E+00
         -2   -1    0    0    0  501 -0.00000000000E+00  0.00000000000E+00  0.15866960559E+04  0.15866960559E+04  0.25500000000E-02 0.  1.
          2   -1    0    0  501    0  0.00000000000E+00 -0.00000000000E+00 -0.35415834400E+03  0.35415834401E+03  0.25500000000E-02 0. -1.
    8880022    1    1    2    0    0 -0.50163148230E+03  0.33602825885E+02  0.13083202660E+04  0.14099137795E+04  0.15294330000E+03 0.  0.
    8880022    1    1    2    0    0  0.50163148230E+03 -0.33602825885E+02 -0.75782554126E+02  0.53094062047E+03  0.15294330000E+03 0.  0.
<mgrwt>
<rscale>  0 0.52550447E+03</rscale>
<asrwt>0</asrwt>
<pdfrwt beam="1">  1        2 0.54485899E-01 0.52550447E+03</pdfrwt>
<pdfrwt beam="2">  1       -2 0.24410709E+00 0.52550447E+03</pdfrwt>
<totfact> 0.67487605E+00</totfact>
</mgrwt>
</event>
<event>
 4    1  0.4639964E-008  0.6429540E+03  0.7818608E-02  0.9820091E-01
          2   -1    0    0  501    0  0.00000000000E+00  0.00000000000E+00  0.26763573673E+04  0.26763573673E+04  0.25500000000E-02 0. -1.
         -2   -1    0    0    0  501 -0.00000000000E+00 -0.00000000000E+00 -0.46067531493E+03  0.46067531494E+03  0.25500000000E-02 0.  1.
    8880022    1    1    2    0    0 -0.37133277107E+03 -0.50210575000E+03  0.23866483323E+04  0.24717362574E+04  0.15294330000E+03 0.  0.
    8880022    1    1    2    0    0  0.37133277107E+03  0.50210575000E+03 -0.17096627991E+03  0.66529642486E+03  0.15294330000E+03 0.  0.
<mgrwt>
<rscale>  0 0.64295401E+03</rscale>
<asrwt>0</asrwt>
<pdfrwt beam="1">  1        2 0.41174729E+00 0.64295401E+03</pdfrwt>
<pdfrwt beam="2">  1       -2 0.70873125E-01 0.64295401E+03</pdfrwt>
<totfact> 0.53495744E+00</totfact>
</mgrwt>
</event>
<event>
 4    1  0.4639964E-008  0.1037039E+04  0.7818608E-02  0.9268828E-01
          2   -1    0    0  501    0  0.00000000000E+00  0.00000000000E+00  0.33752919908E+04  0.33752919908E+04  0.25500000000E-02 0. -1.
         -2   -1    0    0    0  501 -0.00000000000E+00 -0.00000000000E+00 -0.36120931547E+03  0.36120931547E+03  0.25500000000E-02 0.  1.
    8880022    1    1    2    0    0  0.63906334294E+03  0.80228229653E+03  0.21485217571E+04  0.23857066528E+04  0.15294330000E+03 0.  0.
    8880022    1    1    2    0    0 -0.63906334294E+03 -0.80228229653E+03  0.86556091827E+03  0.13507946535E+04  0.15294330000E+03 0.  0.
<mgrwt>
<rscale>  0 0.10370393E+04</rscale>
<asrwt>0</asrwt>
<pdfrwt beam="1">  1        2 0.51927567E+00 0.10370393E+04</pdfrwt>
<pdfrwt beam="2">  1       -2 0.55570666E-01 0.10370393E+04</pdfrwt>
<totfact> 0.30979373E+00</totfact>
</mgrwt>
</event>
<event>
 4    1  0.4639964E-008  0.2969024E+03  0.7818608E-02  0.1086799E+00
          2   -1    0    0  501    0  0.00000000000E+00  0.00000000000E+00  0.93330820123E+03  0.93330820124E+03  0.25500000000E-02 0. -1.
         -2   -1    0    0    0  501 -0.00000000000E+00 -0.00000000000E+00 -0.22053747638E+03  0.22053747639E+03  0.25500000000E-02 0.  1.
    8880022    1    1    2    0    0  0.11214117950E+03  0.22843759273E+03 -0.79841470551E+02  0.30745030711E+03  0.15294330000E+03 0.  0.
    8880022    1    1    2    0    0 -0.11214117950E+03 -0.22843759273E+03  0.79261219541E+03  0.84639537052E+03  0.15294330000E+03 0.  0.
<mgrwt>
<rscale>  0 0.29690239E+03</rscale>
<asrwt>0</asrwt>
<pdfrwt beam="1">  1        2 0.14358588E+00 0.29690239E+03</pdfrwt>
<pdfrwt beam="2">  1       -2 0.33928842E-01 0.29690239E+03</pdfrwt>
<totfact> 0.23680962E+02</totfact>
</mgrwt>
</event>
<event>
 4    1  0.4639964E-008  0.3746127E+03  0.7818608E-02  0.1052943E+00
          2   -1    0    0  501    0  0.00000000000E+00  0.00000000000E+00  0.39836926665E+04  0.39836926665E+04  0.25500000000E-02 0. -1.
         -2   -1    0    0    0  501 -0.00000000000E+00 -0.00000000000E+00 -0.53710627942E+02  0.53710628003E+02  0.25500000000E-02 0.  1.
    8880022    1    1    2    0    0 -0.31160389691E+03  0.14087598489E+03  0.78077137638E+03  0.86598996927E+03  0.15294330000E+03 0.  1.
    8880022    1    1    2    0    0  0.31160389691E+03 -0.14087598489E+03  0.31492106621E+04  0.31714133252E+04  0.15294330000E+03 0. -1.
<mgrwt>
<rscale>  0 0.37461271E+03</rscale>
<asrwt>0</asrwt>
<pdfrwt beam="1">  1        2 0.61287589E+00 0.37461271E+03</pdfrwt>
<pdfrwt beam="2">  1       -2 0.82631722E-02 0.37461271E+03</pdfrwt>
<totfact> 0.39693216E+01</totfact>
</mgrwt>
</event>
<event>
 4    1  0.4639964E-008  0.2487230E+03  0.7818608E-02  0.1114114E+00
          2   -1    0    0  501    0  0.00000000000E+00  0.00000000000E+00  0.16129441899E+04  0.16129441899E+04  0.25500000000E-02 0. -1.
         -2   -1    0    0    0  501 -0.00000000000E+00 -0.00000000000E+00 -0.43571908371E+02  0.43571908446E+02  0.25500000000E-02 0.  1.
    8880022    1    1    2    0    0 -0.18848639454E+03  0.54262082180E+02  0.49806830025E+03  0.55671822246E+03  0.15294330000E+03 0. -1.
    8880022    1    1    2    0    0  0.18848639454E+03 -0.54262082180E+02  0.10713039813E+04  0.10997978759E+04  0.15294330000E+03 0.  0.
<mgrwt>
<rscale>  0 0.24872303E+03</rscale>
<asrwt>0</asrwt>
<pdfrwt beam="1">  1        2 0.24814519E+00 0.24872303E+03</pdfrwt>
<pdfrwt beam="2">  1       -2 0.67033724E-02 0.24872303E+03</pdfrwt>
<totfact> 0.14833003E+03</totfact>
</mgrwt>
</event>
<event>
 4    1  0.4639964E-008  0.3137313E+03  0.7818608E-02  0.1078571E+00
         -2   -1    0    0    0  501 -0.00000000000E+00  0.00000000000E+00  0.17437772418E+03  0.17437772420E+03  0.25500000000E-02 0.  1.
          2   -1    0    0  501    0  0.00000000000E+00 -0.00000000000E+00 -0.16212952751E+04  0.16212952751E+04  0.25500000000E-02 0. -1.
    8880022    1    1    2    0    0  0.19087094926E+03 -0.19647892928E+03  0.14312053139E+01  0.31373458574E+03  0.15294330000E+03 0.  0.
    8880022    1    1    2    0    0 -0.19087094926E+03  0.19647892928E+03 -0.14483487563E+04  0.14819384136E+04  0.15294330000E+03 0. -1.
<mgrwt>
<rscale>  0 0.31373132E+03</rscale>
<asrwt>0</asrwt>
<pdfrwt beam="1">  1        2 0.24943003E+00 0.31373132E+03</pdfrwt>
<pdfrwt beam="2">  1       -2 0.26827343E-01 0.31373132E+03</pdfrwt>
<totfact> 0.14734223E+02</totfact>
</mgrwt>
</event>
<event>
 4    1  0.4639964E-008  0.5814082E+03  0.7818608E-02  0.9944747E-01
         -2   -1    0    0    0  501 -0.00000000000E+00  0.00000000000E+00  0.21923215891E+03  0.21923215893E+03  0.25500000000E-02 0.  1.
          2   -1    0    0  501    0  0.00000000000E+00 -0.00000000000E+00 -0.33321888353E+04  0.33321888353E+04  0.25500000000E-02 0. -1.
    8880022    1    1    2    0    0  0.54867003685E+02  0.55824141432E+03 -0.25490660601E+03  0.63483296666E+03  0.15294330000E+03 0.  0.
    8880022    1    1    2    0    0 -0.54867003685E+02 -0.55824141432E+03 -0.28580500704E+04  0.29165880276E+04  0.15294330000E+03 0.  0.
<mgrwt>
<rscale>  0 0.58140822E+03</rscale>
<asrwt>0</asrwt>
<pdfrwt beam="1">  1        2 0.51264440E+00 0.58140822E+03</pdfrwt>
<pdfrwt beam="2">  1       -2 0.33728027E-01 0.58140822E+03</pdfrwt>
<totfact> 0.97072120E+00</totfact>
</mgrwt>
</event>
<event>
 4    1  0.4639964E-008  0.2961951E+03  0.7818608E-02  0.1087158E+00
         -2   -1    0    0    0  501 -0.00000000000E+00  0.00000000000E+00  0.30385758693E+03  0.30385758694E+03  0.25500000000E-02 0.  1.
          2   -1    0    0  501    0  0.00000000000E+00 -0.00000000000E+00 -0.12984249694E+04  0.12984249694E+04  0.25500000000E-02 0. -1.
    8880022    1    1    2    0    0 -0.84336678713E+02  0.23922206240E+03  0.20919111688E+03  0.36261887280E+03  0.15294330000E+03 0.  1.
    8880022    1    1    2    0    0  0.84336678713E+02 -0.23922206240E+03 -0.12037584993E+04  0.12396636835E+04  0.15294330000E+03 0.  0.
<mgrwt>
<rscale>  0 0.29619508E+03</rscale>
<asrwt>0</asrwt>
<pdfrwt beam="1">  1        2 0.19975768E+00 0.29619508E+03</pdfrwt>
<pdfrwt beam="2">  1       -2 0.46747322E-01 0.29619508E+03</pdfrwt>
<totfact> 0.77861730E+01</totfact>
</mgrwt>
</event>
<event>
 4    1  0.4639964E-008  0.6392960E+03  0.7818608E-02  0.9827074E-01
         -2   -1    0    0    0  501 -0.00000000000E+00  0.00000000000E+00  0.49756339009E+03  0.49756339010E+03  0.25500000000E-02 0.  1.
          2   -1    0    0  501    0  0.00000000000E+00 -0.00000000000E+00 -0.12418607467E+04  0.12418607468E+04  0.25500000000E-02 0. -1.
    8880022    1    1    2    0    0  0.55265700183E+03 -0.28262699245E+03  0.13391000306E+03  0.65317020788E+03  0.15294330000E+03 0.  0.
    8880022    1    1    2    0    0 -0.55265700183E+03  0.28262699245E+03 -0.87820735972E+03  0.10862539290E+04  0.15294330000E+03 0.  0.
<mgrwt>
<rscale>  0 0.63929604E+03</rscale>
<asrwt>0</asrwt>
<pdfrwt beam="1">  1        2 0.19105550E+00 0.63929604E+03</pdfrwt>
<pdfrwt beam="2">  1       -2 0.76548214E-01 0.63929604E+03</pdfrwt>
<totfact> 0.28177518E+01</totfact>
</mgrwt>
</event>
<event>
 4    1  0.4639964E-008  0.4974162E+03  0.7818608E-02  0.1014456E+00
         -2   -1    0    0    0  501 -0.00000000000E+00  0.00000000000E+00  0.48516295103E+03  0.48516295103E+03  0.25500000000E-02 0.  1.
          2   -1    0    0  501    0  0.00000000000E+00 -0.00000000000E+00 -0.14396374839E+04  0.14396374839E+04  0.25500000000E-02 0. -1.
    8880022    1    1    2    0    0  0.47256873083E+03 -0.26645455343E+02  0.29613909852E+03  0.57889654027E+03  0.15294330000E+03 0.  1.
    8880022    1    1    2    0    0 -0.47256873083E+03  0.26645455343E+02 -0.12506136314E+04  0.13459038947E+04  0.15294330000E+03 0.  0.
<mgrwt>
<rscale>  0 0.49741616E+03</rscale>
<asrwt>0</asrwt>
<pdfrwt beam="1">  1        2 0.22148269E+00 0.49741616E+03</pdfrwt>
<pdfrwt beam="2">  1       -2 0.74640455E-01 0.49741616E+03</pdfrwt>
<totfact> 0.23514509E+01</totfact>
</mgrwt>
</event>
<event>
 4    1  0.4639964E-008  0.7357140E+03  0.7818608E-02  0.9658033E-01
          2   -1    0    0  501    0  0.00000000000E+00  0.00000000000E+00  0.92160096596E+03  0.92160096597E+03  0.25500000000E-02 0. -1.
         -2   -1    0    0    0  501 -0.00000000000E+00 -0.00000000000E+00 -0.64405419863E+03  0.64405419863E+03  0.25500000000E-02 0.  1.
    8880022    1    1    2    0    0  0.37223702577E+03  0.61589210424E+03  0.37111417212E+03  0.82401509039E+03  0.15294330000E+03 0.  0.
    8880022    1    1    2    0    0 -0.37223702577E+03 -0.61589210424E+03 -0.93567404789E+02  0.74164007421E+03  0.15294330000E+03 0.  0.
<mgrwt>
<rscale>  0 0.73571403E+03</rscale>
<asrwt>0</asrwt>
<pdfrwt beam="1">  1        2 0.14178476E+00 0.73571403E+03</pdfrwt>
<pdfrwt beam="2">  1       -2 0.99085262E-01 0.73571403E+03</pdfrwt>
<totfact> 0.24341746E+01</totfact>
</mgrwt>
</event>
<event>
 4    1  0.4639964E-008  0.2331177E+03  0.7818608E-02  0.1124464E+00
          2   -1    0    0  501    0  0.00000000000E+00  0.00000000000E+00  0.61486391207E+03  0.61486391207E+03  0.25500000000E-02 0. -1.
         -2   -1    0    0    0  501 -0.00000000000E+00 -0.00000000000E+00 -0.43270847125E+03  0.43270847126E+03  0.25500000000E-02 0.  1.
    8880022    1    1    2    0    0 -0.16653371436E+03  0.56733979689E+02 -0.37616285928E+03  0.44254081415E+03  0.15294330000E+03 0.  0.
    8880022    1    1    2    0    0  0.16653371436E+03 -0.56733979689E+02  0.55831830010E+03  0.60503156918E+03  0.15294330000E+03 0. -1.
<mgrwt>
<rscale>  0 0.23311773E+03</rscale>
<asrwt>0</asrwt>
<pdfrwt beam="1">  1        2 0.94594447E-01 0.23311773E+03</pdfrwt>
<pdfrwt beam="2">  1       -2 0.66570534E-01 0.23311773E+03</pdfrwt>
<totfact> 0.10600197E+02</totfact>
</mgrwt>
</event>
<event>
 4    1  0.4639964E-008  0.6386189E+03  0.7818608E-02  0.9828372E-01
          2   -1    0    0  501    0  0.00000000000E+00  0.00000000000E+00  0.23289867205E+04  0.23289867205E+04  0.25500000000E-02 0. -1.
         -2   -1    0    0    0  501 -0.00000000000E+00 -0.00000000000E+00 -0.22845052631E+03  0.22845052632E+03  0.25500000000E-02 0.  1.
    8880022    1    1    2    0    0 -0.27227507134E+03  0.55705367033E+03  0.43239639923E+03  0.77123330140E+03  0.15294330000E+03 0.  0.
    8880022    1    1    2    0    0  0.27227507134E+03 -0.55705367033E+03  0.16681397950E+04  0.17862039454E+04  0.15294330000E+03 0.  0.
<mgrwt>
<rscale>  0 0.63861895E+03</rscale>
<asrwt>0</asrwt>
<pdfrwt beam="1">  1        2 0.35830567E+00 0.63861895E+03</pdfrwt>
<pdfrwt beam="2">  1       -2 0.35146233E-01 0.63861895E+03</pdfrwt>
<totfact> 0.35029405E+01</totfact>
</mgrwt>
</event>
<event>
 4    1  0.4639964E-008  0.3189573E+03  0.7818608E-02  0.1076130E+00
          2   -1    0    0  501    0  0.00000000000E+00  0.00000000000E+00  0.22310717678E+04  0.22310717678E+04  0.25500000000E-02 0. -1.
         -2   -1    0    0    0  501 -0.00000000000E+00 -0.00000000000E+00 -0.17373667838E+03  0.17373667840E+03  0.25500000000E-02 0.  1.
    8880022    1    1    2    0    0  0.24954996418E+03  0.12675548189E+03  0.20612953341E+04  0.20858265135E+04  0.15294330000E+03 0.  0.
    8880022    1    1    2    0    0 -0.24954996418E+03 -0.12675548189E+03 -0.39602447697E+01  0.31898193267E+03  0.15294330000E+03 0.  0.
<mgrwt>
<rscale>  0 0.31895735E+03</rscale>
<asrwt>0</asrwt>
<pdfrwt beam="1">  1        2 0.34324181E+00 0.31895735E+03</pdfrwt>
<pdfrwt beam="2">  1       -2 0.26728720E-01 0.31895735E+03</pdfrwt>
<totfact> 0.70308560E+01</totfact>
</mgrwt>
</event>
<event>
 4    1  0.4639964E-008  0.2645821E+03  0.7818608E-02  0.1104421E+00
         -2   -1    0    0    0  501 -0.00000000000E+00  0.00000000000E+00  0.18776329427E+03  0.18776329429E+03  0.25500000000E-02 0.  1.
          2   -1    0    0  501    0  0.00000000000E+00 -0.00000000000E+00 -0.13711712743E+04  0.13711712743E+04  0.25500000000E-02 0. -1.
    8880022    1    1    2    0    0  0.21533109252E+03  0.15637884875E+02  0.73403261527E+02  0.27457551724E+03  0.15294330000E+03 0.  1.
    8880022    1    1    2    0    0 -0.21533109252E+03 -0.15637884875E+02 -0.12568112416E+04  0.12843590514E+04  0.15294330000E+03 0.  0.
<mgrwt>
<rscale>  0 0.26458208E+03</rscale>
<asrwt>0</asrwt>
<pdfrwt beam="1">  1        2 0.21094942E+00 0.26458208E+03</pdfrwt>
<pdfrwt beam="2">  1       -2 0.28886661E-01 0.26458208E+03</pdfrwt>
<totfact> 0.17761995E+02</totfact>
</mgrwt>
</event>
<event>
 4    1  0.4639964E-008  0.1060172E+04  0.7818608E-02  0.9244905E-01
         -2   -1    0    0    0  501 -0.00000000000E+00  0.00000000000E+00  0.85610004494E+03  0.85610004494E+03  0.25500000000E-02 0.  1.
          2   -1    0    0  501    0  0.00000000000E+00 -0.00000000000E+00 -0.26439436429E+04  0.26439436429E+04  0.25500000000E-02 0. -1.
    8880022    1    1    2    0    0  0.96918700100E+03  0.40155834706E+03 -0.21356179641E+04  0.23842877953E+04  0.15294330000E+03 0.  0.
    8880022    1    1    2    0    0 -0.96918700100E+03 -0.40155834706E+03  0.34777436617E+03  0.11157558926E+04  0.15294330000E+03 0.  0.
<mgrwt>
<rscale>  0 0.10601718E+04</rscale>
<asrwt>0</asrwt>
<pdfrwt beam="1">  1        2 0.40676056E+00 0.10601718E+04</pdfrwt>
<pdfrwt beam="2">  1       -2 0.13170770E+00 0.10601718E+04</pdfrwt>
<totfact> 0.12047475E+00</totfact>
</mgrwt>
</event>
<event>
 4    1  0.4639964E-008  0.1030495E+04  0.7818608E-02  0.9275717E-01
          2   -1    0    0  501    0  0.00000000000E+00  0.00000000000E+00  0.30092822748E+04  0.30092822748E+04  0.25500000000E-02 0. -1.
         -2   -1    0    0    0  501 -0.00000000000E+00 -0.00000000000E+00 -0.88358536745E+03  0.88358536745E+03  0.25500000000E-02 0.  1.
    8880022    1    1    2    0    0 -0.79260069543E+03 -0.64055640311E+03  0.25713352527E+04  0.27701416936E+04  0.15294330000E+03 0.  0.
    8880022    1    1    2    0    0  0.79260069543E+03  0.64055640311E+03 -0.44563834532E+03  0.11227259487E+04  0.15294330000E+03 0.  0.
<mgrwt>
<rscale>  0 0.10304950E+04</rscale>
<asrwt>0</asrwt>
<pdfrwt beam="1">  1        2 0.46296650E+00 0.10304950E+04</pdfrwt>
<pdfrwt beam="2">  1       -2 0.13593621E+00 0.10304950E+04</pdfrwt>
<totfact> 0.67394759E-01</totfact>
</mgrwt>
</event>
<event>
 4    1  0.4639964E-008  0.7757639E+03  0.7818608E-02  0.9595776E-01
          2   -1    0    0  501    0  0.00000000000E+00  0.00000000000E+00  0.84646040597E+03  0.84646040597E+03  0.25500000000E-02 0. -1.
         -2   -1    0    0    0  501 -0.00000000000E+00 -0.00000000000E+00 -0.16320960473E+04  0.16320960473E+04  0.25500000000E-02 0.  1.
    8880022    1    1    2    0    0  0.27065654454E+03  0.71074822547E+03  0.53819362526E+03  0.94417267298E+03  0.15294330000E+03 0.  0.
    8880022    1    1    2    0    0 -0.27065654454E+03 -0.71074822547E+03 -0.13238292666E+04  0.15343837803E+04  0.15294330000E+03 0.  0.
<mgrwt>
<rscale>  0 0.77576392E+03</rscale>
<asrwt>0</asrwt>
<pdfrwt beam="1">  1        2 0.13022468E+00 0.77576392E+03</pdfrwt>
<pdfrwt beam="2">  1       -2 0.25109170E+00 0.77576392E+03</pdfrwt>
<totfact> 0.20768734E+00</totfact>
</mgrwt>
</event>
<event>
 4    1  0.4639964E-008  0.7189803E+03  0.7818608E-02  0.9685313E-01
         -2   -1    0    0    0  501 -0.00000000000E+00  0.00000000000E+00  0.35504580948E+03  0.35504580949E+03  0.25500000000E-02 0.  1.
          2   -1    0    0  501    0  0.00000000000E+00 -0.00000000000E+00 -0.23972950283E+04  0.23972950283E+04  0.25500000000E-02 0. -1.
    8880022    1    1    2    0    0  0.66048573144E+03  0.23937324540E+03 -0.15877471314E+03  0.73630293670E+03  0.15294330000E+03 0.  0.
    8880022    1    1    2    0    0 -0.66048573144E+03 -0.23937324540E+03 -0.18834745057E+04  0.20160379011E+04  0.15294330000E+03 0.  0.
<mgrwt>
<rscale>  0 0.71898025E+03</rscale>
<asrwt>0</asrwt>
<pdfrwt beam="1">  1        2 0.36881461E+00 0.71898025E+03</pdfrwt>
<pdfrwt beam="2">  1       -2 0.54622434E-01 0.71898025E+03</pdfrwt>
<totfact> 0.13213586E+01</totfact>
</mgrwt>
</event>
<event>
 4    1  0.4639964E-008  0.2079007E+03  0.7818608E-02  0.1143239E+00
          2   -1    0    0  501    0  0.00000000000E+00  0.00000000000E+00  0.13605722051E+04  0.13605722051E+04  0.25500000000E-02 0. -1.
         -2   -1    0    0    0  501 -0.00000000000E+00 -0.00000000000E+00 -0.14538336401E+03  0.14538336403E+03  0.25500000000E-02 0.  1.
    8880022    1    1    2    0    0 -0.61805019413E+02 -0.12653533400E+03  0.12732403389E+04  0.12901021916E+04  0.15294330000E+03 0.  0.
    8880022    1    1    2    0    0  0.61805019413E+02  0.12653533400E+03 -0.58051497816E+02  0.21585337752E+03  0.15294330000E+03 0.  1.
<mgrwt>
<rscale>  0 0.20790071E+03</rscale>
<asrwt>0</asrwt>
<pdfrwt beam="1">  1        2 0.20931880E+00 0.20790071E+03</pdfrwt>
<pdfrwt beam="2">  1       -2 0.22366671E-01 0.20790071E+03</pdfrwt>
<totfact> 0.28654057E+02</totfact>
</mgrwt>
</event>
<event>
 4    1  0.4639964E-008  0.1207618E+04  0.7818608E-02  0.9106215E-01
         -2   -1    0    0    0  501 -0.00000000000E+00  0.00000000000E+00  0.10481003628E+04  0.10481003628E+04  0.25500000000E-02 0.  1.
          2   -1    0    0  501    0  0.00000000000E+00 -0.00000000000E+00 -0.21490111317E+04  0.21490111317E+04  0.25500000000E-02 0. -1.
    8880022    1    1    2    0    0  0.11872322459E+04 -0.15946212247E+03 -0.14995903386E+04  0.19253860420E+04  0.15294330000E+03 0.  0.
    8880022    1    1    2    0    0 -0.11872322459E+04  0.15946212247E+03  0.39867956979E+03  0.12717254525E+04  0.15294330000E+03 0.  0.
<mgrwt>
<rscale>  0 0.12076176E+04</rscale>
<asrwt>0</asrwt>
<pdfrwt beam="1">  1        2 0.33061710E+00 0.12076176E+04</pdfrwt>
<pdfrwt beam="2">  1       -2 0.16124621E+00 0.12076176E+04</pdfrwt>
<totfact> 0.13231622E+00</totfact>
</mgrwt>
</event>
<event>
 4    1  0.4639964E-008  0.2725653E+03  0.7818608E-02  0.1099820E+00
          2   -1    0    0  501    0  0.00000000000E+00  0.00000000000E+00  0.54518492120E+03  0.54518492121E+03  0.25500000000E-02 0. -1.
         -2   -1    0    0    0  501 -0.00000000000E+00 -0.00000000000E+00 -0.76968775008E+03  0.76968775009E+03  0.25500000000E-02 0.  1.
    8880022    1    1    2    0    0  0.22548177827E+03 -0.76262554603E+01 -0.70865719980E+03  0.75926732575E+03  0.15294330000E+03 0.  0.
    8880022    1    1    2    0    0 -0.22548177827E+03  0.76262554603E+01  0.48415437092E+03  0.55560534555E+03  0.15294330000E+03 0.  0.
<mgrwt>
<rscale>  0 0.27256530E+03</rscale>
<asrwt>0</asrwt>
<pdfrwt beam="1">  1        2 0.83874603E-01 0.27256530E+03</pdfrwt>
<pdfrwt beam="2">  1       -2 0.11841350E+00 0.27256530E+03</pdfrwt>
<totfact> 0.32781278E+01</totfact>
</mgrwt>
</event>
<event>
 4    1  0.4639964E-008  0.2984774E+03  0.7818608E-02  0.1086004E+00
         -2   -1    0    0    0  501 -0.00000000000E+00  0.00000000000E+00  0.34480434802E+03  0.34480434803E+03  0.25500000000E-02 0.  1.
          2   -1    0    0  501    0  0.00000000000E+00 -0.00000000000E+00 -0.13672493048E+04  0.13672493048E+04  0.25500000000E-02 0. -1.
    8880022    1    1    2    0    0 -0.35820728241E+02  0.25379905360E+03  0.25968938376E+03  0.39563532860E+03  0.15294330000E+03 0.  0.
    8880022    1    1    2    0    0  0.35820728241E+02 -0.25379905360E+03 -0.12821343405E+04  0.13164183242E+04  0.15294330000E+03 0.  0.
<mgrwt>
<rscale>  0 0.29847736E+03</rscale>
<asrwt>0</asrwt>
<pdfrwt beam="1">  1        2 0.21034604E+00 0.29847736E+03</pdfrwt>
<pdfrwt beam="2">  1       -2 0.53046823E-01 0.29847736E+03</pdfrwt>
<totfact> 0.55329396E+01</totfact>
</mgrwt>
</event>
<event>
 4    1  0.4639964E-008  0.2891976E+03  0.7818608E-02  0.1090769E+00
          2   -1    0    0  501    0  0.00000000000E+00  0.00000000000E+00  0.16883054536E+04  0.16883054536E+04  0.25500000000E-02 0. -1.
         -2   -1    0    0    0  501 -0.00000000000E+00 -0.00000000000E+00 -0.39843859959E+03  0.39843859960E+03  0.25500000000E-02 0.  1.
    8880022    1    1    2    0    0 -0.16946050165E+03 -0.17755777831E+03  0.16212919976E+04  0.16468828194E+04  0.15294330000E+03 0.  0.
    8880022    1    1    2    0    0  0.16946050165E+03  0.17755777831E+03 -0.33142514355E+03  0.43986123386E+03  0.15294330000E+03 0.  0.
<mgrwt>
<rscale>  0 0.28919765E+03</rscale>
<asrwt>0</asrwt>
<pdfrwt beam="1">  1        2 0.25973930E+00 0.28919765E+03</pdfrwt>
<pdfrwt beam="2">  1       -2 0.61298246E-01 0.28919765E+03</pdfrwt>
<totfact> 0.27685692E+01</totfact>
</mgrwt>
</event>
<event>
 4    1  0.4639964E-008  0.5766359E+03  0.7818608E-02  0.9955101E-01
         -2   -1    0    0    0  501 -0.00000000000E+00  0.00000000000E+00  0.53386712846E+03  0.53386712847E+03  0.25500000000E-02 0.  1.
          2   -1    0    0  501    0  0.00000000000E+00 -0.00000000000E+00 -0.21968756750E+04  0.21968756750E+04  0.25500000000E-02 0. -1.
    8880022    1    1    2    0    0  0.23032271477E+03 -0.50603230943E+03  0.32422633015E+03  0.66153731361E+03  0.15294330000E+03 0.  0.
    8880022    1    1    2    0    0 -0.23032271477E+03  0.50603230943E+03 -0.19872348767E+04  0.20692054899E+04  0.15294330000E+03 0.  0.
<mgrwt>
<rscale>  0 0.57663585E+03</rscale>
<asrwt>0</asrwt>
<pdfrwt beam="1">  1        2 0.33798087E+00 0.57663585E+03</pdfrwt>
<pdfrwt beam="2">  1       -2 0.82133406E-01 0.57663585E+03</pdfrwt>
<totfact> 0.72621798E+00</totfact>
</mgrwt>
</event>
<event>
 4    1  0.4639964E-008  0.1984234E+03  0.7818608E-02  0.1151076E+00
          2   -1    0    0  501    0  0.00000000000E+00  0.00000000000E+00  0.32184910452E+04  0.32184910452E+04  0.25500000000E-02 0. -1.
         -2   -1    0    0    0  501 -0.00000000000E+00 -0.00000000000E+00 -0.49385812727E+03  0.49385812728E+03  0.25500000000E-02 0.  1.
    8880022    1    1    2    0    0 -0.58194440463E+02 -0.11222127446E+03 -0.47072496601E+03  0.51083642585E+03  0.15294330000E+03 0.  0.
    8880022    1    1    2    0    0  0.58194440463E+02  0.11222127446E+03  0.31953578840E+04  0.32015127466E+04  0.15294330000E+03 0. -1.
<mgrwt>
<rscale>  0 0.19842344E+03</rscale>
<asrwt>0</asrwt>
<pdfrwt beam="1">  1        2 0.49515249E+00 0.19842344E+03</pdfrwt>
<pdfrwt beam="2">  1       -2 0.75978170E-01 0.19842344E+03</pdfrwt>
<totfact> 0.26372445E+00</totfact>
</mgrwt>
</event>
<event>
 4    1  0.4639964E-008  0.3639176E+03  0.7818608E-02  0.1057043E+00
          2   -1    0    0  501    0  0.00000000000E+00  0.00000000000E+00  0.53802413103E+03  0.53802413104E+03  0.25500000000E-02 0. -1.
         -2   -1    0    0    0  501 -0.00000000000E+00 -0.00000000000E+00 -0.42836562574E+03  0.42836562574E+03  0.25500000000E-02 0.  1.
    8880022    1    1    2    0    0  0.32725934886E+03  0.44110106499E+02 -0.26031161885E+03  0.44743510684E+03  0.15294330000E+03 0.  0.
    8880022    1    1    2    0    0 -0.32725934886E+03 -0.44110106499E+02  0.36997012415E+03  0.51895464993E+03  0.15294330000E+03 0.  0.
<mgrwt>
<rscale>  0 0.36391762E+03</rscale>
<asrwt>0</asrwt>
<pdfrwt beam="1">  1        2 0.82772943E-01 0.36391762E+03</pdfrwt>
<pdfrwt beam="2">  1       -2 0.65902404E-01 0.36391762E+03</pdfrwt>
<totfact> 0.12434277E+02</totfact>
</mgrwt>
</event>
<event>
 4    1  0.4639964E-008  0.3765005E+03  0.7818608E-02  0.1052235E+00
         -2   -1    0    0    0  501 -0.00000000000E+00  0.00000000000E+00  0.85841236069E+02  0.85841236107E+02  0.25500000000E-02 0.  1.
          2   -1    0    0  501    0  0.00000000000E+00 -0.00000000000E+00 -0.30940136520E+04  0.30940136520E+04  0.25500000000E-02 0. -1.
    8880022    1    1    2    0    0 -0.28648780426E+03 -0.19048813651E+03 -0.25897640705E+04  0.26169888395E+04  0.15294330000E+03 0. -1.
    8880022    1    1    2    0    0  0.28648780426E+03  0.19048813651E+03 -0.41840834541E+03  0.56286604860E+03  0.15294330000E+03 0.  0.
<mgrwt>
<rscale>  0 0.37650052E+03</rscale>
<asrwt>0</asrwt>
<pdfrwt beam="1">  1        2 0.47600201E+00 0.37650052E+03</pdfrwt>
<pdfrwt beam="2">  1       -2 0.13206346E-01 0.37650052E+03</pdfrwt>
<totfact> 0.75006235E+01</totfact>
</mgrwt>
</event>
<event>
 4    1  0.4639964E-008  0.3141555E+03  0.7818608E-02  0.1078371E+00
         -2   -1    0    0    0  501 -0.00000000000E+00  0.00000000000E+00  0.14127067480E+03  0.14127067482E+03  0.25500000000E-02 0.  1.
          2   -1    0    0  501    0  0.00000000000E+00 -0.00000000000E+00 -0.10512158954E+04  0.10512158954E+04  0.25500000000E-02 0. -1.
    8880022    1    1    2    0    0  0.26415372509E+03  0.74329282107E+02 -0.80029107369E+03  0.85974385040E+03  0.15294330000E+03 0.  0.
    8880022    1    1    2    0    0 -0.26415372509E+03 -0.74329282107E+02 -0.10965414693E+03  0.33274271985E+03  0.15294330000E+03 0. -1.
<mgrwt>
<rscale>  0 0.31415551E+03</rscale>
<asrwt>0</asrwt>
<pdfrwt beam="1">  1        2 0.16172552E+00 0.31415551E+03</pdfrwt>
<pdfrwt beam="2">  1       -2 0.21733951E-01 0.31415551E+03</pdfrwt>
<totfact> 0.44524351E+02</totfact>
</mgrwt>
</event>
<event>
 4    1  0.4639964E-008  0.1964345E+03  0.7818608E-02  0.1152783E+00
         -2   -1    0    0    0  501 -0.00000000000E+00  0.00000000000E+00  0.89840776790E+03  0.89840776790E+03  0.25500000000E-02 0.  1.
          2   -1    0    0  501    0  0.00000000000E+00 -0.00000000000E+00 -0.24590950506E+04  0.24590950506E+04  0.25500000000E-02 0. -1.
    8880022    1    1    2    0    0 -0.10954366027E+03  0.56524772149E+02  0.88368287949E+03  0.90525242220E+03  0.15294330000E+03 0.  0.
    8880022    1    1    2    0    0  0.10954366027E+03 -0.56524772149E+02 -0.24443701622E+04  0.24522503963E+04  0.15294330000E+03 0. -1.
<mgrwt>
<rscale>  0 0.19643451E+03</rscale>
<asrwt>0</asrwt>
<pdfrwt beam="1">  1        2 0.37832231E+00 0.19643451E+03</pdfrwt>
<pdfrwt beam="2">  1       -2 0.13821658E+00 0.19643451E+03</pdfrwt>
<totfact> 0.17762164E+00</totfact>
</mgrwt>
</event>
<event>
 4    1  0.4639964E-008  0.4390388E+03  0.7818608E-02  0.1031042E+00
         -2   -1    0    0    0  501 -0.00000000000E+00  0.00000000000E+00  0.16004114887E+04  0.16004114887E+04  0.25500000000E-02 0.  1.
          2   -1    0    0  501    0  0.00000000000E+00 -0.00000000000E+00 -0.31346870562E+03  0.31346870563E+03  0.25500000000E-02 0. -1.
    8880022    1    1    2    0    0  0.54565273624E+02  0.40790444980E+03 -0.10745531516E+03  0.45199746351E+03  0.15294330000E+03 0.  0.
    8880022    1    1    2    0    0 -0.54565273624E+02 -0.40790444980E+03  0.13943980983E+04  0.14618827308E+04  0.15294330000E+03 0.  0.
<mgrwt>
<rscale>  0 0.43903879E+03</rscale>
<asrwt>0</asrwt>
<pdfrwt beam="1">  1        2 0.48225955E-01 0.43903879E+03</pdfrwt>
<pdfrwt beam="2">  1       -2 0.24621715E+00 0.43903879E+03</pdfrwt>
<totfact> 0.76166315E+00</totfact>
</mgrwt>
</event>
<event>
 4    1  0.4639964E-008  0.6322246E+03  0.7818608E-02  0.9840717E-01
          2   -1    0    0  501    0  0.00000000000E+00  0.00000000000E+00  0.11668230608E+04  0.11668230608E+04  0.25500000000E-02 0. -1.
         -2   -1    0    0    0  501 -0.00000000000E+00 -0.00000000000E+00 -0.43157370449E+03  0.43157370450E+03  0.25500000000E-02 0.  1.
    8880022    1    1    2    0    0 -0.55014103509E+03  0.27140575447E+03  0.46690943984E+01  0.63224180145E+03  0.15294330000E+03 0. -1.
    8880022    1    1    2    0    0  0.55014103509E+03 -0.27140575447E+03  0.73058026187E+03  0.96615496381E+03  0.15294330000E+03 0.  0.
<mgrwt>
<rscale>  0 0.63222456E+03</rscale>
<asrwt>0</asrwt>
<pdfrwt beam="1">  1        2 0.17951124E+00 0.63222456E+03</pdfrwt>
<pdfrwt beam="2">  1       -2 0.66395956E-01 0.63222456E+03</pdfrwt>
<totfact> 0.42609964E+01</totfact>
</mgrwt>
</event>
<event>
 4    1  0.4639964E-008  0.6658396E+03  0.7818608E-02  0.9777503E-01
         -2   -1    0    0    0  501 -0.00000000000E+00  0.00000000000E+00  0.29459121040E+03  0.29459121041E+03  0.25500000000E-02 0.  1.
          2   -1    0    0  501    0  0.00000000000E+00 -0.00000000000E+00 -0.24436424072E+04  0.24436424072E+04  0.25500000000E-02 0. -1.
    8880022    1    1    2    0    0  0.63076345521E+03  0.14862081964E+03 -0.19230912573E+04  0.20350976196E+04  0.15294330000E+03 0.  0.
    8880022    1    1    2    0    0 -0.63076345521E+03 -0.14862081964E+03 -0.22595993954E+03  0.70313599804E+03  0.15294330000E+03 0.  1.
<mgrwt>
<rscale>  0 0.66583957E+03</rscale>
<asrwt>0</asrwt>
<pdfrwt beam="1">  1        2 0.37594497E+00 0.66583957E+03</pdfrwt>
<pdfrwt beam="2">  1       -2 0.45321726E-01 0.66583957E+03</pdfrwt>
<totfact> 0.18350722E+01</totfact>
</mgrwt>
</event>
<event>
 4    1  0.4639964E-008  0.2055143E+03  0.7818608E-02  0.1145168E+00
         -2   -1    0    0    0  501 -0.00000000000E+00  0.00000000000E+00  0.28327007728E+03  0.28327007730E+03  0.25500000000E-02 0.  1.
          2   -1    0    0  501    0  0.00000000000E+00 -0.00000000000E+00 -0.77174026769E+03  0.77174026769E+03  0.25500000000E-02 0. -1.
    8880022    1    1    2    0    0  0.13686187181E+03  0.10643478957E+02 -0.71805039358E+03  0.74688183559E+03  0.15294330000E+03 0.  0.
    8880022    1    1    2    0    0 -0.13686187181E+03 -0.10643478957E+02  0.22958020318E+03  0.30812850940E+03  0.15294330000E+03 0.  1.
<mgrwt>
<rscale>  0 0.20551425E+03</rscale>
<asrwt>0</asrwt>
<pdfrwt beam="1">  1        2 0.11872927E+00 0.20551425E+03</pdfrwt>
<pdfrwt beam="2">  1       -2 0.43580012E-01 0.20551425E+03</pdfrwt>
<totfact> 0.19110332E+02</totfact>
</mgrwt>
</event>
<event>
 4    1  0.4639964E-008  0.5294606E+03  0.7818608E-02  0.1006363E+00
         -2   -1    0    0    0  501 -0.00000000000E+00  0.00000000000E+00  0.25072170503E+04  0.25072170503E+04  0.25500000000E-02 0.  1.
          2   -1    0    0  501    0  0.00000000000E+00 -0.00000000000E+00 -0.29625009511E+03  0.29625009513E+03  0.25500000000E-02 0. -1.
    8880022    1    1    2    0    0  0.41917649687E+03  0.28500518027E+03  0.22115098687E+04  0.22740062535E+04  0.15294330000E+03 0.  0.
    8880022    1    1    2    0    0 -0.41917649687E+03 -0.28500518027E+03 -0.54291357192E+00  0.52946089193E+03  0.15294330000E+03 0.  0.
<mgrwt>
<rscale>  0 0.52946061E+03</rscale>
<asrwt>0</asrwt>
<pdfrwt beam="1">  1        2 0.45576938E-01 0.52946061E+03</pdfrwt>
<pdfrwt beam="2">  1       -2 0.38572569E+00 0.52946061E+03</pdfrwt>
<totfact> 0.11345488E+00</totfact>
</mgrwt>
</event>
<event>
 4    1  0.4639964E-008  0.2815066E+03  0.7818608E-02  0.1094869E+00
         -2   -1    0    0    0  501 -0.00000000000E+00  0.00000000000E+00  0.10801537417E+03  0.10801537420E+03  0.25500000000E-02 0.  1.
          2   -1    0    0  501    0  0.00000000000E+00 -0.00000000000E+00 -0.21317806814E+04  0.21317806814E+04  0.25500000000E-02 0. -1.
    8880022    1    1    2    0    0 -0.11702327044E+03  0.20532862804E+03 -0.19188265724E+04  0.19393662262E+04  0.15294330000E+03 0.  0.
    8880022    1    1    2    0    0  0.11702327044E+03 -0.20532862804E+03 -0.10493873482E+03  0.30042982941E+03  0.15294330000E+03 0.  0.
<mgrwt>
<rscale>  0 0.28150656E+03</rscale>
<asrwt>0</asrwt>
<pdfrwt beam="1">  1        2 0.32796623E+00 0.28150656E+03</pdfrwt>
<pdfrwt beam="2">  1       -2 0.16617751E-01 0.28150656E+03</pdfrwt>
<totfact> 0.18296736E+02</totfact>
</mgrwt>
</event>
<event>
 4    1  0.4639964E-008  0.2720705E+03  0.7818608E-02  0.1100100E+00
         -2   -1    0    0    0  501 -0.00000000000E+00  0.00000000000E+00  0.13709561597E+04  0.13709561597E+04  0.25500000000E-02 0.  1.
          2   -1    0    0  501    0  0.00000000000E+00 -0.00000000000E+00 -0.57621393068E+02  0.57621393124E+02  0.25500000000E-02 0. -1.
    8880022    1    1    2    0    0  0.49798858015E+02  0.21943291420E+03  0.83590285351E+03  0.87906539212E+03  0.15294330000E+03 0.  1.
    8880022    1    1    2    0    0 -0.49798858015E+02 -0.21943291420E+03  0.47743191316E+03  0.54951216075E+03  0.15294330000E+03 0. -1.
<mgrwt>
<rscale>  0 0.27207055E+03</rscale>
<asrwt>0</asrwt>
<pdfrwt beam="1">  1        2 0.88648298E-02 0.27207055E+03</pdfrwt>
<pdfrwt beam="2">  1       -2 0.21091633E+00 0.27207055E+03</pdfrwt>
<totfact> 0.91858298E+01</totfact>
</mgrwt>
</event>
<event>
 4    1  0.4639964E-008  0.4122551E+03  0.7818608E-02  0.1039617E+00
         -2   -1    0    0    0  501 -0.00000000000E+00  0.00000000000E+00  0.16621836181E+03  0.16621836183E+03  0.25500000000E-02 0.  1.
          2   -1    0    0  501    0  0.00000000000E+00 -0.00000000000E+00 -0.36071935340E+04  0.36071935340E+04  0.25500000000E-02 0. -1.
    8880022    1    1    2    0    0 -0.37689460290E+03  0.67179456279E+02 -0.33175652912E+04  0.33430814730E+04  0.15294330000E+03 0.  0.
    8880022    1    1    2    0    0  0.37689460290E+03 -0.67179456279E+02 -0.12340988100E+03  0.43033042279E+03  0.15294330000E+03 0.  0.
<mgrwt>
<rscale>  0 0.41225511E+03</rscale>
<asrwt>0</asrwt>
<pdfrwt beam="1">  1        2 0.55495280E+00 0.41225511E+03</pdfrwt>
<pdfrwt beam="2">  1       -2 0.25572058E-01 0.41225511E+03</pdfrwt>
<totfact> 0.11112477E+01</totfact>
</mgrwt>
</event>
<event>
 4    1  0.4639964E-008  0.3467916E+03  0.7818608E-02  0.1063940E+00
         -2   -1    0    0    0  501 -0.00000000000E+00  0.00000000000E+00  0.44712682263E+03  0.44712682264E+03  0.25500000000E-02 0.  1.
          2   -1    0    0  501    0  0.00000000000E+00 -0.00000000000E+00 -0.15210552833E+04  0.15210552833E+04  0.25500000000E-02 0. -1.
    8880022    1    1    2    0    0 -0.71640440589E+02 -0.30288679857E+03  0.35588773985E+03  0.49691095970E+03  0.15294330000E+03 0.  0.
    8880022    1    1    2    0    0  0.71640440589E+02  0.30288679857E+03 -0.14298162005E+04  0.14712711462E+04  0.15294330000E+03 0. -1.
<mgrwt>
<rscale>  0 0.34679161E+03</rscale>
<asrwt>0</asrwt>
<pdfrwt beam="1">  1        2 0.23400850E+00 0.34679161E+03</pdfrwt>
<pdfrwt beam="2">  1       -2 0.68788743E-01 0.34679161E+03</pdfrwt>
<totfact> 0.26187299E+01</totfact>
</mgrwt>
</event>
<event>
 4    1  0.4639964E-008  0.9500860E+03  0.7818608E-02  0.9365050E-01
         -2   -1    0    0    0  501 -0.00000000000E+00  0.00000000000E+00  0.99557108056E+03  0.99557108056E+03  0.25500000000E-02 0.  1.
          2   -1    0    0  501    0  0.00000000000E+00 -0.00000000000E+00 -0.95304421340E+03  0.95304421340E+03  0.25500000000E-02 0. -1.
    8880022    1    1    2    0    0 -0.76392353644E+03 -0.54377619294E+03 -0.19363627080E+03  0.96961764418E+03  0.15294330000E+03 0.  0.
    8880022    1    1    2    0    0  0.76392353644E+03  0.54377619294E+03  0.23616313796E+03  0.97899764978E+03  0.15294330000E+03 0.  0.
<mgrwt>
<rscale>  0 0.95008598E+03</rscale>
<asrwt>0</asrwt>
<pdfrwt beam="1">  1        2 0.14662219E+00 0.95008598E+03</pdfrwt>
<pdfrwt beam="2">  1       -2 0.15316478E+00 0.95008598E+03</pdfrwt>
<totfact> 0.76288397E+00</totfact>
</mgrwt>
</event>
<event>
 4    1  0.4639964E-008  0.3313350E+03  0.7818608E-02  0.1070548E+00
          2   -1    0    0  501    0  0.00000000000E+00  0.00000000000E+00  0.19996937289E+04  0.19996937289E+04  0.25500000000E-02 0. -1.
         -2   -1    0    0    0  501 -0.00000000000E+00 -0.00000000000E+00 -0.58738922531E+02  0.58738922586E+02  0.25500000000E-02 0.  1.
    8880022    1    1    2    0    0 -0.89903863708E+02  0.27983661878E+03  0.12335991189E+04  0.12773212897E+04  0.15294330000E+03 0.  0.
    8880022    1    1    2    0    0  0.89903863708E+02 -0.27983661878E+03  0.70735568742E+03  0.78111136175E+03  0.15294330000E+03 0.  0.
<mgrwt>
<rscale>  0 0.33133501E+03</rscale>
<asrwt>0</asrwt>
<pdfrwt beam="1">  1        2 0.30764516E+00 0.33133501E+03</pdfrwt>
<pdfrwt beam="2">  1       -2 0.90367580E-02 0.33133501E+03</pdfrwt>
<totfact> 0.57525245E+02</totfact>
</mgrwt>
</event>
<event>
 4    1  0.4639964E-008  0.2017641E+03  0.7818608E-02  0.1148259E+00
         -2   -1    0    0    0  501 -0.00000000000E+00  0.00000000000E+00  0.55685023107E+03  0.55685023108E+03  0.25500000000E-02 0.  1.
          2   -1    0    0  501    0  0.00000000000E+00 -0.00000000000E+00 -0.34458233092E+03  0.34458233093E+03  0.25500000000E-02 0. -1.
    8880022    1    1    2    0    0 -0.47516121116E+02 -0.12271642939E+03  0.50619218298E+03  0.54492135481E+03  0.15294330000E+03 0.  0.
    8880022    1    1    2    0    0  0.47516121116E+02  0.12271642939E+03 -0.29392428282E+03  0.35651120720E+03  0.15294330000E+03 0.  0.
<mgrwt>
<rscale>  0 0.20176411E+03</rscale>
<asrwt>0</asrwt>
<pdfrwt beam="1">  1        2 0.53012667E-01 0.20176411E+03</pdfrwt>
<pdfrwt beam="2">  1       -2 0.85669265E-01 0.20176411E+03</pdfrwt>
<totfact> 0.11687519E+02</totfact>
</mgrwt>
</event>
<event>
 4    1  0.4639964E-008  0.4778481E+03  0.7818608E-02  0.1019728E+00
          2   -1    0    0  501    0  0.00000000000E+00  0.00000000000E+00  0.43507568705E+03  0.43507568706E+03  0.25500000000E-02 0. -1.
         -2   -1    0    0    0  501 -0.00000000000E+00 -0.00000000000E+00 -0.87235325552E+03  0.87235325552E+03  0.25500000000E-02 0.  1.
    8880022    1    1    2    0    0 -0.39293936787E+03  0.22482397896E+03  0.19396826610E+03  0.51571553167E+03  0.15294330000E+03 0.  0.
    8880022    1    1    2    0    0  0.39293936787E+03 -0.22482397896E+03 -0.63124583456E+03  0.79171341091E+03  0.15294330000E+03 0.  0.
<mgrwt>
<rscale>  0 0.47784812E+03</rscale>
<asrwt>0</asrwt>
<pdfrwt beam="1">  1        2 0.66934721E-01 0.47784812E+03</pdfrwt>
<pdfrwt beam="2">  1       -2 0.13420819E+00 0.47784812E+03</pdfrwt>
<totfact> 0.30055508E+01</totfact>
</mgrwt>
</event>
<event>
 4    1  0.4639964E-008  0.6445632E+03  0.7818608E-02  0.9817035E-01
          2   -1    0    0  501    0  0.00000000000E+00  0.00000000000E+00  0.13809625288E+04  0.13809625288E+04  0.25500000000E-02 0. -1.
         -2   -1    0    0    0  501 -0.00000000000E+00 -0.00000000000E+00 -0.59389502303E+03  0.59389502303E+03  0.25500000000E-02 0.  1.
    8880022    1    1    2    0    0 -0.27063661146E+03 -0.56464669016E+03  0.10871489098E+04  0.12638648920E+04  0.15294330000E+03 0.  0.
    8880022    1    1    2    0    0  0.27063661146E+03  0.56464669016E+03 -0.30008140407E+03  0.71099265978E+03  0.15294330000E+03 0.  0.
<mgrwt>
<rscale>  0 0.64456320E+03</rscale>
<asrwt>0</asrwt>
<pdfrwt beam="1">  1        2 0.21245577E+00 0.64456320E+03</pdfrwt>
<pdfrwt beam="2">  1       -2 0.91368466E-01 0.64456320E+03</pdfrwt>
<totfact> 0.15698894E+01</totfact>
</mgrwt>
</event>
<event>
 4    1  0.4639964E-008  0.8742860E+03  0.7818608E-02  0.9458309E-01
          2   -1    0    0  501    0  0.00000000000E+00  0.00000000000E+00  0.23217795496E+04  0.23217795496E+04  0.25500000000E-02 0. -1.
         -2   -1    0    0    0  501 -0.00000000000E+00 -0.00000000000E+00 -0.49095020809E+03  0.49095020810E+03  0.25500000000E-02 0.  1.
    8880022    1    1    2    0    0  0.82045731247E+03 -0.26044994005E+03  0.10822611108E+03  0.88095908928E+03  0.15294330000E+03 0.  0.
    8880022    1    1    2    0    0 -0.82045731247E+03  0.26044994005E+03  0.17226032304E+04  0.19317706684E+04  0.15294330000E+03 0.  0.
<mgrwt>
<rscale>  0 0.87428601E+03</rscale>
<asrwt>0</asrwt>
<pdfrwt beam="1">  1        2 0.35719685E+00 0.87428601E+03</pdfrwt>
<pdfrwt beam="2">  1       -2 0.75530803E-01 0.87428601E+03</pdfrwt>
<totfact> 0.70948810E+00</totfact>
</mgrwt>
</event>
<event>
 4    1  0.4639964E-008  0.7685745E+03  0.7818608E-02  0.9606652E-01
          2   -1    0    0  501    0  0.00000000000E+00  0.00000000000E+00  0.25677623953E+04  0.25677623953E+04  0.25500000000E-02 0. -1.
         -2   -1    0    0    0  501 -0.00000000000E+00 -0.00000000000E+00 -0.24732616523E+03  0.24732616524E+03  0.25500000000E-02 0.  1.
    8880022    1    1    2    0    0 -0.59784081784E+02 -0.75082690787E+03  0.78818251332E+03  0.11008807880E+04  0.15294330000E+03 0.  0.
    8880022    1    1    2    0    0  0.59784081784E+02  0.75082690787E+03  0.15322537168E+04  0.17142077726E+04  0.15294330000E+03 0.  0.
<mgrwt>
<rscale>  0 0.76857455E+03</rscale>
<asrwt>0</asrwt>
<pdfrwt beam="1">  1        2 0.39504037E+00 0.76857455E+03</pdfrwt>
<pdfrwt beam="2">  1       -2 0.38050180E-01 0.76857455E+03</pdfrwt>
<totfact> 0.21638681E+01</totfact>
</mgrwt>
</event>
<event>
 4    1  0.4639964E-008  0.4912003E+03  0.7818608E-02  0.1016102E+00
          2   -1    0    0  501    0  0.00000000000E+00  0.00000000000E+00  0.95102504975E+03  0.95102504975E+03  0.25500000000E-02 0. -1.
         -2   -1    0    0    0  501 -0.00000000000E+00 -0.00000000000E+00 -0.36303566449E+03  0.36303566450E+03  0.25500000000E-02 0.  1.
    8880022    1    1    2    0    0  0.46213642014E+03 -0.65696535039E+02  0.65456176909E+03  0.81836964026E+03  0.15294330000E+03 0.  0.
    8880022    1    1    2    0    0 -0.46213642014E+03  0.65696535039E+02 -0.66572383830E+02  0.49569107399E+03  0.15294330000E+03 0.  0.
<mgrwt>
<rscale>  0 0.49120032E+03</rscale>
<asrwt>0</asrwt>
<pdfrwt beam="1">  1        2 0.14631155E+00 0.49120032E+03</pdfrwt>
<pdfrwt beam="2">  1       -2 0.55851641E-01 0.49120032E+03</pdfrwt>
<totfact> 0.84741523E+01</totfact>
</mgrwt>
</event>
<event>
 4    1  0.4639964E-008  0.4511893E+03  0.7818608E-02  0.1027368E+00
         -2   -1    0    0    0  501 -0.00000000000E+00  0.00000000000E+00  0.16956566112E+03  0.16956566114E+03  0.25500000000E-02 0.  1.
          2   -1    0    0  501    0  0.00000000000E+00 -0.00000000000E+00 -0.28867696515E+04  0.28867696515E+04  0.25500000000E-02 0. -1.
    8880022    1    1    2    0    0 -0.19837860645E+02 -0.42401244915E+03 -0.19065739813E+03  0.48981832778E+03  0.15294330000E+03 0.  0.
    8880022    1    1    2    0    0  0.19837860645E+02  0.42401244915E+03 -0.25265465922E+04  0.25665169848E+04  0.15294330000E+03 0.  0.
<mgrwt>
<rscale>  0 0.45118926E+03</rscale>
<asrwt>0</asrwt>
<pdfrwt beam="1">  1        2 0.44411837E+00 0.45118926E+03</pdfrwt>
<pdfrwt beam="2">  1       -2 0.26087027E-01 0.45118926E+03</pdfrwt>
<totfact> 0.30385296E+01</totfact>
</mgrwt>
</event>
<event>
 4    1  0.4639964E-008  0.2583240E+03  0.7818608E-02  0.1108154E+00
          2   -1    0    0  501    0  0.00000000000E+00  0.00000000000E+00  0.79248251491E+03  0.79248251492E+03  0.25500000000E-02 0. -1.
         -2   -1    0    0    0  501 -0.00000000000E+00 -0.00000000000E+00 -0.47120682063E+03  0.47120682064E+03  0.25500000000E-02 0.  1.
    8880022    1    1    2    0    0 -0.17640320256E+03 -0.11055114590E+03 -0.41197465542E+03  0.48626578684E+03  0.15294330000E+03 0.  0.
    8880022    1    1    2    0    0  0.17640320256E+03  0.11055114590E+03  0.73325034970E+03  0.77742354871E+03  0.15294330000E+03 0. -1.
<mgrwt>
<rscale>  0 0.25832402E+03</rscale>
<asrwt>0</asrwt>
<pdfrwt beam="1">  1        2 0.12192039E+00 0.25832402E+03</pdfrwt>
<pdfrwt beam="2">  1       -2 0.72493358E-01 0.25832402E+03</pdfrwt>
<totfact> 0.64549884E+01</totfact>
</mgrwt>
</event>
<event>
 4    1  0.4639964E-008  0.7929676E+03  0.7818608E-02  0.9570252E-01
         -2   -1    0    0    0  501 -0.00000000000E+00  0.00000000000E+00  0.49028585923E+03  0.49028585923E+03  0.25500000000E-02 0.  1.
          2   -1    0    0  501    0  0.00000000000E+00 -0.00000000000E+00 -0.19046954222E+04  0.19046954222E+04  0.25500000000E-02 0. -1.
    8880022    1    1    2    0    0  0.74109554863E+03  0.23703015040E+03 -0.22791333974E+02  0.79329502855E+03  0.15294330000E+03 0.  0.
    8880022    1    1    2    0    0 -0.74109554863E+03 -0.23703015040E+03 -0.13916182290E+04  0.16016862529E+04  0.15294330000E+03 0.  0.
<mgrwt>
<rscale>  0 0.79296756E+03</rscale>
<asrwt>0</asrwt>
<pdfrwt beam="1">  1        2 0.29303006E+00 0.79296756E+03</pdfrwt>
<pdfrwt beam="2">  1       -2 0.75428595E-01 0.79296756E+03</pdfrwt>
<totfact> 0.12218723E+01</totfact>
</mgrwt>
</event>
<event>
 4    1  0.4639964E-008  0.4151779E+03  0.7818608E-02  0.1038647E+00
         -2   -1    0    0    0  501 -0.00000000000E+00  0.00000000000E+00  0.18785322471E+03  0.18785322472E+03  0.25500000000E-02 0.  1.
          2   -1    0    0  501    0  0.00000000000E+00 -0.00000000000E+00 -0.34258808673E+04  0.34258808673E+04  0.25500000000E-02 0. -1.
    8880022    1    1    2    0    0 -0.38453884394E+03  0.33330135258E+02 -0.72945015125E+02  0.42153724469E+03  0.15294330000E+03 0.  0.
    8880022    1    1    2    0    0  0.38453884394E+03 -0.33330135258E+02 -0.31650826275E+04  0.31921968474E+04  0.15294330000E+03 0.  0.
<mgrwt>
<rscale>  0 0.41517788E+03</rscale>
<asrwt>0</asrwt>
<pdfrwt beam="1">  1        2 0.52705855E+00 0.41517788E+03</pdfrwt>
<pdfrwt beam="2">  1       -2 0.28900499E-01 0.41517788E+03</pdfrwt>
<totfact> 0.11787838E+01</totfact>
</mgrwt>
</event>
<event>
 4    1  0.4639964E-008  0.9260057E+03  0.7818608E-02  0.9393644E-01
          2   -1    0    0  501    0  0.00000000000E+00  0.00000000000E+00  0.11683153510E+04  0.11683153510E+04  0.25500000000E-02 0. -1.
         -2   -1    0    0    0  501 -0.00000000000E+00 -0.00000000000E+00 -0.92283672767E+03  0.92283672768E+03  0.25500000000E-02 0.  1.
    8880022    1    1    2    0    0  0.83504715248E+03  0.36985294029E+03 -0.35029472136E+03  0.99004696309E+03  0.15294330000E+03 0.  0.
    8880022    1    1    2    0    0 -0.83504715248E+03 -0.36985294029E+03  0.59577334468E+03  0.11011051156E+04  0.15294330000E+03 0.  0.
<mgrwt>
<rscale>  0 0.92600572E+03</rscale>
<asrwt>0</asrwt>
<pdfrwt beam="1">  1        2 0.17974082E+00 0.92600572E+03</pdfrwt>
<pdfrwt beam="2">  1       -2 0.14197488E+00 0.92600572E+03</pdfrwt>
<totfact> 0.68470452E+00</totfact>
</mgrwt>
</event>
<event>
 4    1  0.4639964E-008  0.4413058E+03  0.7818608E-02  0.1030347E+00
          2   -1    0    0  501    0  0.00000000000E+00  0.00000000000E+00  0.75835010279E+03  0.75835010279E+03  0.25500000000E-02 0. -1.
         -2   -1    0    0    0  501 -0.00000000000E+00 -0.00000000000E+00 -0.89334571628E+03  0.89334571629E+03  0.25500000000E-02 0.  1.
    8880022    1    1    2    0    0 -0.38345211668E+03 -0.15596045974E+03 -0.76460915605E+03  0.88282388126E+03  0.15294330000E+03 0.  0.
    8880022    1    1    2    0    0  0.38345211668E+03  0.15596045974E+03  0.62961354256E+03  0.76887193782E+03  0.15294330000E+03 0.  0.
<mgrwt>
<rscale>  0 0.44130584E+03</rscale>
<asrwt>0</asrwt>
<pdfrwt beam="1">  1        2 0.11666925E+00 0.44130584E+03</pdfrwt>
<pdfrwt beam="2">  1       -2 0.13743780E+00 0.44130584E+03</pdfrwt>
<totfact> 0.14732027E+01</totfact>
</mgrwt>
</event>
<event>
 4    1  0.4639964E-008  0.1409726E+04  0.7818608E-02  0.8946808E-01
         -2   -1    0    0    0  501 -0.00000000000E+00  0.00000000000E+00  0.74039421960E+03  0.74039421960E+03  0.25500000000E-02 0.  1.
          2   -1    0    0  501    0  0.00000000000E+00 -0.00000000000E+00 -0.31697708949E+04  0.31697708949E+04  0.25500000000E-02 0. -1.
    8880022    1    1    2    0    0 -0.13438120985E+04  0.39762342839E+03 -0.19799344679E+04  0.24305282341E+04  0.15294330000E+03 0.  0.
    8880022    1    1    2    0    0  0.13438120985E+04 -0.39762342839E+03 -0.44944220741E+03  0.14796368803E+04  0.15294330000E+03 0.  0.
<mgrwt>
<rscale>  0 0.14097259E+04</rscale>
<asrwt>0</asrwt>
<pdfrwt beam="1">  1        2 0.48765705E+00 0.14097259E+04</pdfrwt>
<pdfrwt beam="2">  1       -2 0.11390680E+00 0.14097259E+04</pdfrwt>
<totfact> 0.79057139E-01</totfact>
</mgrwt>
</event>
<event>
 4    1  0.4639964E-008  0.1600874E+03  0.7818608E-02  0.1188598E+00
          2   -1    0    0  501    0  0.00000000000E+00  0.00000000000E+00  0.89168230508E+03  0.89168230508E+03  0.25500000000E-02 0. -1.
         -2   -1    0    0    0  501 -0.00000000000E+00 -0.00000000000E+00 -0.88131357807E+02  0.88131357844E+02  0.25500000000E-02 0.  1.
    8880022    1    1    2    0    0 -0.28828042397E+02  0.37486945940E+02 -0.39081724430E+00  0.16008789116E+03  0.15294330000E+03 0.  1.
    8880022    1    1    2    0    0  0.28828042397E+02 -0.37486945940E+02  0.80394176451E+03  0.81972577176E+03  0.15294330000E+03 0.  0.
<mgrwt>
<rscale>  0 0.16008741E+03</rscale>
<asrwt>0</asrwt>
<pdfrwt beam="1">  1        2 0.13718190E+00 0.16008741E+03</pdfrwt>
<pdfrwt beam="2">  1       -2 0.13558670E-01 0.16008741E+03</pdfrwt>
<totfact> 0.12456589E+03</totfact>
</mgrwt>
</event>
<event>
 4    1  0.4639964E-008  0.2560041E+03  0.7818608E-02  0.1109568E+00
          2   -1    0    0  501    0  0.00000000000E+00  0.00000000000E+00  0.66929016890E+03  0.66929016891E+03  0.25500000000E-02 0. -1.
         -2   -1    0    0    0  501 -0.00000000000E+00 -0.00000000000E+00 -0.20179635604E+03  0.20179635605E+03  0.25500000000E-02 0.  1.
    8880022    1    1    2    0    0  0.26334042248E+02  0.20360001230E+03  0.54623194236E+03  0.60324740750E+03  0.15294330000E+03 0.  0.
    8880022    1    1    2    0    0 -0.26334042248E+02 -0.20360001230E+03 -0.78738129495E+02  0.26783911746E+03  0.15294330000E+03 0.  1.
<mgrwt>
<rscale>  0 0.25600410E+03</rscale>
<asrwt>0</asrwt>
<pdfrwt beam="1">  1        2 0.10296772E+00 0.25600410E+03</pdfrwt>
<pdfrwt beam="2">  1       -2 0.31045593E-01 0.25600410E+03</pdfrwt>
<totfact> 0.42847764E+02</totfact>
</mgrwt>
</event>
<event>
 4    1  0.4639964E-008  0.5676548E+03  0.7818608E-02  0.9974882E-01
         -2   -1    0    0    0  501 -0.00000000000E+00  0.00000000000E+00  0.12210404713E+04  0.12210404713E+04  0.25500000000E-02 0.  1.
          2   -1    0    0  501    0  0.00000000000E+00 -0.00000000000E+00 -0.29929002975E+03  0.29929002976E+03  0.25500000000E-02 0. -1.
    8880022    1    1    2    0    0  0.49820033612E+03 -0.22502606505E+03  0.72227515861E+03  0.91864757259E+03  0.15294330000E+03 0.  1.
    8880022    1    1    2    0    0 -0.49820033612E+03  0.22502606505E+03  0.19947528290E+03  0.60168292843E+03  0.15294330000E+03 0.  0.
<mgrwt>
<rscale>  0 0.56765479E+03</rscale>
<asrwt>0</asrwt>
<pdfrwt beam="1">  1        2 0.46044620E-01 0.56765479E+03</pdfrwt>
<pdfrwt beam="2">  1       -2 0.18785238E+00 0.56765479E+03</pdfrwt>
<totfact> 0.18236699E+01</totfact>
</mgrwt>
</event>
<event>
 4    1  0.4639964E-008  0.4654156E+03  0.7818608E-02  0.1023222E+00
         -2   -1    0    0    0  501 -0.00000000000E+00  0.00000000000E+00  0.69587975891E+03  0.69587975891E+03  0.25500000000E-02 0.  1.
          2   -1    0    0  501    0  0.00000000000E+00 -0.00000000000E+00 -0.15755134186E+04  0.15755134186E+04  0.25500000000E-02 0. -1.
    8880022    1    1    2    0    0  0.30757994160E+03 -0.31402961692E+03 -0.14571550014E+04  0.15296772117E+04  0.15294330000E+03 0. -1.
    8880022    1    1    2    0    0 -0.30757994160E+03  0.31402961692E+03  0.57752134173E+03  0.74171596582E+03  0.15294330000E+03 0.  0.
<mgrwt>
<rscale>  0 0.46541559E+03</rscale>
<asrwt>0</asrwt>
<pdfrwt beam="1">  1        2 0.24238668E+00 0.46541559E+03</pdfrwt>
<pdfrwt beam="2">  1       -2 0.10705842E+00 0.46541559E+03</pdfrwt>
<totfact> 0.87234961E+00</totfact>
</mgrwt>
</event>
<event>
 4    1  0.4639964E-008  0.5001087E+03  0.7818608E-02  0.1013751E+00
          2   -1    0    0  501    0  0.00000000000E+00  0.00000000000E+00  0.18497582345E+04  0.18497582345E+04  0.25500000000E-02 0. -1.
         -2   -1    0    0    0  501 -0.00000000000E+00 -0.00000000000E+00 -0.36770850726E+03  0.36770850727E+03  0.25500000000E-02 0.  1.
    8880022    1    1    2    0    0  0.13436776009E+03 -0.45679574325E+03  0.16226498832E+04  0.16979697708E+04  0.15294330000E+03 0.  0.
    8880022    1    1    2    0    0 -0.13436776009E+03  0.45679574325E+03 -0.14060015596E+03  0.51949697100E+03  0.15294330000E+03 0.  0.
<mgrwt>
<rscale>  0 0.50010869E+03</rscale>
<asrwt>0</asrwt>
<pdfrwt beam="1">  1        2 0.28457819E+00 0.50010869E+03</pdfrwt>
<pdfrwt beam="2">  1       -2 0.56570539E-01 0.50010869E+03</pdfrwt>
<totfact> 0.25445974E+01</totfact>
</mgrwt>
</event>
<event>
 4    1  0.4639964E-008  0.7457895E+03  0.7818608E-02  0.9641979E-01
          2   -1    0    0  501    0  0.00000000000E+00  0.00000000000E+00  0.60323129254E+03  0.60323129255E+03  0.25500000000E-02 0. -1.
         -2   -1    0    0    0  501 -0.00000000000E+00 -0.00000000000E+00 -0.18457120418E+04  0.18457120418E+04  0.25500000000E-02 0.  1.
    8880022    1    1    2    0    0 -0.68212744235E+03  0.25983150428E+03 -0.14874564509E+04  0.16639497002E+04  0.15294330000E+03 0.  0.
    8880022    1    1    2    0    0  0.68212744235E+03 -0.25983150428E+03  0.24497570172E+03  0.78499363416E+03  0.15294330000E+03 0. -1.
<mgrwt>
<rscale>  0 0.74578946E+03</rscale>
<asrwt>0</asrwt>
<pdfrwt beam="1">  1        2 0.92804815E-01 0.74578946E+03</pdfrwt>
<pdfrwt beam="2">  1       -2 0.28395570E+00 0.74578946E+03</pdfrwt>
<totfact> 0.20392564E+00</totfact>
</mgrwt>
</event>
<event>
 4    1  0.4639964E-008  0.7853053E+03  0.7818608E-02  0.9581534E-01
         -2   -1    0    0    0  501 -0.00000000000E+00  0.00000000000E+00  0.17502828079E+04  0.17502828079E+04  0.25500000000E-02 0.  1.
          2   -1    0    0  501    0  0.00000000000E+00 -0.00000000000E+00 -0.63926104609E+03  0.63926104610E+03  0.25500000000E-02 0. -1.
    8880022    1    1    2    0    0  0.18642394184E+02 -0.77004236201E+03  0.13559399641E+04  0.15669325503E+04  0.15294330000E+03 0.  0.
    8880022    1    1    2    0    0 -0.18642394184E+02  0.77004236201E+03 -0.24491820224E+03  0.82261130368E+03  0.15294330000E+03 0.  0.
<mgrwt>
<rscale>  0 0.78530531E+03</rscale>
<asrwt>0</asrwt>
<pdfrwt beam="1">  1        2 0.98347857E-01 0.78530531E+03</pdfrwt>
<pdfrwt beam="2">  1       -2 0.26927427E+00 0.78530531E+03</pdfrwt>
<totfact> 0.23133809E+00</totfact>
</mgrwt>
</event>
<event>
 4    1  0.4639964E-008  0.1100903E+04  0.7818608E-02  0.9204312E-01
         -2   -1    0    0    0  501 -0.00000000000E+00  0.00000000000E+00  0.64901530686E+03  0.64901530687E+03  0.25500000000E-02 0.  1.
          2   -1    0    0  501    0  0.00000000000E+00 -0.00000000000E+00 -0.24210593481E+04  0.24210593481E+04  0.25500000000E-02 0. -1.
    8880022    1    1    2    0    0 -0.26661325795E+03 -0.10571253173E+04 -0.16200747316E+04  0.19587318231E+04  0.15294330000E+03 0.  0.
    8880022    1    1    2    0    0  0.26661325795E+03  0.10571253173E+04 -0.15196930963E+03  0.11113428319E+04  0.15294330000E+03 0.  0.
<mgrwt>
<rscale>  0 0.11009034E+04</rscale>
<asrwt>0</asrwt>
<pdfrwt beam="1">  1        2 0.37247066E+00 0.11009034E+04</pdfrwt>
<pdfrwt beam="2">  1       -2 0.99848510E-01 0.11009034E+04</pdfrwt>
<totfact> 0.31860526E+00</totfact>
</mgrwt>
</event>
<event>
 4    1  0.4639964E-008  0.4890246E+03  0.7818608E-02  0.1016684E+00
         -2   -1    0    0    0  501 -0.00000000000E+00  0.00000000000E+00  0.10520290264E+04  0.10520290264E+04  0.25500000000E-02 0.  1.
          2   -1    0    0  501    0  0.00000000000E+00 -0.00000000000E+00 -0.12594797673E+04  0.12594797673E+04  0.25500000000E-02 0. -1.
    8880022    1    1    2    0    0 -0.22443807527E+03 -0.40667060720E+03 -0.11499955576E+04  0.12496538992E+04  0.15294330000E+03 0.  0.
    8880022    1    1    2    0    0  0.22443807527E+03  0.40667060720E+03  0.94254481665E+03  0.10618548944E+04  0.15294330000E+03 0.  0.
<mgrwt>
<rscale>  0 0.48902463E+03</rscale>
<asrwt>0</asrwt>
<pdfrwt beam="1">  1        2 0.19376612E+00 0.48902463E+03</pdfrwt>
<pdfrwt beam="2">  1       -2 0.16185062E+00 0.48902463E+03</pdfrwt>
<totfact> 0.45743982E+00</totfact>
</mgrwt>
</event>
<event>
 4    1  0.4639964E-008  0.5350165E+03  0.7818608E-02  0.1005023E+00
          2   -1    0    0  501    0  0.00000000000E+00  0.00000000000E+00  0.72946363211E+03  0.72946363211E+03  0.25500000000E-02 0. -1.
         -2   -1    0    0    0  501 -0.00000000000E+00 -0.00000000000E+00 -0.54996026807E+03  0.54996026808E+03  0.25500000000E-02 0.  1.
    8880022    1    1    2    0    0  0.17010972053E+03 -0.48364618721E+03 -0.25265334350E+03  0.59167247394E+03  0.15294330000E+03 0.  0.
    8880022    1    1    2    0    0 -0.17010972053E+03  0.48364618721E+03  0.43215670754E+03  0.68775142625E+03  0.15294330000E+03 0.  0.
<mgrwt>
<rscale>  0 0.53501645E+03</rscale>
<asrwt>0</asrwt>
<pdfrwt beam="1">  1        2 0.11222517E+00 0.53501645E+03</pdfrwt>
<pdfrwt beam="2">  1       -2 0.84609272E-01 0.53501645E+03</pdfrwt>
<totfact> 0.48895901E+01</totfact>
</mgrwt>
</event>
<event>
 4    1  0.4639964E-008  0.2320711E+03  0.7818608E-02  0.1125190E+00
          2   -1    0    0  501    0  0.00000000000E+00  0.00000000000E+00  0.99775632156E+03  0.99775632156E+03  0.25500000000E-02 0. -1.
         -2   -1    0    0    0  501 -0.00000000000E+00 -0.00000000000E+00 -0.84045482075E+02  0.84045482114E+02  0.25500000000E-02 0.  1.
    8880022    1    1    2    0    0  0.15795379306E+03  0.74269322861E+02  0.13333003710E+03  0.26764507256E+03  0.15294330000E+03 0.  1.
    8880022    1    1    2    0    0 -0.15795379306E+03 -0.74269322861E+02  0.78038080239E+03  0.81415673111E+03  0.15294330000E+03 0.  0.
<mgrwt>
<rscale>  0 0.23207108E+03</rscale>
<asrwt>0</asrwt>
<pdfrwt beam="1">  1        2 0.15350096E+00 0.23207108E+03</pdfrwt>
<pdfrwt beam="2">  1       -2 0.12930075E-01 0.23207108E+03</pdfrwt>
<totfact> 0.11550795E+03</totfact>
</mgrwt>
</event>
<event>
 4    1  0.4639964E-008  0.4768528E+03  0.7818608E-02  0.1020004E+00
         -2   -1    0    0    0  501 -0.00000000000E+00  0.00000000000E+00  0.30118066492E+03  0.30118066493E+03  0.25500000000E-02 0.  1.
          2   -1    0    0  501    0  0.00000000000E+00 -0.00000000000E+00 -0.10965072010E+04  0.10965072010E+04  0.25500000000E-02 0. -1.
    8880022    1    1    2    0    0  0.40882609114E+03  0.19198479316E+03 -0.78767738914E+03  0.92077372681E+03  0.15294330000E+03 0.  0.
    8880022    1    1    2    0    0 -0.40882609114E+03 -0.19198479316E+03 -0.76491469090E+01  0.47691413909E+03  0.15294330000E+03 0.  0.
<mgrwt>
<rscale>  0 0.47685279E+03</rscale>
<asrwt>0</asrwt>
<pdfrwt beam="1">  1        2 0.16869341E+00 0.47685279E+03</pdfrwt>
<pdfrwt beam="2">  1       -2 0.46335487E-01 0.47685279E+03</pdfrwt>
<totfact> 0.10067000E+02</totfact>
</mgrwt>
</event>
<event>
 4    1  0.4639964E-008  0.6431285E+03  0.7818608E-02  0.9819759E-01
         -2   -1    0    0    0  501 -0.00000000000E+00  0.00000000000E+00  0.13356517954E+04  0.13356517954E+04  0.25500000000E-02 0.  1.
          2   -1    0    0  501    0  0.00000000000E+00 -0.00000000000E+00 -0.70729362311E+03  0.70729362311E+03  0.25500000000E-02 0. -1.
    8880022    1    1    2    0    0  0.56298990740E+03  0.27067509708E+03 -0.45170272744E+03  0.78590689716E+03  0.15294330000E+03 0.  0.
    8880022    1    1    2    0    0 -0.56298990740E+03 -0.27067509708E+03  0.10800608997E+04  0.12570385213E+04  0.15294330000E+03 0.  0.
<mgrwt>
<rscale>  0 0.64312852E+03</rscale>
<asrwt>0</asrwt>
<pdfrwt beam="1">  1        2 0.10881440E+00 0.64312852E+03</pdfrwt>
<pdfrwt beam="2">  1       -2 0.20548489E+00 0.64312852E+03</pdfrwt>
<totfact> 0.51374711E+00</totfact>
</mgrwt>
</event>
<event>
 4    1  0.4639964E-008  0.4263214E+03  0.7818608E-02  0.1035028E+00
          2   -1    0    0  501    0  0.00000000000E+00  0.00000000000E+00  0.13675290316E+04  0.13675290316E+04  0.25500000000E-02 0. -1.
         -2   -1    0    0    0  501 -0.00000000000E+00 -0.00000000000E+00 -0.56841243420E+03  0.56841243421E+03  0.25500000000E-02 0.  1.
    8880022    1    1    2    0    0 -0.42077071994E+02  0.39571173928E+03 -0.44772527476E+03  0.61822959753E+03  0.15294330000E+03 0.  0.
    8880022    1    1    2    0    0  0.42077071994E+02 -0.39571173928E+03  0.12468418721E+04  0.13177118682E+04  0.15294330000E+03 0.  0.
<mgrwt>
<rscale>  0 0.42632137E+03</rscale>
<asrwt>0</asrwt>
<pdfrwt beam="1">  1        2 0.21038908E+00 0.42632137E+03</pdfrwt>
<pdfrwt beam="2">  1       -2 0.87448067E-01 0.42632137E+03</pdfrwt>
<totfact> 0.18349006E+01</totfact>
</mgrwt>
</event>
<event>
 4    1  0.4639964E-008  0.5625955E+03  0.7818608E-02  0.9986199E-01
         -2   -1    0    0    0  501 -0.00000000000E+00  0.00000000000E+00  0.20602208281E+03  0.20602208282E+03  0.25500000000E-02 0.  1.
          2   -1    0    0  501    0  0.00000000000E+00 -0.00000000000E+00 -0.27691223132E+04  0.27691223132E+04  0.25500000000E-02 0. -1.
    8880022    1    1    2    0    0 -0.53387360281E+03 -0.90005907940E+02 -0.28899300608E+03  0.63247980033E+03  0.15294330000E+03 0.  0.
    8880022    1    1    2    0    0  0.53387360281E+03  0.90005907940E+02 -0.22741072243E+04  0.23426645957E+04  0.15294330000E+03 0. -1.
<mgrwt>
<rscale>  0 0.56259554E+03</rscale>
<asrwt>0</asrwt>
<pdfrwt beam="1">  1        2 0.42601879E+00 0.56259554E+03</pdfrwt>
<pdfrwt beam="2">  1       -2 0.31695707E-01 0.56259554E+03</pdfrwt>
<totfact> 0.24288120E+01</totfact>
</mgrwt>
</event>
<event>
 4    1  0.4639964E-008  0.6419893E+03  0.7818608E-02  0.9821928E-01
         -2   -1    0    0    0  501 -0.00000000000E+00  0.00000000000E+00  0.41470243507E+03  0.41470243508E+03  0.25500000000E-02 0.  1.
          2   -1    0    0  501    0  0.00000000000E+00 -0.00000000000E+00 -0.13090390977E+04  0.13090390977E+04  0.25500000000E-02 0. -1.
    8880022    1    1    2    0    0  0.49315998456E+03  0.38151259782E+03 -0.24252144539E+02  0.64244723690E+03  0.15294330000E+03 0.  0.
    8880022    1    1    2    0    0 -0.49315998456E+03 -0.38151259782E+03 -0.87008451808E+03  0.10812942959E+04  0.15294330000E+03 0.  0.
<mgrwt>
<rscale>  0 0.64198932E+03</rscale>
<asrwt>0</asrwt>
<pdfrwt beam="1">  1        2 0.20139063E+00 0.64198932E+03</pdfrwt>
<pdfrwt beam="2">  1       -2 0.63800375E-01 0.64198932E+03</pdfrwt>
<totfact> 0.38306164E+01</totfact>
</mgrwt>
</event>
<event>
 4    1  0.4639964E-008  0.1916997E+03  0.7818608E-02  0.1156937E+00
          2   -1    0    0  501    0  0.00000000000E+00  0.00000000000E+00  0.96465859137E+03  0.96465859137E+03  0.25500000000E-02 0. -1.
         -2   -1    0    0    0  501 -0.00000000000E+00 -0.00000000000E+00 -0.53408034239E+02  0.53408034300E+02  0.25500000000E-02 0.  1.
    8880022    1    1    2    0    0  0.91071479549E+02 -0.71155450416E+02  0.18305900481E+03  0.26506483126E+03  0.15294330000E+03 0.  0.
    8880022    1    1    2    0    0 -0.91071479549E+02  0.71155450416E+02  0.72819155232E+03  0.75300179442E+03  0.15294330000E+03 0.  0.
<mgrwt>
<rscale>  0 0.19169968E+03</rscale>
<asrwt>0</asrwt>
<pdfrwt beam="1">  1        2 0.14840899E+00 0.19169968E+03</pdfrwt>
<pdfrwt beam="2">  1       -2 0.82166220E-02 0.19169968E+03</pdfrwt>
<totfact> 0.24892104E+03</totfact>
</mgrwt>
</event>
<event>
 4    1  0.4639964E-008  0.7878915E+03  0.7818608E-02  0.9577711E-01
         -2   -1    0    0    0  501 -0.00000000000E+00  0.00000000000E+00  0.41316097728E+03  0.41316097729E+03  0.25500000000E-02 0.  1.
          2   -1    0    0  501    0  0.00000000000E+00 -0.00000000000E+00 -0.17875178347E+04  0.17875178347E+04  0.25500000000E-02 0. -1.
    8880022    1    1    2    0    0  0.69445702402E+03  0.33927994676E+03 -0.11265579828E+04  0.13747385141E+04  0.15294330000E+03 0.  0.
    8880022    1    1    2    0    0 -0.69445702402E+03 -0.33927994676E+03 -0.24779887467E+03  0.82594029795E+03  0.15294330000E+03 0.  0.
<mgrwt>
<rscale>  0 0.78789155E+03</rscale>
<asrwt>0</asrwt>
<pdfrwt beam="1">  1        2 0.27500274E+00 0.78789155E+03</pdfrwt>
<pdfrwt beam="2">  1       -2 0.63563228E-01 0.78789155E+03</pdfrwt>
<totfact> 0.20573733E+01</totfact>
</mgrwt>
</event>
<event>
 4    1  0.4639964E-008  0.2967393E+03  0.7818608E-02  0.1086882E+00
          2   -1    0    0  501    0  0.00000000000E+00  0.00000000000E+00  0.94312630277E+03  0.94312630277E+03  0.25500000000E-02 0. -1.
         -2   -1    0    0    0  501 -0.00000000000E+00 -0.00000000000E+00 -0.11057060768E+04  0.11057060768E+04  0.25500000000E-02 0.  1.
    8880022    1    1    2    0    0 -0.19476121983E+02 -0.25354143163E+03 -0.10615022753E+04  0.11021983989E+04  0.15294330000E+03 0.  0.
    8880022    1    1    2    0    0  0.19476121983E+02  0.25354143163E+03  0.89892250136E+03  0.94663398066E+03  0.15294330000E+03 0.  0.
<mgrwt>
<rscale>  0 0.29673933E+03</rscale>
<asrwt>0</asrwt>
<pdfrwt beam="1">  1        2 0.14509635E+00 0.29673933E+03</pdfrwt>
<pdfrwt beam="2">  1       -2 0.17010863E+00 0.29673933E+03</pdfrwt>
<totfact> 0.65256302E+00</totfact>
</mgrwt>
</event>
<event>
 4    1  0.4639964E-008  0.4612029E+03  0.7818608E-02  0.1024433E+00
         -2   -1    0    0    0  501 -0.00000000000E+00  0.00000000000E+00  0.17452513952E+03  0.17452513954E+03  0.25500000000E-02 0.  1.
          2   -1    0    0  501    0  0.00000000000E+00 -0.00000000000E+00 -0.17878370787E+04  0.17878370787E+04  0.25500000000E-02 0. -1.
    8880022    1    1    2    0    0  0.15818940561E+03 -0.40533020053E+03 -0.25309899196E+03  0.52608669652E+03  0.15294330000E+03 0.  0.
    8880022    1    1    2    0    0 -0.15818940561E+03  0.40533020053E+03 -0.13602129472E+04  0.14362755217E+04  0.15294330000E+03 0.  0.
<mgrwt>
<rscale>  0 0.46120290E+03</rscale>
<asrwt>0</asrwt>
<pdfrwt beam="1">  1        2 0.27505184E+00 0.46120290E+03</pdfrwt>
<pdfrwt beam="2">  1       -2 0.26850023E-01 0.46120290E+03</pdfrwt>
<totfact> 0.11674022E+02</totfact>
</mgrwt>
</event>
<event>
 4    1  0.4639964E-008  0.4273212E+03  0.7818608E-02  0.1034710E+00
          2   -1    0    0  501    0  0.00000000000E+00  0.00000000000E+00  0.89144224343E+03  0.89144224343E+03  0.25500000000E-02 0. -1.
         -2   -1    0    0    0  501 -0.00000000000E+00 -0.00000000000E+00 -0.83550816756E+03  0.83550816756E+03  0.25500000000E-02 0.  1.
    8880022    1    1    2    0    0 -0.38376584774E+03 -0.10924986000E+03 -0.72222910957E+03  0.83917715504E+03  0.15294330000E+03 0.  0.
    8880022    1    1    2    0    0  0.38376584774E+03  0.10924986000E+03  0.77816318544E+03  0.88777325596E+03  0.15294330000E+03 0.  0.
<mgrwt>
<rscale>  0 0.42732120E+03</rscale>
<asrwt>0</asrwt>
<pdfrwt beam="1">  1        2 0.13714496E+00 0.42732120E+03</pdfrwt>
<pdfrwt beam="2">  1       -2 0.12853972E+00 0.42732120E+03</pdfrwt>
<totfact> 0.14130891E+01</totfact>
</mgrwt>
</event>
<event>
 4    1  0.4639964E-008  0.4389095E+03  0.7818608E-02  0.1031082E+00
         -2   -1    0    0    0  501 -0.00000000000E+00  0.00000000000E+00  0.40152149921E+03  0.40152149922E+03  0.25500000000E-02 0.  1.
          2   -1    0    0  501    0  0.00000000000E+00 -0.00000000000E+00 -0.28687698919E+04  0.28687698919E+04  0.25500000000E-02 0. -1.
    8880022    1    1    2    0    0 -0.36922747309E+03  0.18144148308E+03 -0.27257857413E+04  0.27608965028E+04  0.15294330000E+03 0.  0.
    8880022    1    1    2    0    0  0.36922747309E+03 -0.18144148308E+03  0.25853734857E+03  0.50939488836E+03  0.15294330000E+03 0.  0.
<mgrwt>
<rscale>  0 0.43890955E+03</rscale>
<asrwt>0</asrwt>
<pdfrwt beam="1">  1        2 0.44134920E+00 0.43890955E+03</pdfrwt>
<pdfrwt beam="2">  1       -2 0.61772540E-01 0.43890955E+03</pdfrwt>
<totfact> 0.58604165E+00</totfact>
</mgrwt>
</event>
<event>
 4    1  0.4639964E-008  0.1417219E+04  0.7818608E-02  0.8941448E-01
          2   -1    0    0  501    0  0.00000000000E+00  0.00000000000E+00  0.13151204070E+04  0.13151204070E+04  0.25500000000E-02 0. -1.
         -2   -1    0    0    0  501 -0.00000000000E+00 -0.00000000000E+00 -0.15735723688E+04  0.15735723688E+04  0.25500000000E-02 0.  1.
    8880022    1    1    2    0    0  0.10399896739E+03 -0.14050985091E+04  0.11860366611E+03  0.14221730163E+04  0.15294330000E+03 0.  0.
    8880022    1    1    2    0    0 -0.10399896739E+03  0.14050985091E+04 -0.37705562790E+03  0.14665197596E+04  0.15294330000E+03 0.  0.
<mgrwt>
<rscale>  0 0.14172188E+04</rscale>
<asrwt>0</asrwt>
<pdfrwt beam="1">  1        2 0.20232622E+00 0.14172188E+04</pdfrwt>
<pdfrwt beam="2">  1       -2 0.24208805E+00 0.14172188E+04</pdfrwt>
<totfact> 0.11064633E+00</totfact>
</mgrwt>
</event>
<event>
 4    1  0.4639964E-008  0.8900163E+03  0.7818608E-02  0.9438148E-01
          2   -1    0    0  501    0  0.00000000000E+00  0.00000000000E+00  0.13077495953E+04  0.13077495953E+04  0.25500000000E-02 0. -1.
         -2   -1    0    0    0  501 -0.00000000000E+00 -0.00000000000E+00 -0.14550475921E+04  0.14550475921E+04  0.25500000000E-02 0.  1.
    8880022    1    1    2    0    0 -0.86919487549E+02 -0.87245762542E+03 -0.11290518107E+04  0.14376671902E+04  0.15294330000E+03 0.  0.
    8880022    1    1    2    0    0  0.86919487549E+02  0.87245762542E+03  0.98175381385E+03  0.13251299972E+04  0.15294330000E+03 0.  0.
<mgrwt>
<rscale>  0 0.89001627E+03</rscale>
<asrwt>0</asrwt>
<pdfrwt beam="1">  1        2 0.20119224E+00 0.89001627E+03</pdfrwt>
<pdfrwt beam="2">  1       -2 0.22385348E+00 0.89001627E+03</pdfrwt>
<totfact> 0.15437690E+00</totfact>
</mgrwt>
</event>
<event>
 4    1  0.4639964E-008  0.3168463E+03  0.7818608E-02  0.1077110E+00
          2   -1    0    0  501    0  0.00000000000E+00  0.00000000000E+00  0.28889562749E+04  0.28889562749E+04  0.25500000000E-02 0. -1.
         -2   -1    0    0    0  501 -0.00000000000E+00 -0.00000000000E+00 -0.70447756017E+02  0.70447756063E+02  0.25500000000E-02 0.  1.
    8880022    1    1    2    0    0 -0.21886790532E+02 -0.27662415065E+03  0.24625743135E+04  0.24828741118E+04  0.15294330000E+03 0.  0.
    8880022    1    1    2    0    0  0.21886790532E+02  0.27662415065E+03  0.35593420538E+03  0.47652991920E+03  0.15294330000E+03 0.  0.
<mgrwt>
<rscale>  0 0.31684634E+03</rscale>
<asrwt>0</asrwt>
<pdfrwt beam="1">  1        2 0.44445478E+00 0.31684634E+03</pdfrwt>
<pdfrwt beam="2">  1       -2 0.10838117E-01 0.31684634E+03</pdfrwt>
<totfact> 0.13955443E+02</totfact>
</mgrwt>
</event>
<event>
 4    1  0.4639964E-008  0.6142483E+03  0.7818608E-02  0.9876278E-01
          2   -1    0    0  501    0  0.00000000000E+00  0.00000000000E+00  0.18253185697E+04  0.18253185697E+04  0.25500000000E-02 0. -1.
         -2   -1    0    0    0  501 -0.00000000000E+00 -0.00000000000E+00 -0.63957401144E+03  0.63957401145E+03  0.25500000000E-02 0.  1.
    8880022    1    1    2    0    0  0.46893920226E+03 -0.36606744713E+03 -0.42104202543E+03  0.74469953099E+03  0.15294330000E+03 0.  0.
    8880022    1    1    2    0    0 -0.46893920226E+03  0.36606744713E+03  0.16067865837E+04  0.17201930501E+04  0.15294330000E+03 0.  0.
<mgrwt>
<rscale>  0 0.61424832E+03</rscale>
<asrwt>0</asrwt>
<pdfrwt beam="1">  1        2 0.28081824E+00 0.61424832E+03</pdfrwt>
<pdfrwt beam="2">  1       -2 0.98396002E-01 0.61424832E+03</pdfrwt>
<totfact> 0.75672178E+00</totfact>
</mgrwt>
</event>
<event>
 4    1  0.4639964E-008  0.4522862E+03  0.7818608E-02  0.1027042E+00
         -2   -1    0    0    0  501 -0.00000000000E+00  0.00000000000E+00  0.67895101245E+03  0.67895101246E+03  0.25500000000E-02 0.  1.
          2   -1    0    0  501    0  0.00000000000E+00 -0.00000000000E+00 -0.60367128904E+03  0.60367128904E+03  0.25500000000E-02 0. -1.
    8880022    1    1    2    0    0 -0.68008952448E+01  0.42558774116E+03 -0.41624344558E+03  0.61467181211E+03  0.15294330000E+03 0.  0.
    8880022    1    1    2    0    0  0.68008952448E+01 -0.42558774116E+03  0.49152316900E+03  0.66795048939E+03  0.15294330000E+03 0.  0.
<mgrwt>
<rscale>  0 0.45228623E+03</rscale>
<asrwt>0</asrwt>
<pdfrwt beam="1">  1        2 0.92872506E-01 0.45228623E+03</pdfrwt>
<pdfrwt beam="2">  1       -2 0.10445400E+00 0.45228623E+03</pdfrwt>
<totfact> 0.38200338E+01</totfact>
</mgrwt>
</event>
<event>
 4    1  0.4639964E-008  0.2851621E+03  0.7818608E-02  0.1092902E+00
         -2   -1    0    0    0  501 -0.00000000000E+00  0.00000000000E+00  0.25184492040E+03  0.25184492041E+03  0.25500000000E-02 0.  1.
          2   -1    0    0  501    0  0.00000000000E+00 -0.00000000000E+00 -0.57294982863E+03  0.57294982863E+03  0.25500000000E-02 0. -1.
    8880022    1    1    2    0    0 -0.50933417585E+02  0.23522654913E+03  0.11189474996E+03  0.30632961092E+03  0.15294330000E+03 0.  0.
    8880022    1    1    2    0    0  0.50933417585E+02 -0.23522654913E+03 -0.43299965819E+03  0.51846513812E+03  0.15294330000E+03 0. -1.
<mgrwt>
<rscale>  0 0.28516205E+03</rscale>
<asrwt>0</asrwt>
<pdfrwt beam="1">  1        2 0.88146127E-01 0.28516205E+03</pdfrwt>
<pdfrwt beam="2">  1       -2 0.38745373E-01 0.28516205E+03</pdfrwt>
<totfact> 0.33945853E+02</totfact>
</mgrwt>
</event>
<event>
 4    1  0.4639964E-008  0.9598323E+03  0.7818608E-02  0.9353731E-01
          2   -1    0    0  501    0  0.00000000000E+00  0.00000000000E+00  0.12110057910E+04  0.12110057910E+04  0.25500000000E-02 0. -1.
         -2   -1    0    0    0  501 -0.00000000000E+00 -0.00000000000E+00 -0.12242113117E+04  0.12242113117E+04  0.25500000000E-02 0.  1.
    8880022    1    1    2    0    0 -0.73160919034E+03  0.60219132070E+03  0.74257375106E+03  0.12135459707E+04  0.15294330000E+03 0.  0.
    8880022    1    1    2    0    0  0.73160919034E+03 -0.60219132070E+03 -0.75577927177E+03  0.12216711320E+04  0.15294330000E+03 0.  0.
<mgrwt>
<rscale>  0 0.95983230E+03</rscale>
<asrwt>0</asrwt>
<pdfrwt beam="1">  1        2 0.18630858E+00 0.95983230E+03</pdfrwt>
<pdfrwt beam="2">  1       -2 0.18834020E+00 0.95983230E+03</pdfrwt>
<totfact> 0.29565834E+00</totfact>
</mgrwt>
</event>
<event>
 4    1  0.4639964E-008  0.2639332E+03  0.7818608E-02  0.1104803E+00
          2   -1    0    0  501    0  0.00000000000E+00  0.00000000000E+00  0.33747447692E+04  0.33747447692E+04  0.25500000000E-02 0. -1.
         -2   -1    0    0    0  501 -0.00000000000E+00 -0.00000000000E+00 -0.30016990984E+02  0.30016991093E+02  0.25500000000E-02 0.  1.
    8880022    1    1    2    0    0  0.52408386822E+02 -0.20862032017E+03  0.72096258198E+03  0.76775502254E+03  0.15294330000E+03 0. -1.
    8880022    1    1    2    0    0 -0.52408386822E+02  0.20862032017E+03  0.26237651962E+04  0.26370067378E+04  0.15294330000E+03 0. -1.
<mgrwt>
<rscale>  0 0.26393319E+03</rscale>
<asrwt>0</asrwt>
<pdfrwt beam="1">  1        2 0.51919169E+00 0.26393319E+03</pdfrwt>
<pdfrwt beam="2">  1       -2 0.46179970E-02 0.26393319E+03</pdfrwt>
<totfact> 0.27126839E+02</totfact>
</mgrwt>
</event>
<event>
 4    1  0.4639964E-008  0.2264013E+03  0.7818608E-02  0.1129199E+00
          2   -1    0    0  501    0  0.00000000000E+00  0.00000000000E+00  0.14283033629E+03  0.14283033631E+03  0.25500000000E-02 0. -1.
         -2   -1    0    0    0  501 -0.00000000000E+00 -0.00000000000E+00 -0.57245176344E+03  0.57245176345E+03  0.25500000000E-02 0.  1.
    8880022    1    1    2    0    0  0.16692794190E+03 -0.97670779719E+00 -0.43326463242E+03  0.48885149736E+03  0.15294330000E+03 0.  1.
    8880022    1    1    2    0    0 -0.16692794190E+03  0.97670779719E+00  0.36432052714E+01  0.22643060240E+03  0.15294330000E+03 0.  0.
<mgrwt>
<rscale>  0 0.22640129E+03</rscale>
<asrwt>0</asrwt>
<pdfrwt beam="1">  1        2 0.21973898E-01 0.22640129E+03</pdfrwt>
<pdfrwt beam="2">  1       -2 0.88069501E-01 0.22640129E+03</pdfrwt>
<totfact> 0.28724336E+02</totfact>
</mgrwt>
</event>
<event>
 4    1  0.4639964E-008  0.4536038E+03  0.7818608E-02  0.1026653E+00
          2   -1    0    0  501    0  0.00000000000E+00  0.00000000000E+00  0.69181374635E+03  0.69181374636E+03  0.25500000000E-02 0. -1.
         -2   -1    0    0    0  501 -0.00000000000E+00 -0.00000000000E+00 -0.57405242441E+03  0.57405242442E+03  0.25500000000E-02 0.  1.
    8880022    1    1    2    0    0 -0.35491673807E+03 -0.23748440713E+03 -0.38049581718E+03  0.59205865798E+03  0.15294330000E+03 0.  0.
    8880022    1    1    2    0    0  0.35491673807E+03  0.23748440713E+03  0.49825713912E+03  0.67380751279E+03  0.15294330000E+03 0.  0.
<mgrwt>
<rscale>  0 0.45360378E+03</rscale>
<asrwt>0</asrwt>
<pdfrwt beam="1">  1        2 0.10643288E+00 0.45360378E+03</pdfrwt>
<pdfrwt beam="2">  1       -2 0.88315758E-01 0.45360378E+03</pdfrwt>
<totfact> 0.47847438E+01</totfact>
</mgrwt>
</event>
<event>
 4    1  0.4639964E-008  0.8609652E+03  0.7818608E-02  0.9475737E-01
          2   -1    0    0  501    0  0.00000000000E+00  0.00000000000E+00  0.36266987984E+04  0.36266987984E+04  0.25500000000E-02 0. -1.
         -2   -1    0    0    0  501 -0.00000000000E+00 -0.00000000000E+00 -0.32864118088E+03  0.32864118089E+03  0.25500000000E-02 0.  1.
    8880022    1    1    2    0    0  0.50177177130E+03 -0.68271119141E+03  0.43300237922E+03  0.96371790207E+03  0.15294330000E+03 0.  0.
    8880022    1    1    2    0    0 -0.50177177130E+03  0.68271119141E+03  0.28650552383E+04  0.29916220772E+04  0.15294330000E+03 0.  0.
<mgrwt>
<rscale>  0 0.86096523E+03</rscale>
<asrwt>0</asrwt>
<pdfrwt beam="1">  1        2 0.55795370E+00 0.86096523E+03</pdfrwt>
<pdfrwt beam="2">  1       -2 0.50560179E-01 0.86096523E+03</pdfrwt>
<totfact> 0.26067532E+00</totfact>
</mgrwt>
</event>
<event>
 4    1  0.4639964E-008  0.1848056E+03  0.7818608E-02  0.1163232E+00
         -2   -1    0    0    0  501 -0.00000000000E+00  0.00000000000E+00  0.82431053126E+02  0.82431053165E+02  0.25500000000E-02 0.  1.
          2   -1    0    0  501    0  0.00000000000E+00 -0.00000000000E+00 -0.92641889231E+03  0.92641889231E+03  0.25500000000E-02 0. -1.
    8880022    1    1    2    0    0 -0.47958987253E+02  0.91985875968E+02 -0.79702592337E+03  0.81817078986E+03  0.15294330000E+03 0.  0.
    8880022    1    1    2    0    0  0.47958987253E+02 -0.91985875968E+02 -0.46961915812E+02  0.19067915562E+03  0.15294330000E+03 0.  1.
<mgrwt>
<rscale>  0 0.18480562E+03</rscale>
<asrwt>0</asrwt>
<pdfrwt beam="1">  1        2 0.14252598E+00 0.18480562E+03</pdfrwt>
<pdfrwt beam="2">  1       -2 0.12681701E-01 0.18480562E+03</pdfrwt>
<totfact> 0.13201564E+03</totfact>
</mgrwt>
</event>
<event>
 4    1  0.4639964E-008  0.5800145E+03  0.7818608E-02  0.9947760E-01
         -2   -1    0    0    0  501 -0.00000000000E+00  0.00000000000E+00  0.31297743888E+03  0.31297743889E+03  0.25500000000E-02 0.  1.
          2   -1    0    0  501    0  0.00000000000E+00 -0.00000000000E+00 -0.12421358151E+04  0.12421358151E+04  0.25500000000E-02 0. -1.
    8880022    1    1    2    0    0 -0.51686756358E+03 -0.21418006675E+03 -0.17926525107E+03  0.60708554795E+03  0.15294330000E+03 0.  0.
    8880022    1    1    2    0    0  0.51686756358E+03  0.21418006675E+03 -0.74989312513E+03  0.94802770603E+03  0.15294330000E+03 0.  0.
<mgrwt>
<rscale>  0 0.58001451E+03</rscale>
<asrwt>0</asrwt>
<pdfrwt beam="1">  1        2 0.19109782E+00 0.58001451E+03</pdfrwt>
<pdfrwt beam="2">  1       -2 0.48150376E-01 0.58001451E+03</pdfrwt>
<totfact> 0.75553618E+01</totfact>
</mgrwt>
</event>
<event>
 4    1  0.4639964E-008  0.7136390E+03  0.7818608E-02  0.9694188E-01
          2   -1    0    0  501    0  0.00000000000E+00  0.00000000000E+00  0.11235755534E+04  0.11235755534E+04  0.25500000000E-02 0. -1.
         -2   -1    0    0    0  501 -0.00000000000E+00 -0.00000000000E+00 -0.11617704650E+04  0.11617704650E+04  0.25500000000E-02 0.  1.
    8880022    1    1    2    0    0  0.39859461613E+03 -0.57184897869E+03 -0.91144197273E+03  0.11575867333E+04  0.15294330000E+03 0.  0.
    8880022    1    1    2    0    0 -0.39859461613E+03  0.57184897869E+03  0.87324706112E+03  0.11277592851E+04  0.15294330000E+03 0.  0.
<mgrwt>
<rscale>  0 0.71363897E+03</rscale>
<asrwt>0</asrwt>
<pdfrwt beam="1">  1        2 0.17285778E+00 0.71363897E+03</pdfrwt>
<pdfrwt beam="2">  1       -2 0.17873392E+00 0.71363897E+03</pdfrwt>
<totfact> 0.40097075E+00</totfact>
</mgrwt>
</event>
<event>
 4    1  0.4639964E-008  0.4304854E+03  0.7818608E-02  0.1033707E+00
          2   -1    0    0  501    0  0.00000000000E+00  0.00000000000E+00  0.12499830318E+04  0.12499830318E+04  0.25500000000E-02 0. -1.
         -2   -1    0    0    0  501 -0.00000000000E+00 -0.00000000000E+00 -0.21484651279E+03  0.21484651281E+03  0.25500000000E-02 0.  1.
    8880022    1    1    2    0    0 -0.95938650019E+02  0.39079641098E+03  0.10981398228E+03  0.44427111444E+03  0.15294330000E+03 0.  0.
    8880022    1    1    2    0    0  0.95938650019E+02 -0.39079641098E+03  0.92532253677E+03  0.10205584302E+04  0.15294330000E+03 0.  0.
<mgrwt>
<rscale>  0 0.43048544E+03</rscale>
<asrwt>0</asrwt>
<pdfrwt beam="1">  1        2 0.19230508E+00 0.43048544E+03</pdfrwt>
<pdfrwt beam="2">  1       -2 0.33053310E-01 0.43048544E+03</pdfrwt>
<totfact> 0.15781442E+02</totfact>
</mgrwt>
</event>
<event>
 4    1  0.4639964E-008  0.6810175E+03  0.7818608E-02  0.9750257E-01
          2   -1    0    0  501    0  0.00000000000E+00  0.00000000000E+00  0.12093717941E+04  0.12093717941E+04  0.25500000000E-02 0. -1.
         -2   -1    0    0    0  501 -0.00000000000E+00 -0.00000000000E+00 -0.61487780543E+03  0.61487780544E+03  0.25500000000E-02 0.  1.
    8880022    1    1    2    0    0  0.60225183521E+03 -0.27872203605E+03  0.85678273260E+03  0.10944686155E+04  0.15294330000E+03 0.  0.
    8880022    1    1    2    0    0 -0.60225183521E+03  0.27872203605E+03 -0.26228874398E+03  0.72978098401E+03  0.15294330000E+03 0.  0.
<mgrwt>
<rscale>  0 0.68101755E+03</rscale>
<asrwt>0</asrwt>
<pdfrwt beam="1">  1        2 0.18605720E+00 0.68101755E+03</pdfrwt>
<pdfrwt beam="2">  1       -2 0.94596585E-01 0.68101755E+03</pdfrwt>
<totfact> 0.18090804E+01</totfact>
</mgrwt>
</event>
<event>
 4    1  0.4639964E-008  0.4621006E+03  0.7818608E-02  0.1024174E+00
          2   -1    0    0  501    0  0.00000000000E+00  0.00000000000E+00  0.20182374770E+04  0.20182374770E+04  0.25500000000E-02 0. -1.
         -2   -1    0    0    0  501 -0.00000000000E+00 -0.00000000000E+00 -0.13411318800E+03  0.13411318803E+03  0.25500000000E-02 0.  1.
    8880022    1    1    2    0    0  0.11799382802E+03 -0.41978895630E+03  0.44762236398E+03  0.64335273765E+03  0.15294330000E+03 0.  0.
    8880022    1    1    2    0    0 -0.11799382802E+03  0.41978895630E+03  0.14365019250E+04  0.15089979274E+04  0.15294330000E+03 0.  0.
<mgrwt>
<rscale>  0 0.46210060E+03</rscale>
<asrwt>0</asrwt>
<pdfrwt beam="1">  1        2 0.31049804E+00 0.46210060E+03</pdfrwt>
<pdfrwt beam="2">  1       -2 0.20632800E-01 0.46210060E+03</pdfrwt>
<totfact> 0.14014255E+02</totfact>
</mgrwt>
</event>
<event>
 4    1  0.4639964E-008  0.2733478E+03  0.7818608E-02  0.1099379E+00
         -2   -1    0    0    0  501 -0.00000000000E+00  0.00000000000E+00  0.13649074949E+03  0.13649074951E+03  0.25500000000E-02 0.  1.
          2   -1    0    0  501    0  0.00000000000E+00 -0.00000000000E+00 -0.76474131790E+03  0.76474131790E+03  0.25500000000E-02 0. -1.
    8880022    1    1    2    0    0 -0.21402966240E+03 -0.74287899087E+02 -0.55433534446E+03  0.61806691828E+03  0.15294330000E+03 0.  0.
    8880022    1    1    2    0    0  0.21402966240E+03  0.74287899087E+02 -0.73915223950E+02  0.28316514914E+03  0.15294330000E+03 0.  0.
<mgrwt>
<rscale>  0 0.27334784E+03</rscale>
<asrwt>0</asrwt>
<pdfrwt beam="1">  1        2 0.11765251E+00 0.27334784E+03</pdfrwt>
<pdfrwt beam="2">  1       -2 0.20998577E-01 0.27334784E+03</pdfrwt>
<totfact> 0.72836627E+02</totfact>
</mgrwt>
</event>
<event>
 4    1  0.4639964E-008  0.7207991E+03  0.7818608E-02  0.9682310E-01
         -2   -1    0    0    0  501 -0.00000000000E+00  0.00000000000E+00  0.61904154710E+03  0.61904154710E+03  0.25500000000E-02 0.  1.
          2   -1    0    0  501    0  0.00000000000E+00 -0.00000000000E+00 -0.15674244113E+04  0.15674244113E+04  0.25500000000E-02 0. -1.
    8880022    1    1    2    0    0 -0.61153833513E+03  0.34954339078E+03  0.27093012994E+03  0.77003539249E+03  0.15294330000E+03 0.  0.
    8880022    1    1    2    0    0  0.61153833513E+03 -0.34954339078E+03 -0.12193129942E+04  0.14164305660E+04  0.15294330000E+03 0.  0.
<mgrwt>
<rscale>  0 0.72079912E+03</rscale>
<asrwt>0</asrwt>
<pdfrwt beam="1">  1        2 0.24114222E+00 0.72079912E+03</pdfrwt>
<pdfrwt beam="2">  1       -2 0.95237162E-01 0.72079912E+03</pdfrwt>
<totfact> 0.11100226E+01</totfact>
</mgrwt>
</event>
<event>
 4    1  0.4639964E-008  0.7212831E+03  0.7818608E-02  0.9681512E-01
         -2   -1    0    0    0  501 -0.00000000000E+00  0.00000000000E+00  0.32649169407E+03  0.32649169408E+03  0.25500000000E-02 0.  1.
          2   -1    0    0  501    0  0.00000000000E+00 -0.00000000000E+00 -0.32865356643E+04  0.32865356643E+04  0.25500000000E-02 0. -1.
    8880022    1    1    2    0    0  0.43477460385E+03  0.55482319014E+03 -0.27766370939E+04  0.28687911971E+04  0.15294330000E+03 0.  0.
    8880022    1    1    2    0    0 -0.43477460385E+03 -0.55482319014E+03 -0.18340687639E+03  0.74423616131E+03  0.15294330000E+03 0.  0.
<mgrwt>
<rscale>  0 0.72128315E+03</rscale>
<asrwt>0</asrwt>
<pdfrwt beam="1">  1        2 0.50562085E+00 0.72128315E+03</pdfrwt>
<pdfrwt beam="2">  1       -2 0.50229494E-01 0.72128315E+03</pdfrwt>
<totfact> 0.46157066E+00</totfact>
</mgrwt>
</event>
<event>
 4    1  0.4639964E-008  0.2071325E+03  0.7818608E-02  0.1143857E+00
          2   -1    0    0  501    0  0.00000000000E+00  0.00000000000E+00  0.21222589314E+03  0.21222589316E+03  0.25500000000E-02 0. -1.
         -2   -1    0    0    0  501 -0.00000000000E+00 -0.00000000000E+00 -0.25736690890E+03  0.25736690891E+03  0.25500000000E-02 0.  1.
    8880022    1    1    2    0    0 -0.51846587235E+02  0.12970793779E+03 -0.13131481514E+03  0.24524977354E+03  0.15294330000E+03 0.  0.
    8880022    1    1    2    0    0  0.51846587235E+02 -0.12970793779E+03  0.86173799381E+02  0.22434302852E+03  0.15294330000E+03 0.  0.
<mgrwt>
<rscale>  0 0.20713250E+03</rscale>
<asrwt>0</asrwt>
<pdfrwt beam="1">  1        2 0.32650137E-01 0.20713250E+03</pdfrwt>
<pdfrwt beam="2">  1       -2 0.39594909E-01 0.20713250E+03</pdfrwt>
<totfact> 0.96686601E+02</totfact>
</mgrwt>
</event>
<event>
 4    1  0.4639964E-008  0.1480980E+04  0.7818608E-02  0.8897200E-01
         -2   -1    0    0    0  501 -0.00000000000E+00  0.00000000000E+00  0.16218075777E+04  0.16218075777E+04  0.25500000000E-02 0.  1.
          2   -1    0    0  501    0  0.00000000000E+00 -0.00000000000E+00 -0.18138996302E+04  0.18138996302E+04  0.25500000000E-02 0. -1.
    8880022    1    1    2    0    0 -0.91201026678E+03 -0.11567833736E+04 -0.96255691960E+03  0.17663006473E+04  0.15294330000E+03 0.  0.
    8880022    1    1    2    0    0  0.91201026678E+03  0.11567833736E+04  0.77046486705E+03  0.16694065606E+04  0.15294330000E+03 0.  0.
<mgrwt>
<rscale>  0 0.14809801E+04</rscale>
<asrwt>0</asrwt>
<pdfrwt beam="1">  1        2 0.27906148E+00 0.14809801E+04</pdfrwt>
<pdfrwt beam="2">  1       -2 0.24950886E+00 0.14809801E+04</pdfrwt>
<totfact> 0.51570678E-01</totfact>
</mgrwt>
</event>
<event>
 4    1  0.4639964E-008  0.1864260E+03  0.7818608E-02  0.1161725E+00
         -2   -1    0    0    0  501 -0.00000000000E+00  0.00000000000E+00  0.98488047245E+03  0.98488047245E+03  0.25500000000E-02 0.  1.
          2   -1    0    0  501    0  0.00000000000E+00 -0.00000000000E+00 -0.14287131334E+03  0.14287131336E+03  0.25500000000E-02 0. -1.
    8880022    1    1    2    0    0 -0.70411224076E+02 -0.80032849622E+02 -0.68304281915E+02  0.19854502118E+03  0.15294330000E+03 0. -1.
    8880022    1    1    2    0    0  0.70411224076E+02  0.80032849622E+02  0.91031344102E+03  0.92920676462E+03  0.15294330000E+03 0.  0.
<mgrwt>
<rscale>  0 0.18642599E+03</rscale>
<asrwt>0</asrwt>
<pdfrwt beam="1">  1        2 0.21980202E-01 0.18642599E+03</pdfrwt>
<pdfrwt beam="2">  1       -2 0.15152007E+00 0.18642599E+03</pdfrwt>
<totfact> 0.78016247E+01</totfact>
</mgrwt>
</event>
<event>
 4    1  0.4639964E-008  0.5624777E+03  0.7818608E-02  0.9986464E-01
         -2   -1    0    0    0  501 -0.00000000000E+00  0.00000000000E+00  0.40022359223E+03  0.40022359224E+03  0.25500000000E-02 0.  1.
          2   -1    0    0  501    0  0.00000000000E+00 -0.00000000000E+00 -0.12174051272E+04  0.12174051272E+04  0.25500000000E-02 0. -1.
    8880022    1    1    2    0    0 -0.54127583945E+03 -0.31563551900E+01  0.70360561587E+02  0.56686132219E+03  0.15294330000E+03 0.  0.
    8880022    1    1    2    0    0  0.54127583945E+03  0.31563551900E+01 -0.88754209658E+03  0.10507673973E+04  0.15294330000E+03 0.  0.
<mgrwt>
<rscale>  0 0.56247769E+03</rscale>
<asrwt>0</asrwt>
<pdfrwt beam="1">  1        2 0.18729310E+00 0.56247769E+03</pdfrwt>
<pdfrwt beam="2">  1       -2 0.61572861E-01 0.56247769E+03</pdfrwt>
<totfact> 0.47129058E+01</totfact>
</mgrwt>
</event>
<event>
 4    1  0.4639964E-008  0.6580240E+03  0.7818608E-02  0.9791838E-01
          2   -1    0    0  501    0  0.00000000000E+00  0.00000000000E+00  0.23642361797E+04  0.23642361797E+04  0.25500000000E-02 0. -1.
         -2   -1    0    0    0  501 -0.00000000000E+00 -0.00000000000E+00 -0.36676397367E+03  0.36676397368E+03  0.25500000000E-02 0.  1.
    8880022    1    1    2    0    0 -0.74034843487E+02  0.63570648750E+03  0.32555275291E+02  0.65882880574E+03  0.15294330000E+03 0.  0.
    8880022    1    1    2    0    0  0.74034843487E+02 -0.63570648750E+03  0.19649169308E+04  0.20721713477E+04  0.15294330000E+03 0.  0.
<mgrwt>
<rscale>  0 0.65802397E+03</rscale>
<asrwt>0</asrwt>
<pdfrwt beam="1">  1        2 0.36372864E+00 0.65802397E+03</pdfrwt>
<pdfrwt beam="2">  1       -2 0.56425227E-01 0.65802397E+03</pdfrwt>
<totfact> 0.13025636E+01</totfact>
</mgrwt>
</event>
<event>
 4    1  0.4639964E-008  0.4911642E+03  0.7818608E-02  0.1016111E+00
         -2   -1    0    0    0  501 -0.00000000000E+00  0.00000000000E+00  0.23046543484E+03  0.23046543485E+03  0.25500000000E-02 0.  1.
          2   -1    0    0  501    0  0.00000000000E+00 -0.00000000000E+00 -0.12818345143E+04  0.12818345143E+04  0.25500000000E-02 0. -1.
    8880022    1    1    2    0    0 -0.78984526900E+02  0.46001307034E+03 -0.84949717719E+03  0.98126840744E+03  0.15294330000E+03 0. -1.
    8880022    1    1    2    0    0  0.78984526900E+02 -0.46001307034E+03 -0.20187190230E+03  0.53103154175E+03  0.15294330000E+03 0.  0.
<mgrwt>
<rscale>  0 0.49116416E+03</rscale>
<asrwt>0</asrwt>
<pdfrwt beam="1">  1        2 0.19720531E+00 0.49116416E+03</pdfrwt>
<pdfrwt beam="2">  1       -2 0.35456221E-01 0.49116416E+03</pdfrwt>
<totfact> 0.13163758E+02</totfact>
</mgrwt>
</event>
<event>
 4    1  0.4639964E-008  0.8361153E+03  0.7818608E-02  0.9509164E-01
          2   -1    0    0  501    0  0.00000000000E+00  0.00000000000E+00  0.42017307171E+03  0.42017307172E+03  0.25500000000E-02 0. -1.
         -2   -1    0    0    0  501 -0.00000000000E+00 -0.00000000000E+00 -0.29379286645E+04  0.29379286645E+04  0.25500000000E-02 0.  1.
    8880022    1    1    2    0    0 -0.82141973539E+03  0.31091995390E+02 -0.15315075549E+03  0.85002582360E+03  0.15294330000E+03 0.  0.
    8880022    1    1    2    0    0  0.82141973539E+03 -0.31091995390E+02 -0.23646048373E+04  0.25080759126E+04  0.15294330000E+03 0.  0.
<mgrwt>
<rscale>  0 0.83611527E+03</rscale>
<asrwt>0</asrwt>
<pdfrwt beam="1">  1        2 0.64642013E-01 0.83611527E+03</pdfrwt>
<pdfrwt beam="2">  1       -2 0.45198901E+00 0.83611527E+03</pdfrwt>
<totfact> 0.26562972E-01</totfact>
</mgrwt>
</event>
<event>
 4    1  0.4639964E-008  0.7109096E+03  0.7818608E-02  0.9698755E-01
          2   -1    0    0  501    0  0.00000000000E+00  0.00000000000E+00  0.16461925529E+04  0.16461925529E+04  0.25500000000E-02 0. -1.
         -2   -1    0    0    0  501 -0.00000000000E+00 -0.00000000000E+00 -0.41997546556E+03  0.41997546556E+03  0.25500000000E-02 0.  1.
    8880022    1    1    2    0    0 -0.57969663690E+03  0.38203747240E+03  0.77308821152E+02  0.71510078170E+03  0.15294330000E+03 0.  0.
    8880022    1    1    2    0    0  0.57969663690E+03 -0.38203747240E+03  0.11489082662E+04  0.13510672368E+04  0.15294330000E+03 0.  0.
<mgrwt>
<rscale>  0 0.71090961E+03</rscale>
<asrwt>0</asrwt>
<pdfrwt beam="1">  1        2 0.25326039E+00 0.71090961E+03</pdfrwt>
<pdfrwt beam="2">  1       -2 0.64611610E-01 0.71090961E+03</pdfrwt>
<totfact> 0.23969574E+01</totfact>
</mgrwt>
</event>
<event>
 4    1  0.4639964E-008  0.5030403E+03  0.7818608E-02  0.1012988E+00
         -2   -1    0    0    0  501 -0.00000000000E+00  0.00000000000E+00  0.11386664598E+04  0.11386664598E+04  0.25500000000E-02 0.  1.
          2   -1    0    0  501    0  0.00000000000E+00 -0.00000000000E+00 -0.56962019249E+03  0.56962019250E+03  0.25500000000E-02 0. -1.
    8880022    1    1    2    0    0  0.39018057611E+03  0.27823903231E+03 -0.38250605468E+03  0.63194966252E+03  0.15294330000E+03 0.  0.
    8880022    1    1    2    0    0 -0.39018057611E+03 -0.27823903231E+03  0.95155232194E+03  0.10763369897E+04  0.15294330000E+03 0.  0.
<mgrwt>
<rscale>  0 0.50304025E+03</rscale>
<asrwt>0</asrwt>
<pdfrwt beam="1">  1        2 0.87633877E-01 0.50304025E+03</pdfrwt>
<pdfrwt beam="2">  1       -2 0.17517945E+00 0.50304025E+03</pdfrwt>
<totfact> 0.10852877E+01</totfact>
</mgrwt>
</event>
<event>
 4    1  0.4639964E-008  0.2004045E+03  0.7818608E-02  0.1149398E+00
         -2   -1    0    0    0  501 -0.00000000000E+00  0.00000000000E+00  0.15530952064E+03  0.15530952066E+03  0.25500000000E-02 0.  1.
          2   -1    0    0  501    0  0.00000000000E+00 -0.00000000000E+00 -0.95824968464E+03  0.95824968464E+03  0.25500000000E-02 0. -1.
    8880022    1    1    2    0    0  0.12660643024E+03 -0.27223207389E+02  0.74288344844E+02  0.21373044330E+03  0.15294330000E+03 0.  1.
    8880022    1    1    2    0    0 -0.12660643024E+03  0.27223207389E+02 -0.87722850884E+03  0.89982876201E+03  0.15294330000E+03 0.  0.
<mgrwt>
<rscale>  0 0.20040445E+03</rscale>
<asrwt>0</asrwt>
<pdfrwt beam="1">  1        2 0.14742303E+00 0.20040445E+03</pdfrwt>
<pdfrwt beam="2">  1       -2 0.23893773E-01 0.20040445E+03</pdfrwt>
<totfact> 0.43524664E+02</totfact>
</mgrwt>
</event>
<event>
 4    1  0.4639964E-008  0.4017281E+03  0.7818608E-02  0.1043183E+00
          2   -1    0    0  501    0  0.00000000000E+00  0.00000000000E+00  0.64921110418E+03  0.64921110418E+03  0.25500000000E-02 0. -1.
         -2   -1    0    0    0  501 -0.00000000000E+00 -0.00000000000E+00 -0.48092517049E+03  0.48092517050E+03  0.25500000000E-02 0.  1.
    8880022    1    1    2    0    0 -0.31920105110E+03 -0.19001174484E+03 -0.30861261651E+03  0.50658382750E+03  0.15294330000E+03 0.  1.
    8880022    1    1    2    0    0  0.31920105110E+03  0.19001174484E+03  0.47689855019E+03  0.62355244719E+03  0.15294330000E+03 0.  0.
<mgrwt>
<rscale>  0 0.40172805E+03</rscale>
<asrwt>0</asrwt>
<pdfrwt beam="1">  1        2 0.99878631E-01 0.40172805E+03</pdfrwt>
<pdfrwt beam="2">  1       -2 0.73988488E-01 0.40172805E+03</pdfrwt>
<totfact> 0.77291343E+01</totfact>
</mgrwt>
</event>
<event>
 4    1  0.4639964E-008  0.8835127E+03  0.7818608E-02  0.9446429E-01
         -2   -1    0    0    0  501 -0.00000000000E+00  0.00000000000E+00  0.61274235258E+03  0.61274235259E+03  0.25500000000E-02 0.  1.
          2   -1    0    0  501    0  0.00000000000E+00 -0.00000000000E+00 -0.21652970779E+04  0.21652970779E+04  0.25500000000E-02 0. -1.
    8880022    1    1    2    0    0 -0.61808438374E+03 -0.61251502610E+03  0.11492528658E+03  0.89095591200E+03  0.15294330000E+03 0.  0.
    8880022    1    1    2    0    0  0.61808438374E+03  0.61251502610E+03 -0.16674800119E+04  0.18870835184E+04  0.15294330000E+03 0.  0.
<mgrwt>
<rscale>  0 0.88351266E+03</rscale>
<asrwt>0</asrwt>
<pdfrwt beam="1">  1        2 0.33312262E+00 0.88351266E+03</pdfrwt>
<pdfrwt beam="2">  1       -2 0.94268055E-01 0.88351266E+03</pdfrwt>
<totfact> 0.52228557E+00</totfact>
</mgrwt>
</event>
<event>
 4    1  0.4639964E-008  0.5967832E+03  0.7818608E-02  0.9912103E-01
         -2   -1    0    0    0  501 -0.00000000000E+00  0.00000000000E+00  0.98524172577E+03  0.98524172577E+03  0.25500000000E-02 0.  1.
          2   -1    0    0  501    0  0.00000000000E+00 -0.00000000000E+00 -0.62338469255E+03  0.62338469255E+03  0.25500000000E-02 0. -1.
    8880022    1    1    2    0    0  0.10711653509E+03  0.56681966387E+03  0.70226077949E+03  0.92158577401E+03  0.15294330000E+03 0.  0.
    8880022    1    1    2    0    0 -0.10711653509E+03 -0.56681966387E+03 -0.34040374627E+03  0.68704064431E+03  0.15294330000E+03 0.  0.
<mgrwt>
<rscale>  0 0.59678316E+03</rscale>
<asrwt>0</asrwt>
<pdfrwt beam="1">  1        2 0.95905338E-01 0.59678316E+03</pdfrwt>
<pdfrwt beam="2">  1       -2 0.15157565E+00 0.59678316E+03</pdfrwt>
<totfact> 0.14239014E+01</totfact>
</mgrwt>
</event>
<event>
 4    1  0.4639964E-008  0.2244567E+03  0.7818608E-02  0.1130603E+00
         -2   -1    0    0    0  501 -0.00000000000E+00  0.00000000000E+00  0.50252610796E+03  0.50252610797E+03  0.25500000000E-02 0.  1.
          2   -1    0    0  501    0  0.00000000000E+00 -0.00000000000E+00 -0.91154090968E+03  0.91154090968E+03  0.25500000000E-02 0. -1.
    8880022    1    1    2    0    0 -0.13518357168E+03 -0.93351766814E+02 -0.87152740023E+03  0.89996711761E+03  0.15294330000E+03 0.  0.
    8880022    1    1    2    0    0  0.13518357168E+03  0.93351766814E+02  0.46251259852E+03  0.51409990004E+03  0.15294330000E+03 0.  0.
<mgrwt>
<rscale>  0 0.22445668E+03</rscale>
<asrwt>0</asrwt>
<pdfrwt beam="1">  1        2 0.14023706E+00 0.22445668E+03</pdfrwt>
<pdfrwt beam="2">  1       -2 0.77311709E-01 0.22445668E+03</pdfrwt>
<totfact> 0.47125819E+01</totfact>
</mgrwt>
</event>
<event>
 4    1  0.4639964E-008  0.4871291E+03  0.7818608E-02  0.1017194E+00
          2   -1    0    0  501    0  0.00000000000E+00  0.00000000000E+00  0.44460498051E+03  0.44460498052E+03  0.25500000000E-02 0. -1.
         -2   -1    0    0    0  501 -0.00000000000E+00 -0.00000000000E+00 -0.87271354611E+03  0.87271354612E+03  0.25500000000E-02 0.  1.
    8880022    1    1    2    0    0 -0.45799087109E+03  0.64400590623E+02  0.19645259184E+03  0.52525074767E+03  0.15294330000E+03 0.  0.
    8880022    1    1    2    0    0  0.45799087109E+03 -0.64400590623E+02 -0.62456115744E+03  0.79206777897E+03  0.15294330000E+03 0.  0.
<mgrwt>
<rscale>  0 0.48712907E+03</rscale>
<asrwt>0</asrwt>
<pdfrwt beam="1">  1        2 0.68400766E-01 0.48712907E+03</pdfrwt>
<pdfrwt beam="2">  1       -2 0.13426362E+00 0.48712907E+03</pdfrwt>
<totfact> 0.29269756E+01</totfact>
</mgrwt>
</event>
<event>
 4    1  0.4639964E-008  0.2023330E+03  0.7818608E-02  0.1147785E+00
          2   -1    0    0  501    0  0.00000000000E+00  0.00000000000E+00  0.23800071282E+04  0.23800071282E+04  0.25500000000E-02 0. -1.
         -2   -1    0    0    0  501 -0.00000000000E+00 -0.00000000000E+00 -0.89767483931E+03  0.89767483931E+03  0.25500000000E-02 0.  1.
    8880022    1    1    2    0    0  0.62687908504E+02 -0.11669274307E+03  0.23642296236E+04  0.23728717488E+04  0.15294330000E+03 0.  0.
    8880022    1    1    2    0    0 -0.62687908504E+02  0.11669274307E+03 -0.88189733464E+03  0.90481021878E+03  0.15294330000E+03 0.  1.
<mgrwt>
<rscale>  0 0.20233295E+03</rscale>
<asrwt>0</asrwt>
<pdfrwt beam="1">  1        2 0.36615494E+00 0.20233295E+03</pdfrwt>
<pdfrwt beam="2">  1       -2 0.13810382E+00 0.20233295E+03</pdfrwt>
<totfact> 0.19532533E+00</totfact>
</mgrwt>
</event>
<event>
 4    1  0.4639964E-008  0.6127457E+03  0.7818608E-02  0.9879310E-01
          2   -1    0    0  501    0  0.00000000000E+00  0.00000000000E+00  0.33690330292E+04  0.33690330292E+04  0.25500000000E-02 0. -1.
         -2   -1    0    0    0  501 -0.00000000000E+00 -0.00000000000E+00 -0.26159776584E+03  0.26159776586E+03  0.25500000000E-02 0.  1.
    8880022    1    1    2    0    0  0.54554146597E+03 -0.23334567872E+03  0.17839784450E+03  0.63818738691E+03  0.15294330000E+03 0.  0.
    8880022    1    1    2    0    0 -0.54554146597E+03  0.23334567872E+03  0.29290374189E+04  0.29924434082E+04  0.15294330000E+03 0.  0.
<mgrwt>
<rscale>  0 0.61274575E+03</rscale>
<asrwt>0</asrwt>
<pdfrwt beam="1">  1        2 0.51831278E+00 0.61274575E+03</pdfrwt>
<pdfrwt beam="2">  1       -2 0.40245810E-01 0.61274575E+03</pdfrwt>
<totfact> 0.64970666E+00</totfact>
</mgrwt>
</event>
<event>
 4    1  0.4639964E-008  0.1172611E+04  0.7818608E-02  0.9137174E-01
         -2   -1    0    0    0  501 -0.00000000000E+00  0.00000000000E+00  0.12695967702E+04  0.12695967702E+04  0.25500000000E-02 0.  1.
          2   -1    0    0  501    0  0.00000000000E+00 -0.00000000000E+00 -0.21014898831E+04  0.21014898831E+04  0.25500000000E-02 0. -1.
    8880022    1    1    2    0    0 -0.92949913583E+03 -0.69832314425E+03  0.75745737828E+03  0.13959789362E+04  0.15294330000E+03 0.  0.
    8880022    1    1    2    0    0  0.92949913583E+03  0.69832314425E+03 -0.15893504912E+04  0.19751077171E+04  0.15294330000E+03 0.  0.
<mgrwt>
<rscale>  0 0.11726106E+04</rscale>
<asrwt>0</asrwt>
<pdfrwt beam="1">  1        2 0.32330614E+00 0.11726106E+04</pdfrwt>
<pdfrwt beam="2">  1       -2 0.19532258E+00 0.11726106E+04</pdfrwt>
<totfact> 0.81703508E-01</totfact>
</mgrwt>
</event>
<event>
 4    1  0.4639964E-008  0.3726203E+03  0.7818608E-02  0.1053696E+00
          2   -1    0    0  501    0  0.00000000000E+00  0.00000000000E+00  0.34229616155E+04  0.34229616155E+04  0.25500000000E-02 0. -1.
         -2   -1    0    0    0  501 -0.00000000000E+00 -0.00000000000E+00 -0.20045206720E+03  0.20045206722E+03  0.25500000000E-02 0.  1.
    8880022    1    1    2    0    0 -0.30108126836E+03 -0.15749379663E+03 -0.67951786713E+01  0.37268224214E+03  0.15294330000E+03 0.  0.
    8880022    1    1    2    0    0  0.30108126836E+03  0.15749379663E+03  0.32293047270E+04  0.32507314406E+04  0.15294330000E+03 0. -1.
<mgrwt>
<rscale>  0 0.37262029E+03</rscale>
<asrwt>0</asrwt>
<pdfrwt beam="1">  1        2 0.52660945E+00 0.37262029E+03</pdfrwt>
<pdfrwt beam="2">  1       -2 0.30838781E-01 0.37262029E+03</pdfrwt>
<totfact> 0.10681085E+01</totfact>
</mgrwt>
</event>
<event>
 4    1  0.4639964E-008  0.3963629E+03  0.7818608E-02  0.1045046E+00
          2   -1    0    0  501    0  0.00000000000E+00  0.00000000000E+00  0.99172339328E+03  0.99172339328E+03  0.25500000000E-02 0. -1.
         -2   -1    0    0    0  501 -0.00000000000E+00 -0.00000000000E+00 -0.11858884545E+04  0.11858884545E+04  0.25500000000E-02 0.  1.
    8880022    1    1    2    0    0 -0.99634962772E+02 -0.35183055266E+03 -0.11105596148E+04  0.11791718173E+04  0.15294330000E+03 0.  0.
    8880022    1    1    2    0    0  0.99634962772E+02  0.35183055266E+03  0.91639455361E+03  0.99844003049E+03  0.15294330000E+03 0.  0.
<mgrwt>
<rscale>  0 0.39636286E+03</rscale>
<asrwt>0</asrwt>
<pdfrwt beam="1">  1        2 0.15257283E+00 0.39636286E+03</pdfrwt>
<pdfrwt beam="2">  1       -2 0.18244438E+00 0.39636286E+03</pdfrwt>
<totfact> 0.48611406E+00</totfact>
</mgrwt>
</event>
<event>
 4    1  0.4639964E-008  0.3425147E+03  0.7818608E-02  0.1065730E+00
         -2   -1    0    0    0  501 -0.00000000000E+00  0.00000000000E+00  0.30913620714E+03  0.30913620715E+03  0.25500000000E-02 0.  1.
          2   -1    0    0  501    0  0.00000000000E+00 -0.00000000000E+00 -0.17941899863E+04  0.17941899863E+04  0.25500000000E-02 0. -1.
    8880022    1    1    2    0    0  0.19386665814E+03 -0.23736124165E+03 -0.16763691112E+04  0.17110025395E+04  0.15294330000E+03 0. -1.
    8880022    1    1    2    0    0 -0.19386665814E+03  0.23736124165E+03  0.19131533202E+03  0.39232365396E+03  0.15294330000E+03 0.  0.
<mgrwt>
<rscale>  0 0.34251466E+03</rscale>
<asrwt>0</asrwt>
<pdfrwt beam="1">  1        2 0.27602922E+00 0.34251466E+03</pdfrwt>
<pdfrwt beam="2">  1       -2 0.47559417E-01 0.34251466E+03</pdfrwt>
<totfact> 0.40186692E+01</totfact>
</mgrwt>
</event>
<event>
 4    1  0.4639964E-008  0.3660796E+03  0.7818608E-02  0.1056202E+00
         -2   -1    0    0    0  501 -0.00000000000E+00  0.00000000000E+00  0.52620656926E+03  0.52620656927E+03  0.25500000000E-02 0.  1.
          2   -1    0    0  501    0  0.00000000000E+00 -0.00000000000E+00 -0.57464079306E+03  0.57464079306E+03  0.25500000000E-02 0. -1.
    8880022    1    1    2    0    0  0.71659583461E+02  0.32478847700E+03  0.38650420850E+03  0.53235308480E+03  0.15294330000E+03 0.  1.
    8880022    1    1    2    0    0 -0.71659583461E+02 -0.32478847700E+03 -0.43493843229E+03  0.56849427754E+03  0.15294330000E+03 0.  0.
<mgrwt>
<rscale>  0 0.36607964E+03</rscale>
<asrwt>0</asrwt>
<pdfrwt beam="1">  1        2 0.88406276E-01 0.36607964E+03</pdfrwt>
<pdfrwt beam="2">  1       -2 0.80954857E-01 0.36607964E+03</pdfrwt>
<totfact> 0.73548729E+01</totfact>
</mgrwt>
</event>
<event>
 4    1  0.4639964E-008  0.5468085E+03  0.7818608E-02  0.1002235E+00
         -2   -1    0    0    0  501 -0.00000000000E+00  0.00000000000E+00  0.63297327257E+03  0.63297327257E+03  0.25500000000E-02 0.  1.
          2   -1    0    0  501    0  0.00000000000E+00 -0.00000000000E+00 -0.54351818102E+03  0.54351818103E+03  0.25500000000E-02 0. -1.
    8880022    1    1    2    0    0 -0.41440644736E+03  0.32229673079E+03  0.25755331863E+03  0.60442803644E+03  0.15294330000E+03 0.  0.
    8880022    1    1    2    0    0  0.41440644736E+03 -0.32229673079E+03 -0.16809822708E+03  0.57206341716E+03  0.15294330000E+03 0.  0.
<mgrwt>
<rscale>  0 0.54680850E+03</rscale>
<asrwt>0</asrwt>
<pdfrwt beam="1">  1        2 0.83618182E-01 0.54680850E+03</pdfrwt>
<pdfrwt beam="2">  1       -2 0.97380503E-01 0.54680850E+03</pdfrwt>
<totfact> 0.50497600E+01</totfact>
</mgrwt>
</event>
<event>
 4    1  0.4639964E-008  0.1076917E+04  0.7818608E-02  0.9227986E-01
          2   -1    0    0  501    0  0.00000000000E+00  0.00000000000E+00  0.28959498865E+04  0.28959498865E+04  0.25500000000E-02 0. -1.
         -2   -1    0    0    0  501 -0.00000000000E+00 -0.00000000000E+00 -0.46424556806E+03  0.46424556807E+03  0.25500000000E-02 0.  1.
    8880022    1    1    2    0    0  0.79137972975E+03 -0.71419727179E+03  0.18385477789E+04  0.21307297360E+04  0.15294330000E+03 0.  0.
    8880022    1    1    2    0    0 -0.79137972975E+03  0.71419727179E+03  0.59315653958E+03  0.12294657186E+04  0.15294330000E+03 0.  0.
<mgrwt>
<rscale>  0 0.10769175E+04</rscale>
<asrwt>0</asrwt>
<pdfrwt beam="1">  1        2 0.44553075E+00 0.10769175E+04</pdfrwt>
<pdfrwt beam="2">  1       -2 0.71422395E-01 0.10769175E+04</pdfrwt>
<totfact> 0.36250460E+00</totfact>
</mgrwt>
</event>
<event>
 4    1  0.4639964E-008  0.9029867E+03  0.7818608E-02  0.9421856E-01
          2   -1    0    0  501    0  0.00000000000E+00  0.00000000000E+00  0.13249814596E+04  0.13249814596E+04  0.25500000000E-02 0. -1.
         -2   -1    0    0    0  501 -0.00000000000E+00 -0.00000000000E+00 -0.96607668541E+03  0.96607668541E+03  0.25500000000E-02 0.  1.
    8880022    1    1    2    0    0 -0.16028911876E+03  0.87538600967E+03  0.86962514519E+03  0.12536478029E+04  0.15294330000E+03 0.  0.
    8880022    1    1    2    0    0  0.16028911876E+03 -0.87538600967E+03 -0.51072037102E+03  0.10374103421E+04  0.15294330000E+03 0.  0.
<mgrwt>
<rscale>  0 0.90298667E+03</rscale>
<asrwt>0</asrwt>
<pdfrwt beam="1">  1        2 0.20384330E+00 0.90298667E+03</pdfrwt>
<pdfrwt beam="2">  1       -2 0.14862718E+00 0.90298667E+03</pdfrwt>
<totfact> 0.49218595E+00</totfact>
</mgrwt>
</event>
<event>
 4    1  0.4639964E-008  0.7875296E+03  0.7818608E-02  0.9578245E-01
          2   -1    0    0  501    0  0.00000000000E+00  0.00000000000E+00  0.20032071653E+04  0.20032071653E+04  0.25500000000E-02 0. -1.
         -2   -1    0    0    0  501 -0.00000000000E+00 -0.00000000000E+00 -0.68332901957E+03  0.68332901958E+03  0.25500000000E-02 0.  1.
    8880022    1    1    2    0    0 -0.16385577520E+03  0.75495864938E+03 -0.33345892194E+03  0.85521797396E+03  0.15294330000E+03 0.  0.
    8880022    1    1    2    0    0  0.16385577520E+03 -0.75495864938E+03  0.16533370677E+04  0.18313182110E+04  0.15294330000E+03 0.  0.
<mgrwt>
<rscale>  0 0.78752964E+03</rscale>
<asrwt>0</asrwt>
<pdfrwt beam="1">  1        2 0.30818572E+00 0.78752964E+03</pdfrwt>
<pdfrwt beam="2">  1       -2 0.10512754E+00 0.78752964E+03</pdfrwt>
<totfact> 0.50229344E+00</totfact>
</mgrwt>
</event>
<event>
 4    1  0.4639964E-008  0.2090688E+04  0.7818608E-02  0.8565356E-01
          2   -1    0    0  501    0  0.00000000000E+00  0.00000000000E+00  0.35195129785E+04  0.35195129785E+04  0.25500000000E-02 0. -1.
         -2   -1    0    0    0  501 -0.00000000000E+00 -0.00000000000E+00 -0.14061189191E+04  0.14061189191E+04  0.25500000000E-02 0.  1.
    8880022    1    1    2    0    0  0.19449352463E+03 -0.20759954351E+04  0.18982810563E+04  0.28239064077E+04  0.15294330000E+03 0.  0.
    8880022    1    1    2    0    0 -0.19449352463E+03  0.20759954351E+04  0.21511300313E+03  0.21017254899E+04  0.15294330000E+03 0.  0.
<mgrwt>
<rscale>  0 0.20906880E+04</rscale>
<asrwt>0</asrwt>
<pdfrwt beam="1">  1        2 0.54146353E+00 0.20906880E+04</pdfrwt>
<pdfrwt beam="2">  1       -2 0.21632599E+00 0.20906880E+04</pdfrwt>
<totfact> 0.72610118E-02</totfact>
</mgrwt>
</event>
<event>
 4    1  0.4639964E-008  0.1002669E+04  0.7818608E-02  0.9305622E-01
          2   -1    0    0  501    0  0.00000000000E+00  0.00000000000E+00  0.14955363073E+04  0.14955363073E+04  0.25500000000E-02 0. -1.
         -2   -1    0    0    0  501 -0.00000000000E+00 -0.00000000000E+00 -0.14726430513E+04  0.14726430513E+04  0.25500000000E-02 0.  1.
    8880022    1    1    2    0    0 -0.63062635488E+03  0.76437154735E+03  0.11055751630E+04  0.14925285779E+04  0.15294330000E+03 0.  0.
    8880022    1    1    2    0    0  0.63062635488E+03 -0.76437154735E+03 -0.10826819070E+04  0.14756507807E+04  0.15294330000E+03 0.  0.
<mgrwt>
<rscale>  0 0.10026690E+04</rscale>
<asrwt>0</asrwt>
<pdfrwt beam="1">  1        2 0.23008251E+00 0.10026690E+04</pdfrwt>
<pdfrwt beam="2">  1       -2 0.22656047E+00 0.10026690E+04</pdfrwt>
<totfact> 0.11417770E+00</totfact>
</mgrwt>
</event>
<event>
 4    1  0.4639964E-008  0.7767959E+03  0.7818608E-02  0.9594225E-01
          2   -1    0    0  501    0  0.00000000000E+00  0.00000000000E+00  0.11247748805E+04  0.11247748805E+04  0.25500000000E-02 0. -1.
         -2   -1    0    0    0  501 -0.00000000000E+00 -0.00000000000E+00 -0.96574840971E+03  0.96574840971E+03  0.25500000000E-02 0.  1.
    8880022    1    1    2    0    0 -0.56520419007E+03 -0.51045510104E+03  0.77639772930E+03  0.10982737699E+04  0.15294330000E+03 0.  0.
    8880022    1    1    2    0    0  0.56520419007E+03  0.51045510104E+03 -0.61737125851E+03  0.99224952028E+03  0.15294330000E+03 0.  0.
<mgrwt>
<rscale>  0 0.77679588E+03</rscale>
<asrwt>0</asrwt>
<pdfrwt beam="1">  1        2 0.17304229E+00 0.77679588E+03</pdfrwt>
<pdfrwt beam="2">  1       -2 0.14857668E+00 0.77679588E+03</pdfrwt>
<totfact> 0.65703485E+00</totfact>
</mgrwt>
</event>
<event>
 4    1  0.4639964E-008  0.8017030E+03  0.7818608E-02  0.9557555E-01
          2   -1    0    0  501    0  0.00000000000E+00  0.00000000000E+00  0.22131543192E+04  0.22131543192E+04  0.25500000000E-02 0. -1.
         -2   -1    0    0    0  501 -0.00000000000E+00 -0.00000000000E+00 -0.49592804938E+03  0.49592804938E+03  0.25500000000E-02 0.  1.
    8880022    1    1    2    0    0 -0.69051745689E+03  0.37752047450E+03  0.17305904796E+04  0.19072679749E+04  0.15294330000E+03 0.  0.
    8880022    1    1    2    0    0  0.69051745689E+03 -0.37752047450E+03 -0.13364209700E+02  0.80181439377E+03  0.15294330000E+03 0.  0.
<mgrwt>
<rscale>  0 0.80170301E+03</rscale>
<asrwt>0</asrwt>
<pdfrwt beam="1">  1        2 0.34048527E+00 0.80170301E+03</pdfrwt>
<pdfrwt beam="2">  1       -2 0.76296624E-01 0.80170301E+03</pdfrwt>
<totfact> 0.80582116E+00</totfact>
</mgrwt>
</event>
<event>
 4    1  0.4639964E-008  0.4248530E+03  0.7818608E-02  0.1035498E+00
         -2   -1    0    0    0  501 -0.00000000000E+00  0.00000000000E+00  0.91314497201E+03  0.91314497202E+03  0.25500000000E-02 0.  1.
          2   -1    0    0  501    0  0.00000000000E+00 -0.00000000000E+00 -0.21012057973E+03  0.21012057975E+03  0.25500000000E-02 0. -1.
    8880022    1    1    2    0    0 -0.35845323513E+03 -0.16917369028E+03  0.48823372073E+03  0.64720342886E+03  0.15294330000E+03 0.  0.
    8880022    1    1    2    0    0  0.35845323513E+03  0.16917369028E+03  0.21479067156E+03  0.47606212290E+03  0.15294330000E+03 0.  0.
<mgrwt>
<rscale>  0 0.42485305E+03</rscale>
<asrwt>0</asrwt>
<pdfrwt beam="1">  1        2 0.32326244E-01 0.42485305E+03</pdfrwt>
<pdfrwt beam="2">  1       -2 0.14048384E+00 0.42485305E+03</pdfrwt>
<totfact> 0.60081324E+01</totfact>
</mgrwt>
</event>
<event>
 4    1  0.4639964E-008  0.1407059E+04  0.7818608E-02  0.8948725E-01
          2   -1    0    0  501    0  0.00000000000E+00  0.00000000000E+00  0.29039741173E+04  0.29039741173E+04  0.25500000000E-02 0. -1.
         -2   -1    0    0    0  501 -0.00000000000E+00 -0.00000000000E+00 -0.10905497103E+04  0.10905497103E+04  0.25500000000E-02 0.  1.
    8880022    1    1    2    0    0  0.65365792778E+03 -0.12365897982E+04 -0.31610638447E+03  0.14421296456E+04  0.15294330000E+03 0.  0.
    8880022    1    1    2    0    0 -0.65365792778E+03  0.12365897982E+04  0.21295307915E+04  0.25523941820E+04  0.15294330000E+03 0.  0.
<mgrwt>
<rscale>  0 0.14070589E+04</rscale>
<asrwt>0</asrwt>
<pdfrwt beam="1">  1        2 0.44676524E+00 0.14070589E+04</pdfrwt>
<pdfrwt beam="2">  1       -2 0.16777688E+00 0.14070589E+04</pdfrwt>
<totfact> 0.42193642E-01</totfact>
</mgrwt>
</event>
<event>
 4    1  0.4639964E-008  0.4506869E+03  0.7818608E-02  0.1027517E+00
         -2   -1    0    0    0  501 -0.00000000000E+00  0.00000000000E+00  0.11540050904E+03  0.11540050907E+03  0.25500000000E-02 0.  1.
          2   -1    0    0  501    0  0.00000000000E+00 -0.00000000000E+00 -0.30122830511E+04  0.30122830511E+04  0.25500000000E-02 0. -1.
    8880022    1    1    2    0    0 -0.37052929813E+03 -0.20599779696E+03 -0.44017457631E+03  0.62997806610E+03  0.15294330000E+03 0.  0.
    8880022    1    1    2    0    0  0.37052929813E+03  0.20599779696E+03 -0.24567079658E+04  0.24977054941E+04  0.15294330000E+03 0.  0.
<mgrwt>
<rscale>  0 0.45068693E+03</rscale>
<asrwt>0</asrwt>
<pdfrwt beam="1">  1        2 0.46342810E+00 0.45068693E+03</pdfrwt>
<pdfrwt beam="2">  1       -2 0.17753927E-01 0.45068693E+03</pdfrwt>
<totfact> 0.50191686E+01</totfact>
</mgrwt>
</event>
<event>
 4    1  0.4639964E-008  0.2831698E+03  0.7818608E-02  0.1093970E+00
         -2   -1    0    0    0  501 -0.00000000000E+00  0.00000000000E+00  0.34357353899E+03  0.34357353900E+03  0.25500000000E-02 0.  1.
          2   -1    0    0  501    0  0.00000000000E+00 -0.00000000000E+00 -0.67990892837E+03  0.67990892838E+03  0.25500000000E-02 0. -1.
    8880022    1    1    2    0    0 -0.94621920960E+02 -0.21872396684E+03 -0.58288016121E+03  0.64802346944E+03  0.15294330000E+03 0.  0.
    8880022    1    1    2    0    0  0.94621920960E+02  0.21872396684E+03  0.24654477183E+03  0.37545899794E+03  0.15294330000E+03 0.  0.
<mgrwt>
<rscale>  0 0.28316980E+03</rscale>
<asrwt>0</asrwt>
<pdfrwt beam="1">  1        2 0.10460137E+00 0.28316980E+03</pdfrwt>
<pdfrwt beam="2">  1       -2 0.52857468E-01 0.28316980E+03</pdfrwt>
<totfact> 0.15059692E+02</totfact>
</mgrwt>
</event>
<event>
 4    1  0.4639964E-008  0.5390563E+03  0.7818608E-02  0.1004059E+00
          2   -1    0    0  501    0  0.00000000000E+00  0.00000000000E+00  0.27829263636E+04  0.27829263636E+04  0.25500000000E-02 0. -1.
         -2   -1    0    0    0  501 -0.00000000000E+00 -0.00000000000E+00 -0.18054697143E+03  0.18054697145E+03  0.25500000000E-02 0.  1.
    8880022    1    1    2    0    0  0.47439799386E+03  0.20527203047E+03  0.22633710605E+04  0.23266779479E+04  0.15294330000E+03 0.  0.
    8880022    1    1    2    0    0 -0.47439799386E+03 -0.20527203047E+03  0.33900833173E+03  0.63679538713E+03  0.15294330000E+03 0.  0.
<mgrwt>
<rscale>  0 0.53905632E+03</rscale>
<asrwt>0</asrwt>
<pdfrwt beam="1">  1        2 0.42814252E+00 0.53905632E+03</pdfrwt>
<pdfrwt beam="2">  1       -2 0.27776457E-01 0.53905632E+03</pdfrwt>
<totfact> 0.30563368E+01</totfact>
</mgrwt>
</event>
<event>
 4    1  0.4639964E-008  0.6639510E+03  0.7818608E-02  0.9780948E-01
         -2   -1    0    0    0  501 -0.00000000000E+00  0.00000000000E+00  0.24071522337E+03  0.24071522339E+03  0.25500000000E-02 0.  1.
          2   -1    0    0  501    0  0.00000000000E+00 -0.00000000000E+00 -0.36167091120E+04  0.36167091120E+04  0.25500000000E-02 0. -1.
    8880022    1    1    2    0    0  0.49047271683E+03 -0.42056604429E+03 -0.30431079781E+04  0.31146969521E+04  0.15294330000E+03 0.  0.
    8880022    1    1    2    0    0 -0.49047271683E+03  0.42056604429E+03 -0.33288591054E+03  0.74272738337E+03  0.15294330000E+03 0.  1.
<mgrwt>
<rscale>  0 0.66395100E+03</rscale>
<asrwt>0</asrwt>
<pdfrwt beam="1">  1        2 0.55641675E+00 0.66395100E+03</pdfrwt>
<pdfrwt beam="2">  1       -2 0.37033114E-01 0.66395100E+03</pdfrwt>
<totfact> 0.51189755E+00</totfact>
</mgrwt>
</event>
<event>
 4    1  0.4639964E-008  0.3188124E+03  0.7818608E-02  0.1076197E+00
          2   -1    0    0  501    0  0.00000000000E+00  0.00000000000E+00  0.83244586100E+02  0.83244586139E+02  0.25500000000E-02 0. -1.
         -2   -1    0    0    0  501 -0.00000000000E+00 -0.00000000000E+00 -0.22181926094E+04  0.22181926094E+04  0.25500000000E-02 0.  1.
    8880022    1    1    2    0    0  0.27550050585E+03  0.48467877720E+02 -0.18390165491E+04  0.18664466734E+04  0.15294330000E+03 0.  0.
    8880022    1    1    2    0    0 -0.27550050585E+03 -0.48467877720E+02 -0.29593147423E+03  0.43499052214E+03  0.15294330000E+03 0.  0.
<mgrwt>
<rscale>  0 0.31881235E+03</rscale>
<asrwt>0</asrwt>
<pdfrwt beam="1">  1        2 0.12806861E-01 0.31881235E+03</pdfrwt>
<pdfrwt beam="2">  1       -2 0.34126036E+00 0.31881235E+03</pdfrwt>
<totfact> 0.97028013E+00</totfact>
</mgrwt>
</event>
<event>
 4    1  0.4639964E-008  0.1939064E+03  0.7818608E-02  0.1154985E+00
         -2   -1    0    0    0  501 -0.00000000000E+00  0.00000000000E+00  0.44768794270E+02  0.44768794342E+02  0.25500000000E-02 0.  1.
          2   -1    0    0  501    0  0.00000000000E+00 -0.00000000000E+00 -0.11491294212E+04  0.11491294212E+04  0.25500000000E-02 0. -1.
    8880022    1    1    2    0    0 -0.70843840993E+02  0.95860161290E+02 -0.24249620873E+03  0.31049007165E+03  0.15294330000E+03 0.  1.
    8880022    1    1    2    0    0  0.70843840993E+02 -0.95860161290E+02 -0.86186441822E+03  0.88340814392E+03  0.15294330000E+03 0.  0.
<mgrwt>
<rscale>  0 0.19390635E+03</rscale>
<asrwt>0</asrwt>
<pdfrwt beam="1">  1        2 0.17678912E+00 0.19390635E+03</pdfrwt>
<pdfrwt beam="2">  1       -2 0.68875077E-02 0.19390635E+03</pdfrwt>
<totfact> 0.25452456E+03</totfact>
</mgrwt>
</event>
<event>
 4    1  0.4639964E-008  0.7061034E+03  0.7818608E-02  0.9706851E-01
         -2   -1    0    0    0  501 -0.00000000000E+00  0.00000000000E+00  0.81995512804E+03  0.81995512805E+03  0.25500000000E-02 0.  1.
          2   -1    0    0  501    0  0.00000000000E+00 -0.00000000000E+00 -0.19869037357E+04  0.19869037357E+04  0.25500000000E-02 0. -1.
    8880022    1    1    2    0    0 -0.44640282641E+03  0.52527602611E+03 -0.17525958601E+04  0.18894904839E+04  0.15294330000E+03 0.  0.
    8880022    1    1    2    0    0  0.44640282641E+03 -0.52527602611E+03  0.58564725242E+03  0.91736837983E+03  0.15294330000E+03 0.  0.
<mgrwt>
<rscale>  0 0.70610342E+03</rscale>
<asrwt>0</asrwt>
<pdfrwt beam="1">  1        2 0.30567750E+00 0.70610342E+03</pdfrwt>
<pdfrwt beam="2">  1       -2 0.12614694E+00 0.70610342E+03</pdfrwt>
<totfact> 0.33254412E+00</totfact>
</mgrwt>
</event>
<event>
 4    1  0.4639964E-008  0.1505663E+04  0.7818608E-02  0.8880696E-01
         -2   -1    0    0    0  501 -0.00000000000E+00  0.00000000000E+00  0.14012648584E+04  0.14012648584E+04  0.25500000000E-02 0.  1.
          2   -1    0    0  501    0  0.00000000000E+00 -0.00000000000E+00 -0.21755524668E+04  0.21755524668E+04  0.25500000000E-02 0. -1.
    8880022    1    1    2    0    0 -0.80300512046E+03  0.12644409773E+04  0.51835493215E+03  0.15923918165E+04  0.15294330000E+03 0.  0.
    8880022    1    1    2    0    0  0.80300512046E+03 -0.12644409773E+04 -0.12926425406E+04  0.19844255087E+04  0.15294330000E+03 0.  0.
<mgrwt>
<rscale>  0 0.15056626E+04</rscale>
<asrwt>0</asrwt>
<pdfrwt beam="1">  1        2 0.33470038E+00 0.15056626E+04</pdfrwt>
<pdfrwt beam="2">  1       -2 0.21557921E+00 0.15056626E+04</pdfrwt>
<totfact> 0.52701117E-01</totfact>
</mgrwt>
</event>
<event>
 4    1  0.4639964E-008  0.3090158E+03  0.7818608E-02  0.1080819E+00
          2   -1    0    0  501    0  0.00000000000E+00  0.00000000000E+00  0.72565281589E+03  0.72565281590E+03  0.25500000000E-02 0. -1.
         -2   -1    0    0    0  501 -0.00000000000E+00 -0.00000000000E+00 -0.47471381842E+03  0.47471381842E+03  0.25500000000E-02 0.  1.
    8880022    1    1    2    0    0  0.26797916148E+03  0.16920017299E+02 -0.38479055392E+03  0.49351245310E+03  0.15294330000E+03 0.  0.
    8880022    1    1    2    0    0 -0.26797916148E+03 -0.16920017299E+02  0.63572955139E+03  0.70685418121E+03  0.15294330000E+03 0.  0.
<mgrwt>
<rscale>  0 0.30901581E+03</rscale>
<asrwt>0</asrwt>
<pdfrwt beam="1">  1        2 0.11163889E+00 0.30901581E+03</pdfrwt>
<pdfrwt beam="2">  1       -2 0.73032895E-01 0.30901581E+03</pdfrwt>
<totfact> 0.70285188E+01</totfact>
</mgrwt>
</event>
<event>
 4    1  0.4639964E-008  0.1610171E+03  0.7818608E-02  0.1187553E+00
          2   -1    0    0  501    0  0.00000000000E+00  0.00000000000E+00  0.64683309671E+03  0.64683309671E+03  0.25500000000E-02 0. -1.
         -2   -1    0    0    0  501 -0.00000000000E+00 -0.00000000000E+00 -0.12570849821E+03  0.12570849824E+03  0.25500000000E-02 0.  1.
    8880022    1    1    2    0    0 -0.49075187319E+02 -0.11245742241E+02  0.57935850285E+03  0.60131752725E+03  0.15294330000E+03 0.  0.
    8880022    1    1    2    0    0  0.49075187319E+02  0.11245742241E+02 -0.58233904362E+02  0.17122406770E+03  0.15294330000E+03 0.  1.
<mgrwt>
<rscale>  0 0.16101706E+03</rscale>
<asrwt>0</asrwt>
<pdfrwt beam="1">  1        2 0.99512784E-01 0.16101706E+03</pdfrwt>
<pdfrwt beam="2">  1       -2 0.19339769E-01 0.16101706E+03</pdfrwt>
<totfact> 0.10277852E+03</totfact>
</mgrwt>
</event>
<event>
 4    1  0.4639964E-008  0.2768710E+03  0.7818608E-02  0.1097410E+00
         -2   -1    0    0    0  501 -0.00000000000E+00  0.00000000000E+00  0.85154731812E+03  0.85154731812E+03  0.25500000000E-02 0.  1.
          2   -1    0    0  501    0  0.00000000000E+00 -0.00000000000E+00 -0.24529039207E+03  0.24529039208E+03  0.25500000000E-02 0. -1.
    8880022    1    1    2    0    0  0.22199799898E+03  0.63109405786E+02 -0.13320080423E+03  0.30724585581E+03  0.15294330000E+03 0.  0.
    8880022    1    1    2    0    0 -0.22199799898E+03 -0.63109405786E+02  0.73945773028E+03  0.78959185440E+03  0.15294330000E+03 0.  0.
<mgrwt>
<rscale>  0 0.27687102E+03</rscale>
<asrwt>0</asrwt>
<pdfrwt beam="1">  1        2 0.37736983E-01 0.27687102E+03</pdfrwt>
<pdfrwt beam="2">  1       -2 0.13100728E+00 0.27687102E+03</pdfrwt>
<totfact> 0.61371017E+01</totfact>
</mgrwt>
</event>
<event>
 4    1  0.4662407E-008  0.5882213E+03  0.7818608E-02  0.9930149E-01
          2   -1    0    0  501    0  0.00000000000E+00  0.00000000000E+00  0.29406055132E+04  0.29406055132E+04  0.25500000000E-02 0. -1.
         -2   -1    0    0    0  501 -0.00000000000E+00 -0.00000000000E+00 -0.69176903511E+03  0.69176903512E+03  0.25500000000E-02 0.  1.
    8880022    1    1    2    0    0 -0.27777122743E+01 -0.56798325785E+03  0.27789519710E+04  0.28405243190E+04  0.15294330000E+03 0.  0.
    8880022    1    1    2    0    0  0.27777122743E+01  0.56798325785E+03 -0.53011549287E+03  0.79185022933E+03  0.15294330000E+03 0.  0.
<mgrwt>
<rscale>  0 0.58822134E+03</rscale>
<asrwt>0</asrwt>
<pdfrwt beam="1">  1        2 0.45240084E+00 0.58822134E+03</pdfrwt>
<pdfrwt beam="2">  1       -2 0.10642601E+00 0.58822134E+03</pdfrwt>
<totfact> 0.14962358E+00</totfact>
</mgrwt>
</event>
<event>
 4    1  0.4639964E-008  0.1037363E+04  0.7818608E-02  0.9268489E-01
          2   -1    0    0  501    0  0.00000000000E+00  0.00000000000E+00  0.16914122531E+04  0.16914122531E+04  0.25500000000E-02 0. -1.
         -2   -1    0    0    0  501 -0.00000000000E+00 -0.00000000000E+00 -0.13728583493E+04  0.13728583493E+04  0.25500000000E-02 0.  1.
    8880022    1    1    2    0    0 -0.79566467880E+03  0.64780314682E+03  0.12815776417E+04  0.16488068725E+04  0.15294330000E+03 0.  0.
    8880022    1    1    2    0    0  0.79566467880E+03 -0.64780314682E+03 -0.96302373787E+03  0.14154637300E+04  0.15294330000E+03 0.  0.
<mgrwt>
<rscale>  0 0.10373634E+04</rscale>
<asrwt>0</asrwt>
<pdfrwt beam="1">  1        2 0.26021727E+00 0.10373634E+04</pdfrwt>
<pdfrwt beam="2">  1       -2 0.21120898E+00 0.10373634E+04</pdfrwt>
<totfact> 0.11047703E+00</totfact>
</mgrwt>
</event>
<event>
 4    1  0.4639964E-008  0.1134616E+04  0.7818608E-02  0.9172094E-01
          2   -1    0    0  501    0  0.00000000000E+00  0.00000000000E+00  0.24321116253E+04  0.24321116253E+04  0.25500000000E-02 0. -1.
         -2   -1    0    0    0  501 -0.00000000000E+00 -0.00000000000E+00 -0.62681880678E+03  0.62681880679E+03  0.25500000000E-02 0.  1.
    8880022    1    1    2    0    0 -0.24605700457E+03 -0.10970042234E+04  0.29942236316E+03  0.11734597224E+04  0.15294330000E+03 0.  0.
    8880022    1    1    2    0    0  0.24605700457E+03  0.10970042234E+04  0.15058704554E+04  0.18854707096E+04  0.15294330000E+03 0.  0.
<mgrwt>
<rscale>  0 0.11346162E+04</rscale>
<asrwt>0</asrwt>
<pdfrwt beam="1">  1        2 0.37417102E+00 0.11346162E+04</pdfrwt>
<pdfrwt beam="2">  1       -2 0.96433662E-01 0.11346162E+04</pdfrwt>
<totfact> 0.33962620E+00</totfact>
</mgrwt>
</event>
<event>
 4    1  0.4639964E-008  0.5418915E+03  0.7818608E-02  0.1003388E+00
         -2   -1    0    0    0  501 -0.00000000000E+00  0.00000000000E+00  0.71609480393E+03  0.71609480393E+03  0.25500000000E-02 0.  1.
          2   -1    0    0  501    0  0.00000000000E+00 -0.00000000000E+00 -0.63346746849E+03  0.63346746849E+03  0.25500000000E-02 0. -1.
    8880022    1    1    2    0    0 -0.41464012502E+03 -0.31357352443E+03  0.44203583385E+03  0.69931546524E+03  0.15294330000E+03 0.  0.
    8880022    1    1    2    0    0  0.41464012502E+03  0.31357352443E+03 -0.35940849841E+03  0.65024680718E+03  0.15294330000E+03 0. -1.
<mgrwt>
<rscale>  0 0.54189154E+03</rscale>
<asrwt>0</asrwt>
<pdfrwt beam="1">  1        2 0.97456534E-01 0.54189154E+03</pdfrwt>
<pdfrwt beam="2">  1       -2 0.11016843E+00 0.54189154E+03</pdfrwt>
<totfact> 0.31397783E+01</totfact>
</mgrwt>
</event>
<event>
 4    1  0.4639964E-008  0.6069772E+03  0.7818608E-02  0.9891035E-01
          2   -1    0    0  501    0  0.00000000000E+00  0.00000000000E+00  0.15238663212E+04  0.15238663212E+04  0.25500000000E-02 0. -1.
         -2   -1    0    0    0  501 -0.00000000000E+00 -0.00000000000E+00 -0.49195301276E+03  0.49195301276E+03  0.25500000000E-02 0.  1.
    8880022    1    1    2    0    0 -0.11091583502E+03 -0.57682520233E+03  0.12347282594E+04  0.13758543397E+04  0.15294330000E+03 0.  0.
    8880022    1    1    2    0    0  0.11091583502E+03  0.57682520233E+03 -0.20281495098E+03  0.63996499424E+03  0.15294330000E+03 0.  0.
<mgrwt>
<rscale>  0 0.60697717E+03</rscale>
<asrwt>0</asrwt>
<pdfrwt beam="1">  1        2 0.23444097E+00 0.60697717E+03</pdfrwt>
<pdfrwt beam="2">  1       -2 0.75685078E-01 0.60697717E+03</pdfrwt>
<totfact> 0.20118745E+01</totfact>
</mgrwt>
</event>
<event>
 4    1  0.4639964E-008  0.5926062E+03  0.7818608E-02  0.9920866E-01
         -2   -1    0    0    0  501 -0.00000000000E+00  0.00000000000E+00  0.93100774144E+03  0.93100774144E+03  0.25500000000E-02 0.  1.
          2   -1    0    0  501    0  0.00000000000E+00 -0.00000000000E+00 -0.53665878222E+03  0.53665878223E+03  0.25500000000E-02 0. -1.
    8880022    1    1    2    0    0 -0.11041032597E+03 -0.56178284007E+03  0.59717800268E+03  0.84131065569E+03  0.15294330000E+03 0.  0.
    8880022    1    1    2    0    0  0.11041032597E+03  0.56178284007E+03 -0.20282904346E+03  0.62635586799E+03  0.15294330000E+03 0.  1.
<mgrwt>
<rscale>  0 0.59260615E+03</rscale>
<asrwt>0</asrwt>
<pdfrwt beam="1">  1        2 0.82562890E-01 0.59260615E+03</pdfrwt>
<pdfrwt beam="2">  1       -2 0.14323196E+00 0.59260615E+03</pdfrwt>
<totfact> 0.19743972E+01</totfact>
</mgrwt>
</event>
<event>
 4    1  0.4639964E-008  0.1216245E+04  0.7818608E-02  0.9098755E-01
         -2   -1    0    0    0  501 -0.00000000000E+00  0.00000000000E+00  0.44303257755E+03  0.44303257756E+03  0.25500000000E-02 0.  1.
          2   -1    0    0  501    0  0.00000000000E+00 -0.00000000000E+00 -0.54235690520E+04  0.54235690520E+04  0.25500000000E-02 0. -1.
    8880022    1    1    2    0    0 -0.10535193626E+04 -0.58818060016E+03 -0.67169704309E+03  0.13893984441E+04  0.15294330000E+03 0.  0.
    8880022    1    1    2    0    0  0.10535193626E+04  0.58818060016E+03 -0.43088394313E+04  0.44772031854E+04  0.15294330000E+03 0.  0.
<mgrwt>
<rscale>  0 0.12162447E+04</rscale>
<asrwt>0</asrwt>
<pdfrwt beam="1">  1        2 0.83439519E+00 0.12162447E+04</pdfrwt>
<pdfrwt beam="2">  1       -2 0.68158862E-01 0.12162447E+04</pdfrwt>
<totfact> 0.17420267E-02</totfact>
</mgrwt>
</event>
<event>
 4    1  0.4639964E-008  0.3457673E+03  0.7818608E-02  0.1064366E+00
         -2   -1    0    0    0  501 -0.00000000000E+00  0.00000000000E+00  0.17497480759E+03  0.17497480761E+03  0.25500000000E-02 0.  1.
          2   -1    0    0  501    0  0.00000000000E+00 -0.00000000000E+00 -0.84338506849E+03  0.84338506849E+03  0.25500000000E-02 0. -1.
    8880022    1    1    2    0    0  0.22707351681E+02 -0.30926972137E+03 -0.11234747047E+03  0.36356153745E+03  0.15294330000E+03 0.  0.
    8880022    1    1    2    0    0 -0.22707351681E+02  0.30926972137E+03 -0.55606279043E+03  0.65479833864E+03  0.15294330000E+03 0.  0.
<mgrwt>
<rscale>  0 0.34576732E+03</rscale>
<asrwt>0</asrwt>
<pdfrwt beam="1">  1        2 0.12975155E+00 0.34576732E+03</pdfrwt>
<pdfrwt beam="2">  1       -2 0.26919202E-01 0.34576732E+03</pdfrwt>
<totfact> 0.41270322E+02</totfact>
</mgrwt>
</event>
<event>
 4    1  0.4639964E-008  0.4354162E+03  0.7818608E-02  0.1032163E+00
          2   -1    0    0  501    0  0.00000000000E+00  0.00000000000E+00  0.89723303237E+03  0.89723303237E+03  0.25500000000E-02 0. -1.
         -2   -1    0    0    0  501 -0.00000000000E+00 -0.00000000000E+00 -0.46368968488E+03  0.46368968489E+03  0.25500000000E-02 0.  1.
    8880022    1    1    2    0    0  0.33957394300E+03 -0.22557734416E+03 -0.28525144303E+03  0.52053399479E+03  0.15294330000E+03 0.  0.
    8880022    1    1    2    0    0 -0.33957394300E+03  0.22557734416E+03  0.71879479052E+03  0.84038872247E+03  0.15294330000E+03 0.  0.
<mgrwt>
<rscale>  0 0.43541618E+03</rscale>
<asrwt>0</asrwt>
<pdfrwt beam="1">  1        2 0.13803585E+00 0.43541618E+03</pdfrwt>
<pdfrwt beam="2">  1       -2 0.71336876E-01 0.43541618E+03</pdfrwt>
<totfact> 0.55075006E+01</totfact>
</mgrwt>
</event>
<event>
 4    1  0.4639964E-008  0.1250489E+04  0.7818608E-02  0.9069777E-01
         -2   -1    0    0    0  501 -0.00000000000E+00  0.00000000000E+00  0.14217005025E+04  0.14217005025E+04  0.25500000000E-02 0.  1.
          2   -1    0    0  501    0  0.00000000000E+00 -0.00000000000E+00 -0.16554278060E+04  0.16554278060E+04  0.25500000000E-02 0. -1.
    8880022    1    1    2    0    0 -0.10577229481E+04 -0.64927076828E+03 -0.10081456558E+04  0.16062626440E+04  0.15294330000E+03 0.  0.
    8880022    1    1    2    0    0  0.10577229481E+04  0.64927076828E+03  0.77441835234E+03  0.14708656645E+04  0.15294330000E+03 0.  0.
<mgrwt>
<rscale>  0 0.12504887E+04</rscale>
<asrwt>0</asrwt>
<pdfrwt beam="1">  1        2 0.25468120E+00 0.12504887E+04</pdfrwt>
<pdfrwt beam="2">  1       -2 0.21872315E+00 0.12504887E+04</pdfrwt>
<totfact> 0.10086356E+00</totfact>
</mgrwt>
</event>
<event>
 4    1  0.4639964E-008  0.7961024E+03  0.7818608E-02  0.9565676E-01
         -2   -1    0    0    0  501 -0.00000000000E+00  0.00000000000E+00  0.56170238771E+03  0.56170238772E+03  0.25500000000E-02 0.  1.
          2   -1    0    0  501    0  0.00000000000E+00 -0.00000000000E+00 -0.11559084794E+04  0.11559084794E+04  0.25500000000E-02 0. -1.
    8880022    1    1    2    0    0 -0.78123401780E+03 -0.78013606718E+01 -0.42978443748E+03  0.90470645378E+03  0.15294330000E+03 0.  0.
    8880022    1    1    2    0    0  0.78123401780E+03  0.78013606718E+01 -0.16442165417E+03  0.81290441331E+03  0.15294330000E+03 0.  0.
<mgrwt>
<rscale>  0 0.79610245E+03</rscale>
<asrwt>0</asrwt>
<pdfrwt beam="1">  1        2 0.17783207E+00 0.79610245E+03</pdfrwt>
<pdfrwt beam="2">  1       -2 0.86415753E-01 0.79610245E+03</pdfrwt>
<totfact> 0.23677948E+01</totfact>
</mgrwt>
</event>
<event>
 4    1  0.4639964E-008  0.2397712E+03  0.7818608E-02  0.1119945E+00
          2   -1    0    0  501    0  0.00000000000E+00  0.00000000000E+00  0.74990637222E+03  0.74990637222E+03  0.25500000000E-02 0. -1.
         -2   -1    0    0    0  501 -0.00000000000E+00 -0.00000000000E+00 -0.95490358420E+02  0.95490358454E+02  0.25500000000E-02 0.  1.
    8880022    1    1    2    0    0 -0.12730400954E+03  0.13376200168E+03  0.13951721430E+03  0.27740816506E+03  0.15294330000E+03 0.  1.
    8880022    1    1    2    0    0  0.12730400954E+03 -0.13376200168E+03  0.51489879949E+03  0.56798856562E+03  0.15294330000E+03 0. -1.
<mgrwt>
<rscale>  0 0.23977122E+03</rscale>
<asrwt>0</asrwt>
<pdfrwt beam="1">  1        2 0.11537021E+00 0.23977122E+03</pdfrwt>
<pdfrwt beam="2">  1       -2 0.14690824E-01 0.23977122E+03</pdfrwt>
<totfact> 0.13647140E+03</totfact>
</mgrwt>
</event>
<event>
 4    1  0.4639964E-008  0.3624037E+03  0.7818608E-02  0.1057636E+00
          2   -1    0    0  501    0  0.00000000000E+00  0.00000000000E+00  0.18858334705E+04  0.18858334705E+04  0.25500000000E-02 0. -1.
         -2   -1    0    0    0  501 -0.00000000000E+00 -0.00000000000E+00 -0.88530551095E+02  0.88530551132E+02  0.25500000000E-02 0.  1.
    8880022    1    1    2    0    0 -0.27943944475E+03  0.17279586851E+03  0.44268790100E+03  0.57210929565E+03  0.15294330000E+03 0.  0.
    8880022    1    1    2    0    0  0.27943944475E+03 -0.17279586851E+03  0.13546150184E+04  0.14022547260E+04  0.15294330000E+03 0.  0.
<mgrwt>
<rscale>  0 0.36240374E+03</rscale>
<asrwt>0</asrwt>
<pdfrwt beam="1">  1        2 0.29012822E+00 0.36240374E+03</pdfrwt>
<pdfrwt beam="2">  1       -2 0.13620085E-01 0.36240374E+03</pdfrwt>
<totfact> 0.33868682E+02</totfact>
</mgrwt>
</event>
<event>
 4    1  0.4639964E-008  0.7868016E+03  0.7818608E-02  0.9579320E-01
          2   -1    0    0  501    0  0.00000000000E+00  0.00000000000E+00  0.16018592938E+04  0.16018592938E+04  0.25500000000E-02 0. -1.
         -2   -1    0    0    0  501 -0.00000000000E+00 -0.00000000000E+00 -0.11396684643E+04  0.11396684643E+04  0.25500000000E-02 0.  1.
    8880022    1    1    2    0    0  0.51594822064E+03 -0.57398821254E+03  0.13454684535E+04  0.15586346740E+04  0.15294330000E+03 0.  0.
    8880022    1    1    2    0    0 -0.51594822064E+03  0.57398821254E+03 -0.88327762400E+03  0.11828930842E+04  0.15294330000E+03 0.  0.
<mgrwt>
<rscale>  0 0.78680156E+03</rscale>
<asrwt>0</asrwt>
<pdfrwt beam="1">  1        2 0.24643989E+00 0.78680156E+03</pdfrwt>
<pdfrwt beam="2">  1       -2 0.17533361E+00 0.78680156E+03</pdfrwt>
<totfact> 0.22277461E+00</totfact>
</mgrwt>
</event>
<event>
 4    1  0.4639964E-008  0.1435389E+04  0.7818608E-02  0.8928593E-01
          2   -1    0    0  501    0  0.00000000000E+00  0.00000000000E+00  0.16491152592E+04  0.16491152592E+04  0.25500000000E-02 0. -1.
         -2   -1    0    0    0  501 -0.00000000000E+00 -0.00000000000E+00 -0.13784098506E+04  0.13784098506E+04  0.25500000000E-02 0.  1.
    8880022    1    1    2    0    0  0.14265567167E+04  0.43422071920E+02  0.59852728833E+03  0.15551771958E+04  0.15294330000E+03 0.  0.
    8880022    1    1    2    0    0 -0.14265567167E+04 -0.43422071920E+02 -0.32782187971E+03  0.14723479141E+04  0.15294330000E+03 0. -1.
<mgrwt>
<rscale>  0 0.14353889E+04</rscale>
<asrwt>0</asrwt>
<pdfrwt beam="1">  1        2 0.25371004E+00 0.14353889E+04</pdfrwt>
<pdfrwt beam="2">  1       -2 0.21206305E+00 0.14353889E+04</pdfrwt>
<totfact> 0.11000794E+00</totfact>
</mgrwt>
</event>
<event>
 4    1  0.4639964E-008  0.1621638E+03  0.7818608E-02  0.1186275E+00
          2   -1    0    0  501    0  0.00000000000E+00  0.00000000000E+00  0.12907749527E+03  0.12907749529E+03  0.25500000000E-02 0. -1.
         -2   -1    0    0    0  501 -0.00000000000E+00 -0.00000000000E+00 -0.22486395962E+03  0.22486395963E+03  0.25500000000E-02 0.  1.
    8880022    1    1    2    0    0 -0.26919575758E+02  0.46698899106E+02  0.63593424165E+01  0.16228846227E+03  0.15294330000E+03 0.  0.
    8880022    1    1    2    0    0  0.26919575758E+02 -0.46698899106E+02 -0.10214580677E+03  0.19165299265E+03  0.15294330000E+03 0.  0.
<mgrwt>
<rscale>  0 0.16216382E+03</rscale>
<asrwt>0</asrwt>
<pdfrwt beam="1">  1        2 0.19858076E-01 0.16216382E+03</pdfrwt>
<pdfrwt beam="2">  1       -2 0.34594455E-01 0.16216382E+03</pdfrwt>
<totfact> 0.21488636E+03</totfact>
</mgrwt>
</event>
<event>
 4    1  0.4639964E-008  0.3556253E+03  0.7818608E-02  0.1060330E+00
          2   -1    0    0  501    0  0.00000000000E+00  0.00000000000E+00  0.21599139846E+04  0.21599139846E+04  0.25500000000E-02 0. -1.
         -2   -1    0    0    0  501 -0.00000000000E+00 -0.00000000000E+00 -0.23725538212E+03  0.23725538213E+03  0.25500000000E-02 0.  1.
    8880022    1    1    2    0    0 -0.18599283446E+03 -0.26169518750E+03 -0.78892389912E+02  0.36427100877E+03  0.15294330000E+03 0.  1.
    8880022    1    1    2    0    0  0.18599283446E+03  0.26169518750E+03  0.20015509924E+04  0.20328983580E+04  0.15294330000E+03 0.  0.
<mgrwt>
<rscale>  0 0.35562531E+03</rscale>
<asrwt>0</asrwt>
<pdfrwt beam="1">  1        2 0.33229446E+00 0.35562531E+03</pdfrwt>
<pdfrwt beam="2">  1       -2 0.36500828E-01 0.35562531E+03</pdfrwt>
<totfact> 0.42770488E+01</totfact>
</mgrwt>
</event>
<event>
 4    1  0.4639964E-008  0.6002440E+03  0.7818608E-02  0.9904900E-01
         -2   -1    0    0    0  501 -0.00000000000E+00  0.00000000000E+00  0.61483736364E+03  0.61483736364E+03  0.25500000000E-02 0.  1.
          2   -1    0    0  501    0  0.00000000000E+00 -0.00000000000E+00 -0.65307269133E+03  0.65307269133E+03  0.25500000000E-02 0. -1.
    8880022    1    1    2    0    0 -0.54686890161E+03 -0.19451381196E+03 -0.22228793324E+03  0.64008186732E+03  0.15294330000E+03 0.  0.
    8880022    1    1    2    0    0  0.54686890161E+03  0.19451381196E+03  0.18405260555E+03  0.62782818766E+03  0.15294330000E+03 0.  0.
<mgrwt>
<rscale>  0 0.60024401E+03</rscale>
<asrwt>0</asrwt>
<pdfrwt beam="1">  1        2 0.10047272E+00 0.60024401E+03</pdfrwt>
<pdfrwt beam="2">  1       -2 0.94590364E-01 0.60024401E+03</pdfrwt>
<totfact> 0.43166506E+01</totfact>
</mgrwt>
</event>
<event>
 4    1  0.4639964E-008  0.1626299E+03  0.7818608E-02  0.1185759E+00
         -2   -1    0    0    0  501 -0.00000000000E+00  0.00000000000E+00  0.18361614687E+03  0.18361614689E+03  0.25500000000E-02 0.  1.
          2   -1    0    0  501    0  0.00000000000E+00 -0.00000000000E+00 -0.12384922170E+04  0.12384922171E+04  0.25500000000E-02 0. -1.
    8880022    1    1    2    0    0 -0.18665583662E+02 -0.52042424720E+02  0.14098902512E+03  0.21523562949E+03  0.15294330000E+03 0.  1.
    8880022    1    1    2    0    0  0.18665583662E+02  0.52042424720E+02 -0.11958650953E+04  0.12068727344E+04  0.15294330000E+03 0.  0.
<mgrwt>
<rscale>  0 0.16262986E+03</rscale>
<asrwt>0</asrwt>
<pdfrwt beam="1">  1        2 0.19053726E+00 0.16262986E+03</pdfrwt>
<pdfrwt beam="2">  1       -2 0.28248639E-01 0.16262986E+03</pdfrwt>
<totfact> 0.22396173E+02</totfact>
</mgrwt>
</event>
<event>
 4    1  0.4639964E-008  0.2648843E+03  0.7818608E-02  0.1104244E+00
         -2   -1    0    0    0  501 -0.00000000000E+00  0.00000000000E+00  0.21459359708E+03  0.21459359710E+03  0.25500000000E-02 0.  1.
          2   -1    0    0  501    0  0.00000000000E+00 -0.00000000000E+00 -0.10798685142E+04  0.10798685142E+04  0.25500000000E-02 0. -1.
    8880022    1    1    2    0    0 -0.14786959995E+03 -0.15781831520E+03  0.10779918034E+03  0.28597964176E+03  0.15294330000E+03 0.  0.
    8880022    1    1    2    0    0  0.14786959995E+03  0.15781831520E+03 -0.97307409744E+03  0.10084824695E+04  0.15294330000E+03 0. -1.
<mgrwt>
<rscale>  0 0.26488430E+03</rscale>
<asrwt>0</asrwt>
<pdfrwt beam="1">  1        2 0.16613361E+00 0.26488430E+03</pdfrwt>
<pdfrwt beam="2">  1       -2 0.33014400E-01 0.26488430E+03</pdfrwt>
<totfact> 0.20340702E+02</totfact>
</mgrwt>
</event>
<event>
 4    1  0.4639964E-008  0.5449502E+03  0.7818608E-02  0.1002670E+00
          2   -1    0    0  501    0  0.00000000000E+00  0.00000000000E+00  0.22234177141E+04  0.22234177141E+04  0.25500000000E-02 0. -1.
         -2   -1    0    0    0  501 -0.00000000000E+00 -0.00000000000E+00 -0.15373005600E+03  0.15373005602E+03  0.25500000000E-02 0.  1.
    8880022    1    1    2    0    0  0.79139632682E+02  0.51702608824E+03  0.14653177820E+04  0.15633703697E+04  0.15294330000E+03 0.  0.
    8880022    1    1    2    0    0 -0.79139632682E+02 -0.51702608824E+03  0.60436987606E+03  0.81377740045E+03  0.15294330000E+03 0.  0.
<mgrwt>
<rscale>  0 0.54495019E+03</rscale>
<asrwt>0</asrwt>
<pdfrwt beam="1">  1        2 0.34206427E+00 0.54495019E+03</pdfrwt>
<pdfrwt beam="2">  1       -2 0.23650778E-01 0.54495019E+03</pdfrwt>
<totfact> 0.84196319E+01</totfact>
</mgrwt>
</event>
<event>
 4    1  0.4639964E-008  0.3585701E+03  0.7818608E-02  0.1059151E+00
          2   -1    0    0  501    0  0.00000000000E+00  0.00000000000E+00  0.44926046153E+04  0.44926046153E+04  0.25500000000E-02 0. -1.
         -2   -1    0    0    0  501 -0.00000000000E+00 -0.00000000000E+00 -0.52177934580E+03  0.52177934581E+03  0.25500000000E-02 0.  1.
    8880022    1    1    2    0    0 -0.30729107111E+03 -0.10369697385E+03  0.44228774364E+04  0.44373885716E+04  0.15294330000E+03 0.  0.
    8880022    1    1    2    0    0  0.30729107111E+03  0.10369697385E+03 -0.45205216698E+03  0.57699538945E+03  0.15294330000E+03 0.  1.
<mgrwt>
<rscale>  0 0.35857010E+03</rscale>
<asrwt>0</asrwt>
<pdfrwt beam="1">  1        2 0.69116997E+00 0.35857010E+03</pdfrwt>
<pdfrwt beam="2">  1       -2 0.80273742E-01 0.35857010E+03</pdfrwt>
<totfact> 0.23256791E-01</totfact>
</mgrwt>
</event>
<event>
 4    1  0.4639964E-008  0.5546435E+03  0.7818608E-02  0.1000425E+00
         -2   -1    0    0    0  501 -0.00000000000E+00  0.00000000000E+00  0.75413840482E+03  0.75413840482E+03  0.25500000000E-02 0.  1.
          2   -1    0    0  501    0  0.00000000000E+00 -0.00000000000E+00 -0.93863798097E+03  0.93863798097E+03  0.25500000000E-02 0. -1.
    8880022    1    1    2    0    0 -0.36891007099E+03 -0.38489370887E+03 -0.72868136318E+03  0.91575432822E+03  0.15294330000E+03 0.  0.
    8880022    1    1    2    0    0  0.36891007099E+03  0.38489370887E+03  0.54418178703E+03  0.77702205757E+03  0.15294330000E+03 0.  0.
<mgrwt>
<rscale>  0 0.55464354E+03</rscale>
<asrwt>0</asrwt>
<pdfrwt beam="1">  1        2 0.14440584E+00 0.55464354E+03</pdfrwt>
<pdfrwt beam="2">  1       -2 0.11602129E+00 0.55464354E+03</pdfrwt>
<totfact> 0.16593383E+01</totfact>
</mgrwt>
</event>
<event>
 4    1  0.4639964E-008  0.3929583E+03  0.7818608E-02  0.1046246E+00
         -2   -1    0    0    0  501 -0.00000000000E+00  0.00000000000E+00  0.23468584645E+03  0.23468584646E+03  0.25500000000E-02 0.  1.
          2   -1    0    0  501    0  0.00000000000E+00 -0.00000000000E+00 -0.16501507060E+04  0.16501507060E+04  0.25500000000E-02 0. -1.
    8880022    1    1    2    0    0 -0.33073344012E+03  0.14710538881E+03  0.23031788351E+02  0.39363272237E+03  0.15294330000E+03 0.  1.
    8880022    1    1    2    0    0  0.33073344012E+03 -0.14710538881E+03 -0.14384966479E+04  0.14912038301E+04  0.15294330000E+03 0.  0.
<mgrwt>
<rscale>  0 0.39295834E+03</rscale>
<asrwt>0</asrwt>
<pdfrwt beam="1">  1        2 0.25386933E+00 0.39295834E+03</pdfrwt>
<pdfrwt beam="2">  1       -2 0.36105516E-01 0.39295834E+03</pdfrwt>
<totfact> 0.80943614E+01</totfact>
</mgrwt>
</event>
<event>
 4    1  0.4639964E-008  0.6213676E+03  0.7818608E-02  0.9862041E-01
         -2   -1    0    0    0  501 -0.00000000000E+00  0.00000000000E+00  0.46431721955E+03  0.46431721956E+03  0.25500000000E-02 0.  1.
          2   -1    0    0  501    0  0.00000000000E+00 -0.00000000000E+00 -0.29322997635E+04  0.29322997635E+04  0.25500000000E-02 0. -1.
    8880022    1    1    2    0    0  0.56494776345E+03 -0.20866243087E+03 -0.26714677605E+04  0.27427791806E+04  0.15294330000E+03 0.  0.
    8880022    1    1    2    0    0 -0.56494776345E+03  0.20866243087E+03  0.20348521655E+03  0.65383780240E+03  0.15294330000E+03 0.  0.
<mgrwt>
<rscale>  0 0.62136756E+03</rscale>
<asrwt>0</asrwt>
<pdfrwt beam="1">  1        2 0.45112303E+00 0.62136756E+03</pdfrwt>
<pdfrwt beam="2">  1       -2 0.71433420E-01 0.62136756E+03</pdfrwt>
<totfact> 0.37350661E+00</totfact>
</mgrwt>
</event>
<event>
 4    1  0.4639964E-008  0.3308855E+03  0.7818608E-02  0.1070746E+00
          2   -1    0    0  501    0  0.00000000000E+00  0.00000000000E+00  0.15939784939E+04  0.15939784939E+04  0.25500000000E-02 0. -1.
         -2   -1    0    0    0  501 -0.00000000000E+00 -0.00000000000E+00 -0.29911153651E+03  0.29911153652E+03  0.25500000000E-02 0.  1.
    8880022    1    1    2    0    0  0.13756147256E+03  0.25917247088E+03  0.14782197286E+04  0.15147999034E+04  0.15294330000E+03 0.  0.
    8880022    1    1    2    0    0 -0.13756147256E+03 -0.25917247088E+03 -0.18335277127E+03  0.37829012694E+03  0.15294330000E+03 0.  1.
<mgrwt>
<rscale>  0 0.33088545E+03</rscale>
<asrwt>0</asrwt>
<pdfrwt beam="1">  1        2 0.24522746E+00 0.33088545E+03</pdfrwt>
<pdfrwt beam="2">  1       -2 0.46017159E-01 0.33088545E+03</pdfrwt>
<totfact> 0.54999462E+01</totfact>
</mgrwt>
</event>
<event>
 4    1  0.4955083E-008  0.8848332E+03  0.7818608E-02  0.9444742E-01
          2   -1    0    0  501    0  0.00000000000E+00  0.00000000000E+00  0.24322539759E+04  0.24322539759E+04  0.25500000000E-02 0. -1.
         -2   -1    0    0    0  501 -0.00000000000E+00 -0.00000000000E+00 -0.11453242260E+04  0.11453242260E+04  0.25500000000E-02 0.  1.
    8880022    1    1    2    0    0 -0.15270328431E+03 -0.85803256214E+03 -0.87326456652E+03  0.12431897791E+04  0.15294330000E+03 0.  0.
    8880022    1    1    2    0    0  0.15270328431E+03  0.85803256214E+03  0.21601943164E+04  0.23343884228E+04  0.15294330000E+03 0.  0.
<mgrwt>
<rscale>  0 0.88483322E+03</rscale>
<asrwt>0</asrwt>
<pdfrwt beam="1">  1        2 0.37419291E+00 0.88483322E+03</pdfrwt>
<pdfrwt beam="2">  1       -2 0.17620373E+00 0.88483322E+03</pdfrwt>
<totfact> 0.75214285E-01</totfact>
</mgrwt>
</event>
<event>
 4    1  0.4639964E-008  0.3837394E+03  0.7818608E-02  0.1049560E+00
          2   -1    0    0  501    0  0.00000000000E+00  0.00000000000E+00  0.10406555861E+04  0.10406555861E+04  0.25500000000E-02 0. -1.
         -2   -1    0    0    0  501 -0.00000000000E+00 -0.00000000000E+00 -0.38406561250E+03  0.38406561251E+03  0.25500000000E-02 0.  1.
    8880022    1    1    2    0    0  0.65303601486E+01  0.35188299272E+03 -0.23782575199E+03  0.45146099222E+03  0.15294330000E+03 0.  0.
    8880022    1    1    2    0    0 -0.65303601486E+01 -0.35188299272E+03  0.89441572558E+03  0.97326020640E+03  0.15294330000E+03 0. -1.
<mgrwt>
<rscale>  0 0.38373942E+03</rscale>
<asrwt>0</asrwt>
<pdfrwt beam="1">  1        2 0.16010085E+00 0.38373942E+03</pdfrwt>
<pdfrwt beam="2">  1       -2 0.59087019E-01 0.38373942E+03</pdfrwt>
<totfact> 0.67204978E+01</totfact>
</mgrwt>
</event>
<event>
 4    1  0.4639964E-008  0.1870517E+03  0.7818608E-02  0.1161148E+00
         -2   -1    0    0    0  501 -0.00000000000E+00  0.00000000000E+00  0.88803003060E+02  0.88803003097E+02  0.25500000000E-02 0.  1.
          2   -1    0    0  501    0  0.00000000000E+00 -0.00000000000E+00 -0.48742134506E+03  0.48742134507E+03  0.25500000000E-02 0. -1.
    8880022    1    1    2    0    0  0.38801453699E+02 -0.10045463563E+03 -0.73174773760E+02  0.20085538867E+03  0.15294330000E+03 0.  0.
    8880022    1    1    2    0    0 -0.38801453699E+02  0.10045463563E+03 -0.32544356824E+03  0.37536895950E+03  0.15294330000E+03 0.  1.
<mgrwt>
<rscale>  0 0.18705170E+03</rscale>
<asrwt>0</asrwt>
<pdfrwt beam="1">  1        2 0.74987897E-01 0.18705170E+03</pdfrwt>
<pdfrwt beam="2">  1       -2 0.13662001E-01 0.18705170E+03</pdfrwt>
<totfact> 0.25280973E+03</totfact>
</mgrwt>
</event>
<event>
 4    1  0.4639964E-008  0.3299978E+03  0.7818608E-02  0.1071138E+00
         -2   -1    0    0    0  501 -0.00000000000E+00  0.00000000000E+00  0.13848429744E+03  0.13848429746E+03  0.25500000000E-02 0.  1.
          2   -1    0    0  501    0  0.00000000000E+00 -0.00000000000E+00 -0.12135814322E+04  0.12135814322E+04  0.25500000000E-02 0. -1.
    8880022    1    1    2    0    0  0.27525150821E+03  0.98709332632E+02 -0.13644213985E+03  0.35709247494E+03  0.15294330000E+03 0.  0.
    8880022    1    1    2    0    0 -0.27525150821E+03 -0.98709332632E+02 -0.93865499490E+03  0.99497325471E+03  0.15294330000E+03 0.  0.
<mgrwt>
<rscale>  0 0.32999785E+03</rscale>
<asrwt>0</asrwt>
<pdfrwt beam="1">  1        2 0.18670483E+00 0.32999785E+03</pdfrwt>
<pdfrwt beam="2">  1       -2 0.21305277E-01 0.32999785E+03</pdfrwt>
<totfact> 0.36951851E+02</totfact>
</mgrwt>
</event>
<event>
 4    1  0.4639964E-008  0.4492552E+03  0.7818608E-02  0.1027944E+00
          2   -1    0    0  501    0  0.00000000000E+00  0.00000000000E+00  0.30659050070E+04  0.30659050070E+04  0.25500000000E-02 0. -1.
         -2   -1    0    0    0  501 -0.00000000000E+00 -0.00000000000E+00 -0.11767420595E+03  0.11767420598E+03  0.25500000000E-02 0.  1.
    8880022    1    1    2    0    0  0.39880958104E+03 -0.13924604567E+03  0.25306722242E+04  0.25702396975E+04  0.15294330000E+03 0.  0.
    8880022    1    1    2    0    0 -0.39880958104E+03  0.13924604567E+03  0.41755857685E+03  0.61333951550E+03  0.15294330000E+03 0.  0.
<mgrwt>
<rscale>  0 0.44925516E+03</rscale>
<asrwt>0</asrwt>
<pdfrwt beam="1">  1        2 0.47167770E+00 0.44925516E+03</pdfrwt>
<pdfrwt beam="2">  1       -2 0.18103724E-01 0.44925516E+03</pdfrwt>
<totfact> 0.45055399E+01</totfact>
</mgrwt>
</event>
<event>
 4    1  0.4639964E-008  0.3563319E+03  0.7818608E-02  0.1060046E+00
         -2   -1    0    0    0  501 -0.00000000000E+00  0.00000000000E+00  0.34918299522E+03  0.34918299522E+03  0.25500000000E-02 0.  1.
          2   -1    0    0  501    0  0.00000000000E+00 -0.00000000000E+00 -0.50140055175E+03  0.50140055175E+03  0.25500000000E-02 0. -1.
    8880022    1    1    2    0    0 -0.10864153508E+03 -0.30294843653E+03 -0.29904333176E+03  0.46518738765E+03  0.15294330000E+03 0.  0.
    8880022    1    1    2    0    0  0.10864153508E+03  0.30294843653E+03  0.14682577523E+03  0.38539615933E+03  0.15294330000E+03 0.  0.
<mgrwt>
<rscale>  0 0.35633186E+03</rscale>
<asrwt>0</asrwt>
<pdfrwt beam="1">  1        2 0.77138547E-01 0.35633186E+03</pdfrwt>
<pdfrwt beam="2">  1       -2 0.53720461E-01 0.35633186E+03</pdfrwt>
<totfact> 0.20655002E+02</totfact>
</mgrwt>
</event>
<event>
 4    1  0.4639964E-008  0.6010753E+03  0.7818608E-02  0.9903178E-01
          2   -1    0    0  501    0  0.00000000000E+00  0.00000000000E+00  0.32432733563E+04  0.32432733563E+04  0.25500000000E-02 0. -1.
         -2   -1    0    0    0  501 -0.00000000000E+00 -0.00000000000E+00 -0.20940461506E+03  0.20940461508E+03  0.25500000000E-02 0.  1.
    8880022    1    1    2    0    0 -0.46036784271E+03 -0.35491026080E+03  0.26979685646E+04  0.27641139398E+04  0.15294330000E+03 0.  0.
    8880022    1    1    2    0    0  0.46036784271E+03  0.35491026080E+03  0.33590017661E+03  0.68856403150E+03  0.15294330000E+03 0.  0.
<mgrwt>
<rscale>  0 0.60107528E+03</rscale>
<asrwt>0</asrwt>
<pdfrwt beam="1">  1        2 0.49896512E+00 0.60107528E+03</pdfrwt>
<pdfrwt beam="2">  1       -2 0.32216095E-01 0.60107528E+03</pdfrwt>
<totfact> 0.12015528E+01</totfact>
</mgrwt>
</event>
<event>
 4    1  0.4639964E-008  0.5906130E+03  0.7818608E-02  0.9925075E-01
          2   -1    0    0  501    0  0.00000000000E+00  0.00000000000E+00  0.84355235410E+03  0.84355235411E+03  0.25500000000E-02 0. -1.
         -2   -1    0    0    0  501 -0.00000000000E+00 -0.00000000000E+00 -0.65246367818E+03  0.65246367819E+03  0.25500000000E-02 0.  1.
    8880022    1    1    2    0    0 -0.10635535861E+03 -0.56046458809E+03 -0.35712191301E+03  0.69018818490E+03  0.15294330000E+03 0.  0.
    8880022    1    1    2    0    0  0.10635535861E+03  0.56046458809E+03  0.54821058893E+03  0.80582784740E+03  0.15294330000E+03 0.  0.
<mgrwt>
<rscale>  0 0.59061296E+03</rscale>
<asrwt>0</asrwt>
<pdfrwt beam="1">  1        2 0.12977728E+00 0.59061296E+03</pdfrwt>
<pdfrwt beam="2">  1       -2 0.10037903E+00 0.59061296E+03</pdfrwt>
<totfact> 0.27086227E+01</totfact>
</mgrwt>
</event>
<event>
 4    1  0.4639964E-008  0.5025801E+03  0.7818608E-02  0.1013108E+00
         -2   -1    0    0    0  501 -0.00000000000E+00  0.00000000000E+00  0.11640772719E+03  0.11640772722E+03  0.25500000000E-02 0.  1.
          2   -1    0    0  501    0  0.00000000000E+00 -0.00000000000E+00 -0.23812114631E+04  0.23812114631E+04  0.25500000000E-02 0. -1.
    8880022    1    1    2    0    0 -0.45000322922E+03 -0.16337732772E+03 -0.15044639491E+04  0.15861899270E+04  0.15294330000E+03 0.  0.
    8880022    1    1    2    0    0  0.45000322922E+03  0.16337732772E+03 -0.76033978678E+03  0.91142926325E+03  0.15294330000E+03 0.  0.
<mgrwt>
<rscale>  0 0.50258005E+03</rscale>
<asrwt>0</asrwt>
<pdfrwt beam="1">  1        2 0.36634019E+00 0.50258005E+03</pdfrwt>
<pdfrwt beam="2">  1       -2 0.17908883E-01 0.50258005E+03</pdfrwt>
<totfact> 0.11285356E+02</totfact>
</mgrwt>
</event>
<event>
 4    1  0.4639964E-008  0.4765004E+03  0.7818608E-02  0.1020101E+00
          2   -1    0    0  501    0  0.00000000000E+00  0.00000000000E+00  0.19736311429E+04  0.19736311429E+04  0.25500000000E-02 0. -1.
         -2   -1    0    0    0  501 -0.00000000000E+00 -0.00000000000E+00 -0.25487300184E+03  0.25487300186E+03  0.25500000000E-02 0.  1.
    8880022    1    1    2    0    0  0.43560068206E+03 -0.11795341176E+03  0.34060563689E+02  0.47771616737E+03  0.15294330000E+03 0.  0.
    8880022    1    1    2    0    0 -0.43560068206E+03  0.11795341176E+03  0.16846975773E+04  0.17507879773E+04  0.15294330000E+03 0.  0.
<mgrwt>
<rscale>  0 0.47650038E+03</rscale>
<asrwt>0</asrwt>
<pdfrwt beam="1">  1        2 0.30363556E+00 0.47650038E+03</pdfrwt>
<pdfrwt beam="2">  1       -2 0.39211231E-01 0.47650038E+03</pdfrwt>
<totfact> 0.45643573E+01</totfact>
</mgrwt>
</event>
<event>
 4    1  0.4639964E-008  0.4505881E+03  0.7818608E-02  0.1027547E+00
          2   -1    0    0  501    0  0.00000000000E+00  0.00000000000E+00  0.34303041733E+03  0.34303041734E+03  0.25500000000E-02 0. -1.
         -2   -1    0    0    0  501 -0.00000000000E+00 -0.00000000000E+00 -0.75182168846E+03  0.75182168846E+03  0.25500000000E-02 0.  1.
    8880022    1    1    2    0    0  0.41599853286E+03 -0.81136802951E+02 -0.45689579698E+03  0.64170350042E+03  0.15294330000E+03 0.  0.
    8880022    1    1    2    0    0 -0.41599853286E+03  0.81136802951E+02  0.48104525858E+02  0.45314860538E+03  0.15294330000E+03 0.  0.
<mgrwt>
<rscale>  0 0.45058807E+03</rscale>
<asrwt>0</asrwt>
<pdfrwt beam="1">  1        2 0.52773910E-01 0.45058807E+03</pdfrwt>
<pdfrwt beam="2">  1       -2 0.11566488E+00 0.45058807E+03</pdfrwt>
<totfact> 0.56759937E+01</totfact>
</mgrwt>
</event>
<event>
 4    1  0.4639964E-008  0.9958391E+03  0.7818608E-02  0.9313120E-01
          2   -1    0    0  501    0  0.00000000000E+00  0.00000000000E+00  0.13614740056E+04  0.13614740056E+04  0.25500000000E-02 0. -1.
         -2   -1    0    0    0  501 -0.00000000000E+00 -0.00000000000E+00 -0.11804314368E+04  0.11804314368E+04  0.25500000000E-02 0.  1.
    8880022    1    1    2    0    0  0.88097931287E+03 -0.43838269270E+03 -0.69597027201E+03  0.12149362977E+04  0.15294330000E+03 0.  0.
    8880022    1    1    2    0    0 -0.88097931287E+03  0.43838269270E+03  0.87701284078E+03  0.13269691447E+04  0.15294330000E+03 0.  0.
<mgrwt>
<rscale>  0 0.99583914E+03</rscale>
<asrwt>0</asrwt>
<pdfrwt beam="1">  1        2 0.20945754E+00 0.99583914E+03</pdfrwt>
<pdfrwt beam="2">  1       -2 0.18160484E+00 0.99583914E+03</pdfrwt>
<totfact> 0.26716175E+00</totfact>
</mgrwt>
</event>
<event>
 4    1  0.4639964E-008  0.8346553E+03  0.7818608E-02  0.9511167E-01
          2   -1    0    0  501    0  0.00000000000E+00  0.00000000000E+00  0.27986312707E+04  0.27986312707E+04  0.25500000000E-02 0. -1.
         -2   -1    0    0    0  501 -0.00000000000E+00 -0.00000000000E+00 -0.40319790112E+03  0.40319790113E+03  0.25500000000E-02 0.  1.
    8880022    1    1    2    0    0  0.46078396201E+03 -0.67892267848E+03  0.21879869513E+04  0.23417806078E+04  0.15294330000E+03 0.  0.
    8880022    1    1    2    0    0 -0.46078396201E+03  0.67892267848E+03  0.20744641826E+03  0.86004856402E+03  0.15294330000E+03 0.  0.
<mgrwt>
<rscale>  0 0.83465533E+03</rscale>
<asrwt>0</asrwt>
<pdfrwt beam="1">  1        2 0.43055868E+00 0.83465533E+03</pdfrwt>
<pdfrwt beam="2">  1       -2 0.62030444E-01 0.83465533E+03</pdfrwt>
<totfact> 0.58333095E+00</totfact>
</mgrwt>
</event>
<event>
 4    1  0.4639964E-008  0.1164343E+04  0.7818608E-02  0.9144653E-01
          2   -1    0    0  501    0  0.00000000000E+00  0.00000000000E+00  0.41571306322E+04  0.41571306322E+04  0.25500000000E-02 0. -1.
         -2   -1    0    0    0  501 -0.00000000000E+00 -0.00000000000E+00 -0.69291398316E+03  0.69291398316E+03  0.25500000000E-02 0.  1.
    8880022    1    1    2    0    0  0.62453860468E+03  0.97069800708E+03  0.34964848203E+04  0.36852545151E+04  0.15294330000E+03 0.  0.
    8880022    1    1    2    0    0 -0.62453860468E+03 -0.97069800708E+03 -0.32268171269E+02  0.11647901002E+04  0.15294330000E+03 0.  0.
<mgrwt>
<rscale>  0 0.11643431E+04</rscale>
<asrwt>0</asrwt>
<pdfrwt beam="1">  1        2 0.63955856E+00 0.11643431E+04</pdfrwt>
<pdfrwt beam="2">  1       -2 0.10660215E+00 0.11643431E+04</pdfrwt>
<totfact> 0.18372388E-01</totfact>
</mgrwt>
</event>
<event>
 4    1  0.4639964E-008  0.8654220E+03  0.7818608E-02  0.9469869E-01
         -2   -1    0    0    0  501 -0.00000000000E+00  0.00000000000E+00  0.10551876838E+04  0.10551876838E+04  0.25500000000E-02 0.  1.
          2   -1    0    0  501    0  0.00000000000E+00 -0.00000000000E+00 -0.77110344198E+03  0.77110344199E+03  0.25500000000E-02 0. -1.
    8880022    1    1    2    0    0 -0.41021782681E+03 -0.74651523026E+03  0.39954546996E+03  0.95320086552E+03  0.15294330000E+03 0.  0.
    8880022    1    1    2    0    0  0.41021782681E+03  0.74651523026E+03 -0.11546122810E+03  0.87309026031E+03  0.15294330000E+03 0.  0.
<mgrwt>
<rscale>  0 0.86542204E+03</rscale>
<asrwt>0</asrwt>
<pdfrwt beam="1">  1        2 0.11863130E+00 0.86542204E+03</pdfrwt>
<pdfrwt beam="2">  1       -2 0.16233657E+00 0.86542204E+03</pdfrwt>
<totfact> 0.87942129E+00</totfact>
</mgrwt>
</event>
<event>
 4    1  0.4639964E-008  0.6574926E+03  0.7818608E-02  0.9792821E-01
         -2   -1    0    0    0  501 -0.00000000000E+00  0.00000000000E+00  0.45934125749E+03  0.45934125750E+03  0.25500000000E-02 0.  1.
          2   -1    0    0  501    0  0.00000000000E+00 -0.00000000000E+00 -0.14770862367E+04  0.14770862367E+04  0.25500000000E-02 0. -1.
    8880022    1    1    2    0    0 -0.56516763413E+03 -0.29914951022E+03 -0.10920971710E+04  0.12747441971E+04  0.15294330000E+03 0.  0.
    8880022    1    1    2    0    0  0.56516763413E+03  0.29914951022E+03  0.74352191851E+02  0.66168329704E+03  0.15294330000E+03 0.  0.
<mgrwt>
<rscale>  0 0.65749261E+03</rscale>
<asrwt>0</asrwt>
<pdfrwt beam="1">  1        2 0.22724403E+00 0.65749261E+03</pdfrwt>
<pdfrwt beam="2">  1       -2 0.70667886E-01 0.65749261E+03</pdfrwt>
<totfact> 0.24652026E+01</totfact>
</mgrwt>
</event>
<event>
 4    1  0.4639964E-008  0.5328758E+03  0.7818608E-02  0.1005537E+00
         -2   -1    0    0    0  501 -0.00000000000E+00  0.00000000000E+00  0.20852453303E+03  0.20852453304E+03  0.25500000000E-02 0.  1.
          2   -1    0    0  501    0  0.00000000000E+00 -0.00000000000E+00 -0.14299605529E+04  0.14299605529E+04  0.25500000000E-02 0. -1.
    8880022    1    1    2    0    0  0.20289632215E+03  0.46839939974E+03 -0.43178007184E+03  0.68585027423E+03  0.15294330000E+03 0.  0.
    8880022    1    1    2    0    0 -0.20289632215E+03 -0.46839939974E+03 -0.78965594808E+03  0.95263481176E+03  0.15294330000E+03 0. -1.
<mgrwt>
<rscale>  0 0.53287575E+03</rscale>
<asrwt>0</asrwt>
<pdfrwt beam="1">  1        2 0.21999393E+00 0.53287575E+03</pdfrwt>
<pdfrwt beam="2">  1       -2 0.32080698E-01 0.53287575E+03</pdfrwt>
<totfact> 0.13050897E+02</totfact>
</mgrwt>
</event>
<event>
 4    1  0.4639964E-008  0.1033138E+04  0.7818608E-02  0.9272929E-01
         -2   -1    0    0    0  501 -0.00000000000E+00  0.00000000000E+00  0.11150229637E+04  0.11150229637E+04  0.25500000000E-02 0.  1.
          2   -1    0    0  501    0  0.00000000000E+00 -0.00000000000E+00 -0.15648331150E+04  0.15648331150E+04  0.25500000000E-02 0. -1.
    8880022    1    1    2    0    0  0.10117430017E+04 -0.14268043969E+03  0.61001458958E+03  0.11997879237E+04  0.15294330000E+03 0.  0.
    8880022    1    1    2    0    0 -0.10117430017E+04  0.14268043969E+03 -0.10598247408E+04  0.14800681550E+04  0.15294330000E+03 0.  0.
<mgrwt>
<rscale>  0 0.10331376E+04</rscale>
<asrwt>0</asrwt>
<pdfrwt beam="1">  1        2 0.24074356E+00 0.10331376E+04</pdfrwt>
<pdfrwt beam="2">  1       -2 0.17154200E+00 0.10331376E+04</pdfrwt>
<totfact> 0.23986177E+00</totfact>
</mgrwt>
</event>
<event>
 4    1  0.4639964E-008  0.6849516E+03  0.7818608E-02  0.9743319E-01
         -2   -1    0    0    0  501 -0.00000000000E+00  0.00000000000E+00  0.59199667494E+03  0.59199667495E+03  0.25500000000E-02 0.  1.
          2   -1    0    0  501    0  0.00000000000E+00 -0.00000000000E+00 -0.16295818675E+04  0.16295818675E+04  0.25500000000E-02 0. -1.
    8880022    1    1    2    0    0 -0.41303266222E+03 -0.52456747361E+03  0.27732455641E+03  0.73896385367E+03  0.15294330000E+03 0.  0.
    8880022    1    1    2    0    0  0.41303266222E+03  0.52456747361E+03 -0.13149097490E+04  0.14826146888E+04  0.15294330000E+03 0.  0.
<mgrwt>
<rscale>  0 0.68495158E+03</rscale>
<asrwt>0</asrwt>
<pdfrwt beam="1">  1        2 0.25070490E+00 0.68495158E+03</pdfrwt>
<pdfrwt beam="2">  1       -2 0.91076412E-01 0.68495158E+03</pdfrwt>
<totfact> 0.11442565E+01</totfact>
</mgrwt>
</event>
<event>
 4    1  0.4639964E-008  0.5192439E+03  0.7818608E-02  0.1008875E+00
         -2   -1    0    0    0  501 -0.00000000000E+00  0.00000000000E+00  0.57988259317E+03  0.57988259318E+03  0.25500000000E-02 0.  1.
          2   -1    0    0  501    0  0.00000000000E+00 -0.00000000000E+00 -0.20629961999E+04  0.20629961999E+04  0.25500000000E-02 0. -1.
    8880022    1    1    2    0    0  0.18082867789E+03  0.46208615415E+03 -0.19045929213E+04  0.19741044738E+04  0.15294330000E+03 0.  0.
    8880022    1    1    2    0    0 -0.18082867789E+03 -0.46208615415E+03  0.42147931452E+03  0.66877431932E+03  0.15294330000E+03 0.  0.
<mgrwt>
<rscale>  0 0.51924395E+03</rscale>
<asrwt>0</asrwt>
<pdfrwt beam="1">  1        2 0.31738403E+00 0.51924395E+03</pdfrwt>
<pdfrwt beam="2">  1       -2 0.89212708E-01 0.51924395E+03</pdfrwt>
<totfact> 0.72096425E+00</totfact>
</mgrwt>
</event>
<event>
 4    1  0.4639964E-008  0.5339556E+03  0.7818608E-02  0.1005277E+00
         -2   -1    0    0    0  501 -0.00000000000E+00  0.00000000000E+00  0.21372260814E+04  0.21372260814E+04  0.25500000000E-02 0.  1.
          2   -1    0    0  501    0  0.00000000000E+00 -0.00000000000E+00 -0.42045041384E+03  0.42045041385E+03  0.25500000000E-02 0. -1.
    8880022    1    1    2    0    0 -0.45895724968E+03 -0.22599828487E+03  0.19150505071E+04  0.19880963456E+04  0.15294330000E+03 0.  0.
    8880022    1    1    2    0    0  0.45895724968E+03  0.22599828487E+03 -0.19827483955E+03  0.56958014959E+03  0.15294330000E+03 0. -1.
<mgrwt>
<rscale>  0 0.53395565E+03</rscale>
<asrwt>0</asrwt>
<pdfrwt beam="1">  1        2 0.64684680E-01 0.53395565E+03</pdfrwt>
<pdfrwt beam="2">  1       -2 0.32880401E+00 0.53395565E+03</pdfrwt>
<totfact> 0.17343514E+00</totfact>
</mgrwt>
</event>
<event>
 4    1  0.4639964E-008  0.1301638E+04  0.7818608E-02  0.9028267E-01
          2   -1    0    0  501    0  0.00000000000E+00  0.00000000000E+00  0.12371372575E+04  0.12371372575E+04  0.25500000000E-02 0. -1.
         -2   -1    0    0    0  501 -0.00000000000E+00 -0.00000000000E+00 -0.18264243215E+04  0.18264243215E+04  0.25500000000E-02 0.  1.
    8880022    1    1    2    0    0  0.11897084073E+04  0.50543389140E+03 -0.10607996355E+04  0.16791536656E+04  0.15294330000E+03 0.  0.
    8880022    1    1    2    0    0 -0.11897084073E+04 -0.50543389140E+03  0.47151257148E+03  0.13844079135E+04  0.15294330000E+03 0.  1.
<mgrwt>
<rscale>  0 0.13016379E+04</rscale>
<asrwt>0</asrwt>
<pdfrwt beam="1">  1        2 0.19032881E+00 0.13016379E+04</pdfrwt>
<pdfrwt beam="2">  1       -2 0.28098836E+00 0.13016379E+04</pdfrwt>
<totfact> 0.72011048E-01</totfact>
</mgrwt>
</event>
<event>
 4    1  0.4639964E-008  0.7628520E+03  0.7818608E-02  0.9615401E-01
          2   -1    0    0  501    0  0.00000000000E+00  0.00000000000E+00  0.20280193070E+04  0.20280193070E+04  0.25500000000E-02 0. -1.
         -2   -1    0    0    0  501 -0.00000000000E+00 -0.00000000000E+00 -0.36658599227E+03  0.36658599228E+03  0.25500000000E-02 0.  1.
    8880022    1    1    2    0    0  0.63363141507E+03 -0.39631138829E+03  0.13887583862E+04  0.15844850883E+04  0.15294330000E+03 0.  0.
    8880022    1    1    2    0    0 -0.63363141507E+03  0.39631138829E+03  0.27267492853E+03  0.81012021102E+03  0.15294330000E+03 0.  0.
<mgrwt>
<rscale>  0 0.76285198E+03</rscale>
<asrwt>0</asrwt>
<pdfrwt beam="1">  1        2 0.31200297E+00 0.76285198E+03</pdfrwt>
<pdfrwt beam="2">  1       -2 0.56397845E-01 0.76285198E+03</pdfrwt>
<totfact> 0.19641033E+01</totfact>
</mgrwt>
</event>
<event>
 4    1  0.4639964E-008  0.4070170E+03  0.7818608E-02  0.1041377E+00
          2   -1    0    0  501    0  0.00000000000E+00  0.00000000000E+00  0.75822086926E+03  0.75822086926E+03  0.25500000000E-02 0. -1.
         -2   -1    0    0    0  501 -0.00000000000E+00 -0.00000000000E+00 -0.40467476011E+03  0.40467476012E+03  0.25500000000E-02 0.  1.
    8880022    1    1    2    0    0 -0.32775309704E+03 -0.18667903430E+03  0.57116776992E+03  0.70135257102E+03  0.15294330000E+03 0.  0.
    8880022    1    1    2    0    0  0.32775309704E+03  0.18667903430E+03 -0.21762166078E+03  0.46154305836E+03  0.15294330000E+03 0.  0.
<mgrwt>
<rscale>  0 0.40701696E+03</rscale>
<asrwt>0</asrwt>
<pdfrwt beam="1">  1        2 0.11664936E+00 0.40701696E+03</pdfrwt>
<pdfrwt beam="2">  1       -2 0.62257656E-01 0.40701696E+03</pdfrwt>
<totfact> 0.92348911E+01</totfact>
</mgrwt>
</event>
<event>
 4    1  0.4639964E-008  0.9400563E+03  0.7818608E-02  0.9376849E-01
          2   -1    0    0  501    0  0.00000000000E+00  0.00000000000E+00  0.10442355038E+04  0.10442355038E+04  0.25500000000E-02 0. -1.
         -2   -1    0    0    0  501 -0.00000000000E+00 -0.00000000000E+00 -0.15088277392E+04  0.15088277392E+04  0.25500000000E-02 0.  1.
    8880022    1    1    2    0    0  0.76823047269E+03 -0.51974613676E+03 -0.10782047003E+04  0.14304653560E+04  0.15294330000E+03 0.  0.
    8880022    1    1    2    0    0 -0.76823047269E+03  0.51974613676E+03  0.61361246490E+03  0.11225978870E+04  0.15294330000E+03 0.  0.
<mgrwt>
<rscale>  0 0.94005625E+03</rscale>
<asrwt>0</asrwt>
<pdfrwt beam="1">  1        2 0.16065162E+00 0.94005625E+03</pdfrwt>
<pdfrwt beam="2">  1       -2 0.23212734E+00 0.94005625E+03</pdfrwt>
<totfact> 0.19619098E+00</totfact>
</mgrwt>
</event>
<event>
 4    1  0.4639964E-008  0.2031297E+04  0.7818608E-02  0.8592126E-01
          2   -1    0    0  501    0  0.00000000000E+00  0.00000000000E+00  0.35681464137E+04  0.35681464137E+04  0.25500000000E-02 0. -1.
         -2   -1    0    0    0  501 -0.00000000000E+00 -0.00000000000E+00 -0.11991973015E+04  0.11991973015E+04  0.25500000000E-02 0.  1.
    8880022    1    1    2    0    0 -0.16540713414E+04  0.11691129758E+04  0.16348348667E+04  0.26074611880E+04  0.15294330000E+03 0.  0.
    8880022    1    1    2    0    0  0.16540713414E+04 -0.11691129758E+04  0.73411424548E+03  0.21598825271E+04  0.15294330000E+03 0.  0.
<mgrwt>
<rscale>  0 0.20312973E+04</rscale>
<asrwt>0</asrwt>
<pdfrwt beam="1">  1        2 0.54894561E+00 0.20312973E+04</pdfrwt>
<pdfrwt beam="2">  1       -2 0.18449189E+00 0.20312973E+04</pdfrwt>
<totfact> 0.10985516E-01</totfact>
</mgrwt>
</event>
<event>
 4    1  0.4639964E-008  0.6008687E+03  0.7818608E-02  0.9903605E-01
         -2   -1    0    0    0  501 -0.00000000000E+00  0.00000000000E+00  0.16905987059E+03  0.16905987061E+03  0.25500000000E-02 0.  1.
          2   -1    0    0  501    0  0.00000000000E+00 -0.00000000000E+00 -0.33719772530E+04  0.33719772530E+04  0.25500000000E-02 0. -1.
    8880022    1    1    2    0    0  0.57934741849E+03  0.44812467308E+02 -0.52936009618E+03  0.80079045510E+03  0.15294330000E+03 0.  0.
    8880022    1    1    2    0    0 -0.57934741849E+03 -0.44812467308E+02 -0.26735572862E+04  0.27402466685E+04  0.15294330000E+03 0.  0.
<mgrwt>
<rscale>  0 0.60086874E+03</rscale>
<asrwt>0</asrwt>
<pdfrwt beam="1">  1        2 0.51876568E+00 0.60086874E+03</pdfrwt>
<pdfrwt beam="2">  1       -2 0.26009213E-01 0.60086874E+03</pdfrwt>
<totfact> 0.14700682E+01</totfact>
</mgrwt>
</event>
<event>
 4    1  0.4639964E-008  0.8313740E+03  0.7818608E-02  0.9515683E-01
         -2   -1    0    0    0  501 -0.00000000000E+00  0.00000000000E+00  0.91238961047E+03  0.91238961047E+03  0.25500000000E-02 0.  1.
          2   -1    0    0  501    0  0.00000000000E+00 -0.00000000000E+00 -0.17514030681E+04  0.17514030681E+04  0.25500000000E-02 0. -1.
    8880022    1    1    2    0    0 -0.73611159889E+03  0.35486725894E+03 -0.14228233200E+04  0.16479104680E+04  0.15294330000E+03 0.  0.
    8880022    1    1    2    0    0  0.73611159889E+03 -0.35486725894E+03  0.58380986234E+03  0.10158822106E+04  0.15294330000E+03 0.  0.
<mgrwt>
<rscale>  0 0.83137399E+03</rscale>
<asrwt>0</asrwt>
<pdfrwt beam="1">  1        2 0.26944663E+00 0.83137399E+03</pdfrwt>
<pdfrwt beam="2">  1       -2 0.14036763E+00 0.83137399E+03</pdfrwt>
<totfact> 0.33348262E+00</totfact>
</mgrwt>
</event>
<event>
 4    1  0.4639964E-008  0.7677712E+03  0.7818608E-02  0.9607875E-01
         -2   -1    0    0    0  501 -0.00000000000E+00  0.00000000000E+00  0.10670263249E+04  0.10670263249E+04  0.25500000000E-02 0.  1.
          2   -1    0    0  501    0  0.00000000000E+00 -0.00000000000E+00 -0.12905252160E+04  0.12905252160E+04  0.25500000000E-02 0. -1.
    8880022    1    1    2    0    0  0.47369873209E+03 -0.58454299637E+03  0.77970658789E+03  0.10942646022E+04  0.15294330000E+03 0.  0.
    8880022    1    1    2    0    0 -0.47369873209E+03  0.58454299637E+03 -0.10032054790E+04  0.12632869387E+04  0.15294330000E+03 0.  0.
<mgrwt>
<rscale>  0 0.76777123E+03</rscale>
<asrwt>0</asrwt>
<pdfrwt beam="1">  1        2 0.19854234E+00 0.76777123E+03</pdfrwt>
<pdfrwt beam="2">  1       -2 0.16415790E+00 0.76777123E+03</pdfrwt>
<totfact> 0.40151322E+00</totfact>
</mgrwt>
</event>
<event>
 4    1  0.4639964E-008  0.3752194E+03  0.7818608E-02  0.1052715E+00
          2   -1    0    0  501    0  0.00000000000E+00  0.00000000000E+00  0.25584274649E+04  0.25584274649E+04  0.25500000000E-02 0. -1.
         -2   -1    0    0    0  501 -0.00000000000E+00 -0.00000000000E+00 -0.17448423276E+03  0.17448423278E+03  0.25500000000E-02 0.  1.
    8880022    1    1    2    0    0 -0.32502738098E+03  0.10842109146E+03  0.61346148409E+02  0.38020117622E+03  0.15294330000E+03 0.  0.
    8880022    1    1    2    0    0  0.32502738098E+03 -0.10842109146E+03  0.23225970837E+04  0.23527105215E+04  0.15294330000E+03 0. -1.
<mgrwt>
<rscale>  0 0.37521938E+03</rscale>
<asrwt>0</asrwt>
<pdfrwt beam="1">  1        2 0.39360422E+00 0.37521938E+03</pdfrwt>
<pdfrwt beam="2">  1       -2 0.26843728E-01 0.37521938E+03</pdfrwt>
<totfact> 0.45463909E+01</totfact>
</mgrwt>
</event>
<event>
 4    1  0.4639964E-008  0.7782750E+03  0.7818608E-02  0.9592007E-01
          2   -1    0    0  501    0  0.00000000000E+00  0.00000000000E+00  0.17005359659E+04  0.17005359659E+04  0.25500000000E-02 0. -1.
         -2   -1    0    0    0  501 -0.00000000000E+00 -0.00000000000E+00 -0.45479732478E+03  0.45479732479E+03  0.25500000000E-02 0.  1.
    8880022    1    1    2    0    0 -0.75459737181E+03 -0.11359204177E+03  0.12106713488E+03  0.78763522627E+03  0.15294330000E+03 0.  0.
    8880022    1    1    2    0    0  0.75459737181E+03  0.11359204177E+03  0.11246715063E+04  0.13676980645E+04  0.15294330000E+03 0.  0.
<mgrwt>
<rscale>  0 0.77827501E+03</rscale>
<asrwt>0</asrwt>
<pdfrwt beam="1">  1        2 0.26162091E+00 0.77827501E+03</pdfrwt>
<pdfrwt beam="2">  1       -2 0.69968821E-01 0.77827501E+03</pdfrwt>
<totfact> 0.18676385E+01</totfact>
</mgrwt>
</event>
<event>
 4    1  0.4639964E-008  0.5196396E+03  0.7818608E-02  0.1008776E+00
         -2   -1    0    0    0  501 -0.00000000000E+00  0.00000000000E+00  0.16554611199E+03  0.16554611201E+03  0.25500000000E-02 0.  1.
          2   -1    0    0  501    0  0.00000000000E+00 -0.00000000000E+00 -0.18518663659E+04  0.18518663659E+04  0.25500000000E-02 0. -1.
    8880022    1    1    2    0    0 -0.66294526263E+02  0.49217753364E+03 -0.11914236966E+04  0.12998137430E+04  0.15294330000E+03 0.  0.
    8880022    1    1    2    0    0  0.66294526263E+02 -0.49217753364E+03 -0.49489655738E+03  0.71759873492E+03  0.15294330000E+03 0.  0.
<mgrwt>
<rscale>  0 0.51963963E+03</rscale>
<asrwt>0</asrwt>
<pdfrwt beam="1">  1        2 0.28490250E+00 0.51963963E+03</pdfrwt>
<pdfrwt beam="2">  1       -2 0.25468634E-01 0.51963963E+03</pdfrwt>
<totfact> 0.11759830E+02</totfact>
</mgrwt>
</event>
<event>
 4    1  0.4639964E-008  0.4757999E+03  0.7818608E-02  0.1020296E+00
         -2   -1    0    0    0  501 -0.00000000000E+00  0.00000000000E+00  0.13503666560E+03  0.13503666563E+03  0.25500000000E-02 0.  1.
          2   -1    0    0  501    0  0.00000000000E+00 -0.00000000000E+00 -0.21956528280E+04  0.21956528280E+04  0.25500000000E-02 0. -1.
    8880022    1    1    2    0    0  0.38694298399E+03 -0.23080082397E+03 -0.15969788410E+04  0.16663513930E+04  0.15294330000E+03 0.  0.
    8880022    1    1    2    0    0 -0.38694298399E+03  0.23080082397E+03 -0.46363732143E+03  0.66433810071E+03  0.15294330000E+03 0. -1.
<mgrwt>
<rscale>  0 0.47579990E+03</rscale>
<asrwt>0</asrwt>
<pdfrwt beam="1">  1        2 0.33779272E+00 0.47579990E+03</pdfrwt>
<pdfrwt beam="2">  1       -2 0.20774873E-01 0.47579990E+03</pdfrwt>
<totfact> 0.11081953E+02</totfact>
</mgrwt>
</event>
<event>
 4    1  0.4639964E-008  0.1082557E+04  0.7818608E-02  0.9222362E-01
          2   -1    0    0  501    0  0.00000000000E+00  0.00000000000E+00  0.15725572529E+04  0.15725572529E+04  0.25500000000E-02 0. -1.
         -2   -1    0    0    0  501 -0.00000000000E+00 -0.00000000000E+00 -0.77203077374E+03  0.77203077375E+03  0.25500000000E-02 0.  1.
    8880022    1    1    2    0    0  0.94921275617E+03 -0.49752694990E+03  0.18187598469E+03  0.10977287685E+04  0.15294330000E+03 0.  0.
    8880022    1    1    2    0    0 -0.94921275617E+03  0.49752694990E+03  0.61865049448E+03  0.12468592582E+04  0.15294330000E+03 0.  0.
<mgrwt>
<rscale>  0 0.10825570E+04</rscale>
<asrwt>0</asrwt>
<pdfrwt beam="1">  1        2 0.24193189E+00 0.10825570E+04</pdfrwt>
<pdfrwt beam="2">  1       -2 0.11877396E+00 0.10825570E+04</pdfrwt>
<totfact> 0.62060277E+00</totfact>
</mgrwt>
</event>
<event>
 4    1  0.4639964E-008  0.4093252E+03  0.7818608E-02  0.1040598E+00
         -2   -1    0    0    0  501 -0.00000000000E+00  0.00000000000E+00  0.78660950984E+03  0.78660950984E+03  0.25500000000E-02 0.  1.
          2   -1    0    0  501    0  0.00000000000E+00 -0.00000000000E+00 -0.15706260161E+04  0.15706260161E+04  0.25500000000E-02 0. -1.
    8880022    1    1    2    0    0  0.31155854426E+03 -0.21699485628E+03 -0.14877969149E+04  0.15430770581E+04  0.15294330000E+03 0.  0.
    8880022    1    1    2    0    0 -0.31155854426E+03  0.21699485628E+03  0.70378040866E+03  0.81415846785E+03  0.15294330000E+03 0.  0.
<mgrwt>
<rscale>  0 0.40932523E+03</rscale>
<asrwt>0</asrwt>
<pdfrwt beam="1">  1        2 0.24163477E+00 0.40932523E+03</pdfrwt>
<pdfrwt beam="2">  1       -2 0.12101685E+00 0.40932523E+03</pdfrwt>
<totfact> 0.66179736E+00</totfact>
</mgrwt>
</event>
<event>
 4    1  0.4639964E-008  0.4460788E+03  0.7818608E-02  0.1028898E+00
         -2   -1    0    0    0  501 -0.00000000000E+00  0.00000000000E+00  0.15604366737E+03  0.15604366739E+03  0.25500000000E-02 0.  1.
          2   -1    0    0  501    0  0.00000000000E+00 -0.00000000000E+00 -0.21441831575E+04  0.21441831575E+04  0.25500000000E-02 0. -1.
    8880022    1    1    2    0    0 -0.40189025975E+03  0.11865455005E+03 -0.17262470885E+04  0.17829513024E+04  0.15294330000E+03 0.  0.
    8880022    1    1    2    0    0  0.40189025975E+03 -0.11865455005E+03 -0.26189240164E+03  0.51727552250E+03  0.15294330000E+03 0.  0.
<mgrwt>
<rscale>  0 0.44607885E+03</rscale>
<asrwt>0</asrwt>
<pdfrwt beam="1">  1        2 0.32987431E+00 0.44607885E+03</pdfrwt>
<pdfrwt beam="2">  1       -2 0.24006720E-01 0.44607885E+03</pdfrwt>
<totfact> 0.92094228E+01</totfact>
</mgrwt>
</event>
<event>
 4    1  0.4639964E-008  0.5789924E+03  0.7818608E-02  0.9949975E-01
          2   -1    0    0  501    0  0.00000000000E+00  0.00000000000E+00  0.12044403008E+04  0.12044403009E+04  0.25500000000E-02 0. -1.
         -2   -1    0    0    0  501 -0.00000000000E+00 -0.00000000000E+00 -0.74978156254E+03  0.74978156255E+03  0.25500000000E-02 0.  1.
    8880022    1    1    2    0    0  0.43109838383E+03  0.35495741848E+03  0.10021387891E+04  0.11573739202E+04  0.15294330000E+03 0.  0.
    8880022    1    1    2    0    0 -0.43109838383E+03 -0.35495741848E+03 -0.54748005084E+03  0.79684794318E+03  0.15294330000E+03 0.  0.
<mgrwt>
<rscale>  0 0.57899243E+03</rscale>
<asrwt>0</asrwt>
<pdfrwt beam="1">  1        2 0.18529851E+00 0.57899243E+03</pdfrwt>
<pdfrwt beam="2">  1       -2 0.11535101E+00 0.57899243E+03</pdfrwt>
<totfact> 0.11509415E+01</totfact>
</mgrwt>
</event>
<event>
 4    1  0.4639964E-008  0.2556815E+03  0.7818608E-02  0.1109766E+00
          2   -1    0    0  501    0  0.00000000000E+00  0.00000000000E+00  0.33166472417E+04  0.33166472417E+04  0.25500000000E-02 0. -1.
         -2   -1    0    0    0  501 -0.00000000000E+00 -0.00000000000E+00 -0.89673622314E+02  0.89673622351E+02  0.25500000000E-02 0.  1.
    8880022    1    1    2    0    0 -0.64035664839E+01  0.20479350678E+03  0.31178667962E+04  0.31283328464E+04  0.15294330000E+03 0.  0.
    8880022    1    1    2    0    0  0.64035664839E+01 -0.20479350678E+03  0.10910682322E+03  0.27798801768E+03  0.15294330000E+03 0.  1.
<mgrwt>
<rscale>  0 0.25568152E+03</rscale>
<asrwt>0</asrwt>
<pdfrwt beam="1">  1        2 0.51025337E+00 0.25568152E+03</pdfrwt>
<pdfrwt beam="2">  1       -2 0.13795943E-01 0.25568152E+03</pdfrwt>
<totfact> 0.53041874E+01</totfact>
</mgrwt>
</event>
<event>
 4    1  0.4639964E-008  0.7712661E+03  0.7818608E-02  0.9602565E-01
          2   -1    0    0  501    0  0.00000000000E+00  0.00000000000E+00  0.27333245816E+04  0.27333245816E+04  0.25500000000E-02 0. -1.
         -2   -1    0    0    0  501 -0.00000000000E+00 -0.00000000000E+00 -0.26520954807E+03  0.26520954809E+03  0.25500000000E-02 0.  1.
    8880022    1    1    2    0    0  0.47273800587E+02 -0.75446998394E+03  0.59902212493E+03  0.97656486116E+03  0.15294330000E+03 0.  0.
    8880022    1    1    2    0    0 -0.47273800587E+02  0.75446998394E+03  0.18690929086E+04  0.20219692685E+04  0.15294330000E+03 0.  0.
<mgrwt>
<rscale>  0 0.77126612E+03</rscale>
<asrwt>0</asrwt>
<pdfrwt beam="1">  1        2 0.42051147E+00 0.77126612E+03</pdfrwt>
<pdfrwt beam="2">  1       -2 0.40801470E-01 0.77126612E+03</pdfrwt>
<totfact> 0.15144884E+01</totfact>
</mgrwt>
</event>
<event>
 4    1  0.4639964E-008  0.4031903E+03  0.7818608E-02  0.1042681E+00
         -2   -1    0    0    0  501 -0.00000000000E+00  0.00000000000E+00  0.16619346655E+03  0.16619346657E+03  0.25500000000E-02 0.  1.
          2   -1    0    0  501    0  0.00000000000E+00 -0.00000000000E+00 -0.26900403055E+04  0.26900403055E+04  0.25500000000E-02 0. -1.
    8880022    1    1    2    0    0 -0.14695702628E+03 -0.34289119224E+03 -0.24011815466E+04  0.24347967492E+04  0.15294330000E+03 0. -1.
    8880022    1    1    2    0    0  0.14695702628E+03  0.34289119224E+03 -0.12266529240E+03  0.42143702290E+03  0.15294330000E+03 0.  0.
<mgrwt>
<rscale>  0 0.40319027E+03</rscale>
<asrwt>0</asrwt>
<pdfrwt beam="1">  1        2 0.41385232E+00 0.40319027E+03</pdfrwt>
<pdfrwt beam="2">  1       -2 0.25568228E-01 0.40319027E+03</pdfrwt>
<totfact> 0.41493971E+01</totfact>
</mgrwt>
</event>
<event>
 4    1  0.4639964E-008  0.7180839E+03  0.7818608E-02  0.9686796E-01
         -2   -1    0    0    0  501 -0.00000000000E+00  0.00000000000E+00  0.16211364101E+04  0.16211364101E+04  0.25500000000E-02 0.  1.
          2   -1    0    0  501    0  0.00000000000E+00 -0.00000000000E+00 -0.10854170468E+04  0.10854170468E+04  0.25500000000E-02 0. -1.
    8880022    1    1    2    0    0 -0.27305370778E+03  0.64629294816E+03  0.14057031343E+04  0.15784948074E+04  0.15294330000E+03 0.  0.
    8880022    1    1    2    0    0  0.27305370778E+03 -0.64629294816E+03 -0.86998377093E+03  0.11280586496E+04  0.15294330000E+03 0.  0.
<mgrwt>
<rscale>  0 0.71808395E+03</rscale>
<asrwt>0</asrwt>
<pdfrwt beam="1">  1        2 0.16698724E+00 0.71808395E+03</pdfrwt>
<pdfrwt beam="2">  1       -2 0.24940560E+00 0.71808395E+03</pdfrwt>
<totfact> 0.15006409E+00</totfact>
</mgrwt>
</event>
<event>
 4    1  0.4639964E-008  0.7572077E+03  0.7818608E-02  0.9624110E-01
          2   -1    0    0  501    0  0.00000000000E+00  0.00000000000E+00  0.30997592527E+04  0.30997592527E+04  0.25500000000E-02 0. -1.
         -2   -1    0    0    0  501 -0.00000000000E+00 -0.00000000000E+00 -0.46407642393E+03  0.46407642394E+03  0.25500000000E-02 0.  1.
    8880022    1    1    2    0    0  0.17774897258E+03  0.71998418139E+03  0.26997444216E+04  0.28039228794E+04  0.15294330000E+03 0.  0.
    8880022    1    1    2    0    0 -0.17774897258E+03 -0.71998418139E+03 -0.64061592833E+02  0.75991279723E+03  0.15294330000E+03 0.  0.
<mgrwt>
<rscale>  0 0.75720775E+03</rscale>
<asrwt>0</asrwt>
<pdfrwt beam="1">  1        2 0.47688605E+00 0.75720775E+03</pdfrwt>
<pdfrwt beam="2">  1       -2 0.71396371E-01 0.75720775E+03</pdfrwt>
<totfact> 0.28653582E+00</totfact>
</mgrwt>
</event>
<event>
 4    1  0.4639964E-008  0.5441987E+03  0.7818608E-02  0.1002846E+00
          2   -1    0    0  501    0  0.00000000000E+00  0.00000000000E+00  0.12782075879E+04  0.12782075879E+04  0.25500000000E-02 0. -1.
         -2   -1    0    0    0  501 -0.00000000000E+00 -0.00000000000E+00 -0.29578611465E+03  0.29578611466E+03  0.25500000000E-02 0.  1.
    8880022    1    1    2    0    0 -0.49031336208E+03  0.17987033830E+03  0.12486710899E+03  0.55834037966E+03  0.15294330000E+03 0.  0.
    8880022    1    1    2    0    0  0.49031336208E+03 -0.17987033830E+03  0.85755436426E+03  0.10156533229E+04  0.15294330000E+03 0.  0.
<mgrwt>
<rscale>  0 0.54419866E+03</rscale>
<asrwt>0</asrwt>
<pdfrwt beam="1">  1        2 0.19664732E+00 0.54419866E+03</pdfrwt>
<pdfrwt beam="2">  1       -2 0.45505557E-01 0.54419866E+03</pdfrwt>
<totfact> 0.80978318E+01</totfact>
</mgrwt>
</event>
<event>
 4    1  0.4639964E-008  0.3340383E+03  0.7818608E-02  0.1069364E+00
          2   -1    0    0  501    0  0.00000000000E+00  0.00000000000E+00  0.14249773689E+04  0.14249773689E+04  0.25500000000E-02 0. -1.
         -2   -1    0    0    0  501 -0.00000000000E+00 -0.00000000000E+00 -0.16132951830E+03  0.16132951832E+03  0.25500000000E-02 0.  1.
    8880022    1    1    2    0    0 -0.27548365804E+03  0.11089938152E+03  0.12008154918E+04  0.12464106133E+04  0.15294330000E+03 0.  0.
    8880022    1    1    2    0    0  0.27548365804E+03 -0.11089938152E+03  0.62832358793E+02  0.33989627388E+03  0.15294330000E+03 0.  0.
<mgrwt>
<rscale>  0 0.33403828E+03</rscale>
<asrwt>0</asrwt>
<pdfrwt beam="1">  1        2 0.21922729E+00 0.33403828E+03</pdfrwt>
<pdfrwt beam="2">  1       -2 0.24819926E-01 0.33403828E+03</pdfrwt>
<totfact> 0.21522228E+02</totfact>
</mgrwt>
</event>
<event>
 4    1  0.4639964E-008  0.4127953E+03  0.7818608E-02  0.1039437E+00
         -2   -1    0    0    0  501 -0.00000000000E+00  0.00000000000E+00  0.14486559096E+03  0.14486559098E+03  0.25500000000E-02 0.  1.
          2   -1    0    0  501    0  0.00000000000E+00 -0.00000000000E+00 -0.13589912772E+04  0.13589912772E+04  0.25500000000E-02 0. -1.
    8880022    1    1    2    0    0 -0.75401216880E+02 -0.37592942531E+03 -0.88278515853E+03  0.97453043332E+03  0.15294330000E+03 0.  0.
    8880022    1    1    2    0    0  0.75401216880E+02  0.37592942531E+03 -0.33134052766E+03  0.52932643483E+03  0.15294330000E+03 0.  0.
<mgrwt>
<rscale>  0 0.41279526E+03</rscale>
<asrwt>0</asrwt>
<pdfrwt beam="1">  1        2 0.20907557E+00 0.41279526E+03</pdfrwt>
<pdfrwt beam="2">  1       -2 0.22287015E-01 0.41279526E+03</pdfrwt>
<totfact> 0.28013056E+02</totfact>
</mgrwt>
</event>
<event>
 4    1  0.4639964E-008  0.3619626E+03  0.7818608E-02  0.1057809E+00
          2   -1    0    0  501    0  0.00000000000E+00  0.00000000000E+00  0.60249961459E+03  0.60249961460E+03  0.25500000000E-02 0. -1.
         -2   -1    0    0    0  501 -0.00000000000E+00 -0.00000000000E+00 -0.29070231748E+03  0.29070231749E+03  0.25500000000E-02 0.  1.
    8880022    1    1    2    0    0 -0.25509086902E+03  0.20628604229E+03 -0.68277494851E+02  0.36834596784E+03  0.15294330000E+03 0.  0.
    8880022    1    1    2    0    0  0.25509086902E+03 -0.20628604229E+03  0.38007479197E+03  0.52485596425E+03  0.15294330000E+03 0.  0.
<mgrwt>
<rscale>  0 0.36196262E+03</rscale>
<asrwt>0</asrwt>
<pdfrwt beam="1">  1        2 0.92692248E-01 0.36196262E+03</pdfrwt>
<pdfrwt beam="2">  1       -2 0.44723434E-01 0.36196262E+03</pdfrwt>
<totfact> 0.24105337E+02</totfact>
</mgrwt>
</event>
<event>
 4    1  0.4639964E-008  0.3680381E+03  0.7818608E-02  0.1055446E+00
         -2   -1    0    0    0  501 -0.00000000000E+00  0.00000000000E+00  0.12119375922E+03  0.12119375924E+03  0.25500000000E-02 0.  1.
          2   -1    0    0  501    0  0.00000000000E+00 -0.00000000000E+00 -0.28939579904E+04  0.28939579904E+04  0.25500000000E-02 0. -1.
    8880022    1    1    2    0    0 -0.32645736661E+03  0.74067566292E+02 -0.25674975344E+04  0.25937416330E+04  0.15294330000E+03 0.  0.
    8880022    1    1    2    0    0  0.32645736661E+03 -0.74067566292E+02 -0.20526669679E+03  0.42141011666E+03  0.15294330000E+03 0.  0.
<mgrwt>
<rscale>  0 0.36803814E+03</rscale>
<asrwt>0</asrwt>
<pdfrwt beam="1">  1        2 0.44522425E+00 0.36803814E+03</pdfrwt>
<pdfrwt beam="2">  1       -2 0.18645196E-01 0.36803814E+03</pdfrwt>
<totfact> 0.55518065E+01</totfact>
</mgrwt>
</event>
<event>
 4    1  0.4639964E-008  0.3251427E+03  0.7818608E-02  0.1073307E+00
          2   -1    0    0  501    0  0.00000000000E+00  0.00000000000E+00  0.67711401730E+03  0.67711401731E+03  0.25500000000E-02 0. -1.
         -2   -1    0    0    0  501 -0.00000000000E+00 -0.00000000000E+00 -0.44256440570E+03  0.44256440570E+03  0.25500000000E-02 0.  1.
    8880022    1    1    2    0    0  0.28527724027E+03 -0.30708238924E+02  0.56766375891E+03  0.65418643822E+03  0.15294330000E+03 0.  0.
    8880022    1    1    2    0    0 -0.28527724027E+03  0.30708238924E+02 -0.33311414731E+03  0.46549198479E+03  0.15294330000E+03 0.  0.
<mgrwt>
<rscale>  0 0.32514267E+03</rscale>
<asrwt>0</asrwt>
<pdfrwt beam="1">  1        2 0.10417139E+00 0.32514267E+03</pdfrwt>
<pdfrwt beam="2">  1       -2 0.68086831E-01 0.32514267E+03</pdfrwt>
<totfact> 0.88804421E+01</totfact>
</mgrwt>
</event>
<event>
 4    1  0.4639964E-008  0.2106409E+03  0.7818608E-02  0.1141059E+00
          2   -1    0    0  501    0  0.00000000000E+00  0.00000000000E+00  0.34602478778E+04  0.34602478778E+04  0.25500000000E-02 0. -1.
         -2   -1    0    0    0  501 -0.00000000000E+00 -0.00000000000E+00 -0.29561835127E+02  0.29561835237E+02  0.25500000000E-02 0.  1.
    8880022    1    1    2    0    0 -0.13116490592E+03 -0.61430641937E+02  0.30283679777E+04  0.30356848021E+04  0.15294330000E+03 0.  0.
    8880022    1    1    2    0    0  0.13116490592E+03  0.61430641937E+02  0.40231806494E+03  0.45412491090E+03  0.15294330000E+03 0.  1.
<mgrwt>
<rscale>  0 0.21064095E+03</rscale>
<asrwt>0</asrwt>
<pdfrwt beam="1">  1        2 0.53234610E+00 0.21064095E+03</pdfrwt>
<pdfrwt beam="2">  1       -2 0.45479723E-02 0.21064095E+03</pdfrwt>
<totfact> 0.24927315E+02</totfact>
</mgrwt>
</event>
<event>
 4    1  0.4639964E-008  0.3500783E+03  0.7818608E-02  0.1062583E+00
          2   -1    0    0  501    0  0.00000000000E+00  0.00000000000E+00  0.99312550705E+03  0.99312550705E+03  0.25500000000E-02 0. -1.
         -2   -1    0    0    0  501 -0.00000000000E+00 -0.00000000000E+00 -0.15387264153E+03  0.15387264155E+03  0.25500000000E-02 0.  1.
    8880022    1    1    2    0    0 -0.20747068605E+03  0.23689467128E+03  0.16442414519E+03  0.38676882422E+03  0.15294330000E+03 0.  0.
    8880022    1    1    2    0    0  0.20747068605E+03 -0.23689467128E+03  0.67482872033E+03  0.76022932438E+03  0.15294330000E+03 0.  0.
<mgrwt>
<rscale>  0 0.35007831E+03</rscale>
<asrwt>0</asrwt>
<pdfrwt beam="1">  1        2 0.15278854E+00 0.35007831E+03</pdfrwt>
<pdfrwt beam="2">  1       -2 0.23672714E-01 0.35007831E+03</pdfrwt>
<totfact> 0.41476961E+02</totfact>
</mgrwt>
</event>
<event>
 4    1  0.4639964E-008  0.5006880E+03  0.7818608E-02  0.1013599E+00
          2   -1    0    0  501    0  0.00000000000E+00  0.00000000000E+00  0.18492501801E+04  0.18492501801E+04  0.25500000000E-02 0. -1.
         -2   -1    0    0    0  501 -0.00000000000E+00 -0.00000000000E+00 -0.23789790700E+03  0.23789790702E+03  0.25500000000E-02 0.  1.
    8880022    1    1    2    0    0 -0.18828965909E+03  0.43799981134E+03  0.14901257545E+04  0.15719933994E+04  0.15294330000E+03 0.  0.
    8880022    1    1    2    0    0  0.18828965909E+03 -0.43799981134E+03  0.12122651857E+03  0.51515468771E+03  0.15294330000E+03 0.  0.
<mgrwt>
<rscale>  0 0.50068801E+03</rscale>
<asrwt>0</asrwt>
<pdfrwt beam="1">  1        2 0.28450004E+00 0.50068801E+03</pdfrwt>
<pdfrwt beam="2">  1       -2 0.36599677E-01 0.50068801E+03</pdfrwt>
<totfact> 0.60489509E+01</totfact>
</mgrwt>
</event>
<event>
 4    1  0.4639964E-008  0.6266324E+03  0.7818608E-02  0.9851642E-01
          2   -1    0    0  501    0  0.00000000000E+00  0.00000000000E+00  0.68929864381E+03  0.68929864382E+03  0.25500000000E-02 0. -1.
         -2   -1    0    0    0  501 -0.00000000000E+00 -0.00000000000E+00 -0.66136645826E+03  0.66136645826E+03  0.25500000000E-02 0.  1.
    8880022    1    1    2    0    0 -0.57454482584E+03  0.19792627432E+03  0.26543741925E+03  0.68053305836E+03  0.15294330000E+03 0.  0.
    8880022    1    1    2    0    0  0.57454482584E+03 -0.19792627432E+03 -0.23750523370E+03  0.67013204372E+03  0.15294330000E+03 0.  0.
<mgrwt>
<rscale>  0 0.62663244E+03</rscale>
<asrwt>0</asrwt>
<pdfrwt beam="1">  1        2 0.10604595E+00 0.62663244E+03</pdfrwt>
<pdfrwt beam="2">  1       -2 0.10174869E+00 0.62663244E+03</pdfrwt>
<totfact> 0.33927299E+01</totfact>
</mgrwt>
</event>
<event>
 4    1  0.4639964E-008  0.6297191E+03  0.7818608E-02  0.9845597E-01
          2   -1    0    0  501    0  0.00000000000E+00  0.00000000000E+00  0.68438730152E+03  0.68438730152E+03  0.25500000000E-02 0. -1.
         -2   -1    0    0    0  501 -0.00000000000E+00 -0.00000000000E+00 -0.10456926856E+04  0.10456926856E+04  0.25500000000E-02 0.  1.
    8880022    1    1    2    0    0  0.37052980511E+02 -0.60973891143E+03 -0.75828996643E+03  0.98567225267E+03  0.15294330000E+03 0.  0.
    8880022    1    1    2    0    0 -0.37052980511E+02  0.60973891143E+03  0.39698458234E+03  0.74440773446E+03  0.15294330000E+03 0.  0.
<mgrwt>
<rscale>  0 0.62971908E+03</rscale>
<asrwt>0</asrwt>
<pdfrwt beam="1">  1        2 0.10529035E+00 0.62971908E+03</pdfrwt>
<pdfrwt beam="2">  1       -2 0.16087580E+00 0.62971908E+03</pdfrwt>
<totfact> 0.10781892E+01</totfact>
</mgrwt>
</event>
<event>
 4    1  0.4639964E-008  0.2641250E+03  0.7818608E-02  0.1104690E+00
          2   -1    0    0  501    0  0.00000000000E+00  0.00000000000E+00  0.70408735106E+03  0.70408735107E+03  0.25500000000E-02 0. -1.
         -2   -1    0    0    0  501 -0.00000000000E+00 -0.00000000000E+00 -0.31302005987E+03  0.31302005988E+03  0.25500000000E-02 0.  1.
    8880022    1    1    2    0    0  0.21515608935E+03  0.88433630518E+01 -0.22489792024E+03  0.34690211213E+03  0.15294330000E+03 0.  0.
    8880022    1    1    2    0    0 -0.21515608935E+03 -0.88433630518E+01  0.61596521144E+03  0.67020529882E+03  0.15294330000E+03 0.  0.
<mgrwt>
<rscale>  0 0.26412497E+03</rscale>
<asrwt>0</asrwt>
<pdfrwt beam="1">  1        2 0.10832113E+00 0.26412497E+03</pdfrwt>
<pdfrwt beam="2">  1       -2 0.48156933E-01 0.26412497E+03</pdfrwt>
<totfact> 0.17441948E+02</totfact>
</mgrwt>
</event>
<event>
 4    1  0.4639964E-008  0.4675720E+03  0.7818608E-02  0.1022608E+00
          2   -1    0    0  501    0  0.00000000000E+00  0.00000000000E+00  0.55342494010E+03  0.55342494010E+03  0.25500000000E-02 0. -1.
         -2   -1    0    0    0  501 -0.00000000000E+00 -0.00000000000E+00 -0.57218359497E+03  0.57218359498E+03  0.25500000000E-02 0.  1.
    8880022    1    1    2    0    0 -0.26381794915E+03 -0.35444609872E+03 -0.32253153857E+03  0.56802305726E+03  0.15294330000E+03 0.  0.
    8880022    1    1    2    0    0  0.26381794915E+03  0.35444609872E+03  0.30377288370E+03  0.55758547782E+03  0.15294330000E+03 0.  0.
<mgrwt>
<rscale>  0 0.46757203E+03</rscale>
<asrwt>0</asrwt>
<pdfrwt beam="1">  1        2 0.85142298E-01 0.46757203E+03</pdfrwt>
<pdfrwt beam="2">  1       -2 0.88028245E-01 0.46757203E+03</pdfrwt>
<totfact> 0.62909583E+01</totfact>
</mgrwt>
</event>
<event>
 4    1  0.4639964E-008  0.5732735E+03  0.7818608E-02  0.9962461E-01
         -2   -1    0    0    0  501 -0.00000000000E+00  0.00000000000E+00  0.33467103340E+03  0.33467103341E+03  0.25500000000E-02 0.  1.
          2   -1    0    0  501    0  0.00000000000E+00 -0.00000000000E+00 -0.29277035422E+04  0.29277035422E+04  0.25500000000E-02 0. -1.
    8880022    1    1    2    0    0  0.44817647218E+03 -0.32309232245E+03 -0.26262972299E+04  0.26881368254E+04  0.15294330000E+03 0.  0.
    8880022    1    1    2    0    0 -0.44817647218E+03  0.32309232245E+03  0.33264721174E+02  0.57423775018E+03  0.15294330000E+03 0.  1.
<mgrwt>
<rscale>  0 0.57327345E+03</rscale>
<asrwt>0</asrwt>
<pdfrwt beam="1">  1        2 0.45041591E+00 0.57327345E+03</pdfrwt>
<pdfrwt beam="2">  1       -2 0.51487853E-01 0.57327345E+03</pdfrwt>
<totfact> 0.75909519E+00</totfact>
</mgrwt>
</event>
<event>
 4    1  0.4639964E-008  0.5002002E+03  0.7818608E-02  0.1013727E+00
         -2   -1    0    0    0  501 -0.00000000000E+00  0.00000000000E+00  0.83932098498E+03  0.83932098499E+03  0.25500000000E-02 0.  1.
          2   -1    0    0  501    0  0.00000000000E+00 -0.00000000000E+00 -0.42760051287E+03  0.42760051288E+03  0.25500000000E-02 0. -1.
    8880022    1    1    2    0    0 -0.40885022220E+03 -0.24423373070E+03 -0.14274906405E+03  0.52017071016E+03  0.15294330000E+03 0.  0.
    8880022    1    1    2    0    0  0.40885022220E+03  0.24423373070E+03  0.55446953616E+03  0.74675078771E+03  0.15294330000E+03 0.  0.
<mgrwt>
<rscale>  0 0.50020023E+03</rscale>
<asrwt>0</asrwt>
<pdfrwt beam="1">  1        2 0.65784695E-01 0.50020023E+03</pdfrwt>
<pdfrwt beam="2">  1       -2 0.12912630E+00 0.50020023E+03</pdfrwt>
<totfact> 0.33689568E+01</totfact>
</mgrwt>
</event>
<event>
 4    1  0.4639964E-008  0.8094985E+03  0.7818608E-02  0.9546369E-01
         -2   -1    0    0    0  501 -0.00000000000E+00  0.00000000000E+00  0.62082262190E+03  0.62082262191E+03  0.25500000000E-02 0.  1.
          2   -1    0    0  501    0  0.00000000000E+00 -0.00000000000E+00 -0.18594870041E+04  0.18594870041E+04  0.25500000000E-02 0. -1.
    8880022    1    1    2    0    0 -0.34695549736E+03  0.71520492364E+03  0.19612220413E+03  0.83291762613E+03  0.15294330000E+03 0.  0.
    8880022    1    1    2    0    0  0.34695549736E+03 -0.71520492364E+03 -0.14347865863E+04  0.16473919999E+04  0.15294330000E+03 0.  0.
<mgrwt>
<rscale>  0 0.80949852E+03</rscale>
<asrwt>0</asrwt>
<pdfrwt beam="1">  1        2 0.28607492E+00 0.80949852E+03</pdfrwt>
<pdfrwt beam="2">  1       -2 0.95511174E-01 0.80949852E+03</pdfrwt>
<totfact> 0.75325400E+00</totfact>
</mgrwt>
</event>
<event>
 4    1  0.4639964E-008  0.5575807E+03  0.7818608E-02  0.9997544E-01
         -2   -1    0    0    0  501 -0.00000000000E+00  0.00000000000E+00  0.18015614396E+03  0.18015614398E+03  0.25500000000E-02 0.  1.
          2   -1    0    0  501    0  0.00000000000E+00 -0.00000000000E+00 -0.22679891082E+04  0.22679891082E+04  0.25500000000E-02 0. -1.
    8880022    1    1    2    0    0 -0.39675569496E+03  0.36067919544E+03 -0.44536645090E+03  0.71361578746E+03  0.15294330000E+03 0.  0.
    8880022    1    1    2    0    0  0.39675569496E+03 -0.36067919544E+03 -0.16424665133E+04  0.17345294647E+04  0.15294330000E+03 0.  0.
<mgrwt>
<rscale>  0 0.55758068E+03</rscale>
<asrwt>0</asrwt>
<pdfrwt beam="1">  1        2 0.34892138E+00 0.55758068E+03</pdfrwt>
<pdfrwt beam="2">  1       -2 0.27716331E-01 0.55758068E+03</pdfrwt>
<totfact> 0.59687662E+01</totfact>
</mgrwt>
</event>
<event>
 4    1  0.4639964E-008  0.5142202E+03  0.7818608E-02  0.1010132E+00
         -2   -1    0    0    0  501 -0.00000000000E+00  0.00000000000E+00  0.33013910240E+03  0.33013910241E+03  0.25500000000E-02 0.  1.
          2   -1    0    0  501    0  0.00000000000E+00 -0.00000000000E+00 -0.35559533349E+04  0.35559533349E+04  0.25500000000E-02 0. -1.
    8880022    1    1    2    0    0  0.30213866316E+03  0.38696642632E+03  0.97371082708E+02  0.52335797275E+03  0.15294330000E+03 0.  0.
    8880022    1    1    2    0    0 -0.30213866316E+03 -0.38696642632E+03 -0.33231853152E+04  0.33627344646E+04  0.15294330000E+03 0.  0.
<mgrwt>
<rscale>  0 0.51422023E+03</rscale>
<asrwt>0</asrwt>
<pdfrwt beam="1">  1        2 0.54706972E+00 0.51422023E+03</pdfrwt>
<pdfrwt beam="2">  1       -2 0.50790634E-01 0.51422023E+03</pdfrwt>
<totfact> 0.31523795E+00</totfact>
</mgrwt>
</event>
<event>
 4    1  0.4639964E-008  0.5993931E+03  0.7818608E-02  0.9906666E-01
          2   -1    0    0  501    0  0.00000000000E+00  0.00000000000E+00  0.27551906902E+04  0.27551906902E+04  0.25500000000E-02 0. -1.
         -2   -1    0    0    0  501 -0.00000000000E+00 -0.00000000000E+00 -0.18021779799E+03  0.18021779801E+03  0.25500000000E-02 0.  1.
    8880022    1    1    2    0    0  0.46613173905E+03  0.34438580700E+03  0.51580223131E+03  0.79077428958E+03  0.15294330000E+03 0.  0.
    8880022    1    1    2    0    0 -0.46613173905E+03 -0.34438580700E+03  0.20591706609E+04  0.21446341987E+04  0.15294330000E+03 0.  0.
<mgrwt>
<rscale>  0 0.59939306E+03</rscale>
<asrwt>0</asrwt>
<pdfrwt beam="1">  1        2 0.42387550E+00 0.59939306E+03</pdfrwt>
<pdfrwt beam="2">  1       -2 0.27725815E-01 0.59939306E+03</pdfrwt>
<totfact> 0.31442435E+01</totfact>
</mgrwt>
</event>
<event>
 4    1  0.4639964E-008  0.3159880E+03  0.7818608E-02  0.1077511E+00
         -2   -1    0    0    0  501 -0.00000000000E+00  0.00000000000E+00  0.12515291522E+03  0.12515291524E+03  0.25500000000E-02 0.  1.
          2   -1    0    0  501    0  0.00000000000E+00 -0.00000000000E+00 -0.16156801198E+04  0.16156801198E+04  0.25500000000E-02 0. -1.
    8880022    1    1    2    0    0 -0.21548751062E+03  0.17326820100E+03 -0.13645496592E+04  0.14006584745E+04  0.15294330000E+03 0.  0.
    8880022    1    1    2    0    0  0.21548751062E+03 -0.17326820100E+03 -0.12597754541E+03  0.34017456059E+03  0.15294330000E+03 0.  0.
<mgrwt>
<rscale>  0 0.31598796E+03</rscale>
<asrwt>0</asrwt>
<pdfrwt beam="1">  1        2 0.24856616E+00 0.31598796E+03</pdfrwt>
<pdfrwt beam="2">  1       -2 0.19254296E-01 0.31598796E+03</pdfrwt>
<totfact> 0.26528362E+02</totfact>
</mgrwt>
</event>
<event>
 4    1  0.4639964E-008  0.7260899E+03  0.7818608E-02  0.9673627E-01
          2   -1    0    0  501    0  0.00000000000E+00  0.00000000000E+00  0.77111599860E+03  0.77111599860E+03  0.25500000000E-02 0. -1.
         -2   -1    0    0    0  501 -0.00000000000E+00 -0.00000000000E+00 -0.71314951608E+03  0.71314951608E+03  0.25500000000E-02 0.  1.
    8880022    1    1    2    0    0 -0.18372853115E+03  0.68560831670E+03 -0.12184483436E+03  0.73624232000E+03  0.15294330000E+03 0.  0.
    8880022    1    1    2    0    0  0.18372853115E+03 -0.68560831670E+03  0.17981131689E+03  0.74802319468E+03  0.15294330000E+03 0.  0.
<mgrwt>
<rscale>  0 0.72608993E+03</rscale>
<asrwt>0</asrwt>
<pdfrwt beam="1">  1        2 0.11863323E+00 0.72608993E+03</pdfrwt>
<pdfrwt beam="2">  1       -2 0.10971531E+00 0.72608993E+03</pdfrwt>
<totfact> 0.24302774E+01</totfact>
</mgrwt>
</event>
<event>
 4    1  0.4639964E-008  0.6117686E+03  0.7818608E-02  0.9881286E-01
          2   -1    0    0  501    0  0.00000000000E+00  0.00000000000E+00  0.15648440136E+04  0.15648440136E+04  0.25500000000E-02 0. -1.
         -2   -1    0    0    0  501 -0.00000000000E+00 -0.00000000000E+00 -0.35332394553E+03  0.35332394554E+03  0.25500000000E-02 0.  1.
    8880022    1    1    2    0    0  0.28431613001E+03  0.51964743978E+03  0.11509139926E+04  0.13034046934E+04  0.15294330000E+03 0.  0.
    8880022    1    1    2    0    0 -0.28431613001E+03 -0.51964743978E+03  0.60606075437E+02  0.61476326569E+03  0.15294330000E+03 0.  1.
<mgrwt>
<rscale>  0 0.61176856E+03</rscale>
<asrwt>0</asrwt>
<pdfrwt beam="1">  1        2 0.24074523E+00 0.61176856E+03</pdfrwt>
<pdfrwt beam="2">  1       -2 0.54357530E-01 0.61176856E+03</pdfrwt>
<totfact> 0.38717580E+01</totfact>
</mgrwt>
</event>
<event>
 4    1  0.4639964E-008  0.6093777E+03  0.7818608E-02  0.9886139E-01
         -2   -1    0    0    0  501 -0.00000000000E+00  0.00000000000E+00  0.32282670912E+03  0.32282670913E+03  0.25500000000E-02 0.  1.
          2   -1    0    0  501    0  0.00000000000E+00 -0.00000000000E+00 -0.16925012700E+04  0.16925012700E+04  0.25500000000E-02 0. -1.
    8880022    1    1    2    0    0 -0.53442495757E+03 -0.24967886852E+03 -0.12551845473E+04  0.13952883120E+04  0.15294330000E+03 0.  0.
    8880022    1    1    2    0    0  0.53442495757E+03  0.24967886852E+03 -0.11449001359E+03  0.62003966719E+03  0.15294330000E+03 0.  0.
<mgrwt>
<rscale>  0 0.60937774E+03</rscale>
<asrwt>0</asrwt>
<pdfrwt beam="1">  1        2 0.26038481E+00 0.60937774E+03</pdfrwt>
<pdfrwt beam="2">  1       -2 0.49665649E-01 0.60937774E+03</pdfrwt>
<totfact> 0.39674477E+01</totfact>
</mgrwt>
</event>
<event>
 4    1  0.4639964E-008  0.9335207E+03  0.7818608E-02  0.9384623E-01
         -2   -1    0    0    0  501 -0.00000000000E+00  0.00000000000E+00  0.81597158601E+03  0.81597158601E+03  0.25500000000E-02 0.  1.
          2   -1    0    0  501    0  0.00000000000E+00 -0.00000000000E+00 -0.20642308642E+04  0.20642308642E+04  0.25500000000E-02 0. -1.
    8880022    1    1    2    0    0  0.41392542917E+02 -0.91997600833E+03 -0.16245742018E+04  0.18736867904E+04  0.15294330000E+03 0.  0.
    8880022    1    1    2    0    0 -0.41392542917E+02  0.91997600833E+03  0.37631492364E+03  0.10065156597E+04  0.15294330000E+03 0.  0.
<mgrwt>
<rscale>  0 0.93352068E+03</rscale>
<asrwt>0</asrwt>
<pdfrwt beam="1">  1        2 0.31757398E+00 0.93352068E+03</pdfrwt>
<pdfrwt beam="2">  1       -2 0.12553409E+00 0.93352068E+03</pdfrwt>
<totfact> 0.29439176E+00</totfact>
</mgrwt>
</event>
<event>
 4    1  0.4639964E-008  0.6118610E+03  0.7818608E-02  0.9881099E-01
         -2   -1    0    0    0  501 -0.00000000000E+00  0.00000000000E+00  0.85605704033E+03  0.85605704033E+03  0.25500000000E-02 0.  1.
          2   -1    0    0  501    0  0.00000000000E+00 -0.00000000000E+00 -0.10914687297E+04  0.10914687297E+04  0.25500000000E-02 0. -1.
    8880022    1    1    2    0    0  0.59138099816E+03  0.35366252336E+02  0.63614363417E+03  0.88263958278E+03  0.15294330000E+03 0.  0.
    8880022    1    1    2    0    0 -0.59138099816E+03 -0.35366252336E+02 -0.87155532352E+03  0.10648861872E+04  0.15294330000E+03 0.  0.
<mgrwt>
<rscale>  0 0.61186102E+03</rscale>
<asrwt>0</asrwt>
<pdfrwt beam="1">  1        2 0.16791827E+00 0.61186102E+03</pdfrwt>
<pdfrwt beam="2">  1       -2 0.13170108E+00 0.61186102E+03</pdfrwt>
<totfact> 0.96197174E+00</totfact>
</mgrwt>
</event>
<event>
 4    1  0.4639964E-008  0.2172324E+03  0.7818608E-02  0.1135963E+00
          2   -1    0    0  501    0  0.00000000000E+00  0.00000000000E+00  0.15190311310E+04  0.15190311310E+04  0.25500000000E-02 0. -1.
         -2   -1    0    0    0  501 -0.00000000000E+00 -0.00000000000E+00 -0.53450102589E+02  0.53450102649E+02  0.25500000000E-02 0.  1.
    8880022    1    1    2    0    0  0.33439417756E+02 -0.15059897025E+03  0.12415975575E+04  0.12604580090E+04  0.15294330000E+03 0. -1.
    8880022    1    1    2    0    0 -0.33439417756E+02  0.15059897025E+03  0.22398347090E+03  0.31202322470E+03  0.15294330000E+03 0. -1.
<mgrwt>
<rscale>  0 0.21723236E+03</rscale>
<asrwt>0</asrwt>
<pdfrwt beam="1">  1        2 0.23369710E+00 0.21723236E+03</pdfrwt>
<pdfrwt beam="2">  1       -2 0.82230925E-02 0.21723236E+03</pdfrwt>
<totfact> 0.12126891E+03</totfact>
</mgrwt>
</event>
<event>
 4    1  0.4639964E-008  0.5717716E+03  0.7818608E-02  0.9965766E-01
          2   -1    0    0  501    0  0.00000000000E+00  0.00000000000E+00  0.21334643951E+04  0.21334643951E+04  0.25500000000E-02 0. -1.
         -2   -1    0    0    0  501 -0.00000000000E+00 -0.00000000000E+00 -0.21456201913E+03  0.21456201914E+03  0.25500000000E-02 0.  1.
    8880022    1    1    2    0    0  0.50255688881E+03 -0.22576028852E+03  0.33179731688E+03  0.66106901823E+03  0.15294330000E+03 0.  1.
    8880022    1    1    2    0    0 -0.50255688881E+03  0.22576028852E+03  0.15871050591E+04  0.16869573960E+04  0.15294330000E+03 0.  0.
<mgrwt>
<rscale>  0 0.57177162E+03</rscale>
<asrwt>0</asrwt>
<pdfrwt beam="1">  1        2 0.32822531E+00 0.57177162E+03</pdfrwt>
<pdfrwt beam="2">  1       -2 0.33009539E-01 0.57177162E+03</pdfrwt>
<totfact> 0.51039061E+01</totfact>
</mgrwt>
</event>
<event>
 4    1  0.4639964E-008  0.1552266E+04  0.7818608E-02  0.8850422E-01
          2   -1    0    0  501    0  0.00000000000E+00  0.00000000000E+00  0.21557996979E+04  0.21557996979E+04  0.25500000000E-02 0. -1.
         -2   -1    0    0    0  501 -0.00000000000E+00 -0.00000000000E+00 -0.14788244736E+04  0.14788244736E+04  0.25500000000E-02 0.  1.
    8880022    1    1    2    0    0 -0.69998615261E+03  0.13770100427E+04  0.12365406855E+04  0.19845810115E+04  0.15294330000E+03 0.  0.
    8880022    1    1    2    0    0  0.69998615261E+03 -0.13770100427E+04 -0.55956546116E+03  0.16500431600E+04  0.15294330000E+03 0.  0.
<mgrwt>
<rscale>  0 0.15522657E+04</rscale>
<asrwt>0</asrwt>
<pdfrwt beam="1">  1        2 0.33166149E+00 0.15522657E+04</pdfrwt>
<pdfrwt beam="2">  1       -2 0.22751146E+00 0.15522657E+04</pdfrwt>
<totfact> 0.45190611E-01</totfact>
</mgrwt>
</event>
<event>
 4    1  0.4639964E-008  0.4242804E+03  0.7818608E-02  0.1035682E+00
         -2   -1    0    0    0  501 -0.00000000000E+00  0.00000000000E+00  0.19924918157E+03  0.19924918159E+03  0.25500000000E-02 0.  1.
          2   -1    0    0  501    0  0.00000000000E+00 -0.00000000000E+00 -0.17547474557E+04  0.17547474558E+04  0.25500000000E-02 0. -1.
    8880022    1    1    2    0    0  0.32633162412E+03  0.22389708529E+03 -0.97255075755E+02  0.43528431683E+03  0.15294330000E+03 0.  0.
    8880022    1    1    2    0    0 -0.32633162412E+03 -0.22389708529E+03 -0.14582431984E+04  0.15187123205E+04  0.15294330000E+03 0.  0.
<mgrwt>
<rscale>  0 0.42428043E+03</rscale>
<asrwt>0</asrwt>
<pdfrwt beam="1">  1        2 0.26996114E+00 0.42428043E+03</pdfrwt>
<pdfrwt beam="2">  1       -2 0.30653722E-01 0.42428043E+03</pdfrwt>
<totfact> 0.96053182E+01</totfact>
</mgrwt>
</event>
<event>
 4    1  0.4639964E-008  0.5228586E+03  0.7818608E-02  0.1007979E+00
          2   -1    0    0  501    0  0.00000000000E+00  0.00000000000E+00  0.17562874041E+04  0.17562874041E+04  0.25500000000E-02 0. -1.
         -2   -1    0    0    0  501 -0.00000000000E+00 -0.00000000000E+00 -0.60254062903E+03  0.60254062904E+03  0.25500000000E-02 0.  1.
    8880022    1    1    2    0    0  0.47314767233E+03 -0.16161903715E+03 -0.43883632152E+03  0.68261145837E+03  0.15294330000E+03 0.  0.
    8880022    1    1    2    0    0 -0.47314767233E+03  0.16161903715E+03  0.15925830966E+04  0.16762165748E+04  0.15294330000E+03 0.  0.
<mgrwt>
<rscale>  0 0.52285857E+03</rscale>
<asrwt>0</asrwt>
<pdfrwt beam="1">  1        2 0.27019806E+00 0.52285857E+03</pdfrwt>
<pdfrwt beam="2">  1       -2 0.92698559E-01 0.52285857E+03</pdfrwt>
<totfact> 0.96497978E+00</totfact>
</mgrwt>
</event>
<event>
 4    1  0.4639964E-008  0.5704614E+03  0.7818608E-02  0.9968658E-01
         -2   -1    0    0    0  501 -0.00000000000E+00  0.00000000000E+00  0.58915863602E+03  0.58915863603E+03  0.25500000000E-02 0.  1.
          2   -1    0    0  501    0  0.00000000000E+00 -0.00000000000E+00 -0.11878307142E+04  0.11878307142E+04  0.25500000000E-02 0. -1.
    8880022    1    1    2    0    0  0.30338544987E+03  0.45824863670E+03  0.35053349123E+03  0.66955203361E+03  0.15294330000E+03 0.  0.
    8880022    1    1    2    0    0 -0.30338544987E+03 -0.45824863670E+03 -0.94920556942E+03  0.11074373166E+04  0.15294330000E+03 0.  0.
<mgrwt>
<rscale>  0 0.57046139E+03</rscale>
<asrwt>0</asrwt>
<pdfrwt beam="1">  1        2 0.18274319E+00 0.57046139E+03</pdfrwt>
<pdfrwt beam="2">  1       -2 0.90639790E-01 0.57046139E+03</pdfrwt>
<totfact> 0.20876044E+01</totfact>
</mgrwt>
</event>
<event>
 4    1  0.4639964E-008  0.2277656E+03  0.7818608E-02  0.1128222E+00
          2   -1    0    0  501    0  0.00000000000E+00  0.00000000000E+00  0.10267912509E+04  0.10267912509E+04  0.25500000000E-02 0. -1.
         -2   -1    0    0    0  501 -0.00000000000E+00 -0.00000000000E+00 -0.73911200920E+02  0.73911200964E+02  0.25500000000E-02 0.  1.
    8880022    1    1    2    0    0  0.15040663355E+03 -0.76572439897E+02  0.16685635862E+03  0.28234410104E+03  0.15294330000E+03 0.  0.
    8880022    1    1    2    0    0 -0.15040663355E+03  0.76572439897E+02  0.78602369136E+03  0.81835835082E+03  0.15294330000E+03 0.  0.
<mgrwt>
<rscale>  0 0.22776555E+03</rscale>
<asrwt>0</asrwt>
<pdfrwt beam="1">  1        2 0.15796787E+00 0.22776555E+03</pdfrwt>
<pdfrwt beam="2">  1       -2 0.11370955E-01 0.22776555E+03</pdfrwt>
<totfact> 0.13654490E+03</totfact>
</mgrwt>
</event>
<event>
 4    1  0.4639964E-008  0.2670955E+03  0.7818608E-02  0.1102954E+00
          2   -1    0    0  501    0  0.00000000000E+00  0.00000000000E+00  0.73657931006E+03  0.73657931006E+03  0.25500000000E-02 0. -1.
         -2   -1    0    0    0  501 -0.00000000000E+00 -0.00000000000E+00 -0.13409753278E+03  0.13409753281E+03  0.25500000000E-02 0.  1.
    8880022    1    1    2    0    0  0.16412116137E+03 -0.14495715969E+03  0.71812418633E+02  0.27658092892E+03  0.15294330000E+03 0.  0.
    8880022    1    1    2    0    0 -0.16412116137E+03  0.14495715969E+03  0.53066935864E+03  0.59409591395E+03  0.15294330000E+03 0.  0.
<mgrwt>
<rscale>  0 0.26709546E+03</rscale>
<asrwt>0</asrwt>
<pdfrwt beam="1">  1        2 0.11331990E+00 0.26709546E+03</pdfrwt>
<pdfrwt beam="2">  1       -2 0.20630389E-01 0.26709546E+03</pdfrwt>
<totfact> 0.78711620E+02</totfact>
</mgrwt>
</event>
<event>
 4    1  0.4639964E-008  0.9238030E+03  0.7818608E-02  0.9396306E-01
          2   -1    0    0  501    0  0.00000000000E+00  0.00000000000E+00  0.77574519858E+03  0.77574519859E+03  0.25500000000E-02 0. -1.
         -2   -1    0    0    0  501 -0.00000000000E+00 -0.00000000000E+00 -0.14949141251E+04  0.14949141251E+04  0.25500000000E-02 0.  1.
    8880022    1    1    2    0    0  0.33680622563E+03 -0.84651157714E+03  0.22386039917E+03  0.95053953899E+03  0.15294330000E+03 0.  0.
    8880022    1    1    2    0    0 -0.33680622563E+03  0.84651157714E+03 -0.94302932570E+03  0.13201197847E+04  0.15294330000E+03 0.  0.
<mgrwt>
<rscale>  0 0.92380298E+03</rscale>
<asrwt>0</asrwt>
<pdfrwt beam="1">  1        2 0.11934542E+00 0.92380298E+03</pdfrwt>
<pdfrwt beam="2">  1       -2 0.22998679E+00 0.92380298E+03</pdfrwt>
<totfact> 0.30806312E+00</totfact>
</mgrwt>
</event>
<event>
 4    1  0.4639964E-008  0.1146775E+04  0.7818608E-02  0.9160764E-01
         -2   -1    0    0    0  501 -0.00000000000E+00  0.00000000000E+00  0.11134588889E+04  0.11134588889E+04  0.25500000000E-02 0.  1.
          2   -1    0    0  501    0  0.00000000000E+00 -0.00000000000E+00 -0.14919666319E+04  0.14919666319E+04  0.25500000000E-02 0. -1.
    8880022    1    1    2    0    0 -0.10385023069E+04  0.46175075825E+03 -0.78390855831E+03  0.13891022586E+04  0.15294330000E+03 0.  0.
    8880022    1    1    2    0    0  0.10385023069E+04 -0.46175075825E+03  0.40540081524E+03  0.12163232622E+04  0.15294330000E+03 0.  0.
<mgrwt>
<rscale>  0 0.11467748E+04</rscale>
<asrwt>0</asrwt>
<pdfrwt beam="1">  1        2 0.22953333E+00 0.11467748E+04</pdfrwt>
<pdfrwt beam="2">  1       -2 0.17130137E+00 0.11467748E+04</pdfrwt>
<totfact> 0.26124337E+00</totfact>
</mgrwt>
</event>
<event>
 4    1  0.4639964E-008  0.1695782E+04  0.7818608E-02  0.8763774E-01
          2   -1    0    0  501    0  0.00000000000E+00  0.00000000000E+00  0.15247204326E+04  0.15247204326E+04  0.25500000000E-02 0. -1.
         -2   -1    0    0    0  501 -0.00000000000E+00 -0.00000000000E+00 -0.20570371765E+04  0.20570371765E+04  0.25500000000E-02 0.  1.
    8880022    1    1    2    0    0  0.16883669039E+04 -0.41240185382E+02 -0.78251135324E+03  0.18676185976E+04  0.15294330000E+03 0.  0.
    8880022    1    1    2    0    0 -0.16883669039E+04  0.41240185382E+02  0.25019460936E+03  0.17141390115E+04  0.15294330000E+03 0.  0.
<mgrwt>
<rscale>  0 0.16957816E+04</rscale>
<asrwt>0</asrwt>
<pdfrwt beam="1">  1        2 0.23457237E+00 0.16957816E+04</pdfrwt>
<pdfrwt beam="2">  1       -2 0.31646726E+00 0.16957816E+04</pdfrwt>
<totfact> 0.28539447E-01</totfact>
</mgrwt>
</event>
<event>
 4    1  0.4639964E-008  0.2912532E+03  0.7818608E-02  0.1089697E+00
          2   -1    0    0  501    0  0.00000000000E+00  0.00000000000E+00  0.38378680883E+04  0.38378680883E+04  0.25500000000E-02 0. -1.
         -2   -1    0    0    0  501 -0.00000000000E+00 -0.00000000000E+00 -0.55841565075E+02  0.55841565133E+02  0.25500000000E-02 0.  1.
    8880022    1    1    2    0    0  0.13234893142E+03 -0.20957222064E+03  0.37773753971E+03  0.47698433647E+03  0.15294330000E+03 0.  0.
    8880022    1    1    2    0    0 -0.13234893142E+03  0.20957222064E+03  0.34042889836E+04  0.34167253170E+04  0.15294330000E+03 0. -1.
<mgrwt>
<rscale>  0 0.29125317E+03</rscale>
<asrwt>0</asrwt>
<pdfrwt beam="1">  1        2 0.59044118E+00 0.29125317E+03</pdfrwt>
<pdfrwt beam="2">  1       -2 0.85910110E-02 0.29125317E+03</pdfrwt>
<totfact> 0.49595841E+01</totfact>
</mgrwt>
</event>
<event>
 4    1  0.4639964E-008  0.5858740E+03  0.7818608E-02  0.9935154E-01
         -2   -1    0    0    0  501 -0.00000000000E+00  0.00000000000E+00  0.50737237665E+03  0.50737237666E+03  0.25500000000E-02 0.  1.
          2   -1    0    0  501    0  0.00000000000E+00 -0.00000000000E+00 -0.13437392871E+04  0.13437392871E+04  0.25500000000E-02 0. -1.
    8880022    1    1    2    0    0 -0.46421904717E+03 -0.32304399069E+03  0.23401366008E+03  0.63088096325E+03  0.15294330000E+03 0.  0.
    8880022    1    1    2    0    0  0.46421904717E+03  0.32304399069E+03 -0.10703805705E+04  0.12202307005E+04  0.15294330000E+03 0.  0.
<mgrwt>
<rscale>  0 0.58587405E+03</rscale>
<asrwt>0</asrwt>
<pdfrwt beam="1">  1        2 0.20672912E+00 0.58587405E+03</pdfrwt>
<pdfrwt beam="2">  1       -2 0.78057289E-01 0.58587405E+03</pdfrwt>
<totfact> 0.23753879E+01</totfact>
</mgrwt>
</event>
<event>
 4    1  0.4639964E-008  0.5258934E+03  0.7818608E-02  0.1007233E+00
         -2   -1    0    0    0  501 -0.00000000000E+00  0.00000000000E+00  0.39508771605E+03  0.39508771606E+03  0.25500000000E-02 0.  1.
          2   -1    0    0  501    0  0.00000000000E+00 -0.00000000000E+00 -0.36756506664E+04  0.36756506664E+04  0.25500000000E-02 0. -1.
    8880022    1    1    2    0    0 -0.11235779153E+02  0.50303676330E+03 -0.34716114174E+04  0.35112176968E+04  0.15294330000E+03 0.  0.
    8880022    1    1    2    0    0  0.11235779153E+02 -0.50303676330E+03  0.19104846700E+03  0.55952068570E+03  0.15294330000E+03 0.  0.
<mgrwt>
<rscale>  0 0.52589341E+03</rscale>
<asrwt>0</asrwt>
<pdfrwt beam="1">  1        2 0.56548469E+00 0.52589341E+03</pdfrwt>
<pdfrwt beam="2">  1       -2 0.60782728E-01 0.52589341E+03</pdfrwt>
<totfact> 0.17878806E+00</totfact>
</mgrwt>
</event>
<event>
 4    1  0.4639964E-008  0.8044452E+03  0.7818608E-02  0.9553605E-01
          2   -1    0    0  501    0  0.00000000000E+00  0.00000000000E+00  0.91971063234E+03  0.91971063235E+03  0.25500000000E-02 0. -1.
         -2   -1    0    0    0  501 -0.00000000000E+00 -0.00000000000E+00 -0.17749909828E+04  0.17749909828E+04  0.25500000000E-02 0.  1.
    8880022    1    1    2    0    0 -0.68786595434E+03 -0.38804743023E+03 -0.14744104878E+04  0.16795887350E+04  0.15294330000E+03 0.  0.
    8880022    1    1    2    0    0  0.68786595434E+03  0.38804743023E+03  0.61913013739E+03  0.10151128801E+04  0.15294330000E+03 0.  0.
<mgrwt>
<rscale>  0 0.80444517E+03</rscale>
<asrwt>0</asrwt>
<pdfrwt beam="1">  1        2 0.14149394E+00 0.80444517E+03</pdfrwt>
<pdfrwt beam="2">  1       -2 0.27307553E+00 0.80444517E+03</pdfrwt>
<totfact> 0.13582773E+00</totfact>
</mgrwt>
</event>
<event>
 4    1  0.4639964E-008  0.5145605E+03  0.7818608E-02  0.1010047E+00
          2   -1    0    0  501    0  0.00000000000E+00  0.00000000000E+00  0.63262158712E+03  0.63262158713E+03  0.25500000000E-02 0. -1.
         -2   -1    0    0    0  501 -0.00000000000E+00 -0.00000000000E+00 -0.54444740525E+03  0.54444740526E+03  0.25500000000E-02 0.  1.
    8880022    1    1    2    0    0 -0.37574371630E+03 -0.31653985330E+03 -0.23894334152E+03  0.56733270005E+03  0.15294330000E+03 0.  0.
    8880022    1    1    2    0    0  0.37574371630E+03  0.31653985330E+03  0.32711752339E+03  0.60973629234E+03  0.15294330000E+03 0.  0.
<mgrwt>
<rscale>  0 0.51456046E+03</rscale>
<asrwt>0</asrwt>
<pdfrwt beam="1">  1        2 0.97326398E-01 0.51456046E+03</pdfrwt>
<pdfrwt beam="2">  1       -2 0.83761140E-01 0.51456046E+03</pdfrwt>
<totfact> 0.59786733E+01</totfact>
</mgrwt>
</event>
<event>
 4    1  0.4639964E-008  0.5488933E+03  0.7818608E-02  0.1001750E+00
          2   -1    0    0  501    0  0.00000000000E+00  0.00000000000E+00  0.10587032896E+04  0.10587032896E+04  0.25500000000E-02 0. -1.
         -2   -1    0    0    0  501 -0.00000000000E+00 -0.00000000000E+00 -0.41913607848E+03  0.41913607849E+03  0.25500000000E-02 0.  1.
    8880022    1    1    2    0    0  0.49445344544E+03 -0.18277841490E+03 -0.98888838191E+02  0.55773005477E+03  0.15294330000E+03 0.  1.
    8880022    1    1    2    0    0 -0.49445344544E+03  0.18277841490E+03  0.73845604926E+03  0.92010931327E+03  0.15294330000E+03 0.  0.
<mgrwt>
<rscale>  0 0.54889326E+03</rscale>
<asrwt>0</asrwt>
<pdfrwt beam="1">  1        2 0.16287743E+00 0.54889326E+03</pdfrwt>
<pdfrwt beam="2">  1       -2 0.64482474E-01 0.54889326E+03</pdfrwt>
<totfact> 0.53249843E+01</totfact>
</mgrwt>
</event>
<event>
 4    1  0.4639964E-008  0.6626406E+03  0.7818608E-02  0.9783345E-01
         -2   -1    0    0    0  501 -0.00000000000E+00  0.00000000000E+00  0.52024015654E+03  0.52024015655E+03  0.25500000000E-02 0.  1.
          2   -1    0    0  501    0  0.00000000000E+00 -0.00000000000E+00 -0.11572697071E+04  0.11572697071E+04  0.25500000000E-02 0. -1.
    8880022    1    1    2    0    0  0.64390090193E+03  0.33052948198E+02  0.11786427950E+03  0.67304123966E+03  0.15294330000E+03 0.  0.
    8880022    1    1    2    0    0 -0.64390090193E+03 -0.33052948198E+02 -0.75489383002E+03  0.10044686240E+04  0.15294330000E+03 0.  0.
<mgrwt>
<rscale>  0 0.66264057E+03</rscale>
<asrwt>0</asrwt>
<pdfrwt beam="1">  1        2 0.17804149E+00 0.66264057E+03</pdfrwt>
<pdfrwt beam="2">  1       -2 0.80036947E-01 0.66264057E+03</pdfrwt>
<totfact> 0.28529142E+01</totfact>
</mgrwt>
</event>
<event>
 4    1  0.4639964E-008  0.4989486E+03  0.7818608E-02  0.1014054E+00
         -2   -1    0    0    0  501 -0.00000000000E+00  0.00000000000E+00  0.30304982819E+03  0.30304982820E+03  0.25500000000E-02 0.  1.
          2   -1    0    0  501    0  0.00000000000E+00 -0.00000000000E+00 -0.21454732534E+04  0.21454732534E+04  0.25500000000E-02 0. -1.
    8880022    1    1    2    0    0  0.47487130023E+03 -0.74395395557E+01 -0.18829465222E+04  0.19479315586E+04  0.15294330000E+03 0.  0.
    8880022    1    1    2    0    0 -0.47487130023E+03  0.74395395557E+01  0.40523096950E+02  0.50059152303E+03  0.15294330000E+03 0.  0.
<mgrwt>
<rscale>  0 0.49894865E+03</rscale>
<asrwt>0</asrwt>
<pdfrwt beam="1">  1        2 0.33007280E+00 0.49894865E+03</pdfrwt>
<pdfrwt beam="2">  1       -2 0.46623052E-01 0.49894865E+03</pdfrwt>
<totfact> 0.26135468E+01</totfact>
</mgrwt>
</event>
<event>
 4    1  0.5147504E-008  0.8841351E+03  0.7818608E-02  0.9445634E-01
          2   -1    0    0  501    0  0.00000000000E+00  0.00000000000E+00  0.19866025531E+04  0.19866025531E+04  0.25500000000E-02 0. -1.
         -2   -1    0    0    0  501 -0.00000000000E+00 -0.00000000000E+00 -0.13062609234E+04  0.13062609234E+04  0.25500000000E-02 0.  1.
    8880022    1    1    2    0    0 -0.22137051325E+03  0.84219851545E+03 -0.10361233166E+04  0.13620743092E+04  0.15294330000E+03 0.  0.
    8880022    1    1    2    0    0  0.22137051325E+03 -0.84219851545E+03  0.17164649463E+04  0.19307891673E+04  0.15294330000E+03 0.  0.
<mgrwt>
<rscale>  0 0.88413511E+03</rscale>
<asrwt>0</asrwt>
<pdfrwt beam="1">  1        2 0.30563116E+00 0.88413511E+03</pdfrwt>
<pdfrwt beam="2">  1       -2 0.20096322E+00 0.88413511E+03</pdfrwt>
<totfact> 0.90646779E-01</totfact>
</mgrwt>
</event>
<event>
 4    1  0.4639964E-008  0.2859342E+03  0.7818608E-02  0.1092491E+00
         -2   -1    0    0    0  501 -0.00000000000E+00  0.00000000000E+00  0.10374835687E+03  0.10374835690E+03  0.25500000000E-02 0.  1.
          2   -1    0    0  501    0  0.00000000000E+00 -0.00000000000E+00 -0.14890286982E+04  0.14890286982E+04  0.25500000000E-02 0. -1.
    8880022    1    1    2    0    0  0.23050549390E+03  0.72345957810E+02 -0.14621912010E+03  0.32115168445E+03  0.15294330000E+03 0.  0.
    8880022    1    1    2    0    0 -0.23050549390E+03 -0.72345957810E+02 -0.12390612212E+04  0.12716253707E+04  0.15294330000E+03 0.  0.
<mgrwt>
<rscale>  0 0.28593421E+03</rscale>
<asrwt>0</asrwt>
<pdfrwt beam="1">  1        2 0.22908132E+00 0.28593421E+03</pdfrwt>
<pdfrwt beam="2">  1       -2 0.15961287E-01 0.28593421E+03</pdfrwt>
<totfact> 0.42798774E+02</totfact>
</mgrwt>
</event>
<event>
 4    1  0.4639964E-008  0.5439262E+03  0.7818608E-02  0.1002910E+00
         -2   -1    0    0    0  501 -0.00000000000E+00  0.00000000000E+00  0.53225507321E+03  0.53225507322E+03  0.25500000000E-02 0.  1.
          2   -1    0    0  501    0  0.00000000000E+00 -0.00000000000E+00 -0.15690922960E+04  0.15690922960E+04  0.25500000000E-02 0. -1.
    8880022    1    1    2    0    0  0.21356015087E+03 -0.47629419111E+03  0.32588676421E+03  0.63408038183E+03  0.15294330000E+03 0.  0.
    8880022    1    1    2    0    0 -0.21356015087E+03  0.47629419111E+03 -0.13627239869E+04  0.14672669873E+04  0.15294330000E+03 0.  0.
<mgrwt>
<rscale>  0 0.54392623E+03</rscale>
<asrwt>0</asrwt>
<pdfrwt beam="1">  1        2 0.24139881E+00 0.54392623E+03</pdfrwt>
<pdfrwt beam="2">  1       -2 0.81885396E-01 0.54392623E+03</pdfrwt>
<totfact> 0.16107154E+01</totfact>
</mgrwt>
</event>
<event>
 4    1  0.4639964E-008  0.3915841E+03  0.7818608E-02  0.1046733E+00
         -2   -1    0    0    0  501 -0.00000000000E+00  0.00000000000E+00  0.74872818940E+02  0.74872818984E+02  0.25500000000E-02 0.  1.
          2   -1    0    0  501    0  0.00000000000E+00 -0.00000000000E+00 -0.24149548764E+04  0.24149548764E+04  0.25500000000E-02 0. -1.
    8880022    1    1    2    0    0  0.34394459724E+03  0.10792851488E+03 -0.16553322335E+04  0.17010181970E+04  0.15294330000E+03 0.  1.
    8880022    1    1    2    0    0 -0.34394459724E+03 -0.10792851488E+03 -0.68474982398E+03  0.78880949839E+03  0.15294330000E+03 0.  0.
<mgrwt>
<rscale>  0 0.39158409E+03</rscale>
<asrwt>0</asrwt>
<pdfrwt beam="1">  1        2 0.37153146E+00 0.39158409E+03</pdfrwt>
<pdfrwt beam="2">  1       -2 0.11518897E-01 0.39158409E+03</pdfrwt>
<totfact> 0.23029805E+02</totfact>
</mgrwt>
</event>
<event>
 4    1  0.4639964E-008  0.3125519E+03  0.7818608E-02  0.1079129E+00
          2   -1    0    0  501    0  0.00000000000E+00  0.00000000000E+00  0.13968856129E+04  0.13968856129E+04  0.25500000000E-02 0. -1.
         -2   -1    0    0    0  501 -0.00000000000E+00 -0.00000000000E+00 -0.92729595229E+03  0.92729595229E+03  0.25500000000E-02 0.  1.
    8880022    1    1    2    0    0  0.15705604862E+03 -0.22277884089E+03 -0.88261678857E+03  0.93632316154E+03  0.15294330000E+03 0.  0.
    8880022    1    1    2    0    0 -0.15705604862E+03  0.22277884089E+03  0.13522064492E+04  0.13878584037E+04  0.15294330000E+03 0.  0.
<mgrwt>
<rscale>  0 0.31255186E+03</rscale>
<asrwt>0</asrwt>
<pdfrwt beam="1">  1        2 0.21490548E+00 0.31255186E+03</pdfrwt>
<pdfrwt beam="2">  1       -2 0.14266092E+00 0.31255186E+03</pdfrwt>
<totfact> 0.56151832E+00</totfact>
</mgrwt>
</event>
<event>
 4    1  0.4639964E-008  0.5752104E+03  0.7818608E-02  0.9958215E-01
          2   -1    0    0  501    0  0.00000000000E+00  0.00000000000E+00  0.72260284624E+03  0.72260284625E+03  0.25500000000E-02 0. -1.
         -2   -1    0    0    0  501 -0.00000000000E+00 -0.00000000000E+00 -0.18180634397E+04  0.18180634397E+04  0.25500000000E-02 0.  1.
    8880022    1    1    2    0    0  0.54499245600E+03  0.10226697446E+03 -0.16465122207E+04  0.17440955986E+04  0.15294330000E+03 0.  0.
    8880022    1    1    2    0    0 -0.54499245600E+03 -0.10226697446E+03  0.55105162719E+03  0.79657068739E+03  0.15294330000E+03 0.  0.
<mgrwt>
<rscale>  0 0.57521037E+03</rscale>
<asrwt>0</asrwt>
<pdfrwt beam="1">  1        2 0.11116967E+00 0.57521037E+03</pdfrwt>
<pdfrwt beam="2">  1       -2 0.27970207E+00 0.57521037E+03</pdfrwt>
<totfact> 0.17855938E+00</totfact>
</mgrwt>
</event>
<event>
 4    1  0.5110570E-008  0.8061815E+03  0.7818608E-02  0.9551112E-01
         -2   -1    0    0    0  501 -0.00000000000E+00  0.00000000000E+00  0.92960235544E+03  0.92960235544E+03  0.25500000000E-02 0.  1.
          2   -1    0    0  501    0  0.00000000000E+00 -0.00000000000E+00 -0.28869021770E+04  0.28869021770E+04  0.25500000000E-02 0. -1.
    8880022    1    1    2    0    0 -0.37718371288E+03 -0.69589471548E+03 -0.26398391792E+04  0.27601955643E+04  0.15294330000E+03 0.  0.
    8880022    1    1    2    0    0  0.37718371288E+03  0.69589471548E+03  0.68253935767E+03  0.10563089681E+04  0.15294330000E+03 0.  0.
<mgrwt>
<rscale>  0 0.80618153E+03</rscale>
<asrwt>0</asrwt>
<pdfrwt beam="1">  1        2 0.44413879E+00 0.80618153E+03</pdfrwt>
<pdfrwt beam="2">  1       -2 0.14301575E+00 0.80618153E+03</pdfrwt>
<totfact> 0.73153463E-01</totfact>
</mgrwt>
</event>
<event>
 4    1  0.4639964E-008  0.9600841E+03  0.7818608E-02  0.9353441E-01
          2   -1    0    0  501    0  0.00000000000E+00  0.00000000000E+00  0.10282646439E+04  0.10282646439E+04  0.25500000000E-02 0. -1.
         -2   -1    0    0    0  501 -0.00000000000E+00 -0.00000000000E+00 -0.16437228558E+04  0.16437228558E+04  0.25500000000E-02 0.  1.
    8880022    1    1    2    0    0 -0.76252978746E+03  0.56295490297E+03 -0.12085473259E+04  0.15434857276E+04  0.15294330000E+03 0.  0.
    8880022    1    1    2    0    0  0.76252978746E+03 -0.56295490297E+03  0.59308911398E+03  0.11285017721E+04  0.15294330000E+03 0.  0.
<mgrwt>
<rscale>  0 0.96008414E+03</rscale>
<asrwt>0</asrwt>
<pdfrwt beam="1">  1        2 0.15819456E+00 0.96008414E+03</pdfrwt>
<pdfrwt beam="2">  1       -2 0.25288044E+00 0.96008414E+03</pdfrwt>
<totfact> 0.14942193E+00</totfact>
</mgrwt>
</event>
<event>
 4    1  0.4639964E-008  0.4017822E+03  0.7818608E-02  0.1043164E+00
          2   -1    0    0  501    0  0.00000000000E+00  0.00000000000E+00  0.17649923323E+04  0.17649923323E+04  0.25500000000E-02 0. -1.
         -2   -1    0    0    0  501 -0.00000000000E+00 -0.00000000000E+00 -0.47753931979E+03  0.47753931979E+03  0.25500000000E-02 0.  1.
    8880022    1    1    2    0    0  0.16837940346E+03  0.33118830784E+03 -0.36446121467E+03  0.54245824611E+03  0.15294330000E+03 0.  0.
    8880022    1    1    2    0    0 -0.16837940346E+03 -0.33118830784E+03  0.16519142271E+04  0.17000734059E+04  0.15294330000E+03 0. -1.
<mgrwt>
<rscale>  0 0.40178224E+03</rscale>
<asrwt>0</asrwt>
<pdfrwt beam="1">  1        2 0.27153728E+00 0.40178224E+03</pdfrwt>
<pdfrwt beam="2">  1       -2 0.73467587E-01 0.40178224E+03</pdfrwt>
<totfact> 0.16560689E+01</totfact>
</mgrwt>
</event>
<event>
 4    1  0.4639964E-008  0.5535034E+03  0.7818608E-02  0.1000686E+00
         -2   -1    0    0    0  501 -0.00000000000E+00  0.00000000000E+00  0.52593724331E+03  0.52593724332E+03  0.25500000000E-02 0.  1.
          2   -1    0    0  501    0  0.00000000000E+00 -0.00000000000E+00 -0.15503428458E+04  0.15503428458E+04  0.25500000000E-02 0. -1.
    8880022    1    1    2    0    0  0.25708906321E+03 -0.46570335451E+03 -0.13324433684E+04  0.14428344963E+04  0.15294330000E+03 0. -1.
    8880022    1    1    2    0    0 -0.25708906321E+03  0.46570335451E+03  0.30803776588E+03  0.63344559281E+03  0.15294330000E+03 0.  0.
<mgrwt>
<rscale>  0 0.55350344E+03</rscale>
<asrwt>0</asrwt>
<pdfrwt beam="1">  1        2 0.23851428E+00 0.55350344E+03</pdfrwt>
<pdfrwt beam="2">  1       -2 0.80913423E-01 0.55350344E+03</pdfrwt>
<totfact> 0.16911896E+01</totfact>
</mgrwt>
</event>
<event>
 4    1  0.4639964E-008  0.2769124E+03  0.7818608E-02  0.1097387E+00
          2   -1    0    0  501    0  0.00000000000E+00  0.00000000000E+00  0.45978347273E+03  0.45978347273E+03  0.25500000000E-02 0. -1.
         -2   -1    0    0    0  501 -0.00000000000E+00 -0.00000000000E+00 -0.33383792458E+03  0.33383792459E+03  0.25500000000E-02 0.  1.
    8880022    1    1    2    0    0  0.11171118570E+03 -0.20201345041E+03  0.34368112288E+03  0.44135834692E+03  0.15294330000E+03 0.  0.
    8880022    1    1    2    0    0 -0.11171118570E+03  0.20201345041E+03 -0.21773557473E+03  0.35226305040E+03  0.15294330000E+03 0.  0.
<mgrwt>
<rscale>  0 0.27691240E+03</rscale>
<asrwt>0</asrwt>
<pdfrwt beam="1">  1        2 0.70735918E-01 0.27691240E+03</pdfrwt>
<pdfrwt beam="2">  1       -2 0.51359681E-01 0.27691240E+03</pdfrwt>
<totfact> 0.25084772E+02</totfact>
</mgrwt>
</event>
<event>
 4    1  0.4639964E-008  0.4641425E+03  0.7818608E-02  0.1023587E+00
          2   -1    0    0  501    0  0.00000000000E+00  0.00000000000E+00  0.10263591780E+04  0.10263591780E+04  0.25500000000E-02 0. -1.
         -2   -1    0    0    0  501 -0.00000000000E+00 -0.00000000000E+00 -0.36342779330E+03  0.36342779331E+03  0.25500000000E-02 0.  1.
    8880022    1    1    2    0    0 -0.30589304386E+03  0.31379304896E+03  0.78312283835E+03  0.91033491904E+03  0.15294330000E+03 0.  0.
    8880022    1    1    2    0    0  0.30589304386E+03 -0.31379304896E+03 -0.12019145368E+03  0.47945205225E+03  0.15294330000E+03 0.  1.
<mgrwt>
<rscale>  0 0.46414253E+03</rscale>
<asrwt>0</asrwt>
<pdfrwt beam="1">  1        2 0.15790141E+00 0.46414253E+03</pdfrwt>
<pdfrwt beam="2">  1       -2 0.55911968E-01 0.46414253E+03</pdfrwt>
<totfact> 0.76024544E+01</totfact>
</mgrwt>
</event>
<event>
 4    1  0.4639964E-008  0.5622299E+03  0.7818608E-02  0.9987022E-01
         -2   -1    0    0    0  501 -0.00000000000E+00  0.00000000000E+00  0.51615694816E+03  0.51615694817E+03  0.25500000000E-02 0.  1.
          2   -1    0    0  501    0  0.00000000000E+00 -0.00000000000E+00 -0.16893771806E+04  0.16893771806E+04  0.25500000000E-02 0. -1.
    8880022    1    1    2    0    0  0.35160145074E+03 -0.41120210601E+03 -0.14670924439E+04  0.15711341904E+04  0.15294330000E+03 0.  0.
    8880022    1    1    2    0    0 -0.35160145074E+03  0.41120210601E+03  0.29387221147E+03  0.63439993840E+03  0.15294330000E+03 0.  0.
<mgrwt>
<rscale>  0 0.56222985E+03</rscale>
<asrwt>0</asrwt>
<pdfrwt beam="1">  1        2 0.25990418E+00 0.56222985E+03</pdfrwt>
<pdfrwt beam="2">  1       -2 0.79408762E-01 0.56222985E+03</pdfrwt>
<totfact> 0.14792228E+01</totfact>
</mgrwt>
</event>
<event>
 4    1  0.4639964E-008  0.5712790E+03  0.7818608E-02  0.9966852E-01
          2   -1    0    0  501    0  0.00000000000E+00  0.00000000000E+00  0.36384822103E+04  0.36384822103E+04  0.25500000000E-02 0. -1.
         -2   -1    0    0    0  501 -0.00000000000E+00 -0.00000000000E+00 -0.12347679118E+03  0.12347679121E+03  0.25500000000E-02 0.  1.
    8880022    1    1    2    0    0 -0.28461584462E+02  0.54968895258E+03  0.27413374090E+04  0.28002304279E+04  0.15294330000E+03 0.  0.
    8880022    1    1    2    0    0  0.28461584462E+02 -0.54968895258E+03  0.77366801007E+03  0.96172857356E+03  0.15294330000E+03 0.  0.
<mgrwt>
<rscale>  0 0.57127897E+03</rscale>
<asrwt>0</asrwt>
<pdfrwt beam="1">  1        2 0.55976645E+00 0.57127897E+03</pdfrwt>
<pdfrwt beam="2">  1       -2 0.18996431E-01 0.57127897E+03</pdfrwt>
<totfact> 0.17010541E+01</totfact>
</mgrwt>
</event>
<event>
 4    1  0.4639964E-008  0.7547340E+03  0.7818608E-02  0.9627953E-01
          2   -1    0    0  501    0  0.00000000000E+00  0.00000000000E+00  0.74397811769E+03  0.74397811769E+03  0.25500000000E-02 0. -1.
         -2   -1    0    0    0  501 -0.00000000000E+00 -0.00000000000E+00 -0.10975695387E+04  0.10975695387E+04  0.25500000000E-02 0.  1.
    8880022    1    1    2    0    0 -0.71392065757E+03  0.19117817034E+03  0.32956072974E+03  0.82354946769E+03  0.15294330000E+03 0.  0.
    8880022    1    1    2    0    0  0.71392065757E+03 -0.19117817034E+03 -0.68315215075E+03  0.10179981887E+04  0.15294330000E+03 0.  0.
<mgrwt>
<rscale>  0 0.75473403E+03</rscale>
<asrwt>0</asrwt>
<pdfrwt beam="1">  1        2 0.11445817E+00 0.75473403E+03</pdfrwt>
<pdfrwt beam="2">  1       -2 0.16885685E+00 0.75473403E+03</pdfrwt>
<totfact> 0.83674518E+00</totfact>
</mgrwt>
</event>
<event>
 4    1  0.4639964E-008  0.6983845E+03  0.7818608E-02  0.9719999E-01
         -2   -1    0    0    0  501 -0.00000000000E+00  0.00000000000E+00  0.89230065101E+03  0.89230065101E+03  0.25500000000E-02 0.  1.
          2   -1    0    0  501    0  0.00000000000E+00 -0.00000000000E+00 -0.21079658245E+04  0.21079658245E+04  0.25500000000E-02 0. -1.
    8880022    1    1    2    0    0  0.18944399950E+03 -0.65456877621E+03 -0.18988999887E+04  0.20232553304E+04  0.15294330000E+03 0.  0.
    8880022    1    1    2    0    0 -0.18944399950E+03  0.65456877621E+03  0.68323481530E+03  0.97701114507E+03  0.15294330000E+03 0.  0.
<mgrwt>
<rscale>  0 0.69838454E+03</rscale>
<asrwt>0</asrwt>
<pdfrwt beam="1">  1        2 0.32430243E+00 0.69838454E+03</pdfrwt>
<pdfrwt beam="2">  1       -2 0.13727702E+00 0.69838454E+03</pdfrwt>
<totfact> 0.23087226E+00</totfact>
</mgrwt>
</event>
<event>
 4    1  0.4639964E-008  0.6828498E+03  0.7818608E-02  0.9747019E-01
          2   -1    0    0  501    0  0.00000000000E+00  0.00000000000E+00  0.16401782834E+04  0.16401782834E+04  0.25500000000E-02 0. -1.
         -2   -1    0    0    0  501 -0.00000000000E+00 -0.00000000000E+00 -0.85133808899E+03  0.85133808900E+03  0.25500000000E-02 0.  1.
    8880022    1    1    2    0    0  0.10482211693E+03 -0.65719442516E+03  0.14111210567E+04  0.15676563649E+04  0.15294330000E+03 0.  0.
    8880022    1    1    2    0    0 -0.10482211693E+03  0.65719442516E+03 -0.62228086238E+03  0.92386000744E+03  0.15294330000E+03 0.  0.
<mgrwt>
<rscale>  0 0.68284979E+03</rscale>
<asrwt>0</asrwt>
<pdfrwt beam="1">  1        2 0.25233512E+00 0.68284979E+03</pdfrwt>
<pdfrwt beam="2">  1       -2 0.13097509E+00 0.68284979E+03</pdfrwt>
<totfact> 0.46923345E+00</totfact>
</mgrwt>
</event>
<event>
 4    1  0.4639964E-008  0.3401595E+03  0.7818608E-02  0.1066728E+00
         -2   -1    0    0    0  501 -0.00000000000E+00  0.00000000000E+00  0.24423923258E+03  0.24423923260E+03  0.25500000000E-02 0.  1.
          2   -1    0    0  501    0  0.00000000000E+00 -0.00000000000E+00 -0.25955694001E+04  0.25955694001E+04  0.25500000000E-02 0. -1.
    8880022    1    1    2    0    0  0.21585142491E+03 -0.21383407864E+03  0.10813350653E+03  0.35693326978E+03  0.15294330000E+03 0.  1.
    8880022    1    1    2    0    0 -0.21585142491E+03  0.21383407864E+03 -0.24594636741E+04  0.24828753630E+04  0.15294330000E+03 0.  0.
<mgrwt>
<rscale>  0 0.34015953E+03</rscale>
<asrwt>0</asrwt>
<pdfrwt beam="1">  1        2 0.39931835E+00 0.34015953E+03</pdfrwt>
<pdfrwt beam="2">  1       -2 0.37575269E-01 0.34015953E+03</pdfrwt>
<totfact> 0.23514729E+01</totfact>
</mgrwt>
</event>
<event>
 4    1  0.4639964E-008  0.2737874E+03  0.7818608E-02  0.1099131E+00
         -2   -1    0    0    0  501 -0.00000000000E+00  0.00000000000E+00  0.51021896890E+02  0.51021896954E+02  0.25500000000E-02 0.  1.
          2   -1    0    0  501    0  0.00000000000E+00 -0.00000000000E+00 -0.17539425197E+04  0.17539425197E+04  0.25500000000E-02 0. -1.
    8880022    1    1    2    0    0  0.34212889939E+02  0.22449360897E+03 -0.48780974471E+03  0.55939065273E+03  0.15294330000E+03 0.  0.
    8880022    1    1    2    0    0 -0.34212889939E+02 -0.22449360897E+03 -0.12151108781E+04  0.12455737639E+04  0.15294330000E+03 0.  0.
<mgrwt>
<rscale>  0 0.27378743E+03</rscale>
<asrwt>0</asrwt>
<pdfrwt beam="1">  1        2 0.26983726E+00 0.27378743E+03</pdfrwt>
<pdfrwt beam="2">  1       -2 0.78495240E-02 0.27378743E+03</pdfrwt>
<totfact> 0.97544378E+02</totfact>
</mgrwt>
</event>
<event>
 4    1  0.4639964E-008  0.3335253E+03  0.7818608E-02  0.1069588E+00
          2   -1    0    0  501    0  0.00000000000E+00  0.00000000000E+00  0.58288904101E+03  0.58288904101E+03  0.25500000000E-02 0. -1.
         -2   -1    0    0    0  501 -0.00000000000E+00 -0.00000000000E+00 -0.14293670914E+04  0.14293670914E+04  0.25500000000E-02 0.  1.
    8880022    1    1    2    0    0 -0.29511546415E+03 -0.27465459924E+02 -0.13597954558E+04  0.14001010047E+04  0.15294330000E+03 0.  0.
    8880022    1    1    2    0    0  0.29511546415E+03  0.27465459924E+02  0.51331740542E+03  0.61215512772E+03  0.15294330000E+03 0.  0.
<mgrwt>
<rscale>  0 0.33352532E+03</rscale>
<asrwt>0</asrwt>
<pdfrwt beam="1">  1        2 0.89675237E-01 0.33352532E+03</pdfrwt>
<pdfrwt beam="2">  1       -2 0.21990263E+00 0.33352532E+03</pdfrwt>
<totfact> 0.56239821E+00</totfact>
</mgrwt>
</event>
<event>
 4    1  0.4639964E-008  0.2741623E+03  0.7818608E-02  0.1098921E+00
          2   -1    0    0  501    0  0.00000000000E+00  0.00000000000E+00  0.64496399900E+03  0.64496399900E+03  0.25500000000E-02 0. -1.
         -2   -1    0    0    0  501 -0.00000000000E+00 -0.00000000000E+00 -0.27273499086E+03  0.27273499087E+03  0.25500000000E-02 0.  1.
    8880022    1    1    2    0    0  0.20737461597E+03  0.93643427794E+02 -0.16112689758E+03  0.31800448590E+03  0.15294330000E+03 0.  1.
    8880022    1    1    2    0    0 -0.20737461597E+03 -0.93643427794E+02  0.53335590572E+03  0.59969450397E+03  0.15294330000E+03 0.  0.
<mgrwt>
<rscale>  0 0.27416232E+03</rscale>
<asrwt>0</asrwt>
<pdfrwt beam="1">  1        2 0.99225231E-01 0.27416232E+03</pdfrwt>
<pdfrwt beam="2">  1       -2 0.41959229E-01 0.27416232E+03</pdfrwt>
<totfact> 0.25370660E+02</totfact>
</mgrwt>
</event>
<event>
 4    1  0.4639964E-008  0.7258378E+03  0.7818608E-02  0.9674039E-01
          2   -1    0    0  501    0  0.00000000000E+00  0.00000000000E+00  0.23790910803E+04  0.23790910803E+04  0.25500000000E-02 0. -1.
         -2   -1    0    0    0  501 -0.00000000000E+00 -0.00000000000E+00 -0.26828794944E+03  0.26828794946E+03  0.25500000000E-02 0.  1.
    8880022    1    1    2    0    0  0.63045420567E+03 -0.32554010402E+03  0.16084999800E+04  0.17646848737E+04  0.15294330000E+03 0.  0.
    8880022    1    1    2    0    0 -0.63045420567E+03  0.32554010402E+03  0.50230315086E+03  0.88269415606E+03  0.15294330000E+03 0.  0.
<mgrwt>
<rscale>  0 0.72583780E+03</rscale>
<asrwt>0</asrwt>
<pdfrwt beam="1">  1        2 0.36601403E+00 0.72583780E+03</pdfrwt>
<pdfrwt beam="2">  1       -2 0.41275067E-01 0.72583780E+03</pdfrwt>
<totfact> 0.23760806E+01</totfact>
</mgrwt>
</event>
<event>
 4    1  0.4639964E-008  0.2489683E+03  0.7818608E-02  0.1113959E+00
          2   -1    0    0  501    0  0.00000000000E+00  0.00000000000E+00  0.18096753578E+04  0.18096753578E+04  0.25500000000E-02 0. -1.
         -2   -1    0    0    0  501 -0.00000000000E+00 -0.00000000000E+00 -0.37181820008E+03  0.37181820009E+03  0.25500000000E-02 0.  1.
    8880022    1    1    2    0    0  0.15611341946E+03 -0.11925665240E+03  0.17582216285E+04  0.17757613851E+04  0.15294330000E+03 0.  0.
    8880022    1    1    2    0    0 -0.15611341946E+03  0.11925665240E+03 -0.32036447078E+03  0.40573217278E+03  0.15294330000E+03 0.  1.
<mgrwt>
<rscale>  0 0.24896827E+03</rscale>
<asrwt>0</asrwt>
<pdfrwt beam="1">  1        2 0.27841159E+00 0.24896827E+03</pdfrwt>
<pdfrwt beam="2">  1       -2 0.57202800E-01 0.24896827E+03</pdfrwt>
<totfact> 0.27988507E+01</totfact>
</mgrwt>
</event>
<event>
 4    1  0.4639964E-008  0.5828025E+03  0.7818608E-02  0.9941742E-01
         -2   -1    0    0    0  501 -0.00000000000E+00  0.00000000000E+00  0.61652128110E+03  0.61652128110E+03  0.25500000000E-02 0.  1.
          2   -1    0    0  501    0  0.00000000000E+00 -0.00000000000E+00 -0.21494961854E+04  0.21494961854E+04  0.25500000000E-02 0. -1.
    8880022    1    1    2    0    0  0.55185649843E+03  0.10826570146E+03 -0.19591626656E+04  0.20440100441E+04  0.15294330000E+03 0.  0.
    8880022    1    1    2    0    0 -0.55185649843E+03 -0.10826570146E+03  0.42618776138E+03  0.72200742235E+03  0.15294330000E+03 0.  1.
<mgrwt>
<rscale>  0 0.58280246E+03</rscale>
<asrwt>0</asrwt>
<pdfrwt beam="1">  1        2 0.33069172E+00 0.58280246E+03</pdfrwt>
<pdfrwt beam="2">  1       -2 0.94849428E-01 0.58280246E+03</pdfrwt>
<totfact> 0.55367091E+00</totfact>
</mgrwt>
</event>
<event>
 4    1  0.4639964E-008  0.2705354E+03  0.7818608E-02  0.1100974E+00
         -2   -1    0    0    0  501 -0.00000000000E+00  0.00000000000E+00  0.16984500574E+04  0.16984500574E+04  0.25500000000E-02 0.  1.
          2   -1    0    0  501    0  0.00000000000E+00 -0.00000000000E+00 -0.11959548268E+03  0.11959548270E+03  0.25500000000E-02 0. -1.
    8880022    1    1    2    0    0  0.14444406579E+03  0.17009900883E+03  0.15164672858E+04  0.15404098295E+04  0.15294330000E+03 0.  0.
    8880022    1    1    2    0    0 -0.14444406579E+03 -0.17009900883E+03  0.62387288888E+02  0.27763571056E+03  0.15294330000E+03 0.  0.
<mgrwt>
<rscale>  0 0.27053542E+03</rscale>
<asrwt>0</asrwt>
<pdfrwt beam="1">  1        2 0.18399306E-01 0.27053542E+03</pdfrwt>
<pdfrwt beam="2">  1       -2 0.26130000E+00 0.27053542E+03</pdfrwt>
<totfact> 0.18887653E+01</totfact>
</mgrwt>
</event>
<event>
 4    1  0.4639964E-008  0.6076320E+03  0.7818608E-02  0.9889697E-01
         -2   -1    0    0    0  501 -0.00000000000E+00  0.00000000000E+00  0.36139339735E+03  0.36139339736E+03  0.25500000000E-02 0.  1.
          2   -1    0    0  501    0  0.00000000000E+00 -0.00000000000E+00 -0.24299537714E+04  0.24299537714E+04  0.25500000000E-02 0. -1.
    8880022    1    1    2    0    0  0.50842474088E+03  0.29551534377E+03 -0.20967910964E+04  0.21830596855E+04  0.15294330000E+03 0.  0.
    8880022    1    1    2    0    0 -0.50842474088E+03 -0.29551534377E+03  0.28230722379E+02  0.60828748323E+03  0.15294330000E+03 0.  0.
<mgrwt>
<rscale>  0 0.60763203E+03</rscale>
<asrwt>0</asrwt>
<pdfrwt beam="1">  1        2 0.37383903E+00 0.60763203E+03</pdfrwt>
<pdfrwt beam="2">  1       -2 0.55598986E-01 0.60763203E+03</pdfrwt>
<totfact> 0.12462611E+01</totfact>
</mgrwt>
</event>
<event>
 4    1  0.4639964E-008  0.1406517E+04  0.7818608E-02  0.8949115E-01
         -2   -1    0    0    0  501 -0.00000000000E+00  0.00000000000E+00  0.19074290497E+04  0.19074290497E+04  0.25500000000E-02 0.  1.
          2   -1    0    0  501    0  0.00000000000E+00 -0.00000000000E+00 -0.12848199645E+04  0.12848199645E+04  0.25500000000E-02 0. -1.
    8880022    1    1    2    0    0 -0.46527298609E+03  0.13184911792E+04  0.10120858403E+04  0.17328033190E+04  0.15294330000E+03 0.  0.
    8880022    1    1    2    0    0  0.46527298609E+03 -0.13184911792E+04 -0.38947675515E+03  0.14594456951E+04  0.15294330000E+03 0.  0.
<mgrwt>
<rscale>  0 0.14065168E+04</rscale>
<asrwt>0</asrwt>
<pdfrwt beam="1">  1        2 0.19766461E+00 0.14065168E+04</pdfrwt>
<pdfrwt beam="2">  1       -2 0.29345062E+00 0.14065168E+04</pdfrwt>
<totfact> 0.56014080E-01</totfact>
</mgrwt>
</event>
<event>
 4    1  0.4639964E-008  0.2640315E+03  0.7818608E-02  0.1104745E+00
          2   -1    0    0  501    0  0.00000000000E+00  0.00000000000E+00  0.25414566050E+04  0.25414566050E+04  0.25500000000E-02 0. -1.
         -2   -1    0    0    0  501 -0.00000000000E+00 -0.00000000000E+00 -0.41352278767E+02  0.41352278846E+02  0.25500000000E-02 0.  1.
    8880022    1    1    2    0    0 -0.19905335342E+03  0.81845763934E+02  0.19993679150E+04  0.20167262281E+04  0.15294330000E+03 0.  0.
    8880022    1    1    2    0    0  0.19905335342E+03 -0.81845763934E+02  0.50073641124E+03  0.56608265575E+03  0.15294330000E+03 0.  0.
<mgrwt>
<rscale>  0 0.26403147E+03</rscale>
<asrwt>0</asrwt>
<pdfrwt beam="1">  1        2 0.39099332E+00 0.26403147E+03</pdfrwt>
<pdfrwt beam="2">  1       -2 0.63618891E-02 0.26403147E+03</pdfrwt>
<totfact> 0.51552470E+02</totfact>
</mgrwt>
</event>
<event>
 4    1  0.4639964E-008  0.5355357E+03  0.7818608E-02  0.1004898E+00
         -2   -1    0    0    0  501 -0.00000000000E+00  0.00000000000E+00  0.29070404282E+03  0.29070404283E+03  0.25500000000E-02 0.  1.
          2   -1    0    0  501    0  0.00000000000E+00 -0.00000000000E+00 -0.20281244876E+04  0.20281244876E+04  0.25500000000E-02 0. -1.
    8880022    1    1    2    0    0  0.39664813647E+03  0.32569483037E+03 -0.16995806721E+04  0.17819576259E+04  0.15294330000E+03 0.  0.
    8880022    1    1    2    0    0 -0.39664813647E+03 -0.32569483037E+03 -0.37839772718E+02  0.53687090451E+03  0.15294330000E+03 0.  0.
<mgrwt>
<rscale>  0 0.53553573E+03</rscale>
<asrwt>0</asrwt>
<pdfrwt beam="1">  1        2 0.31201914E+00 0.53553573E+03</pdfrwt>
<pdfrwt beam="2">  1       -2 0.44723700E-01 0.53553573E+03</pdfrwt>
<totfact> 0.32621486E+01</totfact>
</mgrwt>
</event>
<event>
 4    1  0.4639964E-008  0.3873500E+03  0.7818608E-02  0.1048250E+00
          2   -1    0    0  501    0  0.00000000000E+00  0.00000000000E+00  0.24800137487E+04  0.24800137487E+04  0.25500000000E-02 0. -1.
         -2   -1    0    0    0  501 -0.00000000000E+00 -0.00000000000E+00 -0.83032027938E+02  0.83032027977E+02  0.25500000000E-02 0.  1.
    8880022    1    1    2    0    0  0.16461763283E+03 -0.31551453603E+03  0.53090556779E+03  0.65719157207E+03  0.15294330000E+03 0.  0.
    8880022    1    1    2    0    0 -0.16461763283E+03  0.31551453603E+03  0.18660761530E+04  0.19058542046E+04  0.15294330000E+03 0.  0.
<mgrwt>
<rscale>  0 0.38735002E+03</rscale>
<asrwt>0</asrwt>
<pdfrwt beam="1">  1        2 0.38154059E+00 0.38735002E+03</pdfrwt>
<pdfrwt beam="2">  1       -2 0.12774158E-01 0.38735002E+03</pdfrwt>
<totfact> 0.17917585E+02</totfact>
</mgrwt>
</event>
<event>
 4    1  0.4639964E-008  0.9406680E+03  0.7818608E-02  0.9376125E-01
          2   -1    0    0  501    0  0.00000000000E+00  0.00000000000E+00  0.30642450331E+04  0.30642450331E+04  0.25500000000E-02 0. -1.
         -2   -1    0    0    0  501 -0.00000000000E+00 -0.00000000000E+00 -0.69786593551E+03  0.69786593551E+03  0.25500000000E-02 0.  1.
    8880022    1    1    2    0    0 -0.75636128937E+03  0.53794256056E+03  0.26234107195E+04  0.27869589259E+04  0.15294330000E+03 0.  0.
    8880022    1    1    2    0    0  0.75636128937E+03 -0.53794256056E+03 -0.25703162199E+03  0.97515204262E+03  0.15294330000E+03 0.  0.
<mgrwt>
<rscale>  0 0.94066798E+03</rscale>
<asrwt>0</asrwt>
<pdfrwt beam="1">  1        2 0.47142232E+00 0.94066798E+03</pdfrwt>
<pdfrwt beam="2">  1       -2 0.10736399E+00 0.94066798E+03</pdfrwt>
<totfact> 0.11391438E+00</totfact>
</mgrwt>
</event>
<event>
 4    1  0.4639964E-008  0.1153688E+04  0.7818608E-02  0.9154388E-01
          2   -1    0    0  501    0  0.00000000000E+00  0.00000000000E+00  0.13262402122E+04  0.13262402122E+04  0.25500000000E-02 0. -1.
         -2   -1    0    0    0  501 -0.00000000000E+00 -0.00000000000E+00 -0.14020490917E+04  0.14020490917E+04  0.25500000000E-02 0.  1.
    8880022    1    1    2    0    0  0.92313883933E+03 -0.67484768156E+03  0.68932719171E+03  0.13439376251E+04  0.15294330000E+03 0.  0.
    8880022    1    1    2    0    0 -0.92313883933E+03  0.67484768156E+03 -0.76513607127E+03  0.13843516788E+04  0.15294330000E+03 0.  0.
<mgrwt>
<rscale>  0 0.11536882E+04</rscale>
<asrwt>0</asrwt>
<pdfrwt beam="1">  1        2 0.20403695E+00 0.11536882E+04</pdfrwt>
<pdfrwt beam="2">  1       -2 0.21569986E+00 0.11536882E+04</pdfrwt>
<totfact> 0.16389366E+00</totfact>
</mgrwt>
</event>
<event>
 4    1  0.4639964E-008  0.2150673E+03  0.7818608E-02  0.1137615E+00
          2   -1    0    0  501    0  0.00000000000E+00  0.00000000000E+00  0.53470037875E+03  0.53470037876E+03  0.25500000000E-02 0. -1.
         -2   -1    0    0    0  501 -0.00000000000E+00 -0.00000000000E+00 -0.12700237455E+03  0.12700237457E+03  0.25500000000E-02 0.  1.
    8880022    1    1    2    0    0  0.63080925788E+01  0.15107118914E+03  0.39067767931E+03  0.44596300110E+03  0.15294330000E+03 0.  0.
    8880022    1    1    2    0    0 -0.63080925788E+01 -0.15107118914E+03  0.17020324890E+02  0.21573975223E+03  0.15294330000E+03 0.  0.
<mgrwt>
<rscale>  0 0.21506731E+03</rscale>
<asrwt>0</asrwt>
<pdfrwt beam="1">  1        2 0.82261595E-01 0.21506731E+03</pdfrwt>
<pdfrwt beam="2">  1       -2 0.19538827E-01 0.21506731E+03</pdfrwt>
<totfact> 0.12598708E+03</totfact>
</mgrwt>
</event>
<event>
 4    1  0.4639964E-008  0.3454989E+03  0.7818608E-02  0.1064478E+00
          2   -1    0    0  501    0  0.00000000000E+00  0.00000000000E+00  0.26153943507E+04  0.26153943507E+04  0.25500000000E-02 0. -1.
         -2   -1    0    0    0  501 -0.00000000000E+00 -0.00000000000E+00 -0.13630942243E+03  0.13630942246E+03  0.25500000000E-02 0.  1.
    8880022    1    1    2    0    0  0.16357555910E+03 -0.26309864416E+03  0.23616552224E+04  0.23867938542E+04  0.15294330000E+03 0.  0.
    8880022    1    1    2    0    0 -0.16357555910E+03  0.26309864416E+03  0.11742970586E+03  0.36490991892E+03  0.15294330000E+03 0.  1.
<mgrwt>
<rscale>  0 0.34549893E+03</rscale>
<asrwt>0</asrwt>
<pdfrwt beam="1">  1        2 0.40236835E+00 0.34549893E+03</pdfrwt>
<pdfrwt beam="2">  1       -2 0.20970681E-01 0.34549893E+03</pdfrwt>
<totfact> 0.65928168E+01</totfact>
</mgrwt>
</event>
<event>
 4    1  0.4639964E-008  0.3623761E+03  0.7818608E-02  0.1057647E+00
         -2   -1    0    0    0  501 -0.00000000000E+00  0.00000000000E+00  0.37410087290E+03  0.37410087291E+03  0.25500000000E-02 0.  1.
          2   -1    0    0  501    0  0.00000000000E+00 -0.00000000000E+00 -0.27133926613E+04  0.27133926613E+04  0.25500000000E-02 0. -1.
    8880022    1    1    2    0    0  0.17073306094E+03 -0.28066885045E+03  0.27079039331E+03  0.45237580819E+03  0.15294330000E+03 0.  1.
    8880022    1    1    2    0    0 -0.17073306094E+03  0.28066885045E+03 -0.26100821817E+04  0.26351177260E+04  0.15294330000E+03 0.  0.
<mgrwt>
<rscale>  0 0.36237610E+03</rscale>
<asrwt>0</asrwt>
<pdfrwt beam="1">  1        2 0.41744501E+00 0.36237610E+03</pdfrwt>
<pdfrwt beam="2">  1       -2 0.57553982E-01 0.36237610E+03</pdfrwt>
<totfact> 0.85880058E+00</totfact>
</mgrwt>
</event>
<event>
 4    1  0.4639964E-008  0.6267749E+03  0.7818608E-02  0.9851363E-01
          2   -1    0    0  501    0  0.00000000000E+00  0.00000000000E+00  0.18802323939E+04  0.18802323939E+04  0.25500000000E-02 0. -1.
         -2   -1    0    0    0  501 -0.00000000000E+00 -0.00000000000E+00 -0.36206293196E+03  0.36206293197E+03  0.25500000000E-02 0.  1.
    8880022    1    1    2    0    0  0.22909127066E+03 -0.56300294625E+03  0.29966979945E+02  0.62749087696E+03  0.15294330000E+03 0.  0.
    8880022    1    1    2    0    0 -0.22909127066E+03  0.56300294625E+03  0.14882024820E+04  0.16148044489E+04  0.15294330000E+03 0.  0.
<mgrwt>
<rscale>  0 0.62677490E+03</rscale>
<asrwt>0</asrwt>
<pdfrwt beam="1">  1        2 0.28926652E+00 0.62677490E+03</pdfrwt>
<pdfrwt beam="2">  1       -2 0.55701989E-01 0.62677490E+03</pdfrwt>
<totfact> 0.24742510E+01</totfact>
</mgrwt>
</event>
<event>
 4    1  0.4639964E-008  0.1078577E+04  0.7818608E-02  0.9226327E-01
          2   -1    0    0  501    0  0.00000000000E+00  0.00000000000E+00  0.17587669188E+04  0.17587669188E+04  0.25500000000E-02 0. -1.
         -2   -1    0    0    0  501 -0.00000000000E+00 -0.00000000000E+00 -0.10842251010E+04  0.10842251010E+04  0.25500000000E-02 0.  1.
    8880022    1    1    2    0    0  0.10606973771E+04 -0.12189517140E+03  0.12249229757E+04  0.16321045641E+04  0.15294330000E+03 0.  0.
    8880022    1    1    2    0    0 -0.10606973771E+04  0.12189517140E+03 -0.55038115790E+03  0.12108874558E+04  0.15294330000E+03 0.  0.
<mgrwt>
<rscale>  0 0.10785773E+04</rscale>
<asrwt>0</asrwt>
<pdfrwt beam="1">  1        2 0.27057952E+00 0.10785773E+04</pdfrwt>
<pdfrwt beam="2">  1       -2 0.16680387E+00 0.10785773E+04</pdfrwt>
<totfact> 0.20126861E+00</totfact>
</mgrwt>
</event>
<event>
 4    1  0.4639964E-008  0.3120812E+03  0.7818608E-02  0.1079353E+00
          2   -1    0    0  501    0  0.00000000000E+00  0.00000000000E+00  0.11175777230E+04  0.11175777230E+04  0.25500000000E-02 0. -1.
         -2   -1    0    0    0  501 -0.00000000000E+00 -0.00000000000E+00 -0.22115422643E+03  0.22115422644E+03  0.25500000000E-02 0.  1.
    8880022    1    1    2    0    0 -0.21577034342E+03  0.16566884854E+03 -0.72837174537E+02  0.32046827532E+03  0.15294330000E+03 0.  1.
    8880022    1    1    2    0    0  0.21577034342E+03 -0.16566884854E+03  0.96926067114E+03  0.10182636742E+04  0.15294330000E+03 0.  0.
<mgrwt>
<rscale>  0 0.31208118E+03</rscale>
<asrwt>0</asrwt>
<pdfrwt beam="1">  1        2 0.17193503E+00 0.31208118E+03</pdfrwt>
<pdfrwt beam="2">  1       -2 0.34023727E-01 0.31208118E+03</pdfrwt>
<totfact> 0.18135480E+02</totfact>
</mgrwt>
</event>
<event>
 4    1  0.4639964E-008  0.5039202E+03  0.7818608E-02  0.1012761E+00
         -2   -1    0    0    0  501 -0.00000000000E+00  0.00000000000E+00  0.14255462673E+04  0.14255462673E+04  0.25500000000E-02 0.  1.
          2   -1    0    0  501    0  0.00000000000E+00 -0.00000000000E+00 -0.11824563805E+04  0.11824563805E+04  0.25500000000E-02 0. -1.
    8880022    1    1    2    0    0 -0.16354896118E+03  0.45143730162E+03 -0.10802280730E+04  0.11919850011E+04  0.15294330000E+03 0.  0.
    8880022    1    1    2    0    0  0.16354896118E+03 -0.45143730162E+03  0.13233179598E+04  0.14160176467E+04  0.15294330000E+03 0.  0.
<mgrwt>
<rscale>  0 0.50392019E+03</rscale>
<asrwt>0</asrwt>
<pdfrwt beam="1">  1        2 0.18191637E+00 0.50392019E+03</pdfrwt>
<pdfrwt beam="2">  1       -2 0.21931481E+00 0.50392019E+03</pdfrwt>
<totfact> 0.20995458E+00</totfact>
</mgrwt>
</event>
<event>
 4    1  0.4639964E-008  0.4164245E+03  0.7818608E-02  0.1038236E+00
         -2   -1    0    0    0  501 -0.00000000000E+00  0.00000000000E+00  0.20377639178E+03  0.20377639179E+03  0.25500000000E-02 0.  1.
          2   -1    0    0  501    0  0.00000000000E+00 -0.00000000000E+00 -0.11034029991E+04  0.11034029991E+04  0.25500000000E-02 0. -1.
    8880022    1    1    2    0    0  0.30553221667E+03  0.23805000453E+03 -0.76242382741E+03  0.86873441609E+03  0.15294330000E+03 0.  0.
    8880022    1    1    2    0    0 -0.30553221667E+03 -0.23805000453E+03 -0.13720277987E+03  0.43844497477E+03  0.15294330000E+03 0.  0.
<mgrwt>
<rscale>  0 0.41642453E+03</rscale>
<asrwt>0</asrwt>
<pdfrwt beam="1">  1        2 0.16975430E+00 0.41642453E+03</pdfrwt>
<pdfrwt beam="2">  1       -2 0.31350215E-01 0.41642453E+03</pdfrwt>
<totfact> 0.21245237E+02</totfact>
</mgrwt>
</event>
<event>
 4    1  0.4639964E-008  0.7286584E+03  0.7818608E-02  0.9669440E-01
          2   -1    0    0  501    0  0.00000000000E+00  0.00000000000E+00  0.12312183587E+04  0.12312183587E+04  0.25500000000E-02 0. -1.
         -2   -1    0    0    0  501 -0.00000000000E+00 -0.00000000000E+00 -0.10019837322E+04  0.10019837322E+04  0.25500000000E-02 0.  1.
    8880022    1    1    2    0    0 -0.32195651195E+03 -0.63552772369E+03  0.95735143437E+03  0.12031063565E+04  0.15294330000E+03 0.  0.
    8880022    1    1    2    0    0  0.32195651195E+03  0.63552772369E+03 -0.72811680781E+03  0.10300957344E+04  0.15294330000E+03 0.  0.
<mgrwt>
<rscale>  0 0.72865845E+03</rscale>
<asrwt>0</asrwt>
<pdfrwt beam="1">  1        2 0.18941821E+00 0.72865845E+03</pdfrwt>
<pdfrwt beam="2">  1       -2 0.15415134E+00 0.72865845E+03</pdfrwt>
<totfact> 0.51831028E+00</totfact>
</mgrwt>
</event>
<event>
 4    1  0.4639964E-008  0.6516846E+03  0.7818608E-02  0.9803623E-01
          2   -1    0    0  501    0  0.00000000000E+00  0.00000000000E+00  0.18521817780E+04  0.18521817780E+04  0.25500000000E-02 0. -1.
         -2   -1    0    0    0  501 -0.00000000000E+00 -0.00000000000E+00 -0.53715545526E+03  0.53715545527E+03  0.25500000000E-02 0.  1.
    8880022    1    1    2    0    0  0.42786895876E+03 -0.46715025258E+03 -0.24691821021E+03  0.69689415258E+03  0.15294330000E+03 0.  0.
    8880022    1    1    2    0    0 -0.42786895876E+03  0.46715025258E+03  0.15619445330E+04  0.16924430807E+04  0.15294330000E+03 0.  0.
<mgrwt>
<rscale>  0 0.65168463E+03</rscale>
<asrwt>0</asrwt>
<pdfrwt beam="1">  1        2 0.28495105E+00 0.65168463E+03</pdfrwt>
<pdfrwt beam="2">  1       -2 0.82639300E-01 0.65168463E+03</pdfrwt>
<totfact> 0.10865694E+01</totfact>
</mgrwt>
</event>
<event>
 4    1  0.4639964E-008  0.5951795E+03  0.7818608E-02  0.9915458E-01
         -2   -1    0    0    0  501 -0.00000000000E+00  0.00000000000E+00  0.13748638642E+04  0.13748638642E+04  0.25500000000E-02 0.  1.
          2   -1    0    0  501    0  0.00000000000E+00 -0.00000000000E+00 -0.90534851809E+03  0.90534851809E+03  0.25500000000E-02 0. -1.
    8880022    1    1    2    0    0 -0.21782653642E+03  0.53235190459E+03 -0.72956561813E+03  0.94154372945E+03  0.15294330000E+03 0.  0.
    8880022    1    1    2    0    0  0.21782653642E+03 -0.53235190459E+03  0.11990809642E+04  0.13386686529E+04  0.15294330000E+03 0.  0.
<mgrwt>
<rscale>  0 0.59517947E+03</rscale>
<asrwt>0</asrwt>
<pdfrwt beam="1">  1        2 0.13928439E+00 0.59517947E+03</pdfrwt>
<pdfrwt beam="2">  1       -2 0.21151752E+00 0.59517947E+03</pdfrwt>
<totfact> 0.34233051E+00</totfact>
</mgrwt>
</event>
<event>
 4    1  0.4639964E-008  0.6863131E+03  0.7818608E-02  0.9740929E-01
         -2   -1    0    0    0  501 -0.00000000000E+00  0.00000000000E+00  0.22951776968E+03  0.22951776970E+03  0.25500000000E-02 0.  1.
          2   -1    0    0  501    0  0.00000000000E+00 -0.00000000000E+00 -0.37258685597E+04  0.37258685597E+04  0.25500000000E-02 0. -1.
    8880022    1    1    2    0    0  0.64422147431E+03  0.18059004887E+03 -0.30736596874E+04  0.31493506633E+04  0.15294330000E+03 0.  0.
    8880022    1    1    2    0    0 -0.64422147431E+03 -0.18059004887E+03 -0.42269110262E+03  0.80603566606E+03  0.15294330000E+03 0.  0.
<mgrwt>
<rscale>  0 0.68631314E+03</rscale>
<asrwt>0</asrwt>
<pdfrwt beam="1">  1        2 0.57321051E+00 0.68631314E+03</pdfrwt>
<pdfrwt beam="2">  1       -2 0.35310429E-01 0.68631314E+03</pdfrwt>
<totfact> 0.46636181E+00</totfact>
</mgrwt>
</event>
<event>
 4    1  0.4639964E-008  0.3999011E+03  0.7818608E-02  0.1043814E+00
         -2   -1    0    0    0  501 -0.00000000000E+00  0.00000000000E+00  0.12722044756E+03  0.12722044758E+03  0.25500000000E-02 0.  1.
          2   -1    0    0  501    0  0.00000000000E+00 -0.00000000000E+00 -0.32288020044E+04  0.32288020044E+04  0.25500000000E-02 0. -1.
    8880022    1    1    2    0    0  0.26136591608E+03  0.26118399847E+03 -0.23949194587E+03  0.46613009804E+03  0.15294330000E+03 0.  0.
    8880022    1    1    2    0    0 -0.26136591608E+03 -0.26118399847E+03 -0.28620896110E+04  0.28898923540E+04  0.15294330000E+03 0.  0.
<mgrwt>
<rscale>  0 0.39990108E+03</rscale>
<asrwt>0</asrwt>
<pdfrwt beam="1">  1        2 0.49673871E+00 0.39990108E+03</pdfrwt>
<pdfrwt beam="2">  1       -2 0.19572379E-01 0.39990108E+03</pdfrwt>
<totfact> 0.31671432E+01</totfact>
</mgrwt>
</event>
<event>
 4    1  0.4639964E-008  0.5717612E+03  0.7818608E-02  0.9965789E-01
          2   -1    0    0  501    0  0.00000000000E+00  0.00000000000E+00  0.12273937920E+04  0.12273937920E+04  0.25500000000E-02 0. -1.
         -2   -1    0    0    0  501 -0.00000000000E+00 -0.00000000000E+00 -0.48126834680E+03  0.48126834681E+03  0.25500000000E-02 0.  1.
    8880022    1    1    2    0    0  0.53792109629E+03 -0.11899621528E+03  0.94398081555E+03  0.11036351925E+04  0.15294330000E+03 0.  0.
    8880022    1    1    2    0    0 -0.53792109629E+03  0.11899621528E+03 -0.19785537037E+03  0.60502694625E+03  0.15294330000E+03 0.  0.
<mgrwt>
<rscale>  0 0.57176119E+03</rscale>
<asrwt>0</asrwt>
<pdfrwt beam="1">  1        2 0.18882981E+00 0.57176119E+03</pdfrwt>
<pdfrwt beam="2">  1       -2 0.74041285E-01 0.57176119E+03</pdfrwt>
<totfact> 0.31200509E+01</totfact>
</mgrwt>
</event>
<event>
 4    1  0.4639964E-008  0.1656140E+03  0.7818608E-02  0.1182501E+00
          2   -1    0    0  501    0  0.00000000000E+00  0.00000000000E+00  0.18066077445E+04  0.18066077445E+04  0.25500000000E-02 0. -1.
         -2   -1    0    0    0  501 -0.00000000000E+00 -0.00000000000E+00 -0.20218716329E+03  0.20218716331E+03  0.25500000000E-02 0.  1.
    8880022    1    1    2    0    0 -0.63502435355E+02 -0.19414910410E+01  0.17681623484E+04  0.17759014815E+04  0.15294330000E+03 0. -1.
    8880022    1    1    2    0    0  0.63502435355E+02  0.19414910410E+01 -0.16374176719E+03  0.23289342631E+03  0.15294330000E+03 0.  0.
<mgrwt>
<rscale>  0 0.16561395E+03</rscale>
<asrwt>0</asrwt>
<pdfrwt beam="1">  1        2 0.27793967E+00 0.16561395E+03</pdfrwt>
<pdfrwt beam="2">  1       -2 0.31105716E-01 0.16561395E+03</pdfrwt>
<totfact> 0.94381842E+01</totfact>
</mgrwt>
</event>
<event>
 4    1  0.4639964E-008  0.3166492E+03  0.7818608E-02  0.1077202E+00
         -2   -1    0    0    0  501 -0.00000000000E+00  0.00000000000E+00  0.33189447714E+03  0.33189447715E+03  0.25500000000E-02 0.  1.
          2   -1    0    0  501    0  0.00000000000E+00 -0.00000000000E+00 -0.74979170938E+03  0.74979170939E+03  0.25500000000E-02 0. -1.
    8880022    1    1    2    0    0  0.92614180572E+02 -0.26133828531E+03 -0.62686406492E+03  0.70230000336E+03  0.15294330000E+03 0.  0.
    8880022    1    1    2    0    0 -0.92614180572E+02  0.26133828531E+03  0.20896683268E+03  0.37938618318E+03  0.15294330000E+03 0.  0.
<mgrwt>
<rscale>  0 0.31664924E+03</rscale>
<asrwt>0</asrwt>
<pdfrwt beam="1">  1        2 0.11535257E+00 0.31664924E+03</pdfrwt>
<pdfrwt beam="2">  1       -2 0.51060689E-01 0.31664924E+03</pdfrwt>
<totfact> 0.14254507E+02</totfact>
</mgrwt>
</event>
<event>
 4    1  0.4639964E-008  0.9511020E+03  0.7818608E-02  0.9363863E-01
         -2   -1    0    0    0  501 -0.00000000000E+00  0.00000000000E+00  0.19964876215E+04  0.19964876215E+04  0.25500000000E-02 0.  1.
          2   -1    0    0  501    0  0.00000000000E+00 -0.00000000000E+00 -0.69171846322E+03  0.69171846323E+03  0.25500000000E-02 0. -1.
    8880022    1    1    2    0    0  0.90383186461E+03  0.25355747150E+03  0.14418371371E+04  0.17272780360E+04  0.15294330000E+03 0.  0.
    8880022    1    1    2    0    0 -0.90383186461E+03 -0.25355747150E+03 -0.13706797886E+03  0.96092804865E+03  0.15294330000E+03 0.  0.
<mgrwt>
<rscale>  0 0.95110204E+03</rscale>
<asrwt>0</asrwt>
<pdfrwt beam="1">  1        2 0.10641822E+00 0.95110204E+03</pdfrwt>
<pdfrwt beam="2">  1       -2 0.30715194E+00 0.95110204E+03</pdfrwt>
<totfact> 0.12105193E+00</totfact>
</mgrwt>
</event>
<event>
 4    1  0.4639964E-008  0.3343878E+03  0.7818608E-02  0.1069212E+00
         -2   -1    0    0    0  501 -0.00000000000E+00  0.00000000000E+00  0.11598836913E+03  0.11598836916E+03  0.25500000000E-02 0.  1.
          2   -1    0    0  501    0  0.00000000000E+00 -0.00000000000E+00 -0.19359557484E+04  0.19359557484E+04  0.25500000000E-02 0. -1.
    8880022    1    1    2    0    0 -0.27182328852E+03 -0.12056395326E+03 -0.16369367712E+04  0.16707415159E+04  0.15294330000E+03 0. -1.
    8880022    1    1    2    0    0  0.27182328852E+03  0.12056395326E+03 -0.18303060805E+03  0.38120260165E+03  0.15294330000E+03 0.  0.
<mgrwt>
<rscale>  0 0.33438783E+03</rscale>
<asrwt>0</asrwt>
<pdfrwt beam="1">  1        2 0.29783932E+00 0.33438783E+03</pdfrwt>
<pdfrwt beam="2">  1       -2 0.17844366E-01 0.33438783E+03</pdfrwt>
<totfact> 0.20359591E+02</totfact>
</mgrwt>
</event>
<event>
 4    1  0.4639964E-008  0.1576106E+04  0.7818608E-02  0.8835363E-01
          2   -1    0    0  501    0  0.00000000000E+00  0.00000000000E+00  0.16388050463E+04  0.16388050463E+04  0.25500000000E-02 0. -1.
         -2   -1    0    0    0  501 -0.00000000000E+00 -0.00000000000E+00 -0.19461998310E+04  0.19461998310E+04  0.25500000000E-02 0.  1.
    8880022    1    1    2    0    0  0.14172098997E+04 -0.67248468757E+03 -0.99664163288E+03  0.18647803496E+04  0.15294330000E+03 0.  0.
    8880022    1    1    2    0    0 -0.14172098997E+04  0.67248468757E+03  0.68924684817E+03  0.17202245277E+04  0.15294330000E+03 0.  0.
<mgrwt>
<rscale>  0 0.15761063E+04</rscale>
<asrwt>0</asrwt>
<pdfrwt beam="1">  1        2 0.25212385E+00 0.15761063E+04</pdfrwt>
<pdfrwt beam="2">  1       -2 0.29941536E+00 0.15761063E+04</pdfrwt>
<totfact> 0.31686419E-01</totfact>
</mgrwt>
</event>
<event>
 4    1  0.4639964E-008  0.1023909E+04  0.7818608E-02  0.9282703E-01
          2   -1    0    0  501    0  0.00000000000E+00  0.00000000000E+00  0.12395048830E+04  0.12395048831E+04  0.25500000000E-02 0. -1.
         -2   -1    0    0    0  501 -0.00000000000E+00 -0.00000000000E+00 -0.87980744169E+03  0.87980744169E+03  0.25500000000E-02 0.  1.
    8880022    1    1    2    0    0  0.10455484899E+03  0.10070089083E+04  0.38813953820E+03  0.10950080420E+04  0.15294330000E+03 0.  0.
    8880022    1    1    2    0    0 -0.10455484899E+03 -0.10070089083E+04 -0.28442096842E+02  0.10243042828E+04  0.15294330000E+03 0.  0.
<mgrwt>
<rscale>  0 0.10239093E+04</rscale>
<asrwt>0</asrwt>
<pdfrwt beam="1">  1        2 0.19069306E+00 0.10239093E+04</pdfrwt>
<pdfrwt beam="2">  1       -2 0.13535499E+00 0.10239093E+04</pdfrwt>
<totfact> 0.69580024E+00</totfact>
</mgrwt>
</event>
<event>
 4    1  0.4639964E-008  0.2704933E+03  0.7818608E-02  0.1100998E+00
          2   -1    0    0  501    0  0.00000000000E+00  0.00000000000E+00  0.91713347874E+03  0.91713347874E+03  0.25500000000E-02 0. -1.
         -2   -1    0    0    0  501 -0.00000000000E+00 -0.00000000000E+00 -0.15325100637E+03  0.15325100639E+03  0.25500000000E-02 0.  1.
    8880022    1    1    2    0    0  0.21916035100E+02  0.22202405977E+03  0.11368537521E+02  0.27073214137E+03  0.15294330000E+03 0.  0.
    8880022    1    1    2    0    0 -0.21916035100E+02 -0.22202405977E+03  0.75251393485E+03  0.79965234376E+03  0.15294330000E+03 0.  0.
<mgrwt>
<rscale>  0 0.27049334E+03</rscale>
<asrwt>0</asrwt>
<pdfrwt beam="1">  1        2 0.14109746E+00 0.27049334E+03</pdfrwt>
<pdfrwt beam="2">  1       -2 0.23577078E-01 0.27049334E+03</pdfrwt>
<totfact> 0.46972530E+02</totfact>
</mgrwt>
</event>
<event>
 4    1  0.4639964E-008  0.6909866E+03  0.7818608E-02  0.9732772E-01
         -2   -1    0    0    0  501 -0.00000000000E+00  0.00000000000E+00  0.60760885223E+03  0.60760885224E+03  0.25500000000E-02 0.  1.
          2   -1    0    0  501    0  0.00000000000E+00 -0.00000000000E+00 -0.16030207107E+04  0.16030207107E+04  0.25500000000E-02 0. -1.
    8880022    1    1    2    0    0 -0.93986303479E+02  0.66726114536E+03  0.29148952003E+03  0.74995243492E+03  0.15294330000E+03 0.  0.
    8880022    1    1    2    0    0  0.93986303479E+02 -0.66726114536E+03 -0.12869013785E+04  0.14606771280E+04  0.15294330000E+03 0.  0.
<mgrwt>
<rscale>  0 0.69098662E+03</rscale>
<asrwt>0</asrwt>
<pdfrwt beam="1">  1        2 0.24661857E+00 0.69098662E+03</pdfrwt>
<pdfrwt beam="2">  1       -2 0.93478286E-01 0.69098662E+03</pdfrwt>
<totfact> 0.11130061E+01</totfact>
</mgrwt>
</event>
<event>
 4    1  0.4639964E-008  0.4478527E+03  0.7818608E-02  0.1028364E+00
          2   -1    0    0  501    0  0.00000000000E+00  0.00000000000E+00  0.28706582871E+04  0.28706582871E+04  0.25500000000E-02 0. -1.
         -2   -1    0    0    0  501 -0.00000000000E+00 -0.00000000000E+00 -0.80979782880E+02  0.80979782920E+02  0.25500000000E-02 0.  1.
    8880022    1    1    2    0    0  0.40718036646E+03 -0.10669826317E+03  0.19414819136E+04  0.19924668238E+04  0.15294330000E+03 0.  0.
    8880022    1    1    2    0    0 -0.40718036646E+03  0.10669826317E+03  0.84819659071E+03  0.95917124629E+03  0.15294330000E+03 0.  0.
<mgrwt>
<rscale>  0 0.44785268E+03</rscale>
<asrwt>0</asrwt>
<pdfrwt beam="1">  1        2 0.44163973E+00 0.44785268E+03</pdfrwt>
<pdfrwt beam="2">  1       -2 0.12458428E-01 0.44785268E+03</pdfrwt>
<totfact> 0.11041200E+02</totfact>
</mgrwt>
</event>
<event>
 4    1  0.4639964E-008  0.4387270E+03  0.7818608E-02  0.1031138E+00
         -2   -1    0    0    0  501 -0.00000000000E+00  0.00000000000E+00  0.15631056014E+03  0.15631056016E+03  0.25500000000E-02 0.  1.
          2   -1    0    0  501    0  0.00000000000E+00 -0.00000000000E+00 -0.21437461616E+04  0.21437461616E+04  0.25500000000E-02 0. -1.
    8880022    1    1    2    0    0  0.38961426649E+03  0.13149305450E+03 -0.17439589652E+04  0.17982975908E+04  0.15294330000E+03 0.  0.
    8880022    1    1    2    0    0 -0.38961426649E+03 -0.13149305450E+03 -0.24347663633E+03  0.50175913095E+03  0.15294330000E+03 0.  0.
<mgrwt>
<rscale>  0 0.43872697E+03</rscale>
<asrwt>0</asrwt>
<pdfrwt beam="1">  1        2 0.32980708E+00 0.43872697E+03</pdfrwt>
<pdfrwt beam="2">  1       -2 0.24047780E-01 0.43872697E+03</pdfrwt>
<totfact> 0.91993389E+01</totfact>
</mgrwt>
</event>
<event>
 4    1  0.4639964E-008  0.4278234E+03  0.7818608E-02  0.1034550E+00
          2   -1    0    0  501    0  0.00000000000E+00  0.00000000000E+00  0.31510895457E+03  0.31510895458E+03  0.25500000000E-02 0. -1.
         -2   -1    0    0    0  501 -0.00000000000E+00 -0.00000000000E+00 -0.58916997485E+03  0.58916997485E+03  0.25500000000E-02 0.  1.
    8880022    1    1    2    0    0 -0.23003143599E+02 -0.39888855866E+03 -0.19074115500E+03  0.46841762143E+03  0.15294330000E+03 0.  0.
    8880022    1    1    2    0    0  0.23003143599E+02  0.39888855866E+03 -0.83319865280E+02  0.43586130800E+03  0.15294330000E+03 0. -1.
<mgrwt>
<rscale>  0 0.42782342E+03</rscale>
<asrwt>0</asrwt>
<pdfrwt beam="1">  1        2 0.48478301E-01 0.42782342E+03</pdfrwt>
<pdfrwt beam="2">  1       -2 0.90641535E-01 0.42782342E+03</pdfrwt>
<totfact> 0.11102610E+02</totfact>
</mgrwt>
</event>
<event>
 4    1  0.4639964E-008  0.1374128E+04  0.7818608E-02  0.8972762E-01
         -2   -1    0    0    0  501 -0.00000000000E+00  0.00000000000E+00  0.13367380608E+04  0.13367380608E+04  0.25500000000E-02 0.  1.
          2   -1    0    0  501    0  0.00000000000E+00 -0.00000000000E+00 -0.21970885166E+04  0.21970885166E+04  0.25500000000E-02 0. -1.
    8880022    1    1    2    0    0  0.87565438757E+03 -0.10478860750E+04 -0.14860072738E+04  0.20239676637E+04  0.15294330000E+03 0.  0.
    8880022    1    1    2    0    0 -0.87565438757E+03  0.10478860750E+04  0.62565681796E+03  0.15098589138E+04  0.15294330000E+03 0.  0.
<mgrwt>
<rscale>  0 0.13741279E+04</rscale>
<asrwt>0</asrwt>
<pdfrwt beam="1">  1        2 0.33801362E+00 0.13741279E+04</pdfrwt>
<pdfrwt beam="2">  1       -2 0.20565201E+00 0.13741279E+04</pdfrwt>
<totfact> 0.60281056E-01</totfact>
</mgrwt>
</event>
<event>
 4    1  0.4639964E-008  0.1062686E+04  0.7818608E-02  0.9242344E-01
          2   -1    0    0  501    0  0.00000000000E+00  0.00000000000E+00  0.27322424252E+04  0.27322424252E+04  0.25500000000E-02 0. -1.
         -2   -1    0    0    0  501 -0.00000000000E+00 -0.00000000000E+00 -0.52171999927E+03  0.52171999928E+03  0.25500000000E-02 0.  1.
    8880022    1    1    2    0    0 -0.94233328688E+03  0.46681645755E+03  0.18468625183E+04  0.21307750804E+04  0.15294330000E+03 0.  0.
    8880022    1    1    2    0    0  0.94233328688E+03 -0.46681645755E+03  0.36365990766E+03  0.11231873441E+04  0.15294330000E+03 0.  0.
<mgrwt>
<rscale>  0 0.10626859E+04</rscale>
<asrwt>0</asrwt>
<pdfrwt beam="1">  1        2 0.42034498E+00 0.10626859E+04</pdfrwt>
<pdfrwt beam="2">  1       -2 0.80264617E-01 0.10626859E+04</pdfrwt>
<totfact> 0.35072012E+00</totfact>
</mgrwt>
</event>
<event>
 4    1  0.4639964E-008  0.6806815E+03  0.7818608E-02  0.9750852E-01
         -2   -1    0    0    0  501 -0.00000000000E+00  0.00000000000E+00  0.13319871974E+04  0.13319871974E+04  0.25500000000E-02 0.  1.
          2   -1    0    0  501    0  0.00000000000E+00 -0.00000000000E+00 -0.83170138000E+03  0.83170138000E+03  0.25500000000E-02 0. -1.
    8880022    1    1    2    0    0 -0.53280170941E+03  0.39504176959E+03  0.10753036000E+04  0.12726370836E+04  0.15294330000E+03 0.  0.
    8880022    1    1    2    0    0  0.53280170941E+03 -0.39504176959E+03 -0.57501778263E+03  0.89105149381E+03  0.15294330000E+03 0.  0.
<mgrwt>
<rscale>  0 0.68068151E+03</rscale>
<asrwt>0</asrwt>
<pdfrwt beam="1">  1        2 0.12795406E+00 0.68068151E+03</pdfrwt>
<pdfrwt beam="2">  1       -2 0.20492110E+00 0.68068151E+03</pdfrwt>
<totfact> 0.41727704E+00</totfact>
</mgrwt>
</event>
<event>
 4    1  0.4639964E-008  0.4304220E+03  0.7818608E-02  0.1033727E+00
          2   -1    0    0  501    0  0.00000000000E+00  0.00000000000E+00  0.22656528993E+04  0.22656528993E+04  0.25500000000E-02 0. -1.
         -2   -1    0    0    0  501 -0.00000000000E+00 -0.00000000000E+00 -0.16289197837E+03  0.16289197839E+03  0.25500000000E-02 0.  1.
    8880022    1    1    2    0    0  0.26781436670E+03  0.30024480580E+03  0.19447139835E+03  0.47231584370E+03  0.15294330000E+03 0.  0.
    8880022    1    1    2    0    0 -0.26781436670E+03 -0.30024480580E+03  0.19082895226E+04  0.19562290340E+04  0.15294330000E+03 0.  0.
<mgrwt>
<rscale>  0 0.43042204E+03</rscale>
<asrwt>0</asrwt>
<pdfrwt beam="1">  1        2 0.34856200E+00 0.43042204E+03</pdfrwt>
<pdfrwt beam="2">  1       -2 0.25060304E-01 0.43042204E+03</pdfrwt>
<totfact> 0.73541748E+01</totfact>
</mgrwt>
</event>
<event>
 4    1  0.4639964E-008  0.4789241E+03  0.7818608E-02  0.1019431E+00
          2   -1    0    0  501    0  0.00000000000E+00  0.00000000000E+00  0.18419297184E+04  0.18419297184E+04  0.25500000000E-02 0. -1.
         -2   -1    0    0    0  501 -0.00000000000E+00 -0.00000000000E+00 -0.14629279468E+03  0.14629279470E+03  0.25500000000E-02 0.  1.
    8880022    1    1    2    0    0 -0.15110566693E+03 -0.42795290098E+03  0.12312784978E+04  0.13211415519E+04  0.15294330000E+03 0.  0.
    8880022    1    1    2    0    0  0.15110566693E+03  0.42795290098E+03  0.46435842592E+03  0.66708096118E+03  0.15294330000E+03 0.  0.
<mgrwt>
<rscale>  0 0.47892407E+03</rscale>
<asrwt>0</asrwt>
<pdfrwt beam="1">  1        2 0.28337381E+00 0.47892407E+03</pdfrwt>
<pdfrwt beam="2">  1       -2 0.22506583E-01 0.47892407E+03</pdfrwt>
<totfact> 0.14923871E+02</totfact>
</mgrwt>
</event>
<event>
 4    1  0.4639964E-008  0.5641874E+03  0.7818608E-02  0.9982624E-01
          2   -1    0    0  501    0  0.00000000000E+00  0.00000000000E+00  0.20224666075E+04  0.20224666075E+04  0.25500000000E-02 0. -1.
         -2   -1    0    0    0  501 -0.00000000000E+00 -0.00000000000E+00 -0.27144034040E+03  0.27144034042E+03  0.25500000000E-02 0.  1.
    8880022    1    1    2    0    0  0.90101395304E+02 -0.53553483762E+03  0.16189856868E+04  0.17144743016E+04  0.15294330000E+03 0.  0.
    8880022    1    1    2    0    0 -0.90101395304E+02  0.53553483762E+03  0.13204058027E+03  0.57943264630E+03  0.15294330000E+03 0.  0.
<mgrwt>
<rscale>  0 0.56418745E+03</rscale>
<asrwt>0</asrwt>
<pdfrwt beam="1">  1        2 0.31114872E+00 0.56418745E+03</pdfrwt>
<pdfrwt beam="2">  1       -2 0.41760051E-01 0.56418745E+03</pdfrwt>
<totfact> 0.37409858E+01</totfact>
</mgrwt>
</event>
<event>
 4    1  0.4639964E-008  0.2761559E+03  0.7818608E-02  0.1097807E+00
         -2   -1    0    0    0  501 -0.00000000000E+00  0.00000000000E+00  0.16331104172E+03  0.16331104174E+03  0.25500000000E-02 0.  1.
          2   -1    0    0  501    0  0.00000000000E+00 -0.00000000000E+00 -0.97876877435E+03  0.97876877435E+03  0.25500000000E-02 0. -1.
    8880022    1    1    2    0    0  0.50917616372E+02 -0.22422721824E+03  0.51989060924E+01  0.27620487087E+03  0.15294330000E+03 0.  0.
    8880022    1    1    2    0    0 -0.50917616372E+02  0.22422721824E+03 -0.82065663872E+03  0.86587494521E+03  0.15294330000E+03 0. -1.
<mgrwt>
<rscale>  0 0.27615594E+03</rscale>
<asrwt>0</asrwt>
<pdfrwt beam="1">  1        2 0.15057981E+00 0.27615594E+03</pdfrwt>
<pdfrwt beam="2">  1       -2 0.25124776E-01 0.27615594E+03</pdfrwt>
<totfact> 0.38366199E+02</totfact>
</mgrwt>
</event>
<event>
 4    1  0.4639964E-008  0.3931435E+03  0.7818608E-02  0.1046180E+00
          2   -1    0    0  501    0  0.00000000000E+00  0.00000000000E+00  0.12448009805E+04  0.12448009805E+04  0.25500000000E-02 0. -1.
         -2   -1    0    0    0  501 -0.00000000000E+00 -0.00000000000E+00 -0.35192722076E+03  0.35192722077E+03  0.25500000000E-02 0.  1.
    8880022    1    1    2    0    0 -0.24325474617E+03 -0.26832316328E+03 -0.19582855286E+03  0.43921596808E+03  0.15294330000E+03 0.  0.
    8880022    1    1    2    0    0  0.24325474617E+03  0.26832316328E+03  0.10887023126E+04  0.11575122332E+04  0.15294330000E+03 0.  0.
<mgrwt>
<rscale>  0 0.39314354E+03</rscale>
<asrwt>0</asrwt>
<pdfrwt beam="1">  1        2 0.19150784E+00 0.39314354E+03</pdfrwt>
<pdfrwt beam="2">  1       -2 0.54142650E-01 0.39314354E+03</pdfrwt>
<totfact> 0.60919582E+01</totfact>
</mgrwt>
</event>
<event>
 4    1  0.4639964E-008  0.6045014E+03  0.7818608E-02  0.9896111E-01
         -2   -1    0    0    0  501 -0.00000000000E+00  0.00000000000E+00  0.17782029578E+03  0.17782029580E+03  0.25500000000E-02 0.  1.
          2   -1    0    0  501    0  0.00000000000E+00 -0.00000000000E+00 -0.30513581684E+04  0.30513581684E+04  0.25500000000E-02 0. -1.
    8880022    1    1    2    0    0  0.28932794661E+03 -0.50825150970E+03 -0.51415135516E+03  0.79358271581E+03  0.15294330000E+03 0.  0.
    8880022    1    1    2    0    0 -0.28932794661E+03  0.50825150970E+03 -0.23593865174E+04  0.24355957484E+04  0.15294330000E+03 0.  0.
<mgrwt>
<rscale>  0 0.60450137E+03</rscale>
<asrwt>0</asrwt>
<pdfrwt beam="1">  1        2 0.46943968E+00 0.60450137E+03</pdfrwt>
<pdfrwt beam="2">  1       -2 0.27356971E-01 0.60450137E+03</pdfrwt>
<totfact> 0.21411993E+01</totfact>
</mgrwt>
</event>
<event>
 4    1  0.5670400E-008  0.9339423E+03  0.7818608E-02  0.9384119E-01
          2   -1    0    0  501    0  0.00000000000E+00  0.00000000000E+00  0.17785789572E+04  0.17785789572E+04  0.25500000000E-02 0. -1.
         -2   -1    0    0    0  501 -0.00000000000E+00 -0.00000000000E+00 -0.13125609170E+04  0.13125609170E+04  0.25500000000E-02 0.  1.
    8880022    1    1    2    0    0  0.58090229502E+03  0.71512874504E+03 -0.99020491912E+03  0.13611590771E+04  0.15294330000E+03 0.  0.
    8880022    1    1    2    0    0 -0.58090229502E+03 -0.71512874504E+03  0.14562229593E+04  0.17299807972E+04  0.15294330000E+03 0.  0.
<mgrwt>
<rscale>  0 0.93394232E+03</rscale>
<asrwt>0</asrwt>
<pdfrwt beam="1">  1        2 0.27362753E+00 0.93394232E+03</pdfrwt>
<pdfrwt beam="2">  1       -2 0.20193245E+00 0.93394232E+03</pdfrwt>
<totfact> 0.11524823E+00</totfact>
</mgrwt>
</event>
<event>
 4    1  0.4639964E-008  0.1058662E+04  0.7818608E-02  0.9246446E-01
          2   -1    0    0  501    0  0.00000000000E+00  0.00000000000E+00  0.24692568045E+04  0.24692568045E+04  0.25500000000E-02 0. -1.
         -2   -1    0    0    0  501 -0.00000000000E+00 -0.00000000000E+00 -0.84147678482E+03  0.84147678482E+03  0.25500000000E-02 0.  1.
    8880022    1    1    2    0    0  0.56694841012E+03  0.88087634256E+03  0.19373534412E+04  0.22077372217E+04  0.15294330000E+03 0.  0.
    8880022    1    1    2    0    0 -0.56694841012E+03 -0.88087634256E+03 -0.30957342159E+03  0.11029963676E+04  0.15294330000E+03 0.  0.
<mgrwt>
<rscale>  0 0.10586620E+04</rscale>
<asrwt>0</asrwt>
<pdfrwt beam="1">  1        2 0.37988565E+00 0.10586620E+04</pdfrwt>
<pdfrwt beam="2">  1       -2 0.12945797E+00 0.10586620E+04</pdfrwt>
<totfact> 0.15878935E+00</totfact>
</mgrwt>
</event>
<event>
 4    1  0.4639964E-008  0.6055518E+03  0.7818608E-02  0.9893954E-01
          2   -1    0    0  501    0  0.00000000000E+00  0.00000000000E+00  0.46214699161E+03  0.46214699162E+03  0.25500000000E-02 0. -1.
         -2   -1    0    0    0  501 -0.00000000000E+00 -0.00000000000E+00 -0.13211704670E+04  0.13211704670E+04  0.25500000000E-02 0.  1.
    8880022    1    1    2    0    0  0.52059531571E+03 -0.26885292949E+03 -0.99304425061E+03  0.11631121688E+04  0.15294330000E+03 0.  0.
    8880022    1    1    2    0    0 -0.52059531571E+03  0.26885292949E+03  0.13402077518E+03  0.62020528991E+03  0.15294330000E+03 0.  0.
<mgrwt>
<rscale>  0 0.60555184E+03</rscale>
<asrwt>0</asrwt>
<pdfrwt beam="1">  1        2 0.71099538E-01 0.60555184E+03</pdfrwt>
<pdfrwt beam="2">  1       -2 0.20325699E+00 0.60555184E+03</pdfrwt>
<totfact> 0.88623672E+00</totfact>
</mgrwt>
</event>
<event>
 4    1  0.4639964E-008  0.5036553E+03  0.7818608E-02  0.1012829E+00
          2   -1    0    0  501    0  0.00000000000E+00  0.00000000000E+00  0.15144295532E+04  0.15144295533E+04  0.25500000000E-02 0. -1.
         -2   -1    0    0    0  501 -0.00000000000E+00 -0.00000000000E+00 -0.19063146739E+03  0.19063146740E+03  0.25500000000E-02 0.  1.
    8880022    1    1    2    0    0  0.32055230375E+03 -0.35710390527E+03  0.36493504319E+03  0.62196962736E+03  0.15294330000E+03 0.  1.
    8880022    1    1    2    0    0 -0.32055230375E+03  0.35710390527E+03  0.95886304267E+03  0.10830913933E+04  0.15294330000E+03 0. -1.
<mgrwt>
<rscale>  0 0.50365527E+03</rscale>
<asrwt>0</asrwt>
<pdfrwt beam="1">  1        2 0.23298917E+00 0.50365527E+03</pdfrwt>
<pdfrwt beam="2">  1       -2 0.29327917E-01 0.50365527E+03</pdfrwt>
<totfact> 0.13889576E+02</totfact>
</mgrwt>
</event>
<event>
 4    1  0.4639964E-008  0.7142826E+03  0.7818608E-02  0.9693114E-01
          2   -1    0    0  501    0  0.00000000000E+00  0.00000000000E+00  0.33119815486E+04  0.33119815486E+04  0.25500000000E-02 0. -1.
         -2   -1    0    0    0  501 -0.00000000000E+00 -0.00000000000E+00 -0.39697702310E+03  0.39697702311E+03  0.25500000000E-02 0.  1.
    8880022    1    1    2    0    0 -0.28156321040E+03 -0.63838091860E+03  0.67936077858E+01  0.71431494791E+03  0.15294330000E+03 0.  0.
    8880022    1    1    2    0    0  0.28156321040E+03  0.63838091860E+03  0.29082109177E+04  0.29946436238E+04  0.15294330000E+03 0.  0.
<mgrwt>
<rscale>  0 0.71428264E+03</rscale>
<asrwt>0</asrwt>
<pdfrwt beam="1">  1        2 0.50953560E+00 0.71428264E+03</pdfrwt>
<pdfrwt beam="2">  1       -2 0.61073391E-01 0.71428264E+03</pdfrwt>
<totfact> 0.29652936E+00</totfact>
</mgrwt>
</event>
<event>
 4    1  0.4639964E-008  0.3785366E+03  0.7818608E-02  0.1051476E+00
         -2   -1    0    0    0  501 -0.00000000000E+00  0.00000000000E+00  0.40550332821E+03  0.40550332822E+03  0.25500000000E-02 0.  1.
          2   -1    0    0  501    0  0.00000000000E+00 -0.00000000000E+00 -0.24320382560E+04  0.24320382560E+04  0.25500000000E-02 0. -1.
    8880022    1    1    2    0    0  0.34189506560E+03  0.54827504318E+02  0.29838972199E+03  0.48200245883E+03  0.15294330000E+03 0.  1.
    8880022    1    1    2    0    0 -0.34189506560E+03 -0.54827504318E+02 -0.23249246498E+04  0.23555391254E+04  0.15294330000E+03 0.  0.
<mgrwt>
<rscale>  0 0.37853658E+03</rscale>
<asrwt>0</asrwt>
<pdfrwt beam="1">  1        2 0.37415972E+00 0.37853658E+03</pdfrwt>
<pdfrwt beam="2">  1       -2 0.62385129E-01 0.37853658E+03</pdfrwt>
<totfact> 0.10367686E+01</totfact>
</mgrwt>
</event>
<event>
 4    1  0.4639964E-008  0.1128047E+04  0.7818608E-02  0.9178278E-01
          2   -1    0    0  501    0  0.00000000000E+00  0.00000000000E+00  0.46838974338E+04  0.46838974338E+04  0.25500000000E-02 0. -1.
         -2   -1    0    0    0  501 -0.00000000000E+00 -0.00000000000E+00 -0.40671152058E+03  0.40671152059E+03  0.25500000000E-02 0.  1.
    8880022    1    1    2    0    0 -0.11154625046E+04  0.69582289860E+02  0.36052373685E+04  0.37775953238E+04  0.15294330000E+03 0.  0.
    8880022    1    1    2    0    0  0.11154625046E+04 -0.69582289860E+02  0.67194854472E+03  0.13130136306E+04  0.15294330000E+03 0.  0.
<mgrwt>
<rscale>  0 0.11280470E+04</rscale>
<asrwt>0</asrwt>
<pdfrwt beam="1">  1        2 0.72059956E+00 0.11280470E+04</pdfrwt>
<pdfrwt beam="2">  1       -2 0.62571007E-01 0.11280470E+04</pdfrwt>
<totfact> 0.19996615E-01</totfact>
</mgrwt>
</event>
<event>
 4    1  0.4639964E-008  0.5398206E+03  0.7818608E-02  0.1003878E+00
          2   -1    0    0  501    0  0.00000000000E+00  0.00000000000E+00  0.25007056324E+04  0.25007056324E+04  0.25500000000E-02 0. -1.
         -2   -1    0    0    0  501 -0.00000000000E+00 -0.00000000000E+00 -0.34105112717E+03  0.34105112718E+03  0.25500000000E-02 0.  1.
    8880022    1    1    2    0    0  0.14739795107E+03  0.49627457184E+03  0.22326861154E+04  0.22970184042E+04  0.15294330000E+03 0.  0.
    8880022    1    1    2    0    0 -0.14739795107E+03 -0.49627457184E+03 -0.73031610174E+02  0.54473835530E+03  0.15294330000E+03 0.  0.
<mgrwt>
<rscale>  0 0.53982058E+03</rscale>
<asrwt>0</asrwt>
<pdfrwt beam="1">  1        2 0.38472396E+00 0.53982058E+03</pdfrwt>
<pdfrwt beam="2">  1       -2 0.52469403E-01 0.53982058E+03</pdfrwt>
<totfact> 0.13005617E+01</totfact>
</mgrwt>
</event>
<event>
 4    1  0.4639964E-008  0.5579034E+03  0.7818608E-02  0.9996810E-01
         -2   -1    0    0    0  501 -0.00000000000E+00  0.00000000000E+00  0.40114087269E+03  0.40114087270E+03  0.25500000000E-02 0.  1.
          2   -1    0    0  501    0  0.00000000000E+00 -0.00000000000E+00 -0.10907399310E+04  0.10907399310E+04  0.25500000000E-02 0. -1.
    8880022    1    1    2    0    0  0.24304746860E+03 -0.47832258002E+03 -0.74554580300E+03  0.93117923084E+03  0.15294330000E+03 0.  0.
    8880022    1    1    2    0    0 -0.24304746860E+03  0.47832258002E+03  0.55946744693E+02  0.56070157286E+03  0.15294330000E+03 0.  0.
<mgrwt>
<rscale>  0 0.55790341E+03</rscale>
<asrwt>0</asrwt>
<pdfrwt beam="1">  1        2 0.16780614E+00 0.55790341E+03</pdfrwt>
<pdfrwt beam="2">  1       -2 0.61713981E-01 0.55790341E+03</pdfrwt>
<totfact> 0.55815847E+01</totfact>
</mgrwt>
</event>
<event>
 4    1  0.4639964E-008  0.1186728E+04  0.7818608E-02  0.9124554E-01
          2   -1    0    0  501    0  0.00000000000E+00  0.00000000000E+00  0.19990525661E+04  0.19990525661E+04  0.25500000000E-02 0. -1.
         -2   -1    0    0    0  501 -0.00000000000E+00 -0.00000000000E+00 -0.10203281710E+04  0.10203281710E+04  0.25500000000E-02 0.  1.
    8880022    1    1    2    0    0 -0.45014563565E+03  0.10873362439E+04  0.13292991869E+04  0.17819537541E+04  0.15294330000E+03 0.  0.
    8880022    1    1    2    0    0  0.45014563565E+03 -0.10873362439E+04 -0.35057479177E+03  0.12374269830E+04  0.15294330000E+03 0.  0.
<mgrwt>
<rscale>  0 0.11867278E+04</rscale>
<asrwt>0</asrwt>
<pdfrwt beam="1">  1        2 0.30754655E+00 0.11867278E+04</pdfrwt>
<pdfrwt beam="2">  1       -2 0.15697356E+00 0.11867278E+04</pdfrwt>
<totfact> 0.17291451E+00</totfact>
</mgrwt>
</event>
<event>
 4    1  0.4639964E-008  0.1610772E+03  0.7818608E-02  0.1187486E+00
         -2   -1    0    0    0  501 -0.00000000000E+00  0.00000000000E+00  0.51188038280E+02  0.51188038343E+02  0.25500000000E-02 0.  1.
          2   -1    0    0  501    0  0.00000000000E+00 -0.00000000000E+00 -0.58133570192E+03  0.58133570193E+03  0.25500000000E-02 0. -1.
    8880022    1    1    2    0    0  0.19595124132E+02 -0.46586005345E+02 -0.15188586253E+03  0.22139375112E+03  0.15294330000E+03 0.  0.
    8880022    1    1    2    0    0 -0.19595124132E+02  0.46586005345E+02 -0.37826180111E+03  0.41112998915E+03  0.15294330000E+03 0. -1.
<mgrwt>
<rscale>  0 0.16107724E+03</rscale>
<asrwt>0</asrwt>
<pdfrwt beam="1">  1        2 0.89436257E-01 0.16107724E+03</pdfrwt>
<pdfrwt beam="2">  1       -2 0.78750832E-02 0.16107724E+03</pdfrwt>
<totfact> 0.49456580E+03</totfact>
</mgrwt>
</event>
<event>
 4    1  0.4639964E-008  0.6353199E+03  0.7818608E-02  0.9834722E-01
          2   -1    0    0  501    0  0.00000000000E+00  0.00000000000E+00  0.58420575546E+03  0.58420575546E+03  0.25500000000E-02 0. -1.
         -2   -1    0    0    0  501 -0.00000000000E+00 -0.00000000000E+00 -0.91306374526E+03  0.91306374527E+03  0.25500000000E-02 0.  1.
    8880022    1    1    2    0    0 -0.56032812378E+03 -0.25743380098E+03 -0.53370398547E+03  0.82974174615E+03  0.15294330000E+03 0.  0.
    8880022    1    1    2    0    0  0.56032812378E+03  0.25743380098E+03  0.20484599566E+03  0.66752775458E+03  0.15294330000E+03 0.  0.
<mgrwt>
<rscale>  0 0.63531994E+03</rscale>
<asrwt>0</asrwt>
<pdfrwt beam="1">  1        2 0.89877807E-01 0.63531994E+03</pdfrwt>
<pdfrwt beam="2">  1       -2 0.14047135E+00 0.63531994E+03</pdfrwt>
<totfact> 0.18697499E+01</totfact>
</mgrwt>
</event>
<event>
 4    1  0.4639964E-008  0.3742876E+03  0.7818608E-02  0.1053066E+00
          2   -1    0    0  501    0  0.00000000000E+00  0.00000000000E+00  0.37442852744E+04  0.37442852744E+04  0.25500000000E-02 0. -1.
         -2   -1    0    0    0  501 -0.00000000000E+00 -0.00000000000E+00 -0.14113372576E+03  0.14113372578E+03  0.25500000000E-02 0.  1.
    8880022    1    1    2    0    0  0.33094522919E+03 -0.84704118174E+02  0.34669879863E+04  0.34871330463E+04  0.15294330000E+03 0. -1.
    8880022    1    1    2    0    0 -0.33094522919E+03  0.84704118174E+02  0.13616356237E+03  0.39828595392E+03  0.15294330000E+03 0.  0.
<mgrwt>
<rscale>  0 0.37428757E+03</rscale>
<asrwt>0</asrwt>
<pdfrwt beam="1">  1        2 0.57604385E+00 0.37428757E+03</pdfrwt>
<pdfrwt beam="2">  1       -2 0.21712882E-01 0.37428757E+03</pdfrwt>
<totfact> 0.12069066E+01</totfact>
</mgrwt>
</event>
<event>
 4    1  0.4639964E-008  0.3562320E+03  0.7818608E-02  0.1060086E+00
         -2   -1    0    0    0  501 -0.00000000000E+00  0.00000000000E+00  0.95249641933E+03  0.95249641933E+03  0.25500000000E-02 0.  1.
          2   -1    0    0  501    0  0.00000000000E+00 -0.00000000000E+00 -0.43933089844E+03  0.43933089845E+03  0.25500000000E-02 0. -1.
    8880022    1    1    2    0    0  0.24847997980E+03  0.20437043567E+03  0.83746980603E+03  0.91008620710E+03  0.15294330000E+03 0.  0.
    8880022    1    1    2    0    0 -0.24847997980E+03 -0.20437043567E+03 -0.32430428514E+03  0.48174111067E+03  0.15294330000E+03 0.  0.
<mgrwt>
<rscale>  0 0.35623199E+03</rscale>
<asrwt>0</asrwt>
<pdfrwt beam="1">  1        2 0.67589368E-01 0.35623199E+03</pdfrwt>
<pdfrwt beam="2">  1       -2 0.14653791E+00 0.35623199E+03</pdfrwt>
<totfact> 0.24140536E+01</totfact>
</mgrwt>
</event>
<event>
 4    1  0.4639964E-008  0.2706210E+03  0.7818608E-02  0.1100925E+00
         -2   -1    0    0    0  501 -0.00000000000E+00  0.00000000000E+00  0.39962372416E+03  0.39962372417E+03  0.25500000000E-02 0.  1.
          2   -1    0    0  501    0  0.00000000000E+00 -0.00000000000E+00 -0.12615112497E+04  0.12615112497E+04  0.25500000000E-02 0. -1.
    8880022    1    1    2    0    0  0.19825664983E+03 -0.10265651228E+03  0.33692855434E+03  0.43215340154E+03  0.15294330000E+03 0.  1.
    8880022    1    1    2    0    0 -0.19825664983E+03  0.10265651228E+03 -0.11988160798E+04  0.12289815723E+04  0.15294330000E+03 0.  0.
<mgrwt>
<rscale>  0 0.27062097E+03</rscale>
<asrwt>0</asrwt>
<pdfrwt beam="1">  1        2 0.19407865E+00 0.27062097E+03</pdfrwt>
<pdfrwt beam="2">  1       -2 0.61480573E-01 0.27062097E+03</pdfrwt>
<totfact> 0.47078974E+01</totfact>
</mgrwt>
</event>
<event>
 4    1  0.4639964E-008  0.5313020E+03  0.7818608E-02  0.1005917E+00
         -2   -1    0    0    0  501 -0.00000000000E+00  0.00000000000E+00  0.83239086521E+03  0.83239086521E+03  0.25500000000E-02 0.  1.
          2   -1    0    0  501    0  0.00000000000E+00 -0.00000000000E+00 -0.37156728287E+03  0.37156728287E+03  0.25500000000E-02 0. -1.
    8880022    1    1    2    0    0  0.49874398468E+03 -0.10072040516E+03  0.52526363981E+02  0.53389215596E+03  0.15294330000E+03 0.  0.
    8880022    1    1    2    0    0 -0.49874398468E+03  0.10072040516E+03  0.40829721836E+03  0.67006599213E+03  0.15294330000E+03 0.  0.
<mgrwt>
<rscale>  0 0.53130200E+03</rscale>
<asrwt>0</asrwt>
<pdfrwt beam="1">  1        2 0.57164198E-01 0.53130200E+03</pdfrwt>
<pdfrwt beam="2">  1       -2 0.12806013E+00 0.53130200E+03</pdfrwt>
<totfact> 0.40105043E+01</totfact>
</mgrwt>
</event>
<event>
 4    1  0.4639964E-008  0.4067514E+03  0.7818608E-02  0.1041467E+00
          2   -1    0    0  501    0  0.00000000000E+00  0.00000000000E+00  0.16138999316E+04  0.16138999316E+04  0.25500000000E-02 0. -1.
         -2   -1    0    0    0  501 -0.00000000000E+00 -0.00000000000E+00 -0.44293978452E+03  0.44293978453E+03  0.25500000000E-02 0.  1.
    8880022    1    1    2    0    0  0.25676343303E+03  0.27591223580E+03 -0.31611098121E+03  0.51514350220E+03  0.15294330000E+03 0.  0.
    8880022    1    1    2    0    0 -0.25676343303E+03 -0.27591223580E+03  0.14870711283E+04  0.15416962139E+04  0.15294330000E+03 0.  0.
<mgrwt>
<rscale>  0 0.40675137E+03</rscale>
<asrwt>0</asrwt>
<pdfrwt beam="1">  1        2 0.24829230E+00 0.40675137E+03</pdfrwt>
<pdfrwt beam="2">  1       -2 0.68144582E-01 0.40675137E+03</pdfrwt>
<totfact> 0.23461260E+01</totfact>
</mgrwt>
</event>
<event>
 4    1  0.4639964E-008  0.6816370E+03  0.7818608E-02  0.9749161E-01
          2   -1    0    0  501    0  0.00000000000E+00  0.00000000000E+00  0.59959295607E+03  0.59959295608E+03  0.25500000000E-02 0. -1.
         -2   -1    0    0    0  501 -0.00000000000E+00 -0.00000000000E+00 -0.84584971834E+03  0.84584971834E+03  0.25500000000E-02 0.  1.
    8880022    1    1    2    0    0 -0.31512491084E+03  0.58475087823E+03 -0.33243227150E+03  0.75837996227E+03  0.15294330000E+03 0.  0.
    8880022    1    1    2    0    0  0.31512491084E+03 -0.58475087823E+03  0.86175509239E+02  0.68706271215E+03  0.15294330000E+03 0.  0.
<mgrwt>
<rscale>  0 0.68163696E+03</rscale>
<asrwt>0</asrwt>
<pdfrwt beam="1">  1        2 0.92245070E-01 0.68163696E+03</pdfrwt>
<pdfrwt beam="2">  1       -2 0.13013073E+00 0.68163696E+03</pdfrwt>
<totfact> 0.21926978E+01</totfact>
</mgrwt>
</event>
<event>
 4    1  0.4639964E-008  0.8243298E+03  0.7818608E-02  0.9525453E-01
         -2   -1    0    0    0  501 -0.00000000000E+00  0.00000000000E+00  0.35861544854E+03  0.35861544855E+03  0.25500000000E-02 0.  1.
          2   -1    0    0  501    0  0.00000000000E+00 -0.00000000000E+00 -0.26449935328E+04  0.26449935328E+04  0.25500000000E-02 0. -1.
    8880022    1    1    2    0    0 -0.40702740127E+03  0.70032612706E+03 -0.34339978094E+03  0.89299666976E+03  0.15294330000E+03 0.  0.
    8880022    1    1    2    0    0  0.40702740127E+03 -0.70032612706E+03 -0.19429783033E+04  0.21106123116E+04  0.15294330000E+03 0.  0.
<mgrwt>
<rscale>  0 0.82432981E+03</rscale>
<asrwt>0</asrwt>
<pdfrwt beam="1">  1        2 0.40692207E+00 0.82432981E+03</pdfrwt>
<pdfrwt beam="2">  1       -2 0.55171609E-01 0.82432981E+03</pdfrwt>
<totfact> 0.91987892E+00</totfact>
</mgrwt>
</event>
<event>
 4    1  0.4639964E-008  0.6644041E+03  0.7818608E-02  0.9780120E-01
          2   -1    0    0  501    0  0.00000000000E+00  0.00000000000E+00  0.20093320722E+04  0.20093320722E+04  0.25500000000E-02 0. -1.
         -2   -1    0    0    0  501 -0.00000000000E+00 -0.00000000000E+00 -0.36450403848E+03  0.36450403849E+03  0.25500000000E-02 0.  1.
    8880022    1    1    2    0    0 -0.48434476371E+03 -0.42831213267E+03  0.74291133405E+02  0.66854465718E+03  0.15294330000E+03 0.  1.
    8880022    1    1    2    0    0  0.48434476371E+03  0.42831213267E+03  0.15705369004E+04  0.17052914535E+04  0.15294330000E+03 0.  0.
<mgrwt>
<rscale>  0 0.66440408E+03</rscale>
<asrwt>0</asrwt>
<pdfrwt beam="1">  1        2 0.30912801E+00 0.66440408E+03</pdfrwt>
<pdfrwt beam="2">  1       -2 0.56077545E-01 0.66440408E+03</pdfrwt>
<totfact> 0.20643018E+01</totfact>
</mgrwt>
</event>
<event>
 4    1  0.4639964E-008  0.5715789E+03  0.7818608E-02  0.9966191E-01
         -2   -1    0    0    0  501 -0.00000000000E+00  0.00000000000E+00  0.89693099452E+03  0.89693099452E+03  0.25500000000E-02 0.  1.
          2   -1    0    0  501    0  0.00000000000E+00 -0.00000000000E+00 -0.12403427341E+04  0.12403427341E+04  0.25500000000E-02 0. -1.
    8880022    1    1    2    0    0  0.37277317432E+03 -0.40540215726E+03  0.72641676138E+03  0.92432879044E+03  0.15294330000E+03 0.  0.
    8880022    1    1    2    0    0 -0.37277317432E+03  0.40540215726E+03 -0.10698285010E+04  0.12129449382E+04  0.15294330000E+03 0.  0.
<mgrwt>
<rscale>  0 0.57157887E+03</rscale>
<asrwt>0</asrwt>
<pdfrwt beam="1">  1        2 0.19082196E+00 0.57157887E+03</pdfrwt>
<pdfrwt beam="2">  1       -2 0.13798938E+00 0.57157887E+03</pdfrwt>
<totfact> 0.70171148E+00</totfact>
</mgrwt>
</event>
<event>
 4    1  0.4639964E-008  0.3376353E+03  0.7818608E-02  0.1067808E+00
          2   -1    0    0  501    0  0.00000000000E+00  0.00000000000E+00  0.17080882691E+04  0.17080882691E+04  0.25500000000E-02 0. -1.
         -2   -1    0    0    0  501 -0.00000000000E+00 -0.00000000000E+00 -0.73713354702E+02  0.73713354746E+02  0.25500000000E-02 0.  1.
    8880022    1    1    2    0    0 -0.54074552837E+02 -0.29611124305E+03  0.10912069036E+04  0.11422478211E+04  0.15294330000E+03 0.  0.
    8880022    1    1    2    0    0  0.54074552837E+02  0.29611124305E+03  0.54316801080E+03  0.63955380266E+03  0.15294330000E+03 0.  1.
<mgrwt>
<rscale>  0 0.33763527E+03</rscale>
<asrwt>0</asrwt>
<pdfrwt beam="1">  1        2 0.26278278E+00 0.33763527E+03</pdfrwt>
<pdfrwt beam="2">  1       -2 0.11340517E-01 0.33763527E+03</pdfrwt>
<totfact> 0.56987743E+02</totfact>
</mgrwt>
</event>
<event>
 4    1  0.4639964E-008  0.3937029E+03  0.7818608E-02  0.1045982E+00
          2   -1    0    0  501    0  0.00000000000E+00  0.00000000000E+00  0.21263709061E+04  0.21263709061E+04  0.25500000000E-02 0. -1.
         -2   -1    0    0    0  501 -0.00000000000E+00 -0.00000000000E+00 -0.18738525114E+03  0.18738525116E+03  0.25500000000E-02 0.  1.
    8880022    1    1    2    0    0  0.97229182806E+02  0.34950941499E+03  0.18737750081E+04  0.19146892122E+04  0.15294330000E+03 0. -1.
    8880022    1    1    2    0    0 -0.97229182806E+02 -0.34950941499E+03  0.65210646793E+02  0.39906694504E+03  0.15294330000E+03 0.  0.
<mgrwt>
<rscale>  0 0.39370293E+03</rscale>
<asrwt>0</asrwt>
<pdfrwt beam="1">  1        2 0.32713398E+00 0.39370293E+03</pdfrwt>
<pdfrwt beam="2">  1       -2 0.28828500E-01 0.39370293E+03</pdfrwt>
<totfact> 0.68459520E+01</totfact>
</mgrwt>
</event>
<event>
 4    1  0.4639964E-008  0.6567615E+03  0.7818608E-02  0.9794174E-01
         -2   -1    0    0    0  501 -0.00000000000E+00  0.00000000000E+00  0.61918370846E+03  0.61918370847E+03  0.25500000000E-02 0.  1.
          2   -1    0    0  501    0  0.00000000000E+00 -0.00000000000E+00 -0.94682263955E+03  0.94682263956E+03  0.25500000000E-02 0. -1.
    8880022    1    1    2    0    0 -0.16042432968E+03  0.61822981298E+03 -0.56632809700E+03  0.86721579418E+03  0.15294330000E+03 0.  0.
    8880022    1    1    2    0    0  0.16042432968E+03 -0.61822981298E+03  0.23868916591E+03  0.69879055385E+03  0.15294330000E+03 0.  0.
<mgrwt>
<rscale>  0 0.65676154E+03</rscale>
<asrwt>0</asrwt>
<pdfrwt beam="1">  1        2 0.14566502E+00 0.65676154E+03</pdfrwt>
<pdfrwt beam="2">  1       -2 0.95259031E-01 0.65676154E+03</pdfrwt>
<totfact> 0.25912849E+01</totfact>
</mgrwt>
</event>
<event>
 4    1  0.7344859E-008  0.9193556E+03  0.7818608E-02  0.9401704E-01
         -2   -1    0    0    0  501 -0.00000000000E+00  0.00000000000E+00  0.18274912023E+04  0.18274912023E+04  0.25500000000E-02 0.  1.
          2   -1    0    0  501    0  0.00000000000E+00 -0.00000000000E+00 -0.10949348579E+04  0.10949348580E+04  0.25500000000E-02 0. -1.
    8880022    1    1    2    0    0 -0.60284127611E+03  0.67705646810E+03  0.14768004822E+04  0.17395845431E+04  0.15294330000E+03 0.  0.
    8880022    1    1    2    0    0  0.60284127611E+03 -0.67705646810E+03 -0.74424413783E+03  0.11828415172E+04  0.15294330000E+03 0.  0.
<mgrwt>
<rscale>  0 0.91935560E+03</rscale>
<asrwt>0</asrwt>
<pdfrwt beam="1">  1        2 0.16845152E+00 0.91935560E+03</pdfrwt>
<pdfrwt beam="2">  1       -2 0.28115249E+00 0.91935560E+03</pdfrwt>
<totfact> 0.92110341E-01</totfact>
</mgrwt>
</event>
<event>
 4    1  0.4639964E-008  0.7321999E+03  0.7818608E-02  0.9663697E-01
          2   -1    0    0  501    0  0.00000000000E+00  0.00000000000E+00  0.15666468613E+04  0.15666468613E+04  0.25500000000E-02 0. -1.
         -2   -1    0    0    0  501 -0.00000000000E+00 -0.00000000000E+00 -0.50913575269E+03  0.50913575270E+03  0.25500000000E-02 0.  1.
    8880022    1    1    2    0    0 -0.43336451967E+03 -0.57001769220E+03 -0.65538509938E+02  0.73512714929E+03  0.15294330000E+03 0.  0.
    8880022    1    1    2    0    0  0.43336451967E+03  0.57001769220E+03  0.11230496186E+04  0.13406554647E+04  0.15294330000E+03 0.  0.
<mgrwt>
<rscale>  0 0.73219986E+03</rscale>
<asrwt>0</asrwt>
<pdfrwt beam="1">  1        2 0.24102259E+00 0.73219986E+03</pdfrwt>
<pdfrwt beam="2">  1       -2 0.78328579E-01 0.73219986E+03</pdfrwt>
<totfact> 0.17342849E+01</totfact>
</mgrwt>
</event>
<event>
 4    1  0.4639964E-008  0.8103888E+03  0.7818608E-02  0.9545100E-01
         -2   -1    0    0    0  501 -0.00000000000E+00  0.00000000000E+00  0.36696149644E+03  0.36696149645E+03  0.25500000000E-02 0.  1.
          2   -1    0    0  501    0  0.00000000000E+00 -0.00000000000E+00 -0.26863332642E+04  0.26863332642E+04  0.25500000000E-02 0. -1.
    8880022    1    1    2    0    0  0.79578916009E+03  0.76187161635E+01 -0.27766267835E+03  0.85663682393E+03  0.15294330000E+03 0.  0.
    8880022    1    1    2    0    0 -0.79578916009E+03 -0.76187161635E+01 -0.20417090894E+04  0.21966579367E+04  0.15294330000E+03 0.  0.
<mgrwt>
<rscale>  0 0.81038885E+03</rscale>
<asrwt>0</asrwt>
<pdfrwt beam="1">  1        2 0.41328203E+00 0.81038885E+03</pdfrwt>
<pdfrwt beam="2">  1       -2 0.56455617E-01 0.81038885E+03</pdfrwt>
<totfact> 0.83149968E+00</totfact>
</mgrwt>
</event>
<event>
 4    1  0.4639964E-008  0.1553322E+03  0.7818608E-02  0.1194070E+00
          2   -1    0    0  501    0  0.00000000000E+00  0.00000000000E+00  0.14333735378E+04  0.14333735378E+04  0.25500000000E-02 0. -1.
         -2   -1    0    0    0  501 -0.00000000000E+00 -0.00000000000E+00 -0.10649616273E+03  0.10649616276E+03  0.25500000000E-02 0.  1.
    8880022    1    1    2    0    0 -0.16575613658E+02 -0.21486824178E+02  0.13699088721E+04  0.13786872036E+04  0.15294330000E+03 0.  0.
    8880022    1    1    2    0    0  0.16575613658E+02  0.21486824178E+02 -0.43031496992E+02  0.16118249697E+03  0.15294330000E+03 0.  1.
<mgrwt>
<rscale>  0 0.15533218E+03</rscale>
<asrwt>0</asrwt>
<pdfrwt beam="1">  1        2 0.22051900E+00 0.15533218E+03</pdfrwt>
<pdfrwt beam="2">  1       -2 0.16384025E-01 0.15533218E+03</pdfrwt>
<totfact> 0.44879908E+02</totfact>
</mgrwt>
</event>
<event>
 4    1  0.4639964E-008  0.4369696E+03  0.7818608E-02  0.1031681E+00
          2   -1    0    0  501    0  0.00000000000E+00  0.00000000000E+00  0.10293777772E+04  0.10293777772E+04  0.25500000000E-02 0. -1.
         -2   -1    0    0    0  501 -0.00000000000E+00 -0.00000000000E+00 -0.38881736332E+03  0.38881736332E+03  0.25500000000E-02 0.  1.
    8880022    1    1    2    0    0  0.18144020434E+03  0.36691992075E+03 -0.19249595007E+03  0.47749043949E+03  0.15294330000E+03 0.  0.
    8880022    1    1    2    0    0 -0.18144020434E+03 -0.36691992075E+03  0.83305636392E+03  0.94070470099E+03  0.15294330000E+03 0.  0.
<mgrwt>
<rscale>  0 0.43696960E+03</rscale>
<asrwt>0</asrwt>
<pdfrwt beam="1">  1        2 0.15836581E+00 0.43696960E+03</pdfrwt>
<pdfrwt beam="2">  1       -2 0.59818055E-01 0.43696960E+03</pdfrwt>
<totfact> 0.66020681E+01</totfact>
</mgrwt>
</event>
<event>
 4    1  0.4639964E-008  0.8028524E+03  0.7818608E-02  0.9555898E-01
          2   -1    0    0  501    0  0.00000000000E+00  0.00000000000E+00  0.12827968689E+04  0.12827968689E+04  0.25500000000E-02 0. -1.
         -2   -1    0    0    0  501 -0.00000000000E+00 -0.00000000000E+00 -0.95952179423E+03  0.95952179423E+03  0.25500000000E-02 0.  1.
    8880022    1    1    2    0    0  0.78196476961E+03  0.98546245544E+02 -0.61214830824E+03  0.10096026286E+04  0.15294330000E+03 0.  0.
    8880022    1    1    2    0    0 -0.78196476961E+03 -0.98546245544E+02  0.93542338291E+03  0.12327160345E+04  0.15294330000E+03 0.  0.
<mgrwt>
<rscale>  0 0.80285236E+03</rscale>
<asrwt>0</asrwt>
<pdfrwt beam="1">  1        2 0.19735336E+00 0.80285236E+03</pdfrwt>
<pdfrwt beam="2">  1       -2 0.14761874E+00 0.80285236E+03</pdfrwt>
<totfact> 0.53683954E+00</totfact>
</mgrwt>
</event>
<event>
 4    1  0.4639964E-008  0.6585361E+03  0.7818608E-02  0.9790892E-01
          2   -1    0    0  501    0  0.00000000000E+00  0.00000000000E+00  0.16913855200E+04  0.16913855200E+04  0.25500000000E-02 0. -1.
         -2   -1    0    0    0  501 -0.00000000000E+00 -0.00000000000E+00 -0.50645986035E+03  0.50645986036E+03  0.25500000000E-02 0.  1.
    8880022    1    1    2    0    0 -0.32639989300E+02 -0.63969745462E+03 -0.17971500651E+03  0.68261800367E+03  0.15294330000E+03 0.  0.
    8880022    1    1    2    0    0  0.32639989300E+02  0.63969745462E+03  0.13646406661E+04  0.15152273767E+04  0.15294330000E+03 0.  0.
<mgrwt>
<rscale>  0 0.65853615E+03</rscale>
<asrwt>0</asrwt>
<pdfrwt beam="1">  1        2 0.26021316E+00 0.65853615E+03</pdfrwt>
<pdfrwt beam="2">  1       -2 0.77916901E-01 0.65853615E+03</pdfrwt>
<totfact> 0.15147939E+01</totfact>
</mgrwt>
</event>
<event>
 4    1  0.4639964E-008  0.4264351E+03  0.7818608E-02  0.1034992E+00
         -2   -1    0    0    0  501 -0.00000000000E+00  0.00000000000E+00  0.23316767497E+03  0.23316767498E+03  0.25500000000E-02 0.  1.
          2   -1    0    0  501    0  0.00000000000E+00 -0.00000000000E+00 -0.95062948337E+03  0.95062948337E+03  0.25500000000E-02 0. -1.
    8880022    1    1    2    0    0 -0.86591280769E+02 -0.38853214375E+03 -0.60957210243E+03  0.74392545172E+03  0.15294330000E+03 0.  0.
    8880022    1    1    2    0    0  0.86591280769E+02  0.38853214375E+03 -0.10788970597E+03  0.43987170664E+03  0.15294330000E+03 0.  0.
<mgrwt>
<rscale>  0 0.42643514E+03</rscale>
<asrwt>0</asrwt>
<pdfrwt beam="1">  1        2 0.14625069E+00 0.42643514E+03</pdfrwt>
<pdfrwt beam="2">  1       -2 0.35871950E-01 0.42643514E+03</pdfrwt>
<totfact> 0.20497972E+02</totfact>
</mgrwt>
</event>
<event>
 4    1  0.4639964E-008  0.4583107E+03  0.7818608E-02  0.1025272E+00
          2   -1    0    0  501    0  0.00000000000E+00  0.00000000000E+00  0.19809572120E+04  0.19809572120E+04  0.25500000000E-02 0. -1.
         -2   -1    0    0    0  501 -0.00000000000E+00 -0.00000000000E+00 -0.19296093633E+03  0.19296093634E+03  0.25500000000E-02 0.  1.
    8880022    1    1    2    0    0 -0.54087274673E+02  0.42863926904E+03  0.16444687052E+03  0.48692040672E+03  0.15294330000E+03 0.  0.
    8880022    1    1    2    0    0  0.54087274673E+02 -0.42863926904E+03  0.16235494052E+04  0.16869977416E+04  0.15294330000E+03 0.  0.
<mgrwt>
<rscale>  0 0.45831071E+03</rscale>
<asrwt>0</asrwt>
<pdfrwt beam="1">  1        2 0.30476266E+00 0.45831071E+03</pdfrwt>
<pdfrwt beam="2">  1       -2 0.29686297E-01 0.45831071E+03</pdfrwt>
<totfact> 0.76630606E+01</totfact>
</mgrwt>
</event>
<event>
 4    1  0.4639964E-008  0.3616159E+03  0.7818608E-02  0.1057946E+00
          2   -1    0    0  501    0  0.00000000000E+00  0.00000000000E+00  0.55561792328E+03  0.55561792329E+03  0.25500000000E-02 0. -1.
         -2   -1    0    0    0  501 -0.00000000000E+00 -0.00000000000E+00 -0.59632031761E+03  0.59632031762E+03  0.25500000000E-02 0.  1.
    8880022    1    1    2    0    0  0.24704608803E+03 -0.21527332690E+03 -0.46847053059E+03  0.59180289449E+03  0.15294330000E+03 0.  0.
    8880022    1    1    2    0    0 -0.24704608803E+03  0.21527332690E+03  0.42776813626E+03  0.56013534641E+03  0.15294330000E+03 0. -1.
<mgrwt>
<rscale>  0 0.36161586E+03</rscale>
<asrwt>0</asrwt>
<pdfrwt beam="1">  1        2 0.85479680E-01 0.36161586E+03</pdfrwt>
<pdfrwt beam="2">  1       -2 0.91741588E-01 0.36161586E+03</pdfrwt>
<totfact> 0.57684155E+01</totfact>
</mgrwt>
</event>
<event>
 4    1  0.4639964E-008  0.7590676E+03  0.7818608E-02  0.9621231E-01
         -2   -1    0    0    0  501 -0.00000000000E+00  0.00000000000E+00  0.64703569148E+03  0.64703569149E+03  0.25500000000E-02 0.  1.
          2   -1    0    0  501    0  0.00000000000E+00 -0.00000000000E+00 -0.14931140116E+04  0.14931140116E+04  0.25500000000E-02 0. -1.
    8880022    1    1    2    0    0  0.36852261366E+03  0.64574228681E+03 -0.11028501525E+04  0.13388286409E+04  0.15294330000E+03 0.  0.
    8880022    1    1    2    0    0 -0.36852261366E+03 -0.64574228681E+03  0.25677183242E+03  0.80132106218E+03  0.15294330000E+03 0.  0.
<mgrwt>
<rscale>  0 0.75906763E+03</rscale>
<asrwt>0</asrwt>
<pdfrwt beam="1">  1        2 0.22970985E+00 0.75906763E+03</pdfrwt>
<pdfrwt beam="2">  1       -2 0.99543953E-01 0.75906763E+03</pdfrwt>
<totfact> 0.10943241E+01</totfact>
</mgrwt>
</event>
<event>
 4    1  0.4639964E-008  0.2786687E+03  0.7818608E-02  0.1096418E+00
         -2   -1    0    0    0  501 -0.00000000000E+00  0.00000000000E+00  0.23147989737E+03  0.23147989739E+03  0.25500000000E-02 0.  1.
          2   -1    0    0  501    0  0.00000000000E+00 -0.00000000000E+00 -0.15851815875E+04  0.15851815875E+04  0.25500000000E-02 0. -1.
    8880022    1    1    2    0    0 -0.12509863376E+03 -0.19650677717E+03  0.12965616335E+03  0.30735477115E+03  0.15294330000E+03 0.  0.
    8880022    1    1    2    0    0  0.12509863376E+03  0.19650677717E+03 -0.14833578534E+04  0.15093067137E+04  0.15294330000E+03 0. -1.
<mgrwt>
<rscale>  0 0.27866868E+03</rscale>
<asrwt>0</asrwt>
<pdfrwt beam="1">  1        2 0.24387408E+00 0.27866868E+03</pdfrwt>
<pdfrwt beam="2">  1       -2 0.35612293E-01 0.27866868E+03</pdfrwt>
<totfact> 0.92299157E+01</totfact>
</mgrwt>
</event>
<event>
 4    1  0.4667938E-008  0.5587438E+03  0.7818608E-02  0.9994901E-01
          2   -1    0    0  501    0  0.00000000000E+00  0.00000000000E+00  0.15005088193E+04  0.15005088193E+04  0.25500000000E-02 0. -1.
         -2   -1    0    0    0  501 -0.00000000000E+00 -0.00000000000E+00 -0.10007969198E+04  0.10007969198E+04  0.25500000000E-02 0.  1.
    8880022    1    1    2    0    0 -0.16897906734E+03 -0.51014606001E+03  0.13629415919E+04  0.14730255815E+04  0.15294330000E+03 0.  0.
    8880022    1    1    2    0    0  0.16897906734E+03  0.51014606001E+03 -0.86322969244E+03  0.10282801577E+04  0.15294330000E+03 0.  0.
<mgrwt>
<rscale>  0 0.55874375E+03</rscale>
<asrwt>0</asrwt>
<pdfrwt beam="1">  1        2 0.23084751E+00 0.55874375E+03</pdfrwt>
<pdfrwt beam="2">  1       -2 0.15396876E+00 0.55874375E+03</pdfrwt>
<totfact> 0.37711993E+00</totfact>
</mgrwt>
</event>
<event>
 4    1  0.4639964E-008  0.4805961E+03  0.7818608E-02  0.1018971E+00
         -2   -1    0    0    0  501 -0.00000000000E+00  0.00000000000E+00  0.52008753341E+03  0.52008753342E+03  0.25500000000E-02 0.  1.
          2   -1    0    0  501    0  0.00000000000E+00 -0.00000000000E+00 -0.73005034595E+03  0.73005034596E+03  0.25500000000E-02 0. -1.
    8880022    1    1    2    0    0  0.31132271840E+02 -0.45454560645E+03  0.28621453060E+03  0.55936690752E+03  0.15294330000E+03 0.  0.
    8880022    1    1    2    0    0 -0.31132271840E+02  0.45454560645E+03 -0.49617734314E+03  0.69077097185E+03  0.15294330000E+03 0.  0.
<mgrwt>
<rscale>  0 0.48059607E+03</rscale>
<asrwt>0</asrwt>
<pdfrwt beam="1">  1        2 0.11231544E+00 0.48059607E+03</pdfrwt>
<pdfrwt beam="2">  1       -2 0.80013467E-01 0.48059607E+03</pdfrwt>
<totfact> 0.55719566E+01</totfact>
</mgrwt>
</event>
<event>
 4    1  0.4639964E-008  0.2291295E+03  0.7818608E-02  0.1127254E+00
          2   -1    0    0  501    0  0.00000000000E+00  0.00000000000E+00  0.10550650295E+04  0.10550650295E+04  0.25500000000E-02 0. -1.
         -2   -1    0    0    0  501 -0.00000000000E+00 -0.00000000000E+00 -0.19999228251E+03  0.19999228252E+03  0.25500000000E-02 0.  1.
    8880022    1    1    2    0    0 -0.22469066438E+02 -0.16912664698E+03 -0.11634998670E+03  0.25697792529E+03  0.15294330000E+03 0.  0.
    8880022    1    1    2    0    0  0.22469066438E+02  0.16912664698E+03  0.97142273366E+03  0.99807938670E+03  0.15294330000E+03 0.  0.
<mgrwt>
<rscale>  0 0.22912952E+03</rscale>
<asrwt>0</asrwt>
<pdfrwt beam="1">  1        2 0.16231770E+00 0.22912952E+03</pdfrwt>
<pdfrwt beam="2">  1       -2 0.30768043E-01 0.22912952E+03</pdfrwt>
<totfact> 0.24097549E+02</totfact>
</mgrwt>
</event>
<event>
 4    1  0.4639964E-008  0.1052599E+04  0.7818608E-02  0.9252665E-01
         -2   -1    0    0    0  501 -0.00000000000E+00  0.00000000000E+00  0.10108675652E+04  0.10108675652E+04  0.25500000000E-02 0.  1.
          2   -1    0    0  501    0  0.00000000000E+00 -0.00000000000E+00 -0.15159092103E+04  0.15159092103E+04  0.25500000000E-02 0. -1.
    8880022    1    1    2    0    0 -0.48087052766E+03  0.92376181986E+03  0.41237068461E+03  0.11304926354E+04  0.15294330000E+03 0.  0.
    8880022    1    1    2    0    0  0.48087052766E+03 -0.92376181986E+03 -0.91741232965E+03  0.13962841401E+04  0.15294330000E+03 0.  0.
<mgrwt>
<rscale>  0 0.10525987E+04</rscale>
<asrwt>0</asrwt>
<pdfrwt beam="1">  1        2 0.23321680E+00 0.10525987E+04</pdfrwt>
<pdfrwt beam="2">  1       -2 0.15551809E+00 0.10525987E+04</pdfrwt>
<totfact> 0.33378147E+00</totfact>
</mgrwt>
</event>
<event>
 4    1  0.4639964E-008  0.6942486E+03  0.7818608E-02  0.9727119E-01
         -2   -1    0    0    0  501 -0.00000000000E+00  0.00000000000E+00  0.67166240663E+03  0.67166240663E+03  0.25500000000E-02 0.  1.
          2   -1    0    0  501    0  0.00000000000E+00 -0.00000000000E+00 -0.18762466638E+04  0.18762466638E+04  0.25500000000E-02 0. -1.
    8880022    1    1    2    0    0 -0.66036769939E+02 -0.67396487488E+03 -0.16034107183E+04  0.17472570195E+04  0.15294330000E+03 0.  0.
    8880022    1    1    2    0    0  0.66036769939E+02  0.67396487488E+03  0.39882646114E+03  0.80065205094E+03  0.15294330000E+03 0.  0.
<mgrwt>
<rscale>  0 0.69424863E+03</rscale>
<asrwt>0</asrwt>
<pdfrwt beam="1">  1        2 0.28865333E+00 0.69424863E+03</pdfrwt>
<pdfrwt beam="2">  1       -2 0.10333268E+00 0.69424863E+03</pdfrwt>
<totfact> 0.62327855E+00</totfact>
</mgrwt>
</event>
<event>
 4    1  0.4639964E-008  0.5104314E+03  0.7818608E-02  0.1011091E+00
         -2   -1    0    0    0  501 -0.00000000000E+00  0.00000000000E+00  0.20565523428E+03  0.20565523429E+03  0.25500000000E-02 0.  1.
          2   -1    0    0  501    0  0.00000000000E+00 -0.00000000000E+00 -0.19762413780E+04  0.19762413780E+04  0.25500000000E-02 0. -1.
    8880022    1    1    2    0    0  0.76747056654E+02 -0.48089339374E+03 -0.15389025924E+04  0.16213455551E+04  0.15294330000E+03 0.  0.
    8880022    1    1    2    0    0 -0.76747056654E+02  0.48089339374E+03 -0.23168355132E+03  0.56055105728E+03  0.15294330000E+03 0.  1.
<mgrwt>
<rscale>  0 0.51043141E+03</rscale>
<asrwt>0</asrwt>
<pdfrwt beam="1">  1        2 0.30403712E+00 0.51043141E+03</pdfrwt>
<pdfrwt beam="2">  1       -2 0.31639268E-01 0.51043141E+03</pdfrwt>
<totfact> 0.67887939E+01</totfact>
</mgrwt>
</event>
<event>
 4    1  0.4639964E-008  0.3492239E+03  0.7818608E-02  0.1062934E+00
          2   -1    0    0  501    0  0.00000000000E+00  0.00000000000E+00  0.66724679092E+03  0.66724679093E+03  0.25500000000E-02 0. -1.
         -2   -1    0    0    0  501 -0.00000000000E+00 -0.00000000000E+00 -0.89901383729E+03  0.89901383729E+03  0.25500000000E-02 0.  1.
    8880022    1    1    2    0    0  0.19454310230E+02 -0.31334838263E+03  0.58311971848E+03  0.67969547460E+03  0.15294330000E+03 0.  0.
    8880022    1    1    2    0    0 -0.19454310230E+02  0.31334838263E+03 -0.81488676485E+03  0.88656515363E+03  0.15294330000E+03 0.  0.
<mgrwt>
<rscale>  0 0.34922390E+03</rscale>
<asrwt>0</asrwt>
<pdfrwt beam="1">  1        2 0.10265335E+00 0.34922390E+03</pdfrwt>
<pdfrwt beam="2">  1       -2 0.13830982E+00 0.34922390E+03</pdfrwt>
<totfact> 0.17298189E+01</totfact>
</mgrwt>
</event>
<event>
 4    1  0.4639964E-008  0.4590801E+03  0.7818608E-02  0.1025048E+00
          2   -1    0    0  501    0  0.00000000000E+00  0.00000000000E+00  0.21895595014E+04  0.21895595014E+04  0.25500000000E-02 0. -1.
         -2   -1    0    0    0  501 -0.00000000000E+00 -0.00000000000E+00 -0.42138038188E+03  0.42138038189E+03  0.25500000000E-02 0.  1.
    8880022    1    1    2    0    0  0.38899419056E+03  0.18985880021E+03 -0.26262580518E+03  0.52889205976E+03  0.15294330000E+03 0.  0.
    8880022    1    1    2    0    0 -0.38899419056E+03 -0.18985880021E+03  0.20308049247E+04  0.20820478235E+04  0.15294330000E+03 0.  0.
<mgrwt>
<rscale>  0 0.45908006E+03</rscale>
<asrwt>0</asrwt>
<pdfrwt beam="1">  1        2 0.33685531E+00 0.45908006E+03</pdfrwt>
<pdfrwt beam="2">  1       -2 0.64827751E-01 0.45908006E+03</pdfrwt>
<totfact> 0.12655824E+01</totfact>
</mgrwt>
</event>
<event>
 4    1  0.4639964E-008  0.2663143E+03  0.7818608E-02  0.1103408E+00
         -2   -1    0    0    0  501 -0.00000000000E+00  0.00000000000E+00  0.11278377328E+03  0.11278377331E+03  0.25500000000E-02 0.  1.
          2   -1    0    0  501    0  0.00000000000E+00 -0.00000000000E+00 -0.15314748647E+04  0.15314748647E+04  0.25500000000E-02 0. -1.
    8880022    1    1    2    0    0  0.54389927431E+02  0.21112409410E+03 -0.13405070468E+04  0.13667049582E+04  0.15294330000E+03 0.  0.
    8880022    1    1    2    0    0 -0.54389927431E+02 -0.21112409410E+03 -0.78184044615E+02  0.27755367978E+03  0.15294330000E+03 0.  1.
<mgrwt>
<rscale>  0 0.26631429E+03</rscale>
<asrwt>0</asrwt>
<pdfrwt beam="1">  1        2 0.23561150E+00 0.26631429E+03</pdfrwt>
<pdfrwt beam="2">  1       -2 0.17351351E-01 0.26631429E+03</pdfrwt>
<totfact> 0.35406603E+02</totfact>
</mgrwt>
</event>
<event>
 4    1  0.4639964E-008  0.7779381E+03  0.7818608E-02  0.9592511E-01
         -2   -1    0    0    0  501 -0.00000000000E+00  0.00000000000E+00  0.24788644670E+03  0.24788644672E+03  0.25500000000E-02 0.  1.
          2   -1    0    0  501    0  0.00000000000E+00 -0.00000000000E+00 -0.25323706944E+04  0.25323706944E+04  0.25500000000E-02 0. -1.
    8880022    1    1    2    0    0  0.17513566756E+03  0.74237695876E+03 -0.14057319880E+04  0.16066331648E+04  0.15294330000E+03 0.  1.
    8880022    1    1    2    0    0 -0.17513566756E+03 -0.74237695876E+03 -0.87875225961E+03  0.11736239763E+04  0.15294330000E+03 0. -1.
<mgrwt>
<rscale>  0 0.77793811E+03</rscale>
<asrwt>0</asrwt>
<pdfrwt beam="1">  1        2 0.38959547E+00 0.77793811E+03</pdfrwt>
<pdfrwt beam="2">  1       -2 0.38136378E-01 0.77793811E+03</pdfrwt>
<totfact> 0.22539395E+01</totfact>
</mgrwt>
</event>
<event>
 4    1  0.4639964E-008  0.6884652E+03  0.7818608E-02  0.9737164E-01
          2   -1    0    0  501    0  0.00000000000E+00  0.00000000000E+00  0.17842476423E+04  0.17842476423E+04  0.25500000000E-02 0. -1.
         -2   -1    0    0    0  501 -0.00000000000E+00 -0.00000000000E+00 -0.41815280657E+03  0.41815280657E+03  0.25500000000E-02 0.  1.
    8880022    1    1    2    0    0 -0.25185230749E+03  0.62222432063E+03  0.13480732784E+04  0.15136994110E+04  0.15294330000E+03 0.  0.
    8880022    1    1    2    0    0  0.25185230749E+03 -0.62222432063E+03  0.18021557326E+02  0.68870103784E+03  0.15294330000E+03 0.  0.
<mgrwt>
<rscale>  0 0.68846521E+03</rscale>
<asrwt>0</asrwt>
<pdfrwt beam="1">  1        2 0.27449963E+00 0.68846521E+03</pdfrwt>
<pdfrwt beam="2">  1       -2 0.64331203E-01 0.68846521E+03</pdfrwt>
<totfact> 0.20403311E+01</totfact>
</mgrwt>
</event>
<event>
 4    1  0.4639964E-008  0.7857868E+03  0.7818608E-02  0.9580821E-01
          2   -1    0    0  501    0  0.00000000000E+00  0.00000000000E+00  0.20135208669E+04  0.20135208669E+04  0.25500000000E-02 0. -1.
         -2   -1    0    0    0  501 -0.00000000000E+00 -0.00000000000E+00 -0.61799123587E+03  0.61799123587E+03  0.25500000000E-02 0.  1.
    8880022    1    1    2    0    0  0.25030525300E+03  0.72898325324E+03 -0.23612882937E+03  0.82049849498E+03  0.15294330000E+03 0.  0.
    8880022    1    1    2    0    0 -0.25030525300E+03 -0.72898325324E+03  0.16316584604E+04  0.18110136078E+04  0.15294330000E+03 0.  0.
<mgrwt>
<rscale>  0 0.78578684E+03</rscale>
<asrwt>0</asrwt>
<pdfrwt beam="1">  1        2 0.30977244E+00 0.78578684E+03</pdfrwt>
<pdfrwt beam="2">  1       -2 0.95075575E-01 0.78578684E+03</pdfrwt>
<totfact> 0.62943483E+00</totfact>
</mgrwt>
</event>
<event>
 4    1  0.4639964E-008  0.4623292E+03  0.7818608E-02  0.1024108E+00
          2   -1    0    0  501    0  0.00000000000E+00  0.00000000000E+00  0.18682959146E+04  0.18682959146E+04  0.25500000000E-02 0. -1.
         -2   -1    0    0    0  501 -0.00000000000E+00 -0.00000000000E+00 -0.35941296695E+03  0.35941296696E+03  0.25500000000E-02 0.  1.
    8880022    1    1    2    0    0 -0.29243719289E+03 -0.32378565064E+03 -0.16520067097E+03  0.49095781290E+03  0.15294330000E+03 0.  0.
    8880022    1    1    2    0    0  0.29243719289E+03  0.32378565064E+03  0.16740836186E+04  0.17367510686E+04  0.15294330000E+03 0.  0.
<mgrwt>
<rscale>  0 0.46232923E+03</rscale>
<asrwt>0</asrwt>
<pdfrwt beam="1">  1        2 0.28743014E+00 0.46232923E+03</pdfrwt>
<pdfrwt beam="2">  1       -2 0.55294303E-01 0.46232923E+03</pdfrwt>
<totfact> 0.26275990E+01</totfact>
</mgrwt>
</event>
<event>
 4    1  0.4639964E-008  0.7227667E+03  0.7818608E-02  0.9679071E-01
         -2   -1    0    0    0  501 -0.00000000000E+00  0.00000000000E+00  0.85748177190E+03  0.85748177191E+03  0.25500000000E-02 0.  1.
          2   -1    0    0  501    0  0.00000000000E+00 -0.00000000000E+00 -0.83012570042E+03  0.83012570042E+03  0.25500000000E-02 0. -1.
    8880022    1    1    2    0    0  0.43845991875E+03  0.55385279871E+03 -0.42161010764E+03  0.83674772713E+03  0.15294330000E+03 0.  0.
    8880022    1    1    2    0    0 -0.43845991875E+03 -0.55385279871E+03  0.44896617912E+03  0.85085974520E+03  0.15294330000E+03 0.  0.
<mgrwt>
<rscale>  0 0.72276668E+03</rscale>
<asrwt>0</asrwt>
<pdfrwt beam="1">  1        2 0.12771165E+00 0.72276668E+03</pdfrwt>
<pdfrwt beam="2">  1       -2 0.13192027E+00 0.72276668E+03</pdfrwt>
<totfact> 0.13967716E+01</totfact>
</mgrwt>
</event>
<event>
 4    1  0.4639964E-008  0.7276161E+03  0.7818608E-02  0.9671137E-01
          2   -1    0    0  501    0  0.00000000000E+00  0.00000000000E+00  0.22098928255E+04  0.22098928255E+04  0.25500000000E-02 0. -1.
         -2   -1    0    0    0  501 -0.00000000000E+00 -0.00000000000E+00 -0.63274470658E+03  0.63274470658E+03  0.25500000000E-02 0.  1.
    8880022    1    1    2    0    0  0.71053678549E+03  0.34220405898E+02 -0.33181721656E+03  0.79970486927E+03  0.15294330000E+03 0.  0.
    8880022    1    1    2    0    0 -0.71053678549E+03 -0.34220405898E+02  0.19089653355E+04  0.20429326628E+04  0.15294330000E+03 0.  0.
<mgrwt>
<rscale>  0 0.72761612E+03</rscale>
<asrwt>0</asrwt>
<pdfrwt beam="1">  1        2 0.33998351E+00 0.72761612E+03</pdfrwt>
<pdfrwt beam="2">  1       -2 0.97345339E-01 0.72761612E+03</pdfrwt>
<totfact> 0.46918918E+00</totfact>
</mgrwt>
</event>
<event>
 4    1  0.4639964E-008  0.1189977E+04  0.7818608E-02  0.9121675E-01
         -2   -1    0    0    0  501 -0.00000000000E+00  0.00000000000E+00  0.20745277399E+04  0.20745277399E+04  0.25500000000E-02 0.  1.
          2   -1    0    0  501    0  0.00000000000E+00 -0.00000000000E+00 -0.75227141738E+03  0.75227141738E+03  0.25500000000E-02 0. -1.
    8880022    1    1    2    0    0 -0.11620385631E+04 -0.20571638757E+03  0.23095109370E+03  0.12121810570E+04  0.15294330000E+03 0.  0.
    8880022    1    1    2    0    0  0.11620385631E+04  0.20571638757E+03  0.10913052288E+04  0.16146181003E+04  0.15294330000E+03 0.  0.
<mgrwt>
<rscale>  0 0.11899767E+04</rscale>
<asrwt>0</asrwt>
<pdfrwt beam="1">  1        2 0.11573407E+00 0.11899767E+04</pdfrwt>
<pdfrwt beam="2">  1       -2 0.31915811E+00 0.11899767E+04</pdfrwt>
<totfact> 0.89089234E-01</totfact>
</mgrwt>
</event>
<event>
 4    1  0.4639964E-008  0.5437622E+03  0.7818608E-02  0.1002948E+00
         -2   -1    0    0    0  501 -0.00000000000E+00  0.00000000000E+00  0.72675188337E+03  0.72675188337E+03  0.25500000000E-02 0.  1.
          2   -1    0    0  501    0  0.00000000000E+00 -0.00000000000E+00 -0.13171159653E+04  0.13171159653E+04  0.25500000000E-02 0. -1.
    8880022    1    1    2    0    0 -0.12557314743E+03 -0.50647509626E+03 -0.11447449116E+04  0.12673271891E+04  0.15294330000E+03 0.  0.
    8880022    1    1    2    0    0  0.12557314743E+03  0.50647509626E+03  0.55438082976E+03  0.77654065953E+03  0.15294330000E+03 0.  1.
<mgrwt>
<rscale>  0 0.54376216E+03</rscale>
<asrwt>0</asrwt>
<pdfrwt beam="1">  1        2 0.20263323E+00 0.54376216E+03</pdfrwt>
<pdfrwt beam="2">  1       -2 0.11180798E+00 0.54376216E+03</pdfrwt>
<totfact> 0.10753780E+01</totfact>
</mgrwt>
</event>
<event>
 4    1  0.4639964E-008  0.8916453E+03  0.7818608E-02  0.9436086E-01
          2   -1    0    0  501    0  0.00000000000E+00  0.00000000000E+00  0.17240437005E+04  0.17240437005E+04  0.25500000000E-02 0. -1.
         -2   -1    0    0    0  501 -0.00000000000E+00 -0.00000000000E+00 -0.76757345965E+03  0.76757345966E+03  0.25500000000E-02 0.  1.
    8880022    1    1    2    0    0  0.12744577577E+03  0.86913591668E+03  0.12653843008E+04  0.15479756939E+04  0.15294330000E+03 0.  0.
    8880022    1    1    2    0    0 -0.12744577577E+03 -0.86913591668E+03 -0.30891405988E+03  0.94364146625E+03  0.15294330000E+03 0.  0.
<mgrwt>
<rscale>  0 0.89164529E+03</rscale>
<asrwt>0</asrwt>
<pdfrwt beam="1">  1        2 0.26523749E+00 0.89164529E+03</pdfrwt>
<pdfrwt beam="2">  1       -2 0.11808823E+00 0.89164529E+03</pdfrwt>
<totfact> 0.53031826E+00</totfact>
</mgrwt>
</event>
<event>
 4    1  0.4639964E-008  0.6202185E+03  0.7818608E-02  0.9864325E-01
          2   -1    0    0  501    0  0.00000000000E+00  0.00000000000E+00  0.22585833249E+04  0.22585833249E+04  0.25500000000E-02 0. -1.
         -2   -1    0    0    0  501 -0.00000000000E+00 -0.00000000000E+00 -0.27302102503E+03  0.27302102504E+03  0.25500000000E-02 0.  1.
    8880022    1    1    2    0    0 -0.30727268270E+03 -0.51658774052E+03  0.21641721953E+03  0.65689227512E+03  0.15294330000E+03 0.  0.
    8880022    1    1    2    0    0  0.30727268270E+03  0.51658774052E+03  0.17691450803E+04  0.18747120748E+04  0.15294330000E+03 0.  0.
<mgrwt>
<rscale>  0 0.62021855E+03</rscale>
<asrwt>0</asrwt>
<pdfrwt beam="1">  1        2 0.34747436E+00 0.62021855E+03</pdfrwt>
<pdfrwt beam="2">  1       -2 0.42003235E-01 0.62021855E+03</pdfrwt>
<totfact> 0.27237153E+01</totfact>
</mgrwt>
</event>
<event>
 4    1  0.4639964E-008  0.2417291E+03  0.7818608E-02  0.1118646E+00
          2   -1    0    0  501    0  0.00000000000E+00  0.00000000000E+00  0.10016437540E+04  0.10016437540E+04  0.25500000000E-02 0. -1.
         -2   -1    0    0    0  501 -0.00000000000E+00 -0.00000000000E+00 -0.10185483904E+03  0.10185483907E+03  0.25500000000E-02 0.  1.
    8880022    1    1    2    0    0  0.20974117025E+00 -0.18719305206E+03  0.89245736774E+02  0.25767758397E+03  0.15294330000E+03 0.  1.
    8880022    1    1    2    0    0 -0.20974117025E+00  0.18719305206E+03  0.81054317821E+03  0.84582100913E+03  0.15294330000E+03 0.  0.
<mgrwt>
<rscale>  0 0.24172905E+03</rscale>
<asrwt>0</asrwt>
<pdfrwt beam="1">  1        2 0.15409903E+00 0.24172905E+03</pdfrwt>
<pdfrwt beam="2">  1       -2 0.15669976E-01 0.24172905E+03</pdfrwt>
<totfact> 0.83700829E+02</totfact>
</mgrwt>
</event>
<event>
 4    1  0.4639964E-008  0.9458703E+03  0.7818608E-02  0.9369991E-01
         -2   -1    0    0    0  501 -0.00000000000E+00  0.00000000000E+00  0.57483177679E+03  0.57483177679E+03  0.25500000000E-02 0.  1.
          2   -1    0    0  501    0  0.00000000000E+00 -0.00000000000E+00 -0.18102108771E+04  0.18102108771E+04  0.25500000000E-02 0. -1.
    8880022    1    1    2    0    0 -0.93210429394E+03  0.49604710973E+02 -0.10642219099E+04  0.14238114232E+04  0.15294330000E+03 0.  0.
    8880022    1    1    2    0    0  0.93210429394E+03 -0.49604710973E+02 -0.17115719040E+03  0.96123123075E+03  0.15294330000E+03 0.  0.
<mgrwt>
<rscale>  0 0.94587034E+03</rscale>
<asrwt>0</asrwt>
<pdfrwt beam="1">  1        2 0.27849398E+00 0.94587034E+03</pdfrwt>
<pdfrwt beam="2">  1       -2 0.88435659E-01 0.94587034E+03</pdfrwt>
<totfact> 0.94209704E+00</totfact>
</mgrwt>
</event>
<event>
 4    1  0.4639964E-008  0.3445069E+03  0.7818608E-02  0.1064892E+00
         -2   -1    0    0    0  501 -0.00000000000E+00  0.00000000000E+00  0.39883534940E+03  0.39883534941E+03  0.25500000000E-02 0.  1.
          2   -1    0    0  501    0  0.00000000000E+00 -0.00000000000E+00 -0.39665707188E+03  0.39665707188E+03  0.25500000000E-02 0. -1.
    8880022    1    1    2    0    0 -0.27087240885E+03 -0.14805901099E+03 -0.19769761264E+03  0.39720187773E+03  0.15294330000E+03 0.  0.
    8880022    1    1    2    0    0  0.27087240885E+03  0.14805901099E+03  0.19987589016E+03  0.39829054357E+03  0.15294330000E+03 0.  0.
<mgrwt>
<rscale>  0 0.34450687E+03</rscale>
<asrwt>0</asrwt>
<pdfrwt beam="1">  1        2 0.61024165E-01 0.34450687E+03</pdfrwt>
<pdfrwt beam="2">  1       -2 0.61359285E-01 0.34450687E+03</pdfrwt>
<totfact> 0.20397439E+02</totfact>
</mgrwt>
</event>
<event>
 4    1  0.4639964E-008  0.1825453E+03  0.7818608E-02  0.1165362E+00
         -2   -1    0    0    0  501 -0.00000000000E+00  0.00000000000E+00  0.10647481513E+04  0.10647481513E+04  0.25500000000E-02 0.  1.
          2   -1    0    0  501    0  0.00000000000E+00 -0.00000000000E+00 -0.76227882312E+03  0.76227882313E+03  0.25500000000E-02 0. -1.
    8880022    1    1    2    0    0  0.87983616001E+02 -0.46797685494E+02 -0.74332950906E+03  0.76541593406E+03  0.15294330000E+03 0. -1.
    8880022    1    1    2    0    0 -0.87983616001E+02  0.46797685494E+02  0.10457988372E+04  0.10616110404E+04  0.15294330000E+03 0.  0.
<mgrwt>
<rscale>  0 0.18254532E+03</rscale>
<asrwt>0</asrwt>
<pdfrwt beam="1">  1        2 0.11727366E+00 0.18254532E+03</pdfrwt>
<pdfrwt beam="2">  1       -2 0.16380741E+00 0.18254532E+03</pdfrwt>
<totfact> 0.99774005E+00</totfact>
</mgrwt>
</event>
<event>
 4    1  0.4639964E-008  0.7265207E+03  0.7818608E-02  0.9672923E-01
         -2   -1    0    0    0  501 -0.00000000000E+00  0.00000000000E+00  0.16992521218E+04  0.16992521218E+04  0.25500000000E-02 0.  1.
          2   -1    0    0  501    0  0.00000000000E+00 -0.00000000000E+00 -0.54256765019E+03  0.54256765020E+03  0.25500000000E-02 0. -1.
    8880022    1    1    2    0    0  0.50043942889E+03 -0.50398520287E+03 -0.15453775355E+03  0.74277471483E+03  0.15294330000E+03 0.  0.
    8880022    1    1    2    0    0 -0.50043942889E+03  0.50398520287E+03  0.13112222252E+04  0.14990450572E+04  0.15294330000E+03 0.  0.
<mgrwt>
<rscale>  0 0.72652072E+03</rscale>
<asrwt>0</asrwt>
<pdfrwt beam="1">  1        2 0.83471946E-01 0.72652072E+03</pdfrwt>
<pdfrwt beam="2">  1       -2 0.26142340E+00 0.72652072E+03</pdfrwt>
<totfact> 0.31685588E+00</totfact>
</mgrwt>
</event>
<event>
 4    1  0.4639964E-008  0.1101110E+04  0.7818608E-02  0.9204110E-01
         -2   -1    0    0    0  501 -0.00000000000E+00  0.00000000000E+00  0.14332918070E+04  0.14332918070E+04  0.25500000000E-02 0.  1.
          2   -1    0    0  501    0  0.00000000000E+00 -0.00000000000E+00 -0.30219718516E+04  0.30219718516E+04  0.25500000000E-02 0. -1.
    8880022    1    1    2    0    0  0.67577262500E+03 -0.85579420235E+03 -0.26846510085E+04  0.29016883099E+04  0.15294330000E+03 0.  0.
    8880022    1    1    2    0    0 -0.67577262500E+03  0.85579420235E+03  0.10959709638E+04  0.15535753487E+04  0.15294330000E+03 0.  0.
<mgrwt>
<rscale>  0 0.11011104E+04</rscale>
<asrwt>0</asrwt>
<pdfrwt beam="1">  1        2 0.46491875E+00 0.11011104E+04</pdfrwt>
<pdfrwt beam="2">  1       -2 0.22050643E+00 0.11011104E+04</pdfrwt>
<totfact> 0.16554015E-01</totfact>
</mgrwt>
</event>
<event>
 4    1  0.4639964E-008  0.8321716E+03  0.7818608E-02  0.9514583E-01
          2   -1    0    0  501    0  0.00000000000E+00  0.00000000000E+00  0.20030578360E+04  0.20030578360E+04  0.25500000000E-02 0. -1.
         -2   -1    0    0    0  501 -0.00000000000E+00 -0.00000000000E+00 -0.50906581930E+03  0.50906581930E+03  0.25500000000E-02 0.  1.
    8880022    1    1    2    0    0  0.73384382735E+03 -0.36137393147E+03  0.35504298116E+02  0.83292862209E+03  0.15294330000E+03 0.  0.
    8880022    1    1    2    0    0 -0.73384382735E+03  0.36137393147E+03  0.14584877186E+04  0.16791950332E+04  0.15294330000E+03 0.  0.
<mgrwt>
<rscale>  0 0.83217158E+03</rscale>
<asrwt>0</asrwt>
<pdfrwt beam="1">  1        2 0.30816274E+00 0.83217158E+03</pdfrwt>
<pdfrwt beam="2">  1       -2 0.78317820E-01 0.83217158E+03</pdfrwt>
<totfact> 0.98740315E+00</totfact>
</mgrwt>
</event>
<event>
 4    1  0.4639964E-008  0.2295502E+03  0.7818608E-02  0.1126957E+00
         -2   -1    0    0    0  501 -0.00000000000E+00  0.00000000000E+00  0.35165581169E+02  0.35165581261E+02  0.25500000000E-02 0.  1.
          2   -1    0    0  501    0  0.00000000000E+00 -0.00000000000E+00 -0.18745606318E+04  0.18745606318E+04  0.25500000000E-02 0. -1.
    8880022    1    1    2    0    0  0.12549278020E+03 -0.11641831624E+03 -0.49197886181E+03  0.54289641344E+03  0.15294330000E+03 0.  0.
    8880022    1    1    2    0    0 -0.12549278020E+03  0.11641831624E+03 -0.13474161888E+04  0.13668297996E+04  0.15294330000E+03 0. -1.
<mgrwt>
<rscale>  0 0.22955025E+03</rscale>
<asrwt>0</asrwt>
<pdfrwt beam="1">  1        2 0.28839387E+00 0.22955025E+03</pdfrwt>
<pdfrwt beam="2">  1       -2 0.54100909E-02 0.22955025E+03</pdfrwt>
<totfact> 0.15057997E+03</totfact>
</mgrwt>
</event>
<event>
 4    1  0.5168906E-008  0.4583218E+03  0.7818608E-02  0.1025269E+00
          2   -1    0    0  501    0  0.00000000000E+00  0.00000000000E+00  0.35490550259E+04  0.35490550259E+04  0.25500000000E-02 0. -1.
         -2   -1    0    0    0  501 -0.00000000000E+00 -0.00000000000E+00 -0.83692310543E+03  0.83692310544E+03  0.25500000000E-02 0.  1.
    8880022    1    1    2    0    0  0.43041715039E+03 -0.37527007579E+02  0.34700891377E+04  0.35002253465E+04  0.15294330000E+03 0.  0.
    8880022    1    1    2    0    0 -0.43041715039E+03  0.37527007579E+02 -0.75795721725E+03  0.88575278483E+03  0.15294330000E+03 0.  1.
<mgrwt>
<rscale>  0 0.45832178E+03</rscale>
<asrwt>0</asrwt>
<pdfrwt beam="1">  1        2 0.54600847E+00 0.45832178E+03</pdfrwt>
<pdfrwt beam="2">  1       -2 0.12875740E+00 0.45832178E+03</pdfrwt>
<totfact> 0.40223913E-01</totfact>
</mgrwt>
</event>
<event>
 4    1  0.4639964E-008  0.3669881E+03  0.7818608E-02  0.1055851E+00
         -2   -1    0    0    0  501 -0.00000000000E+00  0.00000000000E+00  0.27493559615E+03  0.27493559617E+03  0.25500000000E-02 0.  1.
          2   -1    0    0  501    0  0.00000000000E+00 -0.00000000000E+00 -0.63329681092E+03  0.63329681092E+03  0.25500000000E-02 0. -1.
    8880022    1    1    2    0    0  0.18235804633E+03  0.27934591895E+03 -0.39529913439E+03  0.53939007978E+03  0.15294330000E+03 0. -1.
    8880022    1    1    2    0    0 -0.18235804633E+03 -0.27934591895E+03  0.36937919630E+02  0.36884232731E+03  0.15294330000E+03 0.  0.
<mgrwt>
<rscale>  0 0.36698808E+03</rscale>
<asrwt>0</asrwt>
<pdfrwt beam="1">  1        2 0.97430278E-01 0.36698808E+03</pdfrwt>
<pdfrwt beam="2">  1       -2 0.42297784E-01 0.36698808E+03</pdfrwt>
<totfact> 0.25329892E+02</totfact>
</mgrwt>
</event>
<event>
 4    1  0.4639964E-008  0.5159684E+03  0.7818608E-02  0.1009693E+00
          2   -1    0    0  501    0  0.00000000000E+00  0.00000000000E+00  0.30492469299E+04  0.30492469299E+04  0.25500000000E-02 0. -1.
         -2   -1    0    0    0  501 -0.00000000000E+00 -0.00000000000E+00 -0.85466673427E+03  0.85466673428E+03  0.25500000000E-02 0.  1.
    8880022    1    1    2    0    0 -0.48339116401E+03 -0.95732511273E+02  0.29468612957E+04  0.29916909733E+04  0.15294330000E+03 0.  0.
    8880022    1    1    2    0    0  0.48339116401E+03  0.95732511273E+02 -0.75228110004E+03  0.91222269082E+03  0.15294330000E+03 0.  0.
<mgrwt>
<rscale>  0 0.51596839E+03</rscale>
<asrwt>0</asrwt>
<pdfrwt beam="1">  1        2 0.46911491E+00 0.51596839E+03</pdfrwt>
<pdfrwt beam="2">  1       -2 0.13148719E+00 0.51596839E+03</pdfrwt>
<totfact> 0.78249089E-01</totfact>
</mgrwt>
</event>
<event>
 4    1  0.4763240E-008  0.1050867E+04  0.7818608E-02  0.9254450E-01
         -2   -1    0    0    0  501 -0.00000000000E+00  0.00000000000E+00  0.88896283277E+03  0.88896283277E+03  0.25500000000E-02 0.  1.
          2   -1    0    0  501    0  0.00000000000E+00 -0.00000000000E+00 -0.24578327705E+04  0.24578327705E+04  0.25500000000E-02 0. -1.
    8880022    1    1    2    0    0 -0.35369065640E+03 -0.97766675195E+03 -0.19612654370E+04  0.22250580050E+04  0.15294330000E+03 0.  0.
    8880022    1    1    2    0    0  0.35369065640E+03  0.97766675195E+03  0.39239549934E+03  0.11217375982E+04  0.15294330000E+03 0.  0.
<mgrwt>
<rscale>  0 0.10508668E+04</rscale>
<asrwt>0</asrwt>
<pdfrwt beam="1">  1        2 0.37812812E+00 0.10508668E+04</pdfrwt>
<pdfrwt beam="2">  1       -2 0.13676351E+00 0.10508668E+04</pdfrwt>
<totfact> 0.14022648E+00</totfact>
</mgrwt>
</event>
<event>
 4    1  0.4639964E-008  0.1060541E+04  0.7818608E-02  0.9244529E-01
         -2   -1    0    0    0  501 -0.00000000000E+00  0.00000000000E+00  0.67456130902E+03  0.67456130902E+03  0.25500000000E-02 0.  1.
          2   -1    0    0  501    0  0.00000000000E+00 -0.00000000000E+00 -0.25698922768E+04  0.25698922768E+04  0.25500000000E-02 0. -1.
    8880022    1    1    2    0    0 -0.72455221121E+03  0.75919611543E+03 -0.19090165259E+04  0.21838247177E+04  0.15294330000E+03 0.  0.
    8880022    1    1    2    0    0  0.72455221121E+03 -0.75919611543E+03  0.13685558089E+02  0.10606288682E+04  0.15294330000E+03 0.  0.
<mgrwt>
<rscale>  0 0.10605406E+04</rscale>
<asrwt>0</asrwt>
<pdfrwt beam="1">  1        2 0.39536804E+00 0.10605406E+04</pdfrwt>
<pdfrwt beam="2">  1       -2 0.10377866E+00 0.10605406E+04</pdfrwt>
<totfact> 0.23989522E+00</totfact>
</mgrwt>
</event>
<event>
 4    1  0.4639964E-008  0.7788766E+03  0.7818608E-02  0.9591106E-01
         -2   -1    0    0    0  501 -0.00000000000E+00  0.00000000000E+00  0.34049198697E+03  0.34049198698E+03  0.25500000000E-02 0.  1.
          2   -1    0    0  501    0  0.00000000000E+00 -0.00000000000E+00 -0.29133227618E+04  0.29133227618E+04  0.25500000000E-02 0. -1.
    8880022    1    1    2    0    0  0.58334399467E+03 -0.49291663843E+03 -0.27245104136E+03  0.82515347149E+03  0.15294330000E+03 0.  0.
    8880022    1    1    2    0    0 -0.58334399467E+03  0.49291663843E+03 -0.23003797335E+04  0.24286612773E+04  0.15294330000E+03 0.  0.
<mgrwt>
<rscale>  0 0.77887655E+03</rscale>
<asrwt>0</asrwt>
<pdfrwt beam="1">  1        2 0.44820348E+00 0.77887655E+03</pdfrwt>
<pdfrwt beam="2">  1       -2 0.52383385E-01 0.77887655E+03</pdfrwt>
<totfact> 0.71633218E+00</totfact>
</mgrwt>
</event>
<event>
 4    1  0.4639964E-008  0.4863250E+03  0.7818608E-02  0.1017411E+00
          2   -1    0    0  501    0  0.00000000000E+00  0.00000000000E+00  0.17592088019E+04  0.17592088019E+04  0.25500000000E-02 0. -1.
         -2   -1    0    0    0  501 -0.00000000000E+00 -0.00000000000E+00 -0.78695665200E+03  0.78695665200E+03  0.25500000000E-02 0.  1.
    8880022    1    1    2    0    0  0.46162177575E+03  0.50665195705E+01 -0.67312170207E+03  0.83042447717E+03  0.15294330000E+03 0.  0.
    8880022    1    1    2    0    0 -0.46162177575E+03 -0.50665195705E+01  0.16453738519E+04  0.17157409767E+04  0.15294330000E+03 0.  0.
<mgrwt>
<rscale>  0 0.48632498E+03</rscale>
<asrwt>0</asrwt>
<pdfrwt beam="1">  1        2 0.27064750E+00 0.48632498E+03</pdfrwt>
<pdfrwt beam="2">  1       -2 0.12107026E+00 0.48632498E+03</pdfrwt>
<totfact> 0.51266085E+00</totfact>
</mgrwt>
</event>
<event>
 4    1  0.4639964E-008  0.2640705E+03  0.7818608E-02  0.1104722E+00
         -2   -1    0    0    0  501 -0.00000000000E+00  0.00000000000E+00  0.26995045659E+03  0.26995045660E+03  0.25500000000E-02 0.  1.
          2   -1    0    0  501    0  0.00000000000E+00 -0.00000000000E+00 -0.10543516027E+04  0.10543516027E+04  0.25500000000E-02 0. -1.
    8880022    1    1    2    0    0 -0.68762454730E+01  0.21516107014E+03 -0.96754759089E+03  0.10029364698E+04  0.15294330000E+03 0.  0.
    8880022    1    1    2    0    0  0.68762454730E+01 -0.21516107014E+03  0.18314644477E+03  0.32136558948E+03  0.15294330000E+03 0.  0.
<mgrwt>
<rscale>  0 0.26407049E+03</rscale>
<asrwt>0</asrwt>
<pdfrwt beam="1">  1        2 0.16220794E+00 0.26407049E+03</pdfrwt>
<pdfrwt beam="2">  1       -2 0.41530840E-01 0.26407049E+03</pdfrwt>
<totfact> 0.13654342E+02</totfact>
</mgrwt>
</event>
<event>
 4    1  0.4639964E-008  0.3823073E+03  0.7818608E-02  0.1050084E+00
          2   -1    0    0  501    0  0.00000000000E+00  0.00000000000E+00  0.46052764454E+03  0.46052764455E+03  0.25500000000E-02 0. -1.
         -2   -1    0    0    0  501 -0.00000000000E+00 -0.00000000000E+00 -0.70974260066E+03  0.70974260067E+03  0.25500000000E-02 0.  1.
    8880022    1    1    2    0    0  0.34630907434E+03  0.53266029645E+02 -0.55967190809E+03  0.67778428914E+03  0.15294330000E+03 0.  0.
    8880022    1    1    2    0    0 -0.34630907434E+03 -0.53266029645E+02  0.31045695197E+03  0.49248595607E+03  0.15294330000E+03 0.  0.
<mgrwt>
<rscale>  0 0.38230733E+03</rscale>
<asrwt>0</asrwt>
<pdfrwt beam="1">  1        2 0.70850407E-01 0.38230733E+03</pdfrwt>
<pdfrwt beam="2">  1       -2 0.10919117E+00 0.38230733E+03</pdfrwt>
<totfact> 0.47377188E+01</totfact>
</mgrwt>
</event>
<event>
 4    1  0.4639964E-008  0.6423235E+03  0.7818608E-02  0.9821291E-01
         -2   -1    0    0    0  501 -0.00000000000E+00  0.00000000000E+00  0.75347107232E+03  0.75347107233E+03  0.25500000000E-02 0.  1.
          2   -1    0    0  501    0  0.00000000000E+00 -0.00000000000E+00 -0.11137705504E+04  0.11137705504E+04  0.25500000000E-02 0. -1.
    8880022    1    1    2    0    0  0.48552445115E+03  0.39173178011E+03 -0.84581692940E+03  0.10620667170E+04  0.15294330000E+03 0. -1.
    8880022    1    1    2    0    0 -0.48552445115E+03 -0.39173178011E+03  0.48551745137E+03  0.80517490572E+03  0.15294330000E+03 0.  0.
<mgrwt>
<rscale>  0 0.64232346E+03</rscale>
<asrwt>0</asrwt>
<pdfrwt beam="1">  1        2 0.17134932E+00 0.64232346E+03</pdfrwt>
<pdfrwt beam="2">  1       -2 0.11591863E+00 0.64232346E+03</pdfrwt>
<totfact> 0.12756423E+01</totfact>
</mgrwt>
</event>
<event>
 4    1  0.4639964E-008  0.7238270E+03  0.7818608E-02  0.9677331E-01
         -2   -1    0    0    0  501 -0.00000000000E+00  0.00000000000E+00  0.41381332885E+03  0.41381332886E+03  0.25500000000E-02 0.  1.
          2   -1    0    0  501    0  0.00000000000E+00 -0.00000000000E+00 -0.22872203505E+04  0.22872203505E+04  0.25500000000E-02 0. -1.
    8880022    1    1    2    0    0 -0.70508291943E+03  0.58240521803E+02 -0.18390768921E+04  0.19763930150E+04  0.15294330000E+03 0.  0.
    8880022    1    1    2    0    0  0.70508291943E+03 -0.58240521803E+02 -0.34330129559E+02  0.72464066437E+03  0.15294330000E+03 0.  0.
<mgrwt>
<rscale>  0 0.72382701E+03</rscale>
<asrwt>0</asrwt>
<pdfrwt beam="1">  1        2 0.35188005E+00 0.72382701E+03</pdfrwt>
<pdfrwt beam="2">  1       -2 0.63663590E-01 0.72382701E+03</pdfrwt>
<totfact> 0.11016846E+01</totfact>
</mgrwt>
</event>
<event>
 4    1  0.4639964E-008  0.6142510E+03  0.7818608E-02  0.9876273E-01
         -2   -1    0    0    0  501 -0.00000000000E+00  0.00000000000E+00  0.11481175300E+04  0.11481175300E+04  0.25500000000E-02 0.  1.
          2   -1    0    0  501    0  0.00000000000E+00 -0.00000000000E+00 -0.60293876344E+03  0.60293876344E+03  0.25500000000E-02 0. -1.
    8880022    1    1    2    0    0  0.59143272622E+03 -0.64187098972E+02  0.86313632476E+03  0.10593906841E+04  0.15294330000E+03 0.  0.
    8880022    1    1    2    0    0 -0.59143272622E+03  0.64187098972E+02 -0.31795755823E+03  0.69166560936E+03  0.15294330000E+03 0.  0.
<mgrwt>
<rscale>  0 0.61425101E+03</rscale>
<asrwt>0</asrwt>
<pdfrwt beam="1">  1        2 0.92759810E-01 0.61425101E+03</pdfrwt>
<pdfrwt beam="2">  1       -2 0.17663347E+00 0.61425101E+03</pdfrwt>
<totfact> 0.97529454E+00</totfact>
</mgrwt>
</event>
<event>
 4    1  0.4639964E-008  0.5629739E+03  0.7818608E-02  0.9985348E-01
         -2   -1    0    0    0  501 -0.00000000000E+00  0.00000000000E+00  0.51183059809E+03  0.51183059809E+03  0.25500000000E-02 0.  1.
          2   -1    0    0  501    0  0.00000000000E+00 -0.00000000000E+00 -0.20697718584E+04  0.20697718584E+04  0.25500000000E-02 0. -1.
    8880022    1    1    2    0    0  0.24576851095E+03  0.48285175922E+03  0.30162603404E+03  0.63868450723E+03  0.15294330000E+03 0.  0.
    8880022    1    1    2    0    0 -0.24576851095E+03 -0.48285175922E+03 -0.18595672944E+04  0.19429179493E+04  0.15294330000E+03 0.  0.
<mgrwt>
<rscale>  0 0.56297392E+03</rscale>
<asrwt>0</asrwt>
<pdfrwt beam="1">  1        2 0.31842644E+00 0.56297392E+03</pdfrwt>
<pdfrwt beam="2">  1       -2 0.78743170E-01 0.56297392E+03</pdfrwt>
<totfact> 0.93874184E+00</totfact>
</mgrwt>
</event>
<event>
 4    1  0.4639964E-008  0.4678267E+03  0.7818608E-02  0.1022535E+00
         -2   -1    0    0    0  501 -0.00000000000E+00  0.00000000000E+00  0.25067588082E+03  0.25067588083E+03  0.25500000000E-02 0.  1.
          2   -1    0    0  501    0  0.00000000000E+00 -0.00000000000E+00 -0.14149652239E+04  0.14149652239E+04  0.25500000000E-02 0. -1.
    8880022    1    1    2    0    0 -0.39422875118E+03 -0.20013456682E+03 -0.10975269427E+04  0.11930746817E+04  0.15294330000E+03 0.  0.
    8880022    1    1    2    0    0  0.39422875118E+03  0.20013456682E+03 -0.66762400393E+02  0.47256642307E+03  0.15294330000E+03 0.  1.
<mgrwt>
<rscale>  0 0.46782668E+03</rscale>
<asrwt>0</asrwt>
<pdfrwt beam="1">  1        2 0.21768695E+00 0.46782668E+03</pdfrwt>
<pdfrwt beam="2">  1       -2 0.38565521E-01 0.46782668E+03</pdfrwt>
<totfact> 0.94665628E+01</totfact>
</mgrwt>
</event>
<event>
 4    1  0.4639964E-008  0.7794384E+03  0.7818608E-02  0.9590266E-01
          2   -1    0    0  501    0  0.00000000000E+00  0.00000000000E+00  0.70558613951E+03  0.70558613952E+03  0.25500000000E-02 0. -1.
         -2   -1    0    0    0  501 -0.00000000000E+00 -0.00000000000E+00 -0.90294542531E+03  0.90294542531E+03  0.25500000000E-02 0.  1.
    8880022    1    1    2    0    0 -0.72954864680E+03  0.22779660384E+03 -0.27198208120E+03  0.82552917954E+03  0.15294330000E+03 0.  0.
    8880022    1    1    2    0    0  0.72954864680E+03 -0.22779660384E+03  0.74622795404E+02  0.78300238529E+03  0.15294330000E+03 0.  0.
<mgrwt>
<rscale>  0 0.77943837E+03</rscale>
<asrwt>0</asrwt>
<pdfrwt beam="1">  1        2 0.10855171E+00 0.77943837E+03</pdfrwt>
<pdfrwt beam="2">  1       -2 0.13891468E+00 0.77943837E+03</pdfrwt>
<totfact> 0.15038984E+01</totfact>
</mgrwt>
</event>
<event>
 4    1  0.4639964E-008  0.4238506E+03  0.7818608E-02  0.1035820E+00
          2   -1    0    0  501    0  0.00000000000E+00  0.00000000000E+00  0.31906957330E+04  0.31906957330E+04  0.25500000000E-02 0. -1.
         -2   -1    0    0    0  501 -0.00000000000E+00 -0.00000000000E+00 -0.56564731810E+02  0.56564731867E+02  0.25500000000E-02 0.  1.
    8880022    1    1    2    0    0 -0.39001923220E+03 -0.64363645748E+02  0.16772718572E+04  0.17299971723E+04  0.15294330000E+03 0.  1.
    8880022    1    1    2    0    0  0.39001923220E+03  0.64363645748E+02  0.14568591440E+04  0.15172632926E+04  0.15294330000E+03 0.  0.
<mgrwt>
<rscale>  0 0.42385060E+03</rscale>
<asrwt>0</asrwt>
<pdfrwt beam="1">  1        2 0.49087634E+00 0.42385060E+03</pdfrwt>
<pdfrwt beam="2">  1       -2 0.87022652E-02 0.42385060E+03</pdfrwt>
<totfact> 0.12691164E+02</totfact>
</mgrwt>
</event>
<event>
 4    1  0.4639964E-008  0.6615025E+03  0.7818608E-02  0.9785432E-01
          2   -1    0    0  501    0  0.00000000000E+00  0.00000000000E+00  0.11215406203E+04  0.11215406203E+04  0.25500000000E-02 0. -1.
         -2   -1    0    0    0  501 -0.00000000000E+00 -0.00000000000E+00 -0.78874903826E+03  0.78874903826E+03  0.25500000000E-02 0.  1.
    8880022    1    1    2    0    0  0.13815538532E+03  0.62857538084E+03  0.84538037829E+03  0.10734307415E+04  0.15294330000E+03 0.  0.
    8880022    1    1    2    0    0 -0.13815538532E+03 -0.62857538084E+03 -0.51258879627E+03  0.83685891700E+03  0.15294330000E+03 0.  0.
<mgrwt>
<rscale>  0 0.66150251E+03</rscale>
<asrwt>0</asrwt>
<pdfrwt beam="1">  1        2 0.17254471E+00 0.66150251E+03</pdfrwt>
<pdfrwt beam="2">  1       -2 0.12134601E+00 0.66150251E+03</pdfrwt>
<totfact> 0.11244456E+01</totfact>
</mgrwt>
</event>
<event>
 4    1  0.4639964E-008  0.6152386E+03  0.7818608E-02  0.9874286E-01
         -2   -1    0    0    0  501 -0.00000000000E+00  0.00000000000E+00  0.36903107062E+03  0.36903107063E+03  0.25500000000E-02 0.  1.
          2   -1    0    0  501    0  0.00000000000E+00 -0.00000000000E+00 -0.16093320234E+04  0.16093320234E+04  0.25500000000E-02 0. -1.
    8880022    1    1    2    0    0 -0.49701454009E+03  0.32879082473E+03 -0.24461771598E+02  0.61572468748E+03  0.15294330000E+03 0.  0.
    8880022    1    1    2    0    0  0.49701454009E+03 -0.32879082473E+03 -0.12158391812E+04  0.13626384066E+04  0.15294330000E+03 0.  0.
<mgrwt>
<rscale>  0 0.61523858E+03</rscale>
<asrwt>0</asrwt>
<pdfrwt beam="1">  1        2 0.24758954E+00 0.61523858E+03</pdfrwt>
<pdfrwt beam="2">  1       -2 0.56774012E-01 0.61523858E+03</pdfrwt>
<totfact> 0.33431405E+01</totfact>
</mgrwt>
</event>
<event>
 4    1  0.4639964E-008  0.8341762E+03  0.7818608E-02  0.9511825E-01
         -2   -1    0    0    0  501 -0.00000000000E+00  0.00000000000E+00  0.65307188795E+03  0.65307188795E+03  0.25500000000E-02 0.  1.
          2   -1    0    0  501    0  0.00000000000E+00 -0.00000000000E+00 -0.20525780934E+04  0.20525780934E+04  0.25500000000E-02 0. -1.
    8880022    1    1    2    0    0  0.80018266153E+03 -0.17934879911E+03  0.23838529010E+03  0.86756987218E+03  0.15294330000E+03 0.  0.
    8880022    1    1    2    0    0 -0.80018266153E+03  0.17934879911E+03 -0.16378914956E+04  0.18380801092E+04  0.15294330000E+03 0.  0.
<mgrwt>
<rscale>  0 0.83417620E+03</rscale>
<asrwt>0</asrwt>
<pdfrwt beam="1">  1        2 0.31578124E+00 0.83417620E+03</pdfrwt>
<pdfrwt beam="2">  1       -2 0.10047260E+00 0.83417620E+03</pdfrwt>
<totfact> 0.52224210E+00</totfact>
</mgrwt>
</event>
<event>
 4    1  0.4639964E-008  0.3781925E+03  0.7818608E-02  0.1051604E+00
         -2   -1    0    0    0  501 -0.00000000000E+00  0.00000000000E+00  0.68093458649E+03  0.68093458650E+03  0.25500000000E-02 0.  1.
          2   -1    0    0  501    0  0.00000000000E+00 -0.00000000000E+00 -0.18210991517E+04  0.18210991517E+04  0.25500000000E-02 0. -1.
    8880022    1    1    2    0    0 -0.32466750016E+03 -0.11928502256E+03 -0.17467420779E+04  0.17872149960E+04  0.15294330000E+03 0. -1.
    8880022    1    1    2    0    0  0.32466750016E+03  0.11928502256E+03  0.60657751269E+03  0.71481874218E+03  0.15294330000E+03 0.  0.
<mgrwt>
<rscale>  0 0.37819248E+03</rscale>
<asrwt>0</asrwt>
<pdfrwt beam="1">  1        2 0.28016910E+00 0.37819248E+03</pdfrwt>
<pdfrwt beam="2">  1       -2 0.10475917E+00 0.37819248E+03</pdfrwt>
<totfact> 0.69443740E+00</totfact>
</mgrwt>
</event>
<event>
 4    1  0.4639964E-008  0.1728177E+03  0.7818608E-02  0.1174941E+00
          2   -1    0    0  501    0  0.00000000000E+00  0.00000000000E+00  0.54551960210E+03  0.54551960210E+03  0.25500000000E-02 0. -1.
         -2   -1    0    0    0  501 -0.00000000000E+00 -0.00000000000E+00 -0.11264719954E+04  0.11264719954E+04  0.25500000000E-02 0.  1.
    8880022    1    1    2    0    0  0.80385904295E+02 -0.35232949154E+01  0.52495144084E+03  0.55266624239E+03  0.15294330000E+03 0. -1.
    8880022    1    1    2    0    0 -0.80385904295E+02  0.35232949154E+01 -0.11059038341E+04  0.11193253551E+04  0.15294330000E+03 0.  0.
<mgrwt>
<rscale>  0 0.17281771E+03</rscale>
<asrwt>0</asrwt>
<pdfrwt beam="1">  1        2 0.83926093E-01 0.17281771E+03</pdfrwt>
<pdfrwt beam="2">  1       -2 0.17330338E+00 0.17281771E+03</pdfrwt>
<totfact> 0.12769191E+01</totfact>
</mgrwt>
</event>
<event>
 4    1  0.4639964E-008  0.5558657E+03  0.7818608E-02  0.1000145E+00
          2   -1    0    0  501    0  0.00000000000E+00  0.00000000000E+00  0.15155354421E+04  0.15155354421E+04  0.25500000000E-02 0. -1.
         -2   -1    0    0    0  501 -0.00000000000E+00 -0.00000000000E+00 -0.52663548042E+03  0.52663548042E+03  0.25500000000E-02 0.  1.
    8880022    1    1    2    0    0 -0.47702336770E+03 -0.24092256040E+03  0.12938132270E+04  0.14081687728E+04  0.15294330000E+03 0.  0.
    8880022    1    1    2    0    0  0.47702336770E+03  0.24092256040E+03 -0.30491326530E+03  0.63400214970E+03  0.15294330000E+03 0.  0.
<mgrwt>
<rscale>  0 0.55586566E+03</rscale>
<asrwt>0</asrwt>
<pdfrwt beam="1">  1        2 0.23315930E+00 0.55586566E+03</pdfrwt>
<pdfrwt beam="2">  1       -2 0.81020844E-01 0.55586566E+03</pdfrwt>
<totfact> 0.17612850E+01</totfact>
</mgrwt>
</event>
<event>
 4    1  0.4639964E-008  0.1586476E+03  0.7818608E-02  0.1190232E+00
         -2   -1    0    0    0  501 -0.00000000000E+00  0.00000000000E+00  0.83536530353E+02  0.83536530391E+02  0.25500000000E-02 0.  1.
          2   -1    0    0  501    0  0.00000000000E+00 -0.00000000000E+00 -0.12041390796E+04  0.12041390796E+04  0.25500000000E-02 0. -1.
    8880022    1    1    2    0    0 -0.41565328518E+02 -0.70530325608E+01 -0.28014819592E+01  0.15867237667E+03  0.15294330000E+03 0.  1.
    8880022    1    1    2    0    0  0.41565328518E+02  0.70530325608E+01 -0.11178010673E+04  0.11290032333E+04  0.15294330000E+03 0.  0.
<mgrwt>
<rscale>  0 0.15864764E+03</rscale>
<asrwt>0</asrwt>
<pdfrwt beam="1">  1        2 0.18525215E+00 0.15864764E+03</pdfrwt>
<pdfrwt beam="2">  1       -2 0.12851775E-01 0.15864764E+03</pdfrwt>
<totfact> 0.88757338E+02</totfact>
</mgrwt>
</event>
<event>
 4    1  0.4639964E-008  0.3361227E+03  0.7818608E-02  0.1068459E+00
          2   -1    0    0  501    0  0.00000000000E+00  0.00000000000E+00  0.12513536886E+04  0.12513536886E+04  0.25500000000E-02 0. -1.
         -2   -1    0    0    0  501 -0.00000000000E+00 -0.00000000000E+00 -0.37882754625E+03  0.37882754626E+03  0.25500000000E-02 0.  1.
    8880022    1    1    2    0    0  0.92860000441E+02  0.28454145056E+03  0.11476240641E+04  0.11958342119E+04  0.15294330000E+03 0.  0.
    8880022    1    1    2    0    0 -0.92860000441E+02 -0.28454145056E+03 -0.27509792179E+03  0.43434702296E+03  0.15294330000E+03 0.  1.
<mgrwt>
<rscale>  0 0.33612270E+03</rscale>
<asrwt>0</asrwt>
<pdfrwt beam="1">  1        2 0.19251595E+00 0.33612270E+03</pdfrwt>
<pdfrwt beam="2">  1       -2 0.58281161E-01 0.33612270E+03</pdfrwt>
<totfact> 0.52472725E+01</totfact>
</mgrwt>
</event>
<event>
 4    1  0.4639964E-008  0.5094483E+03  0.7818608E-02  0.1011342E+00
         -2   -1    0    0    0  501 -0.00000000000E+00  0.00000000000E+00  0.82888251883E+03  0.82888251884E+03  0.25500000000E-02 0.  1.
          2   -1    0    0  501    0  0.00000000000E+00 -0.00000000000E+00 -0.40606803350E+03  0.40606803351E+03  0.25500000000E-02 0. -1.
    8880022    1    1    2    0    0  0.37258964686E+03  0.31196613723E+03 -0.84017091716E+02  0.51632977876E+03  0.15294330000E+03 0.  0.
    8880022    1    1    2    0    0 -0.37258964686E+03 -0.31196613723E+03  0.50683157705E+03  0.71862077359E+03  0.15294330000E+03 0.  0.
<mgrwt>
<rscale>  0 0.50944830E+03</rscale>
<asrwt>0</asrwt>
<pdfrwt beam="1">  1        2 0.62472005E-01 0.50944830E+03</pdfrwt>
<pdfrwt beam="2">  1       -2 0.12752039E+00 0.50944830E+03</pdfrwt>
<totfact> 0.36796146E+01</totfact>
</mgrwt>
</event>
<event>
 4    1  0.4639964E-008  0.5704945E+03  0.7818608E-02  0.9968585E-01
          2   -1    0    0  501    0  0.00000000000E+00  0.00000000000E+00  0.13928381301E+04  0.13928381301E+04  0.25500000000E-02 0. -1.
         -2   -1    0    0    0  501 -0.00000000000E+00 -0.00000000000E+00 -0.48917739578E+03  0.48917739579E+03  0.25500000000E-02 0.  1.
    8880022    1    1    2    0    0 -0.52210798907E+03  0.17168452488E+03  0.11319135903E+04  0.12675536901E+04  0.15294330000E+03 0.  0.
    8880022    1    1    2    0    0  0.52210798907E+03 -0.17168452488E+03 -0.22825285602E+03  0.61446183578E+03  0.15294330000E+03 0.  0.
<mgrwt>
<rscale>  0 0.57049451E+03</rscale>
<asrwt>0</asrwt>
<pdfrwt beam="1">  1        2 0.21428279E+00 0.57049451E+03</pdfrwt>
<pdfrwt beam="2">  1       -2 0.75258061E-01 0.57049451E+03</pdfrwt>
<totfact> 0.24225197E+01</totfact>
</mgrwt>
</event>
<event>
 4    1  0.4639964E-008  0.1348912E+04  0.7818608E-02  0.8991652E-01
          2   -1    0    0  501    0  0.00000000000E+00  0.00000000000E+00  0.18801263710E+04  0.18801263710E+04  0.25500000000E-02 0. -1.
         -2   -1    0    0    0  501 -0.00000000000E+00 -0.00000000000E+00 -0.17033218058E+04  0.17033218058E+04  0.25500000000E-02 0.  1.
    8880022    1    1    2    0    0 -0.71398196402E+03  0.11341966621E+04  0.12658023679E+04  0.18498160992E+04  0.15294330000E+03 0.  0.
    8880022    1    1    2    0    0  0.71398196402E+03 -0.11341966621E+04 -0.10889978026E+04  0.17336320776E+04  0.15294330000E+03 0.  0.
<mgrwt>
<rscale>  0 0.13489121E+04</rscale>
<asrwt>0</asrwt>
<pdfrwt beam="1">  1        2 0.28925021E+00 0.13489121E+04</pdfrwt>
<pdfrwt beam="2">  1       -2 0.26204951E+00 0.13489121E+04</pdfrwt>
<totfact> 0.40297599E-01</totfact>
</mgrwt>
</event>
<event>
 4    1  0.4639964E-008  0.7447755E+03  0.7818608E-02  0.9643583E-01
          2   -1    0    0  501    0  0.00000000000E+00  0.00000000000E+00  0.28785284763E+04  0.28785284763E+04  0.25500000000E-02 0. -1.
         -2   -1    0    0    0  501 -0.00000000000E+00 -0.00000000000E+00 -0.30755579459E+03  0.30755579460E+03  0.25500000000E-02 0.  1.
    8880022    1    1    2    0    0 -0.50718731030E+02  0.72713577146E+03  0.22590022466E+04  0.23786091782E+04  0.15294330000E+03 0. -1.
    8880022    1    1    2    0    0  0.50718731030E+02 -0.72713577146E+03  0.31197043511E+03  0.80747509263E+03  0.15294330000E+03 0.  0.
<mgrwt>
<rscale>  0 0.74477545E+03</rscale>
<asrwt>0</asrwt>
<pdfrwt beam="1">  1        2 0.44285054E+00 0.74477545E+03</pdfrwt>
<pdfrwt beam="2">  1       -2 0.47316276E-01 0.74477545E+03</pdfrwt>
<totfact> 0.93008756E+00</totfact>
</mgrwt>
</event>
<event>
 4    1  0.4639964E-008  0.8120117E+03  0.7818608E-02  0.9542792E-01
         -2   -1    0    0    0  501 -0.00000000000E+00  0.00000000000E+00  0.10828252695E+04  0.10828252695E+04  0.25500000000E-02 0.  1.
          2   -1    0    0  501    0  0.00000000000E+00 -0.00000000000E+00 -0.10447699937E+04  0.10447699937E+04  0.25500000000E-02 0. -1.
    8880022    1    1    2    0    0  0.45854524307E+03  0.65246276032E+03  0.70611667027E+03  0.10760872635E+04  0.15294330000E+03 0.  0.
    8880022    1    1    2    0    0 -0.45854524307E+03 -0.65246276032E+03 -0.66806139453E+03  0.10515079997E+04  0.15294330000E+03 0.  0.
<mgrwt>
<rscale>  0 0.81201173E+03</rscale>
<asrwt>0</asrwt>
<pdfrwt beam="1">  1        2 0.16073384E+00 0.81201173E+03</pdfrwt>
<pdfrwt beam="2">  1       -2 0.16658850E+00 0.81201173E+03</pdfrwt>
<totfact> 0.53833732E+00</totfact>
</mgrwt>
</event>
<event>
 4    1  0.6037704E-008  0.7689496E+03  0.7818608E-02  0.9606082E-01
         -2   -1    0    0    0  501 -0.00000000000E+00  0.00000000000E+00  0.81255224163E+03  0.81255224163E+03  0.25500000000E-02 0.  1.
          2   -1    0    0  501    0  0.00000000000E+00 -0.00000000000E+00 -0.13792414406E+04  0.13792414406E+04  0.25500000000E-02 0. -1.
    8880022    1    1    2    0    0  0.75320468280E+03 -0.23969955759E+02  0.46988080916E+03  0.90115008784E+03  0.15294330000E+03 0.  0.
    8880022    1    1    2    0    0 -0.75320468280E+03  0.23969955759E+02 -0.10365700081E+04  0.12906435944E+04  0.15294330000E+03 0.  0.
<mgrwt>
<rscale>  0 0.76894961E+03</rscale>
<asrwt>0</asrwt>
<pdfrwt beam="1">  1        2 0.21219099E+00 0.76894961E+03</pdfrwt>
<pdfrwt beam="2">  1       -2 0.12500804E+00 0.76894961E+03</pdfrwt>
<totfact> 0.72753875E+00</totfact>
</mgrwt>
</event>
<event>
 4    1  0.4639964E-008  0.5409963E+03  0.7818608E-02  0.1003600E+00
          2   -1    0    0  501    0  0.00000000000E+00  0.00000000000E+00  0.17985696552E+04  0.17985696552E+04  0.25500000000E-02 0. -1.
         -2   -1    0    0    0  501 -0.00000000000E+00 -0.00000000000E+00 -0.67569342160E+03  0.67569342160E+03  0.25500000000E-02 0.  1.
    8880022    1    1    2    0    0 -0.27015893358E+03  0.44305694251E+03  0.16393549153E+04  0.17263144253E+04  0.15294330000E+03 0.  0.
    8880022    1    1    2    0    0  0.27015893358E+03 -0.44305694251E+03 -0.51647868166E+03  0.74794865153E+03  0.15294330000E+03 0.  1.
<mgrwt>
<rscale>  0 0.54099626E+03</rscale>
<asrwt>0</asrwt>
<pdfrwt beam="1">  1        2 0.27670302E+00 0.54099626E+03</pdfrwt>
<pdfrwt beam="2">  1       -2 0.10395283E+00 0.54099626E+03</pdfrwt>
<totfact> 0.69708077E+00</totfact>
</mgrwt>
</event>
<event>
 4    1  0.4639964E-008  0.8290786E+03  0.7818608E-02  0.9518855E-01
          2   -1    0    0  501    0  0.00000000000E+00  0.00000000000E+00  0.95205770703E+03  0.95205770703E+03  0.25500000000E-02 0. -1.
         -2   -1    0    0    0  501 -0.00000000000E+00 -0.00000000000E+00 -0.10327534850E+04  0.10327534850E+04  0.25500000000E-02 0.  1.
    8880022    1    1    2    0    0 -0.58409750028E+02 -0.81275329816E+03 -0.58473700592E+03  0.10145386349E+04  0.15294330000E+03 0.  0.
    8880022    1    1    2    0    0  0.58409750028E+02  0.81275329816E+03  0.50404122798E+03  0.97027255711E+03  0.15294330000E+03 0.  0.
<mgrwt>
<rscale>  0 0.82907857E+03</rscale>
<asrwt>0</asrwt>
<pdfrwt beam="1">  1        2 0.14647042E+00 0.82907857E+03</pdfrwt>
<pdfrwt beam="2">  1       -2 0.15888515E+00 0.82907857E+03</pdfrwt>
<totfact> 0.70105934E+00</totfact>
</mgrwt>
</event>
<event>
 4    1  0.4639964E-008  0.3567147E+03  0.7818608E-02  0.1059892E+00
         -2   -1    0    0    0  501 -0.00000000000E+00  0.00000000000E+00  0.28348771140E+03  0.28348771142E+03  0.25500000000E-02 0.  1.
          2   -1    0    0  501    0  0.00000000000E+00 -0.00000000000E+00 -0.13983501536E+04  0.13983501536E+04  0.25500000000E-02 0. -1.
    8880022    1    1    2    0    0  0.25536241302E+03  0.19658013633E+03  0.13550321624E+03  0.38158418024E+03  0.15294330000E+03 0.  0.
    8880022    1    1    2    0    0 -0.25536241302E+03 -0.19658013633E+03 -0.12503656584E+04  0.13002536848E+04  0.15294330000E+03 0.  0.
<mgrwt>
<rscale>  0 0.35671468E+03</rscale>
<asrwt>0</asrwt>
<pdfrwt beam="1">  1        2 0.21513079E+00 0.35671468E+03</pdfrwt>
<pdfrwt beam="2">  1       -2 0.43613495E-01 0.35671468E+03</pdfrwt>
<totfact> 0.77585094E+01</totfact>
</mgrwt>
</event>
<event>
 4    1  0.6509572E-008  0.1192746E+04  0.7818608E-02  0.9119230E-01
          2   -1    0    0  501    0  0.00000000000E+00  0.00000000000E+00  0.19147025837E+04  0.19147025837E+04  0.25500000000E-02 0. -1.
         -2   -1    0    0    0  501 -0.00000000000E+00 -0.00000000000E+00 -0.16587587202E+04  0.16587587202E+04  0.25500000000E-02 0.  1.
    8880022    1    1    2    0    0 -0.17747866029E+02  0.11827660833E+04 -0.11995929409E+04  0.16916457878E+04  0.15294330000E+03 0.  0.
    8880022    1    1    2    0    0  0.17747866029E+02 -0.11827660833E+04  0.14555368043E+04  0.18818155160E+04  0.15294330000E+03 0.  0.
<mgrwt>
<rscale>  0 0.11927457E+04</rscale>
<asrwt>0</asrwt>
<pdfrwt beam="1">  1        2 0.29456963E+00 0.11927457E+04</pdfrwt>
<pdfrwt beam="2">  1       -2 0.25519365E+00 0.11927457E+04</pdfrwt>
<totfact> 0.43331093E-01</totfact>
</mgrwt>
</event>
<event>
 4    1  0.4639964E-008  0.9162817E+03  0.7818608E-02  0.9405454E-01
          2   -1    0    0  501    0  0.00000000000E+00  0.00000000000E+00  0.28170410287E+04  0.28170410287E+04  0.25500000000E-02 0. -1.
         -2   -1    0    0    0  501 -0.00000000000E+00 -0.00000000000E+00 -0.58820994014E+03  0.58820994014E+03  0.25500000000E-02 0.  1.
    8880022    1    1    2    0    0  0.83316573600E+03 -0.34930691809E+03 -0.81454950886E+02  0.91989511832E+03  0.15294330000E+03 0.  0.
    8880022    1    1    2    0    0 -0.83316573600E+03  0.34930691809E+03  0.23102860395E+04  0.24853558505E+04  0.15294330000E+03 0.  0.
<mgrwt>
<rscale>  0 0.91628168E+03</rscale>
<asrwt>0</asrwt>
<pdfrwt beam="1">  1        2 0.43339093E+00 0.91628168E+03</pdfrwt>
<pdfrwt beam="2">  1       -2 0.90493837E-01 0.91628168E+03</pdfrwt>
<totfact> 0.24254742E+00</totfact>
</mgrwt>
</event>
<event>
 4    1  0.4639964E-008  0.3712557E+03  0.7818608E-02  0.1054214E+00
         -2   -1    0    0    0  501 -0.00000000000E+00  0.00000000000E+00  0.11736289296E+03  0.11736289299E+03  0.25500000000E-02 0.  1.
          2   -1    0    0  501    0  0.00000000000E+00 -0.00000000000E+00 -0.15494826800E+04  0.15494826801E+04  0.25500000000E-02 0. -1.
    8880022    1    1    2    0    0  0.15421614674E+03  0.30109222564E+03 -0.11261095021E+04  0.11857290634E+04  0.15294330000E+03 0.  0.
    8880022    1    1    2    0    0 -0.15421614674E+03 -0.30109222564E+03 -0.30601028503E+03  0.48111650960E+03  0.15294330000E+03 0.  0.
<mgrwt>
<rscale>  0 0.37125571E+03</rscale>
<asrwt>0</asrwt>
<pdfrwt beam="1">  1        2 0.23838194E+00 0.37125571E+03</pdfrwt>
<pdfrwt beam="2">  1       -2 0.18055831E-01 0.37125571E+03</pdfrwt>
<totfact> 0.31872893E+02</totfact>
</mgrwt>
</event>
<event>
 4    1  0.4639964E-008  0.2554156E+03  0.7818608E-02  0.1109929E+00
          2   -1    0    0  501    0  0.00000000000E+00  0.00000000000E+00  0.20411244218E+04  0.20411244218E+04  0.25500000000E-02 0. -1.
         -2   -1    0    0    0  501 -0.00000000000E+00 -0.00000000000E+00 -0.13794554184E+03  0.13794554187E+03  0.25500000000E-02 0.  1.
    8880022    1    1    2    0    0  0.91450822453E+02  0.18298145927E+03  0.19065993141E+04  0.19236314784E+04  0.15294330000E+03 0. -1.
    8880022    1    1    2    0    0 -0.91450822453E+02 -0.18298145927E+03 -0.34204340995E+01  0.25543848526E+03  0.15294330000E+03 0.  0.
<mgrwt>
<rscale>  0 0.25541558E+03</rscale>
<asrwt>0</asrwt>
<pdfrwt beam="1">  1        2 0.31401913E+00 0.25541558E+03</pdfrwt>
<pdfrwt beam="2">  1       -2 0.21222392E-01 0.25541558E+03</pdfrwt>
<totfact> 0.13565899E+02</totfact>
</mgrwt>
</event>
<event>
 4    1  0.4639964E-008  0.2047141E+03  0.7818608E-02  0.1145822E+00
         -2   -1    0    0    0  501 -0.00000000000E+00  0.00000000000E+00  0.19350328375E+03  0.19350328377E+03  0.25500000000E-02 0.  1.
          2   -1    0    0  501    0  0.00000000000E+00 -0.00000000000E+00 -0.49413196599E+03  0.49413196600E+03  0.25500000000E-02 0. -1.
    8880022    1    1    2    0    0  0.12855559404E+03 -0.44605712287E+02  0.10736711907E+03  0.23116133240E+03  0.15294330000E+03 0.  1.
    8880022    1    1    2    0    0 -0.12855559404E+03  0.44605712287E+02 -0.40799580131E+03  0.45647391736E+03  0.15294330000E+03 0.  0.
<mgrwt>
<rscale>  0 0.20471410E+03</rscale>
<asrwt>0</asrwt>
<pdfrwt beam="1">  1        2 0.76020302E-01 0.20471410E+03</pdfrwt>
<pdfrwt beam="2">  1       -2 0.29769736E-01 0.20471410E+03</pdfrwt>
<totfact> 0.65724673E+02</totfact>
</mgrwt>
</event>
<event>
 4    1  0.4639964E-008  0.3386510E+03  0.7818608E-02  0.1067372E+00
         -2   -1    0    0    0  501 -0.00000000000E+00  0.00000000000E+00  0.11352779747E+03  0.11352779750E+03  0.25500000000E-02 0.  1.
          2   -1    0    0  501    0  0.00000000000E+00 -0.00000000000E+00 -0.12660304533E+04  0.12660304533E+04  0.25500000000E-02 0. -1.
    8880022    1    1    2    0    0 -0.11668113061E+02 -0.30192163142E+03 -0.88633142938E+03  0.94882446854E+03  0.15294330000E+03 0.  0.
    8880022    1    1    2    0    0  0.11668113061E+02  0.30192163142E+03 -0.26617122647E+03  0.43073378228E+03  0.15294330000E+03 0.  0.
<mgrwt>
<rscale>  0 0.33865096E+03</rscale>
<asrwt>0</asrwt>
<pdfrwt beam="1">  1        2 0.19477391E+00 0.33865096E+03</pdfrwt>
<pdfrwt beam="2">  1       -2 0.17465816E-01 0.33865096E+03</pdfrwt>
<totfact> 0.48482675E+02</totfact>
</mgrwt>
</event>
<event>
 4    1  0.4639964E-008  0.3887772E+03  0.7818608E-02  0.1047737E+00
          2   -1    0    0  501    0  0.00000000000E+00  0.00000000000E+00  0.68428446099E+03  0.68428446100E+03  0.25500000000E-02 0. -1.
         -2   -1    0    0    0  501 -0.00000000000E+00 -0.00000000000E+00 -0.15439625849E+04  0.15439625849E+04  0.25500000000E-02 0.  1.
    8880022    1    1    2    0    0  0.94313673508E+02 -0.34476225255E+03  0.60151484808E+03  0.71621773593E+03  0.15294330000E+03 0. -1.
    8880022    1    1    2    0    0 -0.94313673508E+02  0.34476225255E+03 -0.14611929720E+04  0.15120293100E+04  0.15294330000E+03 0.  0.
<mgrwt>
<rscale>  0 0.38877723E+03</rscale>
<asrwt>0</asrwt>
<pdfrwt beam="1">  1        2 0.10527453E+00 0.38877723E+03</pdfrwt>
<pdfrwt beam="2">  1       -2 0.23753270E+00 0.38877723E+03</pdfrwt>
<totfact> 0.35716865E+00</totfact>
</mgrwt>
</event>
<event>
 4    1  0.4639964E-008  0.3860383E+03  0.7818608E-02  0.1048724E+00
          2   -1    0    0  501    0  0.00000000000E+00  0.00000000000E+00  0.25389089698E+04  0.25389089698E+04  0.25500000000E-02 0. -1.
         -2   -1    0    0    0  501 -0.00000000000E+00 -0.00000000000E+00 -0.13834157176E+03  0.13834157179E+03  0.25500000000E-02 0.  1.
    8880022    1    1    2    0    0  0.33666675046E+03  0.11085750849E+03  0.18459267349E+03  0.42790185344E+03  0.15294330000E+03 0.  0.
    8880022    1    1    2    0    0 -0.33666675046E+03 -0.11085750849E+03  0.22159747245E+04  0.22493486881E+04  0.15294330000E+03 0.  0.
<mgrwt>
<rscale>  0 0.38603826E+03</rscale>
<asrwt>0</asrwt>
<pdfrwt beam="1">  1        2 0.39060136E+00 0.38603826E+03</pdfrwt>
<pdfrwt beam="2">  1       -2 0.21283320E-01 0.38603826E+03</pdfrwt>
<totfact> 0.70129675E+01</totfact>
</mgrwt>
</event>
<event>
 4    1  0.4639964E-008  0.3005657E+03  0.7818608E-02  0.1084958E+00
         -2   -1    0    0    0  501 -0.00000000000E+00  0.00000000000E+00  0.32239445456E+03  0.32239445457E+03  0.25500000000E-02 0.  1.
          2   -1    0    0  501    0  0.00000000000E+00 -0.00000000000E+00 -0.22378909706E+04  0.22378909706E+04  0.25500000000E-02 0. -1.
    8880022    1    1    2    0    0 -0.25171256052E+03  0.59907199110E+02 -0.21550657833E+04  0.21759246929E+04  0.15294330000E+03 0.  0.
    8880022    1    1    2    0    0  0.25171256052E+03 -0.59907199110E+02  0.23956926733E+03  0.38436073225E+03  0.15294330000E+03 0.  0.
<mgrwt>
<rscale>  0 0.30056570E+03</rscale>
<asrwt>0</asrwt>
<pdfrwt beam="1">  1        2 0.34429091E+00 0.30056570E+03</pdfrwt>
<pdfrwt beam="2">  1       -2 0.49599148E-01 0.30056570E+03</pdfrwt>
<totfact> 0.21768702E+01</totfact>
</mgrwt>
</event>
<event>
 4    1  0.7321933E-008  0.6582054E+03  0.7818608E-02  0.9791503E-01
          2   -1    0    0  501    0  0.00000000000E+00  0.00000000000E+00  0.42308631880E+04  0.42308631880E+04  0.25500000000E-02 0. -1.
         -2   -1    0    0    0  501 -0.00000000000E+00 -0.00000000000E+00 -0.82303585259E+03  0.82303585259E+03  0.25500000000E-02 0.  1.
    8880022    1    1    2    0    0  0.53758142425E+03  0.34763330638E+03  0.40684476043E+04  0.41213468994E+04  0.15294330000E+03 0.  0.
    8880022    1    1    2    0    0 -0.53758142425E+03 -0.34763330638E+03 -0.66062026887E+03  0.93255214120E+03  0.15294330000E+03 0.  0.
<mgrwt>
<rscale>  0 0.65820541E+03</rscale>
<asrwt>0</asrwt>
<pdfrwt beam="1">  1        2 0.65090203E+00 0.65820541E+03</pdfrwt>
<pdfrwt beam="2">  1       -2 0.12662090E+00 0.65820541E+03</pdfrwt>
<totfact> 0.11793078E-01</totfact>
</mgrwt>
</event>
<event>
 4    1  0.4639964E-008  0.3962013E+03  0.7818608E-02  0.1045103E+00
         -2   -1    0    0    0  501 -0.00000000000E+00  0.00000000000E+00  0.46153728374E+03  0.46153728374E+03  0.25500000000E-02 0.  1.
          2   -1    0    0  501    0  0.00000000000E+00 -0.00000000000E+00 -0.91108431108E+03  0.91108431109E+03  0.25500000000E-02 0. -1.
    8880022    1    1    2    0    0  0.14844675854E+03  0.33398713077E+03  0.31853704092E+03  0.50837126502E+03  0.15294330000E+03 0.  0.
    8880022    1    1    2    0    0 -0.14844675854E+03 -0.33398713077E+03 -0.76808406827E+03  0.86425032981E+03  0.15294330000E+03 0.  0.
<mgrwt>
<rscale>  0 0.39620133E+03</rscale>
<asrwt>0</asrwt>
<pdfrwt beam="1">  1        2 0.14016682E+00 0.39620133E+03</pdfrwt>
<pdfrwt beam="2">  1       -2 0.71005736E-01 0.39620133E+03</pdfrwt>
<totfact> 0.54794331E+01</totfact>
</mgrwt>
</event>
<event>
 4    1  0.4639964E-008  0.2871643E+03  0.7818608E-02  0.1091839E+00
         -2   -1    0    0    0  501 -0.00000000000E+00  0.00000000000E+00  0.24759206935E+03  0.24759206937E+03  0.25500000000E-02 0.  1.
          2   -1    0    0  501    0  0.00000000000E+00 -0.00000000000E+00 -0.19730709194E+04  0.19730709194E+04  0.25500000000E-02 0. -1.
    8880022    1    1    2    0    0  0.16566449057E+03 -0.17783968955E+03 -0.18750284099E+04  0.18968908428E+04  0.15294330000E+03 0.  0.
    8880022    1    1    2    0    0 -0.16566449057E+03  0.17783968955E+03  0.14954955987E+03  0.32377214594E+03  0.15294330000E+03 0.  0.
<mgrwt>
<rscale>  0 0.28716429E+03</rscale>
<asrwt>0</asrwt>
<pdfrwt beam="1">  1        2 0.30354936E+00 0.28716429E+03</pdfrwt>
<pdfrwt beam="2">  1       -2 0.38091089E-01 0.28716429E+03</pdfrwt>
<totfact> 0.50602917E+01</totfact>
</mgrwt>
</event>
<event>
 4    1  0.4639964E-008  0.2788434E+03  0.7818608E-02  0.1096322E+00
         -2   -1    0    0    0  501 -0.00000000000E+00  0.00000000000E+00  0.23309794905E+03  0.23309794907E+03  0.25500000000E-02 0.  1.
          2   -1    0    0  501    0  0.00000000000E+00 -0.00000000000E+00 -0.41078127939E+04  0.41078127939E+04  0.25500000000E-02 0. -1.
    8880022    1    1    2    0    0 -0.22297555304E+03 -0.68146100044E+02  0.14310877425E+03  0.31342265790E+03  0.15294330000E+03 0.  0.
    8880022    1    1    2    0    0  0.22297555304E+03  0.68146100044E+02 -0.40178236191E+04  0.40274880851E+04  0.15294330000E+03 0.  0.
<mgrwt>
<rscale>  0 0.27884340E+03</rscale>
<asrwt>0</asrwt>
<pdfrwt beam="1">  1        2 0.63197115E+00 0.27884340E+03</pdfrwt>
<pdfrwt beam="2">  1       -2 0.35861226E-01 0.27884340E+03</pdfrwt>
<totfact> 0.27245585E+00</totfact>
</mgrwt>
</event>
<event>
 4    1  0.4639964E-008  0.2939216E+03  0.7818608E-02  0.1088319E+00
          2   -1    0    0  501    0  0.00000000000E+00  0.00000000000E+00  0.41686409121E+03  0.41686409122E+03  0.25500000000E-02 0. -1.
         -2   -1    0    0    0  501 -0.00000000000E+00 -0.00000000000E+00 -0.90712036655E+03  0.90712036656E+03  0.25500000000E-02 0.  1.
    8880022    1    1    2    0    0 -0.94355087638E+02  0.23258407766E+03  0.33634961190E+03  0.44667768042E+03  0.15294330000E+03 0.  0.
    8880022    1    1    2    0    0  0.94355087638E+02 -0.23258407766E+03 -0.82660588724E+03  0.87730677735E+03  0.15294330000E+03 0.  1.
<mgrwt>
<rscale>  0 0.29392157E+03</rscale>
<asrwt>0</asrwt>
<pdfrwt beam="1">  1        2 0.64132937E-01 0.29392157E+03</pdfrwt>
<pdfrwt beam="2">  1       -2 0.13955698E+00 0.29392157E+03</pdfrwt>
<totfact> 0.29322287E+01</totfact>
</mgrwt>
</event>
<event>
 4    1  0.4639964E-008  0.1082525E+04  0.7818608E-02  0.9222393E-01
         -2   -1    0    0    0  501 -0.00000000000E+00  0.00000000000E+00  0.99789864783E+03  0.99789864784E+03  0.25500000000E-02 0.  1.
          2   -1    0    0  501    0  0.00000000000E+00 -0.00000000000E+00 -0.20139328012E+04  0.20139328012E+04  0.25500000000E-02 0. -1.
    8880022    1    1    2    0    0 -0.84528092381E+03 -0.65876348030E+03  0.46431700672E+03  0.11779011414E+04  0.15294330000E+03 0.  0.
    8880022    1    1    2    0    0  0.84528092381E+03  0.65876348030E+03 -0.14803511601E+04  0.18339303077E+04  0.15294330000E+03 0.  0.
<mgrwt>
<rscale>  0 0.10825252E+04</rscale>
<asrwt>0</asrwt>
<pdfrwt beam="1">  1        2 0.30983581E+00 0.10825252E+04</pdfrwt>
<pdfrwt beam="2">  1       -2 0.15352287E+00 0.10825252E+04</pdfrwt>
<totfact> 0.18244172E+00</totfact>
</mgrwt>
</event>
<event>
 4    1  0.4639964E-008  0.3508932E+03  0.7818608E-02  0.1062249E+00
          2   -1    0    0  501    0  0.00000000000E+00  0.00000000000E+00  0.19038967750E+04  0.19038967750E+04  0.25500000000E-02 0. -1.
         -2   -1    0    0    0  501 -0.00000000000E+00 -0.00000000000E+00 -0.43051682812E+03  0.43051682813E+03  0.25500000000E-02 0.  1.
    8880022    1    1    2    0    0  0.24141315882E+03  0.20360273591E+03  0.18126646936E+04  0.18463150684E+04  0.15294330000E+03 0. -1.
    8880022    1    1    2    0    0 -0.24141315882E+03 -0.20360273591E+03 -0.33928474667E+03  0.48809853479E+03  0.15294330000E+03 0.  0.
<mgrwt>
<rscale>  0 0.35089320E+03</rscale>
<asrwt>0</asrwt>
<pdfrwt beam="1">  1        2 0.29290719E+00 0.35089320E+03</pdfrwt>
<pdfrwt beam="2">  1       -2 0.66233359E-01 0.35089320E+03</pdfrwt>
<totfact> 0.17725688E+01</totfact>
</mgrwt>
</event>
<event>
 4    1  0.4639964E-008  0.5267106E+03  0.7818608E-02  0.1007033E+00
         -2   -1    0    0    0  501 -0.00000000000E+00  0.00000000000E+00  0.24233173572E+03  0.24233173573E+03  0.25500000000E-02 0.  1.
          2   -1    0    0  501    0  0.00000000000E+00 -0.00000000000E+00 -0.17864501553E+04  0.17864501553E+04  0.25500000000E-02 0. -1.
    8880022    1    1    2    0    0  0.22161903492E+03  0.45267809055E+03 -0.13799915520E+04  0.14770920036E+04  0.15294330000E+03 0.  0.
    8880022    1    1    2    0    0 -0.22161903492E+03 -0.45267809055E+03 -0.16412686760E+03  0.55168988752E+03  0.15294330000E+03 0.  0.
<mgrwt>
<rscale>  0 0.52671064E+03</rscale>
<asrwt>0</asrwt>
<pdfrwt beam="1">  1        2 0.27483848E+00 0.52671064E+03</pdfrwt>
<pdfrwt beam="2">  1       -2 0.37281807E-01 0.52671064E+03</pdfrwt>
<totfact> 0.62852519E+01</totfact>
</mgrwt>
</event>
<event>
 4    1  0.4639964E-008  0.3144895E+03  0.7818608E-02  0.1078214E+00
         -2   -1    0    0    0  501 -0.00000000000E+00  0.00000000000E+00  0.96055754368E+03  0.96055754368E+03  0.25500000000E-02 0.  1.
          2   -1    0    0  501    0  0.00000000000E+00 -0.00000000000E+00 -0.38482591684E+03  0.38482591684E+03  0.25500000000E-02 0. -1.
    8880022    1    1    2    0    0  0.21060895293E+03 -0.17651019245E+03 -0.28784117741E+03  0.42632871768E+03  0.15294330000E+03 0.  0.
    8880022    1    1    2    0    0 -0.21060895293E+03  0.17651019245E+03  0.86357280425E+03  0.91905474284E+03  0.15294330000E+03 0.  0.
<mgrwt>
<rscale>  0 0.31448948E+03</rscale>
<asrwt>0</asrwt>
<pdfrwt beam="1">  1        2 0.59203988E-01 0.31448948E+03</pdfrwt>
<pdfrwt beam="2">  1       -2 0.14777808E+00 0.31448948E+03</pdfrwt>
<totfact> 0.27536421E+01</totfact>
</mgrwt>
</event>
<event>
 4    1  0.4639964E-008  0.2550000E+03  0.7818608E-02  0.1110185E+00
         -2   -1    0    0    0  501 -0.00000000000E+00  0.00000000000E+00  0.10467270932E+03  0.10467270935E+03  0.25500000000E-02 0.  1.
          2   -1    0    0  501    0  0.00000000000E+00 -0.00000000000E+00 -0.16769628776E+04  0.16769628776E+04  0.25500000000E-02 0. -1.
    8880022    1    1    2    0    0  0.19128260943E+03  0.71023412644E+02 -0.79330050181E+02  0.26705481028E+03  0.15294330000E+03 0.  0.
    8880022    1    1    2    0    0 -0.19128260943E+03 -0.71023412644E+02 -0.14929601181E+04  0.15145807767E+04  0.15294330000E+03 0. -1.
<mgrwt>
<rscale>  0 0.25500003E+03</rscale>
<asrwt>0</asrwt>
<pdfrwt beam="1">  1        2 0.25799427E+00 0.25500003E+03</pdfrwt>
<pdfrwt beam="2">  1       -2 0.16103495E-01 0.25500003E+03</pdfrwt>
<totfact> 0.33669674E+02</totfact>
</mgrwt>
</event>
<event>
 4    1  0.4639964E-008  0.4064788E+03  0.7818608E-02  0.1041559E+00
          2   -1    0    0  501    0  0.00000000000E+00  0.00000000000E+00  0.13865391083E+04  0.13865391083E+04  0.25500000000E-02 0. -1.
         -2   -1    0    0    0  501 -0.00000000000E+00 -0.00000000000E+00 -0.14080233328E+03  0.14080233330E+03  0.25500000000E-02 0.  1.
    8880022    1    1    2    0    0 -0.34668483625E+03 -0.14711560987E+03  0.32349248221E+03  0.51949246136E+03  0.15294330000E+03 0.  0.
    8880022    1    1    2    0    0  0.34668483625E+03  0.14711560987E+03  0.92224429284E+03  0.10078489803E+04  0.15294330000E+03 0.  0.
<mgrwt>
<rscale>  0 0.40647882E+03</rscale>
<asrwt>0</asrwt>
<pdfrwt beam="1">  1        2 0.21331370E+00 0.40647882E+03</pdfrwt>
<pdfrwt beam="2">  1       -2 0.21661898E-01 0.40647882E+03</pdfrwt>
<totfact> 0.28445878E+02</totfact>
</mgrwt>
</event>
<event>
 4    1  0.4639964E-008  0.6147693E+03  0.7818608E-02  0.9875230E-01
         -2   -1    0    0    0  501 -0.00000000000E+00  0.00000000000E+00  0.66999840990E+03  0.66999840990E+03  0.25500000000E-02 0.  1.
          2   -1    0    0  501    0  0.00000000000E+00 -0.00000000000E+00 -0.10549924928E+04  0.10549924928E+04  0.25500000000E-02 0. -1.
    8880022    1    1    2    0    0  0.37560011348E+03  0.46203261395E+03  0.39584317809E+03  0.73118606131E+03  0.15294330000E+03 0.  1.
    8880022    1    1    2    0    0 -0.37560011348E+03 -0.46203261395E+03 -0.78083726100E+03  0.99380484140E+03  0.15294330000E+03 0.  0.
<mgrwt>
<rscale>  0 0.61476925E+03</rscale>
<asrwt>0</asrwt>
<pdfrwt beam="1">  1        2 0.16230654E+00 0.61476925E+03</pdfrwt>
<pdfrwt beam="2">  1       -2 0.10307668E+00 0.61476925E+03</pdfrwt>
<totfact> 0.18462999E+01</totfact>
</mgrwt>
</event>
<event>
 4    1  0.4639964E-008  0.6047719E+03  0.7818608E-02  0.9895555E-01
         -2   -1    0    0    0  501 -0.00000000000E+00  0.00000000000E+00  0.61433424837E+03  0.61433424837E+03  0.25500000000E-02 0.  1.
          2   -1    0    0  501    0  0.00000000000E+00 -0.00000000000E+00 -0.83033182276E+03  0.83033182277E+03  0.25500000000E-02 0. -1.
    8880022    1    1    2    0    0  0.42290844035E+03  0.40435858542E+03 -0.49225508062E+03  0.77978467023E+03  0.15294330000E+03 0.  0.
    8880022    1    1    2    0    0 -0.42290844035E+03 -0.40435858542E+03  0.27625750622E+03  0.66488140091E+03  0.15294330000E+03 0.  0.
<mgrwt>
<rscale>  0 0.60477191E+03</rscale>
<asrwt>0</asrwt>
<pdfrwt beam="1">  1        2 0.12774336E+00 0.60477191E+03</pdfrwt>
<pdfrwt beam="2">  1       -2 0.94512961E-01 0.60477191E+03</pdfrwt>
<totfact> 0.31807587E+01</totfact>
</mgrwt>
</event>
<event>
 4    1  0.4639964E-008  0.5559923E+03  0.7818608E-02  0.1000116E+00
          2   -1    0    0  501    0  0.00000000000E+00  0.00000000000E+00  0.11675711596E+04  0.11675711596E+04  0.25500000000E-02 0. -1.
         -2   -1    0    0    0  501 -0.00000000000E+00 -0.00000000000E+00 -0.79047505822E+03  0.79047505823E+03  0.25500000000E-02 0.  1.
    8880022    1    1    2    0    0  0.36896264195E+03  0.38678459089E+03 -0.60985763084E+03  0.82525979777E+03  0.15294330000E+03 0.  0.
    8880022    1    1    2    0    0 -0.36896264195E+03 -0.38678459089E+03  0.98695373218E+03  0.11327864200E+04  0.15294330000E+03 0. -1.
<mgrwt>
<rscale>  0 0.55599227E+03</rscale>
<asrwt>0</asrwt>
<pdfrwt beam="1">  1        2 0.17962633E+00 0.55599227E+03</pdfrwt>
<pdfrwt beam="2">  1       -2 0.12161155E+00 0.55599227E+03</pdfrwt>
<totfact> 0.10666965E+01</totfact>
</mgrwt>
</event>
<event>
 4    1  0.4639964E-008  0.5760305E+03  0.7818608E-02  0.9956422E-01
          2   -1    0    0  501    0  0.00000000000E+00  0.00000000000E+00  0.14606776461E+04  0.14606776461E+04  0.25500000000E-02 0. -1.
         -2   -1    0    0    0  501 -0.00000000000E+00 -0.00000000000E+00 -0.23380807956E+03  0.23380807957E+03  0.25500000000E-02 0.  1.
    8880022    1    1    2    0    0 -0.16274298278E+03  0.53097479854E+03  0.75627318666E+03  0.95066308491E+03  0.15294330000E+03 0.  1.
    8880022    1    1    2    0    0  0.16274298278E+03 -0.53097479854E+03  0.47059637985E+03  0.74382264073E+03  0.15294330000E+03 0. -1.
<mgrwt>
<rscale>  0 0.57603053E+03</rscale>
<asrwt>0</asrwt>
<pdfrwt beam="1">  1        2 0.22471963E+00 0.57603053E+03</pdfrwt>
<pdfrwt beam="2">  1       -2 0.35970475E-01 0.57603053E+03</pdfrwt>
<totfact> 0.10062075E+02</totfact>
</mgrwt>
</event>
<event>
 4    1  0.4639964E-008  0.5331355E+03  0.7818608E-02  0.1005475E+00
         -2   -1    0    0    0  501 -0.00000000000E+00  0.00000000000E+00  0.14651400096E+04  0.14651400096E+04  0.25500000000E-02 0.  1.
          2   -1    0    0  501    0  0.00000000000E+00 -0.00000000000E+00 -0.34616403718E+03  0.34616403719E+03  0.25500000000E-02 0. -1.
    8880022    1    1    2    0    0 -0.29872640993E+03  0.41425150674E+03  0.11599423873E+04  0.12765969504E+04  0.15294330000E+03 0.  0.
    8880022    1    1    2    0    0  0.29872640993E+03 -0.41425150674E+03 -0.40966414867E+02  0.53470709644E+03  0.15294330000E+03 0.  0.
<mgrwt>
<rscale>  0 0.53313547E+03</rscale>
<asrwt>0</asrwt>
<pdfrwt beam="1">  1        2 0.53256005E-01 0.53313547E+03</pdfrwt>
<pdfrwt beam="2">  1       -2 0.22540616E+00 0.53313547E+03</pdfrwt>
<totfact> 0.89846934E+00</totfact>
</mgrwt>
</event>
<event>
 4    1  0.4639964E-008  0.1479312E+04  0.7818608E-02  0.8898328E-01
         -2   -1    0    0    0  501 -0.00000000000E+00  0.00000000000E+00  0.20994832836E+04  0.20994832836E+04  0.25500000000E-02 0.  1.
          2   -1    0    0  501    0  0.00000000000E+00 -0.00000000000E+00 -0.10940160635E+04  0.10940160635E+04  0.25500000000E-02 0. -1.
    8880022    1    1    2    0    0 -0.12253087435E+04 -0.81461157367E+03  0.84978209474E+03  0.17060172316E+04  0.15294330000E+03 0.  0.
    8880022    1    1    2    0    0  0.12253087435E+04  0.81461157367E+03  0.15568512535E+03  0.14874821156E+04  0.15294330000E+03 0.  0.
<mgrwt>
<rscale>  0 0.14793124E+04</rscale>
<asrwt>0</asrwt>
<pdfrwt beam="1">  1        2 0.16831016E+00 0.14793124E+04</pdfrwt>
<pdfrwt beam="2">  1       -2 0.32299743E+00 0.14793124E+04</pdfrwt>
<totfact> 0.47833029E-01</totfact>
</mgrwt>
</event>
<event>
 4    1  0.4639964E-008  0.1016541E+04  0.7818608E-02  0.9290587E-01
          2   -1    0    0  501    0  0.00000000000E+00  0.00000000000E+00  0.26094244383E+04  0.26094244383E+04  0.25500000000E-02 0. -1.
         -2   -1    0    0    0  501 -0.00000000000E+00 -0.00000000000E+00 -0.89572255956E+03  0.89572255956E+03  0.25500000000E-02 0.  1.
    8880022    1    1    2    0    0  0.90249215481E+03 -0.44212113836E+03  0.21658826609E+04  0.23925723697E+04  0.15294330000E+03 0.  0.
    8880022    1    1    2    0    0 -0.90249215481E+03  0.44212113836E+03 -0.45218078214E+03  0.11125746282E+04  0.15294330000E+03 0.  0.
<mgrwt>
<rscale>  0 0.10165406E+04</rscale>
<asrwt>0</asrwt>
<pdfrwt beam="1">  1        2 0.40144991E+00 0.10165406E+04</pdfrwt>
<pdfrwt beam="2">  1       -2 0.13780347E+00 0.10165406E+04</pdfrwt>
<totfact> 0.11307991E+00</totfact>
</mgrwt>
</event>
<event>
 4    1  0.4639964E-008  0.4273576E+03  0.7818608E-02  0.1034698E+00
          2   -1    0    0  501    0  0.00000000000E+00  0.00000000000E+00  0.10355647619E+04  0.10355647619E+04  0.25500000000E-02 0. -1.
         -2   -1    0    0    0  501 -0.00000000000E+00 -0.00000000000E+00 -0.63905502559E+03  0.63905502559E+03  0.25500000000E-02 0.  1.
    8880022    1    1    2    0    0 -0.37139636182E+03  0.14597117559E+03  0.91071976513E+03  0.10060044658E+04  0.15294330000E+03 0.  0.
    8880022    1    1    2    0    0  0.37139636182E+03 -0.14597117559E+03 -0.51421002879E+03  0.66861532169E+03  0.15294330000E+03 0.  0.
<mgrwt>
<rscale>  0 0.42735757E+03</rscale>
<asrwt>0</asrwt>
<pdfrwt beam="1">  1        2 0.15931765E+00 0.42735757E+03</pdfrwt>
<pdfrwt beam="2">  1       -2 0.98316159E-01 0.42735757E+03</pdfrwt>
<totfact> 0.21853205E+01</totfact>
</mgrwt>
</event>
<event>
 4    1  0.4639964E-008  0.9726203E+03  0.7818608E-02  0.9339095E-01
         -2   -1    0    0    0  501 -0.00000000000E+00  0.00000000000E+00  0.48601422568E+03  0.48601422568E+03  0.25500000000E-02 0.  1.
          2   -1    0    0  501    0  0.00000000000E+00 -0.00000000000E+00 -0.23530335827E+04  0.23530335827E+04  0.25500000000E-02 0. -1.
    8880022    1    1    2    0    0  0.45493257744E+03 -0.84595205566E+03 -0.15235979455E+04  0.18075787349E+04  0.15294330000E+03 0.  0.
    8880022    1    1    2    0    0 -0.45493257744E+03  0.84595205566E+03 -0.34342141149E+03  0.10314690734E+04  0.15294330000E+03 0.  0.
<mgrwt>
<rscale>  0 0.97262027E+03</rscale>
<asrwt>0</asrwt>
<pdfrwt beam="1">  1        2 0.36200516E+00 0.97262027E+03</pdfrwt>
<pdfrwt beam="2">  1       -2 0.74771421E-01 0.97262027E+03</pdfrwt>
<totfact> 0.68774806E+00</totfact>
</mgrwt>
</event>
<event>
 4    1  0.4639964E-008  0.9577828E+03  0.7818608E-02  0.9356100E-01
         -2   -1    0    0    0  501 -0.00000000000E+00  0.00000000000E+00  0.58011963606E+03  0.58011963607E+03  0.25500000000E-02 0.  1.
          2   -1    0    0  501    0  0.00000000000E+00 -0.00000000000E+00 -0.39077590840E+04  0.39077590840E+04  0.25500000000E-02 0. -1.
    8880022    1    1    2    0    0 -0.21354800218E+03  0.92106105053E+03  0.67567394847E+02  0.96016311838E+03  0.15294330000E+03 0.  0.
    8880022    1    1    2    0    0  0.21354800218E+03 -0.92106105053E+03 -0.33952068428E+04  0.35277156017E+04  0.15294330000E+03 0.  0.
<mgrwt>
<rscale>  0 0.95778278E+03</rscale>
<asrwt>0</asrwt>
<pdfrwt beam="1">  1        2 0.60119369E+00 0.95778278E+03</pdfrwt>
<pdfrwt beam="2">  1       -2 0.89249177E-01 0.95778278E+03</pdfrwt>
<totfact> 0.46175913E-01</totfact>
</mgrwt>
</event>
<event>
 4    1  0.4639964E-008  0.4930546E+03  0.7818608E-02  0.1015608E+00
         -2   -1    0    0    0  501 -0.00000000000E+00  0.00000000000E+00  0.58711430017E+03  0.58711430018E+03  0.25500000000E-02 0.  1.
          2   -1    0    0  501    0  0.00000000000E+00 -0.00000000000E+00 -0.10744155095E+04  0.10744155095E+04  0.25500000000E-02 0. -1.
    8880022    1    1    2    0    0 -0.30778049872E+03 -0.35352840826E+03 -0.89494844035E+03  0.10217805707E+04  0.15294330000E+03 0. -1.
    8880022    1    1    2    0    0  0.30778049872E+03  0.35352840826E+03  0.40764723098E+03  0.63974923898E+03  0.15294330000E+03 0.  0.
<mgrwt>
<rscale>  0 0.49305459E+03</rscale>
<asrwt>0</asrwt>
<pdfrwt beam="1">  1        2 0.16529469E+00 0.49305459E+03</pdfrwt>
<pdfrwt beam="2">  1       -2 0.90325277E-01 0.49305459E+03</pdfrwt>
<totfact> 0.24892862E+01</totfact>
</mgrwt>
</event>
<event>
 4    1  0.4639964E-008  0.3062316E+03  0.7818608E-02  0.1082166E+00
          2   -1    0    0  501    0  0.00000000000E+00  0.00000000000E+00  0.48804965809E+03  0.48804965810E+03  0.25500000000E-02 0. -1.
         -2   -1    0    0    0  501 -0.00000000000E+00 -0.00000000000E+00 -0.54651086742E+03  0.54651086742E+03  0.25500000000E-02 0.  1.
    8880022    1    1    2    0    0  0.25653986253E+03  0.67627121971E+02  0.38730352320E+03  0.49374264631E+03  0.15294330000E+03 0.  0.
    8880022    1    1    2    0    0 -0.25653986253E+03 -0.67627121971E+02 -0.44576473252E+03  0.54081787921E+03  0.15294330000E+03 0.  0.
<mgrwt>
<rscale>  0 0.30623158E+03</rscale>
<asrwt>0</asrwt>
<pdfrwt beam="1">  1        2 0.75084562E-01 0.30623158E+03</pdfrwt>
<pdfrwt beam="2">  1       -2 0.84078596E-01 0.30623158E+03</pdfrwt>
<totfact> 0.82103249E+01</totfact>
</mgrwt>
</event>
<event>
 4    1  0.4639964E-008  0.6373531E+03  0.7818608E-02  0.9830804E-01
         -2   -1    0    0    0  501 -0.00000000000E+00  0.00000000000E+00  0.36896116445E+03  0.36896116446E+03  0.25500000000E-02 0.  1.
          2   -1    0    0  501    0  0.00000000000E+00 -0.00000000000E+00 -0.20792621297E+04  0.20792621297E+04  0.25500000000E-02 0. -1.
    8880022    1    1    2    0    0  0.58632235815E+03  0.19761934404E+03 -0.15500261836E+02  0.63754154683E+03  0.15294330000E+03 0.  0.
    8880022    1    1    2    0    0 -0.58632235815E+03 -0.19761934404E+03 -0.16948007034E+04  0.18106817474E+04  0.15294330000E+03 0.  0.
<mgrwt>
<rscale>  0 0.63735309E+03</rscale>
<asrwt>0</asrwt>
<pdfrwt beam="1">  1        2 0.31988648E+00 0.63735309E+03</pdfrwt>
<pdfrwt beam="2">  1       -2 0.56763257E-01 0.63735309E+03</pdfrwt>
<totfact> 0.18520181E+01</totfact>
</mgrwt>
</event>
<event>
 4    1  0.4639964E-008  0.9527952E+03  0.7818608E-02  0.9361889E-01
          2   -1    0    0  501    0  0.00000000000E+00  0.00000000000E+00  0.24818114660E+04  0.24818114660E+04  0.25500000000E-02 0. -1.
         -2   -1    0    0    0  501 -0.00000000000E+00 -0.00000000000E+00 -0.79263987770E+03  0.79263987770E+03  0.25500000000E-02 0.  1.
    8880022    1    1    2    0    0 -0.32510675211E+03  0.88245827908E+03  0.20460444010E+04  0.22570149220E+04  0.15294330000E+03 0.  0.
    8880022    1    1    2    0    0  0.32510675211E+03 -0.88245827908E+03 -0.35687281270E+03  0.10174364216E+04  0.15294330000E+03 0.  0.
<mgrwt>
<rscale>  0 0.95279519E+03</rscale>
<asrwt>0</asrwt>
<pdfrwt beam="1">  1        2 0.38181715E+00 0.95279519E+03</pdfrwt>
<pdfrwt beam="2">  1       -2 0.12194460E+00 0.95279519E+03</pdfrwt>
<totfact> 0.18446948E+00</totfact>
</mgrwt>
</event>
<event>
 4    1  0.4639964E-008  0.2023686E+03  0.7818608E-02  0.1147756E+00
         -2   -1    0    0    0  501 -0.00000000000E+00  0.00000000000E+00  0.19979915169E+03  0.19979915171E+03  0.25500000000E-02 0.  1.
          2   -1    0    0  501    0  0.00000000000E+00 -0.00000000000E+00 -0.58635260724E+03  0.58635260725E+03  0.25500000000E-02 0. -1.
    8880022    1    1    2    0    0  0.29954702999E+02 -0.12908956214E+03 -0.51028951370E+03  0.54895212914E+03  0.15294330000E+03 0. -1.
    8880022    1    1    2    0    0 -0.29954702999E+02  0.12908956214E+03  0.12373605814E+03  0.23719962981E+03  0.15294330000E+03 0.  0.
<mgrwt>
<rscale>  0 0.20236861E+03</rscale>
<asrwt>0</asrwt>
<pdfrwt beam="1">  1        2 0.90208093E-01 0.20236861E+03</pdfrwt>
<pdfrwt beam="2">  1       -2 0.30738331E-01 0.20236861E+03</pdfrwt>
<totfact> 0.51115722E+02</totfact>
</mgrwt>
</event>
<event>
 4    1  0.4639964E-008  0.8604595E+03  0.7818608E-02  0.9476405E-01
         -2   -1    0    0    0  501 -0.00000000000E+00  0.00000000000E+00  0.27770703181E+03  0.27770703182E+03  0.25500000000E-02 0.  1.
          2   -1    0    0  501    0  0.00000000000E+00 -0.00000000000E+00 -0.52265909034E+04  0.52265909034E+04  0.25500000000E-02 0. -1.
    8880022    1    1    2    0    0 -0.82217254534E+03 -0.20256178438E+03 -0.54813471667E+03  0.10202167865E+04  0.15294330000E+03 0.  0.
    8880022    1    1    2    0    0  0.82217254534E+03  0.20256178438E+03 -0.44007491549E+04  0.44840811488E+04  0.15294330000E+03 0.  0.
<mgrwt>
<rscale>  0 0.86045954E+03</rscale>
<asrwt>0</asrwt>
<pdfrwt beam="1">  1        2 0.80409084E+00 0.86045954E+03</pdfrwt>
<pdfrwt beam="2">  1       -2 0.42724162E-01 0.86045954E+03</pdfrwt>
<totfact> 0.10190794E-01</totfact>
</mgrwt>
</event>
<event>
 4    1  0.4639964E-008  0.4249710E+03  0.7818608E-02  0.1035460E+00
         -2   -1    0    0    0  501 -0.00000000000E+00  0.00000000000E+00  0.30068946687E+03  0.30068946688E+03  0.25500000000E-02 0.  1.
          2   -1    0    0  501    0  0.00000000000E+00 -0.00000000000E+00 -0.91428326725E+03  0.91428326725E+03  0.25500000000E-02 0. -1.
    8880022    1    1    2    0    0 -0.39432793280E+03 -0.41402427423E+02  0.49020730319E+02  0.42778892529E+03  0.15294330000E+03 0.  0.
    8880022    1    1    2    0    0  0.39432793280E+03  0.41402427423E+02 -0.66261453070E+03  0.78718380884E+03  0.15294330000E+03 0. -1.
<mgrwt>
<rscale>  0 0.42497098E+03</rscale>
<asrwt>0</asrwt>
<pdfrwt beam="1">  1        2 0.14065896E+00 0.42497098E+03</pdfrwt>
<pdfrwt beam="2">  1       -2 0.46259918E-01 0.42497098E+03</pdfrwt>
<totfact> 0.13215392E+02</totfact>
</mgrwt>
</event>
<event>
 4    1  0.4639964E-008  0.5173594E+03  0.7818608E-02  0.1009345E+00
         -2   -1    0    0    0  501 -0.00000000000E+00  0.00000000000E+00  0.48903634345E+03  0.48903634346E+03  0.25500000000E-02 0.  1.
          2   -1    0    0  501    0  0.00000000000E+00 -0.00000000000E+00 -0.27793446894E+04  0.27793446894E+04  0.25500000000E-02 0. -1.
    8880022    1    1    2    0    0 -0.49419408039E+03 -0.64236554104E+01 -0.26096249581E+04  0.26604140895E+04  0.15294330000E+03 0.  0.
    8880022    1    1    2    0    0  0.49419408039E+03  0.64236554104E+01  0.31931661216E+03  0.60796694339E+03  0.15294330000E+03 0.  0.
<mgrwt>
<rscale>  0 0.51735936E+03</rscale>
<asrwt>0</asrwt>
<pdfrwt beam="1">  1        2 0.42759148E+00 0.51735936E+03</pdfrwt>
<pdfrwt beam="2">  1       -2 0.75236362E-01 0.51735936E+03</pdfrwt>
<totfact> 0.42183342E+00</totfact>
</mgrwt>
</event>
<event>
 4    1  0.4639964E-008  0.4990377E+03  0.7818608E-02  0.1014030E+00
         -2   -1    0    0    0  501 -0.00000000000E+00  0.00000000000E+00  0.49990771221E+03  0.49990771222E+03  0.25500000000E-02 0.  1.
          2   -1    0    0  501    0  0.00000000000E+00 -0.00000000000E+00 -0.10310413475E+04  0.10310413475E+04  0.25500000000E-02 0. -1.
    8880022    1    1    2    0    0 -0.44887400161E+03  0.15543199321E+03  0.28473913766E+03  0.57455635351E+03  0.15294330000E+03 0.  0.
    8880022    1    1    2    0    0  0.44887400161E+03 -0.15543199321E+03 -0.81587277292E+03  0.95639270619E+03  0.15294330000E+03 0.  0.
<mgrwt>
<rscale>  0 0.49903770E+03</rscale>
<asrwt>0</asrwt>
<pdfrwt beam="1">  1        2 0.15862175E+00 0.49903770E+03</pdfrwt>
<pdfrwt beam="2">  1       -2 0.76908879E-01 0.49903770E+03</pdfrwt>
<totfact> 0.38000554E+01</totfact>
</mgrwt>
</event>
<event>
 4    1  0.4639964E-008  0.4410930E+03  0.7818608E-02  0.1030412E+00
         -2   -1    0    0    0  501 -0.00000000000E+00  0.00000000000E+00  0.75958895016E+03  0.75958895016E+03  0.25500000000E-02 0.  1.
          2   -1    0    0  501    0  0.00000000000E+00 -0.00000000000E+00 -0.41956158952E+03  0.41956158953E+03  0.25500000000E-02 0. -1.
    8880022    1    1    2    0    0  0.28199467538E+02 -0.41276650193E+03  0.53796700270E+03  0.69568063369E+03  0.15294330000E+03 0.  0.
    8880022    1    1    2    0    0 -0.28199467538E+02  0.41276650193E+03 -0.19793964207E+03  0.48346990599E+03  0.15294330000E+03 0.  0.
<mgrwt>
<rscale>  0 0.44109302E+03</rscale>
<asrwt>0</asrwt>
<pdfrwt beam="1">  1        2 0.64547937E-01 0.44109302E+03</pdfrwt>
<pdfrwt beam="2">  1       -2 0.11685984E+00 0.44109302E+03</pdfrwt>
<totfact> 0.44340771E+01</totfact>
</mgrwt>
</event>
<event>
 4    1  0.4639964E-008  0.4409137E+03  0.7818608E-02  0.1030467E+00
         -2   -1    0    0    0  501 -0.00000000000E+00  0.00000000000E+00  0.30470913908E+04  0.30470913908E+04  0.25500000000E-02 0.  1.
          2   -1    0    0  501    0  0.00000000000E+00 -0.00000000000E+00 -0.67088549605E+03  0.67088549605E+03  0.25500000000E-02 0. -1.
    8880022    1    1    2    0    0  0.40636308234E+03  0.76696307998E+02 -0.58028423475E+03  0.72878990420E+03  0.15294330000E+03 0.  0.
    8880022    1    1    2    0    0 -0.40636308234E+03 -0.76696307998E+02  0.29564901295E+04  0.29891869826E+04  0.15294330000E+03 0.  0.
<mgrwt>
<rscale>  0 0.44091375E+03</rscale>
<asrwt>0</asrwt>
<pdfrwt beam="1">  1        2 0.10321315E+00 0.44091375E+03</pdfrwt>
<pdfrwt beam="2">  1       -2 0.46878329E+00 0.44091375E+03</pdfrwt>
<totfact> 0.13177198E-01</totfact>
</mgrwt>
</event>
<event>
 4    1  0.4639964E-008  0.4287685E+03  0.7818608E-02  0.1034250E+00
         -2   -1    0    0    0  501 -0.00000000000E+00  0.00000000000E+00  0.66028385721E+02  0.66028385770E+02  0.25500000000E-02 0.  1.
          2   -1    0    0  501    0  0.00000000000E+00 -0.00000000000E+00 -0.32107692463E+04  0.32107692463E+04  0.25500000000E-02 0. -1.
    8880022    1    1    2    0    0  0.39229137847E+03  0.80983192574E+02 -0.21694907564E+04  0.22114548601E+04  0.15294330000E+03 0. -1.
    8880022    1    1    2    0    0 -0.39229137847E+03 -0.80983192574E+02 -0.97525010425E+03  0.10653427720E+04  0.15294330000E+03 0.  0.
<mgrwt>
<rscale>  0 0.42876853E+03</rscale>
<asrwt>0</asrwt>
<pdfrwt beam="1">  1        2 0.49396438E+00 0.42876853E+03</pdfrwt>
<pdfrwt beam="2">  1       -2 0.10158216E-01 0.42876853E+03</pdfrwt>
<totfact> 0.96096259E+01</totfact>
</mgrwt>
</event>
<event>
 4    1  0.4639964E-008  0.5738861E+03  0.7818608E-02  0.9961116E-01
          2   -1    0    0  501    0  0.00000000000E+00  0.00000000000E+00  0.10066406951E+04  0.10066406951E+04  0.25500000000E-02 0. -1.
         -2   -1    0    0    0  501 -0.00000000000E+00 -0.00000000000E+00 -0.54491293813E+03  0.54491293814E+03  0.25500000000E-02 0.  1.
    8880022    1    1    2    0    0  0.41861851170E+03  0.36154128532E+03 -0.25952738491E+03  0.62984099253E+03  0.15294330000E+03 0.  0.
    8880022    1    1    2    0    0 -0.41861851170E+03 -0.36154128532E+03  0.72125514188E+03  0.92171264070E+03  0.15294330000E+03 0.  0.
<mgrwt>
<rscale>  0 0.57388606E+03</rscale>
<asrwt>0</asrwt>
<pdfrwt beam="1">  1        2 0.15486780E+00 0.57388606E+03</pdfrwt>
<pdfrwt beam="2">  1       -2 0.83832760E-01 0.57388606E+03</pdfrwt>
<totfact> 0.32128710E+01</totfact>
</mgrwt>
</event>
<event>
 4    1  0.4639964E-008  0.6374324E+03  0.7818608E-02  0.9830651E-01
         -2   -1    0    0    0  501 -0.00000000000E+00  0.00000000000E+00  0.95386544062E+03  0.95386544063E+03  0.25500000000E-02 0.  1.
          2   -1    0    0  501    0  0.00000000000E+00 -0.00000000000E+00 -0.15771224870E+04  0.15771224870E+04  0.25500000000E-02 0. -1.
    8880022    1    1    2    0    0  0.56099337928E+03 -0.26117963959E+03 -0.13927970755E+04  0.15317322620E+04  0.15294330000E+03 0.  0.
    8880022    1    1    2    0    0 -0.56099337928E+03  0.26117963959E+03  0.76954002919E+03  0.99925566562E+03  0.15294330000E+03 0.  0.
<mgrwt>
<rscale>  0 0.63743237E+03</rscale>
<asrwt>0</asrwt>
<pdfrwt beam="1">  1        2 0.24263423E+00 0.63743237E+03</pdfrwt>
<pdfrwt beam="2">  1       -2 0.14674853E+00 0.63743237E+03</pdfrwt>
<totfact> 0.38227577E+00</totfact>
</mgrwt>
</event>
<event>
 4    1  0.4639964E-008  0.5668822E+03  0.7818608E-02  0.9976602E-01
         -2   -1    0    0    0  501 -0.00000000000E+00  0.00000000000E+00  0.75499572225E+03  0.75499572226E+03  0.25500000000E-02 0.  1.
          2   -1    0    0  501    0  0.00000000000E+00 -0.00000000000E+00 -0.57424639607E+03  0.57424639607E+03  0.25500000000E-02 0. -1.
    8880022    1    1    2    0    0  0.38720871099E+03 -0.38475083124E+03 -0.24772561336E+03  0.61864644227E+03  0.15294330000E+03 0.  0.
    8880022    1    1    2    0    0 -0.38720871099E+03  0.38475083124E+03  0.42847493954E+03  0.71059567606E+03  0.15294330000E+03 0.  0.
<mgrwt>
<rscale>  0 0.56688221E+03</rscale>
<asrwt>0</asrwt>
<pdfrwt beam="1">  1        2 0.88345600E-01 0.56688221E+03</pdfrwt>
<pdfrwt beam="2">  1       -2 0.11615319E+00 0.56688221E+03</pdfrwt>
<totfact> 0.30983571E+01</totfact>
</mgrwt>
</event>
<event>
 4    1  0.4639964E-008  0.1076347E+04  0.7818608E-02  0.9228558E-01
          2   -1    0    0  501    0  0.00000000000E+00  0.00000000000E+00  0.68728079871E+03  0.68728079871E+03  0.25500000000E-02 0. -1.
         -2   -1    0    0    0  501 -0.00000000000E+00 -0.00000000000E+00 -0.18682240396E+04  0.18682240396E+04  0.25500000000E-02 0.  1.
    8880022    1    1    2    0    0  0.68661999307E+03 -0.81466777895E+03 -0.98990005220E+03  0.14623352459E+04  0.15294330000E+03 0.  0.
    8880022    1    1    2    0    0 -0.68661999307E+03  0.81466777895E+03 -0.19104318873E+03  0.10931695925E+04  0.15294330000E+03 0.  0.
<mgrwt>
<rscale>  0 0.10763467E+04</rscale>
<asrwt>0</asrwt>
<pdfrwt beam="1">  1        2 0.10573551E+00 0.10763467E+04</pdfrwt>
<pdfrwt beam="2">  1       -2 0.28741908E+00 0.10763467E+04</pdfrwt>
<totfact> 0.15821433E+00</totfact>
</mgrwt>
</event>
<event>
 4    1  0.4639964E-008  0.3126745E+03  0.7818608E-02  0.1079071E+00
          2   -1    0    0  501    0  0.00000000000E+00  0.00000000000E+00  0.29594153349E+03  0.29594153350E+03  0.25500000000E-02 0. -1.
         -2   -1    0    0    0  501 -0.00000000000E+00 -0.00000000000E+00 -0.37148382509E+03  0.37148382510E+03  0.25500000000E-02 0.  1.
    8880022    1    1    2    0    0 -0.22554259597E+02  0.27178116262E+03 -0.14881214212E+03  0.34628081327E+03  0.15294330000E+03 0.  0.
    8880022    1    1    2    0    0  0.22554259597E+02 -0.27178116262E+03  0.73269850510E+02  0.32114454533E+03  0.15294330000E+03 0.  0.
<mgrwt>
<rscale>  0 0.31267451E+03</rscale>
<asrwt>0</asrwt>
<pdfrwt beam="1">  1        2 0.45529467E-01 0.31267451E+03</pdfrwt>
<pdfrwt beam="2">  1       -2 0.57151358E-01 0.31267451E+03</pdfrwt>
<totfact> 0.32609478E+02</totfact>
</mgrwt>
</event>
<event>
 4    1  0.4639964E-008  0.5800959E+03  0.7818608E-02  0.9947583E-01
         -2   -1    0    0    0  501 -0.00000000000E+00  0.00000000000E+00  0.26500773441E+03  0.26500773443E+03  0.25500000000E-02 0.  1.
          2   -1    0    0  501    0  0.00000000000E+00 -0.00000000000E+00 -0.21247540625E+04  0.21247540625E+04  0.25500000000E-02 0. -1.
    8880022    1    1    2    0    0  0.33504941152E+03 -0.44817570261E+03 -0.16878177533E+04  0.17847240655E+04  0.15294330000E+03 0. -1.
    8880022    1    1    2    0    0 -0.33504941152E+03  0.44817570261E+03 -0.17192857472E+03  0.60503773138E+03  0.15294330000E+03 0.  0.
<mgrwt>
<rscale>  0 0.58009587E+03</rscale>
<asrwt>0</asrwt>
<pdfrwt beam="1">  1        2 0.32688523E+00 0.58009587E+03</pdfrwt>
<pdfrwt beam="2">  1       -2 0.40770422E-01 0.58009587E+03</pdfrwt>
<totfact> 0.34407452E+01</totfact>
</mgrwt>
</event>
<event>
 4    1  0.4639964E-008  0.1260663E+04  0.7818608E-02  0.9061355E-01
          2   -1    0    0  501    0  0.00000000000E+00  0.00000000000E+00  0.10323368137E+04  0.10323368137E+04  0.25500000000E-02 0. -1.
         -2   -1    0    0    0  501 -0.00000000000E+00 -0.00000000000E+00 -0.20615869581E+04  0.20615869581E+04  0.25500000000E-02 0.  1.
    8880022    1    1    2    0    0  0.38712362259E+03 -0.11899645728E+04  0.26386742675E+03  0.12879821644E+04  0.15294330000E+03 0.  0.
    8880022    1    1    2    0    0 -0.38712362259E+03  0.11899645728E+04 -0.12931175711E+04  0.18059416075E+04  0.15294330000E+03 0.  0.
<mgrwt>
<rscale>  0 0.12606633E+04</rscale>
<asrwt>0</asrwt>
<pdfrwt beam="1">  1        2 0.15882105E+00 0.12606633E+04</pdfrwt>
<pdfrwt beam="2">  1       -2 0.31716722E+00 0.12606633E+04</pdfrwt>
<totfact> 0.58212712E-01</totfact>
</mgrwt>
</event>
<event>
 4    1  0.4639964E-008  0.6368495E+03  0.7818608E-02  0.9831773E-01
         -2   -1    0    0    0  501 -0.00000000000E+00  0.00000000000E+00  0.24929923956E+03  0.24929923957E+03  0.25500000000E-02 0.  1.
          2   -1    0    0  501    0  0.00000000000E+00 -0.00000000000E+00 -0.22856761212E+04  0.22856761212E+04  0.25500000000E-02 0. -1.
    8880022    1    1    2    0    0 -0.56254761157E+03 -0.25637059303E+03 -0.16986684204E+04  0.18141256163E+04  0.15294330000E+03 0.  0.
    8880022    1    1    2    0    0  0.56254761157E+03  0.25637059303E+03 -0.33770846120E+03  0.72084974443E+03  0.15294330000E+03 0.  0.
<mgrwt>
<rscale>  0 0.63684955E+03</rscale>
<asrwt>0</asrwt>
<pdfrwt beam="1">  1        2 0.35164247E+00 0.63684955E+03</pdfrwt>
<pdfrwt beam="2">  1       -2 0.38353731E-01 0.63684955E+03</pdfrwt>
<totfact> 0.31322588E+01</totfact>
</mgrwt>
</event>
<event>
 4    1  0.4639964E-008  0.1407531E+04  0.7818608E-02  0.8948385E-01
          2   -1    0    0  501    0  0.00000000000E+00  0.00000000000E+00  0.35929692478E+04  0.35929692478E+04  0.25500000000E-02 0. -1.
         -2   -1    0    0    0  501 -0.00000000000E+00 -0.00000000000E+00 -0.76694873769E+03  0.76694873769E+03  0.25500000000E-02 0.  1.
    8880022    1    1    2    0    0 -0.71970182684E+03 -0.11999088811E+04  0.25731487169E+03  0.14308580079E+04  0.15294330000E+03 0.  1.
    8880022    1    1    2    0    0  0.71970182684E+03  0.11999088811E+04  0.25687056384E+04  0.29290599776E+04  0.15294330000E+03 0. -1.
<mgrwt>
<rscale>  0 0.14075311E+04</rscale>
<asrwt>0</asrwt>
<pdfrwt beam="1">  1        2 0.55276449E+00 0.14075311E+04</pdfrwt>
<pdfrwt beam="2">  1       -2 0.11799212E+00 0.14075311E+04</pdfrwt>
<totfact> 0.37554991E-01</totfact>
</mgrwt>
</event>
<event>
 4    1  0.4639964E-008  0.2806300E+03  0.7818608E-02  0.1095345E+00
          2   -1    0    0  501    0  0.00000000000E+00  0.00000000000E+00  0.63448604251E+03  0.63448604252E+03  0.25500000000E-02 0. -1.
         -2   -1    0    0    0  501 -0.00000000000E+00 -0.00000000000E+00 -0.57002746244E+03  0.57002746245E+03  0.25500000000E-02 0.  1.
    8880022    1    1    2    0    0 -0.11489030472E+03 -0.20533322704E+03  0.56489602259E+03  0.63076198807E+03  0.15294330000E+03 0.  0.
    8880022    1    1    2    0    0  0.11489030472E+03  0.20533322704E+03 -0.50043744252E+03  0.57375151689E+03  0.15294330000E+03 0.  0.
<mgrwt>
<rscale>  0 0.28062995E+03</rscale>
<asrwt>0</asrwt>
<pdfrwt beam="1">  1        2 0.97613238E-01 0.28062995E+03</pdfrwt>
<pdfrwt beam="2">  1       -2 0.87696532E-01 0.28062995E+03</pdfrwt>
<totfact> 0.55404344E+01</totfact>
</mgrwt>
</event>
<event>
 4    1  0.4639964E-008  0.6977279E+03  0.7818608E-02  0.9721126E-01
         -2   -1    0    0    0  501 -0.00000000000E+00  0.00000000000E+00  0.15078262340E+04  0.15078262340E+04  0.25500000000E-02 0.  1.
          2   -1    0    0  501    0  0.00000000000E+00 -0.00000000000E+00 -0.11422770172E+04  0.11422770172E+04  0.25500000000E-02 0. -1.
    8880022    1    1    2    0    0  0.45826996830E+03  0.50340952734E+03  0.13050469769E+04  0.14798553244E+04  0.15294330000E+03 0.  0.
    8880022    1    1    2    0    0 -0.45826996830E+03 -0.50340952734E+03 -0.93949776014E+03  0.11702479269E+04  0.15294330000E+03 0.  0.
<mgrwt>
<rscale>  0 0.69772786E+03</rscale>
<asrwt>0</asrwt>
<pdfrwt beam="1">  1        2 0.17573493E+00 0.69772786E+03</pdfrwt>
<pdfrwt beam="2">  1       -2 0.23197327E+00 0.69772786E+03</pdfrwt>
<totfact> 0.17767260E+00</totfact>
</mgrwt>
</event>
<event>
 4    1  0.4639964E-008  0.4555060E+03  0.7818608E-02  0.1026093E+00
         -2   -1    0    0    0  501 -0.00000000000E+00  0.00000000000E+00  0.29673272707E+03  0.29673272708E+03  0.25500000000E-02 0.  1.
          2   -1    0    0  501    0  0.00000000000E+00 -0.00000000000E+00 -0.11560277297E+04  0.11560277297E+04  0.25500000000E-02 0. -1.
    8880022    1    1    2    0    0 -0.81153804953E+01 -0.42898505026E+03  0.26956630245E+02  0.45630291000E+03  0.15294330000E+03 0.  1.
    8880022    1    1    2    0    0  0.81153804953E+01  0.42898505026E+03 -0.88625163287E+03  0.99645754678E+03  0.15294330000E+03 0.  0.
<mgrwt>
<rscale>  0 0.45550597E+03</rscale>
<asrwt>0</asrwt>
<pdfrwt beam="1">  1        2 0.17785042E+00 0.45550597E+03</pdfrwt>
<pdfrwt beam="2">  1       -2 0.45651190E-01 0.45550597E+03</pdfrwt>
<totfact> 0.95814263E+01</totfact>
</mgrwt>
</event>
<event>
 4    1  0.4639964E-008  0.6916947E+03  0.7818608E-02  0.9731542E-01
          2   -1    0    0  501    0  0.00000000000E+00  0.00000000000E+00  0.54301903192E+03  0.54301903193E+03  0.25500000000E-02 0. -1.
         -2   -1    0    0    0  501 -0.00000000000E+00 -0.00000000000E+00 -0.10093303666E+04  0.10093303666E+04  0.25500000000E-02 0.  1.
    8880022    1    1    2    0    0  0.34545853900E+03  0.57940343064E+03  0.43523949092E+02  0.69306271344E+03  0.15294330000E+03 0.  0.
    8880022    1    1    2    0    0 -0.34545853900E+03 -0.57940343064E+03 -0.50983528381E+03  0.85928668513E+03  0.15294330000E+03 0.  0.
<mgrwt>
<rscale>  0 0.69169472E+03</rscale>
<asrwt>0</asrwt>
<pdfrwt beam="1">  1        2 0.83541390E-01 0.69169472E+03</pdfrwt>
<pdfrwt beam="2">  1       -2 0.15528159E+00 0.69169472E+03</pdfrwt>
<totfact> 0.15577489E+01</totfact>
</mgrwt>
</event>
<event>
 4    1  0.4639964E-008  0.5477046E+03  0.7818608E-02  0.1002027E+00
         -2   -1    0    0    0  501 -0.00000000000E+00  0.00000000000E+00  0.26960324893E+04  0.26960324893E+04  0.25500000000E-02 0.  1.
          2   -1    0    0  501    0  0.00000000000E+00 -0.00000000000E+00 -0.81760703232E+03  0.81760703233E+03  0.25500000000E-02 0. -1.
    8880022    1    1    2    0    0  0.42548502450E+03 -0.30911343447E+03 -0.69369526399E+03  0.88385145457E+03  0.15294330000E+03 0.  0.
    8880022    1    1    2    0    0 -0.42548502450E+03  0.30911343447E+03  0.25721207210E+04  0.26297880671E+04  0.15294330000E+03 0.  0.
<mgrwt>
<rscale>  0 0.54770455E+03</rscale>
<asrwt>0</asrwt>
<pdfrwt beam="1">  1        2 0.12578570E+00 0.54770455E+03</pdfrwt>
<pdfrwt beam="2">  1       -2 0.41477423E+00 0.54770455E+03</pdfrwt>
<totfact> 0.22389333E-01</totfact>
</mgrwt>
</event>
<event>
 4    1  0.4639964E-008  0.2859107E+03  0.7818608E-02  0.1092504E+00
          2   -1    0    0  501    0  0.00000000000E+00  0.00000000000E+00  0.10111420926E+04  0.10111420926E+04  0.25500000000E-02 0. -1.
         -2   -1    0    0    0  501 -0.00000000000E+00 -0.00000000000E+00 -0.17671693637E+03  0.17671693639E+03  0.25500000000E-02 0.  1.
    8880022    1    1    2    0    0  0.23966310784E+03 -0.30247284435E+02 -0.20252530598E+02  0.28662714716E+03  0.15294330000E+03 0.  0.
    8880022    1    1    2    0    0 -0.23966310784E+03  0.30247284435E+02  0.85467768685E+03  0.90123188187E+03  0.15294330000E+03 0.  0.
<mgrwt>
<rscale>  0 0.28591075E+03</rscale>
<asrwt>0</asrwt>
<pdfrwt beam="1">  1        2 0.15556032E+00 0.28591075E+03</pdfrwt>
<pdfrwt beam="2">  1       -2 0.27187221E-01 0.28591075E+03</pdfrwt>
<totfact> 0.31794506E+02</totfact>
</mgrwt>
</event>
<event>
 4    1  0.4639964E-008  0.3402294E+03  0.7818608E-02  0.1066698E+00
          2   -1    0    0  501    0  0.00000000000E+00  0.00000000000E+00  0.14717123398E+04  0.14717123398E+04  0.25500000000E-02 0. -1.
         -2   -1    0    0    0  501 -0.00000000000E+00 -0.00000000000E+00 -0.29708161890E+03  0.29708161891E+03  0.25500000000E-02 0.  1.
    8880022    1    1    2    0    0  0.20065986476E+03 -0.22825420392E+03  0.13456539679E+04  0.13879987815E+04  0.15294330000E+03 0.  0.
    8880022    1    1    2    0    0 -0.20065986476E+03  0.22825420392E+03 -0.17102324707E+03  0.38079517721E+03  0.15294330000E+03 0.  0.
<mgrwt>
<rscale>  0 0.34022936E+03</rscale>
<asrwt>0</asrwt>
<pdfrwt beam="1">  1        2 0.22641729E+00 0.34022936E+03</pdfrwt>
<pdfrwt beam="2">  1       -2 0.45704863E-01 0.34022936E+03</pdfrwt>
<totfact> 0.64736867E+01</totfact>
</mgrwt>
</event>
<event>
 4    1  0.4639964E-008  0.5506771E+03  0.7818608E-02  0.1001337E+00
         -2   -1    0    0    0  501 -0.00000000000E+00  0.00000000000E+00  0.25057987498E+03  0.25057987499E+03  0.25500000000E-02 0.  1.
          2   -1    0    0  501    0  0.00000000000E+00 -0.00000000000E+00 -0.33671099251E+04  0.33671099251E+04  0.25500000000E-02 0. -1.
    8880022    1    1    2    0    0 -0.28133087656E+03  0.44800288882E+03 -0.11052266220E+03  0.56165875972E+03  0.15294330000E+03 0.  0.
    8880022    1    1    2    0    0  0.28133087656E+03 -0.44800288882E+03 -0.30060073879E+04  0.30560310404E+04  0.15294330000E+03 0.  0.
<mgrwt>
<rscale>  0 0.55067713E+03</rscale>
<asrwt>0</asrwt>
<pdfrwt beam="1">  1        2 0.51801688E+00 0.55067713E+03</pdfrwt>
<pdfrwt beam="2">  1       -2 0.38550753E-01 0.55067713E+03</pdfrwt>
<totfact> 0.71975313E+00</totfact>
</mgrwt>
</event>
<event>
 4    1  0.4639964E-008  0.1331640E+04  0.7818608E-02  0.9004844E-01
         -2   -1    0    0    0  501 -0.00000000000E+00  0.00000000000E+00  0.12253290491E+04  0.12253290491E+04  0.25500000000E-02 0.  1.
          2   -1    0    0  501    0  0.00000000000E+00 -0.00000000000E+00 -0.17942230171E+04  0.17942230171E+04  0.25500000000E-02 0. -1.
    8880022    1    1    2    0    0  0.33348669111E+03 -0.12801010637E+04  0.37955598531E+03  0.13846755958E+04  0.15294330000E+03 0.  0.
    8880022    1    1    2    0    0 -0.33348669111E+03  0.12801010637E+04 -0.94844995326E+03  0.16348764704E+04  0.15294330000E+03 0.  0.
<mgrwt>
<rscale>  0 0.13316395E+04</rscale>
<asrwt>0</asrwt>
<pdfrwt beam="1">  1        2 0.27603431E+00 0.13316395E+04</pdfrwt>
<pdfrwt beam="2">  1       -2 0.18851216E+00 0.13316395E+04</pdfrwt>
<totfact> 0.13190390E+00</totfact>
</mgrwt>
</event>
<event>
 4    1  0.4639964E-008  0.7564074E+03  0.7818608E-02  0.9625351E-01
         -2   -1    0    0    0  501 -0.00000000000E+00  0.00000000000E+00  0.20225274675E+03  0.20225274676E+03  0.25500000000E-02 0.  1.
          2   -1    0    0  501    0  0.00000000000E+00 -0.00000000000E+00 -0.52700727981E+04  0.52700727981E+04  0.25500000000E-02 0. -1.
    8880022    1    1    2    0    0 -0.61772545241E+03  0.40887142459E+03 -0.43961392266E+04  0.44607389891E+04  0.15294330000E+03 0.  0.
    8880022    1    1    2    0    0  0.61772545241E+03 -0.40887142459E+03 -0.67168082475E+03  0.10115865557E+04  0.15294330000E+03 0.  0.
<mgrwt>
<rscale>  0 0.75640745E+03</rscale>
<asrwt>0</asrwt>
<pdfrwt beam="1">  1        2 0.81078033E+00 0.75640745E+03</pdfrwt>
<pdfrwt beam="2">  1       -2 0.31115811E-01 0.75640745E+03</pdfrwt>
<totfact> 0.16709864E-01</totfact>
</mgrwt>
</event>
<event>
 4    1  0.4639964E-008  0.1008400E+04  0.7818608E-02  0.9299380E-01
          2   -1    0    0  501    0  0.00000000000E+00  0.00000000000E+00  0.25653573490E+04  0.25653573490E+04  0.25500000000E-02 0. -1.
         -2   -1    0    0    0  501 -0.00000000000E+00 -0.00000000000E+00 -0.67042911721E+03  0.67042911721E+03  0.25500000000E-02 0.  1.
    8880022    1    1    2    0    0  0.39521644592E+03 -0.91503138549E+03  0.19818518722E+04  0.22236472229E+04  0.15294330000E+03 0.  0.
    8880022    1    1    2    0    0 -0.39521644592E+03  0.91503138549E+03 -0.86923640417E+02  0.10121392433E+04  0.15294330000E+03 0.  0.
<mgrwt>
<rscale>  0 0.10083998E+04</rscale>
<asrwt>0</asrwt>
<pdfrwt beam="1">  1        2 0.39467037E+00 0.10083998E+04</pdfrwt>
<pdfrwt beam="2">  1       -2 0.10314294E+00 0.10083998E+04</pdfrwt>
<totfact> 0.24672362E+00</totfact>
</mgrwt>
</event>
<event>
 4    1  0.4639964E-008  0.2447032E+03  0.7818608E-02  0.1116699E+00
          2   -1    0    0  501    0  0.00000000000E+00  0.00000000000E+00  0.10340399156E+04  0.10340399156E+04  0.25500000000E-02 0. -1.
         -2   -1    0    0    0  501 -0.00000000000E+00 -0.00000000000E+00 -0.46416385290E+03  0.46416385291E+03  0.25500000000E-02 0.  1.
    8880022    1    1    2    0    0 -0.67176888245E+01 -0.19090016891E+03 -0.41587925085E+03  0.48253000542E+03  0.15294330000E+03 0.  0.
    8880022    1    1    2    0    0  0.67176888245E+01  0.19090016891E+03  0.98575531355E+03  0.10156737631E+04  0.15294330000E+03 0. -1.
<mgrwt>
<rscale>  0 0.24470320E+03</rscale>
<asrwt>0</asrwt>
<pdfrwt beam="1">  1        2 0.15908306E+00 0.24470320E+03</pdfrwt>
<pdfrwt beam="2">  1       -2 0.71409825E-01 0.24470320E+03</pdfrwt>
<totfact> 0.46748610E+01</totfact>
</mgrwt>
</event>
<event>
 4    1  0.4639964E-008  0.2719471E+03  0.7818608E-02  0.1100170E+00
         -2   -1    0    0    0  501 -0.00000000000E+00  0.00000000000E+00  0.82534831391E+02  0.82534831430E+02  0.25500000000E-02 0.  1.
          2   -1    0    0  501    0  0.00000000000E+00 -0.00000000000E+00 -0.23076487087E+04  0.23076487087E+04  0.25500000000E-02 0. -1.
    8880022    1    1    2    0    0 -0.13516648273E+03 -0.17970411475E+03 -0.17785684485E+03  0.32494346768E+03  0.15294330000E+03 0.  1.
    8880022    1    1    2    0    0  0.13516648273E+03  0.17970411475E+03 -0.20472570324E+04  0.20652400724E+04  0.15294330000E+03 0.  0.
<mgrwt>
<rscale>  0 0.27194705E+03</rscale>
<asrwt>0</asrwt>
<pdfrwt beam="1">  1        2 0.35502283E+00 0.27194705E+03</pdfrwt>
<pdfrwt beam="2">  1       -2 0.12697668E-01 0.27194705E+03</pdfrwt>
<totfact> 0.23064885E+02</totfact>
</mgrwt>
</event>
<event>
 4    1  0.4639964E-008  0.5011320E+03  0.7818608E-02  0.1013484E+00
          2   -1    0    0  501    0  0.00000000000E+00  0.00000000000E+00  0.15361292330E+04  0.15361292330E+04  0.25500000000E-02 0. -1.
         -2   -1    0    0    0  501 -0.00000000000E+00 -0.00000000000E+00 -0.22481266853E+03  0.22481266854E+03  0.25500000000E-02 0.  1.
    8880022    1    1    2    0    0  0.55381693158E+02 -0.47399838295E+03  0.11155279817E+04  0.12229210645E+04  0.15294330000E+03 0.  0.
    8880022    1    1    2    0    0 -0.55381693158E+02  0.47399838295E+03  0.19578858279E+03  0.53802083709E+03  0.15294330000E+03 0.  0.
<mgrwt>
<rscale>  0 0.50113197E+03</rscale>
<asrwt>0</asrwt>
<pdfrwt beam="1">  1        2 0.23632758E+00 0.50113197E+03</pdfrwt>
<pdfrwt beam="2">  1       -2 0.34586564E-01 0.50113197E+03</pdfrwt>
<totfact> 0.99441658E+01</totfact>
</mgrwt>
</event>
<event>
 4    1  0.4639964E-008  0.1942192E+03  0.7818608E-02  0.1154710E+00
          2   -1    0    0  501    0  0.00000000000E+00  0.00000000000E+00  0.12406076500E+04  0.12406076500E+04  0.25500000000E-02 0. -1.
         -2   -1    0    0    0  501 -0.00000000000E+00 -0.00000000000E+00 -0.34997364516E+03  0.34997364517E+03  0.25500000000E-02 0.  1.
    8880022    1    1    2    0    0  0.69202222390E+02  0.97675418651E+02  0.12052758222E+04  0.12208238594E+04  0.15294330000E+03 0.  0.
    8880022    1    1    2    0    0 -0.69202222390E+02 -0.97675418651E+02 -0.31464181743E+03  0.36975743574E+03  0.15294330000E+03 0.  1.
<mgrwt>
<rscale>  0 0.19421918E+03</rscale>
<asrwt>0</asrwt>
<pdfrwt beam="1">  1        2 0.19086271E+00 0.19421918E+03</pdfrwt>
<pdfrwt beam="2">  1       -2 0.53842099E-01 0.19421918E+03</pdfrwt>
<totfact> 0.65045723E+01</totfact>
</mgrwt>
</event>
<event>
 4    1  0.4639964E-008  0.1088636E+04  0.7818608E-02  0.9216339E-01
         -2   -1    0    0    0  501 -0.00000000000E+00  0.00000000000E+00  0.44285141313E+03  0.44285141314E+03  0.25500000000E-02 0.  1.
          2   -1    0    0  501    0  0.00000000000E+00 -0.00000000000E+00 -0.31676539596E+04  0.31676539596E+04  0.25500000000E-02 0. -1.
    8880022    1    1    2    0    0  0.65275007668E+03  0.85770297841E+03 -0.20735177138E+04  0.23419232319E+04  0.15294330000E+03 0.  0.
    8880022    1    1    2    0    0 -0.65275007668E+03 -0.85770297841E+03 -0.65128483272E+03  0.12685821409E+04  0.15294330000E+03 0.  0.
<mgrwt>
<rscale>  0 0.10886362E+04</rscale>
<asrwt>0</asrwt>
<pdfrwt beam="1">  1        2 0.48733136E+00 0.10886362E+04</pdfrwt>
<pdfrwt beam="2">  1       -2 0.68130989E-01 0.10886362E+04</pdfrwt>
<totfact> 0.27196814E+00</totfact>
</mgrwt>
</event>
<event>
 4    1  0.4639964E-008  0.6921450E+03  0.7818608E-02  0.9730760E-01
         -2   -1    0    0    0  501 -0.00000000000E+00  0.00000000000E+00  0.44078962041E+03  0.44078962042E+03  0.25500000000E-02 0.  1.
          2   -1    0    0  501    0  0.00000000000E+00 -0.00000000000E+00 -0.15785136919E+04  0.15785136919E+04  0.25500000000E-02 0. -1.
    8880022    1    1    2    0    0 -0.30692521762E+03  0.60122376039E+03 -0.53685295315E+01  0.69216585685E+03  0.15294330000E+03 0.  0.
    8880022    1    1    2    0    0  0.30692521762E+03 -0.60122376039E+03 -0.11323555420E+04  0.13271374555E+04  0.15294330000E+03 0.  0.
<mgrwt>
<rscale>  0 0.69214504E+03</rscale>
<asrwt>0</asrwt>
<pdfrwt beam="1">  1        2 0.24284826E+00 0.69214504E+03</pdfrwt>
<pdfrwt beam="2">  1       -2 0.67813789E-01 0.69214504E+03</pdfrwt>
<totfact> 0.23586205E+01</totfact>
</mgrwt>
</event>
<event>
 4    1  0.4639964E-008  0.1108819E+04  0.7818608E-02  0.9196639E-01
         -2   -1    0    0    0  501 -0.00000000000E+00  0.00000000000E+00  0.18625717756E+04  0.18625717756E+04  0.25500000000E-02 0.  1.
          2   -1    0    0  501    0  0.00000000000E+00 -0.00000000000E+00 -0.13333281100E+04  0.13333281100E+04  0.25500000000E-02 0. -1.
    8880022    1    1    2    0    0  0.62775398563E+02 -0.10964248418E+04 -0.87085016951E+03  0.14099148396E+04  0.15294330000E+03 0.  0.
    8880022    1    1    2    0    0 -0.62775398563E+02  0.10964248418E+04  0.14000938351E+04  0.17859850459E+04  0.15294330000E+03 0.  0.
<mgrwt>
<rscale>  0 0.11088191E+04</rscale>
<asrwt>0</asrwt>
<pdfrwt beam="1">  1        2 0.20512740E+00 0.11088191E+04</pdfrwt>
<pdfrwt beam="2">  1       -2 0.28654951E+00 0.11088191E+04</pdfrwt>
<totfact> 0.59910658E-01</totfact>
</mgrwt>
</event>
<event>
 4    1  0.4639964E-008  0.6681291E+03  0.7818608E-02  0.9773343E-01
         -2   -1    0    0    0  501 -0.00000000000E+00  0.00000000000E+00  0.28865264756E+03  0.28865264757E+03  0.25500000000E-02 0.  1.
          2   -1    0    0  501    0  0.00000000000E+00 -0.00000000000E+00 -0.19405715863E+04  0.19405715863E+04  0.25500000000E-02 0. -1.
    8880022    1    1    2    0    0  0.46507328687E+03 -0.45465560461E+03 -0.32366820848E+03  0.74239992131E+03  0.15294330000E+03 0.  0.
    8880022    1    1    2    0    0 -0.46507328687E+03  0.45465560461E+03 -0.13282507302E+04  0.14868243125E+04  0.15294330000E+03 0.  0.
<mgrwt>
<rscale>  0 0.66812913E+03</rscale>
<asrwt>0</asrwt>
<pdfrwt beam="1">  1        2 0.29854947E+00 0.66812913E+03</pdfrwt>
<pdfrwt beam="2">  1       -2 0.44408101E-01 0.66812913E+03</pdfrwt>
<totfact> 0.36120286E+01</totfact>
</mgrwt>
</event>
<event>
 4    1  0.4639964E-008  0.4577363E+03  0.7818608E-02  0.1025440E+00
          2   -1    0    0  501    0  0.00000000000E+00  0.00000000000E+00  0.10736507882E+04  0.10736507882E+04  0.25500000000E-02 0. -1.
         -2   -1    0    0    0  501 -0.00000000000E+00 -0.00000000000E+00 -0.34008775285E+03  0.34008775286E+03  0.25500000000E-02 0.  1.
    8880022    1    1    2    0    0 -0.19412145374E+03  0.38528917450E+03 -0.94679417595E+02  0.46742564320E+03  0.15294330000E+03 0.  1.
    8880022    1    1    2    0    0  0.19412145374E+03 -0.38528917450E+03  0.82824245295E+03  0.94631289787E+03  0.15294330000E+03 0.  0.
<mgrwt>
<rscale>  0 0.45773632E+03</rscale>
<asrwt>0</asrwt>
<pdfrwt beam="1">  1        2 0.16517704E+00 0.45773632E+03</pdfrwt>
<pdfrwt beam="2">  1       -2 0.52321194E-01 0.45773632E+03</pdfrwt>
<totfact> 0.81559780E+01</totfact>
</mgrwt>
</event>
<event>
 4    1  0.4639964E-008  0.6359039E+03  0.7818608E-02  0.9833595E-01
         -2   -1    0    0    0  501 -0.00000000000E+00  0.00000000000E+00  0.75438764335E+03  0.75438764336E+03  0.25500000000E-02 0.  1.
          2   -1    0    0  501    0  0.00000000000E+00 -0.00000000000E+00 -0.10123939799E+04  0.10123939799E+04  0.25500000000E-02 0. -1.
    8880022    1    1    2    0    0  0.18814843069E+03  0.58786247080E+03 -0.73496873186E+03  0.97188106596E+03  0.15294330000E+03 0.  0.
    8880022    1    1    2    0    0 -0.18814843069E+03 -0.58786247080E+03  0.47696239527E+03  0.79490055734E+03  0.15294330000E+03 0.  1.
<mgrwt>
<rscale>  0 0.63590390E+03</rscale>
<asrwt>0</asrwt>
<pdfrwt beam="1">  1        2 0.15575292E+00 0.63590390E+03</pdfrwt>
<pdfrwt beam="2">  1       -2 0.11605964E+00 0.63590390E+03</pdfrwt>
<totfact> 0.14703921E+01</totfact>
</mgrwt>
</event>
<event>
 4    1  0.4639964E-008  0.6497653E+03  0.7818608E-02  0.9807220E-01
          2   -1    0    0  501    0  0.00000000000E+00  0.00000000000E+00  0.33275689121E+03  0.33275689122E+03  0.25500000000E-02 0. -1.
         -2   -1    0    0    0  501 -0.00000000000E+00 -0.00000000000E+00 -0.17216016484E+04  0.17216016484E+04  0.25500000000E-02 0.  1.
    8880022    1    1    2    0    0  0.21951074633E+03 -0.59213036662E+03 -0.12212201503E+04  0.13833197921E+04  0.15294330000E+03 0.  0.
    8880022    1    1    2    0    0 -0.21951074633E+03  0.59213036662E+03 -0.16762460696E+03  0.67103874754E+03  0.15294330000E+03 0.  0.
<mgrwt>
<rscale>  0 0.64976534E+03</rscale>
<asrwt>0</asrwt>
<pdfrwt beam="1">  1        2 0.51193369E-01 0.64976534E+03</pdfrwt>
<pdfrwt beam="2">  1       -2 0.26486179E+00 0.64976534E+03</pdfrwt>
<totfact> 0.53245372E+00</totfact>
</mgrwt>
</event>
<event>
 4    1  0.4639964E-008  0.4523268E+03  0.7818608E-02  0.1027030E+00
          2   -1    0    0  501    0  0.00000000000E+00  0.00000000000E+00  0.13174595378E+04  0.13174595378E+04  0.25500000000E-02 0. -1.
         -2   -1    0    0    0  501 -0.00000000000E+00 -0.00000000000E+00 -0.19926036932E+03  0.19926036933E+03  0.25500000000E-02 0.  1.
    8880022    1    1    2    0    0  0.38674110646E+03  0.17787400909E+03  0.91530700738E+03  0.10209732696E+04  0.15294330000E+03 0.  0.
    8880022    1    1    2    0    0 -0.38674110646E+03 -0.17787400909E+03  0.20289216109E+03  0.49574663749E+03  0.15294330000E+03 0.  0.
<mgrwt>
<rscale>  0 0.45232676E+03</rscale>
<asrwt>0</asrwt>
<pdfrwt beam="1">  1        2 0.20268609E+00 0.45232676E+03</pdfrwt>
<pdfrwt beam="2">  1       -2 0.30655440E-01 0.45232676E+03</pdfrwt>
<totfact> 0.16573150E+02</totfact>
</mgrwt>
</event>
<event>
 4    1  0.4639964E-008  0.3984755E+03  0.7818608E-02  0.1044309E+00
          2   -1    0    0  501    0  0.00000000000E+00  0.00000000000E+00  0.14204109179E+04  0.14204109179E+04  0.25500000000E-02 0. -1.
         -2   -1    0    0    0  501 -0.00000000000E+00 -0.00000000000E+00 -0.11830515540E+03  0.11830515542E+03  0.25500000000E-02 0.  1.
    8880022    1    1    2    0    0  0.23680674350E+03  0.28162678818E+03  0.83164815739E+03  0.92218294946E+03  0.15294330000E+03 0.  0.
    8880022    1    1    2    0    0 -0.23680674350E+03 -0.28162678818E+03  0.47045760509E+03  0.61653312384E+03  0.15294330000E+03 0.  0.
<mgrwt>
<rscale>  0 0.39847551E+03</rscale>
<asrwt>0</asrwt>
<pdfrwt beam="1">  1        2 0.21852475E+00 0.39847551E+03</pdfrwt>
<pdfrwt beam="2">  1       -2 0.18200793E-01 0.39847551E+03</pdfrwt>
<totfact> 0.36850190E+02</totfact>
</mgrwt>
</event>
<event>
 4    1  0.5181531E-008  0.6071114E+03  0.7818608E-02  0.9890761E-01
          2   -1    0    0  501    0  0.00000000000E+00  0.00000000000E+00  0.19773724827E+04  0.19773724827E+04  0.25500000000E-02 0. -1.
         -2   -1    0    0    0  501 -0.00000000000E+00 -0.00000000000E+00 -0.12826892156E+04  0.12826892156E+04  0.25500000000E-02 0.  1.
    8880022    1    1    2    0    0  0.25701517830E+03  0.52833302165E+03  0.18542868771E+04  0.19511442949E+04  0.15294330000E+03 0.  0.
    8880022    1    1    2    0    0 -0.25701517830E+03 -0.52833302165E+03 -0.11596036100E+04  0.13089174034E+04  0.15294330000E+03 0.  0.
<mgrwt>
<rscale>  0 0.60711139E+03</rscale>
<asrwt>0</asrwt>
<pdfrwt beam="1">  1        2 0.30421115E+00 0.60711139E+03</pdfrwt>
<pdfrwt beam="2">  1       -2 0.19733680E+00 0.60711139E+03</pdfrwt>
<totfact> 0.10261847E+00</totfact>
</mgrwt>
</event>
<event>
 4    1  0.4639964E-008  0.2749800E+03  0.7818608E-02  0.1098463E+00
          2   -1    0    0  501    0  0.00000000000E+00  0.00000000000E+00  0.90751487693E+02  0.90751487729E+02  0.25500000000E-02 0. -1.
         -2   -1    0    0    0  501 -0.00000000000E+00 -0.00000000000E+00 -0.10930630517E+04  0.10930630517E+04  0.25500000000E-02 0.  1.
    8880022    1    1    2    0    0  0.22688938327E+03 -0.27268385007E+02 -0.78976123079E+03  0.83626360182E+03  0.15294330000E+03 0.  0.
    8880022    1    1    2    0    0 -0.22688938327E+03  0.27268385007E+02 -0.21255033319E+03  0.34755093758E+03  0.15294330000E+03 0.  0.
<mgrwt>
<rscale>  0 0.27498002E+03</rscale>
<asrwt>0</asrwt>
<pdfrwt beam="1">  1        2 0.13961768E-01 0.27498002E+03</pdfrwt>
<pdfrwt beam="2">  1       -2 0.16816354E+00 0.27498002E+03</pdfrwt>
<totfact> 0.99762360E+01</totfact>
</mgrwt>
</event>
<event>
 4    1  0.4639964E-008  0.1877826E+03  0.7818608E-02  0.1160477E+00
          2   -1    0    0  501    0  0.00000000000E+00  0.00000000000E+00  0.16123925935E+04  0.16123925935E+04  0.25500000000E-02 0. -1.
         -2   -1    0    0    0  501 -0.00000000000E+00 -0.00000000000E+00 -0.23587647445E+03  0.23587647447E+03  0.25500000000E-02 0.  1.
    8880022    1    1    2    0    0  0.10099665421E+03 -0.40869415924E+02 -0.19199350869E+03  0.26855873420E+03  0.15294330000E+03 0.  0.
    8880022    1    1    2    0    0 -0.10099665421E+03  0.40869415924E+02  0.15685096277E+04  0.15797103337E+04  0.15294330000E+03 0. -1.
<mgrwt>
<rscale>  0 0.18778255E+03</rscale>
<asrwt>0</asrwt>
<pdfrwt beam="1">  1        2 0.24806040E+00 0.18778255E+03</pdfrwt>
<pdfrwt beam="2">  1       -2 0.36288689E-01 0.18778255E+03</pdfrwt>
<totfact> 0.88722486E+01</totfact>
</mgrwt>
</event>
<event>
 4    1  0.4639964E-008  0.7438376E+03  0.7818608E-02  0.9645068E-01
          2   -1    0    0  501    0  0.00000000000E+00  0.00000000000E+00  0.22794949562E+04  0.22794949562E+04  0.25500000000E-02 0. -1.
         -2   -1    0    0    0  501 -0.00000000000E+00 -0.00000000000E+00 -0.68134968209E+03  0.68134968210E+03  0.25500000000E-02 0.  1.
    8880022    1    1    2    0    0  0.46295682516E+03 -0.56175949740E+03  0.19868806777E+04  0.21215534958E+04  0.15294330000E+03 0.  0.
    8880022    1    1    2    0    0 -0.46295682516E+03  0.56175949740E+03 -0.38873540362E+03  0.83929114253E+03  0.15294330000E+03 0.  0.
<mgrwt>
<rscale>  0 0.74383762E+03</rscale>
<asrwt>0</asrwt>
<pdfrwt beam="1">  1        2 0.35069153E+00 0.74383762E+03</pdfrwt>
<pdfrwt beam="2">  1       -2 0.10482303E+00 0.74383762E+03</pdfrwt>
<totfact> 0.35912583E+00</totfact>
</mgrwt>
</event>
<event>
 4    1  0.4639964E-008  0.3090006E+03  0.7818608E-02  0.1080826E+00
          2   -1    0    0  501    0  0.00000000000E+00  0.00000000000E+00  0.82358312725E+03  0.82358312725E+03  0.25500000000E-02 0. -1.
         -2   -1    0    0    0  501 -0.00000000000E+00 -0.00000000000E+00 -0.26550251195E+03  0.26550251196E+03  0.25500000000E-02 0.  1.
    8880022    1    1    2    0    0 -0.26773072731E+03 -0.20247332750E+02  0.68775259372E+03  0.75397942944E+03  0.15294330000E+03 0.  0.
    8880022    1    1    2    0    0  0.26773072731E+03  0.20247332750E+02 -0.12967197842E+03  0.33510620978E+03  0.15294330000E+03 0.  0.
<mgrwt>
<rscale>  0 0.30900057E+03</rscale>
<asrwt>0</asrwt>
<pdfrwt beam="1">  1        2 0.12670509E+00 0.30900057E+03</pdfrwt>
<pdfrwt beam="2">  1       -2 0.40846541E-01 0.30900057E+03</pdfrwt>
<totfact> 0.19654039E+02</totfact>
</mgrwt>
</event>
<event>
 4    1  0.4639964E-008  0.7547676E+03  0.7818608E-02  0.9627900E-01
          2   -1    0    0  501    0  0.00000000000E+00  0.00000000000E+00  0.13775949700E+04  0.13775949700E+04  0.25500000000E-02 0. -1.
         -2   -1    0    0    0  501 -0.00000000000E+00 -0.00000000000E+00 -0.49327350163E+03  0.49327350164E+03  0.25500000000E-02 0.  1.
    8880022    1    1    2    0    0  0.39668305428E+03 -0.62363852178E+03  0.66044186086E+02  0.75765159469E+03  0.15294330000E+03 0.  0.
    8880022    1    1    2    0    0 -0.39668305428E+03  0.62363852178E+03  0.81827728227E+03  0.11132168769E+04  0.15294330000E+03 0.  0.
<mgrwt>
<rscale>  0 0.75476758E+03</rscale>
<asrwt>0</asrwt>
<pdfrwt beam="1">  1        2 0.21193768E+00 0.75476758E+03</pdfrwt>
<pdfrwt beam="2">  1       -2 0.75888232E-01 0.75476758E+03</pdfrwt>
<totfact> 0.23676012E+01</totfact>
</mgrwt>
</event>
<event>
 4    1  0.4639964E-008  0.1036476E+04  0.7818608E-02  0.9269419E-01
         -2   -1    0    0    0  501 -0.00000000000E+00  0.00000000000E+00  0.90359289823E+03  0.90359289824E+03  0.25500000000E-02 0.  1.
          2   -1    0    0  501    0  0.00000000000E+00 -0.00000000000E+00 -0.18532586221E+04  0.18532586221E+04  0.25500000000E-02 0. -1.
    8880022    1    1    2    0    0  0.83310099835E+03 -0.59735601989E+03 -0.13001409387E+04  0.16627235493E+04  0.15294330000E+03 0.  0.
    8880022    1    1    2    0    0 -0.83310099835E+03  0.59735601989E+03  0.35047521475E+03  0.10941279711E+04  0.15294330000E+03 0.  0.
<mgrwt>
<rscale>  0 0.10364763E+04</rscale>
<asrwt>0</asrwt>
<pdfrwt beam="1">  1        2 0.28511671E+00 0.10364763E+04</pdfrwt>
<pdfrwt beam="2">  1       -2 0.13901429E+00 0.10364763E+04</pdfrwt>
<totfact> 0.29243297E+00</totfact>
</mgrwt>
</event>
<event>
 4    1  0.4639964E-008  0.2939884E+03  0.7818608E-02  0.1088285E+00
          2   -1    0    0  501    0  0.00000000000E+00  0.00000000000E+00  0.16038132242E+04  0.16038132242E+04  0.25500000000E-02 0. -1.
         -2   -1    0    0    0  501 -0.00000000000E+00 -0.00000000000E+00 -0.44563539781E+03  0.44563539782E+03  0.25500000000E-02 0.  1.
    8880022    1    1    2    0    0 -0.23290526817E+03  0.93769208522E+02 -0.38168070077E+03  0.48177727091E+03  0.15294330000E+03 0.  0.
    8880022    1    1    2    0    0  0.23290526817E+03 -0.93769208522E+02  0.15398585271E+04  0.15676713511E+04  0.15294330000E+03 0.  0.
<mgrwt>
<rscale>  0 0.29398840E+03</rscale>
<asrwt>0</asrwt>
<pdfrwt beam="1">  1        2 0.24674050E+00 0.29398840E+03</pdfrwt>
<pdfrwt beam="2">  1       -2 0.68559291E-01 0.29398840E+03</pdfrwt>
<totfact> 0.24184053E+01</totfact>
</mgrwt>
</event>
<event>
 4    1  0.4639964E-008  0.4959202E+03  0.7818608E-02  0.1014849E+00
         -2   -1    0    0    0  501 -0.00000000000E+00  0.00000000000E+00  0.88814170440E+02  0.88814170477E+02  0.25500000000E-02 0.  1.
          2   -1    0    0  501    0  0.00000000000E+00 -0.00000000000E+00 -0.58216069616E+04  0.58216069616E+04  0.25500000000E-02 0. -1.
    8880022    1    1    2    0    0 -0.55823981619E+02  0.46843237349E+03 -0.50062994027E+04  0.50308021794E+04  0.15294330000E+03 0.  0.
    8880022    1    1    2    0    0  0.55823981619E+02 -0.46843237349E+03 -0.72649338840E+03  0.87961895265E+03  0.15294330000E+03 0.  0.
<mgrwt>
<rscale>  0 0.49592021E+03</rscale>
<asrwt>0</asrwt>
<pdfrwt beam="1">  1        2 0.89563154E+00 0.49592021E+03</pdfrwt>
<pdfrwt beam="2">  1       -2 0.13663723E-01 0.49592021E+03</pdfrwt>
<totfact> 0.69383505E-02</totfact>
</mgrwt>
</event>
<event>
 4    1  0.4639964E-008  0.1611537E+03  0.7818608E-02  0.1187400E+00
          2   -1    0    0  501    0  0.00000000000E+00  0.00000000000E+00  0.11788091269E+04  0.11788091269E+04  0.25500000000E-02 0. -1.
         -2   -1    0    0    0  501 -0.00000000000E+00 -0.00000000000E+00 -0.20966783325E+03  0.20966783327E+03  0.25500000000E-02 0.  1.
    8880022    1    1    2    0    0 -0.28181178636E+02 -0.42245443619E+02  0.11413230389E+04  0.11526442593E+04  0.15294330000E+03 0. -1.
    8880022    1    1    2    0    0  0.28181178636E+02  0.42245443619E+02 -0.17218174532E+03  0.23583270081E+03  0.15294330000E+03 0.  0.
<mgrwt>
<rscale>  0 0.16115368E+03</rscale>
<asrwt>0</asrwt>
<pdfrwt beam="1">  1        2 0.18135525E+00 0.16115368E+03</pdfrwt>
<pdfrwt beam="2">  1       -2 0.32256590E-01 0.16115368E+03</pdfrwt>
<totfact> 0.19030529E+02</totfact>
</mgrwt>
</event>
<event>
 4    1  0.4639964E-008  0.2967075E+03  0.7818608E-02  0.1086898E+00
          2   -1    0    0  501    0  0.00000000000E+00  0.00000000000E+00  0.86768389452E+03  0.86768389452E+03  0.25500000000E-02 0. -1.
         -2   -1    0    0    0  501 -0.00000000000E+00 -0.00000000000E+00 -0.27109892464E+03  0.27109892465E+03  0.25500000000E-02 0.  1.
    8880022    1    1    2    0    0  0.15226353583E+03  0.20361605154E+03  0.74870410154E+03  0.80535282049E+03  0.15294330000E+03 0.  0.
    8880022    1    1    2    0    0 -0.15226353583E+03 -0.20361605154E+03 -0.15211913166E+03  0.33342999868E+03  0.15294330000E+03 0.  0.
<mgrwt>
<rscale>  0 0.29670749E+03</rscale>
<asrwt>0</asrwt>
<pdfrwt beam="1">  1        2 0.13348983E+00 0.29670749E+03</pdfrwt>
<pdfrwt beam="2">  1       -2 0.41707527E-01 0.29670749E+03</pdfrwt>
<totfact> 0.17655012E+02</totfact>
</mgrwt>
</event>
<event>
 4    1  0.4639964E-008  0.3009724E+03  0.7818608E-02  0.1084756E+00
          2   -1    0    0  501    0  0.00000000000E+00  0.00000000000E+00  0.20594761605E+04  0.20594761605E+04  0.25500000000E-02 0. -1.
         -2   -1    0    0    0  501 -0.00000000000E+00 -0.00000000000E+00 -0.91969083915E+02  0.91969083951E+02  0.25500000000E-02 0.  1.
    8880022    1    1    2    0    0  0.29841277142E+02  0.25749216637E+03  0.17607726222E+04  0.17863103308E+04  0.15294330000E+03 0.  0.
    8880022    1    1    2    0    0 -0.29841277142E+02 -0.25749216637E+03  0.20673445435E+03  0.36513491369E+03  0.15294330000E+03 0.  1.
<mgrwt>
<rscale>  0 0.30097238E+03</rscale>
<asrwt>0</asrwt>
<pdfrwt beam="1">  1        2 0.31684245E+00 0.30097238E+03</pdfrwt>
<pdfrwt beam="2">  1       -2 0.14149091E-01 0.30097238E+03</pdfrwt>
<totfact> 0.26008197E+02</totfact>
</mgrwt>
</event>
<event>
 4    1  0.4639964E-008  0.1091742E+04  0.7818608E-02  0.9213278E-01
          2   -1    0    0  501    0  0.00000000000E+00  0.00000000000E+00  0.21594152658E+04  0.21594152658E+04  0.25500000000E-02 0. -1.
         -2   -1    0    0    0  501 -0.00000000000E+00 -0.00000000000E+00 -0.63182021945E+03  0.63182021946E+03  0.25500000000E-02 0.  1.
    8880022    1    1    2    0    0  0.10620138957E+04  0.20158362361E+03  0.12599866202E+04  0.16671734787E+04  0.15294330000E+03 0.  0.
    8880022    1    1    2    0    0 -0.10620138957E+04 -0.20158362361E+03  0.26760842623E+03  0.11240620066E+04  0.15294330000E+03 0.  0.
<mgrwt>
<rscale>  0 0.10917422E+04</rscale>
<asrwt>0</asrwt>
<pdfrwt beam="1">  1        2 0.33221773E+00 0.10917422E+04</pdfrwt>
<pdfrwt beam="2">  1       -2 0.97203111E-01 0.10917422E+04</pdfrwt>
<totfact> 0.47683964E+00</totfact>
</mgrwt>
</event>
<event>
 4    1  0.4639964E-008  0.4268898E+03  0.7818608E-02  0.1034847E+00
         -2   -1    0    0    0  501 -0.00000000000E+00  0.00000000000E+00  0.19481488009E+03  0.19481488011E+03  0.25500000000E-02 0.  1.
          2   -1    0    0  501    0  0.00000000000E+00 -0.00000000000E+00 -0.24474726369E+04  0.24474726369E+04  0.25500000000E-02 0. -1.
    8880022    1    1    2    0    0 -0.33092664661E+03  0.22210531426E+03 -0.87907133323E+02  0.43584691483E+03  0.15294330000E+03 0.  0.
    8880022    1    1    2    0    0  0.33092664661E+03 -0.22210531426E+03 -0.21647506234E+04  0.22064406021E+04  0.15294330000E+03 0. -1.
<mgrwt>
<rscale>  0 0.42688976E+03</rscale>
<asrwt>0</asrwt>
<pdfrwt beam="1">  1        2 0.37653423E+00 0.42688976E+03</pdfrwt>
<pdfrwt beam="2">  1       -2 0.29971522E-01 0.42688976E+03</pdfrwt>
<totfact> 0.42296020E+01</totfact>
</mgrwt>
</event>
<event>
 4    1  0.4639964E-008  0.7585999E+03  0.7818608E-02  0.9621954E-01
          2   -1    0    0  501    0  0.00000000000E+00  0.00000000000E+00  0.11531633123E+04  0.11531633123E+04  0.25500000000E-02 0. -1.
         -2   -1    0    0    0  501 -0.00000000000E+00 -0.00000000000E+00 -0.52403782327E+03  0.52403782328E+03  0.25500000000E-02 0.  1.
    8880022    1    1    2    0    0  0.25350805306E+03 -0.69843812138E+03  0.13140253195E+03  0.76989637015E+03  0.15294330000E+03 0.  0.
    8880022    1    1    2    0    0 -0.25350805306E+03  0.69843812138E+03  0.49772295709E+03  0.90730476544E+03  0.15294330000E+03 0.  0.
<mgrwt>
<rscale>  0 0.75859989E+03</rscale>
<asrwt>0</asrwt>
<pdfrwt beam="1">  1        2 0.17740974E+00 0.75859989E+03</pdfrwt>
<pdfrwt beam="2">  1       -2 0.80621204E-01 0.75859989E+03</pdfrwt>
<totfact> 0.27930089E+01</totfact>
</mgrwt>
</event>
<event>
 4    1  0.4639964E-008  0.3230548E+03  0.7818608E-02  0.1074252E+00
         -2   -1    0    0    0  501 -0.00000000000E+00  0.00000000000E+00  0.12549197033E+03  0.12549197035E+03  0.25500000000E-02 0.  1.
          2   -1    0    0  501    0  0.00000000000E+00 -0.00000000000E+00 -0.35581587037E+04  0.35581587037E+04  0.25500000000E-02 0. -1.
    8880022    1    1    2    0    0  0.27240101378E+03 -0.82282486109E+02 -0.33286111881E+04  0.33442513084E+04  0.15294330000E+03 0.  0.
    8880022    1    1    2    0    0 -0.27240101378E+03  0.82282486109E+02 -0.10405554529E+03  0.33939936557E+03  0.15294330000E+03 0.  0.
<mgrwt>
<rscale>  0 0.32305475E+03</rscale>
<asrwt>0</asrwt>
<pdfrwt beam="1">  1        2 0.54740895E+00 0.32305475E+03</pdfrwt>
<pdfrwt beam="2">  1       -2 0.19306460E-01 0.32305475E+03</pdfrwt>
<totfact> 0.20356752E+01</totfact>
</mgrwt>
</event>
<event>
 4    1  0.4639964E-008  0.7162877E+03  0.7818608E-02  0.9689776E-01
          2   -1    0    0  501    0  0.00000000000E+00  0.00000000000E+00  0.83878177851E+03  0.83878177851E+03  0.25500000000E-02 0. -1.
         -2   -1    0    0    0  501 -0.00000000000E+00 -0.00000000000E+00 -0.11608199173E+04  0.11608199173E+04  0.25500000000E-02 0.  1.
    8880022    1    1    2    0    0  0.18802459136E+03  0.67403504137E+03 -0.84867563319E+03  0.11105487235E+04  0.15294330000E+03 0.  0.
    8880022    1    1    2    0    0 -0.18802459136E+03 -0.67403504137E+03  0.52663749442E+03  0.88905297226E+03  0.15294330000E+03 0.  0.
<mgrwt>
<rscale>  0 0.71628775E+03</rscale>
<asrwt>0</asrwt>
<pdfrwt beam="1">  1        2 0.12904335E+00 0.71628775E+03</pdfrwt>
<pdfrwt beam="2">  1       -2 0.17858768E+00 0.71628775E+03</pdfrwt>
<totfact> 0.61365372E+00</totfact>
</mgrwt>
</event>
<event>
 4    1  0.4639964E-008  0.1761316E+03  0.7818608E-02  0.1171600E+00
          2   -1    0    0  501    0  0.00000000000E+00  0.00000000000E+00  0.20303252474E+04  0.20303252474E+04  0.25500000000E-02 0. -1.
         -2   -1    0    0    0  501 -0.00000000000E+00 -0.00000000000E+00 -0.17204432722E+02  0.17204432911E+02  0.25500000000E-02 0.  1.
    8880022    1    1    2    0    0 -0.16865556700E+02  0.85710136445E+02  0.13490042211E+04  0.13604538640E+04  0.15294330000E+03 0.  0.
    8880022    1    1    2    0    0  0.16865556700E+02 -0.85710136445E+02  0.66411659362E+03  0.68707581636E+03  0.15294330000E+03 0. -1.
<mgrwt>
<rscale>  0 0.17613156E+03</rscale>
<asrwt>0</asrwt>
<pdfrwt beam="1">  1        2 0.31235792E+00 0.17613156E+03</pdfrwt>
<pdfrwt beam="2">  1       -2 0.26468342E-02 0.17613156E+03</pdfrwt>
<totfact> 0.36555187E+03</totfact>
</mgrwt>
</event>
<event>
 4    1  0.4639964E-008  0.4370035E+03  0.7818608E-02  0.1031670E+00
          2   -1    0    0  501    0  0.00000000000E+00  0.00000000000E+00  0.17858712374E+04  0.17858712374E+04  0.25500000000E-02 0. -1.
         -2   -1    0    0    0  501 -0.00000000000E+00 -0.00000000000E+00 -0.13350650261E+03  0.13350650263E+03  0.25500000000E-02 0.  1.
    8880022    1    1    2    0    0  0.13201519934E+03  0.38749503312E+03  0.39804055283E+03  0.59110772983E+03  0.15294330000E+03 0.  1.
    8880022    1    1    2    0    0 -0.13201519934E+03 -0.38749503312E+03  0.12543241820E+04  0.13282700102E+04  0.15294330000E+03 0.  0.
<mgrwt>
<rscale>  0 0.43700351E+03</rscale>
<asrwt>0</asrwt>
<pdfrwt beam="1">  1        2 0.27474941E+00 0.43700351E+03</pdfrwt>
<pdfrwt beam="2">  1       -2 0.20539463E-01 0.43700351E+03</pdfrwt>
<totfact> 0.18886469E+02</totfact>
</mgrwt>
</event>
<event>
 4    1  0.4639964E-008  0.7258361E+03  0.7818608E-02  0.9674041E-01
         -2   -1    0    0    0  501 -0.00000000000E+00  0.00000000000E+00  0.91288379764E+03  0.91288379764E+03  0.25500000000E-02 0.  1.
          2   -1    0    0  501    0  0.00000000000E+00 -0.00000000000E+00 -0.64269959022E+03  0.64269959023E+03  0.25500000000E-02 0. -1.
    8880022    1    1    2    0    0  0.51367503687E+03  0.48947353672E+03 -0.11337187405E+03  0.73463679563E+03  0.15294330000E+03 0.  0.
    8880022    1    1    2    0    0 -0.51367503687E+03 -0.48947353672E+03  0.38355608147E+03  0.82094659224E+03  0.15294330000E+03 0.  0.
<mgrwt>
<rscale>  0 0.72583610E+03</rscale>
<asrwt>0</asrwt>
<pdfrwt beam="1">  1        2 0.98876860E-01 0.72583610E+03</pdfrwt>
<pdfrwt beam="2">  1       -2 0.14044366E+00 0.72583610E+03</pdfrwt>
<totfact> 0.16510418E+01</totfact>
</mgrwt>
</event>
<event>
 4    1  0.4639964E-008  0.6956121E+03  0.7818608E-02  0.9724766E-01
         -2   -1    0    0    0  501 -0.00000000000E+00  0.00000000000E+00  0.34842498839E+03  0.34842498840E+03  0.25500000000E-02 0.  1.
          2   -1    0    0  501    0  0.00000000000E+00 -0.00000000000E+00 -0.32213554803E+04  0.32213554803E+04  0.25500000000E-02 0. -1.
    8880022    1    1    2    0    0  0.59909076750E+03  0.31870804513E+03 -0.90213336943E+02  0.70143757021E+03  0.15294330000E+03 0.  0.
    8880022    1    1    2    0    0 -0.59909076750E+03 -0.31870804513E+03 -0.27827171550E+04  0.28683428985E+04  0.15294330000E+03 0.  0.
<mgrwt>
<rscale>  0 0.69561212E+03</rscale>
<asrwt>0</asrwt>
<pdfrwt beam="1">  1        2 0.49559313E+00 0.69561212E+03</pdfrwt>
<pdfrwt beam="2">  1       -2 0.53603846E-01 0.69561212E+03</pdfrwt>
<totfact> 0.44741926E+00</totfact>
</mgrwt>
</event>
<event>
 4    1  0.4639964E-008  0.2273934E+03  0.7818608E-02  0.1128488E+00
         -2   -1    0    0    0  501 -0.00000000000E+00  0.00000000000E+00  0.23064281339E+03  0.23064281341E+03  0.25500000000E-02 0.  1.
          2   -1    0    0  501    0  0.00000000000E+00 -0.00000000000E+00 -0.46091728083E+03  0.46091728084E+03  0.25500000000E-02 0. -1.
    8880022    1    1    2    0    0  0.56441358157E+02  0.15852589534E+03 -0.36294383906E+03  0.42829425601E+03  0.15294330000E+03 0. -1.
    8880022    1    1    2    0    0 -0.56441358157E+02 -0.15852589534E+03  0.13266937162E+03  0.26326583824E+03  0.15294330000E+03 0.  0.
<mgrwt>
<rscale>  0 0.22739336E+03</rscale>
<asrwt>0</asrwt>
<pdfrwt beam="1">  1        2 0.70910351E-01 0.22739336E+03</pdfrwt>
<pdfrwt beam="2">  1       -2 0.35483510E-01 0.22739336E+03</pdfrwt>
<totfact> 0.51381078E+02</totfact>
</mgrwt>
</event>
<event>
 4    1  0.4639964E-008  0.5122770E+03  0.7818608E-02  0.1010623E+00
          2   -1    0    0  501    0  0.00000000000E+00  0.00000000000E+00  0.25418695599E+04  0.25418695599E+04  0.25500000000E-02 0. -1.
         -2   -1    0    0    0  501 -0.00000000000E+00 -0.00000000000E+00 -0.13030398409E+03  0.13030398412E+03  0.25500000000E-02 0.  1.
    8880022    1    1    2    0    0 -0.42097081063E+03  0.24863559846E+03  0.18146681136E+04  0.18855895895E+04  0.15294330000E+03 0.  0.
    8880022    1    1    2    0    0  0.42097081063E+03 -0.24863559846E+03  0.59689746221E+03  0.78658395460E+03  0.15294330000E+03 0.  0.
<mgrwt>
<rscale>  0 0.51227701E+03</rscale>
<asrwt>0</asrwt>
<pdfrwt beam="1">  1        2 0.39105682E+00 0.51227701E+03</pdfrwt>
<pdfrwt beam="2">  1       -2 0.20046769E-01 0.51227701E+03</pdfrwt>
<totfact> 0.75447691E+01</totfact>
</mgrwt>
</event>
<event>
 4    1  0.4639964E-008  0.6557407E+03  0.7818608E-02  0.9796066E-01
         -2   -1    0    0    0  501 -0.00000000000E+00  0.00000000000E+00  0.63293282109E+03  0.63293282109E+03  0.25500000000E-02 0.  1.
          2   -1    0    0  501    0  0.00000000000E+00 -0.00000000000E+00 -0.10553904940E+04  0.10553904940E+04  0.25500000000E-02 0. -1.
    8880022    1    1    2    0    0  0.26702874632E+03  0.57905084559E+03 -0.71510579954E+03  0.97024336673E+03  0.15294330000E+03 0.  0.
    8880022    1    1    2    0    0 -0.26702874632E+03 -0.57905084559E+03  0.29264812666E+03  0.71807994833E+03  0.15294330000E+03 0.  0.
<mgrwt>
<rscale>  0 0.65574072E+03</rscale>
<asrwt>0</asrwt>
<pdfrwt beam="1">  1        2 0.16236777E+00 0.65574072E+03</pdfrwt>
<pdfrwt beam="2">  1       -2 0.97374281E-01 0.65574072E+03</pdfrwt>
<totfact> 0.21002439E+01</totfact>
</mgrwt>
</event>
<event>
 4    1  0.4639964E-008  0.5155688E+03  0.7818608E-02  0.1009793E+00
         -2   -1    0    0    0  501 -0.00000000000E+00  0.00000000000E+00  0.67875274279E+03  0.67875274279E+03  0.25500000000E-02 0.  1.
          2   -1    0    0  501    0  0.00000000000E+00 -0.00000000000E+00 -0.80576824491E+03  0.80576824491E+03  0.25500000000E-02 0. -1.
    8880022    1    1    2    0    0  0.37300284954E+03 -0.32138510002E+03  0.46863814895E+03  0.69673013136E+03  0.15294330000E+03 0.  0.
    8880022    1    1    2    0    0 -0.37300284954E+03  0.32138510002E+03 -0.59565365107E+03  0.78779085634E+03  0.15294330000E+03 0.  0.
<mgrwt>
<rscale>  0 0.51556877E+03</rscale>
<asrwt>0</asrwt>
<pdfrwt beam="1">  1        2 0.12396435E+00 0.51556877E+03</pdfrwt>
<pdfrwt beam="2">  1       -2 0.10442350E+00 0.51556877E+03</pdfrwt>
<totfact> 0.26455984E+01</totfact>
</mgrwt>
</event>
<event>
 4    1  0.4639964E-008  0.7576096E+03  0.7818608E-02  0.9623487E-01
         -2   -1    0    0    0  501 -0.00000000000E+00  0.00000000000E+00  0.10535111769E+04  0.10535111769E+04  0.25500000000E-02 0.  1.
          2   -1    0    0  501    0  0.00000000000E+00 -0.00000000000E+00 -0.13514657738E+04  0.13514657738E+04  0.25500000000E-02 0. -1.
    8880022    1    1    2    0    0  0.66206429995E+03 -0.33503963043E+03 -0.10779869824E+04  0.13175842586E+04  0.15294330000E+03 0.  0.
    8880022    1    1    2    0    0 -0.66206429995E+03  0.33503963043E+03  0.78003238554E+03  0.10873926921E+04  0.15294330000E+03 0.  0.
<mgrwt>
<rscale>  0 0.75760963E+03</rscale>
<asrwt>0</asrwt>
<pdfrwt beam="1">  1        2 0.20791781E+00 0.75760963E+03</pdfrwt>
<pdfrwt beam="2">  1       -2 0.16207864E+00 0.75760963E+03</pdfrwt>
<totfact> 0.38411902E+00</totfact>
</mgrwt>
</event>
<event>
 4    1  0.4639964E-008  0.6562864E+03  0.7818608E-02  0.9795054E-01
         -2   -1    0    0    0  501 -0.00000000000E+00  0.00000000000E+00  0.10857241089E+04  0.10857241089E+04  0.25500000000E-02 0.  1.
          2   -1    0    0  501    0  0.00000000000E+00 -0.00000000000E+00 -0.22725939819E+04  0.22725939819E+04  0.25500000000E-02 0. -1.
    8880022    1    1    2    0    0 -0.23072840073E+03 -0.59505010497E+03 -0.21190132490E+04  0.22183167098E+04  0.15294330000E+03 0.  0.
    8880022    1    1    2    0    0  0.23072840073E+03  0.59505010497E+03  0.93214337597E+03  0.11400013810E+04  0.15294330000E+03 0.  0.
<mgrwt>
<rscale>  0 0.65628643E+03</rscale>
<asrwt>0</asrwt>
<pdfrwt beam="1">  1        2 0.34962984E+00 0.65628643E+03</pdfrwt>
<pdfrwt beam="2">  1       -2 0.16703448E+00 0.65628643E+03</pdfrwt>
<totfact> 0.11242352E+00</totfact>
</mgrwt>
</event>
<event>
 4    1  0.4639964E-008  0.7382868E+03  0.7818608E-02  0.9653908E-01
         -2   -1    0    0    0  501 -0.00000000000E+00  0.00000000000E+00  0.26008866069E+03  0.26008866070E+03  0.25500000000E-02 0.  1.
          2   -1    0    0  501    0  0.00000000000E+00 -0.00000000000E+00 -0.24656374883E+04  0.24656374883E+04  0.25500000000E-02 0. -1.
    8880022    1    1    2    0    0  0.28465662880E+02  0.72171004139E+03 -0.57487296089E+03  0.93570628511E+03  0.15294330000E+03 0.  0.
    8880022    1    1    2    0    0 -0.28465662880E+02 -0.72171004139E+03 -0.16306758667E+04  0.17900198639E+04  0.15294330000E+03 0.  0.
<mgrwt>
<rscale>  0 0.73828675E+03</rscale>
<asrwt>0</asrwt>
<pdfrwt beam="1">  1        2 0.37932883E+00 0.73828675E+03</pdfrwt>
<pdfrwt beam="2">  1       -2 0.40013642E-01 0.73828675E+03</pdfrwt>
<totfact> 0.22531840E+01</totfact>
</mgrwt>
</event>
<event>
 4    1  0.4639964E-008  0.6441059E+03  0.7818608E-02  0.9817902E-01
         -2   -1    0    0    0  501 -0.00000000000E+00  0.00000000000E+00  0.18437291456E+04  0.18437291456E+04  0.25500000000E-02 0.  1.
          2   -1    0    0  501    0  0.00000000000E+00 -0.00000000000E+00 -0.50518730801E+03  0.50518730801E+03  0.25500000000E-02 0. -1.
    8880022    1    1    2    0    0 -0.57887457026E+03  0.23745525794E+03  0.15438952678E+04  0.16728673046E+04  0.15294330000E+03 0.  0.
    8880022    1    1    2    0    0  0.57887457026E+03 -0.23745525794E+03 -0.20535343024E+03  0.67604914906E+03  0.15294330000E+03 0.  0.
<mgrwt>
<rscale>  0 0.64410591E+03</rscale>
<asrwt>0</asrwt>
<pdfrwt beam="1">  1        2 0.77721122E-01 0.64410591E+03</pdfrwt>
<pdfrwt beam="2">  1       -2 0.28365064E+00 0.64410591E+03</pdfrwt>
<totfact> 0.25688770E+00</totfact>
</mgrwt>
</event>
<event>
 4    1  0.4639964E-008  0.9317000E+03  0.7818608E-02  0.9386800E-01
          2   -1    0    0  501    0  0.00000000000E+00  0.00000000000E+00  0.38521726878E+04  0.38521726878E+04  0.25500000000E-02 0. -1.
         -2   -1    0    0    0  501 -0.00000000000E+00 -0.00000000000E+00 -0.31474412991E+03  0.31474412992E+03  0.25500000000E-02 0.  1.
    8880022    1    1    2    0    0  0.30198794025E+03  0.86803024800E+03  0.28791017090E+04  0.30261017054E+04  0.15294330000E+03 0.  0.
    8880022    1    1    2    0    0 -0.30198794025E+03 -0.86803024800E+03  0.65832684883E+03  0.11408151123E+04  0.15294330000E+03 0.  0.
<mgrwt>
<rscale>  0 0.93169999E+03</rscale>
<asrwt>0</asrwt>
<pdfrwt beam="1">  1        2 0.59264195E+00 0.93169999E+03</pdfrwt>
<pdfrwt beam="2">  1       -2 0.48422174E-01 0.93169999E+03</pdfrwt>
<totfact> 0.19216639E+00</totfact>
</mgrwt>
</event>
<event>
 4    1  0.4639964E-008  0.8526644E+03  0.7818608E-02  0.9486768E-01
         -2   -1    0    0    0  501 -0.00000000000E+00  0.00000000000E+00  0.69326986441E+03  0.69326986441E+03  0.25500000000E-02 0.  1.
          2   -1    0    0  501    0  0.00000000000E+00 -0.00000000000E+00 -0.20302174165E+04  0.20302174165E+04  0.25500000000E-02 0. -1.
    8880022    1    1    2    0    0 -0.71267005124E+03  0.44243230273E+03  0.27835544634E+03  0.89694947013E+03  0.15294330000E+03 0.  0.
    8880022    1    1    2    0    0  0.71267005124E+03 -0.44243230273E+03 -0.16153029984E+04  0.18265378107E+04  0.15294330000E+03 0.  0.
<mgrwt>
<rscale>  0 0.85266441E+03</rscale>
<asrwt>0</asrwt>
<pdfrwt beam="1">  1        2 0.31234114E+00 0.85266441E+03</pdfrwt>
<pdfrwt beam="2">  1       -2 0.10665690E+00 0.85266441E+03</pdfrwt>
<totfact> 0.46425926E+00</totfact>
</mgrwt>
</event>
<event>
 4    1  0.4639964E-008  0.5057381E+03  0.7818608E-02  0.1012292E+00
         -2   -1    0    0    0  501 -0.00000000000E+00  0.00000000000E+00  0.56463602638E+03  0.56463602638E+03  0.25500000000E-02 0.  1.
          2   -1    0    0  501    0  0.00000000000E+00 -0.00000000000E+00 -0.11350319961E+04  0.11350319961E+04  0.25500000000E-02 0. -1.
    8880022    1    1    2    0    0 -0.33864663721E+03  0.34307118995E+03  0.37357768417E+03  0.62875378758E+03  0.15294330000E+03 0.  0.
    8880022    1    1    2    0    0  0.33864663721E+03 -0.34307118995E+03 -0.94397365392E+03  0.10709142349E+04  0.15294330000E+03 0.  0.
<mgrwt>
<rscale>  0 0.50573811E+03</rscale>
<asrwt>0</asrwt>
<pdfrwt beam="1">  1        2 0.17462031E+00 0.50573811E+03</pdfrwt>
<pdfrwt beam="2">  1       -2 0.86867081E-01 0.50573811E+03</pdfrwt>
<totfact> 0.24971152E+01</totfact>
</mgrwt>
</event>
<event>
 4    1  0.4639964E-008  0.5668527E+03  0.7818608E-02  0.9976668E-01
         -2   -1    0    0    0  501 -0.00000000000E+00  0.00000000000E+00  0.16550275111E+03  0.16550275113E+03  0.25500000000E-02 0.  1.
          2   -1    0    0  501    0  0.00000000000E+00 -0.00000000000E+00 -0.21370206642E+04  0.21370206642E+04  0.25500000000E-02 0. -1.
    8880022    1    1    2    0    0 -0.49193085980E+03 -0.23650437057E+03 -0.13339977135E+04  0.14494384571E+04  0.15294330000E+03 0.  0.
    8880022    1    1    2    0    0  0.49193085980E+03  0.23650437057E+03 -0.63752019951E+03  0.85308495821E+03  0.15294330000E+03 0.  0.
<mgrwt>
<rscale>  0 0.56685266E+03</rscale>
<asrwt>0</asrwt>
<pdfrwt beam="1">  1        2 0.32877239E+00 0.56685266E+03</pdfrwt>
<pdfrwt beam="2">  1       -2 0.25461963E-01 0.56685266E+03</pdfrwt>
<totfact> 0.81948027E+01</totfact>
</mgrwt>
</event>
<event>
 4    1  0.4639964E-008  0.8365976E+03  0.7818608E-02  0.9508504E-01
         -2   -1    0    0    0  501 -0.00000000000E+00  0.00000000000E+00  0.16929333230E+04  0.16929333230E+04  0.25500000000E-02 0.  1.
          2   -1    0    0  501    0  0.00000000000E+00 -0.00000000000E+00 -0.10385088168E+04  0.10385088168E+04  0.25500000000E-02 0. -1.
    8880022    1    1    2    0    0  0.72612974188E+03  0.38631530299E+03 -0.73235163775E+03  0.11118608230E+04  0.15294330000E+03 0.  0.
    8880022    1    1    2    0    0 -0.72612974188E+03 -0.38631530299E+03  0.13867761439E+04  0.16195813168E+04  0.15294330000E+03 0.  0.
<mgrwt>
<rscale>  0 0.83659761E+03</rscale>
<asrwt>0</asrwt>
<pdfrwt beam="1">  1        2 0.15977059E+00 0.83659761E+03</pdfrwt>
<pdfrwt beam="2">  1       -2 0.26045128E+00 0.83659761E+03</pdfrwt>
<totfact> 0.13486079E+00</totfact>
</mgrwt>
</event>
<event>
 4    1  0.4639964E-008  0.2167764E+03  0.7818608E-02  0.1136309E+00
          2   -1    0    0  501    0  0.00000000000E+00  0.00000000000E+00  0.12245032698E+04  0.12245032698E+04  0.25500000000E-02 0. -1.
         -2   -1    0    0    0  501 -0.00000000000E+00 -0.00000000000E+00 -0.15798576641E+03  0.15798576643E+03  0.25500000000E-02 0.  1.
    8880022    1    1    2    0    0 -0.15353376778E+03  0.52661973997E+01  0.11347168121E+04  0.11552377449E+04  0.15294330000E+03 0. -1.
    8880022    1    1    2    0    0  0.15353376778E+03 -0.52661973997E+01 -0.68199308681E+02  0.22725129131E+03  0.15294330000E+03 0.  0.
<mgrwt>
<rscale>  0 0.21677639E+03</rscale>
<asrwt>0</asrwt>
<pdfrwt beam="1">  1        2 0.18838512E+00 0.21677639E+03</pdfrwt>
<pdfrwt beam="2">  1       -2 0.24305502E-01 0.21677639E+03</pdfrwt>
<totfact> 0.29403751E+02</totfact>
</mgrwt>
</event>
<event>
 4    1  0.4639964E-008  0.1247164E+04  0.7818608E-02  0.9072547E-01
         -2   -1    0    0    0  501 -0.00000000000E+00  0.00000000000E+00  0.75140562586E+03  0.75140562587E+03  0.25500000000E-02 0.  1.
          2   -1    0    0  501    0  0.00000000000E+00 -0.00000000000E+00 -0.23638907636E+04  0.23638907636E+04  0.25500000000E-02 0. -1.
    8880022    1    1    2    0    0 -0.60508211865E+03 -0.10797696678E+04 -0.25703074544E+03  0.12733747928E+04  0.15294330000E+03 0.  0.
    8880022    1    1    2    0    0  0.60508211865E+03  0.10797696678E+04 -0.13554543923E+04  0.18419215967E+04  0.15294330000E+03 0.  0.
<mgrwt>
<rscale>  0 0.12471642E+04</rscale>
<asrwt>0</asrwt>
<pdfrwt beam="1">  1        2 0.36367550E+00 0.12471642E+04</pdfrwt>
<pdfrwt beam="2">  1       -2 0.11560087E+00 0.12471642E+04</pdfrwt>
<totfact> 0.23655150E+00</totfact>
</mgrwt>
</event>
<event>
 4    1  0.4639964E-008  0.6184427E+03  0.7818608E-02  0.9867865E-01
         -2   -1    0    0    0  501 -0.00000000000E+00  0.00000000000E+00  0.86354317130E+03  0.86354317131E+03  0.25500000000E-02 0.  1.
          2   -1    0    0  501    0  0.00000000000E+00 -0.00000000000E+00 -0.10187319517E+04  0.10187319517E+04  0.25500000000E-02 0. -1.
    8880022    1    1    2    0    0  0.29119035860E+03  0.52372501640E+03  0.62997247214E+03  0.88280047939E+03  0.15294330000E+03 0.  0.
    8880022    1    1    2    0    0 -0.29119035860E+03 -0.52372501640E+03 -0.78516125257E+03  0.99947464365E+03  0.15294330000E+03 0.  0.
<mgrwt>
<rscale>  0 0.61844270E+03</rscale>
<asrwt>0</asrwt>
<pdfrwt beam="1">  1        2 0.15672799E+00 0.61844270E+03</pdfrwt>
<pdfrwt beam="2">  1       -2 0.13285280E+00 0.61844270E+03</pdfrwt>
<totfact> 0.10427310E+01</totfact>
</mgrwt>
</event>
<event>
 4    1  0.4639964E-008  0.4456921E+03  0.7818608E-02  0.1029015E+00
         -2   -1    0    0    0  501 -0.00000000000E+00  0.00000000000E+00  0.25903118094E+03  0.25903118095E+03  0.25500000000E-02 0.  1.
          2   -1    0    0  501    0  0.00000000000E+00 -0.00000000000E+00 -0.99522142036E+03  0.99522142036E+03  0.25500000000E-02 0. -1.
    8880022    1    1    2    0    0 -0.10134405131E+03  0.40617626475E+03 -0.66849771131E+03  0.80344920053E+03  0.15294330000E+03 0.  0.
    8880022    1    1    2    0    0  0.10134405131E+03 -0.40617626475E+03 -0.67692528102E+02  0.45080340078E+03  0.15294330000E+03 0.  0.
<mgrwt>
<rscale>  0 0.44569208E+03</rscale>
<asrwt>0</asrwt>
<pdfrwt beam="1">  1        2 0.15311099E+00 0.44569208E+03</pdfrwt>
<pdfrwt beam="2">  1       -2 0.39850952E-01 0.44569208E+03</pdfrwt>
<totfact> 0.15672928E+02</totfact>
</mgrwt>
</event>
<event>
 4    1  0.5072033E-008  0.8277122E+03  0.7818608E-02  0.9520749E-01
         -2   -1    0    0    0  501 -0.00000000000E+00  0.00000000000E+00  0.64232114511E+03  0.64232114512E+03  0.25500000000E-02 0.  1.
          2   -1    0    0  501    0  0.00000000000E+00 -0.00000000000E+00 -0.30638265781E+04  0.30638265781E+04  0.25500000000E-02 0. -1.
    8880022    1    1    2    0    0 -0.39613713013E+03 -0.71048654476E+03  0.28538995520E+03  0.87553117346E+03  0.15294330000E+03 0.  1.
    8880022    1    1    2    0    0  0.39613713013E+03  0.71048654476E+03 -0.27068953882E+04  0.28306165498E+04  0.15294330000E+03 0.  0.
<mgrwt>
<rscale>  0 0.82771215E+03</rscale>
<asrwt>0</asrwt>
<pdfrwt beam="1">  1        2 0.47135793E+00 0.82771215E+03</pdfrwt>
<pdfrwt beam="2">  1       -2 0.98818639E-01 0.82771215E+03</pdfrwt>
<totfact> 0.14197446E+00</totfact>
</mgrwt>
</event>
<event>
 4    1  0.4639964E-008  0.7363389E+03  0.7818608E-02  0.9657030E-01
          2   -1    0    0  501    0  0.00000000000E+00  0.00000000000E+00  0.94025433792E+03  0.94025433792E+03  0.25500000000E-02 0. -1.
         -2   -1    0    0    0  501 -0.00000000000E+00 -0.00000000000E+00 -0.10452674219E+04  0.10452674219E+04  0.25500000000E-02 0.  1.
    8880022    1    1    2    0    0 -0.13421085957E+03 -0.70766573205E+03 -0.71723072336E+03  0.10279177529E+04  0.15294330000E+03 0.  0.
    8880022    1    1    2    0    0  0.13421085957E+03  0.70766573205E+03  0.61221763937E+03  0.95760400695E+03  0.15294330000E+03 0.  0.
<mgrwt>
<rscale>  0 0.73633891E+03</rscale>
<asrwt>0</asrwt>
<pdfrwt beam="1">  1        2 0.14465451E+00 0.73633891E+03</pdfrwt>
<pdfrwt beam="2">  1       -2 0.16081037E+00 0.73633891E+03</pdfrwt>
<totfact> 0.69854042E+00</totfact>
</mgrwt>
</event>
<event>
 4    1  0.4639964E-008  0.3659166E+03  0.7818608E-02  0.1056265E+00
          2   -1    0    0  501    0  0.00000000000E+00  0.00000000000E+00  0.16089155084E+04  0.16089155084E+04  0.25500000000E-02 0. -1.
         -2   -1    0    0    0  501 -0.00000000000E+00 -0.00000000000E+00 -0.33278400368E+03  0.33278400369E+03  0.25500000000E-02 0.  1.
    8880022    1    1    2    0    0  0.22399514716E+03 -0.24562066220E+03 -0.20267328726E+03  0.41829588814E+03  0.15294330000E+03 0.  0.
    8880022    1    1    2    0    0 -0.22399514716E+03  0.24562066220E+03  0.14788047920E+04  0.15234036239E+04  0.15294330000E+03 0.  0.
<mgrwt>
<rscale>  0 0.36591664E+03</rscale>
<asrwt>0</asrwt>
<pdfrwt beam="1">  1        2 0.24752546E+00 0.36591664E+03</pdfrwt>
<pdfrwt beam="2">  1       -2 0.51197539E-01 0.36591664E+03</pdfrwt>
<totfact> 0.43260696E+01</totfact>
</mgrwt>
</event>
<event>
 4    1  0.4639964E-008  0.1681893E+04  0.7818608E-02  0.8771760E-01
          2   -1    0    0  501    0  0.00000000000E+00  0.00000000000E+00  0.20875536046E+04  0.20875536046E+04  0.25500000000E-02 0. -1.
         -2   -1    0    0    0  501 -0.00000000000E+00 -0.00000000000E+00 -0.16850896730E+04  0.16850896730E+04  0.25500000000E-02 0.  1.
    8880022    1    1    2    0    0 -0.32263082211E+03  0.16435571719E+04  0.10360274171E+04  0.19753772517E+04  0.15294330000E+03 0.  0.
    8880022    1    1    2    0    0  0.32263082211E+03 -0.16435571719E+04 -0.63356348544E+03  0.17972660258E+04  0.15294330000E+03 0.  0.
<mgrwt>
<rscale>  0 0.16818925E+04</rscale>
<asrwt>0</asrwt>
<pdfrwt beam="1">  1        2 0.32116209E+00 0.16818925E+04</pdfrwt>
<pdfrwt beam="2">  1       -2 0.25924456E+00 0.16818925E+04</pdfrwt>
<totfact> 0.30952087E-01</totfact>
</mgrwt>
</event>
<event>
 4    1  0.4639964E-008  0.5120285E+03  0.7818608E-02  0.1010686E+00
          2   -1    0    0  501    0  0.00000000000E+00  0.00000000000E+00  0.81176590696E+03  0.81176590696E+03  0.25500000000E-02 0. -1.
         -2   -1    0    0    0  501 -0.00000000000E+00 -0.00000000000E+00 -0.13139277793E+04  0.13139277793E+04  0.25500000000E-02 0.  1.
    8880022    1    1    2    0    0  0.41139257916E+03  0.26369993641E+03  0.67194369481E+03  0.84479671676E+03  0.15294330000E+03 0.  0.
    8880022    1    1    2    0    0 -0.41139257916E+03 -0.26369993641E+03 -0.11741055672E+04  0.12808969695E+04  0.15294330000E+03 0.  0.
<mgrwt>
<rscale>  0 0.51202848E+03</rscale>
<asrwt>0</asrwt>
<pdfrwt beam="1">  1        2 0.12488706E+00 0.51202848E+03</pdfrwt>
<pdfrwt beam="2">  1       -2 0.20214274E+00 0.51202848E+03</pdfrwt>
<totfact> 0.46248341E+00</totfact>
</mgrwt>
</event>
<event>
 4    1  0.4639964E-008  0.8001885E+03  0.7818608E-02  0.9559744E-01
         -2   -1    0    0    0  501 -0.00000000000E+00  0.00000000000E+00  0.45201745785E+03  0.45201745786E+03  0.25500000000E-02 0.  1.
          2   -1    0    0  501    0  0.00000000000E+00 -0.00000000000E+00 -0.20131104700E+04  0.20131104700E+04  0.25500000000E-02 0. -1.
    8880022    1    1    2    0    0  0.67027403830E+03 -0.40944197981E+03 -0.10957227334E+03  0.80765571709E+03  0.15294330000E+03 0.  0.
    8880022    1    1    2    0    0 -0.67027403830E+03  0.40944197981E+03 -0.14515207388E+04  0.16574722108E+04  0.15294330000E+03 0.  0.
<mgrwt>
<rscale>  0 0.80018852E+03</rscale>
<asrwt>0</asrwt>
<pdfrwt beam="1">  1        2 0.30970930E+00 0.80018852E+03</pdfrwt>
<pdfrwt beam="2">  1       -2 0.69541149E-01 0.80018852E+03</pdfrwt>
<totfact> 0.12736477E+01</totfact>
</mgrwt>
</event>
<event>
 4    1  0.4639964E-008  0.7574356E+03  0.7818608E-02  0.9623757E-01
          2   -1    0    0  501    0  0.00000000000E+00  0.00000000000E+00  0.23949923115E+04  0.23949923115E+04  0.25500000000E-02 0. -1.
         -2   -1    0    0    0  501 -0.00000000000E+00 -0.00000000000E+00 -0.56370558458E+03  0.56370558459E+03  0.25500000000E-02 0.  1.
    8880022    1    1    2    0    0 -0.69611453689E+03  0.25640114036E+03  0.20374667834E+04  0.21737018056E+04  0.15294330000E+03 0.  0.
    8880022    1    1    2    0    0  0.69611453689E+03 -0.25640114036E+03 -0.20618005654E+03  0.78499609042E+03  0.15294330000E+03 0.  0.
<mgrwt>
<rscale>  0 0.75743557E+03</rscale>
<asrwt>0</asrwt>
<pdfrwt beam="1">  1        2 0.36846036E+00 0.75743557E+03</pdfrwt>
<pdfrwt beam="2">  1       -2 0.86723934E-01 0.75743557E+03</pdfrwt>
<totfact> 0.48147437E+00</totfact>
</mgrwt>
</event>
<event>
 4    1  0.4639964E-008  0.4217557E+03  0.7818608E-02  0.1036496E+00
          2   -1    0    0  501    0  0.00000000000E+00  0.00000000000E+00  0.90836421172E+03  0.90836421173E+03  0.25500000000E-02 0. -1.
         -2   -1    0    0    0  501 -0.00000000000E+00 -0.00000000000E+00 -0.24255872132E+03  0.24255872134E+03  0.25500000000E-02 0.  1.
    8880022    1    1    2    0    0 -0.38263065051E+03 -0.89888687517E+02  0.80301103231E+02  0.42933216867E+03  0.15294330000E+03 0.  1.
    8880022    1    1    2    0    0  0.38263065051E+03  0.89888687517E+02  0.58550438717E+03  0.72159076440E+03  0.15294330000E+03 0.  0.
<mgrwt>
<rscale>  0 0.42175567E+03</rscale>
<asrwt>0</asrwt>
<pdfrwt beam="1">  1        2 0.13974834E+00 0.42175567E+03</pdfrwt>
<pdfrwt beam="2">  1       -2 0.37316726E-01 0.42175567E+03</pdfrwt>
<totfact> 0.20263669E+02</totfact>
</mgrwt>
</event>
<event>
 4    1  0.4639964E-008  0.3806339E+03  0.7818608E-02  0.1050700E+00
         -2   -1    0    0    0  501 -0.00000000000E+00  0.00000000000E+00  0.49153861750E+03  0.49153861751E+03  0.25500000000E-02 0.  1.
          2   -1    0    0  501    0  0.00000000000E+00 -0.00000000000E+00 -0.69108820948E+03  0.69108820949E+03  0.25500000000E-02 0. -1.
    8880022    1    1    2    0    0 -0.14157594036E+02 -0.34826723337E+03 -0.54757334289E+03  0.66687234323E+03  0.15294330000E+03 0.  0.
    8880022    1    1    2    0    0  0.14157594036E+02  0.34826723337E+03  0.34802375091E+03  0.51575448376E+03  0.15294330000E+03 0.  0.
<mgrwt>
<rscale>  0 0.38063389E+03</rscale>
<asrwt>0</asrwt>
<pdfrwt beam="1">  1        2 0.10632126E+00 0.38063389E+03</pdfrwt>
<pdfrwt beam="2">  1       -2 0.75621326E-01 0.38063389E+03</pdfrwt>
<totfact> 0.68450842E+01</totfact>
</mgrwt>
</event>
<event>
 4    1  0.4639964E-008  0.8142554E+03  0.7818608E-02  0.9539609E-01
         -2   -1    0    0    0  501 -0.00000000000E+00  0.00000000000E+00  0.59255822189E+03  0.59255822189E+03  0.25500000000E-02 0.  1.
          2   -1    0    0  501    0  0.00000000000E+00 -0.00000000000E+00 -0.18800288005E+04  0.18800288005E+04  0.25500000000E-02 0. -1.
    8880022    1    1    2    0    0 -0.79791775368E+03  0.54290877487E+02  0.14289223579E+03  0.82669830354E+03  0.15294330000E+03 0.  0.
    8880022    1    1    2    0    0  0.79791775368E+03 -0.54290877487E+02 -0.14303628144E+04  0.16458887189E+04  0.15294330000E+03 0. -1.
<mgrwt>
<rscale>  0 0.81425542E+03</rscale>
<asrwt>0</asrwt>
<pdfrwt beam="1">  1        2 0.28923520E+00 0.81425542E+03</pdfrwt>
<pdfrwt beam="2">  1       -2 0.91162805E-01 0.81425542E+03</pdfrwt>
<totfact> 0.81767075E+00</totfact>
</mgrwt>
</event>
<event>
 4    1  0.4639964E-008  0.3296716E+03  0.7818608E-02  0.1071282E+00
         -2   -1    0    0    0  501 -0.00000000000E+00  0.00000000000E+00  0.55925879100E+03  0.55925879101E+03  0.25500000000E-02 0.  1.
          2   -1    0    0  501    0  0.00000000000E+00 -0.00000000000E+00 -0.91269950635E+03  0.91269950636E+03  0.25500000000E-02 0. -1.
    8880022    1    1    2    0    0  0.12975631731E+03 -0.26163913386E+03  0.47622092081E+03  0.57919751094E+03  0.15294330000E+03 0.  1.
    8880022    1    1    2    0    0 -0.12975631731E+03  0.26163913386E+03 -0.82966163616E+03  0.89276078642E+03  0.15294330000E+03 0.  0.
<mgrwt>
<rscale>  0 0.32967164E+03</rscale>
<asrwt>0</asrwt>
<pdfrwt beam="1">  1        2 0.14041531E+00 0.32967164E+03</pdfrwt>
<pdfrwt beam="2">  1       -2 0.86039814E-01 0.32967164E+03</pdfrwt>
<totfact> 0.36166418E+01</totfact>
</mgrwt>
</event>
<event>
 4    1  0.4639964E-008  0.2904243E+03  0.7818608E-02  0.1090128E+00
         -2   -1    0    0    0  501 -0.00000000000E+00  0.00000000000E+00  0.39488821427E+03  0.39488821428E+03  0.25500000000E-02 0.  1.
          2   -1    0    0  501    0  0.00000000000E+00 -0.00000000000E+00 -0.47340450149E+03  0.47340450149E+03  0.25500000000E-02 0. -1.
    8880022    1    1    2    0    0 -0.15530343794E+03  0.19192564751E+03 -0.36088124671E+03  0.46322946716E+03  0.15294330000E+03 0.  0.
    8880022    1    1    2    0    0  0.15530343794E+03 -0.19192564751E+03  0.28236495949E+03  0.40506324861E+03  0.15294330000E+03 0.  0.
<mgrwt>
<rscale>  0 0.29042428E+03</rscale>
<asrwt>0</asrwt>
<pdfrwt beam="1">  1        2 0.72831462E-01 0.29042428E+03</pdfrwt>
<pdfrwt beam="2">  1       -2 0.60752033E-01 0.29042428E+03</pdfrwt>
<totfact> 0.17189064E+02</totfact>
</mgrwt>
</event>
<event>
 4    1  0.4639964E-008  0.1082153E+04  0.7818608E-02  0.9222764E-01
         -2   -1    0    0    0  501 -0.00000000000E+00  0.00000000000E+00  0.73814543872E+03  0.73814543872E+03  0.25500000000E-02 0.  1.
          2   -1    0    0  501    0  0.00000000000E+00 -0.00000000000E+00 -0.26110599793E+04  0.26110599793E+04  0.25500000000E-02 0. -1.
    8880022    1    1    2    0    0 -0.25608483098E+03  0.10402324057E+04  0.11254359280E+03  0.10879892517E+04  0.15294330000E+03 0.  0.
    8880022    1    1    2    0    0  0.25608483098E+03 -0.10402324057E+04 -0.19854581333E+04  0.22612161663E+04  0.15294330000E+03 0.  0.
<mgrwt>
<rscale>  0 0.10821527E+04</rscale>
<asrwt>0</asrwt>
<pdfrwt beam="1">  1        2 0.40170153E+00 0.10821527E+04</pdfrwt>
<pdfrwt beam="2">  1       -2 0.11356084E+00 0.10821527E+04</pdfrwt>
<totfact> 0.18192948E+00</totfact>
</mgrwt>
</event>
<event>
 4    1  0.4639964E-008  0.1229777E+04  0.7818608E-02  0.9087184E-01
          2   -1    0    0  501    0  0.00000000000E+00  0.00000000000E+00  0.19573373471E+04  0.19573373471E+04  0.25500000000E-02 0. -1.
         -2   -1    0    0    0  501 -0.00000000000E+00 -0.00000000000E+00 -0.92827336510E+03  0.92827336510E+03  0.25500000000E-02 0.  1.
    8880022    1    1    2    0    0  0.11177421225E+04 -0.48950339900E+03  0.11052712159E+04  0.16534742646E+04  0.15294330000E+03 0.  0.
    8880022    1    1    2    0    0 -0.11177421225E+04  0.48950339900E+03 -0.76207233838E+02  0.12321364476E+04  0.15294330000E+03 0.  0.
<mgrwt>
<rscale>  0 0.12297775E+04</rscale>
<asrwt>0</asrwt>
<pdfrwt beam="1">  1        2 0.30112882E+00 0.12297775E+04</pdfrwt>
<pdfrwt beam="2">  1       -2 0.14281129E+00 0.12297775E+04</pdfrwt>
<totfact> 0.23354638E+00</totfact>
</mgrwt>
</event>
<event>
 4    1  0.4639964E-008  0.1292322E+04  0.7818608E-02  0.9035676E-01
         -2   -1    0    0    0  501 -0.00000000000E+00  0.00000000000E+00  0.13880259090E+04  0.13880259090E+04  0.25500000000E-02 0.  1.
          2   -1    0    0  501    0  0.00000000000E+00 -0.00000000000E+00 -0.23203880364E+04  0.23203880364E+04  0.25500000000E-02 0. -1.
    8880022    1    1    2    0    0 -0.25959661836E+03  0.12567073052E+04 -0.17527642859E+04  0.21776771915E+04  0.15294330000E+03 0.  0.
    8880022    1    1    2    0    0  0.25959661836E+03 -0.12567073052E+04  0.82040215856E+03  0.15307367540E+04  0.15294330000E+03 0.  0.
<mgrwt>
<rscale>  0 0.12923217E+04</rscale>
<asrwt>0</asrwt>
<pdfrwt beam="1">  1        2 0.35698277E+00 0.12923217E+04</pdfrwt>
<pdfrwt beam="2">  1       -2 0.21354245E+00 0.12923217E+04</pdfrwt>
<totfact> 0.46140354E-01</totfact>
</mgrwt>
</event>
<event>
 4    1  0.4639964E-008  0.5412105E+03  0.7818608E-02  0.1003549E+00
         -2   -1    0    0    0  501 -0.00000000000E+00  0.00000000000E+00  0.14666868873E+03  0.14666868875E+03  0.25500000000E-02 0.  1.
          2   -1    0    0  501    0  0.00000000000E+00 -0.00000000000E+00 -0.31578934383E+04  0.31578934383E+04  0.25500000000E-02 0. -1.
    8880022    1    1    2    0    0 -0.34992579639E+03  0.38349584496E+03 -0.25073796009E+04  0.25651240208E+04  0.15294330000E+03 0.  0.
    8880022    1    1    2    0    0  0.34992579639E+03 -0.38349584496E+03 -0.50384514858E+03  0.73943810617E+03  0.15294330000E+03 0.  0.
<mgrwt>
<rscale>  0 0.54121048E+03</rscale>
<asrwt>0</asrwt>
<pdfrwt beam="1">  1        2 0.48582971E+00 0.54121048E+03</pdfrwt>
<pdfrwt beam="2">  1       -2 0.22564416E-01 0.54121048E+03</pdfrwt>
<totfact> 0.26352722E+01</totfact>
</mgrwt>
</event>
<event>
 4    1  0.4639964E-008  0.1394653E+04  0.7818608E-02  0.8957698E-01
          2   -1    0    0  501    0  0.00000000000E+00  0.00000000000E+00  0.28521243677E+04  0.28521243677E+04  0.25500000000E-02 0. -1.
         -2   -1    0    0    0  501 -0.00000000000E+00 -0.00000000000E+00 -0.11379528115E+04  0.11379528115E+04  0.25500000000E-02 0.  1.
    8880022    1    1    2    0    0 -0.35723859622E+03  0.13394203794E+04  0.21199721712E+04  0.25375854719E+04  0.15294330000E+03 0.  0.
    8880022    1    1    2    0    0  0.35723859622E+03 -0.13394203794E+04 -0.40580061504E+03  0.14524917073E+04  0.15294330000E+03 0.  0.
<mgrwt>
<rscale>  0 0.13946534E+04</rscale>
<asrwt>0</asrwt>
<pdfrwt beam="1">  1        2 0.43878836E+00 0.13946534E+04</pdfrwt>
<pdfrwt beam="2">  1       -2 0.17506966E+00 0.13946534E+04</pdfrwt>
<totfact> 0.40316854E-01</totfact>
</mgrwt>
</event>
<event>
 4    1  0.4639964E-008  0.1924418E+03  0.7818608E-02  0.1156277E+00
         -2   -1    0    0    0  501 -0.00000000000E+00  0.00000000000E+00  0.22887242728E+03  0.22887242730E+03  0.25500000000E-02 0.  1.
          2   -1    0    0  501    0  0.00000000000E+00 -0.00000000000E+00 -0.36190669664E+03  0.36190669665E+03  0.25500000000E-02 0. -1.
    8880022    1    1    2    0    0  0.11487943238E+03 -0.21093315986E+02  0.15312553392E+03  0.24592944947E+03  0.15294330000E+03 0.  0.
    8880022    1    1    2    0    0 -0.11487943238E+03  0.21093315986E+02 -0.28615980328E+03  0.34484967448E+03  0.15294330000E+03 0. -1.
<mgrwt>
<rscale>  0 0.19244185E+03</rscale>
<asrwt>0</asrwt>
<pdfrwt beam="1">  1        2 0.55677953E-01 0.19244185E+03</pdfrwt>
<pdfrwt beam="2">  1       -2 0.35211143E-01 0.19244185E+03</pdfrwt>
<totfact> 0.67812301E+02</totfact>
</mgrwt>
</event>
<event>
 4    1  0.4639964E-008  0.6657367E+03  0.7818608E-02  0.9777690E-01
         -2   -1    0    0    0  501 -0.00000000000E+00  0.00000000000E+00  0.68877448480E+03  0.68877448481E+03  0.25500000000E-02 0.  1.
          2   -1    0    0  501    0  0.00000000000E+00 -0.00000000000E+00 -0.21580984021E+04  0.21580984021E+04  0.25500000000E-02 0. -1.
    8880022    1    1    2    0    0  0.18229585098E+03 -0.62175713009E+03 -0.19271542544E+04  0.20389038426E+04  0.15294330000E+03 0.  0.
    8880022    1    1    2    0    0 -0.18229585098E+03  0.62175713009E+03  0.45783033705E+03  0.80796904436E+03  0.15294330000E+03 0.  0.
<mgrwt>
<rscale>  0 0.66573670E+03</rscale>
<asrwt>0</asrwt>
<pdfrwt beam="1">  1        2 0.33201514E+00 0.66573670E+03</pdfrwt>
<pdfrwt beam="2">  1       -2 0.10596531E+00 0.66573670E+03</pdfrwt>
<totfact> 0.41424876E+00</totfact>
</mgrwt>
</event>
<event>
 4    1  0.4639964E-008  0.8825816E+03  0.7818608E-02  0.9447621E-01
         -2   -1    0    0    0  501 -0.00000000000E+00  0.00000000000E+00  0.30499792315E+04  0.30499792315E+04  0.25500000000E-02 0.  1.
          2   -1    0    0  501    0  0.00000000000E+00 -0.00000000000E+00 -0.37452492023E+03  0.37452492024E+03  0.25500000000E-02 0. -1.
    8880022    1    1    2    0    0 -0.85349853803E+03 -0.16461759395E+03  0.37203829750E+03  0.95779061098E+03  0.15294330000E+03 0.  0.
    8880022    1    1    2    0    0  0.85349853803E+03  0.16461759395E+03  0.23034160138E+04  0.24667135408E+04  0.15294330000E+03 0.  0.
<mgrwt>
<rscale>  0 0.88258164E+03</rscale>
<asrwt>0</asrwt>
<pdfrwt beam="1">  1        2 0.57619215E-01 0.88258164E+03</pdfrwt>
<pdfrwt beam="2">  1       -2 0.46922760E+00 0.88258164E+03</pdfrwt>
<totfact> 0.23079707E-01</totfact>
</mgrwt>
</event>
<event>
 4    1  0.4639964E-008  0.3633139E+03  0.7818608E-02  0.1057279E+00
         -2   -1    0    0    0  501 -0.00000000000E+00  0.00000000000E+00  0.25977049196E+03  0.25977049197E+03  0.25500000000E-02 0.  1.
          2   -1    0    0  501    0  0.00000000000E+00 -0.00000000000E+00 -0.12390636645E+04  0.12390636645E+04  0.25500000000E-02 0. -1.
    8880022    1    1    2    0    0 -0.26541905967E+03  0.19534095109E+03  0.85946996572E+02  0.37334153753E+03  0.15294330000E+03 0.  0.
    8880022    1    1    2    0    0  0.26541905967E+03 -0.19534095109E+03 -0.10652401691E+04  0.11254926190E+04  0.15294330000E+03 0.  0.
<mgrwt>
<rscale>  0 0.36331394E+03</rscale>
<asrwt>0</asrwt>
<pdfrwt beam="1">  1        2 0.19062518E+00 0.36331394E+03</pdfrwt>
<pdfrwt beam="2">  1       -2 0.39964692E-01 0.36331394E+03</pdfrwt>
<totfact> 0.11274924E+02</totfact>
</mgrwt>
</event>
<event>
 4    1  0.4639964E-008  0.3557504E+03  0.7818608E-02  0.1060279E+00
         -2   -1    0    0    0  501 -0.00000000000E+00  0.00000000000E+00  0.13142323999E+03  0.13142324001E+03  0.25500000000E-02 0.  1.
          2   -1    0    0  501    0  0.00000000000E+00 -0.00000000000E+00 -0.15925769893E+04  0.15925769893E+04  0.25500000000E-02 0. -1.
    8880022    1    1    2    0    0 -0.17905588946E+03  0.26665649898E+03 -0.12725620072E+04  0.13213524947E+04  0.15294330000E+03 0.  0.
    8880022    1    1    2    0    0  0.17905588946E+03 -0.26665649898E+03 -0.18859174210E+03  0.40264773463E+03  0.15294330000E+03 0.  0.
<mgrwt>
<rscale>  0 0.35575041E+03</rscale>
<asrwt>0</asrwt>
<pdfrwt beam="1">  1        2 0.24501183E+00 0.35575041E+03</pdfrwt>
<pdfrwt beam="2">  1       -2 0.20218961E-01 0.35575041E+03</pdfrwt>
<totfact> 0.24932880E+02</totfact>
</mgrwt>
</event>
<event>
 4    1  0.4639964E-008  0.4085281E+03  0.7818608E-02  0.1040866E+00
         -2   -1    0    0    0  501 -0.00000000000E+00  0.00000000000E+00  0.42417037914E+03  0.42417037914E+03  0.25500000000E-02 0.  1.
          2   -1    0    0  501    0  0.00000000000E+00 -0.00000000000E+00 -0.98207519529E+03  0.98207519529E+03  0.25500000000E-02 0. -1.
    8880022    1    1    2    0    0 -0.32616075846E+03  0.19267258788E+03  0.26539172113E+03  0.48716320175E+03  0.15294330000E+03 0.  0.
    8880022    1    1    2    0    0  0.32616075846E+03 -0.19267258788E+03 -0.82329653728E+03  0.91908237269E+03  0.15294330000E+03 0.  0.
<mgrwt>
<rscale>  0 0.40852811E+03</rscale>
<asrwt>0</asrwt>
<pdfrwt beam="1">  1        2 0.15108849E+00 0.40852811E+03</pdfrwt>
<pdfrwt beam="2">  1       -2 0.65256982E-01 0.40852811E+03</pdfrwt>
<totfact> 0.59045866E+01</totfact>
</mgrwt>
</event>
<event>
 4    1  0.4639964E-008  0.4790549E+03  0.7818608E-02  0.1019395E+00
         -2   -1    0    0    0  501 -0.00000000000E+00  0.00000000000E+00  0.12302858924E+03  0.12302858927E+03  0.25500000000E-02 0.  1.
          2   -1    0    0  501    0  0.00000000000E+00 -0.00000000000E+00 -0.28066234593E+04  0.28066234593E+04  0.25500000000E-02 0. -1.
    8880022    1    1    2    0    0 -0.11263465362E+03  0.43979017855E+03 -0.49350093110E+03  0.68777669949E+03  0.15294330000E+03 0.  0.
    8880022    1    1    2    0    0  0.11263465362E+03 -0.43979017855E+03 -0.21900939390E+04  0.22418753491E+04  0.15294330000E+03 0.  0.
<mgrwt>
<rscale>  0 0.47905492E+03</rscale>
<asrwt>0</asrwt>
<pdfrwt beam="1">  1        2 0.43178818E+00 0.47905492E+03</pdfrwt>
<pdfrwt beam="2">  1       -2 0.18927477E-01 0.47905492E+03</pdfrwt>
<totfact> 0.59169908E+01</totfact>
</mgrwt>
</event>
<event>
 4    1  0.4639964E-008  0.8329578E+03  0.7818608E-02  0.9513500E-01
         -2   -1    0    0    0  501 -0.00000000000E+00  0.00000000000E+00  0.48240331773E+03  0.48240331774E+03  0.25500000000E-02 0.  1.
          2   -1    0    0  501    0  0.00000000000E+00 -0.00000000000E+00 -0.16785549221E+04  0.16785549221E+04  0.25500000000E-02 0. -1.
    8880022    1    1    2    0    0  0.68297053345E+03 -0.45163951168E+03 -0.18926153966E+03  0.85418884416E+03  0.15294330000E+03 0.  0.
    8880022    1    1    2    0    0 -0.68297053345E+03  0.45163951168E+03 -0.10068900647E+04  0.13067693957E+04  0.15294330000E+03 0.  0.
<mgrwt>
<rscale>  0 0.83295777E+03</rscale>
<asrwt>0</asrwt>
<pdfrwt beam="1">  1        2 0.25823921E+00 0.83295777E+03</pdfrwt>
<pdfrwt beam="2">  1       -2 0.74215896E-01 0.83295777E+03</pdfrwt>
<totfact> 0.16756563E+01</totfact>
</mgrwt>
</event>
<event>
 4    1  0.4639964E-008  0.1826747E+03  0.7818608E-02  0.1165239E+00
          2   -1    0    0  501    0  0.00000000000E+00  0.00000000000E+00  0.16322188673E+04  0.16322188673E+04  0.25500000000E-02 0. -1.
         -2   -1    0    0    0  501 -0.00000000000E+00 -0.00000000000E+00 -0.58439070663E+02  0.58439070719E+02  0.25500000000E-02 0.  1.
    8880022    1    1    2    0    0 -0.95957856293E+02 -0.27757375945E+02  0.14684974520E+04  0.14798157999E+04  0.15294330000E+03 0.  0.
    8880022    1    1    2    0    0  0.95957856293E+02  0.27757375945E+02  0.10528234467E+03  0.21084213814E+03  0.15294330000E+03 0.  1.
<mgrwt>
<rscale>  0 0.18267467E+03</rscale>
<asrwt>0</asrwt>
<pdfrwt beam="1">  1        2 0.25111060E+00 0.18267467E+03</pdfrwt>
<pdfrwt beam="2">  1       -2 0.89906260E-02 0.18267467E+03</pdfrwt>
<totfact> 0.92267224E+02</totfact>
</mgrwt>
</event>
<event>
 4    1  0.4639964E-008  0.4691936E+03  0.7818608E-02  0.1022148E+00
         -2   -1    0    0    0  501 -0.00000000000E+00  0.00000000000E+00  0.26291394023E+04  0.26291394023E+04  0.25500000000E-02 0.  1.
          2   -1    0    0  501    0  0.00000000000E+00 -0.00000000000E+00 -0.22082782002E+03  0.22082782003E+03  0.25500000000E-02 0. -1.
    8880022    1    1    2    0    0 -0.28371639986E+03 -0.34096333854E+03  0.81374009758E+02  0.47619783311E+03  0.15294330000E+03 0.  0.
    8880022    1    1    2    0    0  0.28371639986E+03  0.34096333854E+03  0.23269375725E+04  0.23737693892E+04  0.15294330000E+03 0.  0.
<mgrwt>
<rscale>  0 0.46919361E+03</rscale>
<asrwt>0</asrwt>
<pdfrwt beam="1">  1        2 0.33973511E-01 0.46919361E+03</pdfrwt>
<pdfrwt beam="2">  1       -2 0.40448298E+00 0.46919361E+03</pdfrwt>
<totfact> 0.12084845E+00</totfact>
</mgrwt>
</event>
<event>
 4    1  0.4639964E-008  0.8526475E+03  0.7818608E-02  0.9486790E-01
         -2   -1    0    0    0  501 -0.00000000000E+00  0.00000000000E+00  0.69004645103E+03  0.69004645104E+03  0.25500000000E-02 0.  1.
          2   -1    0    0  501    0  0.00000000000E+00 -0.00000000000E+00 -0.23243296904E+04  0.23243296904E+04  0.25500000000E-02 0. -1.
    8880022    1    1    2    0    0 -0.68061146000E+03 -0.49028979855E+03 -0.19315680990E+04  0.21113888842E+04  0.15294330000E+03 0.  0.
    8880022    1    1    2    0    0  0.68061146000E+03  0.49028979855E+03  0.29728485963E+03  0.90298725729E+03  0.15294330000E+03 0.  0.
<mgrwt>
<rscale>  0 0.85264746E+03</rscale>
<asrwt>0</asrwt>
<pdfrwt beam="1">  1        2 0.35758918E+00 0.85264746E+03</pdfrwt>
<pdfrwt beam="2">  1       -2 0.10616099E+00 0.85264746E+03</pdfrwt>
<totfact> 0.32284165E+00</totfact>
</mgrwt>
</event>
<event>
 4    1  0.4639964E-008  0.1557367E+03  0.7818608E-02  0.1193596E+00
          2   -1    0    0  501    0  0.00000000000E+00  0.00000000000E+00  0.24090337799E+04  0.24090337799E+04  0.25500000000E-02 0. -1.
         -2   -1    0    0    0  501 -0.00000000000E+00 -0.00000000000E+00 -0.49787518660E+02  0.49787518725E+02  0.25500000000E-02 0.  1.
    8880022    1    1    2    0    0  0.10908328399E+01 -0.29343982591E+02  0.81529778296E+02  0.17578685103E+03  0.15294330000E+03 0.  1.
    8880022    1    1    2    0    0 -0.10908328399E+01  0.29343982591E+02  0.22777164830E+04  0.22830344476E+04  0.15294330000E+03 0.  0.
<mgrwt>
<rscale>  0 0.15573668E+03</rscale>
<asrwt>0</asrwt>
<pdfrwt beam="1">  1        2 0.37062062E+00 0.15573668E+03</pdfrwt>
<pdfrwt beam="2">  1       -2 0.76596176E-02 0.15573668E+03</pdfrwt>
<totfact> 0.47002913E+02</totfact>
</mgrwt>
</event>
<event>
 4    1  0.4639964E-008  0.4991229E+03  0.7818608E-02  0.1014008E+00
          2   -1    0    0  501    0  0.00000000000E+00  0.00000000000E+00  0.18429120302E+04  0.18429120302E+04  0.25500000000E-02 0. -1.
         -2   -1    0    0    0  501 -0.00000000000E+00 -0.00000000000E+00 -0.62743948311E+03  0.62743948311E+03  0.25500000000E-02 0.  1.
    8880022    1    1    2    0    0 -0.40704259925E+03 -0.24504757928E+03  0.17017938301E+04  0.17734784710E+04  0.15294330000E+03 0.  0.
    8880022    1    1    2    0    0  0.40704259925E+03  0.24504757928E+03 -0.48632128307E+03  0.69687304231E+03  0.15294330000E+03 0.  0.
<mgrwt>
<rscale>  0 0.49912288E+03</rscale>
<asrwt>0</asrwt>
<pdfrwt beam="1">  1        2 0.28352492E+00 0.49912288E+03</pdfrwt>
<pdfrwt beam="2">  1       -2 0.96529153E-01 0.49912288E+03</pdfrwt>
<totfact> 0.79313106E+00</totfact>
</mgrwt>
</event>
<event>
 4    1  0.5423726E-008  0.6437772E+03  0.7818608E-02  0.9818526E-01
          2   -1    0    0  501    0  0.00000000000E+00  0.00000000000E+00  0.18301250688E+04  0.18301250688E+04  0.25500000000E-02 0. -1.
         -2   -1    0    0    0  501 -0.00000000000E+00 -0.00000000000E+00 -0.12205822839E+04  0.12205822839E+04  0.25500000000E-02 0.  1.
    8880022    1    1    2    0    0  0.25823881387E+03 -0.56953505910E+03  0.16813691128E+04  0.18004030702E+04  0.15294330000E+03 0. -1.
    8880022    1    1    2    0    0 -0.25823881387E+03  0.56953505910E+03 -0.10718263280E+04  0.12503042825E+04  0.15294330000E+03 0.  0.
<mgrwt>
<rscale>  0 0.64377723E+03</rscale>
<asrwt>0</asrwt>
<pdfrwt beam="1">  1        2 0.28155770E+00 0.64377723E+03</pdfrwt>
<pdfrwt beam="2">  1       -2 0.18778189E+00 0.64377723E+03</pdfrwt>
<totfact> 0.14132271E+00</totfact>
</mgrwt>
</event>
<event>
 4    1  0.4639964E-008  0.1737960E+03  0.7818608E-02  0.1173946E+00
          2   -1    0    0  501    0  0.00000000000E+00  0.00000000000E+00  0.77895776627E+03  0.77895776628E+03  0.25500000000E-02 0. -1.
         -2   -1    0    0    0  501 -0.00000000000E+00 -0.00000000000E+00 -0.67799937791E+02  0.67799937838E+02  0.25500000000E-02 0.  1.
    8880022    1    1    2    0    0 -0.78730946196E+01 -0.82167036574E+02  0.78571868491E+02  0.19073174631E+03  0.15294330000E+03 0.  0.
    8880022    1    1    2    0    0  0.78730946196E+01  0.82167036574E+02  0.63258595999E+03  0.65602595780E+03  0.15294330000E+03 0. -1.
<mgrwt>
<rscale>  0 0.17379603E+03</rscale>
<asrwt>0</asrwt>
<pdfrwt beam="1">  1        2 0.11983966E+00 0.17379603E+03</pdfrwt>
<pdfrwt beam="2">  1       -2 0.10430760E-01 0.17379603E+03</pdfrwt>
<totfact> 0.22560426E+03</totfact>
</mgrwt>
</event>
<event>
 4    1  0.4639964E-008  0.3941159E+03  0.7818608E-02  0.1045836E+00
         -2   -1    0    0    0  501 -0.00000000000E+00  0.00000000000E+00  0.53815085121E+03  0.53815085122E+03  0.25500000000E-02 0.  1.
          2   -1    0    0  501    0  0.00000000000E+00 -0.00000000000E+00 -0.13221824749E+04  0.13221824749E+04  0.25500000000E-02 0. -1.
    8880022    1    1    2    0    0  0.31587509522E+03 -0.17932832399E+03 -0.12144118092E+04  0.12767628671E+04  0.15294330000E+03 0.  0.
    8880022    1    1    2    0    0 -0.31587509522E+03  0.17932832399E+03  0.43038018548E+03  0.58357045901E+03  0.15294330000E+03 0.  0.
<mgrwt>
<rscale>  0 0.39411594E+03</rscale>
<asrwt>0</asrwt>
<pdfrwt beam="1">  1        2 0.20341269E+00 0.39411594E+03</pdfrwt>
<pdfrwt beam="2">  1       -2 0.82792439E-01 0.39411594E+03</pdfrwt>
<totfact> 0.22164163E+01</totfact>
</mgrwt>
</event>
<event>
 4    1  0.4639964E-008  0.8353602E+03  0.7818608E-02  0.9510199E-01
         -2   -1    0    0    0  501 -0.00000000000E+00  0.00000000000E+00  0.11317032307E+04  0.11317032307E+04  0.25500000000E-02 0.  1.
          2   -1    0    0  501    0  0.00000000000E+00 -0.00000000000E+00 -0.91296238612E+03  0.91296238612E+03  0.25500000000E-02 0. -1.
    8880022    1    1    2    0    0  0.37627435733E+03 -0.72996752600E+03  0.69182956906E+03  0.10846450049E+04  0.15294330000E+03 0.  0.
    8880022    1    1    2    0    0 -0.37627435733E+03  0.72996752600E+03 -0.47308872451E+03  0.96002061190E+03  0.15294330000E+03 0.  0.
<mgrwt>
<rscale>  0 0.83536018E+03</rscale>
<asrwt>0</asrwt>
<pdfrwt beam="1">  1        2 0.14045575E+00 0.83536018E+03</pdfrwt>
<pdfrwt beam="2">  1       -2 0.17410819E+00 0.83536018E+03</pdfrwt>
<totfact> 0.57793865E+00</totfact>
</mgrwt>
</event>
<event>
 4    1  0.4639964E-008  0.5906773E+03  0.7818608E-02  0.9924939E-01
         -2   -1    0    0    0  501 -0.00000000000E+00  0.00000000000E+00  0.43002450873E+03  0.43002450874E+03  0.25500000000E-02 0.  1.
          2   -1    0    0  501    0  0.00000000000E+00 -0.00000000000E+00 -0.22194288543E+04  0.22194288543E+04  0.25500000000E-02 0. -1.
    8880022    1    1    2    0    0  0.34698465608E+03 -0.45289037513E+03  0.16046046504E+03  0.61208435472E+03  0.15294330000E+03 0.  0.
    8880022    1    1    2    0    0 -0.34698465608E+03  0.45289037513E+03 -0.19498648106E+04  0.20373690084E+04  0.15294330000E+03 0.  0.
<mgrwt>
<rscale>  0 0.59067732E+03</rscale>
<asrwt>0</asrwt>
<pdfrwt beam="1">  1        2 0.34145059E+00 0.59067732E+03</pdfrwt>
<pdfrwt beam="2">  1       -2 0.66157618E-01 0.59067732E+03</pdfrwt>
<totfact> 0.11327798E+01</totfact>
</mgrwt>
</event>
<event>
 4    1  0.4639964E-008  0.3893538E+03  0.7818608E-02  0.1047530E+00
         -2   -1    0    0    0  501 -0.00000000000E+00  0.00000000000E+00  0.55118806829E+03  0.55118806830E+03  0.25500000000E-02 0.  1.
          2   -1    0    0  501    0  0.00000000000E+00 -0.00000000000E+00 -0.55686939996E+03  0.55686939996E+03  0.25500000000E-02 0. -1.
    8880022    1    1    2    0    0  0.32761048645E+03 -0.14448564788E+03  0.39130076375E+03  0.55200785683E+03  0.15294330000E+03 0.  0.
    8880022    1    1    2    0    0 -0.32761048645E+03  0.14448564788E+03 -0.39698209542E+03  0.55604961143E+03  0.15294330000E+03 0. -1.
<mgrwt>
<rscale>  0 0.38935381E+03</rscale>
<asrwt>0</asrwt>
<pdfrwt beam="1">  1        2 0.85672216E-01 0.38935381E+03</pdfrwt>
<pdfrwt beam="2">  1       -2 0.84798164E-01 0.38935381E+03</pdfrwt>
<totfact> 0.68562936E+01</totfact>
</mgrwt>
</event>
<event>
 4    1  0.4639964E-008  0.7819769E+03  0.7818608E-02  0.9586477E-01
          2   -1    0    0  501    0  0.00000000000E+00  0.00000000000E+00  0.26889043801E+04  0.26889043801E+04  0.25500000000E-02 0. -1.
         -2   -1    0    0    0  501 -0.00000000000E+00 -0.00000000000E+00 -0.24972740601E+03  0.24972740603E+03  0.25500000000E-02 0.  1.
    8880022    1    1    2    0    0  0.76686977912E+03  0.26459114393E+01  0.16588153077E+04  0.18338909829E+04  0.15294330000E+03 0.  0.
    8880022    1    1    2    0    0 -0.76686977912E+03 -0.26459114393E+01  0.78036166633E+03  0.11047408032E+04  0.15294330000E+03 0.  0.
<mgrwt>
<rscale>  0 0.78197693E+03</rscale>
<asrwt>0</asrwt>
<pdfrwt beam="1">  1        2 0.41367761E+00 0.78197693E+03</pdfrwt>
<pdfrwt beam="2">  1       -2 0.38419600E-01 0.78197693E+03</pdfrwt>
<totfact> 0.18044641E+01</totfact>
</mgrwt>
</event>
<event>
 4    1  0.4639964E-008  0.5267101E+03  0.7818608E-02  0.1007033E+00
          2   -1    0    0  501    0  0.00000000000E+00  0.00000000000E+00  0.22841195026E+04  0.22841195026E+04  0.25500000000E-02 0. -1.
         -2   -1    0    0    0  501 -0.00000000000E+00 -0.00000000000E+00 -0.19887306667E+03  0.19887306669E+03  0.25500000000E-02 0.  1.
    8880022    1    1    2    0    0  0.47506864066E+03  0.16834979798E+03  0.18172125183E+04  0.18920055120E+04  0.15294330000E+03 0.  0.
    8880022    1    1    2    0    0 -0.47506864066E+03 -0.16834979798E+03  0.26803391759E+03  0.59098705723E+03  0.15294330000E+03 0.  0.
<mgrwt>
<rscale>  0 0.52671009E+03</rscale>
<asrwt>0</asrwt>
<pdfrwt beam="1">  1        2 0.35140297E+00 0.52671009E+03</pdfrwt>
<pdfrwt beam="2">  1       -2 0.30595859E-01 0.52671009E+03</pdfrwt>
<totfact> 0.49036802E+01</totfact>
</mgrwt>
</event>
<event>
 4    1  0.4639964E-008  0.2830836E+03  0.7818608E-02  0.1094017E+00
          2   -1    0    0  501    0  0.00000000000E+00  0.00000000000E+00  0.14851544744E+04  0.14851544744E+04  0.25500000000E-02 0. -1.
         -2   -1    0    0    0  501 -0.00000000000E+00 -0.00000000000E+00 -0.18107930404E+03  0.18107930406E+03  0.25500000000E-02 0.  1.
    8880022    1    1    2    0    0  0.33317365884E+01  0.23818810966E+03  0.13500775395E+04  0.13794367299E+04  0.15294330000E+03 0.  0.
    8880022    1    1    2    0    0 -0.33317365884E+01 -0.23818810966E+03 -0.46002369209E+02  0.28679704852E+03  0.15294330000E+03 0.  1.
<mgrwt>
<rscale>  0 0.28308361E+03</rscale>
<asrwt>0</asrwt>
<pdfrwt beam="1">  1        2 0.22848530E+00 0.28308361E+03</pdfrwt>
<pdfrwt beam="2">  1       -2 0.27858355E-01 0.28308361E+03</pdfrwt>
<totfact> 0.16386327E+02</totfact>
</mgrwt>
</event>
<event>
 4    1  0.4639964E-008  0.4043057E+03  0.7818608E-02  0.1042299E+00
         -2   -1    0    0    0  501 -0.00000000000E+00  0.00000000000E+00  0.28777824163E+03  0.28777824164E+03  0.25500000000E-02 0.  1.
          2   -1    0    0  501    0  0.00000000000E+00 -0.00000000000E+00 -0.13192870395E+04  0.13192870395E+04  0.25500000000E-02 0. -1.
    8880022    1    1    2    0    0 -0.26773041502E+03  0.26151835472E+03 -0.11221161029E+04  0.11927311627E+04  0.15294330000E+03 0.  0.
    8880022    1    1    2    0    0  0.26773041502E+03 -0.26151835472E+03  0.90607305050E+02  0.41433411846E+03  0.15294330000E+03 0.  0.
<mgrwt>
<rscale>  0 0.40430567E+03</rscale>
<asrwt>0</asrwt>
<pdfrwt beam="1">  1        2 0.20296723E+00 0.40430567E+03</pdfrwt>
<pdfrwt beam="2">  1       -2 0.44273576E-01 0.40430567E+03</pdfrwt>
<totfact> 0.82640757E+01</totfact>
</mgrwt>
</event>
<event>
 4    1  0.4639964E-008  0.9773724E+03  0.7818608E-02  0.9333717E-01
         -2   -1    0    0    0  501 -0.00000000000E+00  0.00000000000E+00  0.24926728308E+04  0.24926728308E+04  0.25500000000E-02 0.  1.
          2   -1    0    0  501    0  0.00000000000E+00 -0.00000000000E+00 -0.45810710898E+03  0.45810710899E+03  0.25500000000E-02 0. -1.
    8880022    1    1    2    0    0  0.84025959093E+03 -0.47521464681E+03  0.42078384794E+03  0.10641033034E+04  0.15294330000E+03 0.  0.
    8880022    1    1    2    0    0 -0.84025959093E+03  0.47521464681E+03  0.16137818739E+04  0.18866766364E+04  0.15294330000E+03 0.  0.
<mgrwt>
<rscale>  0 0.97737239E+03</rscale>
<asrwt>0</asrwt>
<pdfrwt beam="1">  1        2 0.70478016E-01 0.97737239E+03</pdfrwt>
<pdfrwt beam="2">  1       -2 0.38348813E+00 0.97737239E+03</pdfrwt>
<totfact> 0.66227579E-01</totfact>
</mgrwt>
</event>
<event>
 4    1  0.4639964E-008  0.6444506E+03  0.7818608E-02  0.9817248E-01
          2   -1    0    0  501    0  0.00000000000E+00  0.00000000000E+00  0.18582394722E+04  0.18582394722E+04  0.25500000000E-02 0. -1.
         -2   -1    0    0    0  501 -0.00000000000E+00 -0.00000000000E+00 -0.70678551987E+03  0.70678551987E+03  0.25500000000E-02 0.  1.
    8880022    1    1    2    0    0 -0.24108597631E+03 -0.57775644312E+03 -0.48479495560E+03  0.80643831601E+03  0.15294330000E+03 0.  0.
    8880022    1    1    2    0    0  0.24108597631E+03  0.57775644312E+03  0.16362489080E+04  0.17585866761E+04  0.15294330000E+03 0. -1.
<mgrwt>
<rscale>  0 0.64445063E+03</rscale>
<asrwt>0</asrwt>
<pdfrwt beam="1">  1        2 0.28588299E+00 0.64445063E+03</pdfrwt>
<pdfrwt beam="2">  1       -2 0.10873624E+00 0.64445063E+03</pdfrwt>
<totfact> 0.56909821E+00</totfact>
</mgrwt>
</event>
<event>
 4    1  0.4639964E-008  0.3880348E+03  0.7818608E-02  0.1048003E+00
          2   -1    0    0  501    0  0.00000000000E+00  0.00000000000E+00  0.49959288331E+03  0.49959288332E+03  0.25500000000E-02 0. -1.
         -2   -1    0    0    0  501 -0.00000000000E+00 -0.00000000000E+00 -0.41708195640E+03  0.41708195641E+03  0.25500000000E-02 0.  1.
    8880022    1    1    2    0    0 -0.18496890303E+03 -0.30490309002E+03  0.28265193543E+03  0.48006578612E+03  0.15294330000E+03 0.  0.
    8880022    1    1    2    0    0  0.18496890303E+03  0.30490309002E+03 -0.20014100852E+03  0.43660905361E+03  0.15294330000E+03 0.  0.
<mgrwt>
<rscale>  0 0.38803485E+03</rscale>
<asrwt>0</asrwt>
<pdfrwt beam="1">  1        2 0.76860443E-01 0.38803485E+03</pdfrwt>
<pdfrwt beam="2">  1       -2 0.64166455E-01 0.38803485E+03</pdfrwt>
<totfact> 0.14294676E+02</totfact>
</mgrwt>
</event>
<event>
 4    1  0.4639964E-008  0.4915928E+03  0.7818608E-02  0.1015997E+00
         -2   -1    0    0    0  501 -0.00000000000E+00  0.00000000000E+00  0.37439938986E+03  0.37439938987E+03  0.25500000000E-02 0.  1.
          2   -1    0    0  501    0  0.00000000000E+00 -0.00000000000E+00 -0.15353666372E+04  0.15353666372E+04  0.25500000000E-02 0. -1.
    8880022    1    1    2    0    0  0.44421637366E+03 -0.14471928329E+03  0.14648211319E+03  0.51295274644E+03  0.15294330000E+03 0.  0.
    8880022    1    1    2    0    0 -0.44421637366E+03  0.14471928329E+03 -0.13074493605E+04  0.13968132806E+04  0.15294330000E+03 0.  0.
<mgrwt>
<rscale>  0 0.49159283E+03</rscale>
<asrwt>0</asrwt>
<pdfrwt beam="1">  1        2 0.23621025E+00 0.49159283E+03</pdfrwt>
<pdfrwt beam="2">  1       -2 0.57599907E-01 0.49159283E+03</pdfrwt>
<totfact> 0.36304443E+01</totfact>
</mgrwt>
</event>
<event>
 4    1  0.4639964E-008  0.9609537E+03  0.7818608E-02  0.9352438E-01
         -2   -1    0    0    0  501 -0.00000000000E+00  0.00000000000E+00  0.59558077514E+03  0.59558077515E+03  0.25500000000E-02 0.  1.
          2   -1    0    0  501    0  0.00000000000E+00 -0.00000000000E+00 -0.25832738956E+04  0.25832738956E+04  0.25500000000E-02 0. -1.
    8880022    1    1    2    0    0 -0.12667804415E+03  0.94020899784E+03  0.11148074197E+02  0.96101832400E+03  0.15294330000E+03 0.  0.
    8880022    1    1    2    0    0  0.12667804415E+03 -0.94020899784E+03 -0.19988411946E+04  0.22178363467E+04  0.15294330000E+03 0.  0.
<mgrwt>
<rscale>  0 0.96095366E+03</rscale>
<asrwt>0</asrwt>
<pdfrwt beam="1">  1        2 0.39742675E+00 0.96095366E+03</pdfrwt>
<pdfrwt beam="2">  1       -2 0.91627813E-01 0.96095366E+03</pdfrwt>
<totfact> 0.32083947E+00</totfact>
</mgrwt>
</event>
<event>
 4    1  0.4639964E-008  0.5328259E+03  0.7818608E-02  0.1005549E+00
         -2   -1    0    0    0  501 -0.00000000000E+00  0.00000000000E+00  0.90007041068E+03  0.90007041069E+03  0.25500000000E-02 0.  1.
          2   -1    0    0  501    0  0.00000000000E+00 -0.00000000000E+00 -0.41711202536E+03  0.41711202537E+03  0.25500000000E-02 0. -1.
    8880022    1    1    2    0    0  0.50832218716E+03  0.46046692052E+02 -0.83702034291E+02  0.53936020188E+03  0.15294330000E+03 0.  0.
    8880022    1    1    2    0    0 -0.50832218716E+03 -0.46046692052E+02  0.56666041961E+03  0.77782223418E+03  0.15294330000E+03 0.  0.
<mgrwt>
<rscale>  0 0.53282586E+03</rscale>
<asrwt>0</asrwt>
<pdfrwt beam="1">  1        2 0.64171081E-01 0.53282586E+03</pdfrwt>
<pdfrwt beam="2">  1       -2 0.13847237E+00 0.53282586E+03</pdfrwt>
<totfact> 0.28921555E+01</totfact>
</mgrwt>
</event>
<event>
 4    1  0.4639964E-008  0.1199359E+04  0.7818608E-02  0.9113418E-01
          2   -1    0    0  501    0  0.00000000000E+00  0.00000000000E+00  0.51826781820E+03  0.51826781820E+03  0.25500000000E-02 0. -1.
         -2   -1    0    0    0  501 -0.00000000000E+00 -0.00000000000E+00 -0.33380178597E+04  0.33380178597E+04  0.25500000000E-02 0.  1.
    8880022    1    1    2    0    0 -0.11894808252E+04 -0.14326990764E+02 -0.22013845837E+04  0.25069016005E+04  0.15294330000E+03 0.  0.
    8880022    1    1    2    0    0  0.11894808252E+04  0.14326990764E+02 -0.61836545784E+03  0.13493840775E+04  0.15294330000E+03 0.  0.
<mgrwt>
<rscale>  0 0.11993588E+04</rscale>
<asrwt>0</asrwt>
<pdfrwt beam="1">  1        2 0.79733513E-01 0.11993588E+04</pdfrwt>
<pdfrwt beam="2">  1       -2 0.51354120E+00 0.11993588E+04</pdfrwt>
<totfact> 0.79076375E-02</totfact>
</mgrwt>
</event>
<event>
 4    1  0.4639964E-008  0.1081639E+04  0.7818608E-02  0.9223275E-01
         -2   -1    0    0    0  501 -0.00000000000E+00  0.00000000000E+00  0.17298947661E+04  0.17298947661E+04  0.25500000000E-02 0.  1.
          2   -1    0    0  501    0  0.00000000000E+00 -0.00000000000E+00 -0.10422538529E+04  0.10422538529E+04  0.25500000000E-02 0. -1.
    8880022    1    1    2    0    0 -0.32000469387E+03 -0.10218355374E+04 -0.47749100150E+03  0.11823452030E+04  0.15294330000E+03 0.  0.
    8880022    1    1    2    0    0  0.32000469387E+03  0.10218355374E+04  0.11651319147E+04  0.15898034159E+04  0.15294330000E+03 0.  0.
<mgrwt>
<rscale>  0 0.10816388E+04</rscale>
<asrwt>0</asrwt>
<pdfrwt beam="1">  1        2 0.16034675E+00 0.10816388E+04</pdfrwt>
<pdfrwt beam="2">  1       -2 0.26613766E+00 0.10816388E+04</pdfrwt>
<totfact> 0.11974757E+00</totfact>
</mgrwt>
</event>
<event>
 4    1  0.4639964E-008  0.3419887E+03  0.7818608E-02  0.1065952E+00
          2   -1    0    0  501    0  0.00000000000E+00  0.00000000000E+00  0.24788589239E+03  0.24788589240E+03  0.25500000000E-02 0. -1.
         -2   -1    0    0    0  501 -0.00000000000E+00 -0.00000000000E+00 -0.59441273263E+03  0.59441273263E+03  0.25500000000E-02 0.  1.
    8880022    1    1    2    0    0 -0.23581690107E+03  0.19482049632E+03 -0.36452740999E+03  0.49983649553E+03  0.15294330000E+03 0.  0.
    8880022    1    1    2    0    0  0.23581690107E+03 -0.19482049632E+03  0.18000569745E+02  0.34246212951E+03  0.15294330000E+03 0.  0.
<mgrwt>
<rscale>  0 0.34198873E+03</rscale>
<asrwt>0</asrwt>
<pdfrwt beam="1">  1        2 0.38136291E-01 0.34198873E+03</pdfrwt>
<pdfrwt beam="2">  1       -2 0.91448112E-01 0.34198873E+03</pdfrwt>
<totfact> 0.14227667E+02</totfact>
</mgrwt>
</event>
<event>
 4    1  0.4639964E-008  0.3255168E+03  0.7818608E-02  0.1073138E+00
         -2   -1    0    0    0  501 -0.00000000000E+00  0.00000000000E+00  0.34917108041E+03  0.34917108042E+03  0.25500000000E-02 0.  1.
          2   -1    0    0  501    0  0.00000000000E+00 -0.00000000000E+00 -0.75004369892E+03  0.75004369893E+03  0.25500000000E-02 0. -1.
    8880022    1    1    2    0    0  0.17601144139E+03  0.22713322326E+03  0.22365396243E+03  0.39494591596E+03  0.15294330000E+03 0.  0.
    8880022    1    1    2    0    0 -0.17601144139E+03 -0.22713322326E+03 -0.62452658095E+03  0.70426886339E+03  0.15294330000E+03 0.  0.
<mgrwt>
<rscale>  0 0.32551679E+03</rscale>
<asrwt>0</asrwt>
<pdfrwt beam="1">  1        2 0.11539134E+00 0.32551679E+03</pdfrwt>
<pdfrwt beam="2">  1       -2 0.53718628E-01 0.32551679E+03</pdfrwt>
<totfact> 0.12840928E+02</totfact>
</mgrwt>
</event>
<event>
 4    1  0.4639964E-008  0.8217090E+03  0.7818608E-02  0.9529115E-01
         -2   -1    0    0    0  501 -0.00000000000E+00  0.00000000000E+00  0.24226504762E+03  0.24226504764E+03  0.25500000000E-02 0.  1.
          2   -1    0    0  501    0  0.00000000000E+00 -0.00000000000E+00 -0.47956476952E+04  0.47956476952E+04  0.25500000000E-02 0. -1.
    8880022    1    1    2    0    0 -0.46823683451E+03  0.65769924638E+03 -0.64648303980E+03  0.10455362288E+04  0.15294330000E+03 0.  0.
    8880022    1    1    2    0    0  0.46823683451E+03 -0.65769924638E+03 -0.39068996077E+04  0.39923765140E+04  0.15294330000E+03 0.  0.
<mgrwt>
<rscale>  0 0.82170900E+03</rscale>
<asrwt>0</asrwt>
<pdfrwt beam="1">  1        2 0.73779188E+00 0.82170900E+03</pdfrwt>
<pdfrwt beam="2">  1       -2 0.37271549E-01 0.82170900E+03</pdfrwt>
<totfact> 0.46526907E-01</totfact>
</mgrwt>
</event>
<event>
 4    1  0.4639964E-008  0.6240670E+03  0.7818608E-02  0.9856695E-01
          2   -1    0    0  501    0  0.00000000000E+00  0.00000000000E+00  0.10003434838E+04  0.10003434838E+04  0.25500000000E-02 0. -1.
         -2   -1    0    0    0  501 -0.00000000000E+00 -0.00000000000E+00 -0.10446163936E+04  0.10446163936E+04  0.25500000000E-02 0.  1.
    8880022    1    1    2    0    0 -0.27179599125E+03  0.54055058028E+03  0.78769250917E+03  0.10049473283E+04  0.15294330000E+03 0.  0.
    8880022    1    1    2    0    0  0.27179599125E+03 -0.54055058028E+03 -0.83196541901E+03  0.10400125490E+04  0.15294330000E+03 0.  0.
<mgrwt>
<rscale>  0 0.62406702E+03</rscale>
<asrwt>0</asrwt>
<pdfrwt beam="1">  1        2 0.15389900E+00 0.62406702E+03</pdfrwt>
<pdfrwt beam="2">  1       -2 0.16071021E+00 0.62406702E+03</pdfrwt>
<totfact> 0.65027210E+00</totfact>
</mgrwt>
</event>
<event>
 4    1  0.4639964E-008  0.2877751E+03  0.7818608E-02  0.1091517E+00
          2   -1    0    0  501    0  0.00000000000E+00  0.00000000000E+00  0.50218818647E+03  0.50218818648E+03  0.25500000000E-02 0. -1.
         -2   -1    0    0    0  501 -0.00000000000E+00 -0.00000000000E+00 -0.22405294503E+03  0.22405294504E+03  0.25500000000E-02 0.  1.
    8880022    1    1    2    0    0 -0.12967955536E+03  0.20641236192E+03  0.32563549589E+03  0.43457217977E+03  0.15294330000E+03 0.  0.
    8880022    1    1    2    0    0  0.12967955536E+03 -0.20641236192E+03 -0.47500254443E+02  0.29166895175E+03  0.15294330000E+03 0.  0.
<mgrwt>
<rscale>  0 0.28777509E+03</rscale>
<asrwt>0</asrwt>
<pdfrwt beam="1">  1        2 0.77259721E-01 0.28777509E+03</pdfrwt>
<pdfrwt beam="2">  1       -2 0.34469684E-01 0.28777509E+03</pdfrwt>
<totfact> 0.49203533E+02</totfact>
</mgrwt>
</event>
<event>
 4    1  0.4639964E-008  0.1082262E+04  0.7818608E-02  0.9222655E-01
         -2   -1    0    0    0  501 -0.00000000000E+00  0.00000000000E+00  0.13228490094E+04  0.13228490094E+04  0.25500000000E-02 0.  1.
          2   -1    0    0  501    0  0.00000000000E+00 -0.00000000000E+00 -0.10000615299E+04  0.10000615299E+04  0.25500000000E-02 0. -1.
    8880022    1    1    2    0    0 -0.86767585546E+03 -0.62852057249E+03 -0.23183006883E+03  0.11068135950E+04  0.15294330000E+03 0.  0.
    8880022    1    1    2    0    0  0.86767585546E+03  0.62852057249E+03  0.55461754828E+03  0.12160969444E+04  0.15294330000E+03 0.  0.
<mgrwt>
<rscale>  0 0.10822621E+04</rscale>
<asrwt>0</asrwt>
<pdfrwt beam="1">  1        2 0.15385562E+00 0.10822621E+04</pdfrwt>
<pdfrwt beam="2">  1       -2 0.20351523E+00 0.10822621E+04</pdfrwt>
<totfact> 0.31252721E+00</totfact>
</mgrwt>
</event>
<event>
 4    1  0.4639964E-008  0.1265328E+04  0.7818608E-02  0.9057521E-01
          2   -1    0    0  501    0  0.00000000000E+00  0.00000000000E+00  0.21597378081E+04  0.21597378081E+04  0.25500000000E-02 0. -1.
         -2   -1    0    0    0  501 -0.00000000000E+00 -0.00000000000E+00 -0.11342121756E+04  0.11342121756E+04  0.25500000000E-02 0.  1.
    8880022    1    1    2    0    0  0.63489727629E+03 -0.10837754513E+04 -0.45657889306E+03  0.13451838978E+04  0.15294330000E+03 0.  0.
    8880022    1    1    2    0    0 -0.63489727629E+03  0.10837754513E+04  0.14821045256E+04  0.19487660860E+04  0.15294330000E+03 0.  0.
<mgrwt>
<rscale>  0 0.12653282E+04</rscale>
<asrwt>0</asrwt>
<pdfrwt beam="1">  1        2 0.33226736E+00 0.12653282E+04</pdfrwt>
<pdfrwt beam="2">  1       -2 0.17449418E+00 0.12653282E+04</pdfrwt>
<totfact> 0.10402388E+00</totfact>
</mgrwt>
</event>
<event>
 4    1  0.4639964E-008  0.4265208E+03  0.7818608E-02  0.1034965E+00
         -2   -1    0    0    0  501 -0.00000000000E+00  0.00000000000E+00  0.13861291799E+03  0.13861291802E+03  0.25500000000E-02 0.  1.
          2   -1    0    0  501    0  0.00000000000E+00 -0.00000000000E+00 -0.24500633587E+04  0.24500633587E+04  0.25500000000E-02 0. -1.
    8880022    1    1    2    0    0 -0.36190443831E+03 -0.16599252385E+03 -0.27374282405E+03  0.50680876786E+03  0.15294330000E+03 0.  0.
    8880022    1    1    2    0    0  0.36190443831E+03  0.16599252385E+03 -0.20377076167E+04  0.20818675089E+04  0.15294330000E+03 0.  0.
<mgrwt>
<rscale>  0 0.42652080E+03</rscale>
<asrwt>0</asrwt>
<pdfrwt beam="1">  1        2 0.37693279E+00 0.42652080E+03</pdfrwt>
<pdfrwt beam="2">  1       -2 0.21325066E-01 0.42652080E+03</pdfrwt>
<totfact> 0.77557110E+01</totfact>
</mgrwt>
</event>
<event>
 4    1  0.4639964E-008  0.2499891E+03  0.7818608E-02  0.1113312E+00
          2   -1    0    0  501    0  0.00000000000E+00  0.00000000000E+00  0.13242819637E+04  0.13242819637E+04  0.25500000000E-02 0. -1.
         -2   -1    0    0    0  501 -0.00000000000E+00 -0.00000000000E+00 -0.56236264026E+03  0.56236264026E+03  0.25500000000E-02 0.  1.
    8880022    1    1    2    0    0 -0.19735909441E+03 -0.12341052513E+02 -0.52191554101E+03  0.57869715628E+03  0.15294330000E+03 0.  1.
    8880022    1    1    2    0    0  0.19735909441E+03  0.12341052513E+02  0.12838348644E+04  0.13079474477E+04  0.15294330000E+03 0.  0.
<mgrwt>
<rscale>  0 0.24998913E+03</rscale>
<asrwt>0</asrwt>
<pdfrwt beam="1">  1        2 0.20373569E+00 0.24998913E+03</pdfrwt>
<pdfrwt beam="2">  1       -2 0.86517330E-01 0.24998913E+03</pdfrwt>
<totfact> 0.20852911E+01</totfact>
</mgrwt>
</event>
<event>
 4    1  0.4639964E-008  0.6513222E+03  0.7818608E-02  0.9804301E-01
          2   -1    0    0  501    0  0.00000000000E+00  0.00000000000E+00  0.21842579254E+04  0.21842579254E+04  0.25500000000E-02 0. -1.
         -2   -1    0    0    0  501 -0.00000000000E+00 -0.00000000000E+00 -0.20773655344E+03  0.20773655346E+03  0.25500000000E-02 0.  1.
    8880022    1    1    2    0    0 -0.61824924063E+03  0.13637043418E+03  0.68315513623E+03  0.94388644022E+03  0.15294330000E+03 0.  0.
    8880022    1    1    2    0    0  0.61824924063E+03 -0.13637043418E+03  0.12933662358E+04  0.14481080387E+04  0.15294330000E+03 0.  1.
<mgrwt>
<rscale>  0 0.65132225E+03</rscale>
<asrwt>0</asrwt>
<pdfrwt beam="1">  1        2 0.33603967E+00 0.65132225E+03</pdfrwt>
<pdfrwt beam="2">  1       -2 0.31959471E-01 0.65132225E+03</pdfrwt>
<totfact> 0.50254403E+01</totfact>
</mgrwt>
</event>
<event>
 4    1  0.4639964E-008  0.1969379E+04  0.7818608E-02  0.8621072E-01
          2   -1    0    0  501    0  0.00000000000E+00  0.00000000000E+00  0.29323227013E+04  0.29323227013E+04  0.25500000000E-02 0. -1.
         -2   -1    0    0    0  501 -0.00000000000E+00 -0.00000000000E+00 -0.13264542525E+04  0.13264542525E+04  0.25500000000E-02 0.  1.
    8880022    1    1    2    0    0 -0.33146192271E+03  0.19352507233E+04  0.91688163366E+03  0.21723549322E+04  0.15294330000E+03 0.  0.
    8880022    1    1    2    0    0  0.33146192271E+03 -0.19352507233E+04  0.68898681505E+03  0.20864220216E+04  0.15294330000E+03 0.  0.
<mgrwt>
<rscale>  0 0.19693791E+04</rscale>
<asrwt>0</asrwt>
<pdfrwt beam="1">  1        2 0.45112657E+00 0.19693791E+04</pdfrwt>
<pdfrwt beam="2">  1       -2 0.20406989E+00 0.19693791E+04</pdfrwt>
<totfact> 0.21505471E-01</totfact>
</mgrwt>
</event>
<event>
 4    1  0.4639964E-008  0.5806967E+03  0.7818608E-02  0.9946284E-01
          2   -1    0    0  501    0  0.00000000000E+00  0.00000000000E+00  0.20430107459E+04  0.20430107459E+04  0.25500000000E-02 0. -1.
         -2   -1    0    0    0  501 -0.00000000000E+00 -0.00000000000E+00 -0.29436242989E+03  0.29436242990E+03  0.25500000000E-02 0.  1.
    8880022    1    1    2    0    0 -0.53918602533E+03 -0.15197184802E+03  0.99739306652E+02  0.58919996165E+03  0.15294330000E+03 0.  0.
    8880022    1    1    2    0    0  0.53918602533E+03  0.15197184802E+03  0.16489090093E+04  0.17481732141E+04  0.15294330000E+03 0.  0.
<mgrwt>
<rscale>  0 0.58069671E+03</rscale>
<asrwt>0</asrwt>
<pdfrwt beam="1">  1        2 0.31430935E+00 0.58069671E+03</pdfrwt>
<pdfrwt beam="2">  1       -2 0.45286526E-01 0.58069671E+03</pdfrwt>
<totfact> 0.30986369E+01</totfact>
</mgrwt>
</event>
<event>
 4    1  0.4639964E-008  0.8198019E+03  0.7818608E-02  0.9531789E-01
         -2   -1    0    0    0  501 -0.00000000000E+00  0.00000000000E+00  0.99568149793E+03  0.99568149793E+03  0.25500000000E-02 0.  1.
          2   -1    0    0  501    0  0.00000000000E+00 -0.00000000000E+00 -0.14741289967E+04  0.14741289967E+04  0.25500000000E-02 0. -1.
    8880022    1    1    2    0    0 -0.45547850937E+03 -0.66424610134E+03 -0.11484605632E+04  0.14110410603E+04  0.15294330000E+03 0.  0.
    8880022    1    1    2    0    0  0.45547850937E+03  0.66424610134E+03  0.67001306440E+03  0.10587694344E+04  0.15294330000E+03 0.  0.
<mgrwt>
<rscale>  0 0.81980193E+03</rscale>
<asrwt>0</asrwt>
<pdfrwt beam="1">  1        2 0.22678908E+00 0.81980193E+03</pdfrwt>
<pdfrwt beam="2">  1       -2 0.15318177E+00 0.81980193E+03</pdfrwt>
<totfact> 0.37783475E+00</totfact>
</mgrwt>
</event>
<event>
 4    1  0.4639964E-008  0.4391939E+03  0.7818608E-02  0.1030994E+00
         -2   -1    0    0    0  501 -0.00000000000E+00  0.00000000000E+00  0.64662439757E+03  0.64662439758E+03  0.25500000000E-02 0.  1.
          2   -1    0    0  501    0  0.00000000000E+00 -0.00000000000E+00 -0.11719216640E+04  0.11719216640E+04  0.25500000000E-02 0. -1.
    8880022    1    1    2    0    0  0.40034718480E+03  0.96030094890E+02  0.52241610252E+03  0.68250266277E+03  0.15294330000E+03 0.  1.
    8880022    1    1    2    0    0 -0.40034718480E+03 -0.96030094890E+02 -0.10477133690E+04  0.11360433988E+04  0.15294330000E+03 0.  0.
<mgrwt>
<rscale>  0 0.43919392E+03</rscale>
<asrwt>0</asrwt>
<pdfrwt beam="1">  1        2 0.18029564E+00 0.43919392E+03</pdfrwt>
<pdfrwt beam="2">  1       -2 0.99480677E-01 0.43919392E+03</pdfrwt>
<totfact> 0.17570664E+01</totfact>
</mgrwt>
</event>
<event>
 4    1  0.4639964E-008  0.3776689E+03  0.7818608E-02  0.1051799E+00
         -2   -1    0    0    0  501 -0.00000000000E+00  0.00000000000E+00  0.79578763508E+03  0.79578763509E+03  0.25500000000E-02 0.  1.
          2   -1    0    0  501    0  0.00000000000E+00 -0.00000000000E+00 -0.23093554653E+03  0.23093554655E+03  0.25500000000E-02 0. -1.
    8880022    1    1    2    0    0  0.25159442400E+03 -0.23652143475E+03  0.39529505581E+02  0.37973198194E+03  0.15294330000E+03 0.  0.
    8880022    1    1    2    0    0 -0.25159442400E+03  0.23652143475E+03  0.52532258297E+03  0.64699119969E+03  0.15294330000E+03 0.  0.
<mgrwt>
<rscale>  0 0.37766890E+03</rscale>
<asrwt>0</asrwt>
<pdfrwt beam="1">  1        2 0.35528546E-01 0.37766890E+03</pdfrwt>
<pdfrwt beam="2">  1       -2 0.12242887E+00 0.37766890E+03</pdfrwt>
<totfact> 0.76749598E+01</totfact>
</mgrwt>
</event>
<event>
 4    1  0.4639964E-008  0.4047240E+03  0.7818608E-02  0.1042156E+00
          2   -1    0    0  501    0  0.00000000000E+00  0.00000000000E+00  0.33657986173E+04  0.33657986173E+04  0.25500000000E-02 0. -1.
         -2   -1    0    0    0  501 -0.00000000000E+00 -0.00000000000E+00 -0.29059166239E+03  0.29059166241E+03  0.25500000000E-02 0.  1.
    8880022    1    1    2    0    0 -0.34858212873E+03  0.13747848728E+03 -0.13049442436E+03  0.42524144052E+03  0.15294330000E+03 0.  0.
    8880022    1    1    2    0    0  0.34858212873E+03 -0.13747848728E+03  0.32057013793E+04  0.32311488392E+04  0.15294330000E+03 0.  0.
<mgrwt>
<rscale>  0 0.40472397E+03</rscale>
<asrwt>0</asrwt>
<pdfrwt beam="1">  1        2 0.51781515E+00 0.40472397E+03</pdfrwt>
<pdfrwt beam="2">  1       -2 0.44706412E-01 0.40472397E+03</pdfrwt>
<totfact> 0.56645405E+00</totfact>
</mgrwt>
</event>
<event>
 4    1  0.4639964E-008  0.2138012E+03  0.7818608E-02  0.1138591E+00
          2   -1    0    0  501    0  0.00000000000E+00  0.00000000000E+00  0.27319591601E+04  0.27319591601E+04  0.25500000000E-02 0. -1.
         -2   -1    0    0    0  501 -0.00000000000E+00 -0.00000000000E+00 -0.14048183483E+03  0.14048183486E+03  0.25500000000E-02 0.  1.
    8880022    1    1    2    0    0 -0.95871009274E+02 -0.11457765234E+03 -0.52241424951E+02  0.22009113642E+03  0.15294330000E+03 0.  1.
    8880022    1    1    2    0    0  0.95871009274E+02  0.11457765234E+03  0.26437187502E+04  0.26523498585E+04  0.15294330000E+03 0.  0.
<mgrwt>
<rscale>  0 0.21380117E+03</rscale>
<asrwt>0</asrwt>
<pdfrwt beam="1">  1        2 0.42030138E+00 0.21380117E+03</pdfrwt>
<pdfrwt beam="2">  1       -2 0.21612592E-01 0.21380117E+03</pdfrwt>
<totfact> 0.56601921E+01</totfact>
</mgrwt>
</event>
<event>
 4    1  0.4639964E-008  0.7335035E+03  0.7818608E-02  0.9661592E-01
         -2   -1    0    0    0  501 -0.00000000000E+00  0.00000000000E+00  0.58285937878E+03  0.58285937879E+03  0.25500000000E-02 0.  1.
          2   -1    0    0  501    0  0.00000000000E+00 -0.00000000000E+00 -0.14615087198E+04  0.14615087198E+04  0.25500000000E-02 0. -1.
    8880022    1    1    2    0    0  0.12774793102E+03 -0.70591510067E+03 -0.10597527975E+04  0.12888379681E+04  0.15294330000E+03 0.  0.
    8880022    1    1    2    0    0 -0.12774793102E+03  0.70591510067E+03  0.18110345640E+03  0.75553013055E+03  0.15294330000E+03 0.  0.
<mgrwt>
<rscale>  0 0.73350345E+03</rscale>
<asrwt>0</asrwt>
<pdfrwt beam="1">  1        2 0.22484749E+00 0.73350345E+03</pdfrwt>
<pdfrwt beam="2">  1       -2 0.89670674E-01 0.73350345E+03</pdfrwt>
<totfact> 0.14592529E+01</totfact>
</mgrwt>
</event>
<event>
 4    1  0.4639964E-008  0.4579371E+03  0.7818608E-02  0.1025381E+00
         -2   -1    0    0    0  501 -0.00000000000E+00  0.00000000000E+00  0.30546449941E+03  0.30546449942E+03  0.25500000000E-02 0.  1.
          2   -1    0    0  501    0  0.00000000000E+00 -0.00000000000E+00 -0.91389481048E+03  0.91389481049E+03  0.25500000000E-02 0. -1.
    8880022    1    1    2    0    0  0.21290910821E+03  0.37547898656E+03 -0.10694846776E+00  0.45793713778E+03  0.15294330000E+03 0.  1.
    8880022    1    1    2    0    0 -0.21290910821E+03 -0.37547898656E+03 -0.60832336261E+03  0.76142217213E+03  0.15294330000E+03 0.  0.
<mgrwt>
<rscale>  0 0.45793713E+03</rscale>
<asrwt>0</asrwt>
<pdfrwt beam="1">  1        2 0.14059920E+00 0.45793713E+03</pdfrwt>
<pdfrwt beam="2">  1       -2 0.46994539E-01 0.45793713E+03</pdfrwt>
<totfact> 0.12769011E+02</totfact>
</mgrwt>
</event>
<event>
 4    1  0.4639964E-008  0.6898991E+03  0.7818608E-02  0.9734664E-01
          2   -1    0    0  501    0  0.00000000000E+00  0.00000000000E+00  0.13782799312E+04  0.13782799312E+04  0.25500000000E-02 0. -1.
         -2   -1    0    0    0  501 -0.00000000000E+00 -0.00000000000E+00 -0.47557493492E+03  0.47557493493E+03  0.25500000000E-02 0.  1.
    8880022    1    1    2    0    0 -0.26021966235E+03  0.62036670946E+03 -0.33732048076E+02  0.69072326656E+03  0.15294330000E+03 0.  0.
    8880022    1    1    2    0    0  0.26021966235E+03 -0.62036670946E+03  0.93643704437E+03  0.11631315996E+04  0.15294330000E+03 0.  0.
<mgrwt>
<rscale>  0 0.68989911E+03</rscale>
<asrwt>0</asrwt>
<pdfrwt beam="1">  1        2 0.21204306E+00 0.68989911E+03</pdfrwt>
<pdfrwt beam="2">  1       -2 0.73165376E-01 0.68989911E+03</pdfrwt>
<totfact> 0.25844422E+01</totfact>
</mgrwt>
</event>
<event>
 4    1  0.4639964E-008  0.9783065E+03  0.7818608E-02  0.9332663E-01
          2   -1    0    0  501    0  0.00000000000E+00  0.00000000000E+00  0.12819531952E+04  0.12819531952E+04  0.25500000000E-02 0. -1.
         -2   -1    0    0    0  501 -0.00000000000E+00 -0.00000000000E+00 -0.79737522958E+03  0.79737522958E+03  0.25500000000E-02 0.  1.
    8880022    1    1    2    0    0 -0.20806617689E+03 -0.94361034067E+03 -0.20110534785E+02  0.97851320666E+03  0.15294330000E+03 0.  0.
    8880022    1    1    2    0    0  0.20806617689E+03  0.94361034067E+03  0.50468850040E+03  0.11008152181E+04  0.15294330000E+03 0.  0.
<mgrwt>
<rscale>  0 0.97830653E+03</rscale>
<asrwt>0</asrwt>
<pdfrwt beam="1">  1        2 0.19722357E+00 0.97830653E+03</pdfrwt>
<pdfrwt beam="2">  1       -2 0.12267311E+00 0.97830653E+03</pdfrwt>
<totfact> 0.84697663E+00</totfact>
</mgrwt>
</event>
<event>
 4    1  0.4639964E-008  0.7488539E+03  0.7818608E-02  0.9637150E-01
         -2   -1    0    0    0  501 -0.00000000000E+00  0.00000000000E+00  0.19112443990E+03  0.19112443992E+03  0.25500000000E-02 0.  1.
          2   -1    0    0  501    0  0.00000000000E+00 -0.00000000000E+00 -0.34151800848E+04  0.34151800848E+04  0.25500000000E-02 0. -1.
    8880022    1    1    2    0    0 -0.18298956875E+03 -0.70986291453E+03 -0.22887725819E+04  0.24081657178E+04  0.15294330000E+03 0.  0.
    8880022    1    1    2    0    0  0.18298956875E+03  0.70986291453E+03 -0.93528306297E+03  0.11981388069E+04  0.15294330000E+03 0.  1.
<mgrwt>
<rscale>  0 0.74885392E+03</rscale>
<asrwt>0</asrwt>
<pdfrwt beam="1">  1        2 0.52541228E+00 0.74885392E+03</pdfrwt>
<pdfrwt beam="2">  1       -2 0.29403763E-01 0.74885392E+03</pdfrwt>
<totfact> 0.10665185E+01</totfact>
</mgrwt>
</event>
<event>
 4    1  0.4639964E-008  0.2086868E+03  0.7818608E-02  0.1142610E+00
         -2   -1    0    0    0  501 -0.00000000000E+00  0.00000000000E+00  0.17617963103E+02  0.17617963287E+02  0.25500000000E-02 0.  1.
          2   -1    0    0  501    0  0.00000000000E+00 -0.00000000000E+00 -0.27386988728E+04  0.27386988728E+04  0.25500000000E-02 0. -1.
    8880022    1    1    2    0    0  0.13464546943E+03  0.45045679361E+02 -0.17906746404E+04  0.18027938974E+04  0.15294330000E+03 0.  0.
    8880022    1    1    2    0    0 -0.13464546943E+03 -0.45045679361E+02 -0.93040626929E+03  0.95352293870E+03  0.15294330000E+03 0.  0.
<mgrwt>
<rscale>  0 0.20868677E+03</rscale>
<asrwt>0</asrwt>
<pdfrwt beam="1">  1        2 0.42133795E+00 0.20868677E+03</pdfrwt>
<pdfrwt beam="2">  1       -2 0.27104580E-02 0.20868677E+03</pdfrwt>
<totfact> 0.14682553E+03</totfact>
</mgrwt>
</event>
<event>
 4    1  0.4639964E-008  0.1264236E+04  0.7818608E-02  0.9058417E-01
         -2   -1    0    0    0  501 -0.00000000000E+00  0.00000000000E+00  0.10685862499E+04  0.10685862499E+04  0.25500000000E-02 0.  1.
          2   -1    0    0  501    0  0.00000000000E+00 -0.00000000000E+00 -0.20221076661E+04  0.20221076661E+04  0.25500000000E-02 0. -1.
    8880022    1    1    2    0    0  0.37987088788E+03 -0.11960765770E+04  0.31170312053E+03  0.13020950648E+04  0.15294330000E+03 0.  0.
    8880022    1    1    2    0    0 -0.37987088788E+03  0.11960765770E+04 -0.12652245367E+04  0.17885988513E+04  0.15294330000E+03 0.  0.
<mgrwt>
<rscale>  0 0.12642360E+04</rscale>
<asrwt>0</asrwt>
<pdfrwt beam="1">  1        2 0.31109349E+00 0.12642360E+04</pdfrwt>
<pdfrwt beam="2">  1       -2 0.16439789E+00 0.12642360E+04</pdfrwt>
<totfact> 0.14662254E+00</totfact>
</mgrwt>
</event>
<event>
 4    1  0.4639964E-008  0.4945757E+03  0.7818608E-02  0.1015205E+00
         -2   -1    0    0    0  501 -0.00000000000E+00  0.00000000000E+00  0.14435404775E+03  0.14435404777E+03  0.25500000000E-02 0.  1.
          2   -1    0    0  501    0  0.00000000000E+00 -0.00000000000E+00 -0.28543846397E+04  0.28543846397E+04  0.25500000000E-02 0. -1.
    8880022    1    1    2    0    0 -0.31214182976E+03  0.35182510971E+03 -0.39922311042E+03  0.63559749418E+03  0.15294330000E+03 0.  0.
    8880022    1    1    2    0    0  0.31214182976E+03 -0.35182510971E+03 -0.23108074815E+04  0.23631411933E+04  0.15294330000E+03 0.  0.
<mgrwt>
<rscale>  0 0.49457566E+03</rscale>
<asrwt>0</asrwt>
<pdfrwt beam="1">  1        2 0.43913606E+00 0.49457566E+03</pdfrwt>
<pdfrwt beam="2">  1       -2 0.22208317E-01 0.49457566E+03</pdfrwt>
<totfact> 0.41839928E+01</totfact>
</mgrwt>
</event>
<event>
 4    1  0.4639964E-008  0.6877798E+03  0.7818608E-02  0.9738362E-01
         -2   -1    0    0    0  501 -0.00000000000E+00  0.00000000000E+00  0.38066316220E+03  0.38066316220E+03  0.25500000000E-02 0.  1.
          2   -1    0    0  501    0  0.00000000000E+00 -0.00000000000E+00 -0.19862382037E+04  0.19862382037E+04  0.25500000000E-02 0. -1.
    8880022    1    1    2    0    0  0.33455514896E+03  0.58113874361E+03 -0.78696598672E+02  0.69226743002E+03  0.15294330000E+03 0.  0.
    8880022    1    1    2    0    0 -0.33455514896E+03 -0.58113874361E+03 -0.15268784429E+04  0.16746339359E+04  0.15294330000E+03 0.  0.
<mgrwt>
<rscale>  0 0.68777979E+03</rscale>
<asrwt>0</asrwt>
<pdfrwt beam="1">  1        2 0.30557510E+00 0.68777979E+03</pdfrwt>
<pdfrwt beam="2">  1       -2 0.58563565E-01 0.68777979E+03</pdfrwt>
<totfact> 0.19337776E+01</totfact>
</mgrwt>
</event>
<event>
 4    1  0.4639964E-008  0.7303590E+03  0.7818608E-02  0.9666678E-01
          2   -1    0    0  501    0  0.00000000000E+00  0.00000000000E+00  0.41371249599E+04  0.41371249599E+04  0.25500000000E-02 0. -1.
         -2   -1    0    0    0  501 -0.00000000000E+00 -0.00000000000E+00 -0.18802660334E+03  0.18802660335E+03  0.25500000000E-02 0.  1.
    8880022    1    1    2    0    0 -0.20424289815E+03  0.68433727655E+03  0.31868793558E+04  0.32694990979E+04  0.15294330000E+03 0.  0.
    8880022    1    1    2    0    0  0.20424289815E+03 -0.68433727655E+03  0.76221900075E+03  0.10556524654E+04  0.15294330000E+03 0.  0.
<mgrwt>
<rscale>  0 0.73035904E+03</rscale>
<asrwt>0</asrwt>
<pdfrwt beam="1">  1        2 0.63648077E+00 0.73035904E+03</pdfrwt>
<pdfrwt beam="2">  1       -2 0.28927170E-01 0.73035904E+03</pdfrwt>
<totfact> 0.32299717E+00</totfact>
</mgrwt>
</event>
<event>
 4    1  0.4639964E-008  0.7053155E+03  0.7818608E-02  0.9708185E-01
          2   -1    0    0  501    0  0.00000000000E+00  0.00000000000E+00  0.14413936960E+04  0.14413936960E+04  0.25500000000E-02 0. -1.
         -2   -1    0    0    0  501 -0.00000000000E+00 -0.00000000000E+00 -0.38464732924E+03  0.38464732925E+03  0.25500000000E-02 0.  1.
    8880022    1    1    2    0    0  0.49607793374E+03 -0.47747770154E+03  0.23573134574E+03  0.74366604884E+03  0.15294330000E+03 0.  0.
    8880022    1    1    2    0    0 -0.49607793374E+03  0.47747770154E+03  0.82101502100E+03  0.10823749764E+04  0.15294330000E+03 0.  0.
<mgrwt>
<rscale>  0 0.70531548E+03</rscale>
<asrwt>0</asrwt>
<pdfrwt beam="1">  1        2 0.22175287E+00 0.70531548E+03</pdfrwt>
<pdfrwt beam="2">  1       -2 0.59176513E-01 0.70531548E+03</pdfrwt>
<totfact> 0.37527327E+01</totfact>
</mgrwt>
</event>
<event>
 4    1  0.4639964E-008  0.5284285E+03  0.7818608E-02  0.1006614E+00
          2   -1    0    0  501    0  0.00000000000E+00  0.00000000000E+00  0.22516552986E+04  0.22516552986E+04  0.25500000000E-02 0. -1.
         -2   -1    0    0    0  501 -0.00000000000E+00 -0.00000000000E+00 -0.56552111940E+03  0.56552111941E+03  0.25500000000E-02 0.  1.
    8880022    1    1    2    0    0 -0.48865532346E+03 -0.13061760635E+03 -0.40152925549E+03  0.66367339879E+03  0.15294330000E+03 0.  0.
    8880022    1    1    2    0    0  0.48865532346E+03  0.13061760635E+03  0.20876634347E+04  0.21535030192E+04  0.15294330000E+03 0.  0.
<mgrwt>
<rscale>  0 0.52842846E+03</rscale>
<asrwt>0</asrwt>
<pdfrwt beam="1">  1        2 0.34640850E+00 0.52842846E+03</pdfrwt>
<pdfrwt beam="2">  1       -2 0.87003251E-01 0.52842846E+03</pdfrwt>
<totfact> 0.60160787E+00</totfact>
</mgrwt>
</event>
<event>
 4    1  0.4639964E-008  0.1184836E+04  0.7818608E-02  0.9126234E-01
         -2   -1    0    0    0  501 -0.00000000000E+00  0.00000000000E+00  0.10507719254E+04  0.10507719254E+04  0.25500000000E-02 0.  1.
          2   -1    0    0  501    0  0.00000000000E+00 -0.00000000000E+00 -0.21255834118E+04  0.21255834118E+04  0.25500000000E-02 0. -1.
    8880022    1    1    2    0    0 -0.10333779913E+04 -0.55908459121E+03 -0.15053658147E+04  0.19157148906E+04  0.15294330000E+03 0.  0.
    8880022    1    1    2    0    0  0.10333779913E+04  0.55908459121E+03  0.43055432829E+03  0.12606404466E+04  0.15294330000E+03 0.  0.
<mgrwt>
<rscale>  0 0.11848364E+04</rscale>
<asrwt>0</asrwt>
<pdfrwt beam="1">  1        2 0.32701283E+00 0.11848364E+04</pdfrwt>
<pdfrwt beam="2">  1       -2 0.16165722E+00 0.11848364E+04</pdfrwt>
<totfact> 0.13577735E+00</totfact>
</mgrwt>
</event>
<event>
 4    1  0.4639964E-008  0.2997344E+03  0.7818608E-02  0.1085373E+00
          2   -1    0    0  501    0  0.00000000000E+00  0.00000000000E+00  0.11609124893E+04  0.11609124893E+04  0.25500000000E-02 0. -1.
         -2   -1    0    0    0  501 -0.00000000000E+00 -0.00000000000E+00 -0.15649684327E+03  0.15649684329E+03  0.25500000000E-02 0.  1.
    8880022    1    1    2    0    0  0.21815505375E+03  0.13732239062E+03  0.33879514156E+02  0.30164306877E+03  0.15294330000E+03 0.  0.
    8880022    1    1    2    0    0 -0.21815505375E+03 -0.13732239062E+03  0.97053613185E+03  0.10157662638E+04  0.15294330000E+03 0.  0.
<mgrwt>
<rscale>  0 0.29973441E+03</rscale>
<asrwt>0</asrwt>
<pdfrwt beam="1">  1        2 0.17860192E+00 0.29973441E+03</pdfrwt>
<pdfrwt beam="2">  1       -2 0.24076437E-01 0.29973441E+03</pdfrwt>
<totfact> 0.32097518E+02</totfact>
</mgrwt>
</event>
<event>
 4    1  0.4639964E-008  0.6290891E+03  0.7818608E-02  0.9846828E-01
          2   -1    0    0  501    0  0.00000000000E+00  0.00000000000E+00  0.94905132351E+03  0.94905132351E+03  0.25500000000E-02 0. -1.
         -2   -1    0    0    0  501 -0.00000000000E+00 -0.00000000000E+00 -0.89414501243E+03  0.89414501244E+03  0.25500000000E-02 0.  1.
    8880022    1    1    2    0    0  0.60288780411E+03 -0.94274539801E+02  0.70068316710E+03  0.94165277405E+03  0.15294330000E+03 0.  0.
    8880022    1    1    2    0    0 -0.60288780411E+03  0.94274539801E+02 -0.64577685603E+03  0.90154356190E+03  0.15294330000E+03 0.  0.
<mgrwt>
<rscale>  0 0.62908906E+03</rscale>
<asrwt>0</asrwt>
<pdfrwt beam="1">  1        2 0.14600790E+00 0.62908906E+03</pdfrwt>
<pdfrwt beam="2">  1       -2 0.13756077E+00 0.62908906E+03</pdfrwt>
<totfact> 0.10556787E+01</totfact>
</mgrwt>
</event>
<event>
 4    1  0.4639964E-008  0.7356845E+03  0.7818608E-02  0.9658081E-01
         -2   -1    0    0    0  501 -0.00000000000E+00  0.00000000000E+00  0.28643748768E+03  0.28643748769E+03  0.25500000000E-02 0.  1.
          2   -1    0    0  501    0  0.00000000000E+00 -0.00000000000E+00 -0.25076812947E+04  0.25076812947E+04  0.25500000000E-02 0. -1.
    8880022    1    1    2    0    0  0.17774794472E+03 -0.69731314941E+03 -0.41699354274E+03  0.84564485920E+03  0.15294330000E+03 0.  0.
    8880022    1    1    2    0    0 -0.17774794472E+03  0.69731314941E+03 -0.18042502642E+04  0.19484739232E+04  0.15294330000E+03 0.  0.
<mgrwt>
<rscale>  0 0.73568445E+03</rscale>
<asrwt>0</asrwt>
<pdfrwt beam="1">  1        2 0.38579711E+00 0.73568445E+03</pdfrwt>
<pdfrwt beam="2">  1       -2 0.44067307E-01 0.73568445E+03</pdfrwt>
<totfact> 0.17649206E+01</totfact>
</mgrwt>
</event>
<event>
 4    1  0.4639964E-008  0.1705629E+03  0.7818608E-02  0.1177262E+00
         -2   -1    0    0    0  501 -0.00000000000E+00  0.00000000000E+00  0.30481998305E+03  0.30481998306E+03  0.25500000000E-02 0.  1.
          2   -1    0    0  501    0  0.00000000000E+00 -0.00000000000E+00 -0.59830725681E+03  0.59830725682E+03  0.25500000000E-02 0. -1.
    8880022    1    1    2    0    0  0.57210326249E+02  0.49265047029E+02 -0.56072797833E+03  0.58609520130E+03  0.15294330000E+03 0.  0.
    8880022    1    1    2    0    0 -0.57210326249E+02 -0.49265047029E+02  0.26724070457E+03  0.31703203857E+03  0.15294330000E+03 0.  1.
<mgrwt>
<rscale>  0 0.17056295E+03</rscale>
<asrwt>0</asrwt>
<pdfrwt beam="1">  1        2 0.92047270E-01 0.17056295E+03</pdfrwt>
<pdfrwt beam="2">  1       -2 0.46895382E-01 0.17056295E+03</pdfrwt>
<totfact> 0.22565326E+02</totfact>
</mgrwt>
</event>
<event>
 4    1  0.4639964E-008  0.6797400E+03  0.7818608E-02  0.9752521E-01
         -2   -1    0    0    0  501 -0.00000000000E+00  0.00000000000E+00  0.52595573729E+03  0.52595573730E+03  0.25500000000E-02 0.  1.
          2   -1    0    0  501    0  0.00000000000E+00 -0.00000000000E+00 -0.11983421638E+04  0.11983421638E+04  0.25500000000E-02 0. -1.
    8880022    1    1    2    0    0  0.64850855138E+03  0.13450456258E+03  0.10922403036E+03  0.68845941085E+03  0.15294330000E+03 0.  0.
    8880022    1    1    2    0    0 -0.64850855138E+03 -0.13450456258E+03 -0.78161045683E+03  0.10358384902E+04  0.15294330000E+03 0.  0.
<mgrwt>
<rscale>  0 0.67974000E+03</rscale>
<asrwt>0</asrwt>
<pdfrwt beam="1">  1        2 0.18436033E+00 0.67974000E+03</pdfrwt>
<pdfrwt beam="2">  1       -2 0.80916267E-01 0.67974000E+03</pdfrwt>
<totfact> 0.26264180E+01</totfact>
</mgrwt>
</event>
<event>
 4    1  0.4639964E-008  0.1912849E+03  0.7818608E-02  0.1157308E+00
          2   -1    0    0  501    0  0.00000000000E+00  0.00000000000E+00  0.23399080711E+04  0.23399080712E+04  0.25500000000E-02 0. -1.
         -2   -1    0    0    0  501 -0.00000000000E+00 -0.00000000000E+00 -0.10812694421E+03  0.10812694424E+03  0.25500000000E-02 0.  1.
    8880022    1    1    2    0    0 -0.70652211199E+02  0.90589783964E+02 -0.16163497055E+02  0.19196654802E+03  0.15294330000E+03 0.  0.
    8880022    1    1    2    0    0  0.70652211199E+02 -0.90589783964E+02  0.22479446240E+04  0.22560684674E+04  0.15294330000E+03 0. -1.
<mgrwt>
<rscale>  0 0.19128486E+03</rscale>
<asrwt>0</asrwt>
<pdfrwt beam="1">  1        2 0.35998585E+00 0.19128486E+03</pdfrwt>
<pdfrwt beam="2">  1       -2 0.16634915E-01 0.19128486E+03</pdfrwt>
<totfact> 0.14586362E+02</totfact>
</mgrwt>
</event>
<event>
 4    1  0.4639964E-008  0.4001429E+03  0.7818608E-02  0.1043730E+00
          2   -1    0    0  501    0  0.00000000000E+00  0.00000000000E+00  0.68262524645E+03  0.68262524645E+03  0.25500000000E-02 0. -1.
         -2   -1    0    0    0  501 -0.00000000000E+00 -0.00000000000E+00 -0.12922582249E+04  0.12922582249E+04  0.25500000000E-02 0.  1.
    8880022    1    1    2    0    0  0.26101718461E+03 -0.26190204619E+03  0.58852683839E+03  0.71167277943E+03  0.15294330000E+03 0.  0.
    8880022    1    1    2    0    0 -0.26101718461E+03  0.26190204619E+03 -0.11981598168E+04  0.12632106919E+04  0.15294330000E+03 0.  0.
<mgrwt>
<rscale>  0 0.40014286E+03</rscale>
<asrwt>0</asrwt>
<pdfrwt beam="1">  1        2 0.10501927E+00 0.40014286E+03</pdfrwt>
<pdfrwt beam="2">  1       -2 0.19880896E+00 0.40014286E+03</pdfrwt>
<totfact> 0.62035467E+00</totfact>
</mgrwt>
</event>
<event>
 4    1  0.4639964E-008  0.3968143E+03  0.7818608E-02  0.1044888E+00
         -2   -1    0    0    0  501 -0.00000000000E+00  0.00000000000E+00  0.48022709607E+03  0.48022709607E+03  0.25500000000E-02 0.  1.
          2   -1    0    0  501    0  0.00000000000E+00 -0.00000000000E+00 -0.83394123614E+03  0.83394123614E+03  0.25500000000E-02 0. -1.
    8880022    1    1    2    0    0  0.29681640999E+03 -0.21440597248E+03 -0.68871639354E+03  0.79485333617E+03  0.15294330000E+03 0.  0.
    8880022    1    1    2    0    0 -0.29681640999E+03  0.21440597248E+03  0.33500225347E+03  0.51931499605E+03  0.15294330000E+03 0.  0.
<mgrwt>
<rscale>  0 0.39681426E+03</rscale>
<asrwt>0</asrwt>
<pdfrwt beam="1">  1        2 0.12829865E+00 0.39681426E+03</pdfrwt>
<pdfrwt beam="2">  1       -2 0.73881092E-01 0.39681426E+03</pdfrwt>
<totfact> 0.56597731E+01</totfact>
</mgrwt>
</event>
<event>
 4    1  0.4639964E-008  0.5110402E+03  0.7818608E-02  0.1010937E+00
         -2   -1    0    0    0  501 -0.00000000000E+00  0.00000000000E+00  0.11581897404E+03  0.11581897406E+03  0.25500000000E-02 0.  1.
          2   -1    0    0  501    0  0.00000000000E+00 -0.00000000000E+00 -0.25272812879E+04  0.25272812879E+04  0.25500000000E-02 0. -1.
    8880022    1    1    2    0    0  0.94376470153E+02  0.47839685365E+03 -0.16395738586E+04  0.17173714096E+04  0.15294330000E+03 0.  0.
    8880022    1    1    2    0    0 -0.94376470153E+02 -0.47839685365E+03 -0.77188845525E+03  0.92572885234E+03  0.15294330000E+03 0.  0.
<mgrwt>
<rscale>  0 0.51104023E+03</rscale>
<asrwt>0</asrwt>
<pdfrwt beam="1">  1        2 0.38881247E+00 0.51104023E+03</pdfrwt>
<pdfrwt beam="2">  1       -2 0.17818306E-01 0.51104023E+03</pdfrwt>
<totfact> 0.94249116E+01</totfact>
</mgrwt>
</event>
<event>
 4    1  0.4639964E-008  0.4449892E+03  0.7818608E-02  0.1029227E+00
         -2   -1    0    0    0  501 -0.00000000000E+00  0.00000000000E+00  0.80364943389E+03  0.80364943390E+03  0.25500000000E-02 0.  1.
          2   -1    0    0  501    0  0.00000000000E+00 -0.00000000000E+00 -0.95087410796E+03  0.95087410796E+03  0.25500000000E-02 0. -1.
    8880022    1    1    2    0    0 -0.11829037636E+03  0.40078807058E+03 -0.82870751721E+03  0.94062292804E+03  0.15294330000E+03 0.  0.
    8880022    1    1    2    0    0  0.11829037636E+03 -0.40078807058E+03  0.68148284315E+03  0.81390061382E+03  0.15294330000E+03 0.  0.
<mgrwt>
<rscale>  0 0.44498915E+03</rscale>
<asrwt>0</asrwt>
<pdfrwt beam="1">  1        2 0.14628832E+00 0.44498915E+03</pdfrwt>
<pdfrwt beam="2">  1       -2 0.12363838E+00 0.44498915E+03</pdfrwt>
<totfact> 0.14189031E+01</totfact>
</mgrwt>
</event>
<event>
 4    1  0.4639964E-008  0.4677411E+03  0.7818608E-02  0.1022560E+00
          2   -1    0    0  501    0  0.00000000000E+00  0.00000000000E+00  0.98486525624E+03  0.98486525624E+03  0.25500000000E-02 0. -1.
         -2   -1    0    0    0  501 -0.00000000000E+00 -0.00000000000E+00 -0.60409141162E+03  0.60409141162E+03  0.25500000000E-02 0.  1.
    8880022    1    1    2    0    0 -0.33546802154E+03 -0.28783903906E+03 -0.44134467398E+03  0.64309165766E+03  0.15294330000E+03 0.  0.
    8880022    1    1    2    0    0  0.33546802154E+03  0.28783903906E+03  0.82211851861E+03  0.94586501021E+03  0.15294330000E+03 0.  0.
<mgrwt>
<rscale>  0 0.46774112E+03</rscale>
<asrwt>0</asrwt>
<pdfrwt beam="1">  1        2 0.15151773E+00 0.46774112E+03</pdfrwt>
<pdfrwt beam="2">  1       -2 0.92937141E-01 0.46774112E+03</pdfrwt>
<totfact> 0.26599142E+01</totfact>
</mgrwt>
</event>
<event>
 4    1  0.4639964E-008  0.9805473E+03  0.7818608E-02  0.9330141E-01
          2   -1    0    0  501    0  0.00000000000E+00  0.00000000000E+00  0.39560159198E+04  0.39560159198E+04  0.25500000000E-02 0. -1.
         -2   -1    0    0    0  501 -0.00000000000E+00 -0.00000000000E+00 -0.38057185833E+03  0.38057185834E+03  0.25500000000E-02 0.  1.
    8880022    1    1    2    0    0  0.45549608281E+03 -0.85475415025E+03  0.48425420563E+03  0.10936064774E+04  0.15294330000E+03 0.  0.
    8880022    1    1    2    0    0 -0.45549608281E+03  0.85475415025E+03  0.30911898559E+04  0.32429813007E+04  0.15294330000E+03 0.  0.
<mgrwt>
<rscale>  0 0.98054729E+03</rscale>
<asrwt>0</asrwt>
<pdfrwt beam="1">  1        2 0.60861787E+00 0.98054729E+03</pdfrwt>
<pdfrwt beam="2">  1       -2 0.58549514E-01 0.98054729E+03</pdfrwt>
<totfact> 0.10695664E+00</totfact>
</mgrwt>
</event>
<event>
 4    1  0.4639964E-008  0.2690103E+03  0.7818608E-02  0.1101847E+00
          2   -1    0    0  501    0  0.00000000000E+00  0.00000000000E+00  0.10302542776E+04  0.10302542776E+04  0.25500000000E-02 0. -1.
         -2   -1    0    0    0  501 -0.00000000000E+00 -0.00000000000E+00 -0.25356966365E+03  0.25356966366E+03  0.25500000000E-02 0.  1.
    8880022    1    1    2    0    0 -0.87014506919E+02  0.20347813491E+03  0.93415233433E+03  0.97211476306E+03  0.15294330000E+03 0.  0.
    8880022    1    1    2    0    0  0.87014506919E+02 -0.20347813491E+03 -0.15746772039E+03  0.31170917821E+03  0.15294330000E+03 0.  1.
<mgrwt>
<rscale>  0 0.26901028E+03</rscale>
<asrwt>0</asrwt>
<pdfrwt beam="1">  1        2 0.15850066E+00 0.26901028E+03</pdfrwt>
<pdfrwt beam="2">  1       -2 0.39010717E-01 0.26901028E+03</pdfrwt>
<totfact> 0.15906928E+02</totfact>
</mgrwt>
</event>
<event>
 4    1  0.4639964E-008  0.6945294E+03  0.7818608E-02  0.9726634E-01
          2   -1    0    0  501    0  0.00000000000E+00  0.00000000000E+00  0.11886892816E+04  0.11886892816E+04  0.25500000000E-02 0. -1.
         -2   -1    0    0    0  501 -0.00000000000E+00 -0.00000000000E+00 -0.53659882376E+03  0.53659882377E+03  0.25500000000E-02 0.  1.
    8880022    1    1    2    0    0 -0.61741481730E+03  0.27888773178E+03 -0.99854481045E+02  0.70167085870E+03  0.15294330000E+03 0.  0.
    8880022    1    1    2    0    0  0.61741481730E+03 -0.27888773178E+03  0.75194493889E+03  0.10236172467E+04  0.15294330000E+03 0.  0.
<mgrwt>
<rscale>  0 0.69452939E+03</rscale>
<asrwt>0</asrwt>
<pdfrwt beam="1">  1        2 0.18287527E+00 0.69452939E+03</pdfrwt>
<pdfrwt beam="2">  1       -2 0.82553666E-01 0.69452939E+03</pdfrwt>
<totfact> 0.25391321E+01</totfact>
</mgrwt>
</event>
<event>
 4    1  0.4639964E-008  0.6242047E+03  0.7818608E-02  0.9856424E-01
         -2   -1    0    0    0  501 -0.00000000000E+00  0.00000000000E+00  0.15756481270E+04  0.15756481270E+04  0.25500000000E-02 0.  1.
          2   -1    0    0  501    0  0.00000000000E+00 -0.00000000000E+00 -0.59423043534E+03  0.59423043535E+03  0.25500000000E-02 0. -1.
    8880022    1    1    2    0    0 -0.21961551170E+02 -0.60477894549E+03 -0.33830085759E+03  0.70998521526E+03  0.15294330000E+03 0.  0.
    8880022    1    1    2    0    0  0.21961551170E+02  0.60477894549E+03  0.13197185492E+04  0.14598933471E+04  0.15294330000E+03 0.  0.
<mgrwt>
<rscale>  0 0.62420472E+03</rscale>
<asrwt>0</asrwt>
<pdfrwt beam="1">  1        2 0.91420067E-01 0.62420472E+03</pdfrwt>
<pdfrwt beam="2">  1       -2 0.24240740E+00 0.62420472E+03</pdfrwt>
<totfact> 0.37642347E+00</totfact>
</mgrwt>
</event>
<event>
 4    1  0.4639964E-008  0.2966197E+03  0.7818608E-02  0.1086943E+00
          2   -1    0    0  501    0  0.00000000000E+00  0.00000000000E+00  0.24862670485E+04  0.24862670485E+04  0.25500000000E-02 0. -1.
         -2   -1    0    0    0  501 -0.00000000000E+00 -0.00000000000E+00 -0.49969978084E+02  0.49969978149E+02  0.25500000000E-02 0.  1.
    8880022    1    1    2    0    0 -0.23453301551E+03 -0.97907473746E+02  0.19031918232E+04  0.19261677958E+04  0.15294330000E+03 0.  0.
    8880022    1    1    2    0    0  0.23453301551E+03  0.97907473746E+02  0.53310524730E+03  0.61006923091E+03  0.15294330000E+03 0.  0.
<mgrwt>
<rscale>  0 0.29661973E+03</rscale>
<asrwt>0</asrwt>
<pdfrwt beam="1">  1        2 0.38250269E+00 0.29661973E+03</pdfrwt>
<pdfrwt beam="2">  1       -2 0.76876875E-02 0.29661973E+03</pdfrwt>
<totfact> 0.40890117E+02</totfact>
</mgrwt>
</event>
<event>
 4    1  0.4639964E-008  0.4173992E+03  0.7818608E-02  0.1037916E+00
         -2   -1    0    0    0  501 -0.00000000000E+00  0.00000000000E+00  0.48792436737E+02  0.48792436804E+02  0.25500000000E-02 0.  1.
          2   -1    0    0  501    0  0.00000000000E+00 -0.00000000000E+00 -0.39322595709E+04  0.39322595709E+04  0.25500000000E-02 0. -1.
    8880022    1    1    2    0    0 -0.24791377054E+03 -0.29894686382E+03 -0.13381332646E+04  0.14017213531E+04  0.15294330000E+03 0.  0.
    8880022    1    1    2    0    0  0.24791377054E+03  0.29894686382E+03 -0.25453338696E+04  0.25793306546E+04  0.15294330000E+03 0.  0.
<mgrwt>
<rscale>  0 0.41739923E+03</rscale>
<asrwt>0</asrwt>
<pdfrwt beam="1">  1        2 0.60496276E+00 0.41739923E+03</pdfrwt>
<pdfrwt beam="2">  1       -2 0.75065318E-02 0.41739923E+03</pdfrwt>
<totfact> 0.49865304E+01</totfact>
</mgrwt>
</event>
<event>
 4    1  0.4639964E-008  0.9004340E+03  0.7818608E-02  0.9425039E-01
         -2   -1    0    0    0  501 -0.00000000000E+00  0.00000000000E+00  0.40865574858E+03  0.40865574859E+03  0.25500000000E-02 0.  1.
          2   -1    0    0  501    0  0.00000000000E+00 -0.00000000000E+00 -0.32921981009E+04  0.32921981009E+04  0.25500000000E-02 0. -1.
    8880022    1    1    2    0    0 -0.31668295804E+03  0.82891596319E+03 -0.26082108881E+04  0.27592653841E+04  0.15294330000E+03 0.  0.
    8880022    1    1    2    0    0  0.31668295804E+03 -0.82891596319E+03 -0.27533146417E+03  0.94158846537E+03  0.15294330000E+03 0.  0.
<mgrwt>
<rscale>  0 0.90043402E+03</rscale>
<asrwt>0</asrwt>
<pdfrwt beam="1">  1        2 0.50649200E+00 0.90043402E+03</pdfrwt>
<pdfrwt beam="2">  1       -2 0.62870117E-01 0.90043402E+03</pdfrwt>
<totfact> 0.27686330E+00</totfact>
</mgrwt>
</event>
<event>
 4    1  0.4639964E-008  0.9571537E+03  0.7818608E-02  0.9356828E-01
         -2   -1    0    0    0  501 -0.00000000000E+00  0.00000000000E+00  0.17033124227E+04  0.17033124227E+04  0.25500000000E-02 0.  1.
          2   -1    0    0  501    0  0.00000000000E+00 -0.00000000000E+00 -0.65708480440E+03  0.65708480440E+03  0.25500000000E-02 0. -1.
    8880022    1    1    2    0    0  0.81727255403E+03  0.47414890639E+03  0.20391595580E+02  0.95737092247E+03  0.15294330000E+03 0.  0.
    8880022    1    1    2    0    0 -0.81727255403E+03 -0.47414890639E+03  0.10258360228E+04  0.14030263047E+04  0.15294330000E+03 0.  1.
<mgrwt>
<rscale>  0 0.95715373E+03</rscale>
<asrwt>0</asrwt>
<pdfrwt beam="1">  1        2 0.10108997E+00 0.95715373E+03</pdfrwt>
<pdfrwt beam="2">  1       -2 0.26204806E+00 0.95715373E+03</pdfrwt>
<totfact> 0.24167117E+00</totfact>
</mgrwt>
</event>
<event>
 4    1  0.4639964E-008  0.7538365E+03  0.7818608E-02  0.9629351E-01
          2   -1    0    0  501    0  0.00000000000E+00  0.00000000000E+00  0.29042044062E+04  0.29042044062E+04  0.25500000000E-02 0. -1.
         -2   -1    0    0    0  501 -0.00000000000E+00 -0.00000000000E+00 -0.35007811713E+03  0.35007811714E+03  0.25500000000E-02 0.  1.
    8880022    1    1    2    0    0 -0.73711604728E+03 -0.39213939566E+02  0.19643565644E+03  0.77900989747E+03  0.15294330000E+03 0.  1.
    8880022    1    1    2    0    0  0.73711604728E+03  0.39213939566E+02  0.23576906326E+04  0.24752726258E+04  0.15294330000E+03 0.  0.
<mgrwt>
<rscale>  0 0.75383649E+03</rscale>
<asrwt>0</asrwt>
<pdfrwt beam="1">  1        2 0.44680067E+00 0.75383649E+03</pdfrwt>
<pdfrwt beam="2">  1       -2 0.53858172E-01 0.75383649E+03</pdfrwt>
<totfact> 0.68817964E+00</totfact>
</mgrwt>
</event>
<event>
 4    1  0.4639964E-008  0.4705159E+03  0.7818608E-02  0.1021775E+00
         -2   -1    0    0    0  501 -0.00000000000E+00  0.00000000000E+00  0.65193693654E+03  0.65193693654E+03  0.25500000000E-02 0.  1.
          2   -1    0    0  501    0  0.00000000000E+00 -0.00000000000E+00 -0.28830462190E+04  0.28830462190E+04  0.25500000000E-02 0. -1.
    8880022    1    1    2    0    0 -0.41164144408E+03  0.16895242188E+03 -0.27756937140E+04  0.28152905438E+04  0.15294330000E+03 0. -1.
    8880022    1    1    2    0    0  0.41164144408E+03 -0.16895242188E+03  0.54458443150E+03  0.71969261173E+03  0.15294330000E+03 0.  0.
<mgrwt>
<rscale>  0 0.47051594E+03</rscale>
<asrwt>0</asrwt>
<pdfrwt beam="1">  1        2 0.44354557E+00 0.47051594E+03</pdfrwt>
<pdfrwt beam="2">  1       -2 0.10029799E+00 0.47051594E+03</pdfrwt>
<totfact> 0.19340318E+00</totfact>
</mgrwt>
</event>
<event>
 4    1  0.4639964E-008  0.6473736E+03  0.7818608E-02  0.9811720E-01
          2   -1    0    0  501    0  0.00000000000E+00  0.00000000000E+00  0.19024797340E+04  0.19024797340E+04  0.25500000000E-02 0. -1.
         -2   -1    0    0    0  501 -0.00000000000E+00 -0.00000000000E+00 -0.92862981821E+03  0.92862981821E+03  0.25500000000E-02 0.  1.
    8880022    1    1    2    0    0  0.60629260237E+03  0.16766117110E+03 -0.74938378158E+03  0.99028717708E+03  0.15294330000E+03 0.  1.
    8880022    1    1    2    0    0 -0.60629260237E+03 -0.16766117110E+03  0.17232336973E+04  0.18408223751E+04  0.15294330000E+03 0.  0.
<mgrwt>
<rscale>  0 0.64737365E+03</rscale>
<asrwt>0</asrwt>
<pdfrwt beam="1">  1        2 0.29268919E+00 0.64737365E+03</pdfrwt>
<pdfrwt beam="2">  1       -2 0.14286613E+00 0.64737365E+03</pdfrwt>
<totfact> 0.27217237E+00</totfact>
</mgrwt>
</event>
<event>
 4    1  0.4639964E-008  0.1306284E+04  0.7818608E-02  0.9024596E-01
          2   -1    0    0  501    0  0.00000000000E+00  0.00000000000E+00  0.16861209266E+04  0.16861209266E+04  0.25500000000E-02 0. -1.
         -2   -1    0    0    0  501 -0.00000000000E+00 -0.00000000000E+00 -0.13104974993E+04  0.13104974993E+04  0.25500000000E-02 0.  1.
    8880022    1    1    2    0    0  0.24656113649E+03  0.12736542307E+04 -0.52724915743E+03  0.14086769752E+04  0.15294330000E+03 0.  0.
    8880022    1    1    2    0    0 -0.24656113649E+03 -0.12736542307E+04  0.90287258472E+03  0.15879414506E+04  0.15294330000E+03 0.  0.
<mgrwt>
<rscale>  0 0.13062845E+04</rscale>
<asrwt>0</asrwt>
<pdfrwt beam="1">  1        2 0.25940322E+00 0.13062845E+04</pdfrwt>
<pdfrwt beam="2">  1       -2 0.20161500E+00 0.13062845E+04</pdfrwt>
<totfact> 0.12423666E+00</totfact>
</mgrwt>
</event>
<event>
 4    1  0.4639964E-008  0.3760732E+03  0.7818608E-02  0.1052395E+00
         -2   -1    0    0    0  501 -0.00000000000E+00  0.00000000000E+00  0.21692161692E+03  0.21692161693E+03  0.25500000000E-02 0.  1.
          2   -1    0    0  501    0  0.00000000000E+00 -0.00000000000E+00 -0.29492099068E+04  0.29492099068E+04  0.25500000000E-02 0. -1.
    8880022    1    1    2    0    0  0.29747644090E+03 -0.17189281640E+03  0.31019473974E+02  0.37735028025E+03  0.15294330000E+03 0.  0.
    8880022    1    1    2    0    0 -0.29747644090E+03  0.17189281640E+03 -0.27633077639E+04  0.27887812435E+04  0.15294330000E+03 0. -1.
<mgrwt>
<rscale>  0 0.37607317E+03</rscale>
<asrwt>0</asrwt>
<pdfrwt beam="1">  1        2 0.45372457E+00 0.37607317E+03</pdfrwt>
<pdfrwt beam="2">  1       -2 0.33372559E-01 0.37607317E+03</pdfrwt>
<totfact> 0.18176069E+01</totfact>
</mgrwt>
</event>
<event>
 4    1  0.4639964E-008  0.5325879E+03  0.7818608E-02  0.1005606E+00
          2   -1    0    0  501    0  0.00000000000E+00  0.00000000000E+00  0.14516173932E+04  0.14516173932E+04  0.25500000000E-02 0. -1.
         -2   -1    0    0    0  501 -0.00000000000E+00 -0.00000000000E+00 -0.38597908427E+03  0.38597908428E+03  0.25500000000E-02 0.  1.
    8880022    1    1    2    0    0  0.45200048738E+03  0.23654548287E+03 -0.11279476832E+03  0.54440106432E+03  0.15294330000E+03 0. -1.
    8880022    1    1    2    0    0 -0.45200048738E+03 -0.23654548287E+03  0.11784330773E+04  0.12931954132E+04  0.15294330000E+03 0.  0.
<mgrwt>
<rscale>  0 0.53258789E+03</rscale>
<asrwt>0</asrwt>
<pdfrwt beam="1">  1        2 0.22332575E+00 0.53258789E+03</pdfrwt>
<pdfrwt beam="2">  1       -2 0.59381398E-01 0.53258789E+03</pdfrwt>
<totfact> 0.37626306E+01</totfact>
</mgrwt>
</event>
<event>
 4    1  0.4639964E-008  0.2581345E+03  0.7818608E-02  0.1108269E+00
          2   -1    0    0  501    0  0.00000000000E+00  0.00000000000E+00  0.29513828422E+03  0.29513828423E+03  0.25500000000E-02 0. -1.
         -2   -1    0    0    0  501 -0.00000000000E+00 -0.00000000000E+00 -0.19988959187E+04  0.19988959187E+04  0.25500000000E-02 0.  1.
    8880022    1    1    2    0    0  0.15132944623E+03  0.14262238886E+03 -0.19321793225E+04  0.19493461300E+04  0.15294330000E+03 0.  0.
    8880022    1    1    2    0    0 -0.15132944623E+03 -0.14262238886E+03  0.22842168800E+03  0.34468807299E+03  0.15294330000E+03 0.  0.
<mgrwt>
<rscale>  0 0.25813446E+03</rscale>
<asrwt>0</asrwt>
<pdfrwt beam="1">  1        2 0.45405891E-01 0.25813446E+03</pdfrwt>
<pdfrwt beam="2">  1       -2 0.30752244E+00 0.25813446E+03</pdfrwt>
<totfact> 0.37279976E+00</totfact>
</mgrwt>
</event>
<event>
 4    1  0.4639964E-008  0.2569812E+03  0.7818608E-02  0.1108971E+00
         -2   -1    0    0    0  501 -0.00000000000E+00  0.00000000000E+00  0.47860837566E+03  0.47860837567E+03  0.25500000000E-02 0.  1.
          2   -1    0    0  501    0  0.00000000000E+00 -0.00000000000E+00 -0.17050195040E+04  0.17050195040E+04  0.25500000000E-02 0. -1.
    8880022    1    1    2    0    0 -0.16334568044E+03  0.12635610648E+03  0.43349789079E+03  0.50394419463E+03  0.15294330000E+03 0.  0.
    8880022    1    1    2    0    0  0.16334568044E+03 -0.12635610648E+03 -0.16599090191E+04  0.16796836850E+04  0.15294330000E+03 0.  0.
<mgrwt>
<rscale>  0 0.25698119E+03</rscale>
<asrwt>0</asrwt>
<pdfrwt beam="1">  1        2 0.26231069E+00 0.25698119E+03</pdfrwt>
<pdfrwt beam="2">  1       -2 0.73632059E-01 0.25698119E+03</pdfrwt>
<totfact> 0.18574694E+01</totfact>
</mgrwt>
</event>
<event>
 4    1  0.4639964E-008  0.6206629E+03  0.7818608E-02  0.9863441E-01
         -2   -1    0    0    0  501 -0.00000000000E+00  0.00000000000E+00  0.14527321214E+03  0.14527321216E+03  0.25500000000E-02 0.  1.
          2   -1    0    0  501    0  0.00000000000E+00 -0.00000000000E+00 -0.28957812992E+04  0.28957812992E+04  0.25500000000E-02 0. -1.
    8880022    1    1    2    0    0  0.53938352026E+03  0.26626346403E+03 -0.93381630882E+03  0.11212650738E+04  0.15294330000E+03 0.  0.
    8880022    1    1    2    0    0 -0.53938352026E+03 -0.26626346403E+03 -0.18166917782E+04  0.19197894375E+04  0.15294330000E+03 0.  0.
<mgrwt>
<rscale>  0 0.62066293E+03</rscale>
<asrwt>0</asrwt>
<pdfrwt beam="1">  1        2 0.44550477E+00 0.62066293E+03</pdfrwt>
<pdfrwt beam="2">  1       -2 0.22349727E-01 0.62066293E+03</pdfrwt>
<totfact> 0.38118657E+01</totfact>
</mgrwt>
</event>
<event>
 4    1  0.4639964E-008  0.1223862E+04  0.7818608E-02  0.9092223E-01
          2   -1    0    0  501    0  0.00000000000E+00  0.00000000000E+00  0.13149746789E+04  0.13149746789E+04  0.25500000000E-02 0. -1.
         -2   -1    0    0    0  501 -0.00000000000E+00 -0.00000000000E+00 -0.13137905058E+04  0.13137905058E+04  0.25500000000E-02 0.  1.
    8880022    1    1    2    0    0  0.79427337108E+03 -0.91846460256E+03 -0.47874310721E+03  0.13141666675E+04  0.15294330000E+03 0.  0.
    8880022    1    1    2    0    0 -0.79427337108E+03  0.91846460256E+03  0.47992728024E+03  0.13145985172E+04  0.15294330000E+03 0.  0.
<mgrwt>
<rscale>  0 0.12238624E+04</rscale>
<asrwt>0</asrwt>
<pdfrwt beam="1">  1        2 0.20230380E+00 0.12238624E+04</pdfrwt>
<pdfrwt beam="2">  1       -2 0.20212162E+00 0.12238624E+04</pdfrwt>
<totfact> 0.20205255E+00</totfact>
</mgrwt>
</event>
<event>
 4    1  0.4639964E-008  0.8873591E+03  0.7818608E-02  0.9441523E-01
         -2   -1    0    0    0  501 -0.00000000000E+00  0.00000000000E+00  0.29719381773E+03  0.29719381774E+03  0.25500000000E-02 0.  1.
          2   -1    0    0  501    0  0.00000000000E+00 -0.00000000000E+00 -0.33248927885E+04  0.33248927885E+04  0.25500000000E-02 0. -1.
    8880022    1    1    2    0    0 -0.38421291759E+03  0.78510822727E+03 -0.69759079222E+03  0.11287333879E+04  0.15294330000E+03 0.  0.
    8880022    1    1    2    0    0  0.38421291759E+03 -0.78510822727E+03 -0.23301081786E+04  0.24933532183E+04  0.15294330000E+03 0.  0.
<mgrwt>
<rscale>  0 0.88735909E+03</rscale>
<asrwt>0</asrwt>
<pdfrwt beam="1">  1        2 0.51152194E+00 0.88735909E+03</pdfrwt>
<pdfrwt beam="2">  1       -2 0.45722128E-01 0.88735909E+03</pdfrwt>
<totfact> 0.51069743E+00</totfact>
</mgrwt>
</event>
<event>
 4    1  0.5459427E-008  0.9605253E+03  0.7818608E-02  0.9352932E-01
          2   -1    0    0  501    0  0.00000000000E+00  0.00000000000E+00  0.17551838012E+04  0.17551838012E+04  0.25500000000E-02 0. -1.
         -2   -1    0    0    0  501 -0.00000000000E+00 -0.00000000000E+00 -0.15385387662E+04  0.15385387662E+04  0.25500000000E-02 0.  1.
    8880022    1    1    2    0    0  0.31299305442E+03 -0.89512715028E+03 -0.12279163376E+04  0.15589699973E+04  0.15294330000E+03 0.  0.
    8880022    1    1    2    0    0 -0.31299305442E+03  0.89512715028E+03  0.14445613726E+04  0.17347525701E+04  0.15294330000E+03 0.  0.
<mgrwt>
<rscale>  0 0.96052534E+03</rscale>
<asrwt>0</asrwt>
<pdfrwt beam="1">  1        2 0.27002828E+00 0.96052534E+03</pdfrwt>
<pdfrwt beam="2">  1       -2 0.23669827E+00 0.96052534E+03</pdfrwt>
<totfact> 0.71325306E-01</totfact>
</mgrwt>
</event>
<event>
 4    1  0.4639964E-008  0.7051084E+03  0.7818608E-02  0.9708536E-01
          2   -1    0    0  501    0  0.00000000000E+00  0.00000000000E+00  0.15488220686E+04  0.15488220686E+04  0.25500000000E-02 0. -1.
         -2   -1    0    0    0  501 -0.00000000000E+00 -0.00000000000E+00 -0.57141527996E+03  0.57141527997E+03  0.25500000000E-02 0.  1.
    8880022    1    1    2    0    0 -0.45327437551E+03 -0.51800443872E+03 -0.21308405700E+03  0.73660214933E+03  0.15294330000E+03 0.  0.
    8880022    1    1    2    0    0  0.45327437551E+03  0.51800443872E+03  0.11904908456E+04  0.13836351993E+04  0.15294330000E+03 0.  0.
<mgrwt>
<rscale>  0 0.70510844E+03</rscale>
<asrwt>0</asrwt>
<pdfrwt beam="1">  1        2 0.23828032E+00 0.70510844E+03</pdfrwt>
<pdfrwt beam="2">  1       -2 0.87910044E-01 0.70510844E+03</pdfrwt>
<totfact> 0.13710559E+01</totfact>
</mgrwt>
</event>
<event>
 4    1  0.4639964E-008  0.1007633E+04  0.7818608E-02  0.9300213E-01
         -2   -1    0    0    0  501 -0.00000000000E+00  0.00000000000E+00  0.11109757709E+04  0.11109757709E+04  0.25500000000E-02 0.  1.
          2   -1    0    0  501    0  0.00000000000E+00 -0.00000000000E+00 -0.13166484807E+04  0.13166484807E+04  0.25500000000E-02 0. -1.
    8880022    1    1    2    0    0 -0.97625019690E+03 -0.19714984308E+03  0.56848715127E+03  0.11569363862E+04  0.15294330000E+03 0.  0.
    8880022    1    1    2    0    0  0.97625019690E+03  0.19714984308E+03 -0.77415986113E+03  0.12706878654E+04  0.15294330000E+03 0.  0.
<mgrwt>
<rscale>  0 0.10076329E+04</rscale>
<asrwt>0</asrwt>
<pdfrwt beam="1">  1        2 0.20256130E+00 0.10076329E+04</pdfrwt>
<pdfrwt beam="2">  1       -2 0.17091935E+00 0.10076329E+04</pdfrwt>
<totfact> 0.33626962E+00</totfact>
</mgrwt>
</event>
<event>
 4    1  0.4639964E-008  0.2162902E+03  0.7818608E-02  0.1136679E+00
         -2   -1    0    0    0  501 -0.00000000000E+00  0.00000000000E+00  0.38509858263E+03  0.38509858264E+03  0.25500000000E-02 0.  1.
          2   -1    0    0  501    0  0.00000000000E+00 -0.00000000000E+00 -0.53793251582E+03  0.53793251583E+03  0.25500000000E-02 0. -1.
    8880022    1    1    2    0    0  0.15015971634E+03  0.29015002562E+02 -0.48249136260E+03  0.52875266314E+03  0.15294330000E+03 0.  0.
    8880022    1    1    2    0    0 -0.15015971634E+03 -0.29015002562E+02  0.32965742941E+03  0.39427843532E+03  0.15294330000E+03 0.  0.
<mgrwt>
<rscale>  0 0.21629023E+03</rscale>
<asrwt>0</asrwt>
<pdfrwt beam="1">  1        2 0.82758849E-01 0.21629023E+03</pdfrwt>
<pdfrwt beam="2">  1       -2 0.59245936E-01 0.21629023E+03</pdfrwt>
<totfact> 0.15814020E+02</totfact>
</mgrwt>
</event>
<event>
 4    1  0.4639964E-008  0.4695907E+03  0.7818608E-02  0.1022036E+00
          2   -1    0    0  501    0  0.00000000000E+00  0.00000000000E+00  0.18520820467E+04  0.18520820467E+04  0.25500000000E-02 0. -1.
         -2   -1    0    0    0  501 -0.00000000000E+00 -0.00000000000E+00 -0.39061193403E+03  0.39061193404E+03  0.25500000000E-02 0.  1.
    8880022    1    1    2    0    0 -0.40928711386E+03  0.17206920267E+03  0.16656904780E+04  0.17306184368E+04  0.15294330000E+03 0.  0.
    8880022    1    1    2    0    0  0.40928711386E+03 -0.17206920267E+03 -0.20422036537E+03  0.51207554397E+03  0.15294330000E+03 0.  0.
<mgrwt>
<rscale>  0 0.46959068E+03</rscale>
<asrwt>0</asrwt>
<pdfrwt beam="1">  1        2 0.28493571E+00 0.46959068E+03</pdfrwt>
<pdfrwt beam="2">  1       -2 0.60094142E-01 0.46959068E+03</pdfrwt>
<totfact> 0.22510311E+01</totfact>
</mgrwt>
</event>
<event>
 4    1  0.4639964E-008  0.5920532E+03  0.7818608E-02  0.9922032E-01
         -2   -1    0    0    0  501 -0.00000000000E+00  0.00000000000E+00  0.29645010913E+03  0.29645010914E+03  0.25500000000E-02 0.  1.
          2   -1    0    0  501    0  0.00000000000E+00 -0.00000000000E+00 -0.21488576767E+04  0.21488576767E+04  0.25500000000E-02 0. -1.
    8880022    1    1    2    0    0  0.27624928437E+02  0.57128995347E+03 -0.10625297147E+03  0.60151200700E+03  0.15294330000E+03 0.  0.
    8880022    1    1    2    0    0 -0.27624928437E+02 -0.57128995347E+03 -0.17461545961E+04  0.18437957789E+04  0.15294330000E+03 0. -1.
<mgrwt>
<rscale>  0 0.59205321E+03</rscale>
<asrwt>0</asrwt>
<pdfrwt beam="1">  1        2 0.33059348E+00 0.59205321E+03</pdfrwt>
<pdfrwt beam="2">  1       -2 0.45607710E-01 0.59205321E+03</pdfrwt>
<totfact> 0.26709726E+01</totfact>
</mgrwt>
</event>
<event>
 4    1  0.4639964E-008  0.8400453E+03  0.7818608E-02  0.9503796E-01
          2   -1    0    0  501    0  0.00000000000E+00  0.00000000000E+00  0.39101502326E+04  0.39101502326E+04  0.25500000000E-02 0. -1.
         -2   -1    0    0    0  501 -0.00000000000E+00 -0.00000000000E+00 -0.41527261865E+03  0.41527261866E+03  0.25500000000E-02 0.  1.
    8880022    1    1    2    0    0 -0.81869331809E+03  0.10966149142E+03  0.12121341524E+03  0.84874538988E+03  0.15294330000E+03 0.  0.
    8880022    1    1    2    0    0  0.81869331809E+03 -0.10966149142E+03  0.33736641987E+04  0.34766774613E+04  0.15294330000E+03 0.  0.
<mgrwt>
<rscale>  0 0.84004526E+03</rscale>
<asrwt>0</asrwt>
<pdfrwt beam="1">  1        2 0.60156157E+00 0.84004526E+03</pdfrwt>
<pdfrwt beam="2">  1       -2 0.63888096E-01 0.84004526E+03</pdfrwt>
<totfact> 0.99195120E-01</totfact>
</mgrwt>
</event>
<event>
 4    1  0.4639964E-008  0.8545371E+03  0.7818608E-02  0.9484268E-01
          2   -1    0    0  501    0  0.00000000000E+00  0.00000000000E+00  0.38481025227E+04  0.38481025227E+04  0.25500000000E-02 0. -1.
         -2   -1    0    0    0  501 -0.00000000000E+00 -0.00000000000E+00 -0.79410561863E+03  0.79410561863E+03  0.25500000000E-02 0.  1.
    8880022    1    1    2    0    0 -0.74409071265E+03 -0.39137065122E+03  0.35518655129E+04  0.36532153304E+04  0.15294330000E+03 0.  0.
    8880022    1    1    2    0    0  0.74409071265E+03  0.39137065122E+03 -0.49786860889E+03  0.98899281091E+03  0.15294330000E+03 0.  0.
<mgrwt>
<rscale>  0 0.85453708E+03</rscale>
<asrwt>0</asrwt>
<pdfrwt beam="1">  1        2 0.59201578E+00 0.85453708E+03</pdfrwt>
<pdfrwt beam="2">  1       -2 0.12217009E+00 0.85453708E+03</pdfrwt>
<totfact> 0.24680833E-01</totfact>
</mgrwt>
</event>
<event>
 4    1  0.4639964E-008  0.3065148E+03  0.7818608E-02  0.1082029E+00
         -2   -1    0    0    0  501 -0.00000000000E+00  0.00000000000E+00  0.64358413201E+03  0.64358413202E+03  0.25500000000E-02 0.  1.
          2   -1    0    0  501    0  0.00000000000E+00 -0.00000000000E+00 -0.21749799692E+03  0.21749799694E+03  0.25500000000E-02 0. -1.
    8880022    1    1    2    0    0 -0.21427324585E+03 -0.15699251921E+03 -0.33839427147E+02  0.30837709841E+03  0.15294330000E+03 0.  0.
    8880022    1    1    2    0    0  0.21427324585E+03  0.15699251921E+03  0.45992556224E+03  0.55270503055E+03  0.15294330000E+03 0.  1.
<mgrwt>
<rscale>  0 0.30651481E+03</rscale>
<asrwt>0</asrwt>
<pdfrwt beam="1">  1        2 0.33461231E-01 0.30651481E+03</pdfrwt>
<pdfrwt beam="2">  1       -2 0.99012943E-01 0.30651481E+03</pdfrwt>
<totfact> 0.13701248E+02</totfact>
</mgrwt>
</event>
<event>
 4    1  0.4639964E-008  0.6773223E+03  0.7818608E-02  0.9756820E-01
          2   -1    0    0  501    0  0.00000000000E+00  0.00000000000E+00  0.29635088931E+04  0.29635088931E+04  0.25500000000E-02 0. -1.
         -2   -1    0    0    0  501 -0.00000000000E+00 -0.00000000000E+00 -0.21412710798E+03  0.21412710800E+03  0.25500000000E-02 0.  1.
    8880022    1    1    2    0    0  0.21976086225E+03  0.62215669170E+03  0.22109623989E+04  0.23123840874E+04  0.15294330000E+03 0.  0.
    8880022    1    1    2    0    0 -0.21976086225E+03 -0.62215669170E+03  0.53841938628E+03  0.86525191369E+03  0.15294330000E+03 0.  0.
<mgrwt>
<rscale>  0 0.67732226E+03</rscale>
<asrwt>0</asrwt>
<pdfrwt beam="1">  1        2 0.45592447E+00 0.67732226E+03</pdfrwt>
<pdfrwt beam="2">  1       -2 0.32942630E-01 0.67732226E+03</pdfrwt>
<totfact> 0.16928003E+01</totfact>
</mgrwt>
</event>
<event>
 4    1  0.4639964E-008  0.5452474E+03  0.7818608E-02  0.1002600E+00
          2   -1    0    0  501    0  0.00000000000E+00  0.00000000000E+00  0.19609196578E+04  0.19609196578E+04  0.25500000000E-02 0. -1.
         -2   -1    0    0    0  501 -0.00000000000E+00 -0.00000000000E+00 -0.25892725069E+03  0.25892725071E+03  0.25500000000E-02 0.  1.
    8880022    1    1    2    0    0 -0.41794311966E+03  0.31500262532E+03  0.13643538719E+03  0.56205815813E+03  0.15294330000E+03 0.  0.
    8880022    1    1    2    0    0  0.41794311966E+03 -0.31500262532E+03  0.15655570199E+04  0.16577887503E+04  0.15294330000E+03 0.  0.
<mgrwt>
<rscale>  0 0.54524743E+03</rscale>
<asrwt>0</asrwt>
<pdfrwt beam="1">  1        2 0.30167995E+00 0.54524743E+03</pdfrwt>
<pdfrwt beam="2">  1       -2 0.39834961E-01 0.54524743E+03</pdfrwt>
<totfact> 0.44418681E+01</totfact>
</mgrwt>
</event>
<event>
 4    1  0.4639964E-008  0.3637039E+03  0.7818608E-02  0.1057127E+00
          2   -1    0    0  501    0  0.00000000000E+00  0.00000000000E+00  0.11791532997E+04  0.11791532997E+04  0.25500000000E-02 0. -1.
         -2   -1    0    0    0  501 -0.00000000000E+00 -0.00000000000E+00 -0.21245645981E+03  0.21245645982E+03  0.25500000000E-02 0.  1.
    8880022    1    1    2    0    0 -0.28424114163E+02  0.32875668656E+03  0.96136862878E+03  0.10278668117E+04  0.15294330000E+03 0.  0.
    8880022    1    1    2    0    0  0.28424114163E+02 -0.32875668656E+03  0.53282111069E+01  0.36374294779E+03  0.15294330000E+03 0.  0.
<mgrwt>
<rscale>  0 0.36370392E+03</rscale>
<asrwt>0</asrwt>
<pdfrwt beam="1">  1        2 0.18140820E+00 0.36370392E+03</pdfrwt>
<pdfrwt beam="2">  1       -2 0.32685608E-01 0.36370392E+03</pdfrwt>
<totfact> 0.17856624E+02</totfact>
</mgrwt>
</event>
<event>
 4    1  0.4639964E-008  0.7280093E+03  0.7818608E-02  0.9670496E-01
          2   -1    0    0  501    0  0.00000000000E+00  0.00000000000E+00  0.51577992091E+03  0.51577992091E+03  0.25500000000E-02 0. -1.
         -2   -1    0    0    0  501 -0.00000000000E+00 -0.00000000000E+00 -0.21624273434E+04  0.21624273434E+04  0.25500000000E-02 0.  1.
    8880022    1    1    2    0    0 -0.31113007855E+03  0.64015929619E+03  0.14677287946E+03  0.74265724358E+03  0.15294330000E+03 0.  0.
    8880022    1    1    2    0    0  0.31113007855E+03 -0.64015929619E+03 -0.17934203019E+04  0.19355500207E+04  0.15294330000E+03 0.  0.
<mgrwt>
<rscale>  0 0.72800927E+03</rscale>
<asrwt>0</asrwt>
<pdfrwt beam="1">  1        2 0.79350758E-01 0.72800927E+03</pdfrwt>
<pdfrwt beam="2">  1       -2 0.33268113E+00 0.72800927E+03</pdfrwt>
<totfact> 0.12503149E+00</totfact>
</mgrwt>
</event>
<event>
 4    1  0.4639964E-008  0.3899004E+03  0.7818608E-02  0.1047334E+00
          2   -1    0    0  501    0  0.00000000000E+00  0.00000000000E+00  0.14114206640E+04  0.14114206640E+04  0.25500000000E-02 0. -1.
         -2   -1    0    0    0  501 -0.00000000000E+00 -0.00000000000E+00 -0.40264076509E+03  0.40264076509E+03  0.25500000000E-02 0.  1.
    8880022    1    1    2    0    0 -0.33476587570E+03 -0.12869529057E+03 -0.27190024179E+03  0.47534415306E+03  0.15294330000E+03 0.  0.
    8880022    1    1    2    0    0  0.33476587570E+03  0.12869529057E+03  0.12806801407E+04  0.13387172760E+04  0.15294330000E+03 0. -1.
<mgrwt>
<rscale>  0 0.38990040E+03</rscale>
<asrwt>0</asrwt>
<pdfrwt beam="1">  1        2 0.21714163E+00 0.38990040E+03</pdfrwt>
<pdfrwt beam="2">  1       -2 0.61944735E-01 0.38990040E+03</pdfrwt>
<totfact> 0.37178369E+01</totfact>
</mgrwt>
</event>
<event>
 4    1  0.4639964E-008  0.6244402E+03  0.7818608E-02  0.9855959E-01
         -2   -1    0    0    0  501 -0.00000000000E+00  0.00000000000E+00  0.33292974352E+03  0.33292974353E+03  0.25500000000E-02 0.  1.
          2   -1    0    0  501    0  0.00000000000E+00 -0.00000000000E+00 -0.18401315543E+04  0.18401315543E+04  0.25500000000E-02 0. -1.
    8880022    1    1    2    0    0  0.56226396058E+03  0.22448417684E+03 -0.98497136194E+02  0.63216077534E+03  0.15294330000E+03 0.  0.
    8880022    1    1    2    0    0 -0.56226396058E+03 -0.22448417684E+03 -0.14087046746E+04  0.15409005225E+04  0.15294330000E+03 0.  0.
<mgrwt>
<rscale>  0 0.62444020E+03</rscale>
<asrwt>0</asrwt>
<pdfrwt beam="1">  1        2 0.28309715E+00 0.62444020E+03</pdfrwt>
<pdfrwt beam="2">  1       -2 0.51219962E-01 0.62444020E+03</pdfrwt>
<totfact> 0.30922145E+01</totfact>
</mgrwt>
</event>
<event>
 4    1  0.4639964E-008  0.2162735E+03  0.7818608E-02  0.1136692E+00
         -2   -1    0    0    0  501 -0.00000000000E+00  0.00000000000E+00  0.49189547084E+02  0.49189547150E+02  0.25500000000E-02 0.  1.
          2   -1    0    0  501    0  0.00000000000E+00 -0.00000000000E+00 -0.33328481442E+04  0.33328481442E+04  0.25500000000E-02 0. -1.
    8880022    1    1    2    0    0 -0.55092733359E+02  0.14264424505E+03 -0.30714045343E+04  0.30790095902E+04  0.15294330000E+03 0.  0.
    8880022    1    1    2    0    0  0.55092733359E+02 -0.14264424505E+03 -0.21225406279E+03  0.30302810117E+03  0.15294330000E+03 0.  1.
<mgrwt>
<rscale>  0 0.21627354E+03</rscale>
<asrwt>0</asrwt>
<pdfrwt beam="1">  1        2 0.51274569E+00 0.21627354E+03</pdfrwt>
<pdfrwt beam="2">  1       -2 0.75676252E-02 0.21627354E+03</pdfrwt>
<totfact> 0.13756537E+02</totfact>
</mgrwt>
</event>
<event>
 4    1  0.4639964E-008  0.5014254E+03  0.7818608E-02  0.1013408E+00
         -2   -1    0    0    0  501 -0.00000000000E+00  0.00000000000E+00  0.41353496741E+03  0.41353496741E+03  0.25500000000E-02 0.  1.
          2   -1    0    0  501    0  0.00000000000E+00 -0.00000000000E+00 -0.18880307376E+04  0.18880307376E+04  0.25500000000E-02 0. -1.
    8880022    1    1    2    0    0  0.44627598545E+03  0.16992215937E+03  0.21029700575E+03  0.54373916456E+03  0.15294330000E+03 0.  0.
    8880022    1    1    2    0    0 -0.44627598545E+03 -0.16992215937E+03 -0.16847927759E+04  0.17578265404E+04  0.15294330000E+03 0.  0.
<mgrwt>
<rscale>  0 0.50142542E+03</rscale>
<asrwt>0</asrwt>
<pdfrwt beam="1">  1        2 0.29046626E+00 0.50142542E+03</pdfrwt>
<pdfrwt beam="2">  1       -2 0.63620766E-01 0.50142542E+03</pdfrwt>
<totfact> 0.18960537E+01</totfact>
</mgrwt>
</event>
<event>
 4    1  0.4639964E-008  0.2066356E+03  0.7818608E-02  0.1144258E+00
          2   -1    0    0  501    0  0.00000000000E+00  0.00000000000E+00  0.25502660169E+04  0.25502660169E+04  0.25500000000E-02 0. -1.
         -2   -1    0    0    0  501 -0.00000000000E+00 -0.00000000000E+00 -0.42202393030E+02  0.42202393107E+02  0.25500000000E-02 0.  1.
    8880022    1    1    2    0    0 -0.13784813243E+03 -0.17450513729E+02  0.22608283498E+04  0.22702517720E+04  0.15294330000E+03 0.  0.
    8880022    1    1    2    0    0  0.13784813243E+03  0.17450513729E+02  0.24723527406E+03  0.32221663799E+03  0.15294330000E+03 0.  1.
<mgrwt>
<rscale>  0 0.20663562E+03</rscale>
<asrwt>0</asrwt>
<pdfrwt beam="1">  1        2 0.39234865E+00 0.20663562E+03</pdfrwt>
<pdfrwt beam="2">  1       -2 0.64926753E-02 0.20663562E+03</pdfrwt>
<totfact> 0.50103672E+02</totfact>
</mgrwt>
</event>
<event>
 4    1  0.4639964E-008  0.1684540E+03  0.7818608E-02  0.1179470E+00
         -2   -1    0    0    0  501 -0.00000000000E+00  0.00000000000E+00  0.12043360673E+04  0.12043360673E+04  0.25500000000E-02 0.  1.
          2   -1    0    0  501    0  0.00000000000E+00 -0.00000000000E+00 -0.24843143309E+03  0.24843143310E+03  0.25500000000E-02 0. -1.
    8880022    1    1    2    0    0 -0.67480932006E+02  0.20770896074E+02  0.11690316504E+04  0.11811061591E+04  0.15294330000E+03 0.  0.
    8880022    1    1    2    0    0  0.67480932006E+02 -0.20770896074E+02 -0.21312701622E+03  0.27166134131E+03  0.15294330000E+03 0. -1.
<mgrwt>
<rscale>  0 0.16845403E+03</rscale>
<asrwt>0</asrwt>
<pdfrwt beam="1">  1        2 0.38220221E-01 0.16845403E+03</pdfrwt>
<pdfrwt beam="2">  1       -2 0.18528247E+00 0.16845403E+03</pdfrwt>
<totfact> 0.24918816E+01</totfact>
</mgrwt>
</event>
<event>
 4    1  0.4639964E-008  0.4004212E+03  0.7818608E-02  0.1043634E+00
         -2   -1    0    0    0  501 -0.00000000000E+00  0.00000000000E+00  0.29621780342E+03  0.29621780343E+03  0.25500000000E-02 0.  1.
          2   -1    0    0  501    0  0.00000000000E+00 -0.00000000000E+00 -0.24670359731E+04  0.24670359731E+04  0.25500000000E-02 0. -1.
    8880022    1    1    2    0    0 -0.26483582727E+03  0.25847142599E+03  0.13527566795E+03  0.42265429468E+03  0.15294330000E+03 0.  1.
    8880022    1    1    2    0    0  0.26483582727E+03 -0.25847142599E+03 -0.23060938376E+04  0.23405994819E+04  0.15294330000E+03 0.  0.
<mgrwt>
<rscale>  0 0.40042121E+03</rscale>
<asrwt>0</asrwt>
<pdfrwt beam="1">  1        2 0.37954398E+00 0.40042121E+03</pdfrwt>
<pdfrwt beam="2">  1       -2 0.45571971E-01 0.40042121E+03</pdfrwt>
<totfact> 0.18697691E+01</totfact>
</mgrwt>
</event>
<event>
 4    1  0.4639964E-008  0.6262466E+03  0.7818608E-02  0.9852401E-01
          2   -1    0    0  501    0  0.00000000000E+00  0.00000000000E+00  0.91961416217E+03  0.91961416217E+03  0.25500000000E-02 0. -1.
         -2   -1    0    0    0  501 -0.00000000000E+00 -0.00000000000E+00 -0.61060681176E+03  0.61060681177E+03  0.25500000000E-02 0.  1.
    8880022    1    1    2    0    0 -0.60649708515E+03 -0.30893053724E+02  0.57466649767E+03  0.84995666456E+03  0.15294330000E+03 0.  0.
    8880022    1    1    2    0    0  0.60649708515E+03  0.30893053724E+02 -0.26565914727E+03  0.68026430938E+03  0.15294330000E+03 0.  0.
<mgrwt>
<rscale>  0 0.62624656E+03</rscale>
<asrwt>0</asrwt>
<pdfrwt beam="1">  1        2 0.14147910E+00 0.62624656E+03</pdfrwt>
<pdfrwt beam="2">  1       -2 0.93939509E-01 0.62624656E+03</pdfrwt>
<totfact> 0.27989298E+01</totfact>
</mgrwt>
</event>
<event>
 4    1  0.4639964E-008  0.5059469E+03  0.7818608E-02  0.1012238E+00
          2   -1    0    0  501    0  0.00000000000E+00  0.00000000000E+00  0.31213428354E+04  0.31213428354E+04  0.25500000000E-02 0. -1.
         -2   -1    0    0    0  501 -0.00000000000E+00 -0.00000000000E+00 -0.85785027074E+02  0.85785027112E+02  0.25500000000E-02 0.  1.
    8880022    1    1    2    0    0  0.42353187054E+03 -0.23067579794E+03  0.18541541691E+04  0.19219443033E+04  0.15294330000E+03 0.  0.
    8880022    1    1    2    0    0 -0.42353187054E+03  0.23067579794E+03  0.11814036392E+04  0.12851835592E+04  0.15294330000E+03 0.  0.
<mgrwt>
<rscale>  0 0.50594686E+03</rscale>
<asrwt>0</asrwt>
<pdfrwt beam="1">  1        2 0.48020660E+00 0.50594686E+03</pdfrwt>
<pdfrwt beam="2">  1       -2 0.13197696E-01 0.50594686E+03</pdfrwt>
<totfact> 0.69996689E+01</totfact>
</mgrwt>
</event>
<event>
 4    1  0.4639964E-008  0.4410209E+03  0.7818608E-02  0.1030434E+00
          2   -1    0    0  501    0  0.00000000000E+00  0.00000000000E+00  0.23378855653E+03  0.23378855654E+03  0.25500000000E-02 0. -1.
         -2   -1    0    0    0  501 -0.00000000000E+00 -0.00000000000E+00 -0.17762103840E+04  0.17762103840E+04  0.25500000000E-02 0.  1.
    8880022    1    1    2    0    0  0.60230940186E+02 -0.40924318464E+03 -0.38444617958E+02  0.44269333854E+03  0.15294330000E+03 0. -1.
    8880022    1    1    2    0    0 -0.60230940186E+02  0.40924318464E+03 -0.15039772095E+04  0.15673056020E+04  0.15294330000E+03 0.  1.
<mgrwt>
<rscale>  0 0.44102086E+03</rscale>
<asrwt>0</asrwt>
<pdfrwt beam="1">  1        2 0.35967471E-01 0.44102086E+03</pdfrwt>
<pdfrwt beam="2">  1       -2 0.27326313E+00 0.44102086E+03</pdfrwt>
<totfact> 0.72583371E+00</totfact>
</mgrwt>
</event>
<event>
 4    1  0.5003303E-008  0.9214036E+03  0.7818608E-02  0.9399214E-01
         -2   -1    0    0    0  501 -0.00000000000E+00  0.00000000000E+00  0.21801282801E+04  0.21801282801E+04  0.25500000000E-02 0.  1.
          2   -1    0    0  501    0  0.00000000000E+00 -0.00000000000E+00 -0.94547530235E+03  0.94547530235E+03  0.25500000000E-02 0. -1.
    8880022    1    1    2    0    0 -0.90391316357E+03 -0.92378927142E+02  0.18158263370E+04  0.20362244014E+04  0.15294330000E+03 0.  0.
    8880022    1    1    2    0    0  0.90391316357E+03  0.92378927142E+02 -0.58117335933E+03  0.10893791810E+04  0.15294330000E+03 0.  0.
<mgrwt>
<rscale>  0 0.92140356E+03</rscale>
<asrwt>0</asrwt>
<pdfrwt beam="1">  1        2 0.14545774E+00 0.92140356E+03</pdfrwt>
<pdfrwt beam="2">  1       -2 0.33540435E+00 0.92140356E+03</pdfrwt>
<totfact> 0.53672507E-01</totfact>
</mgrwt>
</event>
<event>
 4    1  0.4639964E-008  0.7315037E+03  0.7818608E-02  0.9664823E-01
          2   -1    0    0  501    0  0.00000000000E+00  0.00000000000E+00  0.25713418649E+04  0.25713418649E+04  0.25500000000E-02 0. -1.
         -2   -1    0    0    0  501 -0.00000000000E+00 -0.00000000000E+00 -0.35381176307E+03  0.35381176308E+03  0.25500000000E-02 0.  1.
    8880022    1    1    2    0    0 -0.71445513303E+03  0.35494162442E+02  0.20473618205E+04  0.21741177636E+04  0.15294330000E+03 0.  0.
    8880022    1    1    2    0    0  0.71445513303E+03 -0.35494162442E+02  0.17016828131E+03  0.75103586443E+03  0.15294330000E+03 0.  0.
<mgrwt>
<rscale>  0 0.73150367E+03</rscale>
<asrwt>0</asrwt>
<pdfrwt beam="1">  1        2 0.39559105E+00 0.73150367E+03</pdfrwt>
<pdfrwt beam="2">  1       -2 0.54432579E-01 0.73150367E+03</pdfrwt>
<totfact> 0.10588226E+01</totfact>
</mgrwt>
</event>
<event>
 4    1  0.4639964E-008  0.6815135E+03  0.7818608E-02  0.9749379E-01
          2   -1    0    0  501    0  0.00000000000E+00  0.00000000000E+00  0.30376993466E+03  0.30376993467E+03  0.25500000000E-02 0. -1.
         -2   -1    0    0    0  501 -0.00000000000E+00 -0.00000000000E+00 -0.16877875304E+04  0.16877875304E+04  0.25500000000E-02 0.  1.
    8880022    1    1    2    0    0 -0.25389281877E+03 -0.61368349855E+03 -0.99745045023E+03  0.12080430677E+04  0.15294330000E+03 0.  0.
    8880022    1    1    2    0    0  0.25389281877E+03  0.61368349855E+03 -0.38656714551E+03  0.78351439733E+03  0.15294330000E+03 0.  0.
<mgrwt>
<rscale>  0 0.68151350E+03</rscale>
<asrwt>0</asrwt>
<pdfrwt beam="1">  1        2 0.46733837E-01 0.68151350E+03</pdfrwt>
<pdfrwt beam="2">  1       -2 0.25965961E+00 0.68151350E+03</pdfrwt>
<totfact> 0.63026534E+00</totfact>
</mgrwt>
</event>
<event>
 4    1  0.4639964E-008  0.4797566E+03  0.7818608E-02  0.1019202E+00
          2   -1    0    0  501    0  0.00000000000E+00  0.00000000000E+00  0.15644797213E+04  0.15644797213E+04  0.25500000000E-02 0. -1.
         -2   -1    0    0    0  501 -0.00000000000E+00 -0.00000000000E+00 -0.22012034241E+03  0.22012034242E+03  0.25500000000E-02 0.  1.
    8880022    1    1    2    0    0 -0.21782734181E+03 -0.39915658329E+03  0.15832179961E+03  0.50520508120E+03  0.15294330000E+03 0.  0.
    8880022    1    1    2    0    0  0.21782734181E+03  0.39915658329E+03  0.11860375793E+04  0.12793949825E+04  0.15294330000E+03 0.  0.
<mgrwt>
<rscale>  0 0.47975659E+03</rscale>
<asrwt>0</asrwt>
<pdfrwt beam="1">  1        2 0.24068919E+00 0.47975659E+03</pdfrwt>
<pdfrwt beam="2">  1       -2 0.33864668E-01 0.47975659E+03</pdfrwt>
<totfact> 0.10015594E+02</totfact>
</mgrwt>
</event>
<event>
 4    1  0.4639964E-008  0.8102984E+03  0.7818608E-02  0.9545229E-01
         -2   -1    0    0    0  501 -0.00000000000E+00  0.00000000000E+00  0.80194087080E+03  0.80194087081E+03  0.25500000000E-02 0.  1.
          2   -1    0    0  501    0  0.00000000000E+00 -0.00000000000E+00 -0.12381799245E+04  0.12381799245E+04  0.25500000000E-02 0. -1.
    8880022    1    1    2    0    0  0.77553217673E+03 -0.17816184564E+03  0.37558088696E+03  0.89310943117E+03  0.15294330000E+03 0.  0.
    8880022    1    1    2    0    0 -0.77553217673E+03  0.17816184564E+03 -0.81181994063E+03  0.11470113641E+04  0.15294330000E+03 0.  0.
<mgrwt>
<rscale>  0 0.81029837E+03</rscale>
<asrwt>0</asrwt>
<pdfrwt beam="1">  1        2 0.19048922E+00 0.81029837E+03</pdfrwt>
<pdfrwt beam="2">  1       -2 0.12337552E+00 0.81029837E+03</pdfrwt>
<totfact> 0.90210610E+00</totfact>
</mgrwt>
</event>
<event>
 4    1  0.4639964E-008  0.2720713E+03  0.7818608E-02  0.1100100E+00
         -2   -1    0    0    0  501 -0.00000000000E+00  0.00000000000E+00  0.80423062501E+03  0.80423062501E+03  0.25500000000E-02 0.  1.
          2   -1    0    0  501    0  0.00000000000E+00 -0.00000000000E+00 -0.16938783456E+03  0.16938783458E+03  0.25500000000E-02 0. -1.
    8880022    1    1    2    0    0  0.17704536416E+03 -0.13887433913E+03 -0.11533880410E+02  0.27231567427E+03  0.15294330000E+03 0. -1.
    8880022    1    1    2    0    0 -0.17704536416E+03  0.13887433913E+03  0.64637667086E+03  0.70130278532E+03  0.15294330000E+03 0.  1.
<mgrwt>
<rscale>  0 0.27207131E+03</rscale>
<asrwt>0</asrwt>
<pdfrwt beam="1">  1        2 0.26059667E-01 0.27207131E+03</pdfrwt>
<pdfrwt beam="2">  1       -2 0.12372779E+00 0.27207131E+03</pdfrwt>
<totfact> 0.10637517E+02</totfact>
</mgrwt>
</event>
<event>
 4    1  0.4639964E-008  0.7038500E+03  0.7818608E-02  0.9710671E-01
         -2   -1    0    0    0  501 -0.00000000000E+00  0.00000000000E+00  0.76194459421E+03  0.76194459421E+03  0.25500000000E-02 0.  1.
          2   -1    0    0  501    0  0.00000000000E+00 -0.00000000000E+00 -0.10298243495E+04  0.10298243495E+04  0.25500000000E-02 0. -1.
    8880022    1    1    2    0    0  0.58338075451E+03 -0.36287755524E+03  0.41000650441E+03  0.81456136141E+03  0.15294330000E+03 0.  0.
    8880022    1    1    2    0    0 -0.58338075451E+03  0.36287755524E+03 -0.67788625973E+03  0.97720758234E+03  0.15294330000E+03 0.  0.
<mgrwt>
<rscale>  0 0.70385004E+03</rscale>
<asrwt>0</asrwt>
<pdfrwt beam="1">  1        2 0.15843451E+00 0.70385004E+03</pdfrwt>
<pdfrwt beam="2">  1       -2 0.11722225E+00 0.70385004E+03</pdfrwt>
<totfact> 0.13872173E+01</totfact>
</mgrwt>
</event>
<event>
 4    1  0.4639964E-008  0.7816641E+03  0.7818608E-02  0.9586943E-01
         -2   -1    0    0    0  501 -0.00000000000E+00  0.00000000000E+00  0.99006670928E+03  0.99006670928E+03  0.25500000000E-02 0.  1.
          2   -1    0    0  501    0  0.00000000000E+00 -0.00000000000E+00 -0.15865083680E+04  0.15865083680E+04  0.25500000000E-02 0. -1.
    8880022    1    1    2    0    0  0.40218423213E+03 -0.65257561537E+03 -0.13052418565E+04  0.15213990428E+04  0.15294330000E+03 0.  0.
    8880022    1    1    2    0    0 -0.40218423213E+03  0.65257561537E+03  0.70880019781E+03  0.10551760345E+04  0.15294330000E+03 0.  0.
<mgrwt>
<rscale>  0 0.78166409E+03</rscale>
<asrwt>0</asrwt>
<pdfrwt beam="1">  1        2 0.24407821E+00 0.78166409E+03</pdfrwt>
<pdfrwt beam="2">  1       -2 0.15231795E+00 0.78166409E+03</pdfrwt>
<totfact> 0.33403509E+00</totfact>
</mgrwt>
</event>
<event>
 4    1  0.4639964E-008  0.6503662E+03  0.7818608E-02  0.9806092E-01
         -2   -1    0    0    0  501 -0.00000000000E+00  0.00000000000E+00  0.11267768628E+04  0.11267768628E+04  0.25500000000E-02 0.  1.
          2   -1    0    0  501    0  0.00000000000E+00 -0.00000000000E+00 -0.92642600266E+03  0.92642600266E+03  0.25500000000E-02 0. -1.
    8880022    1    1    2    0    0 -0.60483874771E+03 -0.18372431426E+03 -0.69157459698E+03  0.94934272557E+03  0.15294330000E+03 0.  0.
    8880022    1    1    2    0    0  0.60483874771E+03  0.18372431426E+03  0.89192545716E+03  0.11038601399E+04  0.15294330000E+03 0.  0.
<mgrwt>
<rscale>  0 0.65036619E+03</rscale>
<asrwt>0</asrwt>
<pdfrwt beam="1">  1        2 0.14252708E+00 0.65036619E+03</pdfrwt>
<pdfrwt beam="2">  1       -2 0.17335029E+00 0.65036619E+03</pdfrwt>
<totfact> 0.58737354E+00</totfact>
</mgrwt>
</event>
<event>
 4    1  0.4639964E-008  0.5371239E+03  0.7818608E-02  0.1004519E+00
         -2   -1    0    0    0  501 -0.00000000000E+00  0.00000000000E+00  0.16197621438E+04  0.16197621438E+04  0.25500000000E-02 0.  1.
          2   -1    0    0  501    0  0.00000000000E+00 -0.00000000000E+00 -0.22814115564E+03  0.22814115566E+03  0.25500000000E-02 0. -1.
    8880022    1    1    2    0    0  0.11692409249E+03  0.50143707339E+03  0.11284748131E+04  0.12497829567E+04  0.15294330000E+03 0.  0.
    8880022    1    1    2    0    0 -0.11692409249E+03 -0.50143707339E+03  0.26314617501E+03  0.59812034275E+03  0.15294330000E+03 0.  0.
<mgrwt>
<rscale>  0 0.53712385E+03</rscale>
<asrwt>0</asrwt>
<pdfrwt beam="1">  1        2 0.35098639E-01 0.53712385E+03</pdfrwt>
<pdfrwt beam="2">  1       -2 0.24919418E+00 0.53712385E+03</pdfrwt>
<totfact> 0.10207456E+01</totfact>
</mgrwt>
</event>
<event>
 4    1  0.4639964E-008  0.4295506E+03  0.7818608E-02  0.1034002E+00
         -2   -1    0    0    0  501 -0.00000000000E+00  0.00000000000E+00  0.19635189239E+03  0.19635189241E+03  0.25500000000E-02 0.  1.
          2   -1    0    0  501    0  0.00000000000E+00 -0.00000000000E+00 -0.11285744028E+04  0.11285744028E+04  0.25500000000E-02 0. -1.
    8880022    1    1    2    0    0  0.10624597260E+03  0.38708375219E+03 -0.73711327957E+03  0.85314106561E+03  0.15294330000E+03 0.  0.
    8880022    1    1    2    0    0 -0.10624597260E+03 -0.38708375219E+03 -0.19510923087E+03  0.47178522962E+03  0.15294330000E+03 0.  0.
<mgrwt>
<rscale>  0 0.42955057E+03</rscale>
<asrwt>0</asrwt>
<pdfrwt beam="1">  1        2 0.17362683E+00 0.42955057E+03</pdfrwt>
<pdfrwt beam="2">  1       -2 0.30207984E-01 0.42955057E+03</pdfrwt>
<totfact> 0.21948614E+02</totfact>
</mgrwt>
</event>
<event>
 4    1  0.4639964E-008  0.7264004E+03  0.7818608E-02  0.9673120E-01
         -2   -1    0    0    0  501 -0.00000000000E+00  0.00000000000E+00  0.85526599502E+03  0.85526599502E+03  0.25500000000E-02 0.  1.
          2   -1    0    0  501    0  0.00000000000E+00 -0.00000000000E+00 -0.67640112130E+03  0.67640112130E+03  0.25500000000E-02 0. -1.
    8880022    1    1    2    0    0  0.55988990846E+03 -0.43679417699E+03 -0.13761013848E+03  0.73932000235E+03  0.15294330000E+03 0.  0.
    8880022    1    1    2    0    0 -0.55988990846E+03  0.43679417699E+03  0.31647501220E+03  0.79234711397E+03  0.15294330000E+03 0.  0.
<mgrwt>
<rscale>  0 0.72640038E+03</rscale>
<asrwt>0</asrwt>
<pdfrwt beam="1">  1        2 0.10406171E+00 0.72640038E+03</pdfrwt>
<pdfrwt beam="2">  1       -2 0.13157938E+00 0.72640038E+03</pdfrwt>
<totfact> 0.18314193E+01</totfact>
</mgrwt>
</event>
<event>
 4    1  0.4639964E-008  0.3331257E+03  0.7818608E-02  0.1069762E+00
          2   -1    0    0  501    0  0.00000000000E+00  0.00000000000E+00  0.14797328757E+04  0.14797328757E+04  0.25500000000E-02 0. -1.
         -2   -1    0    0    0  501 -0.00000000000E+00 -0.00000000000E+00 -0.63541460433E+03  0.63541460434E+03  0.25500000000E-02 0.  1.
    8880022    1    1    2    0    0 -0.16151256222E+03 -0.24798143321E+03  0.14153636240E+04  0.14540381495E+04  0.15294330000E+03 0.  0.
    8880022    1    1    2    0    0  0.16151256222E+03  0.24798143321E+03 -0.57104535272E+03  0.66110933048E+03  0.15294330000E+03 0.  0.
<mgrwt>
<rscale>  0 0.33312573E+03</rscale>
<asrwt>0</asrwt>
<pdfrwt beam="1">  1        2 0.22765121E+00 0.33312573E+03</pdfrwt>
<pdfrwt beam="2">  1       -2 0.97756094E-01 0.33312573E+03</pdfrwt>
<totfact> 0.12621723E+01</totfact>
</mgrwt>
</event>
<event>
 4    1  0.4639964E-008  0.3055579E+03  0.7818608E-02  0.1082495E+00
         -2   -1    0    0    0  501 -0.00000000000E+00  0.00000000000E+00  0.11176059037E+03  0.11176059040E+03  0.25500000000E-02 0.  1.
          2   -1    0    0  501    0  0.00000000000E+00 -0.00000000000E+00 -0.27476287900E+04  0.27476287900E+04  0.25500000000E-02 0. -1.
    8880022    1    1    2    0    0  0.15646018320E+03  0.21329364316E+03 -0.25106399931E+04  0.25291656322E+04  0.15294330000E+03 0.  0.
    8880022    1    1    2    0    0 -0.15646018320E+03 -0.21329364316E+03 -0.12522820652E+03  0.33022374818E+03  0.15294330000E+03 0.  1.
<mgrwt>
<rscale>  0 0.30555788E+03</rscale>
<asrwt>0</asrwt>
<pdfrwt beam="1">  1        2 0.42271207E+00 0.30555788E+03</pdfrwt>
<pdfrwt beam="2">  1       -2 0.17193939E-01 0.30555788E+03</pdfrwt>
<totfact> 0.78953074E+01</totfact>
</mgrwt>
</event>
<event>
 4    1  0.4639964E-008  0.4357063E+03  0.7818608E-02  0.1032072E+00
          2   -1    0    0  501    0  0.00000000000E+00  0.00000000000E+00  0.11681163828E+04  0.11681163828E+04  0.25500000000E-02 0. -1.
         -2   -1    0    0    0  501 -0.00000000000E+00 -0.00000000000E+00 -0.25080520487E+03  0.25080520488E+03  0.25500000000E-02 0.  1.
    8880022    1    1    2    0    0 -0.40641164172E+03 -0.35747439922E+02  0.87958471398E+03  0.98158505697E+03  0.15294330000E+03 0.  0.
    8880022    1    1    2    0    0  0.40641164172E+03  0.35747439922E+02  0.37726463940E+02  0.43733653070E+03  0.15294330000E+03 0.  0.
<mgrwt>
<rscale>  0 0.43570627E+03</rscale>
<asrwt>0</asrwt>
<pdfrwt beam="1">  1        2 0.17971022E+00 0.43570627E+03</pdfrwt>
<pdfrwt beam="2">  1       -2 0.38585415E-01 0.43570627E+03</pdfrwt>
<totfact> 0.13120932E+02</totfact>
</mgrwt>
</event>
<event>
 4    1  0.4639964E-008  0.1422672E+04  0.7818608E-02  0.8937569E-01
         -2   -1    0    0    0  501 -0.00000000000E+00  0.00000000000E+00  0.94604978831E+03  0.94604978831E+03  0.25500000000E-02 0.  1.
          2   -1    0    0  501    0  0.00000000000E+00 -0.00000000000E+00 -0.22424177935E+04  0.22424177935E+04  0.25500000000E-02 0. -1.
    8880022    1    1    2    0    0  0.99849019987E+03 -0.10018090031E+04 -0.30650942330E+03  0.14553156487E+04  0.15294330000E+03 0.  0.
    8880022    1    1    2    0    0 -0.99849019987E+03  0.10018090031E+04 -0.98985858186E+03  0.17331519330E+04  0.15294330000E+03 0.  0.
<mgrwt>
<rscale>  0 0.14226720E+04</rscale>
<asrwt>0</asrwt>
<pdfrwt beam="1">  1        2 0.34498735E+00 0.14226720E+04</pdfrwt>
<pdfrwt beam="2">  1       -2 0.14554612E+00 0.14226720E+04</pdfrwt>
<totfact> 0.15097769E+00</totfact>
</mgrwt>
</event>
<event>
 4    1  0.4639964E-008  0.6446150E+03  0.7818608E-02  0.9816936E-01
          2   -1    0    0  501    0  0.00000000000E+00  0.00000000000E+00  0.20501728391E+04  0.20501728391E+04  0.25500000000E-02 0. -1.
         -2   -1    0    0    0  501 -0.00000000000E+00 -0.00000000000E+00 -0.64786547350E+03  0.64786547350E+03  0.25500000000E-02 0.  1.
    8880022    1    1    2    0    0  0.33058026257E+03 -0.53183980157E+03  0.18194227416E+04  0.19302403090E+04  0.15294330000E+03 0.  0.
    8880022    1    1    2    0    0 -0.33058026257E+03  0.53183980157E+03 -0.41711537600E+03  0.76779800367E+03  0.15294330000E+03 0.  0.
<mgrwt>
<rscale>  0 0.64461503E+03</rscale>
<asrwt>0</asrwt>
<pdfrwt beam="1">  1        2 0.31541120E+00 0.64461503E+03</pdfrwt>
<pdfrwt beam="2">  1       -2 0.99671612E-01 0.64461503E+03</pdfrwt>
<totfact> 0.55124502E+00</totfact>
</mgrwt>
</event>
<event>
 4    1  0.4639964E-008  0.3242295E+03  0.7818608E-02  0.1073719E+00
         -2   -1    0    0    0  501 -0.00000000000E+00  0.00000000000E+00  0.69945026637E+03  0.69945026637E+03  0.25500000000E-02 0.  1.
          2   -1    0    0  501    0  0.00000000000E+00 -0.00000000000E+00 -0.23702948761E+03  0.23702948762E+03  0.25500000000E-02 0. -1.
    8880022    1    1    2    0    0 -0.20440678671E+03 -0.19987746441E+03  0.51445382783E+03  0.60810157804E+03  0.15294330000E+03 0.  0.
    8880022    1    1    2    0    0  0.20440678671E+03  0.19987746441E+03 -0.52033049070E+02  0.32837817595E+03  0.15294330000E+03 0.  0.
<mgrwt>
<rscale>  0 0.32422953E+03</rscale>
<asrwt>0</asrwt>
<pdfrwt beam="1">  1        2 0.36466075E-01 0.32422953E+03</pdfrwt>
<pdfrwt beam="2">  1       -2 0.10760773E+00 0.32422953E+03</pdfrwt>
<totfact> 0.10232632E+02</totfact>
</mgrwt>
</event>
<event>
 4    1  0.4639964E-008  0.4136067E+03  0.7818608E-02  0.1039167E+00
          2   -1    0    0  501    0  0.00000000000E+00  0.00000000000E+00  0.10633868585E+04  0.10633868585E+04  0.25500000000E-02 0. -1.
         -2   -1    0    0    0  501 -0.00000000000E+00 -0.00000000000E+00 -0.55731762292E+03  0.55731762293E+03  0.25500000000E-02 0.  1.
    8880022    1    1    2    0    0 -0.22139621468E+03 -0.31410603110E+03 -0.43042610235E+03  0.59693983386E+03  0.15294330000E+03 0.  0.
    8880022    1    1    2    0    0  0.22139621468E+03  0.31410603110E+03  0.93649533792E+03  0.10237646476E+04  0.15294330000E+03 0.  0.
<mgrwt>
<rscale>  0 0.41360674E+03</rscale>
<asrwt>0</asrwt>
<pdfrwt beam="1">  1        2 0.16359798E+00 0.41360674E+03</pdfrwt>
<pdfrwt beam="2">  1       -2 0.85741173E-01 0.41360674E+03</pdfrwt>
<totfact> 0.28853348E+01</totfact>
</mgrwt>
</event>
<event>
 4    1  0.4639964E-008  0.3908672E+03  0.7818608E-02  0.1046989E+00
          2   -1    0    0  501    0  0.00000000000E+00  0.00000000000E+00  0.64574758455E+03  0.64574758456E+03  0.25500000000E-02 0. -1.
         -2   -1    0    0    0  501 -0.00000000000E+00 -0.00000000000E+00 -0.32218287055E+03  0.32218287056E+03  0.25500000000E-02 0.  1.
    8880022    1    1    2    0    0 -0.21794099805E+03  0.28615941550E+03  0.41123196457E+03  0.56735251071E+03  0.15294330000E+03 0. -1.
    8880022    1    1    2    0    0  0.21794099805E+03 -0.28615941550E+03 -0.87667250569E+02  0.40057794441E+03  0.15294330000E+03 0.  0.
<mgrwt>
<rscale>  0 0.39086717E+03</rscale>
<asrwt>0</asrwt>
<pdfrwt beam="1">  1        2 0.99345781E-01 0.39086717E+03</pdfrwt>
<pdfrwt beam="2">  1       -2 0.49566596E-01 0.39086717E+03</pdfrwt>
<totfact> 0.18043628E+02</totfact>
</mgrwt>
</event>
<event>
 4    1  0.4639964E-008  0.5930821E+03  0.7818608E-02  0.9919863E-01
         -2   -1    0    0    0  501 -0.00000000000E+00  0.00000000000E+00  0.10512032797E+04  0.10512032797E+04  0.25500000000E-02 0.  1.
          2   -1    0    0  501    0  0.00000000000E+00 -0.00000000000E+00 -0.12074482146E+04  0.12074482146E+04  0.25500000000E-02 0. -1.
    8880022    1    1    2    0    0 -0.51276827464E+03  0.25578002885E+03 -0.10382989832E+04  0.11957471129E+04  0.15294330000E+03 0.  0.
    8880022    1    1    2    0    0  0.51276827464E+03 -0.25578002885E+03  0.88205404837E+03  0.10629043814E+04  0.15294330000E+03 0.  0.
<mgrwt>
<rscale>  0 0.59308210E+03</rscale>
<asrwt>0</asrwt>
<pdfrwt beam="1">  1        2 0.18576126E+00 0.59308210E+03</pdfrwt>
<pdfrwt beam="2">  1       -2 0.16172358E+00 0.59308210E+03</pdfrwt>
<totfact> 0.48098346E+00</totfact>
</mgrwt>
</event>
<event>
 4    1  0.4639964E-008  0.4007470E+03  0.7818608E-02  0.1043521E+00
         -2   -1    0    0    0  501 -0.00000000000E+00  0.00000000000E+00  0.28060046675E+03  0.28060046676E+03  0.25500000000E-02 0.  1.
          2   -1    0    0  501    0  0.00000000000E+00 -0.00000000000E+00 -0.17587339879E+04  0.17587339879E+04  0.25500000000E-02 0. -1.
    8880022    1    1    2    0    0 -0.25487551424E+03 -0.26878424244E+03 -0.15765445962E+04  0.16266809809E+04  0.15294330000E+03 0.  0.
    8880022    1    1    2    0    0  0.25487551424E+03  0.26878424244E+03  0.98411075017E+02  0.41265347381E+03  0.15294330000E+03 0.  0.
<mgrwt>
<rscale>  0 0.40074699E+03</rscale>
<asrwt>0</asrwt>
<pdfrwt beam="1">  1        2 0.27057445E+00 0.40074699E+03</pdfrwt>
<pdfrwt beam="2">  1       -2 0.43169304E-01 0.40074699E+03</pdfrwt>
<totfact> 0.50110493E+01</totfact>
</mgrwt>
</event>
<event>
 4    1  0.4639964E-008  0.3664549E+03  0.7818608E-02  0.1056057E+00
         -2   -1    0    0    0  501 -0.00000000000E+00  0.00000000000E+00  0.17754554094E+03  0.17754554095E+03  0.25500000000E-02 0.  1.
          2   -1    0    0  501    0  0.00000000000E+00 -0.00000000000E+00 -0.96448283438E+03  0.96448283438E+03  0.25500000000E-02 0. -1.
    8880022    1    1    2    0    0 -0.15027147151E+03 -0.29718017712E+03 -0.65871800346E+03  0.75378951566E+03  0.15294330000E+03 0.  0.
    8880022    1    1    2    0    0  0.15027147151E+03  0.29718017712E+03 -0.12821928999E+03  0.38823885968E+03  0.15294330000E+03 0.  0.
<mgrwt>
<rscale>  0 0.36645494E+03</rscale>
<asrwt>0</asrwt>
<pdfrwt beam="1">  1        2 0.14838197E+00 0.36645494E+03</pdfrwt>
<pdfrwt beam="2">  1       -2 0.27314699E-01 0.36645494E+03</pdfrwt>
<totfact> 0.33435832E+02</totfact>
</mgrwt>
</event>
<event>
 4    1  0.4639964E-008  0.6098625E+03  0.7818608E-02  0.9885153E-01
          2   -1    0    0  501    0  0.00000000000E+00  0.00000000000E+00  0.27504850356E+03  0.27504850357E+03  0.25500000000E-02 0. -1.
         -2   -1    0    0    0  501 -0.00000000000E+00 -0.00000000000E+00 -0.13619772226E+04  0.13619772226E+04  0.25500000000E-02 0.  1.
    8880022    1    1    2    0    0  0.25627379509E+03 -0.53184993000E+03 -0.61266398650E+03  0.86445903284E+03  0.15294330000E+03 0.  0.
    8880022    1    1    2    0    0 -0.25627379509E+03  0.53184993000E+03 -0.47426473251E+03  0.77256669331E+03  0.15294330000E+03 0.  1.
<mgrwt>
<rscale>  0 0.60986249E+03</rscale>
<asrwt>0</asrwt>
<pdfrwt beam="1">  1        2 0.42315155E-01 0.60986249E+03</pdfrwt>
<pdfrwt beam="2">  1       -2 0.20953495E+00 0.60986249E+03</pdfrwt>
<totfact> 0.14411084E+01</totfact>
</mgrwt>
</event>
<event>
 4    1  0.4639964E-008  0.3009600E+03  0.7818608E-02  0.1084762E+00
          2   -1    0    0  501    0  0.00000000000E+00  0.00000000000E+00  0.10096790173E+04  0.10096790173E+04  0.25500000000E-02 0. -1.
         -2   -1    0    0    0  501 -0.00000000000E+00 -0.00000000000E+00 -0.38740790348E+03  0.38740790349E+03  0.25500000000E-02 0.  1.
    8880022    1    1    2    0    0 -0.14216552985E+03  0.21673538643E+03  0.92348324479E+03  0.97128688966E+03  0.15294330000E+03 0.  0.
    8880022    1    1    2    0    0  0.14216552985E+03 -0.21673538643E+03 -0.30121213100E+03  0.42580003110E+03  0.15294330000E+03 0.  1.
<mgrwt>
<rscale>  0 0.30096000E+03</rscale>
<asrwt>0</asrwt>
<pdfrwt beam="1">  1        2 0.15533523E+00 0.30096000E+03</pdfrwt>
<pdfrwt beam="2">  1       -2 0.59601217E-01 0.30096000E+03</pdfrwt>
<totfact> 0.69987766E+01</totfact>
</mgrwt>
</event>
<event>
 4    1  0.4639964E-008  0.1963962E+03  0.7818608E-02  0.1152816E+00
          2   -1    0    0  501    0  0.00000000000E+00  0.00000000000E+00  0.77241790543E+03  0.77241790543E+03  0.25500000000E-02 0. -1.
         -2   -1    0    0    0  501 -0.00000000000E+00 -0.00000000000E+00 -0.92128896825E+02  0.92128896860E+02  0.25500000000E-02 0.  1.
    8880022    1    1    2    0    0  0.12250002031E+03 -0.13173822291E+02  0.47607864093E+02  0.20208405753E+03  0.15294330000E+03 0.  1.
    8880022    1    1    2    0    0 -0.12250002031E+03  0.13173822291E+02  0.63268114451E+03  0.66246274477E+03  0.15294330000E+03 0.  0.
<mgrwt>
<rscale>  0 0.19639618E+03</rscale>
<asrwt>0</asrwt>
<pdfrwt beam="1">  1        2 0.11883352E+00 0.19639618E+03</pdfrwt>
<pdfrwt beam="2">  1       -2 0.14173677E-01 0.19639618E+03</pdfrwt>
<totfact> 0.13935476E+03</totfact>
</mgrwt>
</event>
<event>
 4    1  0.4639964E-008  0.1133102E+04  0.7818608E-02  0.9173516E-01
         -2   -1    0    0    0  501 -0.00000000000E+00  0.00000000000E+00  0.59292391139E+03  0.59292391139E+03  0.25500000000E-02 0.  1.
          2   -1    0    0  501    0  0.00000000000E+00 -0.00000000000E+00 -0.25018922872E+04  0.25018922872E+04  0.25500000000E-02 0. -1.
    8880022    1    1    2    0    0 -0.10970519280E+04  0.23875621514E+03 -0.15219716777E+04  0.18974501057E+04  0.15294330000E+03 0.  0.
    8880022    1    1    2    0    0  0.10970519280E+04 -0.23875621514E+03 -0.38699669805E+03  0.11973660928E+04  0.15294330000E+03 0.  0.
<mgrwt>
<rscale>  0 0.11331015E+04</rscale>
<asrwt>0</asrwt>
<pdfrwt beam="1">  1        2 0.38490650E+00 0.11331015E+04</pdfrwt>
<pdfrwt beam="2">  1       -2 0.91219065E-01 0.11331015E+04</pdfrwt>
<totfact> 0.35299263E+00</totfact>
</mgrwt>
</event>
<event>
 4    1  0.4639964E-008  0.3950794E+03  0.7818608E-02  0.1045497E+00
          2   -1    0    0  501    0  0.00000000000E+00  0.00000000000E+00  0.30582769498E+04  0.30582769498E+04  0.25500000000E-02 0. -1.
         -2   -1    0    0    0  501 -0.00000000000E+00 -0.00000000000E+00 -0.75026516139E+02  0.75026516183E+02  0.25500000000E-02 0.  1.
    8880022    1    1    2    0    0  0.29072857016E+03  0.21948345664E+03  0.60575820047E+03  0.72320864188E+03  0.15294330000E+03 0.  1.
    8880022    1    1    2    0    0 -0.29072857016E+03 -0.21948345664E+03  0.23774922332E+04  0.24100948241E+04  0.15294330000E+03 0.  0.
<mgrwt>
<rscale>  0 0.39507941E+03</rscale>
<asrwt>0</asrwt>
<pdfrwt beam="1">  1        2 0.47050418E+00 0.39507941E+03</pdfrwt>
<pdfrwt beam="2">  1       -2 0.11542540E-01 0.39507941E+03</pdfrwt>
<totfact> 0.97828225E+01</totfact>
</mgrwt>
</event>
<event>
 4    1  0.4639964E-008  0.3295617E+03  0.7818608E-02  0.1071331E+00
          2   -1    0    0  501    0  0.00000000000E+00  0.00000000000E+00  0.48088267159E+03  0.48088267160E+03  0.25500000000E-02 0. -1.
         -2   -1    0    0    0  501 -0.00000000000E+00 -0.00000000000E+00 -0.31493987318E+03  0.31493987319E+03  0.25500000000E-02 0.  1.
    8880022    1    1    2    0    0  0.28224360330E+03  0.74550766963E+02  0.29459714059E+03  0.44203890860E+03  0.15294330000E+03 0.  0.
    8880022    1    1    2    0    0 -0.28224360330E+03 -0.74550766963E+02 -0.12865434217E+03  0.35378363619E+03  0.15294330000E+03 0.  0.
<mgrwt>
<rscale>  0 0.32956171E+03</rscale>
<asrwt>0</asrwt>
<pdfrwt beam="1">  1        2 0.73981950E-01 0.32956171E+03</pdfrwt>
<pdfrwt beam="2">  1       -2 0.48452288E-01 0.32956171E+03</pdfrwt>
<totfact> 0.26719984E+02</totfact>
</mgrwt>
</event>
<event>
 4    1  0.4639964E-008  0.5384599E+03  0.7818608E-02  0.1004201E+00
         -2   -1    0    0    0  501 -0.00000000000E+00  0.00000000000E+00  0.31627128320E+03  0.31627128321E+03  0.25500000000E-02 0.  1.
          2   -1    0    0  501    0  0.00000000000E+00 -0.00000000000E+00 -0.19934031295E+04  0.19934031295E+04  0.25500000000E-02 0. -1.
    8880022    1    1    2    0    0  0.32924639111E+02  0.51523142857E+03  0.10150789331E+02  0.53855561309E+03  0.15294330000E+03 0.  0.
    8880022    1    1    2    0    0 -0.32924639111E+02 -0.51523142857E+03 -0.16872826356E+04  0.17711187996E+04  0.15294330000E+03 0.  0.
<mgrwt>
<rscale>  0 0.53845994E+03</rscale>
<asrwt>0</asrwt>
<pdfrwt beam="1">  1        2 0.30667740E+00 0.53845994E+03</pdfrwt>
<pdfrwt beam="2">  1       -2 0.48657122E-01 0.53845994E+03</pdfrwt>
<totfact> 0.28766458E+01</totfact>
</mgrwt>
</event>
<event>
 4    1  0.4639964E-008  0.5782445E+03  0.7818608E-02  0.9951599E-01
          2   -1    0    0  501    0  0.00000000000E+00  0.00000000000E+00  0.35653010466E+03  0.35653010467E+03  0.25500000000E-02 0. -1.
         -2   -1    0    0    0  501 -0.00000000000E+00 -0.00000000000E+00 -0.15012424023E+04  0.15012424023E+04  0.25500000000E-02 0.  1.
    8880022    1    1    2    0    0 -0.32034586508E+03  0.45645768878E+03 -0.33092847297E+01  0.57825400932E+03  0.15294330000E+03 0.  0.
    8880022    1    1    2    0    0  0.32034586508E+03 -0.45645768878E+03 -0.11414030129E+04  0.12795184976E+04  0.15294330000E+03 0.  0.
<mgrwt>
<rscale>  0 0.57824454E+03</rscale>
<asrwt>0</asrwt>
<pdfrwt beam="1">  1        2 0.54850786E-01 0.57824454E+03</pdfrwt>
<pdfrwt beam="2">  1       -2 0.23096037E+00 0.57824454E+03</pdfrwt>
<totfact> 0.79853207E+00</totfact>
</mgrwt>
</event>
<event>
 4    1  0.4639964E-008  0.1037862E+04  0.7818608E-02  0.9267966E-01
          2   -1    0    0  501    0  0.00000000000E+00  0.00000000000E+00  0.20299746813E+04  0.20299746814E+04  0.25500000000E-02 0. -1.
         -2   -1    0    0    0  501 -0.00000000000E+00 -0.00000000000E+00 -0.14484364354E+04  0.14484364354E+04  0.25500000000E-02 0.  1.
    8880022    1    1    2    0    0  0.73814617051E+03 -0.71337678007E+03 -0.10936820091E+04  0.15077460626E+04  0.15294330000E+03 0.  0.
    8880022    1    1    2    0    0 -0.73814617051E+03  0.71337678007E+03  0.16752202551E+04  0.19706650541E+04  0.15294330000E+03 0.  0.
<mgrwt>
<rscale>  0 0.10378622E+04</rscale>
<asrwt>0</asrwt>
<pdfrwt beam="1">  1        2 0.31230380E+00 0.10378622E+04</pdfrwt>
<pdfrwt beam="2">  1       -2 0.22283637E+00 0.10378622E+04</pdfrwt>
<totfact> 0.60650140E-01</totfact>
</mgrwt>
</event>
<event>
 4    1  0.4639964E-008  0.7105587E+03  0.7818608E-02  0.9699344E-01
         -2   -1    0    0    0  501 -0.00000000000E+00  0.00000000000E+00  0.59941066917E+03  0.59941066918E+03  0.25500000000E-02 0.  1.
          2   -1    0    0  501    0  0.00000000000E+00 -0.00000000000E+00 -0.15545176610E+04  0.15545176610E+04  0.25500000000E-02 0. -1.
    8880022    1    1    2    0    0  0.55157316675E+02  0.69170778300E+03  0.25140816677E+03  0.75372389240E+03  0.15294330000E+03 0.  0.
    8880022    1    1    2    0    0 -0.55157316675E+02 -0.69170778300E+03 -0.12065151586E+04  0.14002044378E+04  0.15294330000E+03 0.  0.
<mgrwt>
<rscale>  0 0.71055868E+03</rscale>
<asrwt>0</asrwt>
<pdfrwt beam="1">  1        2 0.23915656E+00 0.71055868E+03</pdfrwt>
<pdfrwt beam="2">  1       -2 0.92217026E-01 0.71055868E+03</pdfrwt>
<totfact> 0.12180781E+01</totfact>
</mgrwt>
</event>
<event>
 4    1  0.4639964E-008  0.6813439E+03  0.7818608E-02  0.9749679E-01
         -2   -1    0    0    0  501 -0.00000000000E+00  0.00000000000E+00  0.33673825591E+03  0.33673825592E+03  0.25500000000E-02 0.  1.
          2   -1    0    0  501    0  0.00000000000E+00 -0.00000000000E+00 -0.47304305373E+04  0.47304305373E+04  0.25500000000E-02 0. -1.
    8880022    1    1    2    0    0 -0.97492097808E+02  0.65675955998E+03 -0.64166321899E+02  0.68435867690E+03  0.15294330000E+03 0.  0.
    8880022    1    1    2    0    0  0.97492097808E+02 -0.65675955998E+03 -0.43295259595E+04  0.43828101164E+04  0.15294330000E+03 0.  0.
<mgrwt>
<rscale>  0 0.68134388E+03</rscale>
<asrwt>0</asrwt>
<pdfrwt beam="1">  1        2 0.72775849E+00 0.68134388E+03</pdfrwt>
<pdfrwt beam="2">  1       -2 0.51805889E-01 0.68134388E+03</pdfrwt>
<totfact> 0.29648345E-01</totfact>
</mgrwt>
</event>
<event>
 4    1  0.4639964E-008  0.1065438E+04  0.7818608E-02  0.9239549E-01
         -2   -1    0    0    0  501 -0.00000000000E+00  0.00000000000E+00  0.53792666508E+03  0.53792666509E+03  0.25500000000E-02 0.  1.
          2   -1    0    0  501    0  0.00000000000E+00 -0.00000000000E+00 -0.27491219174E+04  0.27491219174E+04  0.25500000000E-02 0. -1.
    8880022    1    1    2    0    0 -0.81763634835E+03  0.66575989902E+03 -0.18978940603E+04  0.21765015411E+04  0.15294330000E+03 0.  0.
    8880022    1    1    2    0    0  0.81763634835E+03 -0.66575989902E+03 -0.31330119208E+03  0.11105470414E+04  0.15294330000E+03 0.  0.
<mgrwt>
<rscale>  0 0.10654375E+04</rscale>
<asrwt>0</asrwt>
<pdfrwt beam="1">  1        2 0.42294183E+00 0.10654375E+04</pdfrwt>
<pdfrwt beam="2">  1       -2 0.82757950E-01 0.10654375E+04</pdfrwt>
<totfact> 0.31964591E+00</totfact>
</mgrwt>
</event>
<event>
 4    1  0.4639964E-008  0.4725869E+03  0.7818608E-02  0.1021193E+00
         -2   -1    0    0    0  501 -0.00000000000E+00  0.00000000000E+00  0.11978443799E+04  0.11978443799E+04  0.25500000000E-02 0.  1.
          2   -1    0    0  501    0  0.00000000000E+00 -0.00000000000E+00 -0.25467521820E+03  0.25467521821E+03  0.25500000000E-02 0. -1.
    8880022    1    1    2    0    0 -0.35548563794E+03 -0.27125015486E+03  0.84748296115E+03  0.97034308765E+03  0.15294330000E+03 0.  0.
    8880022    1    1    2    0    0  0.35548563794E+03  0.27125015486E+03  0.95686200591E+02  0.48217651051E+03  0.15294330000E+03 0.  0.
<mgrwt>
<rscale>  0 0.47258686E+03</rscale>
<asrwt>0</asrwt>
<pdfrwt beam="1">  1        2 0.39180804E-01 0.47258686E+03</pdfrwt>
<pdfrwt beam="2">  1       -2 0.18428375E+00 0.47258686E+03</pdfrwt>
<totfact> 0.23273389E+01</totfact>
</mgrwt>
</event>
<event>
 4    1  0.4639964E-008  0.5565233E+03  0.7818608E-02  0.9999952E-01
          2   -1    0    0  501    0  0.00000000000E+00  0.00000000000E+00  0.20853426521E+04  0.20853426521E+04  0.25500000000E-02 0. -1.
         -2   -1    0    0    0  501 -0.00000000000E+00 -0.00000000000E+00 -0.16680556810E+03  0.16680556812E+03  0.25500000000E-02 0.  1.
    8880022    1    1    2    0    0 -0.10657547319E+03  0.52437414053E+03  0.13320875858E+04  0.14436673993E+04  0.15294330000E+03 0.  0.
    8880022    1    1    2    0    0  0.10657547319E+03 -0.52437414053E+03  0.58644949825E+03  0.80848082090E+03  0.15294330000E+03 0.  0.
<mgrwt>
<rscale>  0 0.55652334E+03</rscale>
<asrwt>0</asrwt>
<pdfrwt beam="1">  1        2 0.32082194E+00 0.55652334E+03</pdfrwt>
<pdfrwt beam="2">  1       -2 0.25662396E-01 0.55652334E+03</pdfrwt>
<totfact> 0.86327336E+01</totfact>
</mgrwt>
</event>
<event>
 4    1  0.4639964E-008  0.4369607E+03  0.7818608E-02  0.1031683E+00
          2   -1    0    0  501    0  0.00000000000E+00  0.00000000000E+00  0.25964509605E+04  0.25964509605E+04  0.25500000000E-02 0. -1.
         -2   -1    0    0    0  501 -0.00000000000E+00 -0.00000000000E+00 -0.21389731870E+03  0.21389731871E+03  0.25500000000E-02 0.  1.
    8880022    1    1    2    0    0 -0.35035609673E+03 -0.21164494930E+03  0.23295591610E+04  0.23701857558E+04  0.15294330000E+03 0.  0.
    8880022    1    1    2    0    0  0.35035609673E+03  0.21164494930E+03  0.52994480821E+02  0.44016252350E+03  0.15294330000E+03 0.  0.
<mgrwt>
<rscale>  0 0.43696068E+03</rscale>
<asrwt>0</asrwt>
<pdfrwt beam="1">  1        2 0.39945398E+00 0.43696068E+03</pdfrwt>
<pdfrwt beam="2">  1       -2 0.32907281E-01 0.43696068E+03</pdfrwt>
<totfact> 0.29294110E+01</totfact>
</mgrwt>
</event>
<event>
 4    1  0.4639964E-008  0.3112729E+03  0.7818608E-02  0.1079737E+00
          2   -1    0    0  501    0  0.00000000000E+00  0.00000000000E+00  0.22093577215E+04  0.22093577215E+04  0.25500000000E-02 0. -1.
         -2   -1    0    0    0  501 -0.00000000000E+00 -0.00000000000E+00 -0.24699579884E+03  0.24699579885E+03  0.25500000000E-02 0.  1.
    8880022    1    1    2    0    0 -0.82629760904E+01  0.27098136510E+03 -0.13263884804E+03  0.33835468672E+03  0.15294330000E+03 0.  1.
    8880022    1    1    2    0    0  0.82629760904E+01 -0.27098136510E+03  0.20950007707E+04  0.21179988337E+04  0.15294330000E+03 0.  0.
<mgrwt>
<rscale>  0 0.31127292E+03</rscale>
<asrwt>0</asrwt>
<pdfrwt beam="1">  1        2 0.33990119E+00 0.31127292E+03</pdfrwt>
<pdfrwt beam="2">  1       -2 0.37999354E-01 0.31127292E+03</pdfrwt>
<totfact> 0.37786360E+01</totfact>
</mgrwt>
</event>
<event>
 4    1  0.4639964E-008  0.3425334E+03  0.7818608E-02  0.1065722E+00
          2   -1    0    0  501    0  0.00000000000E+00  0.00000000000E+00  0.28222332201E+04  0.28222332201E+04  0.25500000000E-02 0. -1.
         -2   -1    0    0    0  501 -0.00000000000E+00 -0.00000000000E+00 -0.85617146493E+02  0.85617146531E+02  0.25500000000E-02 0.  1.
    8880022    1    1    2    0    0 -0.26736787451E+03 -0.14983957152E+03  0.24111176700E+04  0.24353269902E+04  0.15294330000E+03 0.  0.
    8880022    1    1    2    0    0  0.26736787451E+03  0.14983957152E+03  0.32549840358E+03  0.47252337642E+03  0.15294330000E+03 0.  0.
<mgrwt>
<rscale>  0 0.34253340E+03</rscale>
<asrwt>0</asrwt>
<pdfrwt beam="1">  1        2 0.43418973E+00 0.34253340E+03</pdfrwt>
<pdfrwt beam="2">  1       -2 0.13171869E-01 0.34253340E+03</pdfrwt>
<totfact> 0.11027598E+02</totfact>
</mgrwt>
</event>
<event>
 4    1  0.4639964E-008  0.7745496E+03  0.7818608E-02  0.9597604E-01
         -2   -1    0    0    0  501 -0.00000000000E+00  0.00000000000E+00  0.39024506189E+03  0.39024506190E+03  0.25500000000E-02 0.  1.
          2   -1    0    0  501    0  0.00000000000E+00 -0.00000000000E+00 -0.21981063549E+04  0.21981063549E+04  0.25500000000E-02 0. -1.
    8880022    1    1    2    0    0 -0.75235905894E+03 -0.10242699188E+03 -0.19434770288E+03  0.79856003210E+03  0.15294330000E+03 0.  0.
    8880022    1    1    2    0    0  0.75235905894E+03  0.10242699188E+03 -0.16135135901E+04  0.17897913847E+04  0.15294330000E+03 0.  0.
<mgrwt>
<rscale>  0 0.77454961E+03</rscale>
<asrwt>0</asrwt>
<pdfrwt beam="1">  1        2 0.33817020E+00 0.77454961E+03</pdfrwt>
<pdfrwt beam="2">  1       -2 0.60037703E-01 0.77454961E+03</pdfrwt>
<totfact> 0.13869532E+01</totfact>
</mgrwt>
</event>
<event>
 4    1  0.4639964E-008  0.5648260E+03  0.7818608E-02  0.9981194E-01
         -2   -1    0    0    0  501 -0.00000000000E+00  0.00000000000E+00  0.30434689473E+03  0.30434689474E+03  0.25500000000E-02 0.  1.
          2   -1    0    0  501    0  0.00000000000E+00 -0.00000000000E+00 -0.21450697024E+04  0.21450697024E+04  0.25500000000E-02 0. -1.
    8880022    1    1    2    0    0 -0.46802071629E+02  0.54170689269E+03 -0.44608367950E+02  0.56658481360E+03  0.15294330000E+03 0.  0.
    8880022    1    1    2    0    0  0.46802071629E+02 -0.54170689269E+03 -0.17961144397E+04  0.18828317835E+04  0.15294330000E+03 0.  0.
<mgrwt>
<rscale>  0 0.56482603E+03</rscale>
<asrwt>0</asrwt>
<pdfrwt beam="1">  1        2 0.33001071E+00 0.56482603E+03</pdfrwt>
<pdfrwt beam="2">  1       -2 0.46822601E-01 0.56482603E+03</pdfrwt>
<totfact> 0.25591555E+01</totfact>
</mgrwt>
</event>
<event>
 4    1  0.4639964E-008  0.1847028E+03  0.7818608E-02  0.1163328E+00
          2   -1    0    0  501    0  0.00000000000E+00  0.00000000000E+00  0.68922034125E+03  0.68922034125E+03  0.25500000000E-02 0. -1.
         -2   -1    0    0    0  501 -0.00000000000E+00 -0.00000000000E+00 -0.16507144997E+04  0.16507144997E+04  0.25500000000E-02 0.  1.
    8880022    1    1    2    0    0  0.15833247100E+01  0.10354203552E+03  0.67154558467E+03  0.69648301152E+03  0.15294330000E+03 0.  0.
    8880022    1    1    2    0    0 -0.15833247100E+01 -0.10354203552E+03 -0.16330397431E+04  0.16434518294E+04  0.15294330000E+03 0.  1.
<mgrwt>
<rscale>  0 0.18470277E+03</rscale>
<asrwt>0</asrwt>
<pdfrwt beam="1">  1        2 0.10603390E+00 0.18470277E+03</pdfrwt>
<pdfrwt beam="2">  1       -2 0.25395608E+00 0.18470277E+03</pdfrwt>
<totfact> 0.30834673E+00</totfact>
</mgrwt>
</event>
<event>
 4    1  0.4639964E-008  0.3734364E+03  0.7818608E-02  0.1053387E+00
          2   -1    0    0  501    0  0.00000000000E+00  0.00000000000E+00  0.17460652540E+04  0.17460652540E+04  0.25500000000E-02 0. -1.
         -2   -1    0    0    0  501 -0.00000000000E+00 -0.00000000000E+00 -0.50550799003E+03  0.50550799004E+03  0.25500000000E-02 0.  1.
    8880022    1    1    2    0    0  0.37556513328E+02 -0.33860385579E+03  0.16533094800E+04  0.16949592776E+04  0.15294330000E+03 0. -1.
    8880022    1    1    2    0    0 -0.37556513328E+02  0.33860385579E+03 -0.41275221603E+03  0.55661396650E+03  0.15294330000E+03 0.  0.
<mgrwt>
<rscale>  0 0.37343636E+03</rscale>
<asrwt>0</asrwt>
<pdfrwt beam="1">  1        2 0.26862542E+00 0.37343636E+03</pdfrwt>
<pdfrwt beam="2">  1       -2 0.77770460E-01 0.37343636E+03</pdfrwt>
<totfact> 0.15072293E+01</totfact>
</mgrwt>
</event>
<event>
 4    1  0.4639964E-008  0.2593959E+03  0.7818608E-02  0.1107507E+00
          2   -1    0    0  501    0  0.00000000000E+00  0.00000000000E+00  0.45889667039E+03  0.45889667040E+03  0.25500000000E-02 0. -1.
         -2   -1    0    0    0  501 -0.00000000000E+00 -0.00000000000E+00 -0.42241421514E+03  0.42241421515E+03  0.25500000000E-02 0.  1.
    8880022    1    1    2    0    0  0.36194277453E+02 -0.20636030564E+03 -0.33781419645E+03  0.42591628967E+03  0.15294330000E+03 0.  0.
    8880022    1    1    2    0    0 -0.36194277453E+02  0.20636030564E+03  0.37429665170E+03  0.45539459588E+03  0.15294330000E+03 0.  0.
<mgrwt>
<rscale>  0 0.25939594E+03</rscale>
<asrwt>0</asrwt>
<pdfrwt beam="1">  1        2 0.70599487E-01 0.25939594E+03</pdfrwt>
<pdfrwt beam="2">  1       -2 0.64986803E-01 0.25939594E+03</pdfrwt>
<totfact> 0.15494784E+02</totfact>
</mgrwt>
</event>
<event>
 4    1  0.4639964E-008  0.6789672E+03  0.7818608E-02  0.9753893E-01
          2   -1    0    0  501    0  0.00000000000E+00  0.00000000000E+00  0.11043599882E+04  0.11043599882E+04  0.25500000000E-02 0. -1.
         -2   -1    0    0    0  501 -0.00000000000E+00 -0.00000000000E+00 -0.90277989784E+03  0.90277989785E+03  0.25500000000E-02 0.  1.
    8880022    1    1    2    0    0  0.58297051422E+03 -0.31265020624E+03 -0.63504892647E+03  0.92966852368E+03  0.15294330000E+03 0.  0.
    8880022    1    1    2    0    0 -0.58297051422E+03  0.31265020624E+03  0.83662901680E+03  0.10774713623E+04  0.15294330000E+03 0.  0.
<mgrwt>
<rscale>  0 0.67896718E+03</rscale>
<asrwt>0</asrwt>
<pdfrwt beam="1">  1        2 0.16990154E+00 0.67896718E+03</pdfrwt>
<pdfrwt beam="2">  1       -2 0.13888921E+00 0.67896718E+03</pdfrwt>
<totfact> 0.81687014E+00</totfact>
</mgrwt>
</event>
<event>
 4    1  0.4639964E-008  0.1870087E+03  0.7818608E-02  0.1161187E+00
         -2   -1    0    0    0  501 -0.00000000000E+00  0.00000000000E+00  0.65662216205E+03  0.65662216206E+03  0.25500000000E-02 0.  1.
          2   -1    0    0  501    0  0.00000000000E+00 -0.00000000000E+00 -0.86187833378E+03  0.86187833378E+03  0.25500000000E-02 0. -1.
    8880022    1    1    2    0    0 -0.16270574641E+02 -0.10637601356E+03  0.63278868566E+03  0.65984374027E+03  0.15294330000E+03 0.  0.
    8880022    1    1    2    0    0  0.16270574641E+02  0.10637601356E+03 -0.83804485739E+03  0.85865675556E+03  0.15294330000E+03 0. -1.
<mgrwt>
<rscale>  0 0.18700867E+03</rscale>
<asrwt>0</asrwt>
<pdfrwt beam="1">  1        2 0.13259667E+00 0.18700867E+03</pdfrwt>
<pdfrwt beam="2">  1       -2 0.10101879E+00 0.18700867E+03</pdfrwt>
<totfact> 0.28116810E+01</totfact>
</mgrwt>
</event>
<event>
 4    1  0.4639964E-008  0.5210844E+03  0.7818608E-02  0.1008418E+00
         -2   -1    0    0    0  501 -0.00000000000E+00  0.00000000000E+00  0.12724397527E+04  0.12724397527E+04  0.25500000000E-02 0.  1.
          2   -1    0    0  501    0  0.00000000000E+00 -0.00000000000E+00 -0.12184862120E+04  0.12184862120E+04  0.25500000000E-02 0. -1.
    8880022    1    1    2    0    0  0.29147543086E+03 -0.40395464274E+03  0.11581362010E+04  0.12699639339E+04  0.15294330000E+03 0.  0.
    8880022    1    1    2    0    0 -0.29147543086E+03  0.40395464274E+03 -0.11041826603E+04  0.12209620308E+04  0.15294330000E+03 0.  0.
<mgrwt>
<rscale>  0 0.52108438E+03</rscale>
<asrwt>0</asrwt>
<pdfrwt beam="1">  1        2 0.18745942E+00 0.52108438E+03</pdfrwt>
<pdfrwt beam="2">  1       -2 0.19575996E+00 0.52108438E+03</pdfrwt>
<totfact> 0.28106047E+00</totfact>
</mgrwt>
</event>
<event>
 4    1  0.4639964E-008  0.6391862E+03  0.7818608E-02  0.9827285E-01
          2   -1    0    0  501    0  0.00000000000E+00  0.00000000000E+00  0.30547443606E+04  0.30547443606E+04  0.25500000000E-02 0. -1.
         -2   -1    0    0    0  501 -0.00000000000E+00 -0.00000000000E+00 -0.17930821657E+03  0.17930821659E+03  0.25500000000E-02 0.  1.
    8880022    1    1    2    0    0 -0.61459864621E+03 -0.86231718219E+02  0.62259980545E+03  0.89229455670E+03  0.15294330000E+03 0.  0.
    8880022    1    1    2    0    0  0.61459864621E+03  0.86231718219E+02  0.22528363386E+04  0.23417580205E+04  0.15294330000E+03 0.  0.
<mgrwt>
<rscale>  0 0.63918625E+03</rscale>
<asrwt>0</asrwt>
<pdfrwt beam="1">  1        2 0.46996062E+00 0.63918625E+03</pdfrwt>
<pdfrwt beam="2">  1       -2 0.27585882E-01 0.63918625E+03</pdfrwt>
<totfact> 0.20843165E+01</totfact>
</mgrwt>
</event>
<event>
 4    1  0.4639964E-008  0.9293459E+03  0.7818608E-02  0.9389623E-01
          2   -1    0    0  501    0  0.00000000000E+00  0.00000000000E+00  0.62142712294E+03  0.62142712295E+03  0.25500000000E-02 0. -1.
         -2   -1    0    0    0  501 -0.00000000000E+00 -0.00000000000E+00 -0.25494391115E+04  0.25494391115E+04  0.25500000000E-02 0.  1.
    8880022    1    1    2    0    0  0.79421362312E+03 -0.45773007774E+03  0.10524508222E+03  0.93528620409E+03  0.15294330000E+03 0.  0.
    8880022    1    1    2    0    0 -0.79421362312E+03  0.45773007774E+03 -0.20332570707E+04  0.22355800303E+04  0.15294330000E+03 0.  0.
<mgrwt>
<rscale>  0 0.92934588E+03</rscale>
<asrwt>0</asrwt>
<pdfrwt beam="1">  1        2 0.95604175E-01 0.92934588E+03</pdfrwt>
<pdfrwt beam="2">  1       -2 0.39222139E+00 0.92934588E+03</pdfrwt>
<totfact> 0.40819802E-01</totfact>
</mgrwt>
</event>
<event>
 4    1  0.4639964E-008  0.4318672E+03  0.7818608E-02  0.1033272E+00
          2   -1    0    0  501    0  0.00000000000E+00  0.00000000000E+00  0.37295939111E+04  0.37295939111E+04  0.25500000000E-02 0. -1.
         -2   -1    0    0    0  501 -0.00000000000E+00 -0.00000000000E+00 -0.88396937950E+02  0.88396937986E+02  0.25500000000E-02 0.  1.
    8880022    1    1    2    0    0  0.25909036508E+03 -0.30982216735E+03  0.30786249017E+04  0.31087683302E+04  0.15294330000E+03 0.  0.
    8880022    1    1    2    0    0 -0.25909036508E+03  0.30982216735E+03  0.56257207146E+03  0.70922251886E+03  0.15294330000E+03 0.  0.
<mgrwt>
<rscale>  0 0.43186716E+03</rscale>
<asrwt>0</asrwt>
<pdfrwt beam="1">  1        2 0.57378372E+00 0.43186716E+03</pdfrwt>
<pdfrwt beam="2">  1       -2 0.13599528E-01 0.43186716E+03</pdfrwt>
<totfact> 0.26826995E+01</totfact>
</mgrwt>
</event>
<event>
 4    1  0.4639964E-008  0.3242483E+03  0.7818608E-02  0.1073711E+00
          2   -1    0    0  501    0  0.00000000000E+00  0.00000000000E+00  0.12642990795E+04  0.12642990795E+04  0.25500000000E-02 0. -1.
         -2   -1    0    0    0  501 -0.00000000000E+00 -0.00000000000E+00 -0.17710107737E+03  0.17710107739E+03  0.25500000000E-02 0.  1.
    8880022    1    1    2    0    0  0.22548776178E+03 -0.17578568560E+03  0.18700161194E+02  0.32478714109E+03  0.15294330000E+03 0.  0.
    8880022    1    1    2    0    0 -0.22548776178E+03  0.17578568560E+03  0.10684978410E+04  0.11166130159E+04  0.15294330000E+03 0.  0.
<mgrwt>
<rscale>  0 0.32424835E+03</rscale>
<asrwt>0</asrwt>
<pdfrwt beam="1">  1        2 0.19450755E+00 0.32424835E+03</pdfrwt>
<pdfrwt beam="2">  1       -2 0.27246319E-01 0.32424835E+03</pdfrwt>
<totfact> 0.22397243E+02</totfact>
</mgrwt>
</event>
<event>
 4    1  0.4639964E-008  0.7435447E+03  0.7818608E-02  0.9645533E-01
          2   -1    0    0  501    0  0.00000000000E+00  0.00000000000E+00  0.12060616791E+04  0.12060616791E+04  0.25500000000E-02 0. -1.
         -2   -1    0    0    0  501 -0.00000000000E+00 -0.00000000000E+00 -0.80750135364E+03  0.80750135365E+03  0.25500000000E-02 0.  1.
    8880022    1    1    2    0    0  0.72592288599E+03  0.50029793814E+02 -0.46269146008E+03  0.87575228057E+03  0.15294330000E+03 0.  0.
    8880022    1    1    2    0    0 -0.72592288599E+03 -0.50029793814E+02  0.86125178551E+03  0.11378107522E+04  0.15294330000E+03 0.  0.
<mgrwt>
<rscale>  0 0.74354467E+03</rscale>
<asrwt>0</asrwt>
<pdfrwt beam="1">  1        2 0.18554795E+00 0.74354467E+03</pdfrwt>
<pdfrwt beam="2">  1       -2 0.12423098E+00 0.74354467E+03</pdfrwt>
<totfact> 0.93378859E+00</totfact>
</mgrwt>
</event>
<event>
 4    1  0.4639964E-008  0.8982081E+03  0.7818608E-02  0.9427824E-01
          2   -1    0    0  501    0  0.00000000000E+00  0.00000000000E+00  0.38133549685E+04  0.38133549685E+04  0.25500000000E-02 0. -1.
         -2   -1    0    0    0  501 -0.00000000000E+00 -0.00000000000E+00 -0.28811868313E+03  0.28811868314E+03  0.25500000000E-02 0.  1.
    8880022    1    1    2    0    0 -0.63295144821E+03 -0.61867481968E+03  0.70554913661E+03  0.11421809425E+04  0.15294330000E+03 0.  0.
    8880022    1    1    2    0    0  0.63295144821E+03  0.61867481968E+03  0.28196871488E+04  0.29592927092E+04  0.15294330000E+03 0.  0.
<mgrwt>
<rscale>  0 0.89820806E+03</rscale>
<asrwt>0</asrwt>
<pdfrwt beam="1">  1        2 0.58667000E+00 0.89820806E+03</pdfrwt>
<pdfrwt beam="2">  1       -2 0.44325951E-01 0.89820806E+03</pdfrwt>
<totfact> 0.24702929E+00</totfact>
</mgrwt>
</event>
<event>
 4    1  0.4639964E-008  0.2151361E+03  0.7818608E-02  0.1137562E+00
          2   -1    0    0  501    0  0.00000000000E+00  0.00000000000E+00  0.25262065086E+03  0.25262065087E+03  0.25500000000E-02 0. -1.
         -2   -1    0    0    0  501 -0.00000000000E+00 -0.00000000000E+00 -0.31170086520E+03  0.31170086521E+03  0.25500000000E-02 0.  1.
    8880022    1    1    2    0    0 -0.91890805971E+02  0.12019972295E+03 -0.21069814179E+03  0.30112664045E+03  0.15294330000E+03 0.  0.
    8880022    1    1    2    0    0  0.91890805971E+02 -0.12019972295E+03  0.15161792745E+03  0.26319487563E+03  0.15294330000E+03 0.  0.
<mgrwt>
<rscale>  0 0.21513611E+03</rscale>
<asrwt>0</asrwt>
<pdfrwt beam="1">  1        2 0.38864715E-01 0.21513611E+03</pdfrwt>
<pdfrwt beam="2">  1       -2 0.47953979E-01 0.21513611E+03</pdfrwt>
<totfact> 0.55216815E+02</totfact>
</mgrwt>
</event>
<event>
 4    1  0.4639964E-008  0.4619071E+03  0.7818608E-02  0.1024230E+00
         -2   -1    0    0    0  501 -0.00000000000E+00  0.00000000000E+00  0.10522357233E+03  0.10522357236E+03  0.25500000000E-02 0.  1.
          2   -1    0    0  501    0  0.00000000000E+00 -0.00000000000E+00 -0.25691245264E+04  0.25691245264E+04  0.25500000000E-02 0. -1.
    8880022    1    1    2    0    0  0.42438821878E+03  0.99303361875E+02 -0.61807780510E+03  0.77160763611E+03  0.15294330000E+03 0.  0.
    8880022    1    1    2    0    0 -0.42438821878E+03 -0.99303361875E+02 -0.18458231490E+04  0.19027404626E+04  0.15294330000E+03 0.  1.
<mgrwt>
<rscale>  0 0.46190710E+03</rscale>
<asrwt>0</asrwt>
<pdfrwt beam="1">  1        2 0.39524988E+00 0.46190710E+03</pdfrwt>
<pdfrwt beam="2">  1       -2 0.16188244E-01 0.46190710E+03</pdfrwt>
<totfact> 0.10607735E+02</totfact>
</mgrwt>
</event>
<event>
 4    1  0.4639964E-008  0.7293804E+03  0.7818608E-02  0.9668266E-01
         -2   -1    0    0    0  501 -0.00000000000E+00  0.00000000000E+00  0.64578406388E+03  0.64578406389E+03  0.25500000000E-02 0.  1.
          2   -1    0    0  501    0  0.00000000000E+00 -0.00000000000E+00 -0.15176102013E+04  0.15176102013E+04  0.25500000000E-02 0. -1.
    8880022    1    1    2    0    0  0.66799725446E+03  0.24976741420E+03  0.29547263224E+03  0.78695604870E+03  0.15294330000E+03 0.  0.
    8880022    1    1    2    0    0 -0.66799725446E+03 -0.24976741420E+03 -0.11672987697E+04  0.13764382165E+04  0.15294330000E+03 0.  0.
<mgrwt>
<rscale>  0 0.72938039E+03</rscale>
<asrwt>0</asrwt>
<pdfrwt beam="1">  1        2 0.23347849E+00 0.72938039E+03</pdfrwt>
<pdfrwt beam="2">  1       -2 0.99351394E-01 0.72938039E+03</pdfrwt>
<totfact> 0.10696451E+01</totfact>
</mgrwt>
</event>
<event>
 4    1  0.4639964E-008  0.6542966E+03  0.7818608E-02  0.9798750E-01
          2   -1    0    0  501    0  0.00000000000E+00  0.00000000000E+00  0.18188430103E+04  0.18188430103E+04  0.25500000000E-02 0. -1.
         -2   -1    0    0    0  501 -0.00000000000E+00 -0.00000000000E+00 -0.79262165642E+03  0.79262165643E+03  0.25500000000E-02 0.  1.
    8880022    1    1    2    0    0 -0.60076726651E+03  0.20926319054E+03  0.16079395450E+04  0.17359647533E+04  0.15294330000E+03 0.  0.
    8880022    1    1    2    0    0  0.60076726651E+03 -0.20926319054E+03 -0.58171819114E+03  0.87549991338E+03  0.15294330000E+03 0.  0.
<mgrwt>
<rscale>  0 0.65429660E+03</rscale>
<asrwt>0</asrwt>
<pdfrwt beam="1">  1        2 0.27982200E+00 0.65429660E+03</pdfrwt>
<pdfrwt beam="2">  1       -2 0.12194179E+00 0.65429660E+03</pdfrwt>
<totfact> 0.45098837E+00</totfact>
</mgrwt>
</event>
<event>
 4    1  0.4639964E-008  0.6202685E+03  0.7818608E-02  0.9864225E-01
         -2   -1    0    0    0  501 -0.00000000000E+00  0.00000000000E+00  0.13599163598E+04  0.13599163598E+04  0.25500000000E-02 0.  1.
          2   -1    0    0  501    0  0.00000000000E+00 -0.00000000000E+00 -0.54753226835E+03  0.54753226836E+03  0.25500000000E-02 0. -1.
    8880022    1    1    2    0    0 -0.52717523750E+03  0.28883842942E+03 -0.25683575870E+03  0.67134017406E+03  0.15294330000E+03 0. -1.
    8880022    1    1    2    0    0  0.52717523750E+03 -0.28883842942E+03  0.10692198502E+04  0.12361084541E+04  0.15294330000E+03 0.  0.
<mgrwt>
<rscale>  0 0.62026851E+03</rscale>
<asrwt>0</asrwt>
<pdfrwt beam="1">  1        2 0.84235734E-01 0.62026851E+03</pdfrwt>
<pdfrwt beam="2">  1       -2 0.20921790E+00 0.62026851E+03</pdfrwt>
<totfact> 0.66599896E+00</totfact>
</mgrwt>
</event>
<event>
 4    1  0.4639964E-008  0.6066387E+03  0.7818608E-02  0.9891728E-01
         -2   -1    0    0    0  501 -0.00000000000E+00  0.00000000000E+00  0.50229955161E+03  0.50229955162E+03  0.25500000000E-02 0.  1.
          2   -1    0    0  501    0  0.00000000000E+00 -0.00000000000E+00 -0.83939494232E+03  0.83939494233E+03  0.25500000000E-02 0. -1.
    8880022    1    1    2    0    0  0.58291344987E+03  0.69503951478E+02  0.70679737116E+02  0.61074230864E+03  0.15294330000E+03 0.  0.
    8880022    1    1    2    0    0 -0.58291344987E+03 -0.69503951478E+02 -0.40777512783E+03  0.73095218530E+03  0.15294330000E+03 0.  0.
<mgrwt>
<rscale>  0 0.60663872E+03</rscale>
<asrwt>0</asrwt>
<pdfrwt beam="1">  1        2 0.12913768E+00 0.60663872E+03</pdfrwt>
<pdfrwt beam="2">  1       -2 0.77276854E-01 0.60663872E+03</pdfrwt>
<totfact> 0.49544674E+01</totfact>
</mgrwt>
</event>
<event>
 4    1  0.4639964E-008  0.4646423E+03  0.7818608E-02  0.1023443E+00
         -2   -1    0    0    0  501 -0.00000000000E+00  0.00000000000E+00  0.10257068802E+04  0.10257068802E+04  0.25500000000E-02 0.  1.
          2   -1    0    0  501    0  0.00000000000E+00 -0.00000000000E+00 -0.24666921626E+03  0.24666921627E+03  0.25500000000E-02 0. -1.
    8880022    1    1    2    0    0 -0.53564055716E+02 -0.43546722802E+03  0.14584563082E+03  0.48699426669E+03  0.15294330000E+03 0.  0.
    8880022    1    1    2    0    0  0.53564055716E+02  0.43546722802E+03  0.63319203313E+03  0.78538182980E+03  0.15294330000E+03 0.  0.
<mgrwt>
<rscale>  0 0.46464230E+03</rscale>
<asrwt>0</asrwt>
<pdfrwt beam="1">  1        2 0.37949110E-01 0.46464230E+03</pdfrwt>
<pdfrwt beam="2">  1       -2 0.15780106E+00 0.46464230E+03</pdfrwt>
<totfact> 0.36984427E+01</totfact>
</mgrwt>
</event>
<event>
 4    1  0.4639964E-008  0.7237252E+03  0.7818608E-02  0.9677498E-01
          2   -1    0    0  501    0  0.00000000000E+00  0.00000000000E+00  0.21913734169E+04  0.21913734169E+04  0.25500000000E-02 0. -1.
         -2   -1    0    0    0  501 -0.00000000000E+00 -0.00000000000E+00 -0.48611535649E+03  0.48611535650E+03  0.25500000000E-02 0.  1.
    8880022    1    1    2    0    0  0.59070687569E+03  0.38916818108E+03  0.18070981069E+04  0.19466334291E+04  0.15294330000E+03 0.  0.
    8880022    1    1    2    0    0 -0.59070687569E+03 -0.38916818108E+03 -0.10184004656E+03  0.73085534427E+03  0.15294330000E+03 0.  0.
<mgrwt>
<rscale>  0 0.72372518E+03</rscale>
<asrwt>0</asrwt>
<pdfrwt beam="1">  1        2 0.33713438E+00 0.72372518E+03</pdfrwt>
<pdfrwt beam="2">  1       -2 0.74786977E-01 0.72372518E+03</pdfrwt>
<totfact> 0.87672509E+00</totfact>
</mgrwt>
</event>
<event>
 4    1  0.4639964E-008  0.1750746E+03  0.7818608E-02  0.1172657E+00
          2   -1    0    0  501    0  0.00000000000E+00  0.00000000000E+00  0.11083255946E+04  0.11083255946E+04  0.25500000000E-02 0. -1.
         -2   -1    0    0    0  501 -0.00000000000E+00 -0.00000000000E+00 -0.33747031553E+02  0.33747031649E+02  0.25500000000E-02 0.  1.
    8880022    1    1    2    0    0  0.75454517121E+02  0.39573700972E+02  0.29467571043E+03  0.34276068808E+03  0.15294330000E+03 0.  0.
    8880022    1    1    2    0    0 -0.75454517121E+02 -0.39573700972E+02  0.77990285259E+03  0.79931193814E+03  0.15294330000E+03 0.  0.
<mgrwt>
<rscale>  0 0.17507460E+03</rscale>
<asrwt>0</asrwt>
<pdfrwt beam="1">  1        2 0.17051163E+00 0.17507460E+03</pdfrwt>
<pdfrwt beam="2">  1       -2 0.51918509E-02 0.17507460E+03</pdfrwt>
<totfact> 0.41287636E+03</totfact>
</mgrwt>
</event>
<event>
 4    1  0.4639964E-008  0.3241144E+03  0.7818608E-02  0.1073771E+00
         -2   -1    0    0    0  501 -0.00000000000E+00  0.00000000000E+00  0.84263100591E+03  0.84263100591E+03  0.25500000000E-02 0.  1.
          2   -1    0    0  501    0  0.00000000000E+00 -0.00000000000E+00 -0.35424752052E+03  0.35424752053E+03  0.25500000000E-02 0. -1.
    8880022    1    1    2    0    0 -0.52077968627E+02 -0.28097400896E+03  0.72595322635E+03  0.79502091066E+03  0.15294330000E+03 0.  0.
    8880022    1    1    2    0    0  0.52077968627E+02  0.28097400896E+03 -0.23756974096E+03  0.40185761578E+03  0.15294330000E+03 0.  0.
<mgrwt>
<rscale>  0 0.32411443E+03</rscale>
<asrwt>0</asrwt>
<pdfrwt beam="1">  1        2 0.54499618E-01 0.32411443E+03</pdfrwt>
<pdfrwt beam="2">  1       -2 0.12963554E+00 0.32411443E+03</pdfrwt>
<totfact> 0.41977876E+01</totfact>
</mgrwt>
</event>
<event>
 4    1  0.4639964E-008  0.1083337E+04  0.7818608E-02  0.9221587E-01
         -2   -1    0    0    0  501 -0.00000000000E+00  0.00000000000E+00  0.81440895101E+03  0.81440895101E+03  0.25500000000E-02 0.  1.
          2   -1    0    0  501    0  0.00000000000E+00 -0.00000000000E+00 -0.29653765951E+04  0.29653765951E+04  0.25500000000E-02 0. -1.
    8880022    1    1    2    0    0  0.41968458761E+03  0.98696093325E+03  0.27949867032E+03  0.11188110638E+04  0.15294330000E+03 0.  0.
    8880022    1    1    2    0    0 -0.41968458761E+03 -0.98696093325E+03 -0.24304663144E+04  0.26609744822E+04  0.15294330000E+03 0.  0.
<mgrwt>
<rscale>  0 0.10833368E+04</rscale>
<asrwt>0</asrwt>
<pdfrwt beam="1">  1        2 0.45621178E+00 0.10833368E+04</pdfrwt>
<pdfrwt beam="2">  1       -2 0.12529369E+00 0.10833368E+04</pdfrwt>
<totfact> 0.87538346E-01</totfact>
</mgrwt>
</event>
<event>
 4    1  0.4639964E-008  0.2063156E+03  0.7818608E-02  0.1144517E+00
          2   -1    0    0  501    0  0.00000000000E+00  0.00000000000E+00  0.11560314530E+04  0.11560314530E+04  0.25500000000E-02 0. -1.
         -2   -1    0    0    0  501 -0.00000000000E+00 -0.00000000000E+00 -0.17985363285E+04  0.17985363285E+04  0.25500000000E-02 0.  1.
    8880022    1    1    2    0    0  0.59949319356E+02 -0.12482214488E+03  0.11408312479E+04  0.11593369131E+04  0.15294330000E+03 0.  0.
    8880022    1    1    2    0    0 -0.59949319356E+02  0.12482214488E+03 -0.17833361235E+04  0.17952308684E+04  0.15294330000E+03 0.  0.
<mgrwt>
<rscale>  0 0.20631564E+03</rscale>
<asrwt>0</asrwt>
<pdfrwt beam="1">  1        2 0.17785099E+00 0.20631564E+03</pdfrwt>
<pdfrwt beam="2">  1       -2 0.27669790E+00 0.20631564E+03</pdfrwt>
<totfact> 0.11248908E+00</totfact>
</mgrwt>
</event>
<event>
 4    1  0.4639964E-008  0.6010453E+03  0.7818608E-02  0.9903240E-01
         -2   -1    0    0    0  501 -0.00000000000E+00  0.00000000000E+00  0.11392400090E+04  0.11392400090E+04  0.25500000000E-02 0.  1.
          2   -1    0    0  501    0  0.00000000000E+00 -0.00000000000E+00 -0.11164597626E+04  0.11164597626E+04  0.25500000000E-02 0. -1.
    8880022    1    1    2    0    0  0.27133100734E+03 -0.51404595998E+03  0.96572397437E+03  0.11374876756E+04  0.15294330000E+03 0.  0.
    8880022    1    1    2    0    0 -0.27133100734E+03  0.51404595998E+03 -0.94294372793E+03  0.11182120960E+04  0.15294330000E+03 0.  0.
<mgrwt>
<rscale>  0 0.60104527E+03</rscale>
<asrwt>0</asrwt>
<pdfrwt beam="1">  1        2 0.17176304E+00 0.60104527E+03</pdfrwt>
<pdfrwt beam="2">  1       -2 0.17526769E+00 0.60104527E+03</pdfrwt>
<totfact> 0.43605958E+00</totfact>
</mgrwt>
</event>
<event>
 4    1  0.4639964E-008  0.8930798E+03  0.7818608E-02  0.9434274E-01
          2   -1    0    0  501    0  0.00000000000E+00  0.00000000000E+00  0.71477635057E+03  0.71477635058E+03  0.25500000000E-02 0. -1.
         -2   -1    0    0    0  501 -0.00000000000E+00 -0.00000000000E+00 -0.14888883407E+04  0.14888883407E+04  0.25500000000E-02 0.  1.
    8880022    1    1    2    0    0 -0.82176513810E+03  0.31448672814E+03 -0.93856730555E+03  0.12955694055E+04  0.15294330000E+03 0.  0.
    8880022    1    1    2    0    0  0.82176513810E+03 -0.31448672814E+03  0.16445531539E+03  0.90809528583E+03  0.15294330000E+03 0.  0.
<mgrwt>
<rscale>  0 0.89307978E+03</rscale>
<asrwt>0</asrwt>
<pdfrwt beam="1">  1        2 0.10996559E+00 0.89307978E+03</pdfrwt>
<pdfrwt beam="2">  1       -2 0.22905974E+00 0.89307978E+03</pdfrwt>
<totfact> 0.34840913E+00</totfact>
</mgrwt>
</event>
<event>
 4    1  0.4639964E-008  0.5396986E+03  0.7818608E-02  0.1003907E+00
          2   -1    0    0  501    0  0.00000000000E+00  0.00000000000E+00  0.15366508364E+04  0.15366508364E+04  0.25500000000E-02 0. -1.
         -2   -1    0    0    0  501 -0.00000000000E+00 -0.00000000000E+00 -0.31466844588E+03  0.31466844589E+03  0.25500000000E-02 0.  1.
    8880022    1    1    2    0    0 -0.49034492178E+03 -0.16566458467E+03  0.27300581623E+02  0.54038863025E+03  0.15294330000E+03 0.  0.
    8880022    1    1    2    0    0  0.49034492178E+03  0.16566458467E+03  0.11946818089E+04  0.13109306520E+04  0.15294330000E+03 0.  0.
<mgrwt>
<rscale>  0 0.53969857E+03</rscale>
<asrwt>0</asrwt>
<pdfrwt beam="1">  1        2 0.23640782E+00 0.53969857E+03</pdfrwt>
<pdfrwt beam="2">  1       -2 0.48410531E-01 0.53969857E+03</pdfrwt>
<totfact> 0.51333315E+01</totfact>
</mgrwt>
</event>
<event>
 4    1  0.4639964E-008  0.3802468E+03  0.7818608E-02  0.1050843E+00
          2   -1    0    0  501    0  0.00000000000E+00  0.00000000000E+00  0.23694380108E+04  0.23694380108E+04  0.25500000000E-02 0. -1.
         -2   -1    0    0    0  501 -0.00000000000E+00 -0.00000000000E+00 -0.61838327126E+02  0.61838327179E+02  0.25500000000E-02 0.  1.
    8880022    1    1    2    0    0 -0.67207265884E+02  0.34158329487E+03  0.12934795535E+04  0.13482125101E+04  0.15294330000E+03 0.  0.
    8880022    1    1    2    0    0  0.67207265884E+02 -0.34158329487E+03  0.10141201301E+04  0.10830638279E+04  0.15294330000E+03 0.  0.
<mgrwt>
<rscale>  0 0.38024678E+03</rscale>
<asrwt>0</asrwt>
<pdfrwt beam="1">  1        2 0.36452891E+00 0.38024678E+03</pdfrwt>
<pdfrwt beam="2">  1       -2 0.95135892E-02 0.38024678E+03</pdfrwt>
<totfact> 0.33282952E+02</totfact>
</mgrwt>
</event>
<event>
 4    1  0.4639964E-008  0.4482288E+03  0.7818608E-02  0.1028252E+00
         -2   -1    0    0    0  501 -0.00000000000E+00  0.00000000000E+00  0.11232453680E+04  0.11232453681E+04  0.25500000000E-02 0.  1.
          2   -1    0    0  501    0  0.00000000000E+00 -0.00000000000E+00 -0.27152591033E+03  0.27152591034E+03  0.25500000000E-02 0. -1.
    8880022    1    1    2    0    0 -0.26805817928E+03  0.32505727046E+03  0.83325509686E+03  0.94616231483E+03  0.15294330000E+03 0.  0.
    8880022    1    1    2    0    0  0.26805817928E+03 -0.32505727046E+03  0.18464360862E+02  0.44860896357E+03  0.15294330000E+03 0.  0.
<mgrwt>
<rscale>  0 0.44822881E+03</rscale>
<asrwt>0</asrwt>
<pdfrwt beam="1">  1        2 0.41773217E-01 0.44822881E+03</pdfrwt>
<pdfrwt beam="2">  1       -2 0.17280698E+00 0.44822881E+03</pdfrwt>
<totfact> 0.26051560E+01</totfact>
</mgrwt>
</event>
<event>
 4    1  0.4639964E-008  0.2735008E+03  0.7818608E-02  0.1099293E+00
          2   -1    0    0  501    0  0.00000000000E+00  0.00000000000E+00  0.58280155912E+03  0.58280155912E+03  0.25500000000E-02 0. -1.
         -2   -1    0    0    0  501 -0.00000000000E+00 -0.00000000000E+00 -0.10829633237E+04  0.10829633237E+04  0.25500000000E-02 0.  1.
    8880022    1    1    2    0    0 -0.47938599000E+02 -0.22161438028E+03  0.53188991160E+03  0.59808826598E+03  0.15294330000E+03 0. -1.
    8880022    1    1    2    0    0  0.47938599000E+02  0.22161438028E+03 -0.10320516762E+04  0.10676766168E+04  0.15294330000E+03 0.  0.
<mgrwt>
<rscale>  0 0.27350082E+03</rscale>
<asrwt>0</asrwt>
<pdfrwt beam="1">  1        2 0.89661779E-01 0.27350082E+03</pdfrwt>
<pdfrwt beam="2">  1       -2 0.16660974E+00 0.27350082E+03</pdfrwt>
<totfact> 0.12712611E+01</totfact>
</mgrwt>
</event>
<event>
 4    1  0.4639964E-008  0.7564466E+03  0.7818608E-02  0.9625291E-01
          2   -1    0    0  501    0  0.00000000000E+00  0.00000000000E+00  0.18347315827E+04  0.18347315827E+04  0.25500000000E-02 0. -1.
         -2   -1    0    0    0  501 -0.00000000000E+00 -0.00000000000E+00 -0.96753447787E+03  0.96753447787E+03  0.25500000000E-02 0.  1.
    8880022    1    1    2    0    0  0.11453252595E+03  0.73191672988E+03  0.15870106403E+04  0.17580711659E+04  0.15294330000E+03 0.  0.
    8880022    1    1    2    0    0 -0.11453252595E+03 -0.73191672988E+03 -0.71981353552E+03  0.10441948946E+04  0.15294330000E+03 0.  0.
<mgrwt>
<rscale>  0 0.75644660E+03</rscale>
<asrwt>0</asrwt>
<pdfrwt beam="1">  1        2 0.28226640E+00 0.75644660E+03</pdfrwt>
<pdfrwt beam="2">  1       -2 0.14885146E+00 0.75644660E+03</pdfrwt>
<totfact> 0.26063840E+00</totfact>
</mgrwt>
</event>
<event>
 4    1  0.4639964E-008  0.3004835E+03  0.7818608E-02  0.1084999E+00
         -2   -1    0    0    0  501 -0.00000000000E+00  0.00000000000E+00  0.25631924809E+03  0.25631924810E+03  0.25500000000E-02 0.  1.
          2   -1    0    0  501    0  0.00000000000E+00 -0.00000000000E+00 -0.31676106695E+04  0.31676106695E+04  0.25500000000E-02 0. -1.
    8880022    1    1    2    0    0  0.14090418758E+03  0.21689783014E+03 -0.30696156198E+04  0.30842876593E+04  0.15294330000E+03 0.  0.
    8880022    1    1    2    0    0 -0.14090418758E+03 -0.21689783014E+03  0.15832419843E+03  0.33964225829E+03  0.15294330000E+03 0.  1.
<mgrwt>
<rscale>  0 0.30048346E+03</rscale>
<asrwt>0</asrwt>
<pdfrwt beam="1">  1        2 0.48732469E+00 0.30048346E+03</pdfrwt>
<pdfrwt beam="2">  1       -2 0.39433733E-01 0.30048346E+03</pdfrwt>
<totfact> 0.10094518E+01</totfact>
</mgrwt>
</event>
<event>
 4    1  0.4639964E-008  0.5968574E+03  0.7818608E-02  0.9911948E-01
         -2   -1    0    0    0  501 -0.00000000000E+00  0.00000000000E+00  0.41573798143E+03  0.41573798144E+03  0.25500000000E-02 0.  1.
          2   -1    0    0  501    0  0.00000000000E+00 -0.00000000000E+00 -0.98978769719E+03  0.98978769720E+03  0.25500000000E-02 0. -1.
    8880022    1    1    2    0    0  0.28863040009E+03 -0.49953937065E+03 -0.54454320960E+03  0.80793938561E+03  0.15294330000E+03 0.  0.
    8880022    1    1    2    0    0 -0.28863040009E+03  0.49953937065E+03 -0.29506506166E+02  0.59758629303E+03  0.15294330000E+03 0.  0.
<mgrwt>
<rscale>  0 0.59685739E+03</rscale>
<asrwt>0</asrwt>
<pdfrwt beam="1">  1        2 0.15227503E+00 0.59685739E+03</pdfrwt>
<pdfrwt beam="2">  1       -2 0.63959690E-01 0.59685739E+03</pdfrwt>
<totfact> 0.59514105E+01</totfact>
</mgrwt>
</event>
<event>
 4    1  0.4639964E-008  0.7607719E+03  0.7818608E-02  0.9618601E-01
         -2   -1    0    0    0  501 -0.00000000000E+00  0.00000000000E+00  0.23719963569E+03  0.23719963570E+03  0.25500000000E-02 0.  1.
          2   -1    0    0  501    0  0.00000000000E+00 -0.00000000000E+00 -0.31016113975E+04  0.31016113975E+04  0.25500000000E-02 0. -1.
    8880022    1    1    2    0    0  0.71172807925E+03  0.22096458570E+03 -0.22032163994E+04  0.23308660113E+04  0.15294330000E+03 0.  0.
    8880022    1    1    2    0    0 -0.71172807925E+03 -0.22096458570E+03 -0.66119536241E+03  0.10079450219E+04  0.15294330000E+03 0.  0.
<mgrwt>
<rscale>  0 0.76077188E+03</rscale>
<asrwt>0</asrwt>
<pdfrwt beam="1">  1        2 0.47717095E+00 0.76077188E+03</pdfrwt>
<pdfrwt beam="2">  1       -2 0.36492254E-01 0.76077188E+03</pdfrwt>
<totfact> 0.11288902E+01</totfact>
</mgrwt>
</event>
<event>
 4    1  0.4639964E-008  0.1118654E+04  0.7818608E-02  0.9187199E-01
         -2   -1    0    0    0  501 -0.00000000000E+00  0.00000000000E+00  0.13538310477E+04  0.13538310477E+04  0.25500000000E-02 0.  1.
          2   -1    0    0  501    0  0.00000000000E+00 -0.00000000000E+00 -0.99991858088E+03  0.99991858088E+03  0.25500000000E-02 0. -1.
    8880022    1    1    2    0    0 -0.10874109561E+04  0.21338409625E+03 -0.14661900500E+03  0.11282216740E+04  0.15294330000E+03 0.  0.
    8880022    1    1    2    0    0  0.10874109561E+04 -0.21338409625E+03  0.50053147182E+03  0.12255279545E+04  0.15294330000E+03 0.  0.
<mgrwt>
<rscale>  0 0.11186541E+04</rscale>
<asrwt>0</asrwt>
<pdfrwt beam="1">  1        2 0.15383363E+00 0.11186541E+04</pdfrwt>
<pdfrwt beam="2">  1       -2 0.20828170E+00 0.11186541E+04</pdfrwt>
<totfact> 0.29009529E+00</totfact>
</mgrwt>
</event>
<event>
 4    1  0.4639964E-008  0.5799306E+03  0.7818608E-02  0.9947941E-01
          2   -1    0    0  501    0  0.00000000000E+00  0.00000000000E+00  0.36130057326E+03  0.36130057327E+03  0.25500000000E-02 0. -1.
         -2   -1    0    0    0  501 -0.00000000000E+00 -0.00000000000E+00 -0.11665402803E+04  0.11665402803E+04  0.25500000000E-02 0.  1.
    8880022    1    1    2    0    0  0.55882138015E+03  0.25426572006E+02 -0.59250289683E+02  0.58294947922E+03  0.15294330000E+03 0.  0.
    8880022    1    1    2    0    0 -0.55882138015E+03 -0.25426572006E+02 -0.74598941732E+03  0.94489137431E+03  0.15294330000E+03 0.  0.
<mgrwt>
<rscale>  0 0.57993060E+03</rscale>
<asrwt>0</asrwt>
<pdfrwt beam="1">  1        2 0.55584704E-01 0.57993060E+03</pdfrwt>
<pdfrwt beam="2">  1       -2 0.17946773E+00 0.57993060E+03</pdfrwt>
<totfact> 0.16840352E+01</totfact>
</mgrwt>
</event>
<event>
 4    1  0.4639964E-008  0.7847968E+03  0.7818608E-02  0.9582288E-01
          2   -1    0    0  501    0  0.00000000000E+00  0.00000000000E+00  0.18914967042E+04  0.18914967042E+04  0.25500000000E-02 0. -1.
         -2   -1    0    0    0  501 -0.00000000000E+00 -0.00000000000E+00 -0.85757174804E+03  0.85757174804E+03  0.25500000000E-02 0.  1.
    8880022    1    1    2    0    0  0.41460813887E+03  0.64854801888E+03 -0.56561031118E+03  0.96737847750E+03  0.15294330000E+03 0.  0.
    8880022    1    1    2    0    0 -0.41460813887E+03 -0.64854801888E+03  0.15995352673E+04  0.17816899747E+04  0.15294330000E+03 0.  0.
<mgrwt>
<rscale>  0 0.78479685E+03</rscale>
<asrwt>0</asrwt>
<pdfrwt beam="1">  1        2 0.29099949E+00 0.78479685E+03</pdfrwt>
<pdfrwt beam="2">  1       -2 0.13193412E+00 0.78479685E+03</pdfrwt>
<totfact> 0.33018240E+00</totfact>
</mgrwt>
</event>
<event>
 4    1  0.4639964E-008  0.3218547E+03  0.7818608E-02  0.1074799E+00
          2   -1    0    0  501    0  0.00000000000E+00  0.00000000000E+00  0.19828051625E+04  0.19828051625E+04  0.25500000000E-02 0. -1.
         -2   -1    0    0    0  501 -0.00000000000E+00 -0.00000000000E+00 -0.71887623478E+02  0.71887623524E+02  0.25500000000E-02 0.  1.
    8880022    1    1    2    0    0 -0.28236203186E+03 -0.21690593314E+02  0.14924859844E+04  0.15267956201E+04  0.15294330000E+03 0.  0.
    8880022    1    1    2    0    0  0.28236203186E+03  0.21690593314E+02  0.41843155457E+03  0.52789716589E+03  0.15294330000E+03 0.  0.
<mgrwt>
<rscale>  0 0.32185471E+03</rscale>
<asrwt>0</asrwt>
<pdfrwt beam="1">  1        2 0.30504696E+00 0.32185471E+03</pdfrwt>
<pdfrwt beam="2">  1       -2 0.11059634E-01 0.32185471E+03</pdfrwt>
<totfact> 0.42541769E+02</totfact>
</mgrwt>
</event>
<event>
 4    1  0.4639964E-008  0.1663691E+04  0.7818608E-02  0.8782348E-01
          2   -1    0    0  501    0  0.00000000000E+00  0.00000000000E+00  0.38418946041E+04  0.38418946041E+04  0.25500000000E-02 0. -1.
         -2   -1    0    0    0  501 -0.00000000000E+00 -0.00000000000E+00 -0.96812920610E+03  0.96812920610E+03  0.25500000000E-02 0.  1.
    8880022    1    1    2    0    0  0.16317327536E+04  0.28622613876E+03  0.26533511503E+04  0.31317951979E+04  0.15294330000E+03 0.  0.
    8880022    1    1    2    0    0 -0.16317327536E+04 -0.28622613876E+03  0.22041424776E+03  0.16782286124E+04  0.15294330000E+03 0.  0.
<mgrwt>
<rscale>  0 0.16636913E+04</rscale>
<asrwt>0</asrwt>
<pdfrwt beam="1">  1        2 0.59106070E+00 0.16636913E+04</pdfrwt>
<pdfrwt beam="2">  1       -2 0.14894296E+00 0.16636913E+04</pdfrwt>
<totfact> 0.13070737E-01</totfact>
</mgrwt>
</event>
<event>
 4    1  0.4639964E-008  0.5143068E+03  0.7818608E-02  0.1010111E+00
         -2   -1    0    0    0  501 -0.00000000000E+00  0.00000000000E+00  0.29795170636E+03  0.29795170637E+03  0.25500000000E-02 0.  1.
          2   -1    0    0  501    0  0.00000000000E+00 -0.00000000000E+00 -0.23516508687E+04  0.23516508687E+04  0.25500000000E-02 0. -1.
    8880022    1    1    2    0    0  0.49088447280E+03  0.12340568725E+02  0.18394514128E+02  0.51463566378E+03  0.15294330000E+03 0.  0.
    8880022    1    1    2    0    0 -0.49088447280E+03 -0.12340568725E+02 -0.20720936765E+04  0.21349669113E+04  0.15294330000E+03 0.  0.
<mgrwt>
<rscale>  0 0.51430682E+03</rscale>
<asrwt>0</asrwt>
<pdfrwt beam="1">  1        2 0.36179243E+00 0.51430682E+03</pdfrwt>
<pdfrwt beam="2">  1       -2 0.45838726E-01 0.51430682E+03</pdfrwt>
<totfact> 0.20789470E+01</totfact>
</mgrwt>
</event>
<event>
 4    1  0.4639964E-008  0.1128058E+04  0.7818608E-02  0.9178268E-01
          2   -1    0    0  501    0  0.00000000000E+00  0.00000000000E+00  0.10585861906E+04  0.10585861906E+04  0.25500000000E-02 0. -1.
         -2   -1    0    0    0  501 -0.00000000000E+00 -0.00000000000E+00 -0.13503814464E+04  0.13503814464E+04  0.25500000000E-02 0.  1.
    8880022    1    1    2    0    0  0.14118572901E+03  0.11086879333E+04 -0.54504510281E+03  0.12528320561E+04  0.15294330000E+03 0.  0.
    8880022    1    1    2    0    0 -0.14118572901E+03 -0.11086879333E+04  0.25324984699E+03  0.11561355810E+04  0.15294330000E+03 0.  0.
<mgrwt>
<rscale>  0 0.11280576E+04</rscale>
<asrwt>0</asrwt>
<pdfrwt beam="1">  1        2 0.16285941E+00 0.11280576E+04</pdfrwt>
<pdfrwt beam="2">  1       -2 0.20775099E+00 0.11280576E+04</pdfrwt>
<totfact> 0.26798392E+00</totfact>
</mgrwt>
</event>
<event>
 4    1  0.4639964E-008  0.1738994E+03  0.7818608E-02  0.1173841E+00
          2   -1    0    0  501    0  0.00000000000E+00  0.00000000000E+00  0.33650822973E+03  0.33650822974E+03  0.25500000000E-02 0. -1.
         -2   -1    0    0    0  501 -0.00000000000E+00 -0.00000000000E+00 -0.15487606616E+03  0.15487606618E+03  0.25500000000E-02 0.  1.
    8880022    1    1    2    0    0  0.79989972675E+02 -0.21235661705E+02  0.24999513521E+03  0.30453008012E+03  0.15294330000E+03 0.  0.
    8880022    1    1    2    0    0 -0.79989972675E+02  0.21235661705E+02 -0.68362971637E+02  0.18685421580E+03  0.15294330000E+03 0.  0.
<mgrwt>
<rscale>  0 0.17389940E+03</rscale>
<asrwt>0</asrwt>
<pdfrwt beam="1">  1        2 0.51770496E-01 0.17389940E+03</pdfrwt>
<pdfrwt beam="2">  1       -2 0.23827087E-01 0.17389940E+03</pdfrwt>
<totfact> 0.14785626E+03</totfact>
</mgrwt>
</event>
<event>
 4    1  0.4639964E-008  0.8781834E+03  0.7818608E-02  0.9453272E-01
         -2   -1    0    0    0  501 -0.00000000000E+00  0.00000000000E+00  0.52622371292E+03  0.52622371293E+03  0.25500000000E-02 0.  1.
          2   -1    0    0  501    0  0.00000000000E+00 -0.00000000000E+00 -0.17440288817E+04  0.17440288817E+04  0.25500000000E-02 0. -1.
    8880022    1    1    2    0    0 -0.23044765506E+03  0.83349167427E+03 -0.10624941687E+04  0.13784411501E+04  0.15294330000E+03 0.  0.
    8880022    1    1    2    0    0  0.23044765506E+03 -0.83349167427E+03 -0.15531100006E+03  0.89181144450E+03  0.15294330000E+03 0.  0.
<mgrwt>
<rscale>  0 0.87818344E+03</rscale>
<asrwt>0</asrwt>
<pdfrwt beam="1">  1        2 0.26831213E+00 0.87818344E+03</pdfrwt>
<pdfrwt beam="2">  1       -2 0.80957495E-01 0.87818344E+03</pdfrwt>
<totfact> 0.12630166E+01</totfact>
</mgrwt>
</event>
<event>
 4    1  0.4639964E-008  0.4666606E+03  0.7818608E-02  0.1022867E+00
         -2   -1    0    0    0  501 -0.00000000000E+00  0.00000000000E+00  0.36835920866E+03  0.36835920867E+03  0.25500000000E-02 0.  1.
          2   -1    0    0  501    0  0.00000000000E+00 -0.00000000000E+00 -0.24542223925E+04  0.24542223925E+04  0.25500000000E-02 0. -1.
    8880022    1    1    2    0    0  0.41144620463E+03  0.15840608563E+03 -0.22725466539E+04  0.23199656063E+04  0.15294330000E+03 0.  0.
    8880022    1    1    2    0    0 -0.41144620463E+03 -0.15840608563E+03  0.18668347008E+03  0.50261599485E+03  0.15294330000E+03 0.  0.
<mgrwt>
<rscale>  0 0.46666061E+03</rscale>
<asrwt>0</asrwt>
<pdfrwt beam="1">  1        2 0.37757267E+00 0.46666061E+03</pdfrwt>
<pdfrwt beam="2">  1       -2 0.56670649E-01 0.46666061E+03</pdfrwt>
<totfact> 0.11996786E+01</totfact>
</mgrwt>
</event>
<event>
 4    1  0.4639964E-008  0.2921927E+03  0.7818608E-02  0.1089210E+00
          2   -1    0    0  501    0  0.00000000000E+00  0.00000000000E+00  0.21508012502E+04  0.21508012502E+04  0.25500000000E-02 0. -1.
         -2   -1    0    0    0  501 -0.00000000000E+00 -0.00000000000E+00 -0.91962394156E+02  0.91962394191E+02  0.25500000000E-02 0.  1.
    8880022    1    1    2    0    0  0.63595403041E+02 -0.24070843399E+03  0.18401836128E+03  0.34531049185E+03  0.15294330000E+03 0.  1.
    8880022    1    1    2    0    0 -0.63595403041E+02  0.24070843399E+03  0.18748204948E+04  0.18974531525E+04  0.15294330000E+03 0.  0.
<mgrwt>
<rscale>  0 0.29219271E+03</rscale>
<asrwt>0</asrwt>
<pdfrwt beam="1">  1        2 0.33089244E+00 0.29219271E+03</pdfrwt>
<pdfrwt beam="2">  1       -2 0.14148063E-01 0.29219271E+03</pdfrwt>
<totfact> 0.23308709E+02</totfact>
</mgrwt>
</event>
<event>
 4    1  0.4639964E-008  0.2342337E+03  0.7818608E-02  0.1123695E+00
         -2   -1    0    0    0  501 -0.00000000000E+00  0.00000000000E+00  0.60031672220E+02  0.60031672274E+02  0.25500000000E-02 0.  1.
          2   -1    0    0  501    0  0.00000000000E+00 -0.00000000000E+00 -0.24561372743E+04  0.24561372743E+04  0.25500000000E-02 0. -1.
    8880022    1    1    2    0    0 -0.12507141290E+03  0.12582105070E+03 -0.21949565100E+04  0.22074192010E+04  0.15294330000E+03 0.  0.
    8880022    1    1    2    0    0  0.12507141290E+03 -0.12582105070E+03 -0.20114909204E+03  0.30874974554E+03  0.15294330000E+03 0.  0.
<mgrwt>
<rscale>  0 0.23423375E+03</rscale>
<asrwt>0</asrwt>
<pdfrwt beam="1">  1        2 0.37786720E+00 0.23423375E+03</pdfrwt>
<pdfrwt beam="2">  1       -2 0.92356438E-02 0.23423375E+03</pdfrwt>
<totfact> 0.32295018E+02</totfact>
</mgrwt>
</event>
<event>
 4    1  0.4639964E-008  0.1368359E+04  0.7818608E-02  0.8977046E-01
          2   -1    0    0  501    0  0.00000000000E+00  0.00000000000E+00  0.24137871631E+04  0.24137871631E+04  0.25500000000E-02 0. -1.
         -2   -1    0    0    0  501 -0.00000000000E+00 -0.00000000000E+00 -0.99804677258E+03  0.99804677258E+03  0.25500000000E-02 0.  1.
    8880022    1    1    2    0    0 -0.11525383969E+04  0.72157403041E+03 -0.97295752450E+02  0.13718133817E+04  0.15294330000E+03 0.  0.
    8880022    1    1    2    0    0  0.11525383969E+04 -0.72157403041E+03  0.15130361429E+04  0.20400205540E+04  0.15294330000E+03 0.  0.
<mgrwt>
<rscale>  0 0.13683587E+04</rscale>
<asrwt>0</asrwt>
<pdfrwt beam="1">  1        2 0.37135187E+00 0.13683587E+04</pdfrwt>
<pdfrwt beam="2">  1       -2 0.15354566E+00 0.13683587E+04</pdfrwt>
<totfact> 0.10521550E+00</totfact>
</mgrwt>
</event>
<event>
 4    1  0.4639964E-008  0.4912037E+03  0.7818608E-02  0.1016101E+00
          2   -1    0    0  501    0  0.00000000000E+00  0.00000000000E+00  0.84057723944E+03  0.84057723944E+03  0.25500000000E-02 0. -1.
         -2   -1    0    0    0  501 -0.00000000000E+00 -0.00000000000E+00 -0.71204270522E+03  0.71204270523E+03  0.25500000000E-02 0.  1.
    8880022    1    1    2    0    0 -0.44005408663E+03  0.15569800343E+03 -0.53549187884E+03  0.72665856683E+03  0.15294330000E+03 0.  0.
    8880022    1    1    2    0    0  0.44005408663E+03 -0.15569800343E+03  0.66402641305E+03  0.82596137784E+03  0.15294330000E+03 0. -1.
<mgrwt>
<rscale>  0 0.49120375E+03</rscale>
<asrwt>0</asrwt>
<pdfrwt beam="1">  1        2 0.12931958E+00 0.49120375E+03</pdfrwt>
<pdfrwt beam="2">  1       -2 0.10954503E+00 0.49120375E+03</pdfrwt>
<totfact> 0.22384279E+01</totfact>
</mgrwt>
</event>
<event>
 4    1  0.4639964E-008  0.6301127E+03  0.7818608E-02  0.9844829E-01
          2   -1    0    0  501    0  0.00000000000E+00  0.00000000000E+00  0.52994633936E+03  0.52994633937E+03  0.25500000000E-02 0. -1.
         -2   -1    0    0    0  501 -0.00000000000E+00 -0.00000000000E+00 -0.11117694555E+04  0.11117694555E+04  0.25500000000E-02 0.  1.
    8880022    1    1    2    0    0 -0.55598410193E+03  0.25403156310E+03  0.17784698762E+03  0.65473014339E+03  0.15294330000E+03 0.  0.
    8880022    1    1    2    0    0  0.55598410193E+03 -0.25403156310E+03 -0.75967010371E+03  0.98698565144E+03  0.15294330000E+03 0.  0.
<mgrwt>
<rscale>  0 0.63011270E+03</rscale>
<asrwt>0</asrwt>
<pdfrwt beam="1">  1        2 0.81530206E-01 0.63011270E+03</pdfrwt>
<pdfrwt beam="2">  1       -2 0.17104145E+00 0.63011270E+03</pdfrwt>
<totfact> 0.12404598E+01</totfact>
</mgrwt>
</event>
<event>
 4    1  0.4639964E-008  0.1045538E+04  0.7818608E-02  0.9259963E-01
          2   -1    0    0  501    0  0.00000000000E+00  0.00000000000E+00  0.95206028448E+03  0.95206028449E+03  0.25500000000E-02 0. -1.
         -2   -1    0    0    0  501 -0.00000000000E+00 -0.00000000000E+00 -0.14181249462E+04  0.14181249462E+04  0.25500000000E-02 0.  1.
    8880022    1    1    2    0    0  0.97687051295E+02 -0.10296676741E+04 -0.75006901812E+03  0.12867608418E+04  0.15294330000E+03 0.  0.
    8880022    1    1    2    0    0 -0.97687051295E+02  0.10296676741E+04  0.28400435638E+03  0.10834243889E+04  0.15294330000E+03 0.  0.
<mgrwt>
<rscale>  0 0.10455381E+04</rscale>
<asrwt>0</asrwt>
<pdfrwt beam="1">  1        2 0.14647081E+00 0.10455381E+04</pdfrwt>
<pdfrwt beam="2">  1       -2 0.21817307E+00 0.10455381E+04</pdfrwt>
<totfact> 0.27159325E+00</totfact>
</mgrwt>
</event>
<event>
 4    1  0.4639964E-008  0.2894312E+03  0.7818608E-02  0.1090647E+00
         -2   -1    0    0    0  501 -0.00000000000E+00  0.00000000000E+00  0.20484874078E+03  0.20484874080E+03  0.25500000000E-02 0.  1.
          2   -1    0    0  501    0  0.00000000000E+00 -0.00000000000E+00 -0.95044176833E+03  0.95044176833E+03  0.25500000000E-02 0. -1.
    8880022    1    1    2    0    0  0.23152027188E+03 -0.82323218753E+02 -0.80880933356E+03  0.85903605262E+03  0.15294330000E+03 0. -1.
    8880022    1    1    2    0    0 -0.23152027188E+03  0.82323218753E+02  0.63216306019E+02  0.29625445650E+03  0.15294330000E+03 0.  0.
<mgrwt>
<rscale>  0 0.28943117E+03</rscale>
<asrwt>0</asrwt>
<pdfrwt beam="1">  1        2 0.14622181E+00 0.28943117E+03</pdfrwt>
<pdfrwt beam="2">  1       -2 0.31515191E-01 0.28943117E+03</pdfrwt>
<totfact> 0.26502317E+02</totfact>
</mgrwt>
</event>
<event>
 4    1  0.4639964E-008  0.9258745E+03  0.7818608E-02  0.9393803E-01
         -2   -1    0    0    0  501 -0.00000000000E+00  0.00000000000E+00  0.47482982051E+03  0.47482982052E+03  0.25500000000E-02 0.  1.
          2   -1    0    0  501    0  0.00000000000E+00 -0.00000000000E+00 -0.26730922445E+04  0.26730922445E+04  0.25500000000E-02 0. -1.
    8880022    1    1    2    0    0  0.60702948306E+03 -0.68217824284E+03 -0.20236895348E+03  0.94773244888E+03  0.15294330000E+03 0.  0.
    8880022    1    1    2    0    0 -0.60702948306E+03  0.68217824284E+03 -0.19958934705E+04  0.22001896161E+04  0.15294330000E+03 0.  0.
<mgrwt>
<rscale>  0 0.92587451E+03</rscale>
<asrwt>0</asrwt>
<pdfrwt beam="1">  1        2 0.41124495E+00 0.92587451E+03</pdfrwt>
<pdfrwt beam="2">  1       -2 0.73050743E-01 0.92587451E+03</pdfrwt>
<totfact> 0.47805079E+00</totfact>
</mgrwt>
</event>
<event>
 4    1  0.4639964E-008  0.8284571E+03  0.7818608E-02  0.9519716E-01
          2   -1    0    0  501    0  0.00000000000E+00  0.00000000000E+00  0.16538371438E+04  0.16538371438E+04  0.25500000000E-02 0. -1.
         -2   -1    0    0    0  501 -0.00000000000E+00 -0.00000000000E+00 -0.48064458523E+03  0.48064458524E+03  0.25500000000E-02 0.  1.
    8880022    1    1    2    0    0  0.73213918963E+03 -0.35626071902E+03  0.19218219861E+03  0.85045584447E+03  0.15294330000E+03 0.  0.
    8880022    1    1    2    0    0 -0.73213918963E+03  0.35626071902E+03  0.98101035995E+03  0.12840258846E+04  0.15294330000E+03 0.  0.
<mgrwt>
<rscale>  0 0.82845709E+03</rscale>
<asrwt>0</asrwt>
<pdfrwt beam="1">  1        2 0.25443648E+00 0.82845709E+03</pdfrwt>
<pdfrwt beam="2">  1       -2 0.73945321E-01 0.82845709E+03</pdfrwt>
<totfact> 0.17439328E+01</totfact>
</mgrwt>
</event>
<event>
 4    1  0.4639964E-008  0.9137312E+03  0.7818608E-02  0.9408578E-01
          2   -1    0    0  501    0  0.00000000000E+00  0.00000000000E+00  0.17484121324E+04  0.17484121324E+04  0.25500000000E-02 0. -1.
         -2   -1    0    0    0  501 -0.00000000000E+00 -0.00000000000E+00 -0.66391244920E+03  0.66391244921E+03  0.25500000000E-02 0.  1.
    8880022    1    1    2    0    0 -0.47227476196E+03  0.76711776852E+03  0.11813405306E+04  0.14934758866E+04  0.15294330000E+03 0.  0.
    8880022    1    1    2    0    0  0.47227476196E+03 -0.76711776852E+03 -0.96840847422E+02  0.91884869500E+03  0.15294330000E+03 0.  0.
<mgrwt>
<rscale>  0 0.91373124E+03</rscale>
<asrwt>0</asrwt>
<pdfrwt beam="1">  1        2 0.26898648E+00 0.91373124E+03</pdfrwt>
<pdfrwt beam="2">  1       -2 0.10214038E+00 0.91373124E+03</pdfrwt>
<totfact> 0.72928069E+00</totfact>
</mgrwt>
</event>
<event>
 4    1  0.4639964E-008  0.4496113E+03  0.7818608E-02  0.1027838E+00
          2   -1    0    0  501    0  0.00000000000E+00  0.00000000000E+00  0.23402575817E+03  0.23402575819E+03  0.25500000000E-02 0. -1.
         -2   -1    0    0    0  501 -0.00000000000E+00 -0.00000000000E+00 -0.16271501059E+04  0.16271501059E+04  0.25500000000E-02 0.  1.
    8880022    1    1    2    0    0 -0.35537119322E+03  0.22906330711E+03 -0.13339545215E+04  0.14076878213E+04  0.15294330000E+03 0.  0.
    8880022    1    1    2    0    0  0.35537119322E+03 -0.22906330711E+03 -0.59169826209E+02  0.45348804283E+03  0.15294330000E+03 0.  0.
<mgrwt>
<rscale>  0 0.44961132E+03</rscale>
<asrwt>0</asrwt>
<pdfrwt beam="1">  1        2 0.36003964E-01 0.44961132E+03</pdfrwt>
<pdfrwt beam="2">  1       -2 0.25033078E+00 0.44961132E+03</pdfrwt>
<totfact> 0.99054793E+00</totfact>
</mgrwt>
</event>
<event>
 4    1  0.4639964E-008  0.1858081E+03  0.7818608E-02  0.1162297E+00
         -2   -1    0    0    0  501 -0.00000000000E+00  0.00000000000E+00  0.21026729176E+03  0.21026729177E+03  0.25500000000E-02 0.  1.
          2   -1    0    0  501    0  0.00000000000E+00 -0.00000000000E+00 -0.16982252754E+03  0.16982252756E+03  0.25500000000E-02 0. -1.
    8880022    1    1    2    0    0  0.17864357955E+02 -0.10398978736E+03  0.54820246986E+02  0.19372641445E+03  0.15294330000E+03 0. -1.
    8880022    1    1    2    0    0 -0.17864357955E+02  0.10398978736E+03 -0.14375482771E+02  0.18636340488E+03  0.15294330000E+03 0.  0.
<mgrwt>
<rscale>  0 0.18580814E+03</rscale>
<asrwt>0</asrwt>
<pdfrwt beam="1">  1        2 0.26126543E-01 0.18580814E+03</pdfrwt>
<pdfrwt beam="2">  1       -2 0.32348814E-01 0.18580814E+03</pdfrwt>
<totfact> 0.17963694E+03</totfact>
</mgrwt>
</event>
<event>
 4    1  0.4639964E-008  0.5458336E+03  0.7818608E-02  0.1002463E+00
          2   -1    0    0  501    0  0.00000000000E+00  0.00000000000E+00  0.17677523524E+04  0.17677523524E+04  0.25500000000E-02 0. -1.
         -2   -1    0    0    0  501 -0.00000000000E+00 -0.00000000000E+00 -0.50952923540E+03  0.50952923541E+03  0.25500000000E-02 0.  1.
    8880022    1    1    2    0    0 -0.18921831271E+02  0.52362639313E+03 -0.30236834613E+03  0.62398790456E+03  0.15294330000E+03 0.  0.
    8880022    1    1    2    0    0  0.18921831271E+02 -0.52362639313E+03  0.15605914631E+04  0.16532936833E+04  0.15294330000E+03 0.  0.
<mgrwt>
<rscale>  0 0.54583357E+03</rscale>
<asrwt>0</asrwt>
<pdfrwt beam="1">  1        2 0.27196191E+00 0.54583357E+03</pdfrwt>
<pdfrwt beam="2">  1       -2 0.78389112E-01 0.54583357E+03</pdfrwt>
<totfact> 0.13851516E+01</totfact>
</mgrwt>
</event>
<event>
 4    1  0.4639964E-008  0.4596979E+03  0.7818608E-02  0.1024869E+00
          2   -1    0    0  501    0  0.00000000000E+00  0.00000000000E+00  0.18683909811E+04  0.18683909811E+04  0.25500000000E-02 0. -1.
         -2   -1    0    0    0  501 -0.00000000000E+00 -0.00000000000E+00 -0.39676824467E+03  0.39676824467E+03  0.25500000000E-02 0.  1.
    8880022    1    1    2    0    0 -0.14066172846E+03 -0.41005463488E+03 -0.22182959425E+03  0.51042193070E+03  0.15294330000E+03 0.  0.
    8880022    1    1    2    0    0  0.14066172846E+03  0.41005463488E+03  0.16934523307E+04  0.17547372951E+04  0.15294330000E+03 0.  0.
<mgrwt>
<rscale>  0 0.45969792E+03</rscale>
<asrwt>0</asrwt>
<pdfrwt beam="1">  1        2 0.28744477E+00 0.45969792E+03</pdfrwt>
<pdfrwt beam="2">  1       -2 0.61041268E-01 0.45969792E+03</pdfrwt>
<totfact> 0.21395177E+01</totfact>
</mgrwt>
</event>
<event>
 4    1  0.4639964E-008  0.8160819E+03  0.7818608E-02  0.9537027E-01
          2   -1    0    0  501    0  0.00000000000E+00  0.00000000000E+00  0.30231393398E+04  0.30231393398E+04  0.25500000000E-02 0. -1.
         -2   -1    0    0    0  501 -0.00000000000E+00 -0.00000000000E+00 -0.47931145829E+03  0.47931145829E+03  0.25500000000E-02 0.  1.
    8880022    1    1    2    0    0 -0.78476815723E+03 -0.16351415631E+03  0.25592586423E+04  0.26862230717E+04  0.15294330000E+03 0.  0.
    8880022    1    1    2    0    0  0.78476815723E+03  0.16351415631E+03 -0.15430760767E+02  0.81622772638E+03  0.15294330000E+03 0.  0.
<mgrwt>
<rscale>  0 0.81608185E+03</rscale>
<asrwt>0</asrwt>
<pdfrwt beam="1">  1        2 0.46509836E+00 0.81608185E+03</pdfrwt>
<pdfrwt beam="2">  1       -2 0.73740224E-01 0.81608185E+03</pdfrwt>
<totfact> 0.29429959E+00</totfact>
</mgrwt>
</event>
<event>
 4    1  0.4639964E-008  0.6311370E+03  0.7818608E-02  0.9842833E-01
         -2   -1    0    0    0  501 -0.00000000000E+00  0.00000000000E+00  0.88147212382E+03  0.88147212382E+03  0.25500000000E-02 0.  1.
          2   -1    0    0  501    0  0.00000000000E+00 -0.00000000000E+00 -0.90734976191E+03  0.90734976192E+03  0.25500000000E-02 0. -1.
    8880022    1    1    2    0    0  0.40153711380E+03 -0.46228798434E+03 -0.64662144399E+03  0.90357798726E+03  0.15294330000E+03 0.  0.
    8880022    1    1    2    0    0 -0.40153711380E+03  0.46228798434E+03  0.62074380589E+03  0.88524389848E+03  0.15294330000E+03 0.  0.
<mgrwt>
<rscale>  0 0.63113698E+03</rscale>
<asrwt>0</asrwt>
<pdfrwt beam="1">  1        2 0.13959227E+00 0.63113698E+03</pdfrwt>
<pdfrwt beam="2">  1       -2 0.13561110E+00 0.63113698E+03</pdfrwt>
<totfact> 0.11660572E+01</totfact>
</mgrwt>
</event>
<event>
 4    1  0.4639964E-008  0.8616129E+03  0.7818608E-02  0.9474882E-01
          2   -1    0    0  501    0  0.00000000000E+00  0.00000000000E+00  0.19176816515E+04  0.19176816515E+04  0.25500000000E-02 0. -1.
         -2   -1    0    0    0  501 -0.00000000000E+00 -0.00000000000E+00 -0.45025471389E+03  0.45025471390E+03  0.25500000000E-02 0.  1.
    8880022    1    1    2    0    0  0.63239215302E+03 -0.56485867591E+03  0.11770546020E+04  0.14587098231E+04  0.15294330000E+03 0.  0.
    8880022    1    1    2    0    0 -0.63239215302E+03  0.56485867591E+03  0.29037233567E+03  0.90922654234E+03  0.15294330000E+03 0.  0.
<mgrwt>
<rscale>  0 0.86161291E+03</rscale>
<asrwt>0</asrwt>
<pdfrwt beam="1">  1        2 0.29502795E+00 0.86161291E+03</pdfrwt>
<pdfrwt beam="2">  1       -2 0.69269955E-01 0.86161291E+03</pdfrwt>
<totfact> 0.14370983E+01</totfact>
</mgrwt>
</event>
<event>
 4    1  0.4639964E-008  0.6271376E+03  0.7818608E-02  0.9850651E-01
         -2   -1    0    0    0  501 -0.00000000000E+00  0.00000000000E+00  0.29248248986E+03  0.29248248987E+03  0.25500000000E-02 0.  1.
          2   -1    0    0  501    0  0.00000000000E+00 -0.00000000000E+00 -0.17167055675E+04  0.17167055675E+04  0.25500000000E-02 0. -1.
    8880022    1    1    2    0    0  0.54631379513E+03 -0.26730343860E+03 -0.24446607503E+03  0.67310118548E+03  0.15294330000E+03 0.  0.
    8880022    1    1    2    0    0 -0.54631379513E+03  0.26730343860E+03 -0.11797570026E+04  0.13360868719E+04  0.15294330000E+03 0.  0.
<mgrwt>
<rscale>  0 0.62713758E+03</rscale>
<asrwt>0</asrwt>
<pdfrwt beam="1">  1        2 0.26410854E+00 0.62713758E+03</pdfrwt>
<pdfrwt beam="2">  1       -2 0.44997307E-01 0.62713758E+03</pdfrwt>
<totfact> 0.46809434E+01</totfact>
</mgrwt>
</event>
<event>
 4    1  0.4639964E-008  0.2348613E+03  0.7818608E-02  0.1123264E+00
         -2   -1    0    0    0  501 -0.00000000000E+00  0.00000000000E+00  0.53534356967E+02  0.53534357028E+02  0.25500000000E-02 0.  1.
          2   -1    0    0  501    0  0.00000000000E+00 -0.00000000000E+00 -0.12688605708E+04  0.12688605708E+04  0.25500000000E-02 0. -1.
    8880022    1    1    2    0    0  0.17542316442E+03 -0.31542163658E+02 -0.89432221689E+03  0.92464700040E+03  0.15294330000E+03 0.  0.
    8880022    1    1    2    0    0 -0.17542316442E+03  0.31542163658E+02 -0.32100399690E+03  0.39774792739E+03  0.15294330000E+03 0.  0.
<mgrwt>
<rscale>  0 0.23486134E+03</rscale>
<asrwt>0</asrwt>
<pdfrwt beam="1">  1        2 0.19520930E+00 0.23486134E+03</pdfrwt>
<pdfrwt beam="2">  1       -2 0.82360559E-02 0.23486134E+03</pdfrwt>
<totfact> 0.16513957E+03</totfact>
</mgrwt>
</event>
<event>
 4    1  0.4639964E-008  0.5756131E+03  0.7818608E-02  0.9957334E-01
         -2   -1    0    0    0  501 -0.00000000000E+00  0.00000000000E+00  0.64491191350E+03  0.64491191351E+03  0.25500000000E-02 0.  1.
          2   -1    0    0  501    0  0.00000000000E+00 -0.00000000000E+00 -0.68047297119E+03  0.68047297120E+03  0.25500000000E-02 0. -1.
    8880022    1    1    2    0    0  0.53773335929E+03  0.13704590880E+03 -0.34579299889E+03  0.67149325976E+03  0.15294330000E+03 0.  0.
    8880022    1    1    2    0    0 -0.53773335929E+03 -0.13704590880E+03  0.31023194120E+03  0.65389162494E+03  0.15294330000E+03 0.  0.
<mgrwt>
<rscale>  0 0.57561306E+03</rscale>
<asrwt>0</asrwt>
<pdfrwt beam="1">  1        2 0.10468815E+00 0.57561306E+03</pdfrwt>
<pdfrwt beam="2">  1       -2 0.99217217E-01 0.57561306E+03</pdfrwt>
<totfact> 0.36784406E+01</totfact>
</mgrwt>
</event>
<event>
 4    1  0.4639964E-008  0.3803618E+03  0.7818608E-02  0.1050800E+00
         -2   -1    0    0    0  501 -0.00000000000E+00  0.00000000000E+00  0.31020765533E+03  0.31020765534E+03  0.25500000000E-02 0.  1.
          2   -1    0    0  501    0  0.00000000000E+00 -0.00000000000E+00 -0.64183371928E+03  0.64183371928E+03  0.25500000000E-02 0. -1.
    8880022    1    1    2    0    0  0.33367614577E+03  0.99718112742E+02  0.83069227473E+02  0.38932713986E+03  0.15294330000E+03 0.  0.
    8880022    1    1    2    0    0 -0.33367614577E+03 -0.99718112742E+02 -0.41469529142E+03  0.56271423476E+03  0.15294330000E+03 0.  0.
<mgrwt>
<rscale>  0 0.38036183E+03</rscale>
<asrwt>0</asrwt>
<pdfrwt beam="1">  1        2 0.98743649E-01 0.38036183E+03</pdfrwt>
<pdfrwt beam="2">  1       -2 0.47724255E-01 0.38036183E+03</pdfrwt>
<totfact> 0.19626688E+02</totfact>
</mgrwt>
</event>
<event>
 4    1  0.4639964E-008  0.4885498E+03  0.7818608E-02  0.1016812E+00
         -2   -1    0    0    0  501 -0.00000000000E+00  0.00000000000E+00  0.55743682272E+03  0.55743682273E+03  0.25500000000E-02 0.  1.
          2   -1    0    0  501    0  0.00000000000E+00 -0.00000000000E+00 -0.87209748050E+03  0.87209748050E+03  0.25500000000E-02 0. -1.
    8880022    1    1    2    0    0  0.45728045878E+03  0.78637646148E+02  0.35262866288E+03  0.60251798668E+03  0.15294330000E+03 0.  0.
    8880022    1    1    2    0    0 -0.45728045878E+03 -0.78637646148E+02 -0.66728932066E+03  0.82701631655E+03  0.15294330000E+03 0.  0.
<mgrwt>
<rscale>  0 0.48854984E+03</rscale>
<asrwt>0</asrwt>
<pdfrwt beam="1">  1        2 0.13416884E+00 0.48854984E+03</pdfrwt>
<pdfrwt beam="2">  1       -2 0.85759511E-01 0.48854984E+03</pdfrwt>
<totfact> 0.37753389E+01</totfact>
</mgrwt>
</event>
<event>
 4    1  0.4639964E-008  0.2062889E+03  0.7818608E-02  0.1144539E+00
          2   -1    0    0  501    0  0.00000000000E+00  0.00000000000E+00  0.15566829259E+04  0.15566829259E+04  0.25500000000E-02 0. -1.
         -2   -1    0    0    0  501 -0.00000000000E+00 -0.00000000000E+00 -0.30308662361E+03  0.30308662362E+03  0.25500000000E-02 0.  1.
    8880022    1    1    2    0    0  0.12823544497E+03  0.52145287259E+02 -0.26016010315E+03  0.33202167492E+03  0.15294330000E+03 0.  0.
    8880022    1    1    2    0    0 -0.12823544497E+03 -0.52145287259E+02  0.15137564054E+04  0.15277478746E+04  0.15294330000E+03 0. -1.
<mgrwt>
<rscale>  0 0.20628891E+03</rscale>
<asrwt>0</asrwt>
<pdfrwt beam="1">  1        2 0.23948968E+00 0.20628891E+03</pdfrwt>
<pdfrwt beam="2">  1       -2 0.46628711E-01 0.20628891E+03</pdfrwt>
<totfact> 0.58267493E+01</totfact>
</mgrwt>
</event>
<event>
 4    1  0.4639964E-008  0.6091789E+03  0.7818608E-02  0.9886544E-01
          2   -1    0    0  501    0  0.00000000000E+00  0.00000000000E+00  0.34582396918E+04  0.34582396919E+04  0.25500000000E-02 0. -1.
         -2   -1    0    0    0  501 -0.00000000000E+00 -0.00000000000E+00 -0.21873782771E+03  0.21873782773E+03  0.25500000000E-02 0.  1.
    8880022    1    1    2    0    0 -0.58602506280E+03 -0.65436187446E+02  0.29319464708E+04  0.29945632452E+04  0.15294330000E+03 0.  0.
    8880022    1    1    2    0    0  0.58602506280E+03  0.65436187446E+02  0.30755539330E+03  0.68241427434E+03  0.15294330000E+03 0.  0.
<mgrwt>
<rscale>  0 0.60917889E+03</rscale>
<asrwt>0</asrwt>
<pdfrwt beam="1">  1        2 0.53203686E+00 0.60917889E+03</pdfrwt>
<pdfrwt beam="2">  1       -2 0.33651974E-01 0.60917889E+03</pdfrwt>
<totfact> 0.79922591E+00</totfact>
</mgrwt>
</event>
<event>
 4    1  0.4639964E-008  0.8021023E+03  0.7818608E-02  0.9556979E-01
         -2   -1    0    0    0  501 -0.00000000000E+00  0.00000000000E+00  0.92535632419E+03  0.92535632420E+03  0.25500000000E-02 0.  1.
          2   -1    0    0  501    0  0.00000000000E+00 -0.00000000000E+00 -0.15286530008E+04  0.15286530008E+04  0.25500000000E-02 0. -1.
    8880022    1    1    2    0    0  0.78561078751E+03  0.52840614223E+02  0.60432478435E+03  0.10042791136E+04  0.15294330000E+03 0.  0.
    8880022    1    1    2    0    0 -0.78561078751E+03 -0.52840614223E+02 -0.12076214610E+04  0.14497302115E+04  0.15294330000E+03 0.  0.
<mgrwt>
<rscale>  0 0.80210230E+03</rscale>
<asrwt>0</asrwt>
<pdfrwt beam="1">  1        2 0.23517738E+00 0.80210230E+03</pdfrwt>
<pdfrwt beam="2">  1       -2 0.14236251E+00 0.80210230E+03</pdfrwt>
<totfact> 0.42836042E+00</totfact>
</mgrwt>
</event>
<event>
 4    1  0.4639964E-008  0.8404899E+03  0.7818608E-02  0.9503191E-01
         -2   -1    0    0    0  501 -0.00000000000E+00  0.00000000000E+00  0.38553322178E+03  0.38553322179E+03  0.25500000000E-02 0.  1.
          2   -1    0    0  501    0  0.00000000000E+00 -0.00000000000E+00 -0.20492000532E+04  0.20492000532E+04  0.25500000000E-02 0. -1.
    8880022    1    1    2    0    0  0.24559947203E+03 -0.78912132031E+03 -0.43580049789E+03  0.94675513508E+03  0.15294330000E+03 0.  0.
    8880022    1    1    2    0    0 -0.24559947203E+03  0.78912132031E+03 -0.12278663335E+04  0.14879781399E+04  0.15294330000E+03 0.  0.
<mgrwt>
<rscale>  0 0.84048986E+03</rscale>
<asrwt>0</asrwt>
<pdfrwt beam="1">  1        2 0.31526154E+00 0.84048986E+03</pdfrwt>
<pdfrwt beam="2">  1       -2 0.59312805E-01 0.84048986E+03</pdfrwt>
<totfact> 0.17029270E+01</totfact>
</mgrwt>
</event>
<event>
 4    1  0.4639964E-008  0.1048163E+04  0.7818608E-02  0.9257243E-01
         -2   -1    0    0    0  501 -0.00000000000E+00  0.00000000000E+00  0.72528164413E+03  0.72528164414E+03  0.25500000000E-02 0.  1.
          2   -1    0    0  501    0  0.00000000000E+00 -0.00000000000E+00 -0.23380125904E+04  0.23380125904E+04  0.25500000000E-02 0. -1.
    8880022    1    1    2    0    0 -0.84580047709E+03  0.59989641969E+03  0.10249084833E+03  0.10531619953E+04  0.15294330000E+03 0.  1.
    8880022    1    1    2    0    0  0.84580047709E+03 -0.59989641969E+03 -0.17152217946E+04  0.20101322392E+04  0.15294330000E+03 0.  0.
<mgrwt>
<rscale>  0 0.10481631E+04</rscale>
<asrwt>0</asrwt>
<pdfrwt beam="1">  1        2 0.35969424E+00 0.10481631E+04</pdfrwt>
<pdfrwt beam="2">  1       -2 0.11158179E+00 0.10481631E+04</pdfrwt>
<totfact> 0.27327141E+00</totfact>
</mgrwt>
</event>
<event>
 4    1  0.4639964E-008  0.4609292E+03  0.7818608E-02  0.1024512E+00
         -2   -1    0    0    0  501 -0.00000000000E+00  0.00000000000E+00  0.32166902487E+04  0.32166902487E+04  0.25500000000E-02 0.  1.
          2   -1    0    0  501    0  0.00000000000E+00 -0.00000000000E+00 -0.40306668381E+03  0.40306668382E+03  0.25500000000E-02 0. -1.
    8880022    1    1    2    0    0 -0.40469007468E+03  0.15902824134E+03 -0.24815013343E+03  0.52348274071E+03  0.15294330000E+03 0. -1.
    8880022    1    1    2    0    0  0.40469007468E+03 -0.15902824134E+03  0.30617736983E+04  0.30962741918E+04  0.15294330000E+03 0.  0.
<mgrwt>
<rscale>  0 0.46092916E+03</rscale>
<asrwt>0</asrwt>
<pdfrwt beam="1">  1        2 0.62010260E-01 0.46092916E+03</pdfrwt>
<pdfrwt beam="2">  1       -2 0.49487542E+00 0.46092916E+03</pdfrwt>
<totfact> 0.15952873E-01</totfact>
</mgrwt>
</event>
<event>
 4    1  0.4639964E-008  0.3109973E+03  0.7818608E-02  0.1079869E+00
         -2   -1    0    0    0  501 -0.00000000000E+00  0.00000000000E+00  0.15081222760E+03  0.15081222762E+03  0.25500000000E-02 0.  1.
          2   -1    0    0  501    0  0.00000000000E+00 -0.00000000000E+00 -0.97363212072E+03  0.97363212073E+03  0.25500000000E-02 0. -1.
    8880022    1    1    2    0    0  0.16102525980E+03 -0.21771206347E+03 -0.82950510721E+02  0.32186972072E+03  0.15294330000E+03 0.  0.
    8880022    1    1    2    0    0 -0.16102525980E+03  0.21771206347E+03 -0.73986938240E+03  0.80257462762E+03  0.15294330000E+03 0.  0.
<mgrwt>
<rscale>  0 0.31099731E+03</rscale>
<asrwt>0</asrwt>
<pdfrwt beam="1">  1        2 0.14978955E+00 0.31099731E+03</pdfrwt>
<pdfrwt beam="2">  1       -2 0.23201882E-01 0.31099731E+03</pdfrwt>
<totfact> 0.44337522E+02</totfact>
</mgrwt>
</event>
<event>
 4    1  0.4639964E-008  0.1070188E+04  0.7818608E-02  0.9234746E-01
          2   -1    0    0  501    0  0.00000000000E+00  0.00000000000E+00  0.21077182863E+04  0.21077182863E+04  0.25500000000E-02 0. -1.
         -2   -1    0    0    0  501 -0.00000000000E+00 -0.00000000000E+00 -0.95351712163E+03  0.95351712163E+03  0.25500000000E-02 0.  1.
    8880022    1    1    2    0    0  0.10568446984E+04  0.70640127779E+02 -0.42673920000E+03  0.11521322589E+04  0.15294330000E+03 0.  0.
    8880022    1    1    2    0    0 -0.10568446984E+04 -0.70640127779E+02  0.15809403647E+04  0.19091031491E+04  0.15294330000E+03 0.  0.
<mgrwt>
<rscale>  0 0.10701880E+04</rscale>
<asrwt>0</asrwt>
<pdfrwt beam="1">  1        2 0.32426435E+00 0.10701880E+04</pdfrwt>
<pdfrwt beam="2">  1       -2 0.14669494E+00 0.10701880E+04</pdfrwt>
<totfact> 0.18301818E+00</totfact>
</mgrwt>
</event>
<event>
 4    1  0.4639964E-008  0.1060872E+04  0.7818608E-02  0.9244191E-01
         -2   -1    0    0    0  501 -0.00000000000E+00  0.00000000000E+00  0.43458305891E+03  0.43458305892E+03  0.25500000000E-02 0.  1.
          2   -1    0    0  501    0  0.00000000000E+00 -0.00000000000E+00 -0.43846246918E+04  0.43846246918E+04  0.25500000000E-02 0. -1.
    8880022    1    1    2    0    0  0.25524114639E+03 -0.10182872029E+04 -0.43331996109E+03  0.11459558072E+04  0.15294330000E+03 0.  0.
    8880022    1    1    2    0    0 -0.25524114639E+03  0.10182872029E+04 -0.35167216718E+04  0.36732519434E+04  0.15294330000E+03 0.  0.
<mgrwt>
<rscale>  0 0.10608716E+04</rscale>
<asrwt>0</asrwt>
<pdfrwt beam="1">  1        2 0.67455761E+00 0.10608716E+04</pdfrwt>
<pdfrwt beam="2">  1       -2 0.66858935E-01 0.10608716E+04</pdfrwt>
<totfact> 0.34448214E-01</totfact>
</mgrwt>
</event>
<event>
 4    1  0.4639964E-008  0.5742684E+03  0.7818608E-02  0.9960277E-01
         -2   -1    0    0    0  501 -0.00000000000E+00  0.00000000000E+00  0.84140738810E+03  0.84140738810E+03  0.25500000000E-02 0.  1.
          2   -1    0    0  501    0  0.00000000000E+00 -0.00000000000E+00 -0.64221710662E+03  0.64221710663E+03  0.25500000000E-02 0. -1.
    8880022    1    1    2    0    0  0.33507802182E+03  0.44058515749E+03  0.56267994544E+03  0.80398565642E+03  0.15294330000E+03 0.  0.
    8880022    1    1    2    0    0 -0.33507802182E+03 -0.44058515749E+03 -0.36348966397E+03  0.67963883831E+03  0.15294330000E+03 0.  0.
<mgrwt>
<rscale>  0 0.57426842E+03</rscale>
<asrwt>0</asrwt>
<pdfrwt beam="1">  1        2 0.98802633E-01 0.57426842E+03</pdfrwt>
<pdfrwt beam="2">  1       -2 0.12944729E+00 0.57426842E+03</pdfrwt>
<totfact> 0.20683105E+01</totfact>
</mgrwt>
</event>
<event>
 4    1  0.4639964E-008  0.8682817E+03  0.7818608E-02  0.9466123E-01
         -2   -1    0    0    0  501 -0.00000000000E+00  0.00000000000E+00  0.47056404458E+03  0.47056404459E+03  0.25500000000E-02 0.  1.
          2   -1    0    0  501    0  0.00000000000E+00 -0.00000000000E+00 -0.17027927839E+04  0.17027927839E+04  0.25500000000E-02 0. -1.
    8880022    1    1    2    0    0  0.59707390920E+03 -0.61157524272E+03 -0.35192456864E+03  0.93689064761E+03  0.15294330000E+03 0.  0.
    8880022    1    1    2    0    0 -0.59707390920E+03  0.61157524272E+03 -0.88030417071E+03  0.12364661809E+04  0.15294330000E+03 0.  0.
<mgrwt>
<rscale>  0 0.86828174E+03</rscale>
<asrwt>0</asrwt>
<pdfrwt beam="1">  1        2 0.26196812E+00 0.86828174E+03</pdfrwt>
<pdfrwt beam="2">  1       -2 0.72394469E-01 0.86828174E+03</pdfrwt>
<totfact> 0.17096662E+01</totfact>
</mgrwt>
</event>
<event>
 4    1  0.4639964E-008  0.2847202E+03  0.7818608E-02  0.1093138E+00
          2   -1    0    0  501    0  0.00000000000E+00  0.00000000000E+00  0.19338528254E+04  0.19338528254E+04  0.25500000000E-02 0. -1.
         -2   -1    0    0    0  501 -0.00000000000E+00 -0.00000000000E+00 -0.10100712043E+03  0.10100712046E+03  0.25500000000E-02 0.  1.
    8880022    1    1    2    0    0  0.83201648791E+02  0.22528078698E+03  0.13824688388E+03  0.31650876965E+03  0.15294330000E+03 0.  1.
    8880022    1    1    2    0    0 -0.83201648791E+02 -0.22528078698E+03  0.16945988211E+04  0.17183511763E+04  0.15294330000E+03 0.  0.
<mgrwt>
<rscale>  0 0.28472021E+03</rscale>
<asrwt>0</asrwt>
<pdfrwt beam="1">  1        2 0.29751581E+00 0.28472021E+03</pdfrwt>
<pdfrwt beam="2">  1       -2 0.15539557E-01 0.28472021E+03</pdfrwt>
<totfact> 0.26022824E+02</totfact>
</mgrwt>
</event>
<event>
 4    1  0.4639964E-008  0.6227302E+03  0.7818608E-02  0.9859339E-01
          2   -1    0    0  501    0  0.00000000000E+00  0.00000000000E+00  0.24984342102E+03  0.24984342103E+03  0.25500000000E-02 0. -1.
         -2   -1    0    0    0  501 -0.00000000000E+00 -0.00000000000E+00 -0.20776600840E+04  0.20776600840E+04  0.25500000000E-02 0.  1.
    8880022    1    1    2    0    0 -0.10781414245E+03  0.59395064726E+03 -0.32862494836E+03  0.70412163040E+03  0.15294330000E+03 0.  0.
    8880022    1    1    2    0    0  0.10781414245E+03 -0.59395064726E+03 -0.14991917146E+04  0.16233818746E+04  0.15294330000E+03 0.  0.
<mgrwt>
<rscale>  0 0.62273021E+03</rscale>
<asrwt>0</asrwt>
<pdfrwt beam="1">  1        2 0.38437451E-01 0.62273021E+03</pdfrwt>
<pdfrwt beam="2">  1       -2 0.31964000E+00 0.62273021E+03</pdfrwt>
<totfact> 0.34498937E+00</totfact>
</mgrwt>
</event>
<event>
 4    1  0.4639964E-008  0.2705900E+03  0.7818608E-02  0.1100942E+00
         -2   -1    0    0    0  501 -0.00000000000E+00  0.00000000000E+00  0.15188170345E+03  0.15188170347E+03  0.25500000000E-02 0.  1.
          2   -1    0    0  501    0  0.00000000000E+00 -0.00000000000E+00 -0.77155643639E+03  0.77155643639E+03  0.25500000000E-02 0. -1.
    8880022    1    1    2    0    0 -0.18721461455E+03  0.12156463146E+03 -0.59265181584E+03  0.65150218676E+03  0.15294330000E+03 0.  0.
    8880022    1    1    2    0    0  0.18721461455E+03 -0.12156463146E+03 -0.27022917101E+02  0.27193595310E+03  0.15294330000E+03 0.  0.
<mgrwt>
<rscale>  0 0.27058996E+03</rscale>
<asrwt>0</asrwt>
<pdfrwt beam="1">  1        2 0.11870099E+00 0.27058996E+03</pdfrwt>
<pdfrwt beam="2">  1       -2 0.23366416E-01 0.27058996E+03</pdfrwt>
<totfact> 0.59805497E+02</totfact>
</mgrwt>
</event>
<event>
 4    1  0.4639964E-008  0.8210801E+03  0.7818608E-02  0.9529996E-01
          2   -1    0    0  501    0  0.00000000000E+00  0.00000000000E+00  0.12538724530E+04  0.12538724530E+04  0.25500000000E-02 0. -1.
         -2   -1    0    0    0  501 -0.00000000000E+00 -0.00000000000E+00 -0.10265207253E+04  0.10265207253E+04  0.25500000000E-02 0.  1.
    8880022    1    1    2    0    0  0.60490105861E+03  0.53373733257E+03  0.90050962710E+03  0.12186427173E+04  0.15294330000E+03 0.  0.
    8880022    1    1    2    0    0 -0.60490105861E+03 -0.53373733257E+03 -0.67315789941E+03  0.10617504610E+04  0.15294330000E+03 0.  0.
<mgrwt>
<rscale>  0 0.82108007E+03</rscale>
<asrwt>0</asrwt>
<pdfrwt beam="1">  1        2 0.19290346E+00 0.82108007E+03</pdfrwt>
<pdfrwt beam="2">  1       -2 0.15792626E+00 0.82108007E+03</pdfrwt>
<totfact> 0.46506818E+00</totfact>
</mgrwt>
</event>
<event>
 4    1  0.4639964E-008  0.1116554E+04  0.7818608E-02  0.9189205E-01
          2   -1    0    0  501    0  0.00000000000E+00  0.00000000000E+00  0.14806181589E+04  0.14806181589E+04  0.25500000000E-02 0. -1.
         -2   -1    0    0    0  501 -0.00000000000E+00 -0.00000000000E+00 -0.19546767944E+04  0.19546767944E+04  0.25500000000E-02 0.  1.
    8880022    1    1    2    0    0  0.14426477848E+03  0.10965809333E+04  0.10588940716E+04  0.15388146014E+04  0.15294330000E+03 0.  0.
    8880022    1    1    2    0    0 -0.14426477848E+03 -0.10965809333E+04 -0.15329527072E+04  0.18964803519E+04  0.15294330000E+03 0.  0.
<mgrwt>
<rscale>  0 0.11165544E+04</rscale>
<asrwt>0</asrwt>
<pdfrwt beam="1">  1        2 0.22778741E+00 0.11165544E+04</pdfrwt>
<pdfrwt beam="2">  1       -2 0.30071951E+00 0.11165544E+04</pdfrwt>
<totfact> 0.40438413E-01</totfact>
</mgrwt>
</event>
<event>
 4    1  0.4639964E-008  0.3281605E+03  0.7818608E-02  0.1071954E+00
          2   -1    0    0  501    0  0.00000000000E+00  0.00000000000E+00  0.15237591121E+04  0.15237591121E+04  0.25500000000E-02 0. -1.
         -2   -1    0    0    0  501 -0.00000000000E+00 -0.00000000000E+00 -0.13543084440E+03  0.13543084442E+03  0.25500000000E-02 0.  1.
    8880022    1    1    2    0    0  0.23988405006E+03 -0.16356427599E+03  0.12050743206E+03  0.34958736255E+03  0.15294330000E+03 0.  0.
    8880022    1    1    2    0    0 -0.23988405006E+03  0.16356427599E+03  0.12678208357E+04  0.13096025940E+04  0.15294330000E+03 0.  0.
<mgrwt>
<rscale>  0 0.32816045E+03</rscale>
<asrwt>0</asrwt>
<pdfrwt beam="1">  1        2 0.23442448E+00 0.32816045E+03</pdfrwt>
<pdfrwt beam="2">  1       -2 0.20835515E-01 0.32816045E+03</pdfrwt>
<totfact> 0.25884390E+02</totfact>
</mgrwt>
</event>
<event>
 4    1  0.4639964E-008  0.5209582E+03  0.7818608E-02  0.1008449E+00
         -2   -1    0    0    0  501 -0.00000000000E+00  0.00000000000E+00  0.68883716582E+03  0.68883716582E+03  0.25500000000E-02 0.  1.
          2   -1    0    0  501    0  0.00000000000E+00 -0.00000000000E+00 -0.56210135301E+03  0.56210135302E+03  0.25500000000E-02 0. -1.
    8880022    1    1    2    0    0 -0.49646150500E+03 -0.39137863102E+02  0.40542019077E+03  0.66012345995E+03  0.15294330000E+03 0.  0.
    8880022    1    1    2    0    0  0.49646150500E+03  0.39137863102E+02 -0.27868437797E+03  0.59081505889E+03  0.15294330000E+03 0.  0.
<mgrwt>
<rscale>  0 0.52095820E+03</rscale>
<asrwt>0</asrwt>
<pdfrwt beam="1">  1        2 0.86477131E-01 0.52095820E+03</pdfrwt>
<pdfrwt beam="2">  1       -2 0.10597495E+00 0.52095820E+03</pdfrwt>
<totfact> 0.39838232E+01</totfact>
</mgrwt>
</event>
<event>
 4    1  0.4639964E-008  0.1292735E+04  0.7818608E-02  0.9035346E-01
         -2   -1    0    0    0  501 -0.00000000000E+00  0.00000000000E+00  0.12189703841E+04  0.12189703841E+04  0.25500000000E-02 0.  1.
          2   -1    0    0  501    0  0.00000000000E+00 -0.00000000000E+00 -0.20656079103E+04  0.20656079103E+04  0.25500000000E-02 0. -1.
    8880022    1    1    2    0    0 -0.12695451075E+04  0.18980797780E+03 -0.13756917198E+04  0.18877741416E+04  0.15294330000E+03 0.  0.
    8880022    1    1    2    0    0  0.12695451075E+04 -0.18980797780E+03  0.52905419362E+03  0.13968041528E+04  0.15294330000E+03 0.  0.
<mgrwt>
<rscale>  0 0.12927349E+04</rscale>
<asrwt>0</asrwt>
<pdfrwt beam="1">  1        2 0.31778583E+00 0.12927349E+04</pdfrwt>
<pdfrwt beam="2">  1       -2 0.18753390E+00 0.12927349E+04</pdfrwt>
<totfact> 0.95069058E-01</totfact>
</mgrwt>
</event>
<event>
 4    1  0.4639964E-008  0.5211336E+03  0.7818608E-02  0.1008405E+00
         -2   -1    0    0    0  501 -0.00000000000E+00  0.00000000000E+00  0.19177311157E+03  0.19177311159E+03  0.25500000000E-02 0.  1.
          2   -1    0    0  501    0  0.00000000000E+00 -0.00000000000E+00 -0.16593372023E+04  0.16593372023E+04  0.25500000000E-02 0. -1.
    8880022    1    1    2    0    0  0.37329892781E+03 -0.32990369254E+03 -0.37945680273E+03  0.64464537073E+03  0.15294330000E+03 0.  0.
    8880022    1    1    2    0    0 -0.37329892781E+03  0.32990369254E+03 -0.10881072880E+04  0.12064649432E+04  0.15294330000E+03 0. -1.
<mgrwt>
<rscale>  0 0.52113356E+03</rscale>
<asrwt>0</asrwt>
<pdfrwt beam="1">  1        2 0.25528264E+00 0.52113356E+03</pdfrwt>
<pdfrwt beam="2">  1       -2 0.29503557E-01 0.52113356E+03</pdfrwt>
<totfact> 0.11429318E+02</totfact>
</mgrwt>
</event>
<event>
 4    1  0.8227361E-008  0.1600864E+04  0.7818608E-02  0.8820017E-01
         -2   -1    0    0    0  501 -0.00000000000E+00  0.00000000000E+00  0.15222889680E+04  0.15222889680E+04  0.25500000000E-02 0.  1.
          2   -1    0    0  501    0  0.00000000000E+00 -0.00000000000E+00 -0.35371994171E+04  0.35371994171E+04  0.25500000000E-02 0. -1.
    8880022    1    1    2    0    0 -0.39821442064E+03 -0.15429836798E+04 -0.28387874733E+04  0.32590611122E+04  0.15294330000E+03 0.  0.
    8880022    1    1    2    0    0  0.39821442064E+03  0.15429836798E+04  0.82387702432E+03  0.18004272729E+04  0.15294330000E+03 0.  0.
<mgrwt>
<rscale>  0 0.16008638E+04</rscale>
<asrwt>0</asrwt>
<pdfrwt beam="1">  1        2 0.54418453E+00 0.16008638E+04</pdfrwt>
<pdfrwt beam="2">  1       -2 0.23419830E+00 0.16008638E+04</pdfrwt>
<totfact> 0.57511271E-02</totfact>
</mgrwt>
</event>
<event>
 4    1  0.4639964E-008  0.9609482E+03  0.7818608E-02  0.9352445E-01
         -2   -1    0    0    0  501 -0.00000000000E+00  0.00000000000E+00  0.11509279350E+04  0.11509279350E+04  0.25500000000E-02 0.  1.
          2   -1    0    0  501    0  0.00000000000E+00 -0.00000000000E+00 -0.23005820490E+04  0.23005820490E+04  0.25500000000E-02 0. -1.
    8880022    1    1    2    0    0 -0.17687024184E+03  0.93206586443E+03  0.81785836560E+03  0.12618691760E+04  0.15294330000E+03 0.  0.
    8880022    1    1    2    0    0  0.17687024184E+03 -0.93206586443E+03 -0.19675124795E+04  0.21896408080E+04  0.15294330000E+03 0.  0.
<mgrwt>
<rscale>  0 0.96094824E+03</rscale>
<asrwt>0</asrwt>
<pdfrwt beam="1">  1        2 0.35393570E+00 0.96094824E+03</pdfrwt>
<pdfrwt beam="2">  1       -2 0.17706584E+00 0.96094824E+03</pdfrwt>
<totfact> 0.86826607E-01</totfact>
</mgrwt>
</event>
<event>
 4    1  0.4639964E-008  0.4657880E+03  0.7818608E-02  0.1023116E+00
         -2   -1    0    0    0  501 -0.00000000000E+00  0.00000000000E+00  0.68323614956E+03  0.68323614956E+03  0.25500000000E-02 0.  1.
          2   -1    0    0  501    0  0.00000000000E+00 -0.00000000000E+00 -0.63905109783E+03  0.63905109783E+03  0.25500000000E-02 0. -1.
    8880022    1    1    2    0    0  0.43131639320E+03  0.86792944542E+02  0.49103800711E+03  0.67681372896E+03  0.15294330000E+03 0.  0.
    8880022    1    1    2    0    0 -0.43131639320E+03 -0.86792944542E+02 -0.44685295538E+03  0.64547351844E+03  0.15294330000E+03 0. -1.
<mgrwt>
<rscale>  0 0.46578804E+03</rscale>
<asrwt>0</asrwt>
<pdfrwt beam="1">  1        2 0.98315553E-01 0.46578804E+03</pdfrwt>
<pdfrwt beam="2">  1       -2 0.10511325E+00 0.46578804E+03</pdfrwt>
<totfact> 0.35086463E+01</totfact>
</mgrwt>
</event>
<event>
 4    1  0.4639964E-008  0.5478213E+03  0.7818608E-02  0.1001999E+00
         -2   -1    0    0    0  501 -0.00000000000E+00  0.00000000000E+00  0.26442260978E+03  0.26442260979E+03  0.25500000000E-02 0.  1.
          2   -1    0    0  501    0  0.00000000000E+00 -0.00000000000E+00 -0.17861723548E+04  0.17861723548E+04  0.25500000000E-02 0. -1.
    8880022    1    1    2    0    0  0.10304079118E+03 -0.51584797084E+03 -0.13799604092E+04  0.14847218318E+04  0.15294330000E+03 0.  0.
    8880022    1    1    2    0    0 -0.10304079118E+03  0.51584797084E+03 -0.14178933575E+03  0.56587313279E+03  0.15294330000E+03 0.  0.
<mgrwt>
<rscale>  0 0.54782131E+03</rscale>
<asrwt>0</asrwt>
<pdfrwt beam="1">  1        2 0.27479574E+00 0.54782131E+03</pdfrwt>
<pdfrwt beam="2">  1       -2 0.40680403E-01 0.54782131E+03</pdfrwt>
<totfact> 0.52953806E+01</totfact>
</mgrwt>
</event>
<event>
 4    1  0.4639964E-008  0.2134329E+03  0.7818608E-02  0.1138876E+00
          2   -1    0    0  501    0  0.00000000000E+00  0.00000000000E+00  0.19810397819E+04  0.19810397819E+04  0.25500000000E-02 0. -1.
         -2   -1    0    0    0  501 -0.00000000000E+00 -0.00000000000E+00 -0.10921760413E+03  0.10921760416E+03  0.25500000000E-02 0.  1.
    8880022    1    1    2    0    0  0.40800326933E+02  0.14316877436E+03  0.18645235659E+04  0.18766996950E+04  0.15294330000E+03 0. -1.
    8880022    1    1    2    0    0 -0.40800326933E+02 -0.14316877436E+03  0.72986118552E+01  0.21355769099E+03  0.15294330000E+03 0.  0.
<mgrwt>
<rscale>  0 0.21343293E+03</rscale>
<asrwt>0</asrwt>
<pdfrwt beam="1">  1        2 0.30477535E+00 0.21343293E+03</pdfrwt>
<pdfrwt beam="2">  1       -2 0.16802708E-01 0.21343293E+03</pdfrwt>
<totfact> 0.21966410E+02</totfact>
</mgrwt>
</event>
<event>
 4    1  0.4639964E-008  0.1221348E+04  0.7818608E-02  0.9094373E-01
          2   -1    0    0  501    0  0.00000000000E+00  0.00000000000E+00  0.24525605299E+04  0.24525605299E+04  0.25500000000E-02 0. -1.
         -2   -1    0    0    0  501 -0.00000000000E+00 -0.00000000000E+00 -0.11753578659E+04  0.11753578659E+04  0.25500000000E-02 0.  1.
    8880022    1    1    2    0    0 -0.10368006443E+04  0.62717106138E+03  0.18986509615E+04  0.22575575835E+04  0.15294330000E+03 0.  0.
    8880022    1    1    2    0    0  0.10368006443E+04 -0.62717106138E+03 -0.62144829751E+03  0.13703608122E+04  0.15294330000E+03 0.  0.
<mgrwt>
<rscale>  0 0.12213479E+04</rscale>
<asrwt>0</asrwt>
<pdfrwt beam="1">  1        2 0.37731700E+00 0.12213479E+04</pdfrwt>
<pdfrwt beam="2">  1       -2 0.18082429E+00 0.12213479E+04</pdfrwt>
<totfact> 0.64555812E-01</totfact>
</mgrwt>
</event>
<event>
 4    1  0.4639964E-008  0.4291274E+03  0.7818608E-02  0.1034136E+00
          2   -1    0    0  501    0  0.00000000000E+00  0.00000000000E+00  0.20208775134E+04  0.20208775134E+04  0.25500000000E-02 0. -1.
         -2   -1    0    0    0  501 -0.00000000000E+00 -0.00000000000E+00 -0.12079482750E+03  0.12079482752E+03  0.25500000000E-02 0.  1.
    8880022    1    1    2    0    0 -0.28868626215E+03 -0.27824249358E+03  0.41932284795E+03  0.59998495566E+03  0.15294330000E+03 0.  0.
    8880022    1    1    2    0    0  0.28868626215E+03  0.27824249358E+03  0.14807598379E+04  0.15416873852E+04  0.15294330000E+03 0.  0.
<mgrwt>
<rscale>  0 0.42912737E+03</rscale>
<asrwt>0</asrwt>
<pdfrwt beam="1">  1        2 0.31090421E+00 0.42912737E+03</pdfrwt>
<pdfrwt beam="2">  1       -2 0.18583821E-01 0.42912737E+03</pdfrwt>
<totfact> 0.16828146E+02</totfact>
</mgrwt>
</event>
<event>
 4    1  0.4639964E-008  0.9245579E+03  0.7818608E-02  0.9395393E-01
          2   -1    0    0  501    0  0.00000000000E+00  0.00000000000E+00  0.13399341702E+04  0.13399341702E+04  0.25500000000E-02 0. -1.
         -2   -1    0    0    0  501 -0.00000000000E+00 -0.00000000000E+00 -0.12757159509E+04  0.12757159509E+04  0.25500000000E-02 0.  1.
    8880022    1    1    2    0    0 -0.88203088589E+03 -0.23116465459E+03 -0.89259818735E+03  0.12851220791E+04  0.15294330000E+03 0.  0.
    8880022    1    1    2    0    0  0.88203088589E+03  0.23116465459E+03  0.95681640672E+03  0.13305280419E+04  0.15294330000E+03 0.  0.
<mgrwt>
<rscale>  0 0.92455786E+03</rscale>
<asrwt>0</asrwt>
<pdfrwt beam="1">  1        2 0.20614372E+00 0.92455786E+03</pdfrwt>
<pdfrwt beam="2">  1       -2 0.19626399E+00 0.92455786E+03</pdfrwt>
<totfact> 0.22109317E+00</totfact>
</mgrwt>
</event>
<event>
 4    1  0.4639964E-008  0.1098875E+04  0.7818608E-02  0.9206289E-01
          2   -1    0    0  501    0  0.00000000000E+00  0.00000000000E+00  0.14412808880E+04  0.14412808880E+04  0.25500000000E-02 0. -1.
         -2   -1    0    0    0  501 -0.00000000000E+00 -0.00000000000E+00 -0.21077840334E+04  0.21077840334E+04  0.25500000000E-02 0.  1.
    8880022    1    1    2    0    0 -0.27331743338E+03  0.10532960109E+04  0.10441719044E+04  0.15158566967E+04  0.15294330000E+03 0.  0.
    8880022    1    1    2    0    0  0.27331743338E+03 -0.10532960109E+04 -0.17106750498E+04  0.20332082247E+04  0.15294330000E+03 0.  0.
<mgrwt>
<rscale>  0 0.10988751E+04</rscale>
<asrwt>0</asrwt>
<pdfrwt beam="1">  1        2 0.22173552E+00 0.10988751E+04</pdfrwt>
<pdfrwt beam="2">  1       -2 0.32427447E+00 0.10988751E+04</pdfrwt>
<totfact> 0.30649960E-01</totfact>
</mgrwt>
</event>
<event>
 4    1  0.4639964E-008  0.6603695E+03  0.7818608E-02  0.9787514E-01
          2   -1    0    0  501    0  0.00000000000E+00  0.00000000000E+00  0.67281989569E+03  0.67281989570E+03  0.25500000000E-02 0. -1.
         -2   -1    0    0    0  501 -0.00000000000E+00 -0.00000000000E+00 -0.23196991591E+04  0.23196991591E+04  0.25500000000E-02 0.  1.
    8880022    1    1    2    0    0  0.18649527742E+03 -0.61474850990E+03  0.44669787062E+03  0.79726210217E+03  0.15294330000E+03 0.  0.
    8880022    1    1    2    0    0 -0.18649527742E+03  0.61474850990E+03 -0.20935771341E+04  0.21952569527E+04  0.15294330000E+03 0.  1.
<mgrwt>
<rscale>  0 0.66036950E+03</rscale>
<asrwt>0</asrwt>
<pdfrwt beam="1">  1        2 0.10351075E+00 0.66036950E+03</pdfrwt>
<pdfrwt beam="2">  1       -2 0.35687679E+00 0.66036950E+03</pdfrwt>
<totfact> 0.65295977E-01</totfact>
</mgrwt>
</event>
<event>
 4    1  0.4639964E-008  0.7358365E+03  0.7818608E-02  0.9657836E-01
          2   -1    0    0  501    0  0.00000000000E+00  0.00000000000E+00  0.13072091371E+04  0.13072091371E+04  0.25500000000E-02 0. -1.
         -2   -1    0    0    0  501 -0.00000000000E+00 -0.00000000000E+00 -0.58177116999E+03  0.58177116999E+03  0.25500000000E-02 0.  1.
    8880022    1    1    2    0    0  0.10855037688E+03 -0.71153389561E+03 -0.14416873763E+03  0.74982661119E+03  0.15294330000E+03 0.  0.
    8880022    1    1    2    0    0 -0.10855037688E+03  0.71153389561E+03  0.86960670472E+03  0.11391536959E+04  0.15294330000E+03 0.  0.
<mgrwt>
<rscale>  0 0.73583648E+03</rscale>
<asrwt>0</asrwt>
<pdfrwt beam="1">  1        2 0.20110910E+00 0.73583648E+03</pdfrwt>
<pdfrwt beam="2">  1       -2 0.89503257E-01 0.73583648E+03</pdfrwt>
<totfact> 0.17919730E+01</totfact>
</mgrwt>
</event>
<event>
 4    1  0.4639964E-008  0.9176241E+03  0.7818608E-02  0.9403815E-01
          2   -1    0    0  501    0  0.00000000000E+00  0.00000000000E+00  0.23918084086E+04  0.23918084086E+04  0.25500000000E-02 0. -1.
         -2   -1    0    0    0  501 -0.00000000000E+00 -0.00000000000E+00 -0.53540461082E+03  0.53540461083E+03  0.25500000000E-02 0.  1.
    8880022    1    1    2    0    0 -0.80891076803E+03  0.40534630537E+03  0.17847076937E+04  0.20067923318E+04  0.15294330000E+03 0.  0.
    8880022    1    1    2    0    0  0.80891076803E+03 -0.40534630537E+03  0.71696104075E+02  0.92042068765E+03  0.15294330000E+03 0.  0.
<mgrwt>
<rscale>  0 0.91762406E+03</rscale>
<asrwt>0</asrwt>
<pdfrwt beam="1">  1        2 0.36797051E+00 0.91762406E+03</pdfrwt>
<pdfrwt beam="2">  1       -2 0.82369943E-01 0.91762406E+03</pdfrwt>
<totfact> 0.53012679E+00</totfact>
</mgrwt>
</event>
<event>
 4    1  0.4639964E-008  0.2696714E+03  0.7818608E-02  0.1101468E+00
          2   -1    0    0  501    0  0.00000000000E+00  0.00000000000E+00  0.54888579821E+03  0.54888579822E+03  0.25500000000E-02 0. -1.
         -2   -1    0    0    0  501 -0.00000000000E+00 -0.00000000000E+00 -0.27525553515E+03  0.27525553516E+03  0.25500000000E-02 0.  1.
    8880022    1    1    2    0    0 -0.21005718697E+03  0.72159413686E+02  0.43358049202E+03  0.51060229029E+03  0.15294330000E+03 0.  0.
    8880022    1    1    2    0    0  0.21005718697E+03 -0.72159413686E+02 -0.15995022896E+03  0.31353904309E+03  0.15294330000E+03 0.  0.
<mgrwt>
<rscale>  0 0.26967138E+03</rscale>
<asrwt>0</asrwt>
<pdfrwt beam="1">  1        2 0.84443969E-01 0.26967138E+03</pdfrwt>
<pdfrwt beam="2">  1       -2 0.42347005E-01 0.26967138E+03</pdfrwt>
<totfact> 0.30092696E+02</totfact>
</mgrwt>
</event>
<event>
 4    1  0.4639964E-008  0.3649923E+03  0.7818608E-02  0.1056624E+00
         -2   -1    0    0    0  501 -0.00000000000E+00  0.00000000000E+00  0.19517974977E+03  0.19517974978E+03  0.25500000000E-02 0.  1.
          2   -1    0    0  501    0  0.00000000000E+00 -0.00000000000E+00 -0.80894039067E+03  0.80894039068E+03  0.25500000000E-02 0. -1.
    8880022    1    1    2    0    0  0.28642036725E+03  0.16670653642E+03 -0.50533421962E+03  0.62336347551E+03  0.15294330000E+03 0.  0.
    8880022    1    1    2    0    0 -0.28642036725E+03 -0.16670653642E+03 -0.10842642128E+03  0.38075666495E+03  0.15294330000E+03 0.  0.
<mgrwt>
<rscale>  0 0.36499226E+03</rscale>
<asrwt>0</asrwt>
<pdfrwt beam="1">  1        2 0.12445237E+00 0.36499226E+03</pdfrwt>
<pdfrwt beam="2">  1       -2 0.30027654E-01 0.36499226E+03</pdfrwt>
<totfact> 0.35685974E+02</totfact>
</mgrwt>
</event>
<event>
 4    1  0.4639964E-008  0.4492592E+03  0.7818608E-02  0.1027943E+00
          2   -1    0    0  501    0  0.00000000000E+00  0.00000000000E+00  0.70899648970E+03  0.70899648970E+03  0.25500000000E-02 0. -1.
         -2   -1    0    0    0  501 -0.00000000000E+00 -0.00000000000E+00 -0.15015147501E+04  0.15015147501E+04  0.25500000000E-02 0.  1.
    8880022    1    1    2    0    0  0.88214721880E+01 -0.42233209938E+03 -0.13912395848E+04  0.14619786100E+04  0.15294330000E+03 0.  0.
    8880022    1    1    2    0    0 -0.88214721880E+01  0.42233209938E+03  0.59872132446E+03  0.74853262983E+03  0.15294330000E+03 0.  0.
<mgrwt>
<rscale>  0 0.44925925E+03</rscale>
<asrwt>0</asrwt>
<pdfrwt beam="1">  1        2 0.10907638E+00 0.44925925E+03</pdfrwt>
<pdfrwt beam="2">  1       -2 0.23100227E+00 0.44925925E+03</pdfrwt>
<totfact> 0.36854954E+00</totfact>
</mgrwt>
</event>
<event>
 4    1  0.4639964E-008  0.6085600E+03  0.7818608E-02  0.9887804E-01
          2   -1    0    0  501    0  0.00000000000E+00  0.00000000000E+00  0.51107785202E+03  0.51107785203E+03  0.25500000000E-02 0. -1.
         -2   -1    0    0    0  501 -0.00000000000E+00 -0.00000000000E+00 -0.18040889101E+04  0.18040889101E+04  0.25500000000E-02 0.  1.
    8880022    1    1    2    0    0  0.64067427125E+02 -0.58553304220E+03  0.24891126548E+03  0.65749680594E+03  0.15294330000E+03 0. -1.
    8880022    1    1    2    0    0 -0.64067427125E+02  0.58553304220E+03 -0.15419223235E+04  0.16576699562E+04  0.15294330000E+03 0.  0.
<mgrwt>
<rscale>  0 0.60855997E+03</rscale>
<asrwt>0</asrwt>
<pdfrwt beam="1">  1        2 0.78627363E-01 0.60855997E+03</pdfrwt>
<pdfrwt beam="2">  1       -2 0.27755214E+00 0.60855997E+03</pdfrwt>
<totfact> 0.27736891E+00</totfact>
</mgrwt>
</event>
<event>
 4    1  0.4639964E-008  0.2206605E+03  0.7818608E-02  0.1133392E+00
          2   -1    0    0  501    0  0.00000000000E+00  0.00000000000E+00  0.34737781243E+04  0.34737781243E+04  0.25500000000E-02 0. -1.
         -2   -1    0    0    0  501 -0.00000000000E+00 -0.00000000000E+00 -0.18581687052E+02  0.18581687227E+02  0.25500000000E-02 0.  1.
    8880022    1    1    2    0    0  0.40878293454E+02  0.15371514932E+03  0.86210349485E+03  0.88989520218E+03  0.15294330000E+03 0.  1.
    8880022    1    1    2    0    0 -0.40878293454E+02 -0.15371514932E+03  0.25930929424E+04  0.26024646093E+04  0.15294330000E+03 0.  1.
<mgrwt>
<rscale>  0 0.22066045E+03</rscale>
<asrwt>0</asrwt>
<pdfrwt beam="1">  1        2 0.53442714E+00 0.22066045E+03</pdfrwt>
<pdfrwt beam="2">  1       -2 0.28587225E-02 0.22066045E+03</pdfrwt>
<totfact> 0.48760455E+02</totfact>
</mgrwt>
</event>
<event>
 4    1  0.4639964E-008  0.8298315E+03  0.7818608E-02  0.9517813E-01
          2   -1    0    0  501    0  0.00000000000E+00  0.00000000000E+00  0.16744213742E+04  0.16744213742E+04  0.25500000000E-02 0. -1.
         -2   -1    0    0    0  501 -0.00000000000E+00 -0.00000000000E+00 -0.86110871150E+03  0.86110871150E+03  0.25500000000E-02 0.  1.
    8880022    1    1    2    0    0  0.53389572565E+03  0.61659068159E+03  0.13229689053E+04  0.15616872580E+04  0.15294330000E+03 0.  0.
    8880022    1    1    2    0    0 -0.53389572565E+03 -0.61659068159E+03 -0.50965624256E+03  0.97384282771E+03  0.15294330000E+03 0.  0.
<mgrwt>
<rscale>  0 0.82983153E+03</rscale>
<asrwt>0</asrwt>
<pdfrwt beam="1">  1        2 0.25760328E+00 0.82983153E+03</pdfrwt>
<pdfrwt beam="2">  1       -2 0.13247827E+00 0.82983153E+03</pdfrwt>
<totfact> 0.42658616E+00</totfact>
</mgrwt>
</event>
<event>
 4    1  0.4639964E-008  0.5133053E+03  0.7818608E-02  0.1010363E+00
          2   -1    0    0  501    0  0.00000000000E+00  0.00000000000E+00  0.12816535846E+04  0.12816535846E+04  0.25500000000E-02 0. -1.
         -2   -1    0    0    0  501 -0.00000000000E+00 -0.00000000000E+00 -0.51934358399E+03  0.51934358399E+03  0.25500000000E-02 0.  1.
    8880022    1    1    2    0    0 -0.83726932822E+02  0.48278405123E+03  0.10810887668E+04  0.11967602994E+04  0.15294330000E+03 0.  0.
    8880022    1    1    2    0    0  0.83726932822E+02 -0.48278405123E+03 -0.31877876617E+03  0.60423686926E+03  0.15294330000E+03 0.  0.
<mgrwt>
<rscale>  0 0.51330526E+03</rscale>
<asrwt>0</asrwt>
<pdfrwt beam="1">  1        2 0.19717747E+00 0.51330526E+03</pdfrwt>
<pdfrwt beam="2">  1       -2 0.79899015E-01 0.51330526E+03</pdfrwt>
<totfact> 0.24736446E+01</totfact>
</mgrwt>
</event>
<event>
 4    1  0.4639964E-008  0.9268517E+03  0.7818608E-02  0.9392624E-01
          2   -1    0    0  501    0  0.00000000000E+00  0.00000000000E+00  0.45257135866E+03  0.45257135867E+03  0.25500000000E-02 0. -1.
         -2   -1    0    0    0  501 -0.00000000000E+00 -0.00000000000E+00 -0.20509652434E+04  0.20509652434E+04  0.25500000000E-02 0.  1.
    8880022    1    1    2    0    0 -0.88184947411E+03  0.24084022701E+03 -0.45752461528E+03  0.10336261106E+04  0.15294330000E+03 0.  0.
    8880022    1    1    2    0    0  0.88184947411E+03 -0.24084022701E+03 -0.11408692695E+04  0.14699104915E+04  0.15294330000E+03 0.  0.
<mgrwt>
<rscale>  0 0.92685175E+03</rscale>
<asrwt>0</asrwt>
<pdfrwt beam="1">  1        2 0.69626364E-01 0.92685175E+03</pdfrwt>
<pdfrwt beam="2">  1       -2 0.31553311E+00 0.92685175E+03</pdfrwt>
<totfact> 0.17966465E+00</totfact>
</mgrwt>
</event>
<event>
 4    1  0.4639964E-008  0.1243722E+04  0.7818608E-02  0.9075424E-01
          2   -1    0    0  501    0  0.00000000000E+00  0.00000000000E+00  0.20133313064E+04  0.20133313064E+04  0.25500000000E-02 0. -1.
         -2   -1    0    0    0  501 -0.00000000000E+00 -0.00000000000E+00 -0.15554988775E+04  0.15554988775E+04  0.25500000000E-02 0.  1.
    8880022    1    1    2    0    0 -0.11754967097E+04 -0.37637846735E+03 -0.10404967533E+04  0.16215666535E+04  0.15294330000E+03 0.  0.
    8880022    1    1    2    0    0  0.11754967097E+04  0.37637846735E+03  0.14983291823E+04  0.19472635304E+04  0.15294330000E+03 0.  0.
<mgrwt>
<rscale>  0 0.12437222E+04</rscale>
<asrwt>0</asrwt>
<pdfrwt beam="1">  1        2 0.30974328E+00 0.12437222E+04</pdfrwt>
<pdfrwt beam="2">  1       -2 0.23930752E+00 0.12437222E+04</pdfrwt>
<totfact> 0.47501559E-01</totfact>
</mgrwt>
</event>
<event>
 4    1  0.4639964E-008  0.3089227E+03  0.7818608E-02  0.1080863E+00
          2   -1    0    0  501    0  0.00000000000E+00  0.00000000000E+00  0.24814055373E+04  0.24814055373E+04  0.25500000000E-02 0. -1.
         -2   -1    0    0    0  501 -0.00000000000E+00 -0.00000000000E+00 -0.81087203120E+03  0.81087203120E+03  0.25500000000E-02 0.  1.
    8880022    1    1    2    0    0  0.21870997466E+03  0.15558765448E+03  0.24418934778E+04  0.24613567359E+04  0.15294330000E+03 0. -1.
    8880022    1    1    2    0    0 -0.21870997466E+03 -0.15558765448E+03 -0.77135997167E+03  0.83092083267E+03  0.15294330000E+03 0.  0.
<mgrwt>
<rscale>  0 0.30892268E+03</rscale>
<asrwt>0</asrwt>
<pdfrwt beam="1">  1        2 0.38175470E+00 0.30892268E+03</pdfrwt>
<pdfrwt beam="2">  1       -2 0.12474954E+00 0.30892268E+03</pdfrwt>
<totfact> 0.20709145E+00</totfact>
</mgrwt>
</event>
<event>
 4    1  0.4639964E-008  0.1302602E+04  0.7818608E-02  0.9027505E-01
         -2   -1    0    0    0  501 -0.00000000000E+00  0.00000000000E+00  0.10417839435E+04  0.10417839435E+04  0.25500000000E-02 0.  1.
          2   -1    0    0  501    0  0.00000000000E+00 -0.00000000000E+00 -0.29864911499E+04  0.29864911499E+04  0.25500000000E-02 0. -1.
    8880022    1    1    2    0    0  0.17408160655E+03  0.12818247976E+04 -0.23304241513E+04  0.26697654570E+04  0.15294330000E+03 0.  0.
    8880022    1    1    2    0    0 -0.17408160655E+03 -0.12818247976E+04  0.38571694493E+03  0.13585096364E+04  0.15294330000E+03 0.  0.
<mgrwt>
<rscale>  0 0.13026016E+04</rscale>
<asrwt>0</asrwt>
<pdfrwt beam="1">  1        2 0.45946017E+00 0.13026016E+04</pdfrwt>
<pdfrwt beam="2">  1       -2 0.16027445E+00 0.13026016E+04</pdfrwt>
<totfact> 0.43170961E-01</totfact>
</mgrwt>
</event>
<event>
 4    1  0.4639964E-008  0.1574716E+03  0.7818608E-02  0.1191581E+00
         -2   -1    0    0    0  501 -0.00000000000E+00  0.00000000000E+00  0.59539184157E+03  0.59539184158E+03  0.25500000000E-02 0.  1.
          2   -1    0    0  501    0  0.00000000000E+00 -0.00000000000E+00 -0.55439819177E+03  0.55439819178E+03  0.25500000000E-02 0. -1.
    8880022    1    1    2    0    0  0.33652356577E+02  0.16528324310E+02 -0.53238236570E+03  0.55518312558E+03  0.15294330000E+03 0.  0.
    8880022    1    1    2    0    0 -0.33652356577E+02 -0.16528324310E+02  0.57337601550E+03  0.59460690777E+03  0.15294330000E+03 0.  1.
<mgrwt>
<rscale>  0 0.15747165E+03</rscale>
<asrwt>0</asrwt>
<pdfrwt beam="1">  1        2 0.85292029E-01 0.15747165E+03</pdfrwt>
<pdfrwt beam="2">  1       -2 0.91598745E-01 0.15747165E+03</pdfrwt>
<totfact> 0.60325814E+01</totfact>
</mgrwt>
</event>
<event>
 4    1  0.4639964E-008  0.7185827E+03  0.7818608E-02  0.9685971E-01
          2   -1    0    0  501    0  0.00000000000E+00  0.00000000000E+00  0.25897979343E+04  0.25897979343E+04  0.25500000000E-02 0. -1.
         -2   -1    0    0    0  501 -0.00000000000E+00 -0.00000000000E+00 -0.39685104022E+03  0.39685104023E+03  0.25500000000E-02 0.  1.
    8880022    1    1    2    0    0  0.38340200055E+03  0.58819413671E+03  0.43083705814E+02  0.71987311049E+03  0.15294330000E+03 0.  0.
    8880022    1    1    2    0    0 -0.38340200055E+03 -0.58819413671E+03  0.21498631882E+04  0.22667758640E+04  0.15294330000E+03 0.  0.
<mgrwt>
<rscale>  0 0.71858269E+03</rscale>
<asrwt>0</asrwt>
<pdfrwt beam="1">  1        2 0.39843045E+00 0.71858269E+03</pdfrwt>
<pdfrwt beam="2">  1       -2 0.61054006E-01 0.71858269E+03</pdfrwt>
<totfact> 0.81442822E+00</totfact>
</mgrwt>
</event>
<event>
 4    1  0.4639964E-008  0.5842521E+03  0.7818608E-02  0.9938627E-01
          2   -1    0    0  501    0  0.00000000000E+00  0.00000000000E+00  0.15773828624E+04  0.15773828624E+04  0.25500000000E-02 0. -1.
         -2   -1    0    0    0  501 -0.00000000000E+00 -0.00000000000E+00 -0.37909030926E+03  0.37909030927E+03  0.25500000000E-02 0.  1.
    8880022    1    1    2    0    0 -0.21096120077E+03  0.52292856735E+03  0.12399857313E+04  0.13707352705E+04  0.15294330000E+03 0. -1.
    8880022    1    1    2    0    0  0.21096120077E+03 -0.52292856735E+03 -0.41693178197E+02  0.58573790120E+03  0.15294330000E+03 0.  0.
<mgrwt>
<rscale>  0 0.58425214E+03</rscale>
<asrwt>0</asrwt>
<pdfrwt beam="1">  1        2 0.24267428E+00 0.58425214E+03</pdfrwt>
<pdfrwt beam="2">  1       -2 0.58321587E-01 0.58425214E+03</pdfrwt>
<totfact> 0.33054120E+01</totfact>
</mgrwt>
</event>
<event>
 4    1  0.4639964E-008  0.3082871E+03  0.7818608E-02  0.1081170E+00
         -2   -1    0    0    0  501 -0.00000000000E+00  0.00000000000E+00  0.95416867032E+03  0.95416867032E+03  0.25500000000E-02 0.  1.
          2   -1    0    0  501    0  0.00000000000E+00 -0.00000000000E+00 -0.73106468722E+03  0.73106468723E+03  0.25500000000E-02 0. -1.
    8880022    1    1    2    0    0 -0.95621960456E+02  0.25001139867E+03 -0.67156135163E+03  0.73894219043E+03  0.15294330000E+03 0.  0.
    8880022    1    1    2    0    0  0.95621960456E+02 -0.25001139867E+03  0.89466533472E+03  0.94629116711E+03  0.15294330000E+03 0.  1.
<mgrwt>
<rscale>  0 0.30828706E+03</rscale>
<asrwt>0</asrwt>
<pdfrwt beam="1">  1        2 0.11247149E+00 0.30828706E+03</pdfrwt>
<pdfrwt beam="2">  1       -2 0.14679518E+00 0.30828706E+03</pdfrwt>
<totfact> 0.13399531E+01</totfact>
</mgrwt>
</event>
<event>
 4    1  0.4639964E-008  0.3946364E+03  0.7818608E-02  0.1045653E+00
          2   -1    0    0  501    0  0.00000000000E+00  0.00000000000E+00  0.33214330799E+03  0.33214330800E+03  0.25500000000E-02 0. -1.
         -2   -1    0    0    0  501 -0.00000000000E+00 -0.00000000000E+00 -0.49682271079E+03  0.49682271080E+03  0.25500000000E-02 0.  1.
    8880022    1    1    2    0    0 -0.64464613898E+01 -0.36373710602E+03  0.15943861700E+02  0.39495835084E+03  0.15294330000E+03 0. -1.
    8880022    1    1    2    0    0  0.64464613898E+01  0.36373710602E+03 -0.18062326449E+03  0.43400766796E+03  0.15294330000E+03 0.  1.
<mgrwt>
<rscale>  0 0.39463641E+03</rscale>
<asrwt>0</asrwt>
<pdfrwt beam="1">  1        2 0.51098971E-01 0.39463641E+03</pdfrwt>
<pdfrwt beam="2">  1       -2 0.76434263E-01 0.39463641E+03</pdfrwt>
<totfact> 0.15406897E+02</totfact>
</mgrwt>
</event>
<event>
 4    1  0.4639964E-008  0.3382232E+03  0.7818608E-02  0.1067555E+00
          2   -1    0    0  501    0  0.00000000000E+00  0.00000000000E+00  0.24794719740E+04  0.24794719740E+04  0.25500000000E-02 0. -1.
         -2   -1    0    0    0  501 -0.00000000000E+00 -0.00000000000E+00 -0.68147802759E+03  0.68147802759E+03  0.25500000000E-02 0.  1.
    8880022    1    1    2    0    0 -0.29613590949E+03  0.57504933146E+02  0.24250345041E+04  0.24485071561E+04  0.15294330000E+03 0.  0.
    8880022    1    1    2    0    0  0.29613590949E+03 -0.57504933146E+02 -0.62704055766E+03  0.71244284556E+03  0.15294330000E+03 0.  0.
<mgrwt>
<rscale>  0 0.33822322E+03</rscale>
<asrwt>0</asrwt>
<pdfrwt beam="1">  1        2 0.38145722E+00 0.33822322E+03</pdfrwt>
<pdfrwt beam="2">  1       -2 0.10484278E+00 0.33822322E+03</pdfrwt>
<totfact> 0.31137742E+00</totfact>
</mgrwt>
</event>
<event>
 4    1  0.4639964E-008  0.4334045E+03  0.7818608E-02  0.1032790E+00
          2   -1    0    0  501    0  0.00000000000E+00  0.00000000000E+00  0.40763973872E+04  0.40763973872E+04  0.25500000000E-02 0. -1.
         -2   -1    0    0    0  501 -0.00000000000E+00 -0.00000000000E+00 -0.19095710086E+03  0.19095710088E+03  0.25500000000E-02 0.  1.
    8880022    1    1    2    0    0 -0.27633980035E+03 -0.29678973831E+03  0.38012135516E+04  0.38258416005E+04  0.15294330000E+03 0. -1.
    8880022    1    1    2    0    0  0.27633980035E+03  0.29678973831E+03  0.84226734691E+02  0.44151288756E+03  0.15294330000E+03 0.  0.
<mgrwt>
<rscale>  0 0.43340453E+03</rscale>
<asrwt>0</asrwt>
<pdfrwt beam="1">  1        2 0.62713806E+00 0.43340453E+03</pdfrwt>
<pdfrwt beam="2">  1       -2 0.29378015E-01 0.43340453E+03</pdfrwt>
<totfact> 0.38537573E+00</totfact>
</mgrwt>
</event>
<event>
 4    1  0.4639964E-008  0.4238498E+03  0.7818608E-02  0.1035821E+00
         -2   -1    0    0    0  501 -0.00000000000E+00  0.00000000000E+00  0.41294839910E+03  0.41294839911E+03  0.25500000000E-02 0.  1.
          2   -1    0    0  501    0  0.00000000000E+00 -0.00000000000E+00 -0.15496650933E+04  0.15496650933E+04  0.25500000000E-02 0. -1.
    8880022    1    1    2    0    0  0.14849999567E+03  0.36633963264E+03 -0.14006019707E+04  0.14633299384E+04  0.15294330000E+03 0.  0.
    8880022    1    1    2    0    0 -0.14849999567E+03 -0.36633963264E+03  0.26388527652E+03  0.49928355404E+03  0.15294330000E+03 0.  1.
<mgrwt>
<rscale>  0 0.42384977E+03</rscale>
<asrwt>0</asrwt>
<pdfrwt beam="1">  1        2 0.23841001E+00 0.42384977E+03</pdfrwt>
<pdfrwt beam="2">  1       -2 0.63530524E-01 0.42384977E+03</pdfrwt>
<totfact> 0.29406184E+01</totfact>
</mgrwt>
</event>
<event>
 4    1  0.4639964E-008  0.8104537E+03  0.7818608E-02  0.9545008E-01
          2   -1    0    0  501    0  0.00000000000E+00  0.00000000000E+00  0.26771444909E+04  0.26771444909E+04  0.25500000000E-02 0. -1.
         -2   -1    0    0    0  501 -0.00000000000E+00 -0.00000000000E+00 -0.34915618825E+03  0.34915618826E+03  0.25500000000E-02 0.  1.
    8880022    1    1    2    0    0  0.65956745774E+03  0.44543724402E+03  0.19890541502E+04  0.21478295172E+04  0.15294330000E+03 0.  0.
    8880022    1    1    2    0    0 -0.65956745774E+03 -0.44543724402E+03  0.33893415251E+03  0.87847116197E+03  0.15294330000E+03 0.  0.
<mgrwt>
<rscale>  0 0.81045371E+03</rscale>
<asrwt>0</asrwt>
<pdfrwt beam="1">  1        2 0.41186838E+00 0.81045371E+03</pdfrwt>
<pdfrwt beam="2">  1       -2 0.53716337E-01 0.81045371E+03</pdfrwt>
<totfact> 0.93345639E+00</totfact>
</mgrwt>
</event>
<event>
 4    1  0.4995359E-008  0.3517832E+03  0.7818608E-02  0.1061886E+00
          2   -1    0    0  501    0  0.00000000000E+00  0.00000000000E+00  0.10954987245E+04  0.10954987245E+04  0.25500000000E-02 0. -1.
         -2   -1    0    0    0  501 -0.00000000000E+00 -0.00000000000E+00 -0.17041693302E+04  0.17041693302E+04  0.25500000000E-02 0.  1.
    8880022    1    1    2    0    0 -0.29547532658E+03  0.11425455174E+03  0.10483081900E+04  0.11057583305E+04  0.15294330000E+03 0.  0.
    8880022    1    1    2    0    0  0.29547532658E+03 -0.11425455174E+03 -0.16569787957E+04  0.16939097242E+04  0.15294330000E+03 0.  0.
<mgrwt>
<rscale>  0 0.35178321E+03</rscale>
<asrwt>0</asrwt>
<pdfrwt beam="1">  1        2 0.16853827E+00 0.35178321E+03</pdfrwt>
<pdfrwt beam="2">  1       -2 0.26217989E+00 0.35178321E+03</pdfrwt>
<totfact> 0.13694798E+00</totfact>
</mgrwt>
</event>
<event>
 4    1  0.4639964E-008  0.1835423E+03  0.7818608E-02  0.1164418E+00
         -2   -1    0    0    0  501 -0.00000000000E+00  0.00000000000E+00  0.17934191024E+03  0.17934191026E+03  0.25500000000E-02 0.  1.
          2   -1    0    0  501    0  0.00000000000E+00 -0.00000000000E+00 -0.28902609749E+03  0.28902609750E+03  0.25500000000E-02 0. -1.
    8880022    1    1    2    0    0  0.26089740374E+02  0.98058400292E+02  0.83720757541E+02  0.20173483259E+03  0.15294330000E+03 0.  0.
    8880022    1    1    2    0    0 -0.26089740374E+02 -0.98058400292E+02 -0.19340494479E+03  0.26663317517E+03  0.15294330000E+03 0.  0.
<mgrwt>
<rscale>  0 0.18354230E+03</rscale>
<asrwt>0</asrwt>
<pdfrwt beam="1">  1        2 0.44465553E-01 0.18354230E+03</pdfrwt>
<pdfrwt beam="2">  1       -2 0.27591063E-01 0.18354230E+03</pdfrwt>
<totfact> 0.13449277E+03</totfact>
</mgrwt>
</event>
<event>
 4    1  0.4639964E-008  0.1865906E+03  0.7818608E-02  0.1161573E+00
         -2   -1    0    0    0  501 -0.00000000000E+00  0.00000000000E+00  0.30167734203E+03  0.30167734205E+03  0.25500000000E-02 0.  1.
          2   -1    0    0  501    0  0.00000000000E+00 -0.00000000000E+00 -0.88659678775E+03  0.88659678776E+03  0.25500000000E-02 0. -1.
    8880022    1    1    2    0    0 -0.10547911828E+03 -0.17278628644E+02 -0.84657976428E+03  0.86689869402E+03  0.15294330000E+03 0.  0.
    8880022    1    1    2    0    0  0.10547911828E+03  0.17278628644E+02  0.26166031856E+03  0.32137543578E+03  0.15294330000E+03 0.  1.
<mgrwt>
<rscale>  0 0.18659059E+03</rscale>
<asrwt>0</asrwt>
<pdfrwt beam="1">  1        2 0.13639950E+00 0.18659059E+03</pdfrwt>
<pdfrwt beam="2">  1       -2 0.46411899E-01 0.18659059E+03</pdfrwt>
<totfact> 0.14204253E+02</totfact>
</mgrwt>
</event>
<event>
 4    1  0.4639964E-008  0.1711484E+03  0.7818608E-02  0.1176656E+00
         -2   -1    0    0    0  501 -0.00000000000E+00  0.00000000000E+00  0.48621999812E+02  0.48621999879E+02  0.25500000000E-02 0.  1.
          2   -1    0    0  501    0  0.00000000000E+00 -0.00000000000E+00 -0.13759605374E+04  0.13759605374E+04  0.25500000000E-02 0. -1.
    8880022    1    1    2    0    0 -0.54136299159E+01 -0.76621169535E+02 -0.11977304115E+04  0.12098966496E+04  0.15294330000E+03 0.  0.
    8880022    1    1    2    0    0  0.54136299159E+01  0.76621169535E+02 -0.12960812605E+03  0.21468588766E+03  0.15294330000E+03 0.  1.
<mgrwt>
<rscale>  0 0.17114837E+03</rscale>
<asrwt>0</asrwt>
<pdfrwt beam="1">  1        2 0.21168621E+00 0.17114837E+03</pdfrwt>
<pdfrwt beam="2">  1       -2 0.74803087E-02 0.17114837E+03</pdfrwt>
<totfact> 0.16784543E+03</totfact>
</mgrwt>
</event>
<event>
 4    1  0.4639964E-008  0.6100711E+03  0.7818608E-02  0.9884729E-01
          2   -1    0    0  501    0  0.00000000000E+00  0.00000000000E+00  0.12948626276E+04  0.12948626276E+04  0.25500000000E-02 0. -1.
         -2   -1    0    0    0  501 -0.00000000000E+00 -0.00000000000E+00 -0.41349934679E+03  0.41349934680E+03  0.25500000000E-02 0.  1.
    8880022    1    1    2    0    0  0.57894175667E+03 -0.11671149802E+03  0.91232243140E+03  0.10975058101E+04  0.15294330000E+03 0. -1.
    8880022    1    1    2    0    0 -0.57894175667E+03  0.11671149802E+03 -0.30959150616E+02  0.61085616426E+03  0.15294330000E+03 0.  0.
<mgrwt>
<rscale>  0 0.61007113E+03</rscale>
<asrwt>0</asrwt>
<pdfrwt beam="1">  1        2 0.19920963E+00 0.61007113E+03</pdfrwt>
<pdfrwt beam="2">  1       -2 0.63615285E-01 0.61007113E+03</pdfrwt>
<totfact> 0.39426812E+01</totfact>
</mgrwt>
</event>
<event>
 4    1  0.4639964E-008  0.3428875E+03  0.7818608E-02  0.1065573E+00
          2   -1    0    0  501    0  0.00000000000E+00  0.00000000000E+00  0.14370946643E+04  0.14370946643E+04  0.25500000000E-02 0. -1.
         -2   -1    0    0    0  501 -0.00000000000E+00 -0.00000000000E+00 -0.12898167730E+03  0.12898167732E+03  0.25500000000E-02 0.  1.
    8880022    1    1    2    0    0 -0.24281306354E+00 -0.30688776865E+03  0.18052414526E+03  0.38750584711E+03  0.15294330000E+03 0.  1.
    8880022    1    1    2    0    0  0.24281306354E+00  0.30688776865E+03  0.11275888418E+04  0.11785704946E+04  0.15294330000E+03 0. -1.
<mgrwt>
<rscale>  0 0.34288747E+03</rscale>
<asrwt>0</asrwt>
<pdfrwt beam="1">  1        2 0.22109150E+00 0.34288747E+03</pdfrwt>
<pdfrwt beam="2">  1       -2 0.19843334E-01 0.34288747E+03</pdfrwt>
<totfact> 0.31314606E+02</totfact>
</mgrwt>
</event>
<event>
 4    1  0.4639964E-008  0.5970547E+03  0.7818608E-02  0.9911536E-01
          2   -1    0    0  501    0  0.00000000000E+00  0.00000000000E+00  0.27219433771E+04  0.27219433771E+04  0.25500000000E-02 0. -1.
         -2   -1    0    0    0  501 -0.00000000000E+00 -0.00000000000E+00 -0.18548128088E+03  0.18548128090E+03  0.25500000000E-02 0.  1.
    8880022    1    1    2    0    0  0.23793939757E+03  0.52580174672E+03  0.20563629330E+04  0.21412853147E+04  0.15294330000E+03 0.  0.
    8880022    1    1    2    0    0 -0.23793939757E+03 -0.52580174672E+03  0.48009916319E+03  0.76613934325E+03  0.15294330000E+03 0.  0.
<mgrwt>
<rscale>  0 0.59705468E+03</rscale>
<asrwt>0</asrwt>
<pdfrwt beam="1">  1        2 0.41876054E+00 0.59705468E+03</pdfrwt>
<pdfrwt beam="2">  1       -2 0.28535581E-01 0.59705468E+03</pdfrwt>
<totfact> 0.31199860E+01</totfact>
</mgrwt>
</event>
<event>
 4    1  0.4639964E-008  0.2605971E+03  0.7818608E-02  0.1106785E+00
         -2   -1    0    0    0  501 -0.00000000000E+00  0.00000000000E+00  0.14702193686E+04  0.14702193686E+04  0.25500000000E-02 0.  1.
          2   -1    0    0  501    0  0.00000000000E+00 -0.00000000000E+00 -0.17570217086E+04  0.17570217086E+04  0.25500000000E-02 0. -1.
    8880022    1    1    2    0    0  0.20922994478E+03  0.27240171370E+02  0.14488675829E+04  0.14721168848E+04  0.15294330000E+03 0.  0.
    8880022    1    1    2    0    0 -0.20922994478E+03 -0.27240171370E+02 -0.17356699229E+04  0.17551241924E+04  0.15294330000E+03 0. -1.
<mgrwt>
<rscale>  0 0.26059710E+03</rscale>
<asrwt>0</asrwt>
<pdfrwt beam="1">  1        2 0.27031103E+00 0.26059710E+03</pdfrwt>
<pdfrwt beam="2">  1       -2 0.22618760E+00 0.26059710E+03</pdfrwt>
<totfact> 0.10161134E+00</totfact>
</mgrwt>
</event>
<event>
 4    1  0.4639964E-008  0.9164762E+03  0.7818608E-02  0.9405217E-01
          2   -1    0    0  501    0  0.00000000000E+00  0.00000000000E+00  0.12577945832E+04  0.12577945832E+04  0.25500000000E-02 0. -1.
         -2   -1    0    0    0  501 -0.00000000000E+00 -0.00000000000E+00 -0.10791299550E+04  0.10791299550E+04  0.25500000000E-02 0.  1.
    8880022    1    1    2    0    0 -0.86061447768E+03 -0.27546279163E+03 -0.63208095724E+03  0.11133081417E+04  0.15294330000E+03 0.  0.
    8880022    1    1    2    0    0  0.86061447768E+03  0.27546279163E+03  0.81074558544E+03  0.12236163966E+04  0.15294330000E+03 0.  0.
<mgrwt>
<rscale>  0 0.91647623E+03</rscale>
<asrwt>0</asrwt>
<pdfrwt beam="1">  1        2 0.19350686E+00 0.91647623E+03</pdfrwt>
<pdfrwt beam="2">  1       -2 0.16601999E+00 0.91647623E+03</pdfrwt>
<totfact> 0.39875802E+00</totfact>
</mgrwt>
</event>
<event>
 4    1  0.4639964E-008  0.8209772E+03  0.7818608E-02  0.9530140E-01
         -2   -1    0    0    0  501 -0.00000000000E+00  0.00000000000E+00  0.18257803025E+03  0.18257803027E+03  0.25500000000E-02 0.  1.
          2   -1    0    0  501    0  0.00000000000E+00 -0.00000000000E+00 -0.42157758494E+04  0.42157758494E+04  0.25500000000E-02 0. -1.
    8880022    1    1    2    0    0  0.32765403790E+02  0.80593945279E+03 -0.12411321864E+04  0.14880902965E+04  0.15294330000E+03 0.  0.
    8880022    1    1    2    0    0 -0.32765403790E+02 -0.80593945279E+03 -0.27920656327E+04  0.29102635832E+04  0.15294330000E+03 0.  0.
<mgrwt>
<rscale>  0 0.82097724E+03</rscale>
<asrwt>0</asrwt>
<pdfrwt beam="1">  1        2 0.64858083E+00 0.82097724E+03</pdfrwt>
<pdfrwt beam="2">  1       -2 0.28088931E-01 0.82097724E+03</pdfrwt>
<totfact> 0.28705318E+00</totfact>
</mgrwt>
</event>
<event>
 4    1  0.4639964E-008  0.8072167E+03  0.7818608E-02  0.9549630E-01
         -2   -1    0    0    0  501 -0.00000000000E+00  0.00000000000E+00  0.12983140515E+04  0.12983140515E+04  0.25500000000E-02 0.  1.
          2   -1    0    0  501    0  0.00000000000E+00 -0.00000000000E+00 -0.89655348720E+03  0.89655348720E+03  0.25500000000E-02 0. -1.
    8880022    1    1    2    0    0  0.36091703642E+03 -0.70565291303E+03  0.92901006736E+03  0.12307146294E+04  0.15294330000E+03 0.  0.
    8880022    1    1    2    0    0 -0.36091703642E+03  0.70565291303E+03 -0.52724950310E+03  0.96415290923E+03  0.15294330000E+03 0.  0.
<mgrwt>
<rscale>  0 0.80721670E+03</rscale>
<asrwt>0</asrwt>
<pdfrwt beam="1">  1        2 0.13793131E+00 0.80721670E+03</pdfrwt>
<pdfrwt beam="2">  1       -2 0.19974062E+00 0.80721670E+03</pdfrwt>
<totfact> 0.39952741E+00</totfact>
</mgrwt>
</event>
<event>
 4    1  0.4639964E-008  0.7767859E+03  0.7818608E-02  0.9594240E-01
         -2   -1    0    0    0  501 -0.00000000000E+00  0.00000000000E+00  0.90107334345E+03  0.90107334345E+03  0.25500000000E-02 0.  1.
          2   -1    0    0  501    0  0.00000000000E+00 -0.00000000000E+00 -0.10806235346E+04  0.10806235346E+04  0.25500000000E-02 0. -1.
    8880022    1    1    2    0    0  0.32825430592E+03  0.68720725036E+03  0.52128130244E+03  0.93548412258E+03  0.15294330000E+03 0.  0.
    8880022    1    1    2    0    0 -0.32825430592E+03 -0.68720725036E+03 -0.70083149364E+03  0.10462127555E+04  0.15294330000E+03 0.  0.
<mgrwt>
<rscale>  0 0.77678591E+03</rscale>
<asrwt>0</asrwt>
<pdfrwt beam="1">  1        2 0.16624977E+00 0.77678591E+03</pdfrwt>
<pdfrwt beam="2">  1       -2 0.13862667E+00 0.77678591E+03</pdfrwt>
<totfact> 0.83803148E+00</totfact>
</mgrwt>
</event>
<event>
 4    1  0.4639964E-008  0.6377933E+03  0.7818608E-02  0.9829958E-01
         -2   -1    0    0    0  501 -0.00000000000E+00  0.00000000000E+00  0.32168407803E+03  0.32168407804E+03  0.25500000000E-02 0.  1.
          2   -1    0    0  501    0  0.00000000000E+00 -0.00000000000E+00 -0.31451684236E+04  0.31451684236E+04  0.25500000000E-02 0. -1.
    8880022    1    1    2    0    0  0.35580470130E+03 -0.50674610244E+03 -0.71338283487E+02  0.64177052091E+03  0.15294330000E+03 0.  1.
    8880022    1    1    2    0    0 -0.35580470130E+03  0.50674610244E+03 -0.27521460621E+04  0.28250819807E+04  0.15294330000E+03 0.  0.
<mgrwt>
<rscale>  0 0.63779327E+03</rscale>
<asrwt>0</asrwt>
<pdfrwt beam="1">  1        2 0.48387204E+00 0.63779327E+03</pdfrwt>
<pdfrwt beam="2">  1       -2 0.49489860E-01 0.63779327E+03</pdfrwt>
<totfact> 0.59624522E+00</totfact>
</mgrwt>
</event>
<event>
 4    1  0.4639964E-008  0.5768164E+03  0.7818608E-02  0.9954707E-01
          2   -1    0    0  501    0  0.00000000000E+00  0.00000000000E+00  0.19188926444E+04  0.19188926444E+04  0.25500000000E-02 0. -1.
         -2   -1    0    0    0  501 -0.00000000000E+00 -0.00000000000E+00 -0.17339030086E+03  0.17339030088E+03  0.25500000000E-02 0.  1.
    8880022    1    1    2    0    0 -0.19470184419E+03  0.52097673168E+03  0.87203289046E+03  0.10455422412E+04  0.15294330000E+03 0.  1.
    8880022    1    1    2    0    0  0.19470184419E+03 -0.52097673168E+03  0.87346945306E+03  0.10467407041E+04  0.15294330000E+03 0. -1.
<mgrwt>
<rscale>  0 0.57681645E+03</rscale>
<asrwt>0</asrwt>
<pdfrwt beam="1">  1        2 0.29521428E+00 0.57681645E+03</pdfrwt>
<pdfrwt beam="2">  1       -2 0.26675428E-01 0.57681645E+03</pdfrwt>
<totfact> 0.98747672E+01</totfact>
</mgrwt>
</event>
<event>
 4    1  0.4639964E-008  0.7307103E+03  0.7818608E-02  0.9666109E-01
          2   -1    0    0  501    0  0.00000000000E+00  0.00000000000E+00  0.21274132161E+04  0.21274132161E+04  0.25500000000E-02 0. -1.
         -2   -1    0    0    0  501 -0.00000000000E+00 -0.00000000000E+00 -0.29633127918E+03  0.29633127919E+03  0.25500000000E-02 0.  1.
    8880022    1    1    2    0    0  0.44166886757E+03  0.56167112572E+03  0.44144705516E+03  0.85370545129E+03  0.15294330000E+03 0.  0.
    8880022    1    1    2    0    0 -0.44166886757E+03 -0.56167112572E+03  0.13896348818E+04  0.15700390440E+04  0.15294330000E+03 0.  0.
<mgrwt>
<rscale>  0 0.73071027E+03</rscale>
<asrwt>0</asrwt>
<pdfrwt beam="1">  1        2 0.32729436E+00 0.73071027E+03</pdfrwt>
<pdfrwt beam="2">  1       -2 0.45589425E-01 0.73071027E+03</pdfrwt>
<totfact> 0.26872814E+01</totfact>
</mgrwt>
</event>
<event>
 4    1  0.4639964E-008  0.3909253E+03  0.7818608E-02  0.1046968E+00
          2   -1    0    0  501    0  0.00000000000E+00  0.00000000000E+00  0.71771036479E+03  0.71771036479E+03  0.25500000000E-02 0. -1.
         -2   -1    0    0    0  501 -0.00000000000E+00 -0.00000000000E+00 -0.24898051199E+03  0.24898051200E+03  0.25500000000E-02 0.  1.
    8880022    1    1    2    0    0  0.35596658122E+03  0.52141300322E+02  0.50446006278E+02  0.39416668392E+03  0.15294330000E+03 0.  0.
    8880022    1    1    2    0    0 -0.35596658122E+03 -0.52141300322E+02  0.41828384652E+03  0.57252419287E+03  0.15294330000E+03 0.  0.
<mgrwt>
<rscale>  0 0.39092528E+03</rscale>
<asrwt>0</asrwt>
<pdfrwt beam="1">  1        2 0.11041698E+00 0.39092528E+03</pdfrwt>
<pdfrwt beam="2">  1       -2 0.38304695E-01 0.39092528E+03</pdfrwt>
<totfact> 0.26283741E+02</totfact>
</mgrwt>
</event>
<event>
 4    1  0.4639964E-008  0.2765900E+03  0.7818608E-02  0.1097566E+00
          2   -1    0    0  501    0  0.00000000000E+00  0.00000000000E+00  0.15321762222E+04  0.15321762222E+04  0.25500000000E-02 0. -1.
         -2   -1    0    0    0  501 -0.00000000000E+00 -0.00000000000E+00 -0.48072137500E+03  0.48072137500E+03  0.25500000000E-02 0.  1.
    8880022    1    1    2    0    0  0.20948850119E+03  0.96046615439E+02 -0.42702115928E+03  0.50877215721E+03  0.15294330000E+03 0.  1.
    8880022    1    1    2    0    0 -0.20948850119E+03 -0.96046615439E+02  0.14784760065E+04  0.15041254400E+04  0.15294330000E+03 0.  0.
<mgrwt>
<rscale>  0 0.27659002E+03</rscale>
<asrwt>0</asrwt>
<pdfrwt beam="1">  1        2 0.23571942E+00 0.27659002E+03</pdfrwt>
<pdfrwt beam="2">  1       -2 0.73957134E-01 0.27659002E+03</pdfrwt>
<totfact> 0.22552507E+01</totfact>
</mgrwt>
</event>
<event>
 4    1  0.4639964E-008  0.8105731E+03  0.7818608E-02  0.9544838E-01
          2   -1    0    0  501    0  0.00000000000E+00  0.00000000000E+00  0.75771239642E+03  0.75771239642E+03  0.25500000000E-02 0. -1.
         -2   -1    0    0    0  501 -0.00000000000E+00 -0.00000000000E+00 -0.13983177965E+04  0.13983177965E+04  0.25500000000E-02 0.  1.
    8880022    1    1    2    0    0  0.77954938622E+03  0.16105830782E+03  0.34412761180E+03  0.88059780280E+03  0.15294330000E+03 0. -1.
    8880022    1    1    2    0    0 -0.77954938622E+03 -0.16105830782E+03 -0.98473301187E+03  0.12754323901E+04  0.15294330000E+03 0.  0.
<mgrwt>
<rscale>  0 0.81057305E+03</rscale>
<asrwt>0</asrwt>
<pdfrwt beam="1">  1        2 0.11657114E+00 0.81057305E+03</pdfrwt>
<pdfrwt beam="2">  1       -2 0.21512582E+00 0.81057305E+03</pdfrwt>
<totfact> 0.39905082E+00</totfact>
</mgrwt>
</event>
<event>
 4    1  0.4639964E-008  0.7851535E+03  0.7818608E-02  0.9581759E-01
         -2   -1    0    0    0  501 -0.00000000000E+00  0.00000000000E+00  0.33325386231E+03  0.33325386232E+03  0.25500000000E-02 0.  1.
          2   -1    0    0  501    0  0.00000000000E+00 -0.00000000000E+00 -0.32598523323E+04  0.32598523323E+04  0.25500000000E-02 0. -1.
    8880022    1    1    2    0    0 -0.25362487621E+03  0.72715116506E+03 -0.28174767704E+03  0.83417492243E+03  0.15294330000E+03 0.  0.
    8880022    1    1    2    0    0  0.25362487621E+03 -0.72715116506E+03 -0.26448507929E+04  0.27589312722E+04  0.15294330000E+03 0.  0.
<mgrwt>
<rscale>  0 0.78515352E+03</rscale>
<asrwt>0</asrwt>
<pdfrwt beam="1">  1        2 0.50151572E+00 0.78515352E+03</pdfrwt>
<pdfrwt beam="2">  1       -2 0.51269827E-01 0.78515352E+03</pdfrwt>
<totfact> 0.45475915E+00</totfact>
</mgrwt>
</event>
<event>
 4    1  0.4639964E-008  0.2341986E+03  0.7818608E-02  0.1123719E+00
          2   -1    0    0  501    0  0.00000000000E+00  0.00000000000E+00  0.17787143284E+04  0.17787143284E+04  0.25500000000E-02 0. -1.
         -2   -1    0    0    0  501 -0.00000000000E+00 -0.00000000000E+00 -0.24567380230E+03  0.24567380232E+03  0.25500000000E-02 0.  1.
    8880022    1    1    2    0    0 -0.87699174029E+02 -0.15416278348E+03  0.17130612273E+04  0.17289961626E+04  0.15294330000E+03 0. -1.
    8880022    1    1    2    0    0  0.87699174029E+02  0.15416278348E+03 -0.18002070119E+03  0.29539196809E+03  0.15294330000E+03 0.  0.
<mgrwt>
<rscale>  0 0.23419855E+03</rscale>
<asrwt>0</asrwt>
<pdfrwt beam="1">  1        2 0.27364835E+00 0.23419855E+03</pdfrwt>
<pdfrwt beam="2">  1       -2 0.37795971E-01 0.23419855E+03</pdfrwt>
<totfact> 0.66124658E+01</totfact>
</mgrwt>
</event>
<event>
 4    1  0.4639964E-008  0.1475311E+04  0.7818608E-02  0.8901039E-01
          2   -1    0    0  501    0  0.00000000000E+00  0.00000000000E+00  0.18174661879E+04  0.18174661879E+04  0.25500000000E-02 0. -1.
         -2   -1    0    0    0  501 -0.00000000000E+00 -0.00000000000E+00 -0.15697655774E+04  0.15697655774E+04  0.25500000000E-02 0.  1.
    8880022    1    1    2    0    0  0.14342168932E+04 -0.31011514738E+03 -0.70082636399E+03  0.16333091400E+04  0.15294330000E+03 0.  0.
    8880022    1    1    2    0    0 -0.14342168932E+04  0.31011514738E+03  0.94852697447E+03  0.17539226253E+04  0.15294330000E+03 0.  0.
<mgrwt>
<rscale>  0 0.14753105E+04</rscale>
<asrwt>0</asrwt>
<pdfrwt beam="1">  1        2 0.27961018E+00 0.14753105E+04</pdfrwt>
<pdfrwt beam="2">  1       -2 0.24150240E+00 0.14753105E+04</pdfrwt>
<totfact> 0.57558573E-01</totfact>
</mgrwt>
</event>
<event>
 4    1  0.4639964E-008  0.2122030E+03  0.7818608E-02  0.1139833E+00
         -2   -1    0    0    0  501 -0.00000000000E+00  0.00000000000E+00  0.43237651490E+03  0.43237651490E+03  0.25500000000E-02 0.  1.
          2   -1    0    0  501    0  0.00000000000E+00 -0.00000000000E+00 -0.40345913024E+03  0.40345913024E+03  0.25500000000E-02 0. -1.
    8880022    1    1    2    0    0  0.14668063559E+03 -0.11102653146E+02 -0.34550132241E+03  0.40546429505E+03  0.15294330000E+03 0. -1.
    8880022    1    1    2    0    0 -0.14668063559E+03  0.11102653146E+02  0.37441870707E+03  0.43037135009E+03  0.15294330000E+03 0.  0.
<mgrwt>
<rscale>  0 0.21220304E+03</rscale>
<asrwt>0</asrwt>
<pdfrwt beam="1">  1        2 0.62070636E-01 0.21220304E+03</pdfrwt>
<pdfrwt beam="2">  1       -2 0.66519464E-01 0.21220304E+03</pdfrwt>
<totfact> 0.17071492E+02</totfact>
</mgrwt>
</event>
<event>
 4    1  0.4639964E-008  0.6264573E+03  0.7818608E-02  0.9851987E-01
          2   -1    0    0  501    0  0.00000000000E+00  0.00000000000E+00  0.96276436205E+03  0.96276436205E+03  0.25500000000E-02 0. -1.
         -2   -1    0    0    0  501 -0.00000000000E+00 -0.00000000000E+00 -0.12612765386E+04  0.12612765386E+04  0.25500000000E-02 0.  1.
    8880022    1    1    2    0    0  0.24852507910E+03  0.55433954071E+03  0.76558873456E+03  0.98922939950E+03  0.15294330000E+03 0.  0.
    8880022    1    1    2    0    0 -0.24852507910E+03 -0.55433954071E+03 -0.10641009111E+04  0.12348115012E+04  0.15294330000E+03 0.  1.
<mgrwt>
<rscale>  0 0.62645726E+03</rscale>
<asrwt>0</asrwt>
<pdfrwt beam="1">  1        2 0.14811760E+00 0.62645726E+03</pdfrwt>
<pdfrwt beam="2">  1       -2 0.19404254E+00 0.62645726E+03</pdfrwt>
<totfact> 0.40444070E+00</totfact>
</mgrwt>
</event>
<event>
 4    1  0.4639964E-008  0.5006501E+03  0.7818608E-02  0.1013609E+00
         -2   -1    0    0    0  501 -0.00000000000E+00  0.00000000000E+00  0.39650598407E+03  0.39650598408E+03  0.25500000000E-02 0.  1.
          2   -1    0    0  501    0  0.00000000000E+00 -0.00000000000E+00 -0.12124029814E+04  0.12124029814E+04  0.25500000000E-02 0. -1.
    8880022    1    1    2    0    0 -0.44516364588E+03  0.17055264410E+03 -0.96447693043E+03  0.10866767129E+04  0.15294330000E+03 0.  0.
    8880022    1    1    2    0    0  0.44516364588E+03 -0.17055264410E+03  0.14857993315E+03  0.52223225253E+03  0.15294330000E+03 0.  0.
<mgrwt>
<rscale>  0 0.50065011E+03</rscale>
<asrwt>0</asrwt>
<pdfrwt beam="1">  1        2 0.18652353E+00 0.50065011E+03</pdfrwt>
<pdfrwt beam="2">  1       -2 0.61000921E-01 0.50065011E+03</pdfrwt>
<totfact> 0.48798148E+01</totfact>
</mgrwt>
</event>
<event>
 4    1  0.4639964E-008  0.3408702E+03  0.7818608E-02  0.1066426E+00
          2   -1    0    0  501    0  0.00000000000E+00  0.00000000000E+00  0.23520918583E+03  0.23520918584E+03  0.25500000000E-02 0. -1.
         -2   -1    0    0    0  501 -0.00000000000E+00 -0.00000000000E+00 -0.51828603990E+03  0.51828603991E+03  0.25500000000E-02 0.  1.
    8880022    1    1    2    0    0  0.26666763934E+03 -0.14727245669E+03 -0.22309847930E+03  0.40738850113E+03  0.15294330000E+03 0.  1.
    8880022    1    1    2    0    0 -0.26666763934E+03  0.14727245669E+03 -0.59978374772E+02  0.34610672462E+03  0.15294330000E+03 0. -1.
<mgrwt>
<rscale>  0 0.34087015E+03</rscale>
<asrwt>0</asrwt>
<pdfrwt beam="1">  1        2 0.36186029E-01 0.34087015E+03</pdfrwt>
<pdfrwt beam="2">  1       -2 0.79736314E-01 0.34087015E+03</pdfrwt>
<totfact> 0.20524752E+02</totfact>
</mgrwt>
</event>
<event>
 4    1  0.4639964E-008  0.3586677E+03  0.7818608E-02  0.1059113E+00
         -2   -1    0    0    0  501 -0.00000000000E+00  0.00000000000E+00  0.23817390344E+03  0.23817390345E+03  0.25500000000E-02 0.  1.
          2   -1    0    0  501    0  0.00000000000E+00 -0.00000000000E+00 -0.11284289629E+04  0.11284289629E+04  0.25500000000E-02 0. -1.
    8880022    1    1    2    0    0  0.27641754857E+03  0.16983573883E+03 -0.93850344632E+03  0.10047045392E+04  0.15294330000E+03 0.  0.
    8880022    1    1    2    0    0 -0.27641754857E+03 -0.16983573883E+03  0.48248386857E+02  0.36189832715E+03  0.15294330000E+03 0.  0.
<mgrwt>
<rscale>  0 0.35866766E+03</rscale>
<asrwt>0</asrwt>
<pdfrwt beam="1">  1        2 0.17360445E+00 0.35866766E+03</pdfrwt>
<pdfrwt beam="2">  1       -2 0.36642140E-01 0.35866766E+03</pdfrwt>
<totfact> 0.15437937E+02</totfact>
</mgrwt>
</event>
<event>
 4    1  0.4639964E-008  0.4766679E+03  0.7818608E-02  0.1020055E+00
          2   -1    0    0  501    0  0.00000000000E+00  0.00000000000E+00  0.15528893616E+04  0.15528893616E+04  0.25500000000E-02 0. -1.
         -2   -1    0    0    0  501 -0.00000000000E+00 -0.00000000000E+00 -0.19205910835E+03  0.19205910837E+03  0.25500000000E-02 0.  1.
    8880022    1    1    2    0    0  0.39277970124E+03 -0.22258657484E+03  0.25462195211E+03  0.54041157326E+03  0.15294330000E+03 0.  0.
    8880022    1    1    2    0    0 -0.39277970124E+03  0.22258657484E+03  0.11062083011E+04  0.12045368967E+04  0.15294330000E+03 0.  0.
<mgrwt>
<rscale>  0 0.47666795E+03</rscale>
<asrwt>0</asrwt>
<pdfrwt beam="1">  1        2 0.23890606E+00 0.47666795E+03</pdfrwt>
<pdfrwt beam="2">  1       -2 0.29547555E-01 0.47666795E+03</pdfrwt>
<totfact> 0.13099242E+02</totfact>
</mgrwt>
</event>
<event>
 4    1  0.4639964E-008  0.4634083E+03  0.7818608E-02  0.1023797E+00
          2   -1    0    0  501    0  0.00000000000E+00  0.00000000000E+00  0.17800787357E+04  0.17800787357E+04  0.25500000000E-02 0. -1.
         -2   -1    0    0    0  501 -0.00000000000E+00 -0.00000000000E+00 -0.28562107401E+03  0.28562107403E+03  0.25500000000E-02 0.  1.
    8880022    1    1    2    0    0 -0.29253833801E+03  0.32523368419E+03  0.15322117394E+04  0.16007561014E+04  0.15294330000E+03 0.  0.
    8880022    1    1    2    0    0  0.29253833801E+03 -0.32523368419E+03 -0.37754077767E+02  0.46494370836E+03  0.15294330000E+03 0.  0.
<mgrwt>
<rscale>  0 0.46340833E+03</rscale>
<asrwt>0</asrwt>
<pdfrwt beam="1">  1        2 0.27385826E+00 0.46340833E+03</pdfrwt>
<pdfrwt beam="2">  1       -2 0.43941705E-01 0.46340833E+03</pdfrwt>
<totfact> 0.46545903E+01</totfact>
</mgrwt>
</event>
<event>
 4    1  0.4639964E-008  0.5897592E+03  0.7818608E-02  0.9926883E-01
          2   -1    0    0  501    0  0.00000000000E+00  0.00000000000E+00  0.16541871709E+04  0.16541871709E+04  0.25500000000E-02 0. -1.
         -2   -1    0    0    0  501 -0.00000000000E+00 -0.00000000000E+00 -0.37070693425E+03  0.37070693425E+03  0.25500000000E-02 0.  1.
    8880022    1    1    2    0    0 -0.41421774054E+03  0.39095768704E+03 -0.24326015343E+02  0.59026066926E+03  0.15294330000E+03 0.  0.
    8880022    1    1    2    0    0  0.41421774054E+03 -0.39095768704E+03  0.13078062520E+04  0.14346334359E+04  0.15294330000E+03 0.  0.
<mgrwt>
<rscale>  0 0.58975919E+03</rscale>
<asrwt>0</asrwt>
<pdfrwt beam="1">  1        2 0.25449034E+00 0.58975919E+03</pdfrwt>
<pdfrwt beam="2">  1       -2 0.57031836E-01 0.58975919E+03</pdfrwt>
<totfact> 0.31420287E+01</totfact>
</mgrwt>
</event>
<event>
 4    1  0.4639964E-008  0.3327579E+03  0.7818608E-02  0.1069923E+00
          2   -1    0    0  501    0  0.00000000000E+00  0.00000000000E+00  0.61089157786E+03  0.61089157787E+03  0.25500000000E-02 0. -1.
         -2   -1    0    0    0  501 -0.00000000000E+00 -0.00000000000E+00 -0.34262391240E+03  0.34262391241E+03  0.25500000000E-02 0.  1.
    8880022    1    1    2    0    0  0.92535290715E+02  0.28066594756E+03 -0.19305420489E+03  0.38470473507E+03  0.15294330000E+03 0.  0.
    8880022    1    1    2    0    0 -0.92535290715E+02 -0.28066594756E+03  0.46132187036E+03  0.56881075520E+03  0.15294330000E+03 0. -1.
<mgrwt>
<rscale>  0 0.33275788E+03</rscale>
<asrwt>0</asrwt>
<pdfrwt beam="1">  1        2 0.93983319E-01 0.33275788E+03</pdfrwt>
<pdfrwt beam="2">  1       -2 0.52711372E-01 0.33275788E+03</pdfrwt>
<totfact> 0.17116557E+02</totfact>
</mgrwt>
</event>
<event>
 4    1  0.4639964E-008  0.7141808E+03  0.7818608E-02  0.9693284E-01
          2   -1    0    0  501    0  0.00000000000E+00  0.00000000000E+00  0.24319237576E+04  0.24319237576E+04  0.25500000000E-02 0. -1.
         -2   -1    0    0    0  501 -0.00000000000E+00 -0.00000000000E+00 -0.47161942110E+03  0.47161942111E+03  0.25500000000E-02 0.  1.
    8880022    1    1    2    0    0 -0.39487696767E+03 -0.57509540380E+03 -0.10167803728E+03  0.72138243626E+03  0.15294330000E+03 0.  0.
    8880022    1    1    2    0    0  0.39487696767E+03  0.57509540380E+03  0.20619823738E+04  0.21821607425E+04  0.15294330000E+03 0.  0.
<mgrwt>
<rscale>  0 0.71418079E+03</rscale>
<asrwt>0</asrwt>
<pdfrwt beam="1">  1        2 0.37414211E+00 0.71418079E+03</pdfrwt>
<pdfrwt beam="2">  1       -2 0.72556835E-01 0.71418079E+03</pdfrwt>
<totfact> 0.69015666E+00</totfact>
</mgrwt>
</event>
<event>
 4    1  0.4639964E-008  0.2655790E+03  0.7818608E-02  0.1103837E+00
          2   -1    0    0  501    0  0.00000000000E+00  0.00000000000E+00  0.11539596424E+04  0.11539596424E+04  0.25500000000E-02 0. -1.
         -2   -1    0    0    0  501 -0.00000000000E+00 -0.00000000000E+00 -0.14149730882E+03  0.14149730885E+03  0.25500000000E-02 0.  1.
    8880022    1    1    2    0    0  0.46333925199E+02 -0.21211716950E+03  0.18050518366E+02  0.26619166112E+03  0.15294330000E+03 0.  1.
    8880022    1    1    2    0    0 -0.46333925199E+02  0.21211716950E+03  0.99441181518E+03  0.10292652901E+04  0.15294330000E+03 0.  0.
<mgrwt>
<rscale>  0 0.26557895E+03</rscale>
<asrwt>0</asrwt>
<pdfrwt beam="1">  1        2 0.17753226E+00 0.26557895E+03</pdfrwt>
<pdfrwt beam="2">  1       -2 0.21768816E-01 0.26557895E+03</pdfrwt>
<totfact> 0.38810655E+02</totfact>
</mgrwt>
</event>
<event>
 4    1  0.4639964E-008  0.2550280E+03  0.7818608E-02  0.1110168E+00
         -2   -1    0    0    0  501 -0.00000000000E+00  0.00000000000E+00  0.28945632008E+03  0.28945632009E+03  0.25500000000E-02 0.  1.
          2   -1    0    0  501    0  0.00000000000E+00 -0.00000000000E+00 -0.14278814484E+04  0.14278814484E+04  0.25500000000E-02 0. -1.
    8880022    1    1    2    0    0  0.10932426193E+03  0.17232480114E+03 -0.13574302594E+04  0.13811792764E+04  0.15294330000E+03 0. -1.
    8880022    1    1    2    0    0 -0.10932426193E+03 -0.17232480114E+03  0.21900513111E+03  0.33615849209E+03  0.15294330000E+03 0.  0.
<mgrwt>
<rscale>  0 0.25502801E+03</rscale>
<asrwt>0</asrwt>
<pdfrwt beam="1">  1        2 0.21967406E+00 0.25502801E+03</pdfrwt>
<pdfrwt beam="2">  1       -2 0.44531742E-01 0.25502801E+03</pdfrwt>
<totfact> 0.73503918E+01</totfact>
</mgrwt>
</event>
<event>
 4    1  0.4639964E-008  0.7182321E+03  0.7818608E-02  0.9686551E-01
         -2   -1    0    0    0  501 -0.00000000000E+00  0.00000000000E+00  0.87895568504E+03  0.87895568505E+03  0.25500000000E-02 0.  1.
          2   -1    0    0  501    0  0.00000000000E+00 -0.00000000000E+00 -0.14972681774E+04  0.14972681774E+04  0.25500000000E-02 0. -1.
    8880022    1    1    2    0    0 -0.56052993046E+03 -0.42222253304E+03 -0.12355947019E+04  0.14291786420E+04  0.15294330000E+03 0. -1.
    8880022    1    1    2    0    0  0.56052993046E+03  0.42222253304E+03  0.61728220955E+03  0.94704522046E+03  0.15294330000E+03 0.  0.
<mgrwt>
<rscale>  0 0.71823208E+03</rscale>
<asrwt>0</asrwt>
<pdfrwt beam="1">  1        2 0.23034895E+00 0.71823208E+03</pdfrwt>
<pdfrwt beam="2">  1       -2 0.13522395E+00 0.71823208E+03</pdfrwt>
<totfact> 0.51576799E+00</totfact>
</mgrwt>
</event>
<event>
 4    1  0.4639964E-008  0.2734048E+03  0.7818608E-02  0.1099347E+00
         -2   -1    0    0    0  501 -0.00000000000E+00  0.00000000000E+00  0.62615051044E+02  0.62615051096E+02  0.25500000000E-02 0.  1.
          2   -1    0    0  501    0  0.00000000000E+00 -0.00000000000E+00 -0.26482327520E+04  0.26482327520E+04  0.25500000000E-02 0. -1.
    8880022    1    1    2    0    0  0.20153386346E+03  0.10364672593E+03 -0.22972929330E+04  0.23135049200E+04  0.15294330000E+03 0. -1.
    8880022    1    1    2    0    0 -0.20153386346E+03 -0.10364672593E+03 -0.28832476801E+03  0.39734288314E+03  0.15294330000E+03 0.  1.
<mgrwt>
<rscale>  0 0.27340482E+03</rscale>
<asrwt>0</asrwt>
<pdfrwt beam="1">  1        2 0.40742034E+00 0.27340482E+03</pdfrwt>
<pdfrwt beam="2">  1       -2 0.96330868E-02 0.27340482E+03</pdfrwt>
<totfact> 0.23420071E+02</totfact>
</mgrwt>
</event>
<event>
 4    1  0.4639964E-008  0.1056058E+04  0.7818608E-02  0.9249112E-01
          2   -1    0    0  501    0  0.00000000000E+00  0.00000000000E+00  0.87020860245E+03  0.87020860246E+03  0.25500000000E-02 0. -1.
         -2   -1    0    0    0  501 -0.00000000000E+00 -0.00000000000E+00 -0.13261138593E+04  0.13261138593E+04  0.25500000000E-02 0.  1.
    8880022    1    1    2    0    0 -0.44379998467E+03  0.94599581506E+03 -0.26751710161E+02  0.10563966185E+04  0.15294330000E+03 0.  0.
    8880022    1    1    2    0    0  0.44379998467E+03 -0.94599581506E+03 -0.42915354667E+03  0.11399258433E+04  0.15294330000E+03 0.  0.
<mgrwt>
<rscale>  0 0.10560578E+04</rscale>
<asrwt>0</asrwt>
<pdfrwt beam="1">  1        2 0.13387825E+00 0.10560578E+04</pdfrwt>
<pdfrwt beam="2">  1       -2 0.20401752E+00 0.10560578E+04</pdfrwt>
<totfact> 0.37974338E+00</totfact>
</mgrwt>
</event>
<event>
 4    1  0.4639964E-008  0.2680401E+03  0.7818608E-02  0.1102407E+00
         -2   -1    0    0    0  501 -0.00000000000E+00  0.00000000000E+00  0.20282241417E+03  0.20282241418E+03  0.25500000000E-02 0.  1.
          2   -1    0    0  501    0  0.00000000000E+00 -0.00000000000E+00 -0.16169451968E+04  0.16169451969E+04  0.25500000000E-02 0. -1.
    8880022    1    1    2    0    0 -0.10229301533E+02 -0.21988446318E+03  0.97003789280E+02  0.28505298438E+03  0.15294330000E+03 0.  1.
    8880022    1    1    2    0    0  0.10229301533E+02  0.21988446318E+03 -0.15111265720E+04  0.15347146267E+04  0.15294330000E+03 0.  0.
<mgrwt>
<rscale>  0 0.26804005E+03</rscale>
<asrwt>0</asrwt>
<pdfrwt beam="1">  1        2 0.24876079E+00 0.26804005E+03</pdfrwt>
<pdfrwt beam="2">  1       -2 0.31203449E-01 0.26804005E+03</pdfrwt>
<totfact> 0.11378180E+02</totfact>
</mgrwt>
</event>
<event>
 4    1  0.4639964E-008  0.4253957E+03  0.7818608E-02  0.1035324E+00
         -2   -1    0    0    0  501 -0.00000000000E+00  0.00000000000E+00  0.23812454961E+03  0.23812454962E+03  0.25500000000E-02 0.  1.
          2   -1    0    0  501    0  0.00000000000E+00 -0.00000000000E+00 -0.12473437684E+04  0.12473437684E+04  0.25500000000E-02 0. -1.
    8880022    1    1    2    0    0 -0.31682626654E+03 -0.23914632658E+03 -0.96889245917E+03  0.10581654403E+04  0.15294330000E+03 0. -1.
    8880022    1    1    2    0    0  0.31682626654E+03  0.23914632658E+03 -0.40326759580E+02  0.42730287764E+03  0.15294330000E+03 0.  0.
<mgrwt>
<rscale>  0 0.42539570E+03</rscale>
<asrwt>0</asrwt>
<pdfrwt beam="1">  1        2 0.19189904E+00 0.42539570E+03</pdfrwt>
<pdfrwt beam="2">  1       -2 0.36634547E-01 0.42539570E+03</pdfrwt>
<totfact> 0.13053503E+02</totfact>
</mgrwt>
</event>
<event>
 4    1  0.4639964E-008  0.1872896E+03  0.7818608E-02  0.1160929E+00
          2   -1    0    0  501    0  0.00000000000E+00  0.00000000000E+00  0.19079355292E+04  0.19079355292E+04  0.25500000000E-02 0. -1.
         -2   -1    0    0    0  501 -0.00000000000E+00 -0.00000000000E+00 -0.54236007696E+02  0.54236007756E+02  0.25500000000E-02 0.  1.
    8880022    1    1    2    0    0  0.10281427767E+03  0.33390927590E+02  0.17245024628E+04  0.17346429393E+04  0.15294330000E+03 0. -1.
    8880022    1    1    2    0    0 -0.10281427767E+03 -0.33390927590E+02  0.12919705865E+03  0.22752859758E+03  0.15294330000E+03 0.  0.
<mgrwt>
<rscale>  0 0.18728957E+03</rscale>
<asrwt>0</asrwt>
<pdfrwt beam="1">  1        2 0.29352852E+00 0.18728957E+03</pdfrwt>
<pdfrwt beam="2">  1       -2 0.83440018E-02 0.18728957E+03</pdfrwt>
<totfact> 0.74562400E+02</totfact>
</mgrwt>
</event>
<event>
 4    1  0.4639964E-008  0.2089307E+03  0.7818608E-02  0.1142416E+00
         -2   -1    0    0    0  501 -0.00000000000E+00  0.00000000000E+00  0.16219064809E+04  0.16219064809E+04  0.25500000000E-02 0.  1.
          2   -1    0    0  501    0  0.00000000000E+00 -0.00000000000E+00 -0.22053687446E+03  0.22053687448E+03  0.25500000000E-02 0. -1.
    8880022    1    1    2    0    0 -0.93760337685E+02  0.10709512428E+03 -0.16249615894E+03  0.26468286921E+03  0.15294330000E+03 0.  0.
    8880022    1    1    2    0    0  0.93760337685E+02 -0.10709512428E+03  0.15638657654E+04  0.15777604862E+04  0.15294330000E+03 0.  1.
<mgrwt>
<rscale>  0 0.20893066E+03</rscale>
<asrwt>0</asrwt>
<pdfrwt beam="1">  1        2 0.33928750E-01 0.20893066E+03</pdfrwt>
<pdfrwt beam="2">  1       -2 0.24952407E+00 0.20893066E+03</pdfrwt>
<totfact> 0.11340052E+01</totfact>
</mgrwt>
</event>
<event>
 4    1  0.4639964E-008  0.3150139E+03  0.7818608E-02  0.1077967E+00
         -2   -1    0    0    0  501 -0.00000000000E+00  0.00000000000E+00  0.18692086780E+03  0.18692086781E+03  0.25500000000E-02 0.  1.
          2   -1    0    0  501    0  0.00000000000E+00 -0.00000000000E+00 -0.11795531622E+04  0.11795531622E+04  0.25500000000E-02 0. -1.
    8880022    1    1    2    0    0  0.11549235192E+03  0.25000728041E+03  0.10351759147E+02  0.31518397095E+03  0.15294330000E+03 0.  0.
    8880022    1    1    2    0    0 -0.11549235192E+03 -0.25000728041E+03 -0.10029840535E+04  0.10512900591E+04  0.15294330000E+03 0.  0.
<mgrwt>
<rscale>  0 0.31501393E+03</rscale>
<asrwt>0</asrwt>
<pdfrwt beam="1">  1        2 0.18146971E+00 0.31501393E+03</pdfrwt>
<pdfrwt beam="2">  1       -2 0.28757057E-01 0.31501393E+03</pdfrwt>
<totfact> 0.22735554E+02</totfact>
</mgrwt>
</event>
<event>
 4    1  0.4639964E-008  0.5591828E+03  0.7818608E-02  0.9993905E-01
          2   -1    0    0  501    0  0.00000000000E+00  0.00000000000E+00  0.12601157647E+04  0.12601157647E+04  0.25500000000E-02 0. -1.
         -2   -1    0    0    0  501 -0.00000000000E+00 -0.00000000000E+00 -0.93820187393E+03  0.93820187393E+03  0.25500000000E-02 0.  1.
    8880022    1    1    2    0    0 -0.48939902897E+03 -0.22311963823E+03 -0.78170557493E+03  0.96111864065E+03  0.15294330000E+03 0.  0.
    8880022    1    1    2    0    0  0.48939902897E+03  0.22311963823E+03  0.11036194657E+04  0.12371989980E+04  0.15294330000E+03 0.  0.
<mgrwt>
<rscale>  0 0.55918283E+03</rscale>
<asrwt>0</asrwt>
<pdfrwt beam="1">  1        2 0.19386396E+00 0.55918283E+03</pdfrwt>
<pdfrwt beam="2">  1       -2 0.14433875E+00 0.55918283E+03</pdfrwt>
<totfact> 0.60983919E+00</totfact>
</mgrwt>
</event>
<event>
 4    1  0.4639964E-008  0.2567380E+03  0.7818608E-02  0.1109119E+00
         -2   -1    0    0    0  501 -0.00000000000E+00  0.00000000000E+00  0.93187070641E+02  0.93187070676E+02  0.25500000000E-02 0.  1.
          2   -1    0    0  501    0  0.00000000000E+00 -0.00000000000E+00 -0.30625118779E+04  0.30625118779E+04  0.25500000000E-02 0. -1.
    8880022    1    1    2    0    0  0.20523202539E+03 -0.20064130239E+02 -0.28683514799E+04  0.28798185045E+04  0.15294330000E+03 0.  0.
    8880022    1    1    2    0    0 -0.20523202539E+03  0.20064130239E+02 -0.10097332734E+03  0.27588044406E+03  0.15294330000E+03 0.  0.
<mgrwt>
<rscale>  0 0.25673801E+03</rscale>
<asrwt>0</asrwt>
<pdfrwt beam="1">  1        2 0.47115560E+00 0.25673801E+03</pdfrwt>
<pdfrwt beam="2">  1       -2 0.14336475E-01 0.25673801E+03</pdfrwt>
<totfact> 0.71324464E+01</totfact>
</mgrwt>
</event>
<event>
 4    1  0.4639964E-008  0.3633653E+03  0.7818608E-02  0.1057259E+00
         -2   -1    0    0    0  501 -0.00000000000E+00  0.00000000000E+00  0.11166421044E+04  0.11166421044E+04  0.25500000000E-02 0.  1.
          2   -1    0    0  501    0  0.00000000000E+00 -0.00000000000E+00 -0.65453945158E+03  0.65453945159E+03  0.25500000000E-02 0. -1.
    8880022    1    1    2    0    0 -0.21145758356E+03  0.25284058612E+03 -0.57056751916E+03  0.67644779441E+03  0.15294330000E+03 0.  0.
    8880022    1    1    2    0    0  0.21145758356E+03 -0.25284058612E+03  0.10326701719E+04  0.10947337616E+04  0.15294330000E+03 0.  0.
<mgrwt>
<rscale>  0 0.36336528E+03</rscale>
<asrwt>0</asrwt>
<pdfrwt beam="1">  1        2 0.10069838E+00 0.36336528E+03</pdfrwt>
<pdfrwt beam="2">  1       -2 0.17179109E+00 0.36336528E+03</pdfrwt>
<totfact> 0.99669929E+00</totfact>
</mgrwt>
</event>
<event>
 4    1  0.4639964E-008  0.2564540E+03  0.7818608E-02  0.1109293E+00
          2   -1    0    0  501    0  0.00000000000E+00  0.00000000000E+00  0.65880796098E+03  0.65880796099E+03  0.25500000000E-02 0. -1.
         -2   -1    0    0    0  501 -0.00000000000E+00 -0.00000000000E+00 -0.23711646278E+03  0.23711646279E+03  0.25500000000E-02 0.  1.
    8880022    1    1    2    0    0 -0.20386287222E+03  0.28582023792E+02 -0.13001322107E+03  0.28752755246E+03  0.15294330000E+03 0.  0.
    8880022    1    1    2    0    0  0.20386287222E+03 -0.28582023792E+02  0.55170471927E+03  0.60839687132E+03  0.15294330000E+03 0.  0.
<mgrwt>
<rscale>  0 0.25645400E+03</rscale>
<asrwt>0</asrwt>
<pdfrwt beam="1">  1        2 0.10135507E+00 0.25645400E+03</pdfrwt>
<pdfrwt beam="2">  1       -2 0.36479456E-01 0.25645400E+03</pdfrwt>
<totfact> 0.32362148E+02</totfact>
</mgrwt>
</event>
<event>
 4    1  0.4639964E-008  0.4057046E+03  0.7818608E-02  0.1041822E+00
          2   -1    0    0  501    0  0.00000000000E+00  0.00000000000E+00  0.14657286733E+04  0.14657286733E+04  0.25500000000E-02 0. -1.
         -2   -1    0    0    0  501 -0.00000000000E+00 -0.00000000000E+00 -0.21093150306E+03  0.21093150307E+03  0.25500000000E-02 0.  1.
    8880022    1    1    2    0    0 -0.24503982394E+03  0.28488604516E+03  0.54127786250E+02  0.40929945554E+03  0.15294330000E+03 0.  0.
    8880022    1    1    2    0    0  0.24503982394E+03 -0.28488604516E+03  0.12006693840E+04  0.12673607209E+04  0.15294330000E+03 0. -1.
<mgrwt>
<rscale>  0 0.40570461E+03</rscale>
<asrwt>0</asrwt>
<pdfrwt beam="1">  1        2 0.22549671E+00 0.40570461E+03</pdfrwt>
<pdfrwt beam="2">  1       -2 0.32451001E-01 0.40570461E+03</pdfrwt>
<totfact> 0.12417995E+02</totfact>
</mgrwt>
</event>
<event>
 4    1  0.4639964E-008  0.6993320E+03  0.7818608E-02  0.9718375E-01
         -2   -1    0    0    0  501 -0.00000000000E+00  0.00000000000E+00  0.34613299345E+03  0.34613299346E+03  0.25500000000E-02 0.  1.
          2   -1    0    0  501    0  0.00000000000E+00 -0.00000000000E+00 -0.34286397999E+04  0.34286397999E+04  0.25500000000E-02 0. -1.
    8880022    1    1    2    0    0  0.55706599500E+03 -0.39414594377E+03 -0.94105896973E+02  0.70563526034E+03  0.15294330000E+03 0.  0.
    8880022    1    1    2    0    0 -0.55706599500E+03  0.39414594377E+03 -0.29884009095E+04  0.30691375330E+04  0.15294330000E+03 0.  0.
<mgrwt>
<rscale>  0 0.69933197E+03</rscale>
<asrwt>0</asrwt>
<pdfrwt beam="1">  1        2 0.52748302E+00 0.69933197E+03</pdfrwt>
<pdfrwt beam="2">  1       -2 0.53251232E-01 0.69933197E+03</pdfrwt>
<totfact> 0.33179283E+00</totfact>
</mgrwt>
</event>
<event>
 4    1  0.4639964E-008  0.4952349E+03  0.7818608E-02  0.1015030E+00
         -2   -1    0    0    0  501 -0.00000000000E+00  0.00000000000E+00  0.76551559167E+03  0.76551559167E+03  0.25500000000E-02 0.  1.
          2   -1    0    0  501    0  0.00000000000E+00 -0.00000000000E+00 -0.12010946273E+04  0.12010946273E+04  0.25500000000E-02 0. -1.
    8880022    1    1    2    0    0 -0.35103775291E+03  0.31406763261E+03  0.62421946534E+03  0.79681087828E+03  0.15294330000E+03 0.  0.
    8880022    1    1    2    0    0  0.35103775291E+03 -0.31406763261E+03 -0.10597985010E+04  0.11697993407E+04  0.15294330000E+03 0.  0.
<mgrwt>
<rscale>  0 0.49523493E+03</rscale>
<asrwt>0</asrwt>
<pdfrwt beam="1">  1        2 0.18478379E+00 0.49523493E+03</pdfrwt>
<pdfrwt beam="2">  1       -2 0.11777163E+00 0.49523493E+03</pdfrwt>
<totfact> 0.11153661E+01</totfact>
</mgrwt>
</event>
<event>
 4    1  0.4639964E-008  0.6123209E+03  0.7818608E-02  0.9880169E-01
         -2   -1    0    0    0  501 -0.00000000000E+00  0.00000000000E+00  0.40565885775E+03  0.40565885776E+03  0.25500000000E-02 0.  1.
          2   -1    0    0  501    0  0.00000000000E+00 -0.00000000000E+00 -0.13920703036E+04  0.13920703036E+04  0.25500000000E-02 0. -1.
    8880022    1    1    2    0    0  0.56400933266E+03 -0.18286255333E+03 -0.10142751066E+04  0.11847746138E+04  0.15294330000E+03 0.  0.
    8880022    1    1    2    0    0 -0.56400933266E+03  0.18286255333E+03  0.27863660715E+02  0.61295454754E+03  0.15294330000E+03 0.  0.
<mgrwt>
<rscale>  0 0.61232091E+03</rscale>
<asrwt>0</asrwt>
<pdfrwt beam="1">  1        2 0.21416466E+00 0.61232091E+03</pdfrwt>
<pdfrwt beam="2">  1       -2 0.62409056E-01 0.61232091E+03</pdfrwt>
<totfact> 0.36157239E+01</totfact>
</mgrwt>
</event>
<event>
 4    1  0.4639964E-008  0.4338611E+03  0.7818608E-02  0.1032647E+00
          2   -1    0    0  501    0  0.00000000000E+00  0.00000000000E+00  0.16145041718E+04  0.16145041718E+04  0.25500000000E-02 0. -1.
         -2   -1    0    0    0  501 -0.00000000000E+00 -0.00000000000E+00 -0.75219561501E+03  0.75219561501E+03  0.25500000000E-02 0.  1.
    8880022    1    1    2    0    0  0.28181036578E+03 -0.29227844596E+03 -0.65662694665E+03  0.78701611947E+03  0.15294330000E+03 0.  0.
    8880022    1    1    2    0    0 -0.28181036578E+03  0.29227844596E+03  0.15189355034E+04  0.15796836673E+04  0.15294330000E+03 0.  0.
<mgrwt>
<rscale>  0 0.43386107E+03</rscale>
<asrwt>0</asrwt>
<pdfrwt beam="1">  1        2 0.24838526E+00 0.43386107E+03</pdfrwt>
<pdfrwt beam="2">  1       -2 0.11572240E+00 0.43386107E+03</pdfrwt>
<totfact> 0.69441079E+00</totfact>
</mgrwt>
</event>
<event>
 4    1  0.4639964E-008  0.5063427E+03  0.7818608E-02  0.1012137E+00
          2   -1    0    0  501    0  0.00000000000E+00  0.00000000000E+00  0.19936996554E+04  0.19936996554E+04  0.25500000000E-02 0. -1.
         -2   -1    0    0    0  501 -0.00000000000E+00 -0.00000000000E+00 -0.80719571206E+03  0.80719571207E+03  0.25500000000E-02 0.  1.
    8880022    1    1    2    0    0 -0.17961625631E+03  0.44802819039E+03 -0.69080449897E+03  0.85650088601E+03  0.15294330000E+03 0.  0.
    8880022    1    1    2    0    0  0.17961625631E+03 -0.44802819039E+03  0.18773084423E+04  0.19443944814E+04  0.15294330000E+03 0.  0.
<mgrwt>
<rscale>  0 0.50634268E+03</rscale>
<asrwt>0</asrwt>
<pdfrwt beam="1">  1        2 0.30672303E+00 0.50634268E+03</pdfrwt>
<pdfrwt beam="2">  1       -2 0.12418396E+00 0.50634268E+03</pdfrwt>
<totfact> 0.35826686E+00</totfact>
</mgrwt>
</event>
<event>
 4    1  0.4639964E-008  0.7309522E+03  0.7818608E-02  0.9665717E-01
         -2   -1    0    0    0  501 -0.00000000000E+00  0.00000000000E+00  0.14014325934E+04  0.14014325934E+04  0.25500000000E-02 0.  1.
          2   -1    0    0  501    0  0.00000000000E+00 -0.00000000000E+00 -0.11189979501E+04  0.11189979501E+04  0.25500000000E-02 0. -1.
    8880022    1    1    2    0    0 -0.41169653194E+03 -0.58429904865E+03  0.11644753762E+04  0.13748796192E+04  0.15294330000E+03 0.  0.
    8880022    1    1    2    0    0  0.41169653194E+03  0.58429904865E+03 -0.88204073292E+03  0.11455509243E+04  0.15294330000E+03 0.  0.
<mgrwt>
<rscale>  0 0.73095216E+03</rscale>
<asrwt>0</asrwt>
<pdfrwt beam="1">  1        2 0.17215353E+00 0.73095216E+03</pdfrwt>
<pdfrwt beam="2">  1       -2 0.21560501E+00 0.73095216E+03</pdfrwt>
<totfact> 0.23063113E+00</totfact>
</mgrwt>
</event>
<event>
 4    1  0.4639964E-008  0.1656199E+03  0.7818608E-02  0.1182494E+00
          2   -1    0    0  501    0  0.00000000000E+00  0.00000000000E+00  0.56078171414E+03  0.56078171415E+03  0.25500000000E-02 0. -1.
         -2   -1    0    0    0  501 -0.00000000000E+00 -0.00000000000E+00 -0.20231510298E+03  0.20231510300E+03  0.25500000000E-02 0.  1.
    8880022    1    1    2    0    0 -0.27611677653E+02  0.57235285288E+02  0.51147190832E+03  0.53761831130E+03  0.15294330000E+03 0. -1.
    8880022    1    1    2    0    0  0.27611677653E+02 -0.57235285288E+02 -0.15300529716E+03  0.22547850585E+03  0.15294330000E+03 0.  0.
<mgrwt>
<rscale>  0 0.16561985E+03</rscale>
<asrwt>0</asrwt>
<pdfrwt beam="1">  1        2 0.86274110E-01 0.16561985E+03</pdfrwt>
<pdfrwt beam="2">  1       -2 0.31125400E-01 0.16561985E+03</pdfrwt>
<totfact> 0.52640397E+02</totfact>
</mgrwt>
</event>
<event>
 4    1  0.4639964E-008  0.6168589E+03  0.7818608E-02  0.9871034E-01
         -2   -1    0    0    0  501 -0.00000000000E+00  0.00000000000E+00  0.60420721959E+03  0.60420721960E+03  0.25500000000E-02 0.  1.
          2   -1    0    0  501    0  0.00000000000E+00 -0.00000000000E+00 -0.88733052880E+03  0.88733052881E+03  0.25500000000E-02 0. -1.
    8880022    1    1    2    0    0 -0.59574928514E+03 -0.46968534090E+02 -0.54334927755E+03  0.82203609676E+03  0.15294330000E+03 0.  0.
    8880022    1    1    2    0    0  0.59574928514E+03  0.46968534090E+02  0.26022596834E+03  0.66950165164E+03  0.15294330000E+03 0.  0.
<mgrwt>
<rscale>  0 0.61685890E+03</rscale>
<asrwt>0</asrwt>
<pdfrwt beam="1">  1        2 0.13651239E+00 0.61685890E+03</pdfrwt>
<pdfrwt beam="2">  1       -2 0.92954957E-01 0.61685890E+03</pdfrwt>
<totfact> 0.30173097E+01</totfact>
</mgrwt>
</event>
<event>
 4    1  0.4639964E-008  0.8736209E+03  0.7818608E-02  0.9459171E-01
          2   -1    0    0  501    0  0.00000000000E+00  0.00000000000E+00  0.70611745404E+03  0.70611745405E+03  0.25500000000E-02 0. -1.
         -2   -1    0    0    0  501 -0.00000000000E+00 -0.00000000000E+00 -0.13555503302E+04  0.13555503302E+04  0.25500000000E-02 0.  1.
    8880022    1    1    2    0    0  0.30072393131E+03 -0.80584547466E+03 -0.78875414812E+03  0.11770074643E+04  0.15294330000E+03 0.  0.
    8880022    1    1    2    0    0 -0.30072393131E+03  0.80584547466E+03  0.13932127192E+03  0.88466031996E+03  0.15294330000E+03 0.  0.
<mgrwt>
<rscale>  0 0.87362089E+03</rscale>
<asrwt>0</asrwt>
<pdfrwt beam="1">  1        2 0.10863345E+00 0.87362089E+03</pdfrwt>
<pdfrwt beam="2">  1       -2 0.20854620E+00 0.87362089E+03</pdfrwt>
<totfact> 0.47755510E+00</totfact>
</mgrwt>
</event>
<event>
 4    1  0.4639964E-008  0.3278044E+03  0.7818608E-02  0.1072113E+00
         -2   -1    0    0    0  501 -0.00000000000E+00  0.00000000000E+00  0.38415994804E+02  0.38415994889E+02  0.25500000000E-02 0.  1.
          2   -1    0    0  501    0  0.00000000000E+00 -0.00000000000E+00 -0.30960887398E+04  0.30960887398E+04  0.25500000000E-02 0. -1.
    8880022    1    1    2    0    0 -0.26628874428E+03  0.11469246807E+03 -0.10418513881E+04  0.10922042050E+04  0.15294330000E+03 0.  0.
    8880022    1    1    2    0    0  0.26628874428E+03 -0.11469246807E+03 -0.20158213569E+04  0.20423005297E+04  0.15294330000E+03 0.  0.
<mgrwt>
<rscale>  0 0.32780438E+03</rscale>
<asrwt>0</asrwt>
<pdfrwt beam="1">  1        2 0.47632115E+00 0.32780438E+03</pdfrwt>
<pdfrwt beam="2">  1       -2 0.59101555E-02 0.32780438E+03</pdfrwt>
<totfact> 0.27247114E+02</totfact>
</mgrwt>
</event>
<event>
 4    1  0.4639964E-008  0.9645258E+03  0.7818608E-02  0.9348332E-01
         -2   -1    0    0    0  501 -0.00000000000E+00  0.00000000000E+00  0.40489000931E+03  0.40489000931E+03  0.25500000000E-02 0.  1.
          2   -1    0    0  501    0  0.00000000000E+00 -0.00000000000E+00 -0.31301088203E+04  0.31301088203E+04  0.25500000000E-02 0. -1.
    8880022    1    1    2    0    0 -0.17305893190E+03 -0.93646617193E+03 -0.45111993212E+03  0.10648094342E+04  0.15294330000E+03 0.  0.
    8880022    1    1    2    0    0  0.17305893190E+03  0.93646617193E+03 -0.22740988789E+04  0.24701893954E+04  0.15294330000E+03 0.  0.
<mgrwt>
<rscale>  0 0.96452576E+03</rscale>
<asrwt>0</asrwt>
<pdfrwt beam="1">  1        2 0.48155519E+00 0.96452576E+03</pdfrwt>
<pdfrwt beam="2">  1       -2 0.62290773E-01 0.96452576E+03</pdfrwt>
<totfact> 0.35510685E+00</totfact>
</mgrwt>
</event>
<event>
 4    1  0.4639964E-008  0.4023010E+03  0.7818608E-02  0.1042986E+00
          2   -1    0    0  501    0  0.00000000000E+00  0.00000000000E+00  0.77723819598E+03  0.77723819598E+03  0.25500000000E-02 0. -1.
         -2   -1    0    0    0  501 -0.00000000000E+00 -0.00000000000E+00 -0.56702230353E+03  0.56702230354E+03  0.25500000000E-02 0.  1.
    8880022    1    1    2    0    0 -0.23719475118E+03  0.28669333446E+03 -0.42954696216E+03  0.58852074197E+03  0.15294330000E+03 0.  0.
    8880022    1    1    2    0    0  0.23719475118E+03 -0.28669333446E+03  0.63976285460E+03  0.75573975756E+03  0.15294330000E+03 0.  0.
<mgrwt>
<rscale>  0 0.40230097E+03</rscale>
<asrwt>0</asrwt>
<pdfrwt beam="1">  1        2 0.11957511E+00 0.40230097E+03</pdfrwt>
<pdfrwt beam="2">  1       -2 0.87234201E-01 0.40230097E+03</pdfrwt>
<totfact> 0.42796119E+01</totfact>
</mgrwt>
</event>
<event>
 4    1  0.4639964E-008  0.9530755E+03  0.7818608E-02  0.9361563E-01
         -2   -1    0    0    0  501 -0.00000000000E+00  0.00000000000E+00  0.15017521459E+04  0.15017521459E+04  0.25500000000E-02 0.  1.
          2   -1    0    0  501    0  0.00000000000E+00 -0.00000000000E+00 -0.14367701535E+04  0.14367701535E+04  0.25500000000E-02 0. -1.
    8880022    1    1    2    0    0 -0.33603073883E+03 -0.87866069158E+03  0.11504941192E+04  0.14939844844E+04  0.15294330000E+03 0.  0.
    8880022    1    1    2    0    0  0.33603073883E+03  0.87866069158E+03 -0.10855121268E+04  0.14445378149E+04  0.15294330000E+03 0.  0.
<mgrwt>
<rscale>  0 0.95307551E+03</rscale>
<asrwt>0</asrwt>
<pdfrwt beam="1">  1        2 0.22104156E+00 0.95307551E+03</pdfrwt>
<pdfrwt beam="2">  1       -2 0.23103879E+00 0.95307551E+03</pdfrwt>
<totfact> 0.11641271E+00</totfact>
</mgrwt>
</event>
<event>
 4    1  0.4639964E-008  0.3055258E+03  0.7818608E-02  0.1082510E+00
         -2   -1    0    0    0  501 -0.00000000000E+00  0.00000000000E+00  0.19859512102E+03  0.19859512103E+03  0.25500000000E-02 0.  1.
          2   -1    0    0  501    0  0.00000000000E+00 -0.00000000000E+00 -0.18176664813E+04  0.18176664813E+04  0.25500000000E-02 0. -1.
    8880022    1    1    2    0    0  0.23798117732E+03 -0.11540944023E+03  0.58516566645E+02  0.31107912376E+03  0.15294330000E+03 0.  0.
    8880022    1    1    2    0    0 -0.23798117732E+03  0.11540944023E+03 -0.16775879269E+04  0.17051824785E+04  0.15294330000E+03 0.  0.
<mgrwt>
<rscale>  0 0.30552583E+03</rscale>
<asrwt>0</asrwt>
<pdfrwt beam="1">  1        2 0.27964099E+00 0.30552583E+03</pdfrwt>
<pdfrwt beam="2">  1       -2 0.30553097E-01 0.30552583E+03</pdfrwt>
<totfact> 0.91751335E+01</totfact>
</mgrwt>
</event>
<event>
 4    1  0.4639964E-008  0.7754897E+03  0.7818608E-02  0.9596188E-01
         -2   -1    0    0    0  501 -0.00000000000E+00  0.00000000000E+00  0.36158348872E+03  0.36158348872E+03  0.25500000000E-02 0.  1.
          2   -1    0    0  501    0  0.00000000000E+00 -0.00000000000E+00 -0.36020340785E+04  0.36020340785E+04  0.25500000000E-02 0. -1.
    8880022    1    1    2    0    0  0.75359384802E+03  0.10044396315E+03 -0.16624482217E+03  0.79310886480E+03  0.15294330000E+03 0.  0.
    8880022    1    1    2    0    0 -0.75359384802E+03 -0.10044396315E+03 -0.30742057676E+04  0.31705087024E+04  0.15294330000E+03 0.  0.
<mgrwt>
<rscale>  0 0.77548974E+03</rscale>
<asrwt>0</asrwt>
<pdfrwt beam="1">  1        2 0.55415906E+00 0.77548974E+03</pdfrwt>
<pdfrwt beam="2">  1       -2 0.55628232E-01 0.77548974E+03</pdfrwt>
<totfact> 0.22673790E+00</totfact>
</mgrwt>
</event>
<event>
 4    1  0.4639964E-008  0.1842276E+03  0.7818608E-02  0.1163773E+00
         -2   -1    0    0    0  501 -0.00000000000E+00  0.00000000000E+00  0.76823371293E+02  0.76823371336E+02  0.25500000000E-02 0.  1.
          2   -1    0    0  501    0  0.00000000000E+00 -0.00000000000E+00 -0.12726912376E+04  0.12726912376E+04  0.25500000000E-02 0. -1.
    8880022    1    1    2    0    0 -0.50470863989E+02 -0.89447516830E+02 -0.52727847184E+02  0.19162475117E+03  0.15294330000E+03 0.  0.
    8880022    1    1    2    0    0  0.50470863989E+02  0.89447516830E+02 -0.11431400191E+04  0.11578898577E+04  0.15294330000E+03 0. -1.
<mgrwt>
<rscale>  0 0.18422763E+03</rscale>
<asrwt>0</asrwt>
<pdfrwt beam="1">  1        2 0.19579864E+00 0.18422763E+03</pdfrwt>
<pdfrwt beam="2">  1       -2 0.11818981E-01 0.18422763E+03</pdfrwt>
<totfact> 0.92887780E+02</totfact>
</mgrwt>
</event>
<event>
 4    1  0.4639964E-008  0.6461676E+03  0.7818608E-02  0.9813997E-01
         -2   -1    0    0    0  501 -0.00000000000E+00  0.00000000000E+00  0.22549181975E+03  0.22549181976E+03  0.25500000000E-02 0.  1.
          2   -1    0    0  501    0  0.00000000000E+00 -0.00000000000E+00 -0.30245879290E+04  0.30245879290E+04  0.25500000000E-02 0. -1.
    8880022    1    1    2    0    0  0.42638907230E+03  0.46079636388E+03 -0.24115186467E+04  0.24965886258E+04  0.15294330000E+03 0.  0.
    8880022    1    1    2    0    0 -0.42638907230E+03 -0.46079636388E+03 -0.38757746255E+03  0.75349112300E+03  0.15294330000E+03 0.  0.
<mgrwt>
<rscale>  0 0.64616761E+03</rscale>
<asrwt>0</asrwt>
<pdfrwt beam="1">  1        2 0.46532119E+00 0.64616761E+03</pdfrwt>
<pdfrwt beam="2">  1       -2 0.34691051E-01 0.64616761E+03</pdfrwt>
<totfact> 0.14178224E+01</totfact>
</mgrwt>
</event>
<event>
 4    1  0.4639964E-008  0.3603766E+03  0.7818608E-02  0.1058435E+00
         -2   -1    0    0    0  501 -0.00000000000E+00  0.00000000000E+00  0.88047964785E+02  0.88047964822E+02  0.25500000000E-02 0.  1.
          2   -1    0    0  501    0  0.00000000000E+00 -0.00000000000E+00 -0.15662700931E+04  0.15662700931E+04  0.25500000000E-02 0. -1.
    8880022    1    1    2    0    0 -0.29918420245E+03  0.13026298605E+03 -0.53944446972E+03  0.64874619186E+03  0.15294330000E+03 0.  1.
    8880022    1    1    2    0    0  0.29918420245E+03 -0.13026298605E+03 -0.93877765857E+03  0.10055718660E+04  0.15294330000E+03 0. -1.
<mgrwt>
<rscale>  0 0.36037659E+03</rscale>
<asrwt>0</asrwt>
<pdfrwt beam="1">  1        2 0.24096461E+00 0.36037659E+03</pdfrwt>
<pdfrwt beam="2">  1       -2 0.13545842E-01 0.36037659E+03</pdfrwt>
<totfact> 0.50615391E+02</totfact>
</mgrwt>
</event>
<event>
 4    1  0.4639964E-008  0.6302756E+03  0.7818608E-02  0.9844511E-01
          2   -1    0    0  501    0  0.00000000000E+00  0.00000000000E+00  0.41352390523E+03  0.41352390523E+03  0.25500000000E-02 0. -1.
         -2   -1    0    0    0  501 -0.00000000000E+00 -0.00000000000E+00 -0.13209092582E+04  0.13209092582E+04  0.25500000000E-02 0.  1.
    8880022    1    1    2    0    0  0.25032696812E+03 -0.55784594172E+03 -0.90659554465E+03  0.11041570632E+04  0.15294330000E+03 0.  0.
    8880022    1    1    2    0    0 -0.25032696812E+03  0.55784594172E+03 -0.78980830420E+00  0.63027610020E+03  0.15294330000E+03 0.  0.
<mgrwt>
<rscale>  0 0.63027561E+03</rscale>
<asrwt>0</asrwt>
<pdfrwt beam="1">  1        2 0.63619063E-01 0.63027561E+03</pdfrwt>
<pdfrwt beam="2">  1       -2 0.20321681E+00 0.63027561E+03</pdfrwt>
<totfact> 0.10024774E+01</totfact>
</mgrwt>
</event>
<event>
 4    1  0.4639964E-008  0.6912900E+03  0.7818608E-02  0.9732244E-01
          2   -1    0    0  501    0  0.00000000000E+00  0.00000000000E+00  0.99188520829E+03  0.99188520829E+03  0.25500000000E-02 0. -1.
         -2   -1    0    0    0  501 -0.00000000000E+00 -0.00000000000E+00 -0.58379343834E+03  0.58379343835E+03  0.25500000000E-02 0.  1.
    8880022    1    1    2    0    0  0.25656348317E+03 -0.62343037615E+03 -0.12526960872E+03  0.70254849135E+03  0.15294330000E+03 0.  0.
    8880022    1    1    2    0    0 -0.25656348317E+03  0.62343037615E+03  0.53336137867E+03  0.87313015529E+03  0.15294330000E+03 0.  0.
<mgrwt>
<rscale>  0 0.69129003E+03</rscale>
<asrwt>0</asrwt>
<pdfrwt beam="1">  1        2 0.15259772E+00 0.69129003E+03</pdfrwt>
<pdfrwt beam="2">  1       -2 0.89814376E-01 0.69129003E+03</pdfrwt>
<totfact> 0.27673035E+01</totfact>
</mgrwt>
</event>
<event>
 4    1  0.4639964E-008  0.1042847E+04  0.7818608E-02  0.9262760E-01
          2   -1    0    0  501    0  0.00000000000E+00  0.00000000000E+00  0.38024373373E+04  0.38024373373E+04  0.25500000000E-02 0. -1.
         -2   -1    0    0    0  501 -0.00000000000E+00 -0.00000000000E+00 -0.57960327646E+03  0.57960327646E+03  0.25500000000E-02 0.  1.
    8880022    1    1    2    0    0  0.32023177799E+03  0.98060713170E+03  0.31708077887E+04  0.33378964070E+04  0.15294330000E+03 0.  0.
    8880022    1    1    2    0    0 -0.32023177799E+03 -0.98060713170E+03  0.52026272132E+02  0.10441442067E+04  0.15294330000E+03 0.  0.
<mgrwt>
<rscale>  0 0.10428473E+04</rscale>
<asrwt>0</asrwt>
<pdfrwt beam="1">  1        2 0.58499039E+00 0.10428473E+04</pdfrwt>
<pdfrwt beam="2">  1       -2 0.89169730E-01 0.10428473E+04</pdfrwt>
<totfact> 0.54713582E-01</totfact>
</mgrwt>
</event>
<event>
 4    1  0.4639964E-008  0.6671703E+03  0.7818608E-02  0.9775083E-01
          2   -1    0    0  501    0  0.00000000000E+00  0.00000000000E+00  0.57371929789E+03  0.57371929789E+03  0.25500000000E-02 0. -1.
         -2   -1    0    0    0  501 -0.00000000000E+00 -0.00000000000E+00 -0.92304589071E+03  0.92304589071E+03  0.25500000000E-02 0.  1.
    8880022    1    1    2    0    0 -0.61549236136E+03  0.20710805626E+03  0.12419810352E+03  0.67863201795E+03  0.15294330000E+03 0.  0.
    8880022    1    1    2    0    0  0.61549236136E+03 -0.20710805626E+03 -0.47352469634E+03  0.81813317065E+03  0.15294330000E+03 0.  0.
<mgrwt>
<rscale>  0 0.66717033E+03</rscale>
<asrwt>0</asrwt>
<pdfrwt beam="1">  1        2 0.88264507E-01 0.66717033E+03</pdfrwt>
<pdfrwt beam="2">  1       -2 0.14200706E+00 0.66717033E+03</pdfrwt>
<totfact> 0.18512311E+01</totfact>
</mgrwt>
</event>
<event>
 4    1  0.4639964E-008  0.7185111E+03  0.7818608E-02  0.9686089E-01
         -2   -1    0    0    0  501 -0.00000000000E+00  0.00000000000E+00  0.17829956648E+03  0.17829956650E+03  0.25500000000E-02 0.  1.
          2   -1    0    0  501    0  0.00000000000E+00 -0.00000000000E+00 -0.43196652767E+04  0.43196652767E+04  0.25500000000E-02 0. -1.
    8880022    1    1    2    0    0  0.37688591145E+03 -0.59230355948E+03 -0.33620456211E+04  0.34379658097E+04  0.15294330000E+03 0.  0.
    8880022    1    1    2    0    0 -0.37688591145E+03  0.59230355948E+03 -0.77932008911E+03  0.10599990336E+04  0.15294330000E+03 0.  0.
<mgrwt>
<rscale>  0 0.71851106E+03</rscale>
<asrwt>0</asrwt>
<pdfrwt beam="1">  1        2 0.66456381E+00 0.71851106E+03</pdfrwt>
<pdfrwt beam="2">  1       -2 0.27430706E-01 0.71851106E+03</pdfrwt>
<totfact> 0.24943997E+00</totfact>
</mgrwt>
</event>
<event>
 4    1  0.4639964E-008  0.4436196E+03  0.7818608E-02  0.1029642E+00
         -2   -1    0    0    0  501 -0.00000000000E+00  0.00000000000E+00  0.11641739618E+04  0.11641739618E+04  0.25500000000E-02 0.  1.
          2   -1    0    0  501    0  0.00000000000E+00 -0.00000000000E+00 -0.30235452778E+03  0.30235452779E+03  0.25500000000E-02 0. -1.
    8880022    1    1    2    0    0  0.41413353844E+03  0.43589843729E+02  0.91780114305E+03  0.10193906284E+04  0.15294330000E+03 0.  0.
    8880022    1    1    2    0    0 -0.41413353844E+03 -0.43589843729E+02 -0.55981709019E+02  0.44713786117E+03  0.15294330000E+03 0.  0.
<mgrwt>
<rscale>  0 0.44361956E+03</rscale>
<asrwt>0</asrwt>
<pdfrwt beam="1">  1        2 0.46516081E-01 0.44361956E+03</pdfrwt>
<pdfrwt beam="2">  1       -2 0.17910369E+00 0.44361956E+03</pdfrwt>
<totfact> 0.20967078E+01</totfact>
</mgrwt>
</event>
<event>
 4    1  0.7111458E-008  0.1257958E+04  0.7818608E-02  0.9063586E-01
          2   -1    0    0  501    0  0.00000000000E+00  0.00000000000E+00  0.13941018688E+04  0.13941018688E+04  0.25500000000E-02 0. -1.
         -2   -1    0    0    0  501 -0.00000000000E+00 -0.00000000000E+00 -0.26590535659E+04  0.26590535659E+04  0.25500000000E-02 0.  1.
    8880022    1    1    2    0    0  0.11126427268E+04  0.56664963176E+03  0.90173247220E+03  0.15477657275E+04  0.15294330000E+03 0.  0.
    8880022    1    1    2    0    0 -0.11126427268E+04 -0.56664963176E+03 -0.21666841693E+04  0.25053897072E+04  0.15294330000E+03 0.  0.
<mgrwt>
<rscale>  0 0.12579576E+04</rscale>
<asrwt>0</asrwt>
<pdfrwt beam="1">  1        2 0.21447721E+00 0.12579576E+04</pdfrwt>
<pdfrwt beam="2">  1       -2 0.40908516E+00 0.12579576E+04</pdfrwt>
<totfact> 0.92012573E-02</totfact>
</mgrwt>
</event>
<event>
 4    1  0.4639964E-008  0.1664703E+03  0.7818608E-02  0.1181580E+00
          2   -1    0    0  501    0  0.00000000000E+00  0.00000000000E+00  0.24002081537E+04  0.24002081537E+04  0.25500000000E-02 0. -1.
         -2   -1    0    0    0  501 -0.00000000000E+00 -0.00000000000E+00 -0.13092747314E+03  0.13092747317E+03  0.25500000000E-02 0.  1.
    8880022    1    1    2    0    0 -0.38708948919E+02 -0.53125447867E+02  0.23431185923E+04  0.23490247097E+04  0.15294330000E+03 0.  0.
    8880022    1    1    2    0    0  0.38708948919E+02  0.53125447867E+02 -0.73837911756E+02  0.18211091720E+03  0.15294330000E+03 0.  0.
<mgrwt>
<rscale>  0 0.16647026E+03</rscale>
<asrwt>0</asrwt>
<pdfrwt beam="1">  1        2 0.36926278E+00 0.16647026E+03</pdfrwt>
<pdfrwt beam="2">  1       -2 0.20142689E-01 0.16647026E+03</pdfrwt>
<totfact> 0.99358701E+01</totfact>
</mgrwt>
</event>
<event>
 4    1  0.4639964E-008  0.5466124E+03  0.7818608E-02  0.1002281E+00
         -2   -1    0    0    0  501 -0.00000000000E+00  0.00000000000E+00  0.48237526313E+03  0.48237526313E+03  0.25500000000E-02 0.  1.
          2   -1    0    0  501    0  0.00000000000E+00 -0.00000000000E+00 -0.11778882036E+04  0.11778882036E+04  0.25500000000E-02 0. -1.
    8880022    1    1    2    0    0  0.14492006515E+03  0.50437252657E+03  0.22385437723E+03  0.59067411155E+03  0.15294330000E+03 0.  0.
    8880022    1    1    2    0    0 -0.14492006515E+03 -0.50437252657E+03 -0.91936731767E+03  0.10695893552E+04  0.15294330000E+03 0.  0.
<mgrwt>
<rscale>  0 0.54661241E+03</rscale>
<asrwt>0</asrwt>
<pdfrwt beam="1">  1        2 0.18121357E+00 0.54661241E+03</pdfrwt>
<pdfrwt beam="2">  1       -2 0.74211579E-01 0.54661241E+03</pdfrwt>
<totfact> 0.33301930E+01</totfact>
</mgrwt>
</event>
<event>
 4    1  0.4639964E-008  0.9558843E+03  0.7818608E-02  0.9358299E-01
          2   -1    0    0  501    0  0.00000000000E+00  0.00000000000E+00  0.30824377463E+04  0.30824377463E+04  0.25500000000E-02 0. -1.
         -2   -1    0    0    0  501 -0.00000000000E+00 -0.00000000000E+00 -0.40600985112E+03  0.40600985113E+03  0.25500000000E-02 0.  1.
    8880022    1    1    2    0    0  0.91460282004E+03 -0.23200157152E+03  0.22443787638E+04  0.24394570576E+04  0.15294330000E+03 0.  0.
    8880022    1    1    2    0    0 -0.91460282004E+03  0.23200157152E+03  0.43204913135E+03  0.10489905398E+04  0.15294330000E+03 0.  0.
<mgrwt>
<rscale>  0 0.95588425E+03</rscale>
<asrwt>0</asrwt>
<pdfrwt beam="1">  1        2 0.47422118E+00 0.95588425E+03</pdfrwt>
<pdfrwt beam="2">  1       -2 0.62463055E-01 0.95588425E+03</pdfrwt>
<totfact> 0.37874902E+00</totfact>
</mgrwt>
</event>
<event>
 4    1  0.1507882E-007  0.8464330E+03  0.7818608E-02  0.9495137E-01
         -2   -1    0    0    0  501 -0.00000000000E+00  0.00000000000E+00  0.13082868157E+04  0.13082868157E+04  0.25500000000E-02 0.  1.
          2   -1    0    0  501    0  0.00000000000E+00 -0.00000000000E+00 -0.26700606062E+04  0.26700606062E+04  0.25500000000E-02 0. -1.
    8880022    1    1    2    0    0 -0.46820951802E+03  0.68835817819E+03 -0.24543801944E+04  0.25962339891E+04  0.15294330000E+03 0.  0.
    8880022    1    1    2    0    0  0.46820951802E+03 -0.68835817819E+03  0.10926064040E+04  0.13821134328E+04  0.15294330000E+03 0.  0.
<mgrwt>
<rscale>  0 0.84643298E+03</rscale>
<asrwt>0</asrwt>
<pdfrwt beam="1">  1        2 0.41077855E+00 0.84643298E+03</pdfrwt>
<pdfrwt beam="2">  1       -2 0.20127490E+00 0.84643298E+03</pdfrwt>
<totfact> 0.37573216E-01</totfact>
</mgrwt>
</event>
<event>
 4    1  0.4639964E-008  0.5006241E+03  0.7818608E-02  0.1013616E+00
          2   -1    0    0  501    0  0.00000000000E+00  0.00000000000E+00  0.44191854046E+03  0.44191854047E+03  0.25500000000E-02 0. -1.
         -2   -1    0    0    0  501 -0.00000000000E+00 -0.00000000000E+00 -0.15369458129E+04  0.15369458129E+04  0.25500000000E-02 0.  1.
    8880022    1    1    2    0    0 -0.40737392170E+03  0.24754658729E+03 -0.13334760528E+04  0.14243534889E+04  0.15294330000E+03 0.  1.
    8880022    1    1    2    0    0  0.40737392170E+03 -0.24754658729E+03  0.23844878035E+03  0.55451086448E+03  0.15294330000E+03 0.  0.
<mgrwt>
<rscale>  0 0.50062409E+03</rscale>
<asrwt>0</asrwt>
<pdfrwt beam="1">  1        2 0.67987469E-01 0.50062409E+03</pdfrwt>
<pdfrwt beam="2">  1       -2 0.23645320E+00 0.50062409E+03</pdfrwt>
<totfact> 0.58907155E+00</totfact>
</mgrwt>
</event>
<event>
 4    1  0.4639964E-008  0.2907837E+03  0.7818608E-02  0.1089941E+00
          2   -1    0    0  501    0  0.00000000000E+00  0.00000000000E+00  0.13355132793E+04  0.13355132793E+04  0.25500000000E-02 0. -1.
         -2   -1    0    0    0  501 -0.00000000000E+00 -0.00000000000E+00 -0.41700670256E+03  0.41700670257E+03  0.25500000000E-02 0.  1.
    8880022    1    1    2    0    0 -0.24688176139E+03  0.14590759347E+02  0.12662564252E+04  0.12992153331E+04  0.15294330000E+03 0.  0.
    8880022    1    1    2    0    0  0.24688176139E+03 -0.14590759347E+02 -0.34774984854E+03  0.45330464870E+03  0.15294330000E+03 0.  1.
<mgrwt>
<rscale>  0 0.29078368E+03</rscale>
<asrwt>0</asrwt>
<pdfrwt beam="1">  1        2 0.20546358E+00 0.29078368E+03</pdfrwt>
<pdfrwt beam="2">  1       -2 0.64154879E-01 0.29078368E+03</pdfrwt>
<totfact> 0.38940840E+01</totfact>
</mgrwt>
</event>
<event>
 4    1  0.4639964E-008  0.8152984E+03  0.7818608E-02  0.9538134E-01
          2   -1    0    0  501    0  0.00000000000E+00  0.00000000000E+00  0.14376577237E+04  0.14376577237E+04  0.25500000000E-02 0. -1.
         -2   -1    0    0    0  501 -0.00000000000E+00 -0.00000000000E+00 -0.86949443127E+03  0.86949443127E+03  0.25500000000E-02 0.  1.
    8880022    1    1    2    0    0 -0.45057632248E+03  0.66204289721E+03 -0.50529308670E+03  0.95918328625E+03  0.15294330000E+03 0.  0.
    8880022    1    1    2    0    0  0.45057632248E+03 -0.66204289721E+03  0.10734563791E+04  0.13479688687E+04  0.15294330000E+03 0.  0.
<mgrwt>
<rscale>  0 0.81529840E+03</rscale>
<asrwt>0</asrwt>
<pdfrwt beam="1">  1        2 0.22117811E+00 0.81529840E+03</pdfrwt>
<pdfrwt beam="2">  1       -2 0.13376837E+00 0.81529840E+03</pdfrwt>
<totfact> 0.56458200E+00</totfact>
</mgrwt>
</event>
<event>
 4    1  0.4639964E-008  0.2683832E+03  0.7818608E-02  0.1102209E+00
         -2   -1    0    0    0  501 -0.00000000000E+00  0.00000000000E+00  0.55509764981E+02  0.55509765039E+02  0.25500000000E-02 0.  1.
          2   -1    0    0  501    0  0.00000000000E+00 -0.00000000000E+00 -0.25750343297E+04  0.25750343297E+04  0.25500000000E-02 0. -1.
    8880022    1    1    2    0    0  0.38745276866E+02 -0.21710986821E+03 -0.33337380207E+03  0.42798088307E+03  0.15294330000E+03 0.  0.
    8880022    1    1    2    0    0 -0.38745276866E+02  0.21710986821E+03 -0.21861507626E+04  0.22025632116E+04  0.15294330000E+03 0.  0.
<mgrwt>
<rscale>  0 0.26838320E+03</rscale>
<asrwt>0</asrwt>
<pdfrwt beam="1">  1        2 0.39615903E+00 0.26838320E+03</pdfrwt>
<pdfrwt beam="2">  1       -2 0.85399659E-02 0.26838320E+03</pdfrwt>
<totfact> 0.31170957E+02</totfact>
</mgrwt>
</event>
<event>
 4    1  0.4639964E-008  0.8297816E+03  0.7818608E-02  0.9517883E-01
          2   -1    0    0  501    0  0.00000000000E+00  0.00000000000E+00  0.19605665452E+04  0.19605665452E+04  0.25500000000E-02 0. -1.
         -2   -1    0    0    0  501 -0.00000000000E+00 -0.00000000000E+00 -0.38353307534E+03  0.38353307534E+03  0.25500000000E-02 0.  1.
    8880022    1    1    2    0    0 -0.79915877617E+03  0.16276087774E+03  0.11288577451E+04  0.14010200978E+04  0.15294330000E+03 0.  0.
    8880022    1    1    2    0    0  0.79915877617E+03 -0.16276087774E+03  0.44817572475E+03  0.94307952269E+03  0.15294330000E+03 0.  0.
<mgrwt>
<rscale>  0 0.82978160E+03</rscale>
<asrwt>0</asrwt>
<pdfrwt beam="1">  1        2 0.30162562E+00 0.82978160E+03</pdfrwt>
<pdfrwt beam="2">  1       -2 0.59005089E-01 0.82978160E+03</pdfrwt>
<totfact> 0.19279920E+01</totfact>
</mgrwt>
</event>
<event>
 4    1  0.4639964E-008  0.8814967E+03  0.7818608E-02  0.9449012E-01
          2   -1    0    0  501    0  0.00000000000E+00  0.00000000000E+00  0.53553932864E+03  0.53553932864E+03  0.25500000000E-02 0. -1.
         -2   -1    0    0    0  501 -0.00000000000E+00 -0.00000000000E+00 -0.17637452321E+04  0.17637452322E+04  0.25500000000E-02 0.  1.
    8880022    1    1    2    0    0 -0.68432539888E+03 -0.53417550546E+03 -0.12995222874E+03  0.89102410571E+03  0.15294330000E+03 0.  0.
    8880022    1    1    2    0    0  0.68432539888E+03  0.53417550546E+03 -0.10982536748E+04  0.14082604551E+04  0.15294330000E+03 0.  0.
<mgrwt>
<rscale>  0 0.88149667E+03</rscale>
<asrwt>0</asrwt>
<pdfrwt beam="1">  1        2 0.82390667E-01 0.88149667E+03</pdfrwt>
<pdfrwt beam="2">  1       -2 0.27134542E+00 0.88149667E+03</pdfrwt>
<totfact> 0.27461943E+00</totfact>
</mgrwt>
</event>
<event>
 4    1  0.4639964E-008  0.5557311E+03  0.7818608E-02  0.1000176E+00
         -2   -1    0    0    0  501 -0.00000000000E+00  0.00000000000E+00  0.16772751549E+03  0.16772751551E+03  0.25500000000E-02 0.  1.
          2   -1    0    0  501    0  0.00000000000E+00 -0.00000000000E+00 -0.21713678868E+04  0.21713678868E+04  0.25500000000E-02 0. -1.
    8880022    1    1    2    0    0 -0.12598952202E+03 -0.51920323372E+03 -0.54583414072E+03  0.77895565969E+03  0.15294330000E+03 0.  0.
    8880022    1    1    2    0    0  0.12598952202E+03  0.51920323372E+03 -0.14578062306E+04  0.15601397426E+04  0.15294330000E+03 0.  0.
<mgrwt>
<rscale>  0 0.55573106E+03</rscale>
<asrwt>0</asrwt>
<pdfrwt beam="1">  1        2 0.33405658E+00 0.55573106E+03</pdfrwt>
<pdfrwt beam="2">  1       -2 0.25804235E-01 0.55573106E+03</pdfrwt>
<totfact> 0.76760450E+01</totfact>
</mgrwt>
</event>
<event>
 4    1  0.4639964E-008  0.3843471E+03  0.7818608E-02  0.1049339E+00
          2   -1    0    0  501    0  0.00000000000E+00  0.00000000000E+00  0.40493107944E+03  0.40493107944E+03  0.25500000000E-02 0. -1.
         -2   -1    0    0    0  501 -0.00000000000E+00 -0.00000000000E+00 -0.12384304562E+04  0.12384304562E+04  0.25500000000E-02 0.  1.
    8880022    1    1    2    0    0 -0.11935437169E+03 -0.33179144502E+03 -0.11068764132E+04  0.11717073338E+04  0.15294330000E+03 0.  0.
    8880022    1    1    2    0    0  0.11935437169E+03  0.33179144502E+03  0.27337703643E+03  0.47165420182E+03  0.15294330000E+03 0.  0.
<mgrwt>
<rscale>  0 0.38434709E+03</rscale>
<asrwt>0</asrwt>
<pdfrwt beam="1">  1        2 0.62297090E-01 0.38434709E+03</pdfrwt>
<pdfrwt beam="2">  1       -2 0.19052776E+00 0.38434709E+03</pdfrwt>
<totfact> 0.12878187E+01</totfact>
</mgrwt>
</event>
<event>
 4    1  0.4639964E-008  0.6269396E+03  0.7818608E-02  0.9851039E-01
         -2   -1    0    0    0  501 -0.00000000000E+00  0.00000000000E+00  0.32125383200E+03  0.32125383201E+03  0.25500000000E-02 0.  1.
          2   -1    0    0  501    0  0.00000000000E+00 -0.00000000000E+00 -0.16432814582E+04  0.16432814582E+04  0.25500000000E-02 0. -1.
    8880022    1    1    2    0    0 -0.32089011202E+03  0.51642152796E+03 -0.11574765970E+04  0.13163606589E+04  0.15294330000E+03 0.  0.
    8880022    1    1    2    0    0  0.32089011202E+03 -0.51642152796E+03 -0.16455102921E+03  0.64817463138E+03  0.15294330000E+03 0.  0.
<mgrwt>
<rscale>  0 0.62693964E+03</rscale>
<asrwt>0</asrwt>
<pdfrwt beam="1">  1        2 0.25281253E+00 0.62693964E+03</pdfrwt>
<pdfrwt beam="2">  1       -2 0.49423667E-01 0.62693964E+03</pdfrwt>
<totfact> 0.42517270E+01</totfact>
</mgrwt>
</event>
<event>
 4    1  0.4639964E-008  0.4823771E+03  0.7818608E-02  0.1018484E+00
          2   -1    0    0  501    0  0.00000000000E+00  0.00000000000E+00  0.13998099074E+04  0.13998099074E+04  0.25500000000E-02 0. -1.
         -2   -1    0    0    0  501 -0.00000000000E+00 -0.00000000000E+00 -0.56905600591E+03  0.56905600591E+03  0.25500000000E-02 0.  1.
    8880022    1    1    2    0    0  0.18558239473E+03 -0.41815687976E+03 -0.41288640319E+03  0.63495105030E+03  0.15294330000E+03 0.  0.
    8880022    1    1    2    0    0 -0.18558239473E+03  0.41815687976E+03  0.12436403047E+04  0.13339148631E+04  0.15294330000E+03 0.  0.
<mgrwt>
<rscale>  0 0.48237709E+03</rscale>
<asrwt>0</asrwt>
<pdfrwt beam="1">  1        2 0.21535537E+00 0.48237709E+03</pdfrwt>
<pdfrwt beam="2">  1       -2 0.87547078E-01 0.48237709E+03</pdfrwt>
<totfact> 0.17360396E+01</totfact>
</mgrwt>
</event>
<event>
 4    1  0.4639964E-008  0.4365152E+03  0.7818608E-02  0.1031821E+00
          2   -1    0    0  501    0  0.00000000000E+00  0.00000000000E+00  0.38714145352E+04  0.38714145352E+04  0.25500000000E-02 0. -1.
         -2   -1    0    0    0  501 -0.00000000000E+00 -0.00000000000E+00 -0.19210687021E+03  0.19210687023E+03  0.25500000000E-02 0.  1.
    8880022    1    1    2    0    0 -0.14689921254E+03  0.38154228454E+03  0.35919173526E+04  0.36183443471E+04  0.15294330000E+03 0. -1.
    8880022    1    1    2    0    0  0.14689921254E+03 -0.38154228454E+03  0.87390312410E+02  0.44517705832E+03  0.15294330000E+03 0.  0.
<mgrwt>
<rscale>  0 0.43651523E+03</rscale>
<asrwt>0</asrwt>
<pdfrwt beam="1">  1        2 0.59560224E+00 0.43651523E+03</pdfrwt>
<pdfrwt beam="2">  1       -2 0.29554903E-01 0.43651523E+03</pdfrwt>
<totfact> 0.54772595E+00</totfact>
</mgrwt>
</event>
<event>
 4    1  0.4639964E-008  0.5305726E+03  0.7818608E-02  0.1006093E+00
         -2   -1    0    0    0  501 -0.00000000000E+00  0.00000000000E+00  0.53066530844E+03  0.53066530845E+03  0.25500000000E-02 0.  1.
          2   -1    0    0  501    0  0.00000000000E+00 -0.00000000000E+00 -0.15635660236E+04  0.15635660236E+04  0.25500000000E-02 0. -1.
    8880022    1    1    2    0    0  0.44733630464E+03  0.24084403702E+03 -0.13675978260E+04  0.14669120923E+04  0.15294330000E+03 0. -1.
    8880022    1    1    2    0    0 -0.44733630464E+03 -0.24084403702E+03  0.33469711085E+03  0.62731923982E+03  0.15294330000E+03 0.  0.
<mgrwt>
<rscale>  0 0.53057259E+03</rscale>
<asrwt>0</asrwt>
<pdfrwt beam="1">  1        2 0.24054862E+00 0.53057259E+03</pdfrwt>
<pdfrwt beam="2">  1       -2 0.81640817E-01 0.53057259E+03</pdfrwt>
<totfact> 0.16368788E+01</totfact>
</mgrwt>
</event>
<event>
 4    1  0.4639964E-008  0.1233140E+04  0.7818608E-02  0.9084334E-01
          2   -1    0    0  501    0  0.00000000000E+00  0.00000000000E+00  0.22529843640E+04  0.22529843640E+04  0.25500000000E-02 0. -1.
         -2   -1    0    0    0  501 -0.00000000000E+00 -0.00000000000E+00 -0.13569028537E+04  0.13569028537E+04  0.25500000000E-02 0.  1.
    8880022    1    1    2    0    0  0.62911821587E+03  0.10495010076E+04  0.17276253017E+04  0.21225745995E+04  0.15294330000E+03 0.  0.
    8880022    1    1    2    0    0 -0.62911821587E+03 -0.10495010076E+04 -0.83154379139E+03  0.14873126183E+04  0.15294330000E+03 0.  0.
<mgrwt>
<rscale>  0 0.12331398E+04</rscale>
<asrwt>0</asrwt>
<pdfrwt beam="1">  1        2 0.34661298E+00 0.12331398E+04</pdfrwt>
<pdfrwt beam="2">  1       -2 0.20875429E+00 0.12331398E+04</pdfrwt>
<totfact> 0.54480858E-01</totfact>
</mgrwt>
</event>
<event>
 4    1  0.4639964E-008  0.1159407E+04  0.7818608E-02  0.9149149E-01
         -2   -1    0    0    0  501 -0.00000000000E+00  0.00000000000E+00  0.14507353443E+04  0.14507353443E+04  0.25500000000E-02 0.  1.
          2   -1    0    0  501    0  0.00000000000E+00 -0.00000000000E+00 -0.31659224782E+04  0.31659224782E+04  0.25500000000E-02 0. -1.
    8880022    1    1    2    0    0  0.57024859723E+03 -0.99782236051E+03  0.10837735239E+04  0.15870695101E+04  0.15294330000E+03 0.  0.
    8880022    1    1    2    0    0 -0.57024859723E+03  0.99782236051E+03 -0.27989606577E+04  0.30295883124E+04  0.15294330000E+03 0.  0.
<mgrwt>
<rscale>  0 0.11594070E+04</rscale>
<asrwt>0</asrwt>
<pdfrwt beam="1">  1        2 0.48706500E+00 0.11594070E+04</pdfrwt>
<pdfrwt beam="2">  1       -2 0.22319005E+00 0.11594070E+04</pdfrwt>
<totfact> 0.12788292E-01</totfact>
</mgrwt>
</event>
<event>
 4    1  0.4639964E-008  0.3072220E+03  0.7818608E-02  0.1081685E+00
          2   -1    0    0  501    0  0.00000000000E+00  0.00000000000E+00  0.13045590496E+04  0.13045590496E+04  0.25500000000E-02 0. -1.
         -2   -1    0    0    0  501 -0.00000000000E+00 -0.00000000000E+00 -0.56943593993E+03  0.56943593994E+03  0.25500000000E-02 0.  1.
    8880022    1    1    2    0    0  0.18229524914E+03 -0.19432491729E+03  0.12430119689E+04  0.12804156119E+04  0.15294330000E+03 0.  0.
    8880022    1    1    2    0    0 -0.18229524914E+03  0.19432491729E+03 -0.50788885918E+03  0.59357937770E+03  0.15294330000E+03 0.  0.
<mgrwt>
<rscale>  0 0.30722204E+03</rscale>
<asrwt>0</asrwt>
<pdfrwt beam="1">  1        2 0.20070139E+00 0.30722204E+03</pdfrwt>
<pdfrwt beam="2">  1       -2 0.87605530E-01 0.30722204E+03</pdfrwt>
<totfact> 0.20409055E+01</totfact>
</mgrwt>
</event>
<event>
 4    1  0.4761433E-008  0.5470415E+03  0.7818608E-02  0.1002181E+00
         -2   -1    0    0    0  501 -0.00000000000E+00  0.00000000000E+00  0.91344263208E+03  0.91344263208E+03  0.25500000000E-02 0.  1.
          2   -1    0    0  501    0  0.00000000000E+00 -0.00000000000E+00 -0.20137762432E+04  0.20137762432E+04  0.25500000000E-02 0. -1.
    8880022    1    1    2    0    0 -0.38923611405E+03 -0.35264430231E+03 -0.18894412531E+04  0.19670390587E+04  0.15294330000E+03 0.  0.
    8880022    1    1    2    0    0  0.38923611405E+03  0.35264430231E+03  0.78910764202E+03  0.96017981656E+03  0.15294330000E+03 0.  0.
<mgrwt>
<rscale>  0 0.54704151E+03</rscale>
<asrwt>0</asrwt>
<pdfrwt beam="1">  1        2 0.30981173E+00 0.54704151E+03</pdfrwt>
<pdfrwt beam="2">  1       -2 0.14052964E+00 0.54704151E+03</pdfrwt>
<totfact> 0.25299180E+00</totfact>
</mgrwt>
</event>
<event>
 4    1  0.4639964E-008  0.2234531E+03  0.7818608E-02  0.1131335E+00
         -2   -1    0    0    0  501 -0.00000000000E+00  0.00000000000E+00  0.24487283430E+03  0.24487283432E+03  0.25500000000E-02 0.  1.
          2   -1    0    0  501    0  0.00000000000E+00 -0.00000000000E+00 -0.65949023554E+03  0.65949023555E+03  0.25500000000E-02 0. -1.
    8880022    1    1    2    0    0  0.15848028961E+03 -0.37730935814E+02 -0.58313963044E+03  0.62448627472E+03  0.15294330000E+03 0.  0.
    8880022    1    1    2    0    0 -0.15848028961E+03  0.37730935814E+02  0.16852222920E+03  0.27987679514E+03  0.15294330000E+03 0.  0.
<mgrwt>
<rscale>  0 0.22345308E+03</rscale>
<asrwt>0</asrwt>
<pdfrwt beam="1">  1        2 0.10146004E+00 0.22345308E+03</pdfrwt>
<pdfrwt beam="2">  1       -2 0.37672744E-01 0.22345308E+03</pdfrwt>
<totfact> 0.30509290E+02</totfact>
</mgrwt>
</event>
<event>
 4    1  0.4639964E-008  0.4740500E+03  0.7818608E-02  0.1020783E+00
         -2   -1    0    0    0  501 -0.00000000000E+00  0.00000000000E+00  0.48227681966E+03  0.48227681966E+03  0.25500000000E-02 0.  1.
          2   -1    0    0  501    0  0.00000000000E+00 -0.00000000000E+00 -0.93206810306E+03  0.93206810306E+03  0.25500000000E-02 0. -1.
    8880022    1    1    2    0    0 -0.36611134998E+03 -0.25941129275E+03 -0.72497993618E+03  0.86620973226E+03  0.15294330000E+03 0.  0.
    8880022    1    1    2    0    0  0.36611134998E+03  0.25941129275E+03  0.27518865278E+03  0.54813519046E+03  0.15294330000E+03 0.  0.
<mgrwt>
<rscale>  0 0.47404999E+03</rscale>
<asrwt>0</asrwt>
<pdfrwt beam="1">  1        2 0.14339509E+00 0.47404999E+03</pdfrwt>
<pdfrwt beam="2">  1       -2 0.74196434E-01 0.47404999E+03</pdfrwt>
<totfact> 0.47698144E+01</totfact>
</mgrwt>
</event>
<event>
 4    1  0.4639964E-008  0.5488871E+03  0.7818608E-02  0.1001752E+00
          2   -1    0    0  501    0  0.00000000000E+00  0.00000000000E+00  0.87117083531E+03  0.87117083531E+03  0.25500000000E-02 0. -1.
         -2   -1    0    0    0  501 -0.00000000000E+00 -0.00000000000E+00 -0.79720419821E+03  0.79720419822E+03  0.25500000000E-02 0.  1.
    8880022    1    1    2    0    0  0.14035112982E+03  0.50812097708E+03  0.66467627807E+03  0.86201599442E+03  0.15294330000E+03 0. -1.
    8880022    1    1    2    0    0 -0.14035112982E+03 -0.50812097708E+03 -0.59070964098E+03  0.80635903911E+03  0.15294330000E+03 0.  0.
<mgrwt>
<rscale>  0 0.54888707E+03</rscale>
<asrwt>0</asrwt>
<pdfrwt beam="1">  1        2 0.13402628E+00 0.54888707E+03</pdfrwt>
<pdfrwt beam="2">  1       -2 0.12264680E+00 0.54888707E+03</pdfrwt>
<totfact> 0.16060182E+01</totfact>
</mgrwt>
</event>
<event>
 4    1  0.4639964E-008  0.9830302E+03  0.7818608E-02  0.9327355E-01
          2   -1    0    0  501    0  0.00000000000E+00  0.00000000000E+00  0.20947599410E+04  0.20947599410E+04  0.25500000000E-02 0. -1.
         -2   -1    0    0    0  501 -0.00000000000E+00 -0.00000000000E+00 -0.11170501981E+04  0.11170501981E+04  0.25500000000E-02 0.  1.
    8880022    1    1    2    0    0  0.90168552609E+03  0.36044398357E+03  0.17192571316E+04  0.19804528247E+04  0.15294330000E+03 0.  0.
    8880022    1    1    2    0    0 -0.90168552609E+03 -0.36044398357E+03 -0.74154738867E+03  0.12313573145E+04  0.15294330000E+03 0.  0.
<mgrwt>
<rscale>  0 0.98303017E+03</rscale>
<asrwt>0</asrwt>
<pdfrwt beam="1">  1        2 0.32227076E+00 0.98303017E+03</pdfrwt>
<pdfrwt beam="2">  1       -2 0.17185388E+00 0.98303017E+03</pdfrwt>
<totfact> 0.12249793E+00</totfact>
</mgrwt>
</event>
<event>
 4    1  0.4639964E-008  0.1238709E+04  0.7818608E-02  0.9079633E-01
         -2   -1    0    0    0  501 -0.00000000000E+00  0.00000000000E+00  0.93116298808E+03  0.93116298808E+03  0.25500000000E-02 0.  1.
          2   -1    0    0  501    0  0.00000000000E+00 -0.00000000000E+00 -0.25192992917E+04  0.25192992917E+04  0.25500000000E-02 0. -1.
    8880022    1    1    2    0    0  0.11787645108E+04 -0.34860207491E+03  0.22062043308E+03  0.12582027687E+04  0.15294330000E+03 0.  0.
    8880022    1    1    2    0    0 -0.11787645108E+04  0.34860207491E+03 -0.18087567367E+04  0.21922595111E+04  0.15294330000E+03 0.  0.
<mgrwt>
<rscale>  0 0.12387093E+04</rscale>
<asrwt>0</asrwt>
<pdfrwt beam="1">  1        2 0.38758450E+00 0.12387093E+04</pdfrwt>
<pdfrwt beam="2">  1       -2 0.14325585E+00 0.12387093E+04</pdfrwt>
<totfact> 0.11173824E+00</totfact>
</mgrwt>
</event>
<event>
 4    1  0.4639964E-008  0.6552228E+03  0.7818608E-02  0.9797028E-01
         -2   -1    0    0    0  501 -0.00000000000E+00  0.00000000000E+00  0.43834469615E+03  0.43834469615E+03  0.25500000000E-02 0.  1.
          2   -1    0    0  501    0  0.00000000000E+00 -0.00000000000E+00 -0.16742634109E+04  0.16742634109E+04  0.25500000000E-02 0. -1.
    8880022    1    1    2    0    0  0.55735972826E+03  0.30866713147E+03 -0.12984548644E+04  0.14544077670E+04  0.15294330000E+03 0.  0.
    8880022    1    1    2    0    0 -0.55735972826E+03 -0.30866713147E+03  0.62536149586E+02  0.65820034014E+03  0.15294330000E+03 0.  0.
<mgrwt>
<rscale>  0 0.65522280E+03</rscale>
<asrwt>0</asrwt>
<pdfrwt beam="1">  1        2 0.25757898E+00 0.65522280E+03</pdfrwt>
<pdfrwt beam="2">  1       -2 0.67437647E-01 0.65522280E+03</pdfrwt>
<totfact> 0.21264294E+01</totfact>
</mgrwt>
</event>
<event>
 4    1  0.4639964E-008  0.7492883E+03  0.7818608E-02  0.9636467E-01
         -2   -1    0    0    0  501 -0.00000000000E+00  0.00000000000E+00  0.56239627401E+03  0.56239627401E+03  0.25500000000E-02 0.  1.
          2   -1    0    0  501    0  0.00000000000E+00 -0.00000000000E+00 -0.29456644776E+04  0.29456644776E+04  0.25500000000E-02 0. -1.
    8880022    1    1    2    0    0 -0.62186933036E+02  0.73087217858E+03 -0.26178015480E+04  0.27229245222E+04  0.15294330000E+03 0. -1.
    8880022    1    1    2    0    0  0.62186933036E+02 -0.73087217858E+03  0.23453334439E+03  0.78513622940E+03  0.15294330000E+03 0.  0.
<mgrwt>
<rscale>  0 0.74928834E+03</rscale>
<asrwt>0</asrwt>
<pdfrwt beam="1">  1        2 0.45317914E+00 0.74928834E+03</pdfrwt>
<pdfrwt beam="2">  1       -2 0.86522505E-01 0.74928834E+03</pdfrwt>
<totfact> 0.23210045E+00</totfact>
</mgrwt>
</event>
<event>
 4    1  0.4639964E-008  0.3124840E+03  0.7818608E-02  0.1079161E+00
         -2   -1    0    0    0  501 -0.00000000000E+00  0.00000000000E+00  0.45619402218E+02  0.45619402289E+02  0.25500000000E-02 0.  1.
          2   -1    0    0  501    0  0.00000000000E+00 -0.00000000000E+00 -0.29123647819E+04  0.29123647819E+04  0.25500000000E-02 0. -1.
    8880022    1    1    2    0    0  0.25773972551E+02  0.27127528752E+03 -0.21947966143E+04  0.22169299517E+04  0.15294330000E+03 0.  0.
    8880022    1    1    2    0    0 -0.25773972551E+02 -0.27127528752E+03 -0.67194876536E+03  0.74105423254E+03  0.15294330000E+03 0.  0.
<mgrwt>
<rscale>  0 0.31248397E+03</rscale>
<asrwt>0</asrwt>
<pdfrwt beam="1">  1        2 0.44805597E+00 0.31248397E+03</pdfrwt>
<pdfrwt beam="2">  1       -2 0.70183719E-02 0.31248397E+03</pdfrwt>
<totfact> 0.26957182E+02</totfact>
</mgrwt>
</event>
<event>
 4    1  0.4639964E-008  0.5382549E+03  0.7818608E-02  0.1004250E+00
         -2   -1    0    0    0  501 -0.00000000000E+00  0.00000000000E+00  0.35322809731E+03  0.35322809732E+03  0.25500000000E-02 0.  1.
          2   -1    0    0  501    0  0.00000000000E+00 -0.00000000000E+00 -0.15767210181E+04  0.15767210181E+04  0.25500000000E-02 0. -1.
    8880022    1    1    2    0    0  0.48705615360E+03  0.17059605434E+03 -0.12801648391E+04  0.13887189704E+04  0.15294330000E+03 0.  0.
    8880022    1    1    2    0    0 -0.48705615360E+03 -0.17059605434E+03  0.56671918300E+02  0.54123014500E+03  0.15294330000E+03 0.  0.
<mgrwt>
<rscale>  0 0.53825492E+03</rscale>
<asrwt>0</asrwt>
<pdfrwt beam="1">  1        2 0.24257246E+00 0.53825492E+03</pdfrwt>
<pdfrwt beam="2">  1       -2 0.54342785E-01 0.53825492E+03</pdfrwt>
<totfact> 0.38580908E+01</totfact>
</mgrwt>
</event>
<event>
 4    1  0.4639964E-008  0.7643763E+03  0.7818608E-02  0.9613062E-01
          2   -1    0    0  501    0  0.00000000000E+00  0.00000000000E+00  0.11211455968E+04  0.11211455968E+04  0.25500000000E-02 0. -1.
         -2   -1    0    0    0  501 -0.00000000000E+00 -0.00000000000E+00 -0.13983951846E+04  0.13983951846E+04  0.25500000000E-02 0.  1.
    8880022    1    1    2    0    0  0.68286334263E+03 -0.30753403367E+03  0.85916714420E+03  0.11499736350E+04  0.15294330000E+03 0.  0.
    8880022    1    1    2    0    0 -0.68286334263E+03  0.30753403367E+03 -0.11364167320E+04  0.13695671463E+04  0.15294330000E+03 0.  0.
<mgrwt>
<rscale>  0 0.76437633E+03</rscale>
<asrwt>0</asrwt>
<pdfrwt beam="1">  1        2 0.17248394E+00 0.76437633E+03</pdfrwt>
<pdfrwt beam="2">  1       -2 0.21513772E+00 0.76437633E+03</pdfrwt>
<totfact> 0.23025317E+00</totfact>
</mgrwt>
</event>
<event>
 4    1  0.4639964E-008  0.2352804E+03  0.7818608E-02  0.1122977E+00
          2   -1    0    0  501    0  0.00000000000E+00  0.00000000000E+00  0.97490591636E+03  0.97490591636E+03  0.25500000000E-02 0. -1.
         -2   -1    0    0    0  501 -0.00000000000E+00 -0.00000000000E+00 -0.40890103970E+03  0.40890103971E+03  0.25500000000E-02 0.  1.
    8880022    1    1    2    0    0  0.11666167702E+03 -0.13548160843E+03 -0.35906598724E+03  0.42928457847E+03  0.15294330000E+03 0.  0.
    8880022    1    1    2    0    0 -0.11666167702E+03  0.13548160843E+03  0.92507086389E+03  0.95452237760E+03  0.15294330000E+03 0. -1.
<mgrwt>
<rscale>  0 0.23528040E+03</rscale>
<asrwt>0</asrwt>
<pdfrwt beam="1">  1        2 0.14998552E+00 0.23528040E+03</pdfrwt>
<pdfrwt beam="2">  1       -2 0.62907853E-01 0.23528040E+03</pdfrwt>
<totfact> 0.66671856E+01</totfact>
</mgrwt>
</event>
<event>
 4    1  0.4639964E-008  0.4886385E+03  0.7818608E-02  0.1016788E+00
         -2   -1    0    0    0  501 -0.00000000000E+00  0.00000000000E+00  0.11993306936E+04  0.11993306936E+04  0.25500000000E-02 0.  1.
          2   -1    0    0  501    0  0.00000000000E+00 -0.00000000000E+00 -0.92623091395E+03  0.92623091395E+03  0.25500000000E-02 0. -1.
    8880022    1    1    2    0    0 -0.33921466965E+03  0.31671643308E+03  0.10782121172E+04  0.11837689444E+04  0.15294330000E+03 0.  0.
    8880022    1    1    2    0    0  0.33921466965E+03 -0.31671643308E+03 -0.80511233760E+03  0.94179266309E+03  0.15294330000E+03 0.  0.
<mgrwt>
<rscale>  0 0.48863846E+03</rscale>
<asrwt>0</asrwt>
<pdfrwt beam="1">  1        2 0.14249706E+00 0.48863846E+03</pdfrwt>
<pdfrwt beam="2">  1       -2 0.18451242E+00 0.48863846E+03</pdfrwt>
<totfact> 0.50719499E+00</totfact>
</mgrwt>
</event>
<event>
 4    1  0.4639964E-008  0.1851565E+03  0.7818608E-02  0.1162904E+00
         -2   -1    0    0    0  501 -0.00000000000E+00  0.00000000000E+00  0.10882854708E+03  0.10882854711E+03  0.25500000000E-02 0.  1.
          2   -1    0    0  501    0  0.00000000000E+00 -0.00000000000E+00 -0.14819951093E+04  0.14819951093E+04  0.25500000000E-02 0. -1.
    8880022    1    1    2    0    0  0.85248656494E+02  0.60199235807E+02  0.19246302431E+02  0.18615411518E+03  0.15294330000E+03 0.  0.
    8880022    1    1    2    0    0 -0.85248656494E+02 -0.60199235807E+02 -0.13924128646E+04  0.14046695412E+04  0.15294330000E+03 0. -1.
<mgrwt>
<rscale>  0 0.18515651E+03</rscale>
<asrwt>0</asrwt>
<pdfrwt beam="1">  1        2 0.22799923E+00 0.18515651E+03</pdfrwt>
<pdfrwt beam="2">  1       -2 0.16742854E-01 0.18515651E+03</pdfrwt>
<totfact> 0.40544797E+02</totfact>
</mgrwt>
</event>
<event>
 4    1  0.4639964E-008  0.6396313E+03  0.7818608E-02  0.9826432E-01
          2   -1    0    0  501    0  0.00000000000E+00  0.00000000000E+00  0.16410362658E+04  0.16410362658E+04  0.25500000000E-02 0. -1.
         -2   -1    0    0    0  501 -0.00000000000E+00 -0.00000000000E+00 -0.67221230583E+03  0.67221230583E+03  0.25500000000E-02 0.  1.
    8880022    1    1    2    0    0  0.54512333070E+03 -0.29761907323E+03  0.14018117933E+04  0.15408453898E+04  0.15294330000E+03 0.  0.
    8880022    1    1    2    0    0 -0.54512333070E+03  0.29761907323E+03 -0.43298783335E+03  0.77240318181E+03  0.15294330000E+03 0.  0.
<mgrwt>
<rscale>  0 0.63963131E+03</rscale>
<asrwt>0</asrwt>
<pdfrwt beam="1">  1        2 0.25246711E+00 0.63963131E+03</pdfrwt>
<pdfrwt beam="2">  1       -2 0.10341728E+00 0.63963131E+03</pdfrwt>
<totfact> 0.84311372E+00</totfact>
</mgrwt>
</event>
<event>
 4    1  0.4639964E-008  0.1271542E+04  0.7818608E-02  0.9052442E-01
          2   -1    0    0  501    0  0.00000000000E+00  0.00000000000E+00  0.35125092299E+04  0.35125092299E+04  0.25500000000E-02 0. -1.
         -2   -1    0    0    0  501 -0.00000000000E+00 -0.00000000000E+00 -0.70498344354E+03  0.70498344355E+03  0.25500000000E-02 0.  1.
    8880022    1    1    2    0    0  0.70298339500E+03  0.10484470595E+04  0.26460858483E+04  0.29357433232E+04  0.15294330000E+03 0.  0.
    8880022    1    1    2    0    0 -0.70298339500E+03 -0.10484470595E+04  0.16143993807E+03  0.12817493502E+04  0.15294330000E+03 0.  0.
<mgrwt>
<rscale>  0 0.12715418E+04</rscale>
<asrwt>0</asrwt>
<pdfrwt beam="1">  1        2 0.54038603E+00 0.12715418E+04</pdfrwt>
<pdfrwt beam="2">  1       -2 0.10845899E+00 0.12715418E+04</pdfrwt>
<totfact> 0.53575866E-01</totfact>
</mgrwt>
</event>
<event>
 4    1  0.4639964E-008  0.3290124E+03  0.7818608E-02  0.1071575E+00
         -2   -1    0    0    0  501 -0.00000000000E+00  0.00000000000E+00  0.95502624485E+03  0.95502624485E+03  0.25500000000E-02 0.  1.
          2   -1    0    0  501    0  0.00000000000E+00 -0.00000000000E+00 -0.35613387800E+03  0.35613387801E+03  0.25500000000E-02 0. -1.
    8880022    1    1    2    0    0  0.19554580405E+03  0.21591519741E+03 -0.24184612919E+03  0.40833654891E+03  0.15294330000E+03 0. -1.
    8880022    1    1    2    0    0 -0.19554580405E+03 -0.21591519741E+03  0.84073849604E+03  0.90282357396E+03  0.15294330000E+03 0.  0.
<mgrwt>
<rscale>  0 0.32901244E+03</rscale>
<asrwt>0</asrwt>
<pdfrwt beam="1">  1        2 0.54789828E-01 0.32901244E+03</pdfrwt>
<pdfrwt beam="2">  1       -2 0.14692711E+00 0.32901244E+03</pdfrwt>
<totfact> 0.30350933E+01</totfact>
</mgrwt>
</event>
<event>
 4    1  0.4639964E-008  0.2152456E+03  0.7818608E-02  0.1137478E+00
          2   -1    0    0  501    0  0.00000000000E+00  0.00000000000E+00  0.62228913475E+03  0.62228913476E+03  0.25500000000E-02 0. -1.
         -2   -1    0    0    0  501 -0.00000000000E+00 -0.00000000000E+00 -0.30639165829E+03  0.30639165830E+03  0.25500000000E-02 0.  1.
    8880022    1    1    2    0    0  0.34994802986E+02  0.14735792663E+03 -0.24605514567E+03  0.32691555867E+03  0.15294330000E+03 0.  0.
    8880022    1    1    2    0    0 -0.34994802986E+02 -0.14735792663E+03  0.56195262213E+03  0.60176523438E+03  0.15294330000E+03 0. -1.
<mgrwt>
<rscale>  0 0.21524555E+03</rscale>
<asrwt>0</asrwt>
<pdfrwt beam="1">  1        2 0.95736790E-01 0.21524555E+03</pdfrwt>
<pdfrwt beam="2">  1       -2 0.47137178E-01 0.21524555E+03</pdfrwt>
<totfact> 0.21220292E+02</totfact>
</mgrwt>
</event>
<event>
 4    1  0.4639964E-008  0.4947670E+03  0.7818608E-02  0.1015154E+00
         -2   -1    0    0    0  501 -0.00000000000E+00  0.00000000000E+00  0.15939490549E+03  0.15939490551E+03  0.25500000000E-02 0.  1.
          2   -1    0    0  501    0  0.00000000000E+00 -0.00000000000E+00 -0.23279385219E+04  0.23279385219E+04  0.25500000000E-02 0. -1.
    8880022    1    1    2    0    0  0.46056305096E+03  0.96355582453E+02 -0.18097531619E+04  0.18761665390E+04  0.15294330000E+03 0.  0.
    8880022    1    1    2    0    0 -0.46056305096E+03 -0.96355582453E+02 -0.35879045449E+03  0.61116688836E+03  0.15294330000E+03 0.  0.
<mgrwt>
<rscale>  0 0.49476699E+03</rscale>
<asrwt>0</asrwt>
<pdfrwt beam="1">  1        2 0.35814436E+00 0.49476699E+03</pdfrwt>
<pdfrwt beam="2">  1       -2 0.24522295E-01 0.49476699E+03</pdfrwt>
<totfact> 0.69783015E+01</totfact>
</mgrwt>
</event>
<event>
 4    1  0.4742227E-008  0.5434745E+03  0.7818608E-02  0.1003016E+00
          2   -1    0    0  501    0  0.00000000000E+00  0.00000000000E+00  0.12794549203E+04  0.12794549203E+04  0.25500000000E-02 0. -1.
         -2   -1    0    0    0  501 -0.00000000000E+00 -0.00000000000E+00 -0.75235455060E+03  0.75235455060E+03  0.25500000000E-02 0.  1.
    8880022    1    1    2    0    0  0.32558159321E+03  0.40739355609E+03 -0.58225431077E+03  0.79648265443E+03  0.15294330000E+03 0.  0.
    8880022    1    1    2    0    0 -0.32558159321E+03 -0.40739355609E+03  0.11093546804E+04  0.12353268164E+04  0.15294330000E+03 0.  0.
<mgrwt>
<rscale>  0 0.54347450E+03</rscale>
<asrwt>0</asrwt>
<pdfrwt beam="1">  1        2 0.19683922E+00 0.54347450E+03</pdfrwt>
<pdfrwt beam="2">  1       -2 0.11574686E+00 0.54347450E+03</pdfrwt>
<totfact> 0.10390011E+01</totfact>
</mgrwt>
</event>
<event>
 4    1  0.4639964E-008  0.5264290E+03  0.7818608E-02  0.1007102E+00
         -2   -1    0    0    0  501 -0.00000000000E+00  0.00000000000E+00  0.38107510369E+03  0.38107510370E+03  0.25500000000E-02 0.  1.
          2   -1    0    0  501    0  0.00000000000E+00 -0.00000000000E+00 -0.12161434380E+04  0.12161434380E+04  0.25500000000E-02 0. -1.
    8880022    1    1    2    0    0 -0.50238799184E+03  0.36635444821E+02  0.88826504654E+02  0.53387044412E+03  0.15294330000E+03 0.  0.
    8880022    1    1    2    0    0  0.50238799184E+03 -0.36635444821E+02 -0.92389483899E+03  0.10633480976E+04  0.15294330000E+03 0.  0.
<mgrwt>
<rscale>  0 0.52642901E+03</rscale>
<asrwt>0</asrwt>
<pdfrwt beam="1">  1        2 0.18709899E+00 0.52642901E+03</pdfrwt>
<pdfrwt beam="2">  1       -2 0.58626939E-01 0.52642901E+03</pdfrwt>
<totfact> 0.52583667E+01</totfact>
</mgrwt>
</event>
<event>
 4    1  0.4639964E-008  0.2817787E+03  0.7818608E-02  0.1094721E+00
         -2   -1    0    0    0  501 -0.00000000000E+00  0.00000000000E+00  0.93327551986E+03  0.93327551986E+03  0.25500000000E-02 0.  1.
          2   -1    0    0  501    0  0.00000000000E+00 -0.00000000000E+00 -0.86033788625E+03  0.86033788625E+03  0.25500000000E-02 0. -1.
    8880022    1    1    2    0    0 -0.19559406001E+03  0.13323114743E+03  0.88778046247E+03  0.93142545462E+03  0.15294330000E+03 0.  0.
    8880022    1    1    2    0    0  0.19559406001E+03 -0.13323114743E+03 -0.81484282885E+03  0.86218795150E+03  0.15294330000E+03 0.  0.
<mgrwt>
<rscale>  0 0.28177869E+03</rscale>
<asrwt>0</asrwt>
<pdfrwt beam="1">  1        2 0.13235968E+00 0.28177869E+03</pdfrwt>
<pdfrwt beam="2">  1       -2 0.14358085E+00 0.28177869E+03</pdfrwt>
<totfact> 0.11603163E+01</totfact>
</mgrwt>
</event>
<event>
 4    1  0.4639964E-008  0.2307347E+03  0.7818608E-02  0.1126124E+00
         -2   -1    0    0    0  501 -0.00000000000E+00  0.00000000000E+00  0.13526912010E+03  0.13526912013E+03  0.25500000000E-02 0.  1.
          2   -1    0    0  501    0  0.00000000000E+00 -0.00000000000E+00 -0.17338042189E+04  0.17338042189E+04  0.25500000000E-02 0. -1.
    8880022    1    1    2    0    0 -0.68584931256E+02  0.15856523640E+03  0.22380704838E+02  0.23181754885E+03  0.15294330000E+03 0.  0.
    8880022    1    1    2    0    0  0.68584931256E+02 -0.15856523640E+03 -0.16209158036E+04  0.16372557902E+04  0.15294330000E+03 0. -1.
<mgrwt>
<rscale>  0 0.23073465E+03</rscale>
<asrwt>0</asrwt>
<pdfrwt beam="1">  1        2 0.26673909E+00 0.23073465E+03</pdfrwt>
<pdfrwt beam="2">  1       -2 0.20810635E-01 0.23073465E+03</pdfrwt>
<totfact> 0.20466573E+02</totfact>
</mgrwt>
</event>
<event>
 4    1  0.4639964E-008  0.3128703E+03  0.7818608E-02  0.1078978E+00
          2   -1    0    0  501    0  0.00000000000E+00  0.00000000000E+00  0.31381026757E+03  0.31381026758E+03  0.25500000000E-02 0. -1.
         -2   -1    0    0    0  501 -0.00000000000E+00 -0.00000000000E+00 -0.36854552294E+03  0.36854552295E+03  0.25500000000E-02 0.  1.
    8880022    1    1    2    0    0 -0.11697713652E+03 -0.24660197048E+03 -0.16108593561E+03  0.35190412612E+03  0.15294330000E+03 0.  1.
    8880022    1    1    2    0    0  0.11697713652E+03  0.24660197048E+03  0.10635068024E+03  0.33045166442E+03  0.15294330000E+03 0.  0.
<mgrwt>
<rscale>  0 0.31287032E+03</rscale>
<asrwt>0</asrwt>
<pdfrwt beam="1">  1        2 0.48278503E-01 0.31287032E+03</pdfrwt>
<pdfrwt beam="2">  1       -2 0.56699311E-01 0.31287032E+03</pdfrwt>
<totfact> 0.31101098E+02</totfact>
</mgrwt>
</event>
<event>
 4    1  0.4639964E-008  0.5149821E+03  0.7818608E-02  0.1009941E+00
         -2   -1    0    0    0  501 -0.00000000000E+00  0.00000000000E+00  0.68272034044E+03  0.68272034044E+03  0.25500000000E-02 0.  1.
          2   -1    0    0  501    0  0.00000000000E+00 -0.00000000000E+00 -0.54927339036E+03  0.54927339036E+03  0.25500000000E-02 0. -1.
    8880022    1    1    2    0    0  0.10212219174E+03  0.48102591408E+03  0.40003574091E+03  0.65210054368E+03  0.15294330000E+03 0.  0.
    8880022    1    1    2    0    0 -0.10212219174E+03 -0.48102591408E+03 -0.26658879083E+03  0.57989318712E+03  0.15294330000E+03 0.  0.
<mgrwt>
<rscale>  0 0.51498206E+03</rscale>
<asrwt>0</asrwt>
<pdfrwt beam="1">  1        2 0.84503599E-01 0.51498206E+03</pdfrwt>
<pdfrwt beam="2">  1       -2 0.10503390E+00 0.51498206E+03</pdfrwt>
<totfact> 0.41838923E+01</totfact>
</mgrwt>
</event>
<event>
 4    1  0.4639964E-008  0.1037405E+04  0.7818608E-02  0.9268445E-01
         -2   -1    0    0    0  501 -0.00000000000E+00  0.00000000000E+00  0.12004417981E+04  0.12004417981E+04  0.25500000000E-02 0.  1.
          2   -1    0    0  501    0  0.00000000000E+00 -0.00000000000E+00 -0.10019158435E+04  0.10019158435E+04  0.25500000000E-02 0. -1.
    8880022    1    1    2    0    0  0.70069079821E+03  0.74956667831E+03 -0.25790474930E+03  0.10689828402E+04  0.15294330000E+03 0.  0.
    8880022    1    1    2    0    0 -0.70069079821E+03 -0.74956667831E+03  0.45643070396E+03  0.11333748014E+04  0.15294330000E+03 0.  0.
<mgrwt>
<rscale>  0 0.10374052E+04</rscale>
<asrwt>0</asrwt>
<pdfrwt beam="1">  1        2 0.15414090E+00 0.10374052E+04</pdfrwt>
<pdfrwt beam="2">  1       -2 0.18468335E+00 0.10374052E+04</pdfrwt>
<totfact> 0.41772071E+00</totfact>
</mgrwt>
</event>
<event>
 4    1  0.4639964E-008  0.3896603E+03  0.7818608E-02  0.1047420E+00
          2   -1    0    0  501    0  0.00000000000E+00  0.00000000000E+00  0.69553814498E+03  0.69553814499E+03  0.25500000000E-02 0. -1.
         -2   -1    0    0    0  501 -0.00000000000E+00 -0.00000000000E+00 -0.58905502636E+03  0.58905502636E+03  0.25500000000E-02 0.  1.
    8880022    1    1    2    0    0  0.33191214750E+03 -0.13519546851E+03 -0.45632615972E+03  0.60005725179E+03  0.15294330000E+03 0.  0.
    8880022    1    1    2    0    0 -0.33191214750E+03  0.13519546851E+03  0.56280927834E+03  0.68453591956E+03  0.15294330000E+03 0.  0.
<mgrwt>
<rscale>  0 0.38966029E+03</rscale>
<asrwt>0</asrwt>
<pdfrwt beam="1">  1        2 0.10700587E+00 0.38966029E+03</pdfrwt>
<pdfrwt beam="2">  1       -2 0.90623851E-01 0.38966029E+03</pdfrwt>
<totfact> 0.45199648E+01</totfact>
</mgrwt>
</event>
<event>
 4    1  0.4639964E-008  0.4063608E+03  0.7818608E-02  0.1041599E+00
         -2   -1    0    0    0  501 -0.00000000000E+00  0.00000000000E+00  0.56678203800E+03  0.56678203800E+03  0.25500000000E-02 0.  1.
          2   -1    0    0  501    0  0.00000000000E+00 -0.00000000000E+00 -0.75013962062E+03  0.75013962063E+03  0.25500000000E-02 0. -1.
    8880022    1    1    2    0    0 -0.20606089820E+03 -0.31508150951E+03  0.42327476057E+03  0.58676283740E+03  0.15294330000E+03 0.  0.
    8880022    1    1    2    0    0  0.20606089820E+03  0.31508150951E+03 -0.60663234319E+03  0.73015882123E+03  0.15294330000E+03 0.  0.
<mgrwt>
<rscale>  0 0.40636081E+03</rscale>
<asrwt>0</asrwt>
<pdfrwt beam="1">  1        2 0.11540610E+00 0.40636081E+03</pdfrwt>
<pdfrwt beam="2">  1       -2 0.87197236E-01 0.40636081E+03</pdfrwt>
<totfact> 0.44792869E+01</totfact>
</mgrwt>
</event>
<event>
 4    1  0.4639964E-008  0.7754284E+03  0.7818608E-02  0.9596281E-01
          2   -1    0    0  501    0  0.00000000000E+00  0.00000000000E+00  0.12197395215E+04  0.12197395215E+04  0.25500000000E-02 0. -1.
         -2   -1    0    0    0  501 -0.00000000000E+00 -0.00000000000E+00 -0.88126548757E+03  0.88126548757E+03  0.25500000000E-02 0.  1.
    8880022    1    1    2    0    0  0.52291039600E+02  0.75839515101E+03  0.86654964994E+03  0.11628402757E+04  0.15294330000E+03 0. -1.
    8880022    1    1    2    0    0 -0.52291039600E+02 -0.75839515101E+03 -0.52807561597E+03  0.93816473345E+03  0.15294330000E+03 0.  0.
<mgrwt>
<rscale>  0 0.77542840E+03</rscale>
<asrwt>0</asrwt>
<pdfrwt beam="1">  1        2 0.18765223E+00 0.77542840E+03</pdfrwt>
<pdfrwt beam="2">  1       -2 0.13557931E+00 0.77542840E+03</pdfrwt>
<totfact> 0.73178607E+00</totfact>
</mgrwt>
</event>
<event>
 4    1  0.4639964E-008  0.4146260E+03  0.7818608E-02  0.1038830E+00
         -2   -1    0    0    0  501 -0.00000000000E+00  0.00000000000E+00  0.50554046552E+03  0.50554046553E+03  0.25500000000E-02 0.  1.
          2   -1    0    0  501    0  0.00000000000E+00 -0.00000000000E+00 -0.12931277915E+04  0.12931277915E+04  0.25500000000E-02 0. -1.
    8880022    1    1    2    0    0  0.26998535622E+03 -0.27501080689E+03 -0.11658730868E+04  0.12374064587E+04  0.15294330000E+03 0.  0.
    8880022    1    1    2    0    0 -0.26998535622E+03  0.27501080689E+03  0.37828576079E+03  0.56126179837E+03  0.15294330000E+03 0.  0.
<mgrwt>
<rscale>  0 0.41462596E+03</rscale>
<asrwt>0</asrwt>
<pdfrwt beam="1">  1        2 0.19894274E+00 0.41462596E+03</pdfrwt>
<pdfrwt beam="2">  1       -2 0.77775457E-01 0.41462596E+03</pdfrwt>
<totfact> 0.26341644E+01</totfact>
</mgrwt>
</event>
<event>
 4    1  0.4639964E-008  0.1124656E+04  0.7818608E-02  0.9181488E-01
          2   -1    0    0  501    0  0.00000000000E+00  0.00000000000E+00  0.29275423221E+04  0.29275423221E+04  0.25500000000E-02 0. -1.
         -2   -1    0    0    0  501 -0.00000000000E+00 -0.00000000000E+00 -0.63657573776E+03  0.63657573777E+03  0.25500000000E-02 0.  1.
    8880022    1    1    2    0    0 -0.17502731567E+03  0.11003753641E+04  0.13537413041E+03  0.11327746075E+04  0.15294330000E+03 0.  0.
    8880022    1    1    2    0    0  0.17502731567E+03 -0.11003753641E+04  0.21555924540E+04  0.24313434524E+04  0.15294330000E+03 0.  0.
<mgrwt>
<rscale>  0 0.11246565E+04</rscale>
<asrwt>0</asrwt>
<pdfrwt beam="1">  1        2 0.45039112E+00 0.11246565E+04</pdfrwt>
<pdfrwt beam="2">  1       -2 0.97934731E-01 0.11246565E+04</pdfrwt>
<totfact> 0.16757616E+00</totfact>
</mgrwt>
</event>
<event>
 4    1  0.4639964E-008  0.5101356E+03  0.7818608E-02  0.1011167E+00
          2   -1    0    0  501    0  0.00000000000E+00  0.00000000000E+00  0.36500046119E+03  0.36500046120E+03  0.25500000000E-02 0. -1.
         -2   -1    0    0    0  501 -0.00000000000E+00 -0.00000000000E+00 -0.88304181171E+03  0.88304181172E+03  0.25500000000E-02 0.  1.
    8880022    1    1    2    0    0  0.41475846092E+03 -0.25460181756E+03  0.14828255979E+02  0.51035105232E+03  0.15294330000E+03 0. -1.
    8880022    1    1    2    0    0 -0.41475846092E+03  0.25460181756E+03 -0.53286960650E+03  0.73769122060E+03  0.15294330000E+03 0.  1.
<mgrwt>
<rscale>  0 0.51013559E+03</rscale>
<asrwt>0</asrwt>
<pdfrwt beam="1">  1        2 0.56153917E-01 0.51013559E+03</pdfrwt>
<pdfrwt beam="2">  1       -2 0.13585259E+00 0.51013559E+03</pdfrwt>
<totfact> 0.35316814E+01</totfact>
</mgrwt>
</event>
<event>
 4    1  0.4639964E-008  0.1302431E+04  0.7818608E-02  0.9027639E-01
          2   -1    0    0  501    0  0.00000000000E+00  0.00000000000E+00  0.30836132104E+04  0.30836132104E+04  0.25500000000E-02 0. -1.
         -2   -1    0    0    0  501 -0.00000000000E+00 -0.00000000000E+00 -0.93787051661E+03  0.93787051662E+03  0.25500000000E-02 0.  1.
    8880022    1    1    2    0    0 -0.12866175905E+04 -0.13247879807E+03  0.23657761644E+04  0.27005969653E+04  0.15294330000E+03 0.  0.
    8880022    1    1    2    0    0  0.12866175905E+04  0.13247879807E+03 -0.22003347062E+03  0.13208867617E+04  0.15294330000E+03 0.  0.
<mgrwt>
<rscale>  0 0.13024312E+04</rscale>
<asrwt>0</asrwt>
<pdfrwt beam="1">  1        2 0.47440204E+00 0.13024312E+04</pdfrwt>
<pdfrwt beam="2">  1       -2 0.14428777E+00 0.13024312E+04</pdfrwt>
<totfact> 0.49779495E-01</totfact>
</mgrwt>
</event>
<event>
 4    1  0.4639964E-008  0.9280312E+03  0.7818608E-02  0.9391204E-01
          2   -1    0    0  501    0  0.00000000000E+00  0.00000000000E+00  0.41222987232E+04  0.41222987232E+04  0.25500000000E-02 0. -1.
         -2   -1    0    0    0  501 -0.00000000000E+00 -0.00000000000E+00 -0.30777194490E+03  0.30777194491E+03  0.25500000000E-02 0.  1.
    8880022    1    1    2    0    0 -0.24802246172E+03 -0.88109877577E+03  0.65194819373E+03  0.11341420963E+04  0.15294330000E+03 0.  0.
    8880022    1    1    2    0    0  0.24802246172E+03  0.88109877577E+03  0.31625785845E+04  0.32959285718E+04  0.15294330000E+03 0.  0.
<mgrwt>
<rscale>  0 0.92803117E+03</rscale>
<asrwt>0</asrwt>
<pdfrwt beam="1">  1        2 0.63419975E+00 0.92803117E+03</pdfrwt>
<pdfrwt beam="2">  1       -2 0.47349534E-01 0.92803117E+03</pdfrwt>
<totfact> 0.12310063E+00</totfact>
</mgrwt>
</event>
<event>
 4    1  0.4639964E-008  0.2769381E+03  0.7818608E-02  0.1097373E+00
         -2   -1    0    0    0  501 -0.00000000000E+00  0.00000000000E+00  0.75456963020E+02  0.75456963063E+02  0.25500000000E-02 0.  1.
          2   -1    0    0  501    0  0.00000000000E+00 -0.00000000000E+00 -0.10551746379E+04  0.10551746379E+04  0.25500000000E-02 0. -1.
    8880022    1    1    2    0    0 -0.17982329310E+03 -0.14479856288E+03 -0.59822290213E+03  0.65921569626E+03  0.15294330000E+03 0.  0.
    8880022    1    1    2    0    0  0.17982329310E+03  0.14479856288E+03 -0.38149477273E+03  0.47141590468E+03  0.15294330000E+03 0.  0.
<mgrwt>
<rscale>  0 0.27693807E+03</rscale>
<asrwt>0</asrwt>
<pdfrwt beam="1">  1        2 0.16233455E+00 0.27693807E+03</pdfrwt>
<pdfrwt beam="2">  1       -2 0.11608764E-01 0.27693807E+03</pdfrwt>
<totfact> 0.12686806E+03</totfact>
</mgrwt>
</event>
<event>
 4    1  0.4639964E-008  0.4904506E+03  0.7818608E-02  0.1016302E+00
         -2   -1    0    0    0  501 -0.00000000000E+00  0.00000000000E+00  0.51701058168E+03  0.51701058168E+03  0.25500000000E-02 0.  1.
          2   -1    0    0  501    0  0.00000000000E+00 -0.00000000000E+00 -0.10910577336E+04  0.10910577336E+04  0.25500000000E-02 0. -1.
    8880022    1    1    2    0    0  0.97022297401E+02 -0.45578150042E+03  0.32190921733E+03  0.58665773628E+03  0.15294330000E+03 0.  0.
    8880022    1    1    2    0    0 -0.97022297401E+02  0.45578150042E+03 -0.89595636929E+03  0.10214105791E+04  0.15294330000E+03 0.  0.
<mgrwt>
<rscale>  0 0.49045056E+03</rscale>
<asrwt>0</asrwt>
<pdfrwt beam="1">  1        2 0.16785504E+00 0.49045056E+03</pdfrwt>
<pdfrwt beam="2">  1       -2 0.79540090E-01 0.49045056E+03</pdfrwt>
<totfact> 0.32441009E+01</totfact>
</mgrwt>
</event>
<event>
 4    1  0.4639964E-008  0.5730540E+03  0.7818608E-02  0.9962943E-01
          2   -1    0    0  501    0  0.00000000000E+00  0.00000000000E+00  0.76087267380E+03  0.76087267381E+03  0.25500000000E-02 0. -1.
         -2   -1    0    0    0  501 -0.00000000000E+00 -0.00000000000E+00 -0.56949946466E+03  0.56949946467E+03  0.25500000000E-02 0.  1.
    8880022    1    1    2    0    0 -0.33633337137E+03 -0.43804003306E+03 -0.23164012479E+03  0.61810032171E+03  0.15294330000E+03 0.  0.
    8880022    1    1    2    0    0  0.33633337137E+03  0.43804003306E+03  0.42301333393E+03  0.71227181677E+03  0.15294330000E+03 0.  0.
<mgrwt>
<rscale>  0 0.57305398E+03</rscale>
<asrwt>0</asrwt>
<pdfrwt beam="1">  1        2 0.11705733E+00 0.57305398E+03</pdfrwt>
<pdfrwt beam="2">  1       -2 0.87615303E-01 0.57305398E+03</pdfrwt>
<totfact> 0.42624373E+01</totfact>
</mgrwt>
</event>
<event>
 4    1  0.4639964E-008  0.1106703E+04  0.7818608E-02  0.9198683E-01
         -2   -1    0    0    0  501 -0.00000000000E+00  0.00000000000E+00  0.96183537997E+03  0.96183537997E+03  0.25500000000E-02 0.  1.
          2   -1    0    0  501    0  0.00000000000E+00 -0.00000000000E+00 -0.18190920183E+04  0.18190920183E+04  0.25500000000E-02 0. -1.
    8880022    1    1    2    0    0 -0.10947809164E+04 -0.53431042109E+02  0.33294199339E+03  0.11556998551E+04  0.15294330000E+03 0.  0.
    8880022    1    1    2    0    0  0.10947809164E+04  0.53431042109E+02 -0.11901986317E+04  0.16252275432E+04  0.15294330000E+03 0.  0.
<mgrwt>
<rscale>  0 0.11067031E+04</rscale>
<asrwt>0</asrwt>
<pdfrwt beam="1">  1        2 0.27986031E+00 0.11067031E+04</pdfrwt>
<pdfrwt beam="2">  1       -2 0.14797467E+00 0.11067031E+04</pdfrwt>
<totfact> 0.25703686E+00</totfact>
</mgrwt>
</event>
<event>
 4    1  0.4639964E-008  0.1554626E+04  0.7818608E-02  0.8848918E-01
         -2   -1    0    0    0  501 -0.00000000000E+00  0.00000000000E+00  0.23825448645E+04  0.23825448645E+04  0.25500000000E-02 0.  1.
          2   -1    0    0  501    0  0.00000000000E+00 -0.00000000000E+00 -0.24714896299E+04  0.24714896299E+04  0.25500000000E-02 0. -1.
    8880022    1    1    2    0    0 -0.13839972895E+04 -0.69139215270E+03  0.18190559076E+04  0.23928701708E+04  0.15294330000E+03 0.  0.
    8880022    1    1    2    0    0  0.13839972895E+04  0.69139215270E+03 -0.19080006730E+04  0.24611643235E+04  0.15294330000E+03 0.  0.
<mgrwt>
<rscale>  0 0.15546264E+04</rscale>
<asrwt>0</asrwt>
<pdfrwt beam="1">  1        2 0.38022917E+00 0.15546264E+04</pdfrwt>
<pdfrwt beam="2">  1       -2 0.36654536E+00 0.15546264E+04</pdfrwt>
<totfact> 0.41193104E-02</totfact>
</mgrwt>
</event>
<event>
 4    1  0.4639964E-008  0.1023182E+04  0.7818608E-02  0.9283478E-01
          2   -1    0    0  501    0  0.00000000000E+00  0.00000000000E+00  0.32061740659E+04  0.32061740659E+04  0.25500000000E-02 0. -1.
         -2   -1    0    0    0  501 -0.00000000000E+00 -0.00000000000E+00 -0.38350789506E+03  0.38350789507E+03  0.25500000000E-02 0.  1.
    8880022    1    1    2    0    0  0.33805052086E+03 -0.95353643350E+03  0.21031711930E+04  0.23388524119E+04  0.15294330000E+03 0.  0.
    8880022    1    1    2    0    0 -0.33805052086E+03  0.95353643350E+03  0.71949497788E+03  0.12508295491E+04  0.15294330000E+03 0.  0.
<mgrwt>
<rscale>  0 0.10231821E+04</rscale>
<asrwt>0</asrwt>
<pdfrwt beam="1">  1        2 0.49325755E+00 0.10231821E+04</pdfrwt>
<pdfrwt beam="2">  1       -2 0.59001214E-01 0.10231821E+04</pdfrwt>
<totfact> 0.35324615E+00</totfact>
</mgrwt>
</event>
<event>
 4    1  0.4639964E-008  0.1927870E+03  0.7818608E-02  0.1155971E+00
          2   -1    0    0  501    0  0.00000000000E+00  0.00000000000E+00  0.77697408966E+03  0.77697408966E+03  0.25500000000E-02 0. -1.
         -2   -1    0    0    0  501 -0.00000000000E+00 -0.00000000000E+00 -0.68446726775E+02  0.68446726823E+02  0.25500000000E-02 0.  1.
    8880022    1    1    2    0    0 -0.74673957979E+02 -0.90548152473E+02  0.58622746822E+03  0.61711381886E+03  0.15294330000E+03 0.  0.
    8880022    1    1    2    0    0  0.74673957979E+02  0.90548152473E+02  0.12229989467E+03  0.22830699763E+03  0.15294330000E+03 0.  0.
<mgrwt>
<rscale>  0 0.19278698E+03</rscale>
<asrwt>0</asrwt>
<pdfrwt beam="1">  1        2 0.11953447E+00 0.19278698E+03</pdfrwt>
<pdfrwt beam="2">  1       -2 0.10530266E-01 0.19278698E+03</pdfrwt>
<totfact> 0.22338273E+03</totfact>
</mgrwt>
</event>
<event>
 4    1  0.4639964E-008  0.6992279E+03  0.7818608E-02  0.9718554E-01
          2   -1    0    0  501    0  0.00000000000E+00  0.00000000000E+00  0.18844793694E+04  0.18844793694E+04  0.25500000000E-02 0. -1.
         -2   -1    0    0    0  501 -0.00000000000E+00 -0.00000000000E+00 -0.57243944117E+03  0.57243944117E+03  0.25500000000E-02 0.  1.
    8880022    1    1    2    0    0  0.64508619819E+03  0.22224252767E+03 -0.25235265623E+03  0.74337168383E+03  0.15294330000E+03 0.  1.
    8880022    1    1    2    0    0 -0.64508619819E+03 -0.22224252767E+03  0.15643925844E+04  0.17135471267E+04  0.15294330000E+03 0.  0.
<mgrwt>
<rscale>  0 0.69922786E+03</rscale>
<asrwt>0</asrwt>
<pdfrwt beam="1">  1        2 0.28991990E+00 0.69922786E+03</pdfrwt>
<pdfrwt beam="2">  1       -2 0.88067606E-01 0.69922786E+03</pdfrwt>
<totfact> 0.89581193E+00</totfact>
</mgrwt>
</event>
<event>
 4    1  0.5889704E-008  0.1150272E+04  0.7818608E-02  0.9157533E-01
          2   -1    0    0  501    0  0.00000000000E+00  0.00000000000E+00  0.28998844306E+04  0.28998844306E+04  0.25500000000E-02 0. -1.
         -2   -1    0    0    0  501 -0.00000000000E+00 -0.00000000000E+00 -0.11979008397E+04  0.11979008397E+04  0.25500000000E-02 0.  1.
    8880022    1    1    2    0    0  0.21439886894E+03 -0.11197171337E+04  0.24631334168E+04  0.27184832566E+04  0.15294330000E+03 0.  0.
    8880022    1    1    2    0    0 -0.21439886894E+03  0.11197171337E+04 -0.76114982582E+03  0.13793020137E+04  0.15294330000E+03 0.  0.
<mgrwt>
<rscale>  0 0.11502717E+04</rscale>
<asrwt>0</asrwt>
<pdfrwt beam="1">  1        2 0.44613606E+00 0.11502717E+04</pdfrwt>
<pdfrwt beam="2">  1       -2 0.18429244E+00 0.11502717E+04</pdfrwt>
<totfact> 0.33671138E-01</totfact>
</mgrwt>
</event>
<event>
 4    1  0.4639964E-008  0.8260274E+03  0.7818608E-02  0.9523089E-01
         -2   -1    0    0    0  501 -0.00000000000E+00  0.00000000000E+00  0.11392025000E+04  0.11392025000E+04  0.25500000000E-02 0.  1.
          2   -1    0    0  501    0  0.00000000000E+00 -0.00000000000E+00 -0.21646844043E+04  0.21646844043E+04  0.25500000000E-02 0. -1.
    8880022    1    1    2    0    0  0.81174303116E+03  0.16706465340E+01  0.89219793870E+03  0.12158693822E+04  0.15294330000E+03 0.  0.
    8880022    1    1    2    0    0 -0.81174303116E+03 -0.16706465340E+01 -0.19176798430E+04  0.20880175222E+04  0.15294330000E+03 0.  0.
<mgrwt>
<rscale>  0 0.82602736E+03</rscale>
<asrwt>0</asrwt>
<pdfrwt beam="1">  1        2 0.33302837E+00 0.82602736E+03</pdfrwt>
<pdfrwt beam="2">  1       -2 0.17526192E+00 0.82602736E+03</pdfrwt>
<totfact> 0.10887181E+00</totfact>
</mgrwt>
</event>
<event>
 4    1  0.4639964E-008  0.4584466E+03  0.7818608E-02  0.1025233E+00
          2   -1    0    0  501    0  0.00000000000E+00  0.00000000000E+00  0.13817081671E+04  0.13817081671E+04  0.25500000000E-02 0. -1.
         -2   -1    0    0    0  501 -0.00000000000E+00 -0.00000000000E+00 -0.44831624514E+03  0.44831624514E+03  0.25500000000E-02 0.  1.
    8880022    1    1    2    0    0  0.41291998568E+03 -0.12758820130E+03 -0.27706068514E+03  0.53566401778E+03  0.15294330000E+03 0.  0.
    8880022    1    1    2    0    0 -0.41291998568E+03  0.12758820130E+03  0.12104526071E+04  0.12943603945E+04  0.15294330000E+03 0.  0.
<mgrwt>
<rscale>  0 0.45844663E+03</rscale>
<asrwt>0</asrwt>
<pdfrwt beam="1">  1        2 0.21257048E+00 0.45844663E+03</pdfrwt>
<pdfrwt beam="2">  1       -2 0.68971731E-01 0.45844663E+03</pdfrwt>
<totfact> 0.30296228E+01</totfact>
</mgrwt>
</event>
<event>
 4    1  0.4639964E-008  0.6736077E+03  0.7818608E-02  0.9763462E-01
         -2   -1    0    0    0  501 -0.00000000000E+00  0.00000000000E+00  0.28057675442E+03  0.28057675443E+03  0.25500000000E-02 0.  1.
          2   -1    0    0  501    0  0.00000000000E+00 -0.00000000000E+00 -0.25651986778E+04  0.25651986778E+04  0.25500000000E-02 0. -1.
    8880022    1    1    2    0    0  0.76368946062E+02 -0.65155465900E+03 -0.20073090001E+04  0.21173182955E+04  0.15294330000E+03 0.  0.
    8880022    1    1    2    0    0 -0.76368946062E+02  0.65155465900E+03 -0.27731292328E+03  0.72845713671E+03  0.15294330000E+03 0.  0.
<mgrwt>
<rscale>  0 0.67360771E+03</rscale>
<asrwt>0</asrwt>
<pdfrwt beam="1">  1        2 0.39464594E+00 0.67360771E+03</pdfrwt>
<pdfrwt beam="2">  1       -2 0.43165656E-01 0.67360771E+03</pdfrwt>
<totfact> 0.17232052E+01</totfact>
</mgrwt>
</event>
<event>
 4    1  0.4639964E-008  0.6299293E+03  0.7818608E-02  0.9845187E-01
          2   -1    0    0  501    0  0.00000000000E+00  0.00000000000E+00  0.10929177365E+04  0.10929177365E+04  0.25500000000E-02 0. -1.
         -2   -1    0    0    0  501 -0.00000000000E+00 -0.00000000000E+00 -0.44338171543E+03  0.44338171544E+03  0.25500000000E-02 0.  1.
    8880022    1    1    2    0    0 -0.15152840850E+02  0.61089252138E+03 -0.21458617498E+01  0.62993296389E+03  0.15294330000E+03 0.  0.
    8880022    1    1    2    0    0  0.15152840850E+02 -0.61089252138E+03  0.65168188283E+03  0.90636648806E+03  0.15294330000E+03 0.  0.
<mgrwt>
<rscale>  0 0.62992931E+03</rscale>
<asrwt>0</asrwt>
<pdfrwt beam="1">  1        2 0.16814119E+00 0.62992931E+03</pdfrwt>
<pdfrwt beam="2">  1       -2 0.68212573E-01 0.62992931E+03</pdfrwt>
<totfact> 0.44544654E+01</totfact>
</mgrwt>
</event>
<event>
 4    1  0.4639964E-008  0.3814525E+03  0.7818608E-02  0.1050398E+00
          2   -1    0    0  501    0  0.00000000000E+00  0.00000000000E+00  0.15645820802E+04  0.15645820802E+04  0.25500000000E-02 0. -1.
         -2   -1    0    0    0  501 -0.00000000000E+00 -0.00000000000E+00 -0.44695487175E+03  0.44695487175E+03  0.25500000000E-02 0.  1.
    8880022    1    1    2    0    0  0.29079233414E+03  0.19378903663E+03 -0.33622171019E+03  0.50847916745E+03  0.15294330000E+03 0.  0.
    8880022    1    1    2    0    0 -0.29079233414E+03 -0.19378903663E+03  0.14538489187E+04  0.15030577845E+04  0.15294330000E+03 0.  0.
<mgrwt>
<rscale>  0 0.38145252E+03</rscale>
<asrwt>0</asrwt>
<pdfrwt beam="1">  1        2 0.24070493E+00 0.38145252E+03</pdfrwt>
<pdfrwt beam="2">  1       -2 0.68762288E-01 0.38145252E+03</pdfrwt>
<totfact> 0.24611811E+01</totfact>
</mgrwt>
</event>
<event>
 4    1  0.4639964E-008  0.3140841E+03  0.7818608E-02  0.1078405E+00
         -2   -1    0    0    0  501 -0.00000000000E+00  0.00000000000E+00  0.90238229555E+02  0.90238229591E+02  0.25500000000E-02 0.  1.
          2   -1    0    0  501    0  0.00000000000E+00 -0.00000000000E+00 -0.13436590428E+04  0.13436590428E+04  0.25500000000E-02 0. -1.
    8880022    1    1    2    0    0 -0.27404359354E+02 -0.27295813279E+03 -0.93624442609E+03  0.98752337672E+03  0.15294330000E+03 0.  1.
    8880022    1    1    2    0    0  0.27404359354E+02  0.27295813279E+03 -0.31717638719E+03  0.44637389571E+03  0.15294330000E+03 0. -1.
<mgrwt>
<rscale>  0 0.31408406E+03</rscale>
<asrwt>0</asrwt>
<pdfrwt beam="1">  1        2 0.20671676E+00 0.31408406E+03</pdfrwt>
<pdfrwt beam="2">  1       -2 0.13882805E-01 0.31408406E+03</pdfrwt>
<totfact> 0.64561256E+02</totfact>
</mgrwt>
</event>
<event>
 4    1  0.4639964E-008  0.1420639E+04  0.7818608E-02  0.8939013E-01
          2   -1    0    0  501    0  0.00000000000E+00  0.00000000000E+00  0.23920959907E+04  0.23920959907E+04  0.25500000000E-02 0. -1.
         -2   -1    0    0    0  501 -0.00000000000E+00 -0.00000000000E+00 -0.12530069510E+04  0.12530069510E+04  0.25500000000E-02 0.  1.
    8880022    1    1    2    0    0 -0.50469401824E+03 -0.13191313716E+04 -0.47211732969E+03  0.14970337517E+04  0.15294330000E+03 0.  0.
    8880022    1    1    2    0    0  0.50469401824E+03  0.13191313716E+04  0.16112063693E+04  0.21480691900E+04  0.15294330000E+03 0.  0.
<mgrwt>
<rscale>  0 0.14206390E+04</rscale>
<asrwt>0</asrwt>
<pdfrwt beam="1">  1        2 0.36801476E+00 0.14206390E+04</pdfrwt>
<pdfrwt beam="2">  1       -2 0.19277030E+00 0.14206390E+04</pdfrwt>
<totfact> 0.56574699E-01</totfact>
</mgrwt>
</event>
<event>
 4    1  0.4639964E-008  0.9949672E+03  0.7818608E-02  0.9314082E-01
         -2   -1    0    0    0  501 -0.00000000000E+00  0.00000000000E+00  0.11851288225E+04  0.11851288225E+04  0.25500000000E-02 0.  1.
          2   -1    0    0  501    0  0.00000000000E+00 -0.00000000000E+00 -0.19474519741E+04  0.19474519741E+04  0.25500000000E-02 0. -1.
    8880022    1    1    2    0    0  0.83208157639E+03  0.52364911703E+03  0.80247234197E+03  0.12782494515E+04  0.15294330000E+03 0.  0.
    8880022    1    1    2    0    0 -0.83208157639E+03 -0.52364911703E+03 -0.15647954936E+04  0.18543313451E+04  0.15294330000E+03 0.  0.
<mgrwt>
<rscale>  0 0.99496724E+03</rscale>
<asrwt>0</asrwt>
<pdfrwt beam="1">  1        2 0.29960800E+00 0.99496724E+03</pdfrwt>
<pdfrwt beam="2">  1       -2 0.18232751E+00 0.99496724E+03</pdfrwt>
<totfact> 0.12462259E+00</totfact>
</mgrwt>
</event>
<event>
 4    1  0.4639964E-008  0.4219316E+03  0.7818608E-02  0.1036439E+00
          2   -1    0    0  501    0  0.00000000000E+00  0.00000000000E+00  0.26425457876E+04  0.26425457876E+04  0.25500000000E-02 0. -1.
         -2   -1    0    0    0  501 -0.00000000000E+00 -0.00000000000E+00 -0.51307403245E+03  0.51307403246E+03  0.25500000000E-02 0.  1.
    8880022    1    1    2    0    0  0.19438653601E+03 -0.34183104839E+03  0.25353147579E+04  0.25701842669E+04  0.15294330000E+03 0.  0.
    8880022    1    1    2    0    0 -0.19438653601E+03  0.34183104839E+03 -0.40584300276E+03  0.58543555318E+03  0.15294330000E+03 0.  0.
<mgrwt>
<rscale>  0 0.42193156E+03</rscale>
<asrwt>0</asrwt>
<pdfrwt beam="1">  1        2 0.40654551E+00 0.42193156E+03</pdfrwt>
<pdfrwt beam="2">  1       -2 0.78934467E-01 0.42193156E+03</pdfrwt>
<totfact> 0.46830578E+00</totfact>
</mgrwt>
</event>
<event>
 4    1  0.4639964E-008  0.2722798E+03  0.7818608E-02  0.1099982E+00
          2   -1    0    0  501    0  0.00000000000E+00  0.00000000000E+00  0.92291175666E+03  0.92291175666E+03  0.25500000000E-02 0. -1.
         -2   -1    0    0    0  501 -0.00000000000E+00 -0.00000000000E+00 -0.21362608301E+03  0.21362608303E+03  0.25500000000E-02 0.  1.
    8880022    1    1    2    0    0 -0.74997293002E+02  0.21241473744E+03  0.80353046585E+03  0.84840879132E+03  0.15294330000E+03 0. -1.
    8880022    1    1    2    0    0  0.74997293002E+02 -0.21241473744E+03 -0.94244792201E+02  0.28812904836E+03  0.15294330000E+03 0.  0.
<mgrwt>
<rscale>  0 0.27227976E+03</rscale>
<asrwt>0</asrwt>
<pdfrwt beam="1">  1        2 0.14198642E+00 0.27227976E+03</pdfrwt>
<pdfrwt beam="2">  1       -2 0.32865551E-01 0.27227976E+03</pdfrwt>
<totfact> 0.25590833E+02</totfact>
</mgrwt>
</event>
<event>
 4    1  0.4639964E-008  0.5037129E+03  0.7818608E-02  0.1012814E+00
         -2   -1    0    0    0  501 -0.00000000000E+00  0.00000000000E+00  0.54675522071E+03  0.54675522071E+03  0.25500000000E-02 0.  1.
          2   -1    0    0  501    0  0.00000000000E+00 -0.00000000000E+00 -0.67333829049E+03  0.67333829049E+03  0.25500000000E-02 0. -1.
    8880022    1    1    2    0    0  0.37497895645E+03 -0.29954260230E+03 -0.40339391247E+03  0.64533192235E+03  0.15294330000E+03 0.  0.
    8880022    1    1    2    0    0 -0.37497895645E+03  0.29954260230E+03  0.27681084269E+03  0.57476158885E+03  0.15294330000E+03 0.  0.
<mgrwt>
<rscale>  0 0.50371286E+03</rscale>
<asrwt>0</asrwt>
<pdfrwt beam="1">  1        2 0.10359051E+00 0.50371286E+03</pdfrwt>
<pdfrwt beam="2">  1       -2 0.84116188E-01 0.50371286E+03</pdfrwt>
<totfact> 0.54938451E+01</totfact>
</mgrwt>
</event>
<event>
 4    1  0.4639964E-008  0.1559563E+03  0.7818608E-02  0.1193339E+00
          2   -1    0    0  501    0  0.00000000000E+00  0.00000000000E+00  0.44302880699E+02  0.44302880772E+02  0.25500000000E-02 0. -1.
         -2   -1    0    0    0  501 -0.00000000000E+00 -0.00000000000E+00 -0.27441659982E+04  0.27441659982E+04  0.25500000000E-02 0.  1.
    8880022    1    1    2    0    0  0.17990470373E+02 -0.24638837517E+02 -0.25969247299E+04  0.26016034354E+04  0.15294330000E+03 0.  1.
    8880022    1    1    2    0    0 -0.17990470373E+02  0.24638837517E+02 -0.10293838758E+03  0.18686544354E+03  0.15294330000E+03 0.  0.
<mgrwt>
<rscale>  0 0.15595635E+03</rscale>
<asrwt>0</asrwt>
<pdfrwt beam="1">  1        2 0.68158300E-02 0.15595635E+03</pdfrwt>
<pdfrwt beam="2">  1       -2 0.42217925E+00 0.15595635E+03</pdfrwt>
<totfact> 0.71105314E+00</totfact>
</mgrwt>
</event>
<event>
 4    1  0.2056716E-007  0.1236056E+04  0.7818608E-02  0.9081870E-01
         -2   -1    0    0    0  501 -0.00000000000E+00  0.00000000000E+00  0.23150806350E+04  0.23150806350E+04  0.25500000000E-02 0.  1.
          2   -1    0    0  501    0  0.00000000000E+00 -0.00000000000E+00 -0.20699402693E+04  0.20699402693E+04  0.25500000000E-02 0. -1.
    8880022    1    1    2    0    0  0.12258772094E+04  0.40826381380E+02 -0.16869819319E+04  0.20913491859E+04  0.15294330000E+03 0.  0.
    8880022    1    1    2    0    0 -0.12258772094E+04 -0.40826381380E+02  0.19321222976E+04  0.22936717184E+04  0.15294330000E+03 0.  0.
<mgrwt>
<rscale>  0 0.12360556E+04</rscale>
<asrwt>0</asrwt>
<pdfrwt beam="1">  1        2 0.31845235E+00 0.12360556E+04</pdfrwt>
<pdfrwt beam="2">  1       -2 0.35616625E+00 0.12360556E+04</pdfrwt>
<totfact> 0.84827329E-02</totfact>
</mgrwt>
</event>
<event>
 4    1  0.4639964E-008  0.4776154E+03  0.7818608E-02  0.1019793E+00
         -2   -1    0    0    0  501 -0.00000000000E+00  0.00000000000E+00  0.20453656396E+04  0.20453656396E+04  0.25500000000E-02 0.  1.
          2   -1    0    0  501    0  0.00000000000E+00 -0.00000000000E+00 -0.30727605927E+03  0.30727605928E+03  0.25500000000E-02 0. -1.
    8880022    1    1    2    0    0 -0.25443954771E+03  0.37414613021E+03  0.18079238732E+04  0.18699479123E+04  0.15294330000E+03 0.  0.
    8880022    1    1    2    0    0  0.25443954771E+03 -0.37414613021E+03 -0.69834292864E+02  0.48269378664E+03  0.15294330000E+03 0.  0.
<mgrwt>
<rscale>  0 0.47761539E+03</rscale>
<asrwt>0</asrwt>
<pdfrwt beam="1">  1        2 0.47273240E-01 0.47761539E+03</pdfrwt>
<pdfrwt beam="2">  1       -2 0.31467163E+00 0.47761539E+03</pdfrwt>
<totfact> 0.30257495E+00</totfact>
</mgrwt>
</event>
<event>
 4    1  0.4639964E-008  0.6978955E+03  0.7818608E-02  0.9720838E-01
          2   -1    0    0  501    0  0.00000000000E+00  0.00000000000E+00  0.73484070294E+03  0.73484070294E+03  0.25500000000E-02 0. -1.
         -2   -1    0    0    0  501 -0.00000000000E+00 -0.00000000000E+00 -0.11987996671E+04  0.11987996671E+04  0.25500000000E-02 0.  1.
    8880022    1    1    2    0    0 -0.65227294855E+03 -0.19546468268E+03  0.41449521662E+03  0.81170461327E+03  0.15294330000E+03 0.  0.
    8880022    1    1    2    0    0  0.65227294855E+03  0.19546468268E+03 -0.87845418080E+03  0.11219357568E+04  0.15294330000E+03 0.  0.
<mgrwt>
<rscale>  0 0.69789548E+03</rscale>
<asrwt>0</asrwt>
<pdfrwt beam="1">  1        2 0.11305242E+00 0.69789548E+03</pdfrwt>
<pdfrwt beam="2">  1       -2 0.18443072E+00 0.69789548E+03</pdfrwt>
<totfact> 0.66774285E+00</totfact>
</mgrwt>
</event>
<event>
 4    1  0.4639964E-008  0.7451969E+03  0.7818608E-02  0.9642916E-01
         -2   -1    0    0    0  501 -0.00000000000E+00  0.00000000000E+00  0.54656554904E+03  0.54656554904E+03  0.25500000000E-02 0.  1.
          2   -1    0    0  501    0  0.00000000000E+00 -0.00000000000E+00 -0.19024892492E+04  0.19024892492E+04  0.25500000000E-02 0. -1.
    8880022    1    1    2    0    0 -0.44230920102E+02  0.72799067030E+03  0.15791177495E+03  0.76174442696E+03  0.15294330000E+03 0.  0.
    8880022    1    1    2    0    0  0.44230920102E+02 -0.72799067030E+03 -0.15138354751E+04  0.16873103713E+04  0.15294330000E+03 0.  0.
<mgrwt>
<rscale>  0 0.74519692E+03</rscale>
<asrwt>0</asrwt>
<pdfrwt beam="1">  1        2 0.29269065E+00 0.74519692E+03</pdfrwt>
<pdfrwt beam="2">  1       -2 0.84087008E-01 0.74519692E+03</pdfrwt>
<totfact> 0.96638551E+00</totfact>
</mgrwt>
</event>
<event>
 4    1  0.4639964E-008  0.3475584E+03  0.7818608E-02  0.1063622E+00
          2   -1    0    0  501    0  0.00000000000E+00  0.00000000000E+00  0.71091386953E+03  0.71091386954E+03  0.25500000000E-02 0. -1.
         -2   -1    0    0    0  501 -0.00000000000E+00 -0.00000000000E+00 -0.23821039733E+03  0.23821039734E+03  0.25500000000E-02 0.  1.
    8880022    1    1    2    0    0 -0.31005206422E+03  0.35677742627E+02  0.49044895703E+03  0.60111314768E+03  0.15294330000E+03 0.  0.
    8880022    1    1    2    0    0  0.31005206422E+03 -0.35677742627E+02 -0.17745484820E+02  0.34801111920E+03  0.15294330000E+03 0.  0.
<mgrwt>
<rscale>  0 0.34755839E+03</rscale>
<asrwt>0</asrwt>
<pdfrwt beam="1">  1        2 0.10937136E+00 0.34755839E+03</pdfrwt>
<pdfrwt beam="2">  1       -2 0.36647753E-01 0.34755839E+03</pdfrwt>
<totfact> 0.29030471E+02</totfact>
</mgrwt>
</event>
<event>
 4    1  0.4639964E-008  0.2990014E+03  0.7818608E-02  0.1085741E+00
          2   -1    0    0  501    0  0.00000000000E+00  0.00000000000E+00  0.21490861563E+03  0.21490861565E+03  0.25500000000E-02 0. -1.
         -2   -1    0    0    0  501 -0.00000000000E+00 -0.00000000000E+00 -0.16380992149E+04  0.16380992149E+04  0.25500000000E-02 0.  1.
    8880022    1    1    2    0    0 -0.25547704768E+03  0.27233503902E+02 -0.15118541957E+04  0.15411375499E+04  0.15294330000E+03 0.  0.
    8880022    1    1    2    0    0  0.25547704768E+03 -0.27233503902E+02  0.88663596412E+02  0.31187028067E+03  0.15294330000E+03 0.  0.
<mgrwt>
<rscale>  0 0.29900140E+03</rscale>
<asrwt>0</asrwt>
<pdfrwt beam="1">  1        2 0.33062865E-01 0.29900140E+03</pdfrwt>
<pdfrwt beam="2">  1       -2 0.25201526E+00 0.29900140E+03</pdfrwt>
<totfact> 0.10975690E+01</totfact>
</mgrwt>
</event>
<event>
 4    1  0.4639964E-008  0.5044879E+03  0.7818608E-02  0.1012614E+00
         -2   -1    0    0    0  501 -0.00000000000E+00  0.00000000000E+00  0.17870178462E+03  0.17870178464E+03  0.25500000000E-02 0.  1.
          2   -1    0    0  501    0  0.00000000000E+00 -0.00000000000E+00 -0.24920428409E+04  0.24920428409E+04  0.25500000000E-02 0. -1.
    8880022    1    1    2    0    0 -0.19742069803E+03  0.43833945590E+03 -0.20308028283E+04  0.20925267480E+04  0.15294330000E+03 0.  0.
    8880022    1    1    2    0    0  0.19742069803E+03 -0.43833945590E+03 -0.28253822792E+03  0.57821787750E+03  0.15294330000E+03 0.  0.
<mgrwt>
<rscale>  0 0.50448792E+03</rscale>
<asrwt>0</asrwt>
<pdfrwt beam="1">  1        2 0.38339118E+00 0.50448792E+03</pdfrwt>
<pdfrwt beam="2">  1       -2 0.27492584E-01 0.50448792E+03</pdfrwt>
<totfact> 0.45973376E+01</totfact>
</mgrwt>
</event>
<event>
 4    1  0.4639964E-008  0.3032701E+03  0.7818608E-02  0.1083617E+00
          2   -1    0    0  501    0  0.00000000000E+00  0.00000000000E+00  0.16171443296E+04  0.16171443296E+04  0.25500000000E-02 0. -1.
         -2   -1    0    0    0  501 -0.00000000000E+00 -0.00000000000E+00 -0.92564099140E+02  0.92564099175E+02  0.25500000000E-02 0.  1.
    8880022    1    1    2    0    0  0.14605863037E+03  0.21736599210E+03  0.23147004260E+03  0.38151164027E+03  0.15294330000E+03 0.  0.
    8880022    1    1    2    0    0 -0.14605863037E+03 -0.21736599210E+03  0.12931101879E+04  0.13281967885E+04  0.15294330000E+03 0.  0.
<mgrwt>
<rscale>  0 0.30327010E+03</rscale>
<asrwt>0</asrwt>
<pdfrwt beam="1">  1        2 0.24879145E+00 0.30327010E+03</pdfrwt>
<pdfrwt beam="2">  1       -2 0.14240630E-01 0.30327010E+03</pdfrwt>
<totfact> 0.44076621E+02</totfact>
</mgrwt>
</event>
<event>
 4    1  0.4639964E-008  0.2875173E+03  0.7818608E-02  0.1091653E+00
          2   -1    0    0  501    0  0.00000000000E+00  0.00000000000E+00  0.19855080234E+04  0.19855080234E+04  0.25500000000E-02 0. -1.
         -2   -1    0    0    0  501 -0.00000000000E+00 -0.00000000000E+00 -0.61723442402E+02  0.61723442455E+02  0.25500000000E-02 0.  1.
    8880022    1    1    2    0    0  0.21526242607E+03 -0.11373934724E+03  0.15458579574E+04  0.15723686045E+04  0.15294330000E+03 0.  1.
    8880022    1    1    2    0    0 -0.21526242607E+03  0.11373934724E+03  0.37792662362E+03  0.47486286130E+03  0.15294330000E+03 0.  0.
<mgrwt>
<rscale>  0 0.28751731E+03</rscale>
<asrwt>0</asrwt>
<pdfrwt beam="1">  1        2 0.30546273E+00 0.28751731E+03</pdfrwt>
<pdfrwt beam="2">  1       -2 0.94959154E-02 0.28751731E+03</pdfrwt>
<totfact> 0.54441143E+02</totfact>
</mgrwt>
</event>
<event>
 4    1  0.4639964E-008  0.3860697E+03  0.7818608E-02  0.1048713E+00
         -2   -1    0    0    0  501 -0.00000000000E+00  0.00000000000E+00  0.77548341560E+02  0.77548341602E+02  0.25500000000E-02 0.  1.
          2   -1    0    0  501    0  0.00000000000E+00 -0.00000000000E+00 -0.20747978354E+04  0.20747978354E+04  0.25500000000E-02 0. -1.
    8880022    1    1    2    0    0  0.34740627513E+03 -0.70477040083E+02 -0.12906487138E+04  0.13471539959E+04  0.15294330000E+03 0.  0.
    8880022    1    1    2    0    0 -0.34740627513E+03  0.70477040083E+02 -0.70660078010E+03  0.80519218118E+03  0.15294330000E+03 0.  0.
<mgrwt>
<rscale>  0 0.38606966E+03</rscale>
<asrwt>0</asrwt>
<pdfrwt beam="1">  1        2 0.31919962E+00 0.38606966E+03</pdfrwt>
<pdfrwt beam="2">  1       -2 0.11930516E-01 0.38606966E+03</pdfrwt>
<totfact> 0.33268690E+02</totfact>
</mgrwt>
</event>
<event>
 4    1  0.4639964E-008  0.6260685E+03  0.7818608E-02  0.9852751E-01
         -2   -1    0    0    0  501 -0.00000000000E+00  0.00000000000E+00  0.84560607581E+03  0.84560607581E+03  0.25500000000E-02 0.  1.
          2   -1    0    0  501    0  0.00000000000E+00 -0.00000000000E+00 -0.93074925870E+03  0.93074925871E+03  0.25500000000E-02 0. -1.
    8880022    1    1    2    0    0 -0.53347153728E+03 -0.28979004594E+03 -0.67185307853E+03  0.91834000455E+03  0.15294330000E+03 0.  0.
    8880022    1    1    2    0    0  0.53347153728E+03  0.28979004594E+03  0.58670989563E+03  0.85801532997E+03  0.15294330000E+03 0.  0.
<mgrwt>
<rscale>  0 0.62606853E+03</rscale>
<asrwt>0</asrwt>
<pdfrwt beam="1">  1        2 0.14319219E+00 0.62606853E+03</pdfrwt>
<pdfrwt beam="2">  1       -2 0.13009324E+00 0.62606853E+03</pdfrwt>
<totfact> 0.12509943E+01</totfact>
</mgrwt>
</event>
<event>
 4    1  0.4639964E-008  0.1031416E+04  0.7818608E-02  0.9274744E-01
          2   -1    0    0  501    0  0.00000000000E+00  0.00000000000E+00  0.40741716753E+04  0.40741716753E+04  0.25500000000E-02 0. -1.
         -2   -1    0    0    0  501 -0.00000000000E+00 -0.00000000000E+00 -0.52472014556E+03  0.52472014557E+03  0.25500000000E-02 0.  1.
    8880022    1    1    2    0    0  0.16134597733E+03 -0.10071720190E+04  0.14491258967E+03  0.10415465962E+04  0.15294330000E+03 0.  0.
    8880022    1    1    2    0    0 -0.16134597733E+03  0.10071720190E+04  0.34045389400E+04  0.35573452247E+04  0.15294330000E+03 0.  0.
<mgrwt>
<rscale>  0 0.10314163E+04</rscale>
<asrwt>0</asrwt>
<pdfrwt beam="1">  1        2 0.62679563E+00 0.10314163E+04</pdfrwt>
<pdfrwt beam="2">  1       -2 0.80726178E-01 0.10314163E+04</pdfrwt>
<totfact> 0.42263109E-01</totfact>
</mgrwt>
</event>
<event>
 4    1  0.4639964E-008  0.4881764E+03  0.7818608E-02  0.1016912E+00
         -2   -1    0    0    0  501 -0.00000000000E+00  0.00000000000E+00  0.38385791405E+03  0.38385791405E+03  0.25500000000E-02 0.  1.
          2   -1    0    0  501    0  0.00000000000E+00 -0.00000000000E+00 -0.95990543673E+03  0.95990543673E+03  0.25500000000E-02 0. -1.
    8880022    1    1    2    0    0  0.27157934471E+03 -0.37572494922E+03 -0.68734019972E+03  0.84306155238E+03  0.15294330000E+03 0.  0.
    8880022    1    1    2    0    0 -0.27157934471E+03  0.37572494922E+03  0.11129267704E+03  0.50070179840E+03  0.15294330000E+03 0.  0.
<mgrwt>
<rscale>  0 0.48817643E+03</rscale>
<asrwt>0</asrwt>
<pdfrwt beam="1">  1        2 0.14767776E+00 0.48817643E+03</pdfrwt>
<pdfrwt beam="2">  1       -2 0.59055064E-01 0.48817643E+03</pdfrwt>
<totfact> 0.74501374E+01</totfact>
</mgrwt>
</event>
<event>
 4    1  0.4980592E-008  0.5860111E+03  0.7818608E-02  0.9934861E-01
         -2   -1    0    0    0  501 -0.00000000000E+00  0.00000000000E+00  0.10113628829E+04  0.10113628829E+04  0.25500000000E-02 0.  1.
          2   -1    0    0  501    0  0.00000000000E+00 -0.00000000000E+00 -0.21784124441E+04  0.21784124441E+04  0.25500000000E-02 0. -1.
    8880022    1    1    2    0    0 -0.11956263570E+03 -0.55292149078E+03 -0.20488518552E+04  0.21310098489E+04  0.15294330000E+03 0.  0.
    8880022    1    1    2    0    0  0.11956263570E+03  0.55292149078E+03  0.88180229402E+03  0.10587654781E+04  0.15294330000E+03 0.  0.
<mgrwt>
<rscale>  0 0.58601114E+03</rscale>
<asrwt>0</asrwt>
<pdfrwt beam="1">  1        2 0.33514038E+00 0.58601114E+03</pdfrwt>
<pdfrwt beam="2">  1       -2 0.15559429E+00 0.58601114E+03</pdfrwt>
<totfact> 0.15614192E+00</totfact>
</mgrwt>
</event>
<event>
 4    1  0.4639964E-008  0.1393183E+04  0.7818608E-02  0.8958768E-01
          2   -1    0    0  501    0  0.00000000000E+00  0.00000000000E+00  0.14108015343E+04  0.14108015343E+04  0.25500000000E-02 0. -1.
         -2   -1    0    0    0  501 -0.00000000000E+00 -0.00000000000E+00 -0.42887722178E+04  0.42887722178E+04  0.25500000000E-02 0.  1.
    8880022    1    1    2    0    0  0.32566116800E+03 -0.13459247003E+04  0.90964761942E+03  0.16638566464E+04  0.15294330000E+03 0.  0.
    8880022    1    1    2    0    0 -0.32566116800E+03  0.13459247003E+04 -0.37876183030E+04  0.40357171057E+04  0.15294330000E+03 0.  0.
<mgrwt>
<rscale>  0 0.13931835E+04</rscale>
<asrwt>0</asrwt>
<pdfrwt beam="1">  1        2 0.21704639E+00 0.13931835E+04</pdfrwt>
<pdfrwt beam="2">  1       -2 0.65981110E+00 0.13931835E+04</pdfrwt>
<totfact> 0.41313581E-03</totfact>
</mgrwt>
</event>
<event>
 4    1  0.2132490E-007  0.1090923E+04  0.7818608E-02  0.9214084E-01
          2   -1    0    0  501    0  0.00000000000E+00  0.00000000000E+00  0.16906367386E+04  0.16906367386E+04  0.25500000000E-02 0. -1.
         -2   -1    0    0    0  501 -0.00000000000E+00 -0.00000000000E+00 -0.25837851407E+04  0.25837851407E+04  0.25500000000E-02 0.  1.
    8880022    1    1    2    0    0  0.59210312033E+03  0.90340198822E+03 -0.22695454183E+04  0.25181241662E+04  0.15294330000E+03 0.  0.
    8880022    1    1    2    0    0 -0.59210312033E+03 -0.90340198822E+03  0.13763970162E+04  0.17562977130E+04  0.15294330000E+03 0.  0.
<mgrwt>
<rscale>  0 0.10909230E+04</rscale>
<asrwt>0</asrwt>
<pdfrwt beam="1">  1        2 0.26009796E+00 0.10909230E+04</pdfrwt>
<pdfrwt beam="2">  1       -2 0.39750541E+00 0.10909230E+04</pdfrwt>
<totfact> 0.76653172E-02</totfact>
</mgrwt>
</event>
<event>
 4    1  0.4639964E-008  0.1034382E+04  0.7818608E-02  0.9271619E-01
         -2   -1    0    0    0  501 -0.00000000000E+00  0.00000000000E+00  0.82280174326E+03  0.82280174326E+03  0.25500000000E-02 0.  1.
          2   -1    0    0  501    0  0.00000000000E+00 -0.00000000000E+00 -0.19776531064E+04  0.19776531064E+04  0.25500000000E-02 0. -1.
    8880022    1    1    2    0    0  0.12485780883E+03  0.10153642135E+04 -0.13968504148E+04  0.17381417356E+04  0.15294330000E+03 0.  0.
    8880022    1    1    2    0    0 -0.12485780883E+03 -0.10153642135E+04  0.24199905162E+03  0.10623131142E+04  0.15294330000E+03 0.  0.
<mgrwt>
<rscale>  0 0.10343818E+04</rscale>
<asrwt>0</asrwt>
<pdfrwt beam="1">  1        2 0.30425432E+00 0.10343818E+04</pdfrwt>
<pdfrwt beam="2">  1       -2 0.12658488E+00 0.10343818E+04</pdfrwt>
<totfact> 0.31746133E+00</totfact>
</mgrwt>
</event>
<event>
 4    1  0.4639964E-008  0.4953590E+03  0.7818608E-02  0.1014997E+00
          2   -1    0    0  501    0  0.00000000000E+00  0.00000000000E+00  0.31262945486E+04  0.31262945486E+04  0.25500000000E-02 0. -1.
         -2   -1    0    0    0  501 -0.00000000000E+00 -0.00000000000E+00 -0.20269368975E+03  0.20269368976E+03  0.25500000000E-02 0.  1.
    8880022    1    1    2    0    0  0.22268478359E+03 -0.41521119895E+03  0.15884153195E+03  0.52020297756E+03  0.15294330000E+03 0.  1.
    8880022    1    1    2    0    0 -0.22268478359E+03  0.41521119895E+03  0.27647593269E+04  0.28087852608E+04  0.15294330000E+03 0.  0.
<mgrwt>
<rscale>  0 0.49535897E+03</rscale>
<asrwt>0</asrwt>
<pdfrwt beam="1">  1        2 0.48096838E+00 0.49535897E+03</pdfrwt>
<pdfrwt beam="2">  1       -2 0.31183646E-01 0.49535897E+03</pdfrwt>
<totfact> 0.15527499E+01</totfact>
</mgrwt>
</event>
<event>
 4    1  0.4639964E-008  0.5534816E+03  0.7818608E-02  0.1000691E+00
          2   -1    0    0  501    0  0.00000000000E+00  0.00000000000E+00  0.23531312997E+04  0.23531312997E+04  0.25500000000E-02 0. -1.
         -2   -1    0    0    0  501 -0.00000000000E+00 -0.00000000000E+00 -0.35045806318E+03  0.35045806319E+03  0.25500000000E-02 0.  1.
    8880022    1    1    2    0    0 -0.28513679981E+02 -0.53116592522E+03  0.20730375292E+04  0.21456529357E+04  0.15294330000E+03 0.  0.
    8880022    1    1    2    0    0  0.28513679981E+02  0.53116592522E+03 -0.70364292685E+02  0.55793642717E+03  0.15294330000E+03 0.  0.
<mgrwt>
<rscale>  0 0.55348164E+03</rscale>
<asrwt>0</asrwt>
<pdfrwt beam="1">  1        2 0.36202019E+00 0.55348164E+03</pdfrwt>
<pdfrwt beam="2">  1       -2 0.53916627E-01 0.55348164E+03</pdfrwt>
<totfact> 0.14816654E+01</totfact>
</mgrwt>
</event>
<event>
 4    1  0.4639964E-008  0.4453324E+03  0.7818608E-02  0.1029123E+00
          2   -1    0    0  501    0  0.00000000000E+00  0.00000000000E+00  0.24451827728E+03  0.24451827729E+03  0.25500000000E-02 0. -1.
         -2   -1    0    0    0  501 -0.00000000000E+00 -0.00000000000E+00 -0.85653044906E+03  0.85653044906E+03  0.25500000000E-02 0.  1.
    8880022    1    1    2    0    0 -0.55414849833E+02 -0.41455817603E+03 -0.43283893646E+03  0.62102373934E+03  0.15294330000E+03 0.  0.
    8880022    1    1    2    0    0  0.55414849833E+02  0.41455817603E+03 -0.17917323532E+03  0.48002498702E+03  0.15294330000E+03 0.  0.
<mgrwt>
<rscale>  0 0.44533239E+03</rscale>
<asrwt>0</asrwt>
<pdfrwt beam="1">  1        2 0.37618197E-01 0.44533239E+03</pdfrwt>
<pdfrwt beam="2">  1       -2 0.13177391E+00 0.44533239E+03</pdfrwt>
<totfact> 0.59659892E+01</totfact>
</mgrwt>
</event>
<event>
 4    1  0.4639964E-008  0.1190837E+04  0.7818608E-02  0.9120915E-01
          2   -1    0    0  501    0  0.00000000000E+00  0.00000000000E+00  0.30606329101E+04  0.30606329101E+04  0.25500000000E-02 0. -1.
         -2   -1    0    0    0  501 -0.00000000000E+00 -0.00000000000E+00 -0.87050783521E+03  0.87050783521E+03  0.25500000000E-02 0.  1.
    8880022    1    1    2    0    0 -0.11302208054E+04 -0.34249266498E+03  0.24393519204E+04  0.27145035898E+04  0.15294330000E+03 0.  0.
    8880022    1    1    2    0    0  0.11302208054E+04  0.34249266498E+03 -0.24922684553E+03  0.12166371555E+04  0.15294330000E+03 0.  0.
<mgrwt>
<rscale>  0 0.11908367E+04</rscale>
<asrwt>0</asrwt>
<pdfrwt beam="1">  1        2 0.47086660E+00 0.11908367E+04</pdfrwt>
<pdfrwt beam="2">  1       -2 0.13392428E+00 0.11908367E+04</pdfrwt>
<totfact> 0.63472844E-01</totfact>
</mgrwt>
</event>
<event>
 4    1  0.4639964E-008  0.4889142E+03  0.7818608E-02  0.1016714E+00
         -2   -1    0    0    0  501 -0.00000000000E+00  0.00000000000E+00  0.22408668031E+04  0.22408668031E+04  0.25500000000E-02 0.  1.
          2   -1    0    0  501    0  0.00000000000E+00 -0.00000000000E+00 -0.24363075961E+03  0.24363075963E+03  0.25500000000E-02 0. -1.
    8880022    1    1    2    0    0  0.54121206552E+02 -0.46121180255E+03  0.67214463135E+02  0.49351278492E+03  0.15294330000E+03 0.  0.
    8880022    1    1    2    0    0 -0.54121206552E+02  0.46121180255E+03  0.19300215803E+04  0.19909847778E+04  0.15294330000E+03 0.  0.
<mgrwt>
<rscale>  0 0.48891419E+03</rscale>
<asrwt>0</asrwt>
<pdfrwt beam="1">  1        2 0.37481656E-01 0.48891419E+03</pdfrwt>
<pdfrwt beam="2">  1       -2 0.34474874E+00 0.48891419E+03</pdfrwt>
<totfact> 0.25624018E+00</totfact>
</mgrwt>
</event>
<event>
 4    1  0.4639964E-008  0.1865811E+03  0.7818608E-02  0.1161582E+00
         -2   -1    0    0    0  501 -0.00000000000E+00  0.00000000000E+00  0.90911074131E+03  0.90911074132E+03  0.25500000000E-02 0.  1.
          2   -1    0    0  501    0  0.00000000000E+00 -0.00000000000E+00 -0.89028438983E+03  0.89028438983E+03  0.25500000000E-02 0. -1.
    8880022    1    1    2    0    0 -0.43930606423E+02 -0.97421453210E+02  0.88954919225E+03  0.90890607666E+03  0.15294330000E+03 0.  1.
    8880022    1    1    2    0    0  0.43930606423E+02  0.97421453210E+02 -0.87072284077E+03  0.89048905450E+03  0.15294330000E+03 0.  0.
<mgrwt>
<rscale>  0 0.18658106E+03</rscale>
<asrwt>0</asrwt>
<pdfrwt beam="1">  1        2 0.13696683E+00 0.18658106E+03</pdfrwt>
<pdfrwt beam="2">  1       -2 0.13986319E+00 0.18658106E+03</pdfrwt>
<totfact> 0.12286715E+01</totfact>
</mgrwt>
</event>
<event>
 4    1  0.4639964E-008  0.1145855E+04  0.7818608E-02  0.9161616E-01
         -2   -1    0    0    0  501 -0.00000000000E+00  0.00000000000E+00  0.82532627380E+03  0.82532627381E+03  0.25500000000E-02 0.  1.
          2   -1    0    0  501    0  0.00000000000E+00 -0.00000000000E+00 -0.26092452385E+04  0.26092452385E+04  0.25500000000E-02 0. -1.
    8880022    1    1    2    0    0 -0.11168544263E+04 -0.20549322719E+03  0.18089306307E+03  0.11600453565E+04  0.15294330000E+03 0.  0.
    8880022    1    1    2    0    0  0.11168544263E+04  0.20549322719E+03 -0.19648120278E+04  0.22745261558E+04  0.15294330000E+03 0.  0.
<mgrwt>
<rscale>  0 0.11458547E+04</rscale>
<asrwt>0</asrwt>
<pdfrwt beam="1">  1        2 0.40142234E+00 0.11458547E+04</pdfrwt>
<pdfrwt beam="2">  1       -2 0.12697327E+00 0.11458547E+04</pdfrwt>
<totfact> 0.13689700E+00</totfact>
</mgrwt>
</event>
<event>
 4    1  0.4639964E-008  0.5793692E+03  0.7818608E-02  0.9949158E-01
         -2   -1    0    0    0  501 -0.00000000000E+00  0.00000000000E+00  0.83789558892E+03  0.83789558892E+03  0.25500000000E-02 0.  1.
          2   -1    0    0  501    0  0.00000000000E+00 -0.00000000000E+00 -0.95550208339E+03  0.95550208339E+03  0.25500000000E-02 0. -1.
    8880022    1    1    2    0    0  0.18126738198E+03 -0.52860112117E+03 -0.74214093449E+03  0.94151039757E+03  0.15294330000E+03 0.  0.
    8880022    1    1    2    0    0 -0.18126738198E+03  0.52860112117E+03  0.62453444002E+03  0.85188727474E+03  0.15294330000E+03 0.  0.
<mgrwt>
<rscale>  0 0.57936919E+03</rscale>
<asrwt>0</asrwt>
<pdfrwt beam="1">  1        2 0.14700032E+00 0.57936919E+03</pdfrwt>
<pdfrwt beam="2">  1       -2 0.12890701E+00 0.57936919E+03</pdfrwt>
<totfact> 0.12416559E+01</totfact>
</mgrwt>
</event>
<event>
 4    1  0.4639964E-008  0.3347386E+03  0.7818608E-02  0.1069059E+00
         -2   -1    0    0    0  501 -0.00000000000E+00  0.00000000000E+00  0.33804881526E+03  0.33804881527E+03  0.25500000000E-02 0.  1.
          2   -1    0    0  501    0  0.00000000000E+00 -0.00000000000E+00 -0.10571558964E+04  0.10571558964E+04  0.25500000000E-02 0. -1.
    8880022    1    1    2    0    0 -0.11133392219E+02  0.29754721708E+03 -0.93753711423E+03  0.99550278372E+03  0.15294330000E+03 0.  0.
    8880022    1    1    2    0    0  0.11133392219E+02 -0.29754721708E+03  0.21843003311E+03  0.39970192794E+03  0.15294330000E+03 0.  0.
<mgrwt>
<rscale>  0 0.33473863E+03</rscale>
<asrwt>0</asrwt>
<pdfrwt beam="1">  1        2 0.16263937E+00 0.33473863E+03</pdfrwt>
<pdfrwt beam="2">  1       -2 0.52007510E-01 0.33473863E+03</pdfrwt>
<totfact> 0.86066700E+01</totfact>
</mgrwt>
</event>
<event>
 4    1  0.4639964E-008  0.6926200E+03  0.7818608E-02  0.9729937E-01
          2   -1    0    0  501    0  0.00000000000E+00  0.00000000000E+00  0.40339885986E+04  0.40339885986E+04  0.25500000000E-02 0. -1.
         -2   -1    0    0    0  501 -0.00000000000E+00 -0.00000000000E+00 -0.19144227993E+03  0.19144227995E+03  0.25500000000E-02 0.  1.
    8880022    1    1    2    0    0  0.62863829487E+03 -0.24727467623E+03  0.32216144588E+04  0.32952271917E+04  0.15294330000E+03 0.  0.
    8880022    1    1    2    0    0 -0.62863829487E+03  0.24727467623E+03  0.62093185988E+03  0.93020368678E+03  0.15294330000E+03 0.  0.
<mgrwt>
<rscale>  0 0.69262004E+03</rscale>
<asrwt>0</asrwt>
<pdfrwt beam="1">  1        2 0.62061360E+00 0.69262004E+03</pdfrwt>
<pdfrwt beam="2">  1       -2 0.29452660E-01 0.69262004E+03</pdfrwt>
<totfact> 0.38224302E+00</totfact>
</mgrwt>
</event>
<event>
 4    1  0.4639964E-008  0.1934194E+03  0.7818608E-02  0.1155413E+00
          2   -1    0    0  501    0  0.00000000000E+00  0.00000000000E+00  0.56612057250E+03  0.56612057251E+03  0.25500000000E-02 0. -1.
         -2   -1    0    0    0  501 -0.00000000000E+00 -0.00000000000E+00 -0.98487141617E+02  0.98487141650E+02  0.25500000000E-02 0.  1.
    8880022    1    1    2    0    0 -0.11814916807E+03  0.77586080634E+01  0.43207300694E+02  0.19818664375E+03  0.15294330000E+03 0.  0.
    8880022    1    1    2    0    0  0.11814916807E+03 -0.77586080634E+01  0.42442613019E+03  0.46642107040E+03  0.15294330000E+03 0. -1.
<mgrwt>
<rscale>  0 0.19341943E+03</rscale>
<asrwt>0</asrwt>
<pdfrwt beam="1">  1        2 0.87095471E-01 0.19341943E+03</pdfrwt>
<pdfrwt beam="2">  1       -2 0.15151868E-01 0.19341943E+03</pdfrwt>
<totfact> 0.18053496E+03</totfact>
</mgrwt>
</event>
<event>
 4    1  0.4639964E-008  0.3524424E+03  0.7818608E-02  0.1061617E+00
          2   -1    0    0  501    0  0.00000000000E+00  0.00000000000E+00  0.32116516464E+04  0.32116516464E+04  0.25500000000E-02 0. -1.
         -2   -1    0    0    0  501 -0.00000000000E+00 -0.00000000000E+00 -0.19341858156E+03  0.19341858157E+03  0.25500000000E-02 0.  1.
    8880022    1    1    2    0    0  0.11392062221E+02 -0.31732352343E+03  0.30319454254E+04  0.30523611702E+04  0.15294330000E+03 0.  0.
    8880022    1    1    2    0    0 -0.11392062221E+02  0.31732352343E+03 -0.13712360561E+02  0.35270905779E+03  0.15294330000E+03 0.  0.
<mgrwt>
<rscale>  0 0.35244241E+03</rscale>
<asrwt>0</asrwt>
<pdfrwt beam="1">  1        2 0.49410023E+00 0.35244241E+03</pdfrwt>
<pdfrwt beam="2">  1       -2 0.29756706E-01 0.35244241E+03</pdfrwt>
<totfact> 0.15693335E+01</totfact>
</mgrwt>
</event>
<event>
 4    1  0.4639964E-008  0.4486496E+03  0.7818608E-02  0.1028126E+00
          2   -1    0    0  501    0  0.00000000000E+00  0.00000000000E+00  0.23445757743E+04  0.23445757743E+04  0.25500000000E-02 0. -1.
         -2   -1    0    0    0  501 -0.00000000000E+00 -0.00000000000E+00 -0.95475719737E+02  0.95475719771E+02  0.25500000000E-02 0.  1.
    8880022    1    1    2    0    0  0.20874560300E+03  0.36649702394E+03  0.15118921185E+04  0.15770555559E+04  0.15294330000E+03 0.  0.
    8880022    1    1    2    0    0 -0.20874560300E+03 -0.36649702394E+03  0.73720793606E+03  0.86299593819E+03  0.15294330000E+03 0.  0.
<mgrwt>
<rscale>  0 0.44864958E+03</rscale>
<asrwt>0</asrwt>
<pdfrwt beam="1">  1        2 0.36070395E+00 0.44864958E+03</pdfrwt>
<pdfrwt beam="2">  1       -2 0.14688573E-01 0.44864958E+03</pdfrwt>
<totfact> 0.16687440E+02</totfact>
</mgrwt>
</event>
<event>
 4    1  0.4639964E-008  0.6860611E+03  0.7818608E-02  0.9741371E-01
          2   -1    0    0  501    0  0.00000000000E+00  0.00000000000E+00  0.13974820701E+04  0.13974820701E+04  0.25500000000E-02 0. -1.
         -2   -1    0    0    0  501 -0.00000000000E+00 -0.00000000000E+00 -0.42161981437E+03  0.42161981438E+03  0.25500000000E-02 0.  1.
    8880022    1    1    2    0    0  0.59746939853E+03  0.30053035354E+03  0.79986923442E+02  0.69070814134E+03  0.15294330000E+03 0.  0.
    8880022    1    1    2    0    0 -0.59746939853E+03 -0.30053035354E+03  0.89587533232E+03  0.11283937432E+04  0.15294330000E+03 0.  0.
<mgrwt>
<rscale>  0 0.68606110E+03</rscale>
<asrwt>0</asrwt>
<pdfrwt beam="1">  1        2 0.21499724E+00 0.68606110E+03</pdfrwt>
<pdfrwt beam="2">  1       -2 0.64864587E-01 0.68606110E+03</pdfrwt>
<totfact> 0.32761099E+01</totfact>
</mgrwt>
</event>
<event>
 4    1  0.4639964E-008  0.6278770E+03  0.7818608E-02  0.9849201E-01
          2   -1    0    0  501    0  0.00000000000E+00  0.00000000000E+00  0.55356966219E+03  0.55356966220E+03  0.25500000000E-02 0. -1.
         -2   -1    0    0    0  501 -0.00000000000E+00 -0.00000000000E+00 -0.16975548176E+04  0.16975548176E+04  0.25500000000E-02 0.  1.
    8880022    1    1    2    0    0  0.54858824622E+03 -0.26436482928E+03  0.28556447551E+03  0.68976557578E+03  0.15294330000E+03 0.  0.
    8880022    1    1    2    0    0 -0.54858824622E+03  0.26436482928E+03 -0.14295496309E+04  0.15613589040E+04  0.15294330000E+03 0.  0.
<mgrwt>
<rscale>  0 0.62787696E+03</rscale>
<asrwt>0</asrwt>
<pdfrwt beam="1">  1        2 0.85164564E-01 0.62787696E+03</pdfrwt>
<pdfrwt beam="2">  1       -2 0.26116228E+00 0.62787696E+03</pdfrwt>
<totfact> 0.31550105E+00</totfact>
</mgrwt>
</event>
<event>
 4    1  0.4639964E-008  0.3389995E+03  0.7818608E-02  0.1067223E+00
          2   -1    0    0  501    0  0.00000000000E+00  0.00000000000E+00  0.49499601637E+03  0.49499601637E+03  0.25500000000E-02 0. -1.
         -2   -1    0    0    0  501 -0.00000000000E+00 -0.00000000000E+00 -0.27499318172E+03  0.27499318173E+03  0.25500000000E-02 0.  1.
    8880022    1    1    2    0    0 -0.42901523579E+02 -0.29948031116E+03 -0.41934171365E+02  0.34158326253E+03  0.15294330000E+03 0.  0.
    8880022    1    1    2    0    0  0.42901523579E+02  0.29948031116E+03  0.26193700601E+03  0.42840593557E+03  0.15294330000E+03 0.  0.
<mgrwt>
<rscale>  0 0.33899948E+03</rscale>
<asrwt>0</asrwt>
<pdfrwt beam="1">  1        2 0.76153233E-01 0.33899948E+03</pdfrwt>
<pdfrwt beam="2">  1       -2 0.42306644E-01 0.33899948E+03</pdfrwt>
<totfact> 0.33768992E+02</totfact>
</mgrwt>
</event>
<event>
 4    1  0.4639964E-008  0.6079005E+03  0.7818608E-02  0.9889149E-01
          2   -1    0    0  501    0  0.00000000000E+00  0.00000000000E+00  0.13939895391E+04  0.13939895391E+04  0.25500000000E-02 0. -1.
         -2   -1    0    0    0  501 -0.00000000000E+00 -0.00000000000E+00 -0.55632737411E+03  0.55632737411E+03  0.25500000000E-02 0.  1.
    8880022    1    1    2    0    0 -0.41956111148E+03 -0.41245584925E+03 -0.28671926451E+03  0.67212420244E+03  0.15294330000E+03 0.  0.
    8880022    1    1    2    0    0  0.41956111148E+03  0.41245584925E+03  0.11243814295E+04  0.12781927107E+04  0.15294330000E+03 0.  0.
<mgrwt>
<rscale>  0 0.60790049E+03</rscale>
<asrwt>0</asrwt>
<pdfrwt beam="1">  1        2 0.21445993E+00 0.60790049E+03</pdfrwt>
<pdfrwt beam="2">  1       -2 0.85588827E-01 0.60790049E+03</pdfrwt>
<totfact> 0.18026541E+01</totfact>
</mgrwt>
</event>
<event>
 4    1  0.4639964E-008  0.5353031E+03  0.7818608E-02  0.1004954E+00
          2   -1    0    0  501    0  0.00000000000E+00  0.00000000000E+00  0.25767622968E+04  0.25767622968E+04  0.25500000000E-02 0. -1.
         -2   -1    0    0    0  501 -0.00000000000E+00 -0.00000000000E+00 -0.85905992488E+03  0.85905992488E+03  0.25500000000E-02 0.  1.
    8880022    1    1    2    0    0 -0.35054284888E+03 -0.37453636045E+03 -0.74401612815E+03  0.91657483391E+03  0.15294330000E+03 0.  1.
    8880022    1    1    2    0    0  0.35054284888E+03  0.37453636045E+03  0.24617185001E+04  0.25192473878E+04  0.15294330000E+03 0.  0.
<mgrwt>
<rscale>  0 0.53530312E+03</rscale>
<asrwt>0</asrwt>
<pdfrwt beam="1">  1        2 0.39642496E+00 0.53530312E+03</pdfrwt>
<pdfrwt beam="2">  1       -2 0.13216307E+00 0.53530312E+03</pdfrwt>
<totfact> 0.14535964E+00</totfact>
</mgrwt>
</event>
<event>
 4    1  0.4639964E-008  0.5799733E+03  0.7818608E-02  0.9947849E-01
         -2   -1    0    0    0  501 -0.00000000000E+00  0.00000000000E+00  0.32306438599E+03  0.32306438600E+03  0.25500000000E-02 0.  1.
          2   -1    0    0  501    0  0.00000000000E+00 -0.00000000000E+00 -0.18418516917E+04  0.18418516917E+04  0.25500000000E-02 0. -1.
    8880022    1    1    2    0    0  0.50429799970E+03 -0.24220015592E+03 -0.14730847075E+04  0.15831448438E+04  0.15294330000E+03 0.  0.
    8880022    1    1    2    0    0 -0.50429799970E+03  0.24220015592E+03 -0.45702598171E+02  0.58177123384E+03  0.15294330000E+03 0.  0.
<mgrwt>
<rscale>  0 0.57997331E+03</rscale>
<asrwt>0</asrwt>
<pdfrwt beam="1">  1        2 0.28336179E+00 0.57997331E+03</pdfrwt>
<pdfrwt beam="2">  1       -2 0.49702214E-01 0.57997331E+03</pdfrwt>
<totfact> 0.33029908E+01</totfact>
</mgrwt>
</event>
<event>
 4    1  0.4639964E-008  0.5682561E+03  0.7818608E-02  0.9973545E-01
          2   -1    0    0  501    0  0.00000000000E+00  0.00000000000E+00  0.15996789428E+04  0.15996789428E+04  0.25500000000E-02 0. -1.
         -2   -1    0    0    0  501 -0.00000000000E+00 -0.00000000000E+00 -0.62116619789E+03  0.62116619790E+03  0.25500000000E-02 0.  1.
    8880022    1    1    2    0    0  0.11219934459E+03  0.53566285277E+03  0.14015796777E+04  0.15123956595E+04  0.15294330000E+03 0.  0.
    8880022    1    1    2    0    0 -0.11219934459E+03 -0.53566285277E+03 -0.42306693283E+03  0.70844948122E+03  0.15294330000E+03 0.  0.
<mgrwt>
<rscale>  0 0.56825614E+03</rscale>
<asrwt>0</asrwt>
<pdfrwt beam="1">  1        2 0.24610445E+00 0.56825614E+03</pdfrwt>
<pdfrwt beam="2">  1       -2 0.95564030E-01 0.56825614E+03</pdfrwt>
<totfact> 0.10835460E+01</totfact>
</mgrwt>
</event>
<event>
 4    1  0.4639964E-008  0.5211573E+03  0.7818608E-02  0.1008399E+00
         -2   -1    0    0    0  501 -0.00000000000E+00  0.00000000000E+00  0.20835316703E+04  0.20835316703E+04  0.25500000000E-02 0.  1.
          2   -1    0    0  501    0  0.00000000000E+00 -0.00000000000E+00 -0.35704666621E+03  0.35704666622E+03  0.25500000000E-02 0. -1.
    8880022    1    1    2    0    0  0.40883360454E+03  0.28472511324E+03  0.18355758867E+04  0.19081257283E+04  0.15294330000E+03 0.  0.
    8880022    1    1    2    0    0 -0.40883360454E+03 -0.28472511324E+03 -0.10909088258E+03  0.53245260821E+03  0.15294330000E+03 0.  0.
<mgrwt>
<rscale>  0 0.52115733E+03</rscale>
<asrwt>0</asrwt>
<pdfrwt beam="1">  1        2 0.54930257E-01 0.52115733E+03</pdfrwt>
<pdfrwt beam="2">  1       -2 0.32054333E+00 0.52115733E+03</pdfrwt>
<totfact> 0.23408322E+00</totfact>
</mgrwt>
</event>
<event>
 4    1  0.4639964E-008  0.6325651E+03  0.7818608E-02  0.9840056E-01
         -2   -1    0    0    0  501 -0.00000000000E+00  0.00000000000E+00  0.31333834067E+03  0.31333834068E+03  0.25500000000E-02 0.  1.
          2   -1    0    0  501    0  0.00000000000E+00 -0.00000000000E+00 -0.13468376100E+04  0.13468376100E+04  0.25500000000E-02 0. -1.
    8880022    1    1    2    0    0  0.19390070926E+03  0.58236538111E+03 -0.32775195847E+03  0.71243239782E+03  0.15294330000E+03 0.  0.
    8880022    1    1    2    0    0 -0.19390070926E+03 -0.58236538111E+03 -0.70574731083E+03  0.94774355283E+03  0.15294330000E+03 0.  0.
<mgrwt>
<rscale>  0 0.63256508E+03</rscale>
<asrwt>0</asrwt>
<pdfrwt beam="1">  1        2 0.20720578E+00 0.63256508E+03</pdfrwt>
<pdfrwt beam="2">  1       -2 0.48205899E-01 0.63256508E+03</pdfrwt>
<totfact> 0.65259801E+01</totfact>
</mgrwt>
</event>
<event>
 4    1  0.4639964E-008  0.5632848E+03  0.7818608E-02  0.9984649E-01
         -2   -1    0    0    0  501 -0.00000000000E+00  0.00000000000E+00  0.39303183805E+03  0.39303183806E+03  0.25500000000E-02 0.  1.
          2   -1    0    0  501    0  0.00000000000E+00 -0.00000000000E+00 -0.17195440220E+04  0.17195440220E+04  0.25500000000E-02 0. -1.
    8880022    1    1    2    0    0  0.52394916484E+03 -0.13919547542E+03 -0.14326240824E+04  0.15393834877E+04  0.15294330000E+03 0.  0.
    8880022    1    1    2    0    0 -0.52394916484E+03  0.13919547542E+03  0.10611189846E+03  0.57319237235E+03  0.15294330000E+03 0.  0.
<mgrwt>
<rscale>  0 0.56328480E+03</rscale>
<asrwt>0</asrwt>
<pdfrwt beam="1">  1        2 0.26454523E+00 0.56328480E+03</pdfrwt>
<pdfrwt beam="2">  1       -2 0.60466437E-01 0.56328480E+03</pdfrwt>
<totfact> 0.25727441E+01</totfact>
</mgrwt>
</event>
<event>
 4    1  0.4639964E-008  0.1294998E+04  0.7818608E-02  0.9033541E-01
         -2   -1    0    0    0  501 -0.00000000000E+00  0.00000000000E+00  0.12104702846E+04  0.12104702846E+04  0.25500000000E-02 0.  1.
          2   -1    0    0  501    0  0.00000000000E+00 -0.00000000000E+00 -0.18994860792E+04  0.18994860792E+04  0.25500000000E-02 0. -1.
    8880022    1    1    2    0    0  0.59323156835E+03 -0.11409223751E+04 -0.11534406335E+04  0.17341985203E+04  0.15294330000E+03 0.  0.
    8880022    1    1    2    0    0 -0.59323156835E+03  0.11409223751E+04  0.46442483900E+03  0.13757578435E+04  0.15294330000E+03 0.  0.
<mgrwt>
<rscale>  0 0.12949978E+04</rscale>
<asrwt>0</asrwt>
<pdfrwt beam="1">  1        2 0.29222863E+00 0.12949978E+04</pdfrwt>
<pdfrwt beam="2">  1       -2 0.18622620E+00 0.12949978E+04</pdfrwt>
<totfact> 0.11996293E+00</totfact>
</mgrwt>
</event>
<event>
 4    1  0.4639964E-008  0.3298579E+03  0.7818608E-02  0.1071200E+00
         -2   -1    0    0    0  501 -0.00000000000E+00  0.00000000000E+00  0.21305326284E+03  0.21305326285E+03  0.25500000000E-02 0.  1.
          2   -1    0    0  501    0  0.00000000000E+00 -0.00000000000E+00 -0.14415253038E+04  0.14415253038E+04  0.25500000000E-02 0. -1.
    8880022    1    1    2    0    0 -0.16368512242E+03  0.24211933544E+03  0.50547761060E+02  0.33370843720E+03  0.15294330000E+03 0.  0.
    8880022    1    1    2    0    0  0.16368512242E+03 -0.24211933544E+03 -0.12790198020E+04  0.13208701294E+04  0.15294330000E+03 0.  0.
<mgrwt>
<rscale>  0 0.32985792E+03</rscale>
<asrwt>0</asrwt>
<pdfrwt beam="1">  1        2 0.22177312E+00 0.32985792E+03</pdfrwt>
<pdfrwt beam="2">  1       -2 0.32777426E-01 0.32985792E+03</pdfrwt>
<totfact> 0.12730948E+02</totfact>
</mgrwt>
</event>
<event>
 4    1  0.2058466E-007  0.1145041E+04  0.7818608E-02  0.9162370E-01
          2   -1    0    0  501    0  0.00000000000E+00  0.00000000000E+00  0.15221931792E+04  0.15221931792E+04  0.25500000000E-02 0. -1.
         -2   -1    0    0    0  501 -0.00000000000E+00 -0.00000000000E+00 -0.25232604290E+04  0.25232604290E+04  0.25500000000E-02 0.  1.
    8880022    1    1    2    0    0  0.39762908720E+03  0.10628353196E+04  0.11410456282E+04  0.16165100019E+04  0.15294330000E+03 0.  0.
    8880022    1    1    2    0    0 -0.39762908720E+03 -0.10628353196E+04 -0.21421128780E+04  0.24289436063E+04  0.15294330000E+03 0.  0.
<mgrwt>
<rscale>  0 0.11450412E+04</rscale>
<asrwt>0</asrwt>
<pdfrwt beam="1">  1        2 0.23418357E+00 0.11450412E+04</pdfrwt>
<pdfrwt beam="2">  1       -2 0.38819391E+00 0.11450412E+04</pdfrwt>
<totfact> 0.10836977E-01</totfact>
</mgrwt>
</event>
<event>
 4    1  0.4639964E-008  0.3843000E+03  0.7818608E-02  0.1049356E+00
          2   -1    0    0  501    0  0.00000000000E+00  0.00000000000E+00  0.39259136096E+04  0.39259136096E+04  0.25500000000E-02 0. -1.
         -2   -1    0    0    0  501 -0.00000000000E+00 -0.00000000000E+00 -0.52902742745E+02  0.52902742807E+02  0.25500000000E-02 0.  1.
    8880022    1    1    2    0    0 -0.20640955717E+03 -0.28581455154E+03  0.30058273063E+04  0.30302944265E+04  0.15294330000E+03 0.  0.
    8880022    1    1    2    0    0  0.20640955717E+03  0.28581455154E+03  0.86718356061E+03  0.94852192593E+03  0.15294330000E+03 0.  0.
<mgrwt>
<rscale>  0 0.38430003E+03</rscale>
<asrwt>0</asrwt>
<pdfrwt beam="1">  1        2 0.60398663E+00 0.38430003E+03</pdfrwt>
<pdfrwt beam="2">  1       -2 0.81388846E-02 0.38430003E+03</pdfrwt>
<totfact> 0.44848154E+01</totfact>
</mgrwt>
</event>
<event>
 4    1  0.4639964E-008  0.7294435E+03  0.7818608E-02  0.9668164E-01
         -2   -1    0    0    0  501 -0.00000000000E+00  0.00000000000E+00  0.68171837042E+03  0.68171837043E+03  0.25500000000E-02 0.  1.
          2   -1    0    0  501    0  0.00000000000E+00 -0.00000000000E+00 -0.14172203615E+04  0.14172203615E+04  0.25500000000E-02 0. -1.
    8880022    1    1    2    0    0  0.51058330889E+03 -0.49799684737E+03  0.33568100543E+03  0.80297544529E+03  0.15294330000E+03 0.  0.
    8880022    1    1    2    0    0 -0.51058330889E+03  0.49799684737E+03 -0.10711829965E+04  0.12959632867E+04  0.15294330000E+03 0.  0.
<mgrwt>
<rscale>  0 0.72944351E+03</rscale>
<asrwt>0</asrwt>
<pdfrwt beam="1">  1        2 0.21803390E+00 0.72944351E+03</pdfrwt>
<pdfrwt beam="2">  1       -2 0.10487975E+00 0.72944351E+03</pdfrwt>
<totfact> 0.10697686E+01</totfact>
</mgrwt>
</event>
<event>
 4    1  0.4639964E-008  0.4546281E+03  0.7818608E-02  0.1026351E+00
         -2   -1    0    0    0  501 -0.00000000000E+00  0.00000000000E+00  0.58637730636E+03  0.58637730636E+03  0.25500000000E-02 0.  1.
          2   -1    0    0  501    0  0.00000000000E+00 -0.00000000000E+00 -0.49841905319E+03  0.49841905319E+03  0.25500000000E-02 0. -1.
    8880022    1    1    2    0    0 -0.40989714126E+03  0.12360965195E+03  0.33747748169E+03  0.56619582843E+03  0.15294330000E+03 0.  0.
    8880022    1    1    2    0    0  0.40989714126E+03 -0.12360965195E+03 -0.24951922852E+03  0.51860053113E+03  0.15294330000E+03 0.  0.
<mgrwt>
<rscale>  0 0.45462805E+03</rscale>
<asrwt>0</asrwt>
<pdfrwt beam="1">  1        2 0.76679855E-01 0.45462805E+03</pdfrwt>
<pdfrwt beam="2">  1       -2 0.90211892E-01 0.45462805E+03</pdfrwt>
<totfact> 0.67217161E+01</totfact>
</mgrwt>
</event>
<event>
 4    1  0.4639964E-008  0.2994965E+03  0.7818608E-02  0.1085493E+00
         -2   -1    0    0    0  501 -0.00000000000E+00  0.00000000000E+00  0.10540528294E+04  0.10540528294E+04  0.25500000000E-02 0.  1.
          2   -1    0    0  501    0  0.00000000000E+00 -0.00000000000E+00 -0.91834687054E+02  0.91834687089E+02  0.25500000000E-02 0. -1.
    8880022    1    1    2    0    0 -0.16834759759E+01 -0.25749500631E+03  0.32593460723E+03  0.44264154072E+03  0.15294330000E+03 0.  0.
    8880022    1    1    2    0    0  0.16834759759E+01  0.25749500631E+03  0.63628353511E+03  0.70324597576E+03  0.15294330000E+03 0.  1.
<mgrwt>
<rscale>  0 0.29949652E+03</rscale>
<asrwt>0</asrwt>
<pdfrwt beam="1">  1        2 0.14128415E-01 0.29949652E+03</pdfrwt>
<pdfrwt beam="2">  1       -2 0.16216196E+00 0.29949652E+03</pdfrwt>
<totfact> 0.10826375E+02</totfact>
</mgrwt>
</event>
<event>
 4    1  0.4639964E-008  0.5985334E+03  0.7818608E-02  0.9908453E-01
          2   -1    0    0  501    0  0.00000000000E+00  0.00000000000E+00  0.22446377792E+04  0.22446377792E+04  0.25500000000E-02 0. -1.
         -2   -1    0    0    0  501 -0.00000000000E+00 -0.00000000000E+00 -0.38078304911E+03  0.38078304911E+03  0.25500000000E-02 0.  1.
    8880022    1    1    2    0    0  0.57800612843E+03 -0.27559074416E+02 -0.68549153517E+02  0.60244603621E+03  0.15294330000E+03 0.  0.
    8880022    1    1    2    0    0 -0.57800612843E+03  0.27559074416E+02  0.19324038837E+04  0.20229747921E+04  0.15294330000E+03 0.  0.
<mgrwt>
<rscale>  0 0.59853341E+03</rscale>
<asrwt>0</asrwt>
<pdfrwt beam="1">  1        2 0.34532890E+00 0.59853341E+03</pdfrwt>
<pdfrwt beam="2">  1       -2 0.58582006E-01 0.59853341E+03</pdfrwt>
<totfact> 0.14180169E+01</totfact>
</mgrwt>
</event>
<event>
 4    1  0.4639964E-008  0.5781911E+03  0.7818608E-02  0.9951715E-01
          2   -1    0    0  501    0  0.00000000000E+00  0.00000000000E+00  0.12457994091E+04  0.12457994091E+04  0.25500000000E-02 0. -1.
         -2   -1    0    0    0  501 -0.00000000000E+00 -0.00000000000E+00 -0.41712030270E+03  0.41712030271E+03  0.25500000000E-02 0.  1.
    8880022    1    1    2    0    0 -0.24732295651E+03  0.49974462150E+03  0.91090321920E+03  0.10789113306E+04  0.15294330000E+03 0.  0.
    8880022    1    1    2    0    0  0.24732295651E+03 -0.49974462150E+03 -0.82224112832E+02  0.58400838117E+03  0.15294330000E+03 0.  0.
<mgrwt>
<rscale>  0 0.57819113E+03</rscale>
<asrwt>0</asrwt>
<pdfrwt beam="1">  1        2 0.19166144E+00 0.57819113E+03</pdfrwt>
<pdfrwt beam="2">  1       -2 0.64172355E-01 0.57819113E+03</pdfrwt>
<totfact> 0.41472133E+01</totfact>
</mgrwt>
</event>
<event>
 4    1  0.4639964E-008  0.3770929E+03  0.7818608E-02  0.1052013E+00
          2   -1    0    0  501    0  0.00000000000E+00  0.00000000000E+00  0.98473081893E+03  0.98473081893E+03  0.25500000000E-02 0. -1.
         -2   -1    0    0    0  501 -0.00000000000E+00 -0.00000000000E+00 -0.17511619403E+03  0.17511619405E+03  0.25500000000E-02 0.  1.
    8880022    1    1    2    0    0 -0.33791480792E+03 -0.67977878343E+02  0.16194337701E+03  0.41039580862E+03  0.15294330000E+03 0.  0.
    8880022    1    1    2    0    0  0.33791480792E+03  0.67977878343E+02  0.64767124789E+03  0.74945120436E+03  0.15294330000E+03 0.  0.
<mgrwt>
<rscale>  0 0.37709291E+03</rscale>
<asrwt>0</asrwt>
<pdfrwt beam="1">  1        2 0.15149705E+00 0.37709291E+03</pdfrwt>
<pdfrwt beam="2">  1       -2 0.26940953E-01 0.37709291E+03</pdfrwt>
<totfact> 0.33253828E+02</totfact>
</mgrwt>
</event>
<event>
 4    1  0.4639964E-008  0.5997813E+03  0.7818608E-02  0.9905860E-01
          2   -1    0    0  501    0  0.00000000000E+00  0.00000000000E+00  0.17643034100E+04  0.17643034100E+04  0.25500000000E-02 0. -1.
         -2   -1    0    0    0  501 -0.00000000000E+00 -0.00000000000E+00 -0.20982492157E+03  0.20982492159E+03  0.25500000000E-02 0.  1.
    8880022    1    1    2    0    0 -0.37140393757E+03  0.44542678970E+03  0.61134198735E+03  0.85643247740E+03  0.15294330000E+03 0.  0.
    8880022    1    1    2    0    0  0.37140393757E+03 -0.44542678970E+03  0.94313650112E+03  0.11176958542E+04  0.15294330000E+03 0.  0.
<mgrwt>
<rscale>  0 0.59978126E+03</rscale>
<asrwt>0</asrwt>
<pdfrwt beam="1">  1        2 0.27143128E+00 0.59978126E+03</pdfrwt>
<pdfrwt beam="2">  1       -2 0.32280758E-01 0.59978126E+03</pdfrwt>
<totfact> 0.83980260E+01</totfact>
</mgrwt>
</event>
<event>
 4    1  0.4639964E-008  0.4868663E+03  0.7818608E-02  0.1017265E+00
          2   -1    0    0  501    0  0.00000000000E+00  0.00000000000E+00  0.21618373331E+04  0.21618373331E+04  0.25500000000E-02 0. -1.
         -2   -1    0    0    0  501 -0.00000000000E+00 -0.00000000000E+00 -0.65739827892E+03  0.65739827893E+03  0.25500000000E-02 0.  1.
    8880022    1    1    2    0    0 -0.45982405655E+03  0.46999394460E+02 -0.53448502063E+03  0.72298893239E+03  0.15294330000E+03 0.  0.
    8880022    1    1    2    0    0  0.45982405655E+03 -0.46999394460E+02  0.20389240748E+04  0.20962466796E+04  0.15294330000E+03 0.  0.
<mgrwt>
<rscale>  0 0.48686626E+03</rscale>
<asrwt>0</asrwt>
<pdfrwt beam="1">  1        2 0.33259036E+00 0.48686626E+03</pdfrwt>
<pdfrwt beam="2">  1       -2 0.10113820E+00 0.48686626E+03</pdfrwt>
<totfact> 0.48011663E+00</totfact>
</mgrwt>
</event>
<event>
 4    1  0.4639964E-008  0.6572579E+03  0.7818608E-02  0.9793255E-01
          2   -1    0    0  501    0  0.00000000000E+00  0.00000000000E+00  0.11328004749E+04  0.11328004749E+04  0.25500000000E-02 0. -1.
         -2   -1    0    0    0  501 -0.00000000000E+00 -0.00000000000E+00 -0.11895401644E+04  0.11895401644E+04  0.25500000000E-02 0.  1.
    8880022    1    1    2    0    0  0.55930466257E+03  0.30947466756E+03 -0.98548559686E+03  0.11845546801E+04  0.15294330000E+03 0.  0.
    8880022    1    1    2    0    0 -0.55930466257E+03 -0.30947466756E+03  0.92874590739E+03  0.11377859592E+04  0.15294330000E+03 0.  0.
<mgrwt>
<rscale>  0 0.65725789E+03</rscale>
<asrwt>0</asrwt>
<pdfrwt beam="1">  1        2 0.17427700E+00 0.65725789E+03</pdfrwt>
<pdfrwt beam="2">  1       -2 0.18300618E+00 0.65725789E+03</pdfrwt>
<totfact> 0.37355179E+00</totfact>
</mgrwt>
</event>
<event>
 4    1  0.4639964E-008  0.3275282E+03  0.7818608E-02  0.1072236E+00
         -2   -1    0    0    0  501 -0.00000000000E+00  0.00000000000E+00  0.68143879968E+02  0.68143880016E+02  0.25500000000E-02 0.  1.
          2   -1    0    0  501    0  0.00000000000E+00 -0.00000000000E+00 -0.17261499999E+04  0.17261499999E+04  0.25500000000E-02 0. -1.
    8880022    1    1    2    0    0 -0.19294137320E+03  0.21600168067E+03 -0.56285767199E+03  0.65121694656E+03  0.15294330000E+03 0.  0.
    8880022    1    1    2    0    0  0.19294137320E+03 -0.21600168067E+03 -0.10951484479E+04  0.11430769334E+04  0.15294330000E+03 0. -1.
<mgrwt>
<rscale>  0 0.32752825E+03</rscale>
<asrwt>0</asrwt>
<pdfrwt beam="1">  1        2 0.26556150E+00 0.32752825E+03</pdfrwt>
<pdfrwt beam="2">  1       -2 0.10483675E-01 0.32752825E+03</pdfrwt>
<totfact> 0.63358040E+02</totfact>
</mgrwt>
</event>
<event>
 4    1  0.4639964E-008  0.5711550E+03  0.7818608E-02  0.9967126E-01
          2   -1    0    0  501    0  0.00000000000E+00  0.00000000000E+00  0.13239559742E+04  0.13239559742E+04  0.25500000000E-02 0. -1.
         -2   -1    0    0    0  501 -0.00000000000E+00 -0.00000000000E+00 -0.28274401965E+03  0.28274401966E+03  0.25500000000E-02 0.  1.
    8880022    1    1    2    0    0  0.27499583776E+02 -0.54960908959E+03  0.23257057912E+03  0.61669044565E+03  0.15294330000E+03 0.  0.
    8880022    1    1    2    0    0 -0.27499583776E+02  0.54960908959E+03  0.80864137541E+03  0.99000954819E+03  0.15294330000E+03 0. -1.
<mgrwt>
<rscale>  0 0.57115500E+03</rscale>
<asrwt>0</asrwt>
<pdfrwt beam="1">  1        2 0.20368553E+00 0.57115500E+03</pdfrwt>
<pdfrwt beam="2">  1       -2 0.43499080E-01 0.57115500E+03</pdfrwt>
<totfact> 0.83110921E+01</totfact>
</mgrwt>
</event>
<event>
 4    1  0.4639964E-008  0.5513289E+03  0.7818608E-02  0.1001187E+00
          2   -1    0    0  501    0  0.00000000000E+00  0.00000000000E+00  0.26557706649E+04  0.26557706649E+04  0.25500000000E-02 0. -1.
         -2   -1    0    0    0  501 -0.00000000000E+00 -0.00000000000E+00 -0.22088556273E+03  0.22088556275E+03  0.25500000000E-02 0.  1.
    8880022    1    1    2    0    0 -0.40617931015E+03  0.33998574575E+03  0.22158539036E+04  0.22834123838E+04  0.15294330000E+03 0.  0.
    8880022    1    1    2    0    0  0.40617931015E+03 -0.33998574575E+03  0.21903119855E+03  0.59324384384E+03  0.15294330000E+03 0.  0.
<mgrwt>
<rscale>  0 0.55132893E+03</rscale>
<asrwt>0</asrwt>
<pdfrwt beam="1">  1        2 0.40858010E+00 0.55132893E+03</pdfrwt>
<pdfrwt beam="2">  1       -2 0.33982395E-01 0.55132893E+03</pdfrwt>
<totfact> 0.24844471E+01</totfact>
</mgrwt>
</event>
<event>
 4    1  0.4639964E-008  0.3450560E+03  0.7818608E-02  0.1064663E+00
         -2   -1    0    0    0  501 -0.00000000000E+00  0.00000000000E+00  0.25049522569E+03  0.25049522570E+03  0.25500000000E-02 0.  1.
          2   -1    0    0  501    0  0.00000000000E+00 -0.00000000000E+00 -0.98853859480E+03  0.98853859480E+03  0.25500000000E-02 0. -1.
    8880022    1    1    2    0    0 -0.27540007399E+03 -0.14080756513E+03  0.77364274772E+02  0.35362247550E+03  0.15294330000E+03 0.  0.
    8880022    1    1    2    0    0  0.27540007399E+03  0.14080756513E+03 -0.81540764388E+03  0.88541134501E+03  0.15294330000E+03 0.  0.
<mgrwt>
<rscale>  0 0.34505597E+03</rscale>
<asrwt>0</asrwt>
<pdfrwt beam="1">  1        2 0.15208286E+00 0.34505597E+03</pdfrwt>
<pdfrwt beam="2">  1       -2 0.38537727E-01 0.34505597E+03</pdfrwt>
<totfact> 0.17077595E+02</totfact>
</mgrwt>
</event>
<event>
 4    1  0.4639964E-008  0.7682184E+03  0.7818608E-02  0.9607194E-01
         -2   -1    0    0    0  501 -0.00000000000E+00  0.00000000000E+00  0.70371456822E+03  0.70371456822E+03  0.25500000000E-02 0.  1.
          2   -1    0    0  501    0  0.00000000000E+00 -0.00000000000E+00 -0.95858931868E+03  0.95858931868E+03  0.25500000000E-02 0. -1.
    8880022    1    1    2    0    0 -0.16630519104E+03 -0.73424140469E+03  0.16657965050E+03  0.78607142800E+03  0.15294330000E+03 0.  0.
    8880022    1    1    2    0    0  0.16630519104E+03  0.73424140469E+03 -0.42145440097E+03  0.87623245891E+03  0.15294330000E+03 0.  0.
<mgrwt>
<rscale>  0 0.76821840E+03</rscale>
<asrwt>0</asrwt>
<pdfrwt beam="1">  1        2 0.14747528E+00 0.76821840E+03</pdfrwt>
<pdfrwt beam="2">  1       -2 0.10826378E+00 0.76821840E+03</pdfrwt>
<totfact> 0.18559186E+01</totfact>
</mgrwt>
</event>
<event>
 4    1  0.4639964E-008  0.8033170E+03  0.7818608E-02  0.9555228E-01
          2   -1    0    0  501    0  0.00000000000E+00  0.00000000000E+00  0.17583131012E+04  0.17583131012E+04  0.25500000000E-02 0. -1.
         -2   -1    0    0    0  501 -0.00000000000E+00 -0.00000000000E+00 -0.57851493673E+03  0.57851493673E+03  0.25500000000E-02 0.  1.
    8880022    1    1    2    0    0  0.55907110757E+03  0.55620682962E+03  0.12963791265E+04  0.15250957456E+04  0.15294330000E+03 0.  0.
    8880022    1    1    2    0    0 -0.55907110757E+03 -0.55620682962E+03 -0.11658096206E+03  0.81173229230E+03  0.15294330000E+03 0.  0.
<mgrwt>
<rscale>  0 0.80331699E+03</rscale>
<asrwt>0</asrwt>
<pdfrwt beam="1">  1        2 0.27050970E+00 0.80331699E+03</pdfrwt>
<pdfrwt beam="2">  1       -2 0.89002299E-01 0.80331699E+03</pdfrwt>
<totfact> 0.10088565E+01</totfact>
</mgrwt>
</event>
<event>
 4    1  0.4639964E-008  0.8260957E+03  0.7818608E-02  0.9522994E-01
          2   -1    0    0  501    0  0.00000000000E+00  0.00000000000E+00  0.10072774692E+04  0.10072774692E+04  0.25500000000E-02 0. -1.
         -2   -1    0    0    0  501 -0.00000000000E+00 -0.00000000000E+00 -0.24056033605E+04  0.24056033605E+04  0.25500000000E-02 0.  1.
    8880022    1    1    2    0    0 -0.29168756074E+03  0.75760200735E+03  0.74715416910E+03  0.11138552150E+04  0.15294330000E+03 0.  0.
    8880022    1    1    2    0    0  0.29168756074E+03 -0.75760200735E+03 -0.21454800603E+04  0.22990256147E+04  0.15294330000E+03 0.  0.
<mgrwt>
<rscale>  0 0.82609569E+03</rscale>
<asrwt>0</asrwt>
<pdfrwt beam="1">  1        2 0.15496577E+00 0.82609569E+03</pdfrwt>
<pdfrwt beam="2">  1       -2 0.37009282E+00 0.82609569E+03</pdfrwt>
<totfact> 0.30236023E-01</totfact>
</mgrwt>
</event>
<event>
 4    1  0.4639964E-008  0.7259475E+03  0.7818608E-02  0.9673859E-01
         -2   -1    0    0    0  501 -0.00000000000E+00  0.00000000000E+00  0.12133786450E+04  0.12133786450E+04  0.25500000000E-02 0.  1.
          2   -1    0    0  501    0  0.00000000000E+00 -0.00000000000E+00 -0.70053697822E+03  0.70053697823E+03  0.25500000000E-02 0. -1.
    8880022    1    1    2    0    0 -0.24012827593E+02  0.70924708958E+03 -0.33349725469E+03  0.79888680166E+03  0.15294330000E+03 0.  0.
    8880022    1    1    2    0    0  0.24012827593E+02 -0.70924708958E+03  0.84633892151E+03  0.11150288216E+04  0.15294330000E+03 0.  0.
<mgrwt>
<rscale>  0 0.72594745E+03</rscale>
<asrwt>0</asrwt>
<pdfrwt beam="1">  1        2 0.10777492E+00 0.72594745E+03</pdfrwt>
<pdfrwt beam="2">  1       -2 0.18667363E+00 0.72594745E+03</pdfrwt>
<totfact> 0.68283837E+00</totfact>
</mgrwt>
</event>
<event>
 4    1  0.4639964E-008  0.9615828E+03  0.7818608E-02  0.9351714E-01
          2   -1    0    0  501    0  0.00000000000E+00  0.00000000000E+00  0.14420196781E+04  0.14420196781E+04  0.25500000000E-02 0. -1.
         -2   -1    0    0    0  501 -0.00000000000E+00 -0.00000000000E+00 -0.10218014853E+04  0.10218014853E+04  0.25500000000E-02 0.  1.
    8880022    1    1    2    0    0  0.75838695953E+03 -0.57105081648E+03  0.96194638254E+03  0.13601405484E+04  0.15294330000E+03 0.  0.
    8880022    1    1    2    0    0 -0.75838695953E+03  0.57105081648E+03 -0.54172818972E+03  0.11036806150E+04  0.15294330000E+03 0.  0.
<mgrwt>
<rscale>  0 0.96158279E+03</rscale>
<asrwt>0</asrwt>
<pdfrwt beam="1">  1        2 0.22184918E+00 0.96158279E+03</pdfrwt>
<pdfrwt beam="2">  1       -2 0.15720023E+00 0.96158279E+03</pdfrwt>
<totfact> 0.36067817E+00</totfact>
</mgrwt>
</event>
<event>
 4    1  0.4639964E-008  0.2909646E+03  0.7818608E-02  0.1089847E+00
         -2   -1    0    0    0  501 -0.00000000000E+00  0.00000000000E+00  0.39175506697E+02  0.39175506780E+02  0.25500000000E-02 0.  1.
          2   -1    0    0  501    0  0.00000000000E+00 -0.00000000000E+00 -0.28706885440E+04  0.28706885440E+04  0.25500000000E-02 0. -1.
    8880022    1    1    2    0    0  0.58423019806E+02 -0.24053173798E+03 -0.21391369836E+04  0.21588347444E+04  0.15294330000E+03 0.  0.
    8880022    1    1    2    0    0 -0.58423019806E+02  0.24053173798E+03 -0.69237605373E+03  0.75102930636E+03  0.15294330000E+03 0.  0.
<mgrwt>
<rscale>  0 0.29096464E+03</rscale>
<asrwt>0</asrwt>
<pdfrwt beam="1">  1        2 0.44164423E+00 0.29096464E+03</pdfrwt>
<pdfrwt beam="2">  1       -2 0.60270033E-02 0.29096464E+03</pdfrwt>
<totfact> 0.36300572E+02</totfact>
</mgrwt>
</event>
<event>
 4    1  0.4639964E-008  0.5373954E+03  0.7818608E-02  0.1004454E+00
          2   -1    0    0  501    0  0.00000000000E+00  0.00000000000E+00  0.24454781142E+04  0.24454781142E+04  0.25500000000E-02 0. -1.
         -2   -1    0    0    0  501 -0.00000000000E+00 -0.00000000000E+00 -0.20713440675E+03  0.20713440676E+03  0.25500000000E-02 0.  1.
    8880022    1    1    2    0    0 -0.45009313277E+03  0.25063594204E+03  0.24958354156E+03  0.59252493689E+03  0.15294330000E+03 0.  0.
    8880022    1    1    2    0    0  0.45009313277E+03 -0.25063594204E+03  0.19887601659E+04  0.20600875841E+04  0.15294330000E+03 0.  0.
<mgrwt>
<rscale>  0 0.53739544E+03</rscale>
<asrwt>0</asrwt>
<pdfrwt beam="1">  1        2 0.37622742E+00 0.53739544E+03</pdfrwt>
<pdfrwt beam="2">  1       -2 0.31866830E-01 0.53739544E+03</pdfrwt>
<totfact> 0.36948906E+01</totfact>
</mgrwt>
</event>
<event>
 4    1  0.4639964E-008  0.7324963E+03  0.7818608E-02  0.9663218E-01
         -2   -1    0    0    0  501 -0.00000000000E+00  0.00000000000E+00  0.28239262291E+03  0.28239262292E+03  0.25500000000E-02 0.  1.
          2   -1    0    0  501    0  0.00000000000E+00 -0.00000000000E+00 -0.19270161448E+04  0.19270161448E+04  0.25500000000E-02 0. -1.
    8880022    1    1    2    0    0 -0.62101350566E+03 -0.35707338173E+03 -0.69155107769E+03  0.10073697038E+04  0.15294330000E+03 0.  0.
    8880022    1    1    2    0    0  0.62101350566E+03  0.35707338173E+03 -0.95307244417E+03  0.12020390638E+04  0.15294330000E+03 0.  0.
<mgrwt>
<rscale>  0 0.73249630E+03</rscale>
<asrwt>0</asrwt>
<pdfrwt beam="1">  1        2 0.29646401E+00 0.73249630E+03</pdfrwt>
<pdfrwt beam="2">  1       -2 0.43445020E-01 0.73249630E+03</pdfrwt>
<totfact> 0.38041689E+01</totfact>
</mgrwt>
</event>
<event>
 4    1  0.4639964E-008  0.3918760E+03  0.7818608E-02  0.1046630E+00
         -2   -1    0    0    0  501 -0.00000000000E+00  0.00000000000E+00  0.12159977412E+04  0.12159977412E+04  0.25500000000E-02 0.  1.
          2   -1    0    0  501    0  0.00000000000E+00 -0.00000000000E+00 -0.50182410067E+03  0.50182410068E+03  0.25500000000E-02 0. -1.
    8880022    1    1    2    0    0 -0.35281064792E+03 -0.75497150694E+02 -0.38592852638E+03  0.55000695772E+03  0.15294330000E+03 0.  0.
    8880022    1    1    2    0    0  0.35281064792E+03  0.75497150694E+02  0.11001021669E+04  0.11678148842E+04  0.15294330000E+03 0.  0.
<mgrwt>
<rscale>  0 0.39187603E+03</rscale>
<asrwt>0</asrwt>
<pdfrwt beam="1">  1        2 0.77203708E-01 0.39187603E+03</pdfrwt>
<pdfrwt beam="2">  1       -2 0.18707658E+00 0.39187603E+03</pdfrwt>
<totfact> 0.10651732E+01</totfact>
</mgrwt>
</event>
<event>
 4    1  0.4639964E-008  0.5131792E+03  0.7818608E-02  0.1010395E+00
         -2   -1    0    0    0  501 -0.00000000000E+00  0.00000000000E+00  0.68183296539E+03  0.68183296539E+03  0.25500000000E-02 0.  1.
          2   -1    0    0  501    0  0.00000000000E+00 -0.00000000000E+00 -0.57912011373E+03  0.57912011374E+03  0.25500000000E-02 0. -1.
    8880022    1    1    2    0    0  0.18064569571E+03  0.45533320077E+03 -0.31249623888E+03  0.60083836714E+03  0.15294330000E+03 0.  0.
    8880022    1    1    2    0    0 -0.18064569571E+03 -0.45533320077E+03  0.41520909054E+03  0.66011471199E+03  0.15294330000E+03 0.  1.
<mgrwt>
<rscale>  0 0.51317915E+03</rscale>
<asrwt>0</asrwt>
<pdfrwt beam="1">  1        2 0.89095402E-01 0.51317915E+03</pdfrwt>
<pdfrwt beam="2">  1       -2 0.10489738E+00 0.51317915E+03</pdfrwt>
<totfact> 0.39444490E+01</totfact>
</mgrwt>
</event>
<event>
 4    1  0.4639964E-008  0.3973547E+03  0.7818608E-02  0.1044700E+00
         -2   -1    0    0    0  501 -0.00000000000E+00  0.00000000000E+00  0.50621039426E+03  0.50621039426E+03  0.25500000000E-02 0.  1.
          2   -1    0    0  501    0  0.00000000000E+00 -0.00000000000E+00 -0.12062327810E+04  0.12062327810E+04  0.25500000000E-02 0. -1.
    8880022    1    1    2    0    0 -0.36622696149E+03 -0.19413581659E+02  0.38724496247E+03  0.55484176884E+03  0.15294330000E+03 0.  0.
    8880022    1    1    2    0    0  0.36622696149E+03  0.19413581659E+02 -0.10872673492E+04  0.11576014065E+04  0.15294330000E+03 0.  0.
<mgrwt>
<rscale>  0 0.39735466E+03</rscale>
<asrwt>0</asrwt>
<pdfrwt beam="1">  1        2 0.18557427E+00 0.39735466E+03</pdfrwt>
<pdfrwt beam="2">  1       -2 0.77878522E-01 0.39735466E+03</pdfrwt>
<totfact> 0.29547718E+01</totfact>
</mgrwt>
</event>
<event>
 4    1  0.4639964E-008  0.2383324E+03  0.7818608E-02  0.1120909E+00
         -2   -1    0    0    0  501 -0.00000000000E+00  0.00000000000E+00  0.20158595780E+03  0.20158595782E+03  0.25500000000E-02 0.  1.
          2   -1    0    0  501    0  0.00000000000E+00 -0.00000000000E+00 -0.10044941884E+04  0.10044941884E+04  0.25500000000E-02 0. -1.
    8880022    1    1    2    0    0  0.78817295477E+02 -0.16491968434E+03 -0.91296702417E+03  0.94356298602E+03  0.15294330000E+03 0.  0.
    8880022    1    1    2    0    0 -0.78817295477E+02  0.16491968434E+03  0.11005879357E+03  0.26251716021E+03  0.15294330000E+03 0.  0.
<mgrwt>
<rscale>  0 0.23833238E+03</rscale>
<asrwt>0</asrwt>
<pdfrwt beam="1">  1        2 0.15453756E+00 0.23833238E+03</pdfrwt>
<pdfrwt beam="2">  1       -2 0.31013225E-01 0.23833238E+03</pdfrwt>
<totfact> 0.25440584E+02</totfact>
</mgrwt>
</event>
<event>
 4    1  0.4639964E-008  0.4159198E+03  0.7818608E-02  0.1038403E+00
          2   -1    0    0  501    0  0.00000000000E+00  0.00000000000E+00  0.71011494998E+03  0.71011494999E+03  0.25500000000E-02 0. -1.
         -2   -1    0    0    0  501 -0.00000000000E+00 -0.00000000000E+00 -0.19408059654E+04  0.19408059654E+04  0.25500000000E-02 0.  1.
    8880022    1    1    2    0    0  0.31514996768E+03  0.22422778546E+03  0.62414168911E+03  0.75002806814E+03  0.15294330000E+03 0.  0.
    8880022    1    1    2    0    0 -0.31514996768E+03 -0.22422778546E+03 -0.18548327045E+04  0.19008928472E+04  0.15294330000E+03 0.  0.
<mgrwt>
<rscale>  0 0.41591977E+03</rscale>
<asrwt>0</asrwt>
<pdfrwt beam="1">  1        2 0.10924845E+00 0.41591977E+03</pdfrwt>
<pdfrwt beam="2">  1       -2 0.29858553E+00 0.41591977E+03</pdfrwt>
<totfact> 0.14704213E+00</totfact>
</mgrwt>
</event>
<event>
 4    1  0.4639964E-008  0.9367767E+03  0.7818608E-02  0.9380742E-01
         -2   -1    0    0    0  501 -0.00000000000E+00  0.00000000000E+00  0.22966227591E+04  0.22966227591E+04  0.25500000000E-02 0.  1.
          2   -1    0    0  501    0  0.00000000000E+00 -0.00000000000E+00 -0.44928719735E+03  0.44928719735E+03  0.25500000000E-02 0. -1.
    8880022    1    1    2    0    0 -0.84073778189E+02  0.92037517062E+03  0.14545792711E+04  0.17301304471E+04  0.15294330000E+03 0.  0.
    8880022    1    1    2    0    0  0.84073778189E+02 -0.92037517062E+03  0.39275629065E+03  0.10157795094E+04  0.15294330000E+03 0.  0.
<mgrwt>
<rscale>  0 0.93677666E+03</rscale>
<asrwt>0</asrwt>
<pdfrwt beam="1">  1        2 0.69121106E-01 0.93677666E+03</pdfrwt>
<pdfrwt beam="2">  1       -2 0.35332659E+00 0.93677666E+03</pdfrwt>
<totfact> 0.10579548E+00</totfact>
</mgrwt>
</event>
<event>
 4    1  0.4639964E-008  0.3648045E+03  0.7818608E-02  0.1056698E+00
         -2   -1    0    0    0  501 -0.00000000000E+00  0.00000000000E+00  0.77617700533E+03  0.77617700533E+03  0.25500000000E-02 0.  1.
          2   -1    0    0  501    0  0.00000000000E+00 -0.00000000000E+00 -0.55277890824E+03  0.55277890825E+03  0.25500000000E-02 0. -1.
    8880022    1    1    2    0    0 -0.32000510757E+03  0.85366441356E+02 -0.44018738690E+03  0.57170559450E+03  0.15294330000E+03 0.  0.
    8880022    1    1    2    0    0  0.32000510757E+03 -0.85366441356E+02  0.66358548398E+03  0.75725031908E+03  0.15294330000E+03 0.  0.
<mgrwt>
<rscale>  0 0.36480454E+03</rscale>
<asrwt>0</asrwt>
<pdfrwt beam="1">  1        2 0.85042909E-01 0.36480454E+03</pdfrwt>
<pdfrwt beam="2">  1       -2 0.11941185E+00 0.36480454E+03</pdfrwt>
<totfact> 0.31082035E+01</totfact>
</mgrwt>
</event>
<event>
 4    1  0.4639964E-008  0.7179402E+03  0.7818608E-02  0.9687035E-01
          2   -1    0    0  501    0  0.00000000000E+00  0.00000000000E+00  0.29283424586E+04  0.29283424586E+04  0.25500000000E-02 0. -1.
         -2   -1    0    0    0  501 -0.00000000000E+00 -0.00000000000E+00 -0.22508462970E+03  0.22508462972E+03  0.25500000000E-02 0.  1.
    8880022    1    1    2    0    0  0.41943765289E+02 -0.70020512213E+03  0.61546032931E+03  0.94563711987E+03  0.15294330000E+03 0.  0.
    8880022    1    1    2    0    0 -0.41943765289E+02  0.70020512213E+03  0.20877974996E+04  0.22077899685E+04  0.15294330000E+03 0.  0.
<mgrwt>
<rscale>  0 0.71794021E+03</rscale>
<asrwt>0</asrwt>
<pdfrwt beam="1">  1        2 0.45051418E+00 0.71794021E+03</pdfrwt>
<pdfrwt beam="2">  1       -2 0.34628408E-01 0.71794021E+03</pdfrwt>
<totfact> 0.16056391E+01</totfact>
</mgrwt>
</event>
<event>
 4    1  0.4639964E-008  0.3628445E+03  0.7818608E-02  0.1057463E+00
         -2   -1    0    0    0  501 -0.00000000000E+00  0.00000000000E+00  0.13761338637E+04  0.13761338637E+04  0.25500000000E-02 0.  1.
          2   -1    0    0  501    0  0.00000000000E+00 -0.00000000000E+00 -0.15281905957E+03  0.15281905959E+03  0.25500000000E-02 0. -1.
    8880022    1    1    2    0    0  0.31388632401E+02 -0.32753511514E+03  0.14416348061E+03  0.39043470651E+03  0.15294330000E+03 0.  0.
    8880022    1    1    2    0    0 -0.31388632401E+02  0.32753511514E+03  0.10791513235E+04  0.11385182168E+04  0.15294330000E+03 0.  0.
<mgrwt>
<rscale>  0 0.36284453E+03</rscale>
<asrwt>0</asrwt>
<pdfrwt beam="1">  1        2 0.23510626E-01 0.36284453E+03</pdfrwt>
<pdfrwt beam="2">  1       -2 0.21171289E+00 0.36284453E+03</pdfrwt>
<totfact> 0.27805156E+01</totfact>
</mgrwt>
</event>
<event>
 4    1  0.4639964E-008  0.4919494E+03  0.7818608E-02  0.1015902E+00
          2   -1    0    0  501    0  0.00000000000E+00  0.00000000000E+00  0.28989326491E+04  0.28989326491E+04  0.25500000000E-02 0. -1.
         -2   -1    0    0    0  501 -0.00000000000E+00 -0.00000000000E+00 -0.14585391761E+03  0.14585391763E+03  0.25500000000E-02 0.  1.
    8880022    1    1    2    0    0 -0.46191213648E+03 -0.72524189938E+02  0.38100625783E+03  0.62223789781E+03  0.15294330000E+03 0.  0.
    8880022    1    1    2    0    0  0.46191213648E+03  0.72524189938E+02  0.23720724737E+04  0.24225486690E+04  0.15294330000E+03 0.  1.
<mgrwt>
<rscale>  0 0.49194942E+03</rscale>
<asrwt>0</asrwt>
<pdfrwt beam="1">  1        2 0.44598969E+00 0.49194942E+03</pdfrwt>
<pdfrwt beam="2">  1       -2 0.22439062E-01 0.49194942E+03</pdfrwt>
<totfact> 0.38690880E+01</totfact>
</mgrwt>
</event>
<event>
 4    1  0.4639964E-008  0.3279127E+03  0.7818608E-02  0.1072064E+00
         -2   -1    0    0    0  501 -0.00000000000E+00  0.00000000000E+00  0.11331570020E+03  0.11331570023E+03  0.25500000000E-02 0.  1.
          2   -1    0    0  501    0  0.00000000000E+00 -0.00000000000E+00 -0.20091262883E+04  0.20091262883E+04  0.25500000000E-02 0. -1.
    8880022    1    1    2    0    0  0.71451877843E+02  0.28112223999E+03 -0.17188067088E+04  0.17498066293E+04  0.15294330000E+03 0.  0.
    8880022    1    1    2    0    0 -0.71451877843E+02 -0.28112223999E+03 -0.17700387930E+03  0.37263535925E+03  0.15294330000E+03 0.  1.
<mgrwt>
<rscale>  0 0.32791270E+03</rscale>
<asrwt>0</asrwt>
<pdfrwt beam="1">  1        2 0.30909633E+00 0.32791270E+03</pdfrwt>
<pdfrwt beam="2">  1       -2 0.17433186E-01 0.32791270E+03</pdfrwt>
<totfact> 0.19396669E+02</totfact>
</mgrwt>
</event>
<event>
 4    1  0.4639964E-008  0.6152855E+03  0.7818608E-02  0.9874191E-01
          2   -1    0    0  501    0  0.00000000000E+00  0.00000000000E+00  0.51906345866E+03  0.51906345867E+03  0.25500000000E-02 0. -1.
         -2   -1    0    0    0  501 -0.00000000000E+00 -0.00000000000E+00 -0.85255411178E+03  0.85255411179E+03  0.25500000000E-02 0.  1.
    8880022    1    1    2    0    0 -0.23195161848E+03  0.54898369599E+03  0.93968218193E+02  0.62241973846E+03  0.15294330000E+03 0.  0.
    8880022    1    1    2    0    0  0.23195161848E+03 -0.54898369599E+03 -0.42745887132E+03  0.74919783199E+03  0.15294330000E+03 0.  0.
<mgrwt>
<rscale>  0 0.61528555E+03</rscale>
<asrwt>0</asrwt>
<pdfrwt beam="1">  1        2 0.79855917E-01 0.61528555E+03</pdfrwt>
<pdfrwt beam="2">  1       -2 0.13116217E+00 0.61528555E+03</pdfrwt>
<totfact> 0.25656261E+01</totfact>
</mgrwt>
</event>
<event>
 4    1  0.4639964E-008  0.3497186E+03  0.7818608E-02  0.1062731E+00
          2   -1    0    0  501    0  0.00000000000E+00  0.00000000000E+00  0.18232757051E+04  0.18232757051E+04  0.25500000000E-02 0. -1.
         -2   -1    0    0    0  501 -0.00000000000E+00 -0.00000000000E+00 -0.23203540185E+03  0.23203540187E+03  0.25500000000E-02 0.  1.
    8880022    1    1    2    0    0  0.10653305353E+03  0.29590900168E+03  0.16620937727E+04  0.16984872066E+04  0.15294330000E+03 0.  0.
    8880022    1    1    2    0    0 -0.10653305353E+03 -0.29590900168E+03 -0.70853469390E+02  0.35682390042E+03  0.15294330000E+03 0.  1.
<mgrwt>
<rscale>  0 0.34971858E+03</rscale>
<asrwt>0</asrwt>
<pdfrwt beam="1">  1        2 0.28050394E+00 0.34971858E+03</pdfrwt>
<pdfrwt beam="2">  1       -2 0.35697756E-01 0.34971858E+03</pdfrwt>
<totfact> 0.67488360E+01</totfact>
</mgrwt>
</event>
<event>
 4    1  0.4639964E-008  0.2717310E+03  0.7818608E-02  0.1100293E+00
          2   -1    0    0  501    0  0.00000000000E+00  0.00000000000E+00  0.97699988350E+03  0.97699988350E+03  0.25500000000E-02 0. -1.
         -2   -1    0    0    0  501 -0.00000000000E+00 -0.00000000000E+00 -0.34905797366E+03  0.34905797367E+03  0.25500000000E-02 0.  1.
    8880022    1    1    2    0    0  0.43647429740E+02 -0.22032023987E+03 -0.27290732338E+03  0.38511837971E+03  0.15294330000E+03 0.  0.
    8880022    1    1    2    0    0 -0.43647429740E+02  0.22032023987E+03  0.90084923322E+03  0.94093947745E+03  0.15294330000E+03 0.  0.
<mgrwt>
<rscale>  0 0.27173104E+03</rscale>
<asrwt>0</asrwt>
<pdfrwt beam="1">  1        2 0.15030767E+00 0.27173104E+03</pdfrwt>
<pdfrwt beam="2">  1       -2 0.53701227E-01 0.27173104E+03</pdfrwt>
<totfact> 0.91377446E+01</totfact>
</mgrwt>
</event>
<event>
 4    1  0.4639964E-008  0.7840761E+03  0.7818608E-02  0.9583357E-01
         -2   -1    0    0    0  501 -0.00000000000E+00  0.00000000000E+00  0.56029685426E+03  0.56029685427E+03  0.25500000000E-02 0.  1.
          2   -1    0    0  501    0  0.00000000000E+00 -0.00000000000E+00 -0.22579618724E+04  0.22579618724E+04  0.25500000000E-02 0. -1.
    8880022    1    1    2    0    0  0.65281534339E+02 -0.76623882470E+03  0.16148590128E+03  0.80053292533E+03  0.15294330000E+03 0.  0.
    8880022    1    1    2    0    0 -0.65281534339E+02  0.76623882470E+03 -0.18591509194E+04  0.20177258013E+04  0.15294330000E+03 0.  0.
<mgrwt>
<rscale>  0 0.78407606E+03</rscale>
<asrwt>0</asrwt>
<pdfrwt beam="1">  1        2 0.34737875E+00 0.78407606E+03</pdfrwt>
<pdfrwt beam="2">  1       -2 0.86199517E-01 0.78407606E+03</pdfrwt>
<totfact> 0.57946559E+00</totfact>
</mgrwt>
</event>
<event>
 4    1  0.4639964E-008  0.1843488E+04  0.7818608E-02  0.8683509E-01
         -2   -1    0    0    0  501 -0.00000000000E+00  0.00000000000E+00  0.31884906977E+04  0.31884906977E+04  0.25500000000E-02 0.  1.
          2   -1    0    0  501    0  0.00000000000E+00 -0.00000000000E+00 -0.12254622179E+04  0.12254622179E+04  0.25500000000E-02 0. -1.
    8880022    1    1    2    0    0 -0.10330481505E+04  0.15191662408E+04  0.18501819520E+03  0.18527487509E+04  0.15294330000E+03 0.  0.
    8880022    1    1    2    0    0  0.10330481505E+04 -0.15191662408E+04  0.17780102846E+04  0.25612041647E+04  0.15294330000E+03 0.  0.
<mgrwt>
<rscale>  0 0.18434875E+04</rscale>
<asrwt>0</asrwt>
<pdfrwt beam="1">  1        2 0.18853265E+00 0.18434875E+04</pdfrwt>
<pdfrwt beam="2">  1       -2 0.49053703E+00 0.18434875E+04</pdfrwt>
<totfact> 0.31277410E-02</totfact>
</mgrwt>
</event>
<event>
 4    1  0.4639964E-008  0.3084926E+03  0.7818608E-02  0.1081071E+00
          2   -1    0    0  501    0  0.00000000000E+00  0.00000000000E+00  0.30873907216E+03  0.30873907217E+03  0.25500000000E-02 0. -1.
         -2   -1    0    0    0  501 -0.00000000000E+00 -0.00000000000E+00 -0.14788877728E+04  0.14788877728E+04  0.25500000000E-02 0.  1.
    8880022    1    1    2    0    0 -0.77604789726E+02  0.25642449064E+03 -0.13803015325E+04  0.14143549754E+04  0.15294330000E+03 0.  0.
    8880022    1    1    2    0    0  0.77604789726E+02 -0.25642449064E+03  0.21015283192E+03  0.37327186951E+03  0.15294330000E+03 0.  0.
<mgrwt>
<rscale>  0 0.30849259E+03</rscale>
<asrwt>0</asrwt>
<pdfrwt beam="1">  1        2 0.47498320E-01 0.30849259E+03</pdfrwt>
<pdfrwt beam="2">  1       -2 0.22752119E+00 0.30849259E+03</pdfrwt>
<totfact> 0.10326070E+01</totfact>
</mgrwt>
</event>
<event>
 4    1  0.4639964E-008  0.7413214E+03  0.7818608E-02  0.9649065E-01
         -2   -1    0    0    0  501 -0.00000000000E+00  0.00000000000E+00  0.52349022000E+03  0.52349022001E+03  0.25500000000E-02 0.  1.
          2   -1    0    0  501    0  0.00000000000E+00 -0.00000000000E+00 -0.22673996176E+04  0.22673996176E+04  0.25500000000E-02 0. -1.
    8880022    1    1    2    0    0 -0.30669048895E+03  0.65734826150E+03  0.15063590292E+03  0.75647116348E+03  0.15294330000E+03 0.  0.
    8880022    1    1    2    0    0  0.30669048895E+03 -0.65734826150E+03 -0.18945453005E+04  0.20344186741E+04  0.15294330000E+03 0.  0.
<mgrwt>
<rscale>  0 0.74132142E+03</rscale>
<asrwt>0</asrwt>
<pdfrwt beam="1">  1        2 0.34883070E+00 0.74132142E+03</pdfrwt>
<pdfrwt beam="2">  1       -2 0.80536958E-01 0.74132142E+03</pdfrwt>
<totfact> 0.67267005E+00</totfact>
</mgrwt>
</event>
<event>
 4    1  0.4639964E-008  0.3325421E+03  0.7818608E-02  0.1070018E+00
         -2   -1    0    0    0  501 -0.00000000000E+00  0.00000000000E+00  0.28249727818E+03  0.28249727819E+03  0.25500000000E-02 0.  1.
          2   -1    0    0  501    0  0.00000000000E+00 -0.00000000000E+00 -0.13998972703E+04  0.13998972703E+04  0.25500000000E-02 0. -1.
    8880022    1    1    2    0    0  0.20207539518E+03 -0.21530941064E+03  0.15526321870E+03  0.36700262635E+03  0.15294330000E+03 0.  0.
    8880022    1    1    2    0    0 -0.20207539518E+03  0.21530941064E+03 -0.12726632108E+04  0.13153919221E+04  0.15294330000E+03 0. -1.
<mgrwt>
<rscale>  0 0.33254212E+03</rscale>
<asrwt>0</asrwt>
<pdfrwt beam="1">  1        2 0.21536881E+00 0.33254212E+03</pdfrwt>
<pdfrwt beam="2">  1       -2 0.43461121E-01 0.33254212E+03</pdfrwt>
<totfact> 0.78348688E+01</totfact>
</mgrwt>
</event>
<event>
 4    1  0.4639964E-008  0.4136483E+03  0.7818608E-02  0.1039154E+00
          2   -1    0    0  501    0  0.00000000000E+00  0.00000000000E+00  0.96633542740E+03  0.96633542740E+03  0.25500000000E-02 0. -1.
         -2   -1    0    0    0  501 -0.00000000000E+00 -0.00000000000E+00 -0.11298929279E+04  0.11298929279E+04  0.25500000000E-02 0.  1.
    8880022    1    1    2    0    0 -0.96525058943E+02  0.37201632154E+03  0.88071301864E+03  0.97301608656E+03  0.15294330000E+03 0.  0.
    8880022    1    1    2    0    0  0.96525058943E+02 -0.37201632154E+03 -0.10442705192E+04  0.11232122688E+04  0.15294330000E+03 0.  0.
<mgrwt>
<rscale>  0 0.41364826E+03</rscale>
<asrwt>0</asrwt>
<pdfrwt beam="1">  1        2 0.14866699E+00 0.41364826E+03</pdfrwt>
<pdfrwt beam="2">  1       -2 0.17382968E+00 0.41364826E+03</pdfrwt>
<totfact> 0.57477692E+00</totfact>
</mgrwt>
</event>
<event>
 4    1  0.4639964E-008  0.4835583E+03  0.7818608E-02  0.1018162E+00
          2   -1    0    0  501    0  0.00000000000E+00  0.00000000000E+00  0.42914253164E+04  0.42914253164E+04  0.25500000000E-02 0. -1.
         -2   -1    0    0    0  501 -0.00000000000E+00 -0.00000000000E+00 -0.88421464700E+02  0.88421464737E+02  0.25500000000E-02 0.  1.
    8880022    1    1    2    0    0  0.45816703012E+03 -0.22802895578E+02  0.34581523191E+04  0.34917969750E+04  0.15294330000E+03 0.  0.
    8880022    1    1    2    0    0 -0.45816703012E+03  0.22802895578E+02  0.74485153260E+03  0.88804980613E+03  0.15294330000E+03 0.  0.
<mgrwt>
<rscale>  0 0.48355832E+03</rscale>
<asrwt>0</asrwt>
<pdfrwt beam="1">  1        2 0.66021904E+00 0.48355832E+03</pdfrwt>
<pdfrwt beam="2">  1       -2 0.13603307E-01 0.48355832E+03</pdfrwt>
<totfact> 0.95651117E+00</totfact>
</mgrwt>
</event>
<event>
 4    1  0.4639964E-008  0.5211679E+03  0.7818608E-02  0.1008397E+00
         -2   -1    0    0    0  501 -0.00000000000E+00  0.00000000000E+00  0.42940803248E+03  0.42940803249E+03  0.25500000000E-02 0.  1.
          2   -1    0    0  501    0  0.00000000000E+00 -0.00000000000E+00 -0.19090057148E+04  0.19090057148E+04  0.25500000000E-02 0. -1.
    8880022    1    1    2    0    0 -0.15005413600E+01  0.49821893058E+03  0.21627847852E+03  0.56426269387E+03  0.15294330000E+03 0.  0.
    8880022    1    1    2    0    0  0.15005413600E+01 -0.49821893058E+03 -0.16958761609E+04  0.17741510534E+04  0.15294330000E+03 0.  0.
<mgrwt>
<rscale>  0 0.52116793E+03</rscale>
<asrwt>0</asrwt>
<pdfrwt beam="1">  1        2 0.29369318E+00 0.52116793E+03</pdfrwt>
<pdfrwt beam="2">  1       -2 0.66062775E-01 0.52116793E+03</pdfrwt>
<totfact> 0.16978365E+01</totfact>
</mgrwt>
</event>
<event>
 4    1  0.4639964E-008  0.6808673E+03  0.7818608E-02  0.9750523E-01
         -2   -1    0    0    0  501 -0.00000000000E+00  0.00000000000E+00  0.20254014987E+04  0.20254014987E+04  0.25500000000E-02 0.  1.
          2   -1    0    0  501    0  0.00000000000E+00 -0.00000000000E+00 -0.75346804702E+03  0.75346804703E+03  0.25500000000E-02 0. -1.
    8880022    1    1    2    0    0 -0.35462929433E+03  0.56073760549E+03 -0.52338080151E+03  0.85878269370E+03  0.15294330000E+03 0.  0.
    8880022    1    1    2    0    0  0.35462929433E+03 -0.56073760549E+03  0.17953142532E+04  0.19200868520E+04  0.15294330000E+03 0.  0.
<mgrwt>
<rscale>  0 0.68086728E+03</rscale>
<asrwt>0</asrwt>
<pdfrwt beam="1">  1        2 0.11591816E+00 0.68086728E+03</pdfrwt>
<pdfrwt beam="2">  1       -2 0.31160022E+00 0.68086728E+03</pdfrwt>
<totfact> 0.10665124E+00</totfact>
</mgrwt>
</event>
<event>
 4    1  0.4639964E-008  0.8349972E+03  0.7818608E-02  0.9510697E-01
         -2   -1    0    0    0  501 -0.00000000000E+00  0.00000000000E+00  0.83516556746E+03  0.83516556746E+03  0.25500000000E-02 0.  1.
          2   -1    0    0  501    0  0.00000000000E+00 -0.00000000000E+00 -0.14852456326E+04  0.14852456326E+04  0.25500000000E-02 0. -1.
    8880022    1    1    2    0    0 -0.79008446586E+03 -0.22269986579E+03 -0.10928109729E+04  0.13753022100E+04  0.15294330000E+03 0.  0.
    8880022    1    1    2    0    0  0.79008446586E+03  0.22269986579E+03  0.44273090773E+03  0.94510899006E+03  0.15294330000E+03 0.  0.
<mgrwt>
<rscale>  0 0.83499721E+03</rscale>
<asrwt>0</asrwt>
<pdfrwt beam="1">  1        2 0.22849933E+00 0.83499721E+03</pdfrwt>
<pdfrwt beam="2">  1       -2 0.12848701E+00 0.83499721E+03</pdfrwt>
<totfact> 0.58649503E+00</totfact>
</mgrwt>
</event>
<event>
 4    1  0.4639964E-008  0.3486943E+03  0.7818608E-02  0.1063152E+00
         -2   -1    0    0    0  501 -0.00000000000E+00  0.00000000000E+00  0.93032543119E+02  0.93032543154E+02  0.25500000000E-02 0.  1.
          2   -1    0    0  501    0  0.00000000000E+00 -0.00000000000E+00 -0.25151881705E+04  0.25151881705E+04  0.25500000000E-02 0. -1.
    8880022    1    1    2    0    0  0.31033778331E+03  0.43433725564E+02 -0.21149514077E+04  0.21435034729E+04  0.15294330000E+03 0.  0.
    8880022    1    1    2    0    0 -0.31033778331E+03 -0.43433725564E+02 -0.30720421965E+03  0.46471724075E+03  0.15294330000E+03 0.  1.
<mgrwt>
<rscale>  0 0.34869425E+03</rscale>
<asrwt>0</asrwt>
<pdfrwt beam="1">  1        2 0.38695197E+00 0.34869425E+03</pdfrwt>
<pdfrwt beam="2">  1       -2 0.14312701E-01 0.34869425E+03</pdfrwt>
<totfact> 0.14319283E+02</totfact>
</mgrwt>
</event>
<event>
 4    1  0.4639964E-008  0.6953068E+03  0.7818608E-02  0.9725292E-01
          2   -1    0    0  501    0  0.00000000000E+00  0.00000000000E+00  0.67375191140E+03  0.67375191140E+03  0.25500000000E-02 0. -1.
         -2   -1    0    0    0  501 -0.00000000000E+00 -0.00000000000E+00 -0.83336354684E+03  0.83336354685E+03  0.25500000000E-02 0.  1.
    8880022    1    1    2    0    0  0.67390593194E+03 -0.76880914709E+02 -0.36072189611E+03  0.78330825318E+03  0.15294330000E+03 0.  0.
    8880022    1    1    2    0    0 -0.67390593194E+03  0.76880914709E+02  0.20111026066E+03  0.72380720507E+03  0.15294330000E+03 0.  0.
<mgrwt>
<rscale>  0 0.69530679E+03</rscale>
<asrwt>0</asrwt>
<pdfrwt beam="1">  1        2 0.10365414E+00 0.69530679E+03</pdfrwt>
<pdfrwt beam="2">  1       -2 0.12820978E+00 0.69530679E+03</pdfrwt>
<totfact> 0.19711531E+01</totfact>
</mgrwt>
</event>
<event>
 4    1  0.4639964E-008  0.1108046E+04  0.7818608E-02  0.9197385E-01
          2   -1    0    0  501    0  0.00000000000E+00  0.00000000000E+00  0.24511272772E+04  0.24511272772E+04  0.25500000000E-02 0. -1.
         -2   -1    0    0    0  501 -0.00000000000E+00 -0.00000000000E+00 -0.99687596712E+03  0.99687596712E+03  0.25500000000E-02 0.  1.
    8880022    1    1    2    0    0 -0.25595825128E+02 -0.10971412858E+04 -0.48891504794E+03  0.12111167262E+04  0.15294330000E+03 0.  0.
    8880022    1    1    2    0    0  0.25595825128E+02  0.10971412858E+04  0.19431663580E+04  0.22368865181E+04  0.15294330000E+03 0.  0.
<mgrwt>
<rscale>  0 0.11080459E+04</rscale>
<asrwt>0</asrwt>
<pdfrwt beam="1">  1        2 0.37709650E+00 0.11080459E+04</pdfrwt>
<pdfrwt beam="2">  1       -2 0.15336553E+00 0.11080459E+04</pdfrwt>
<totfact> 0.10377508E+00</totfact>
</mgrwt>
</event>
<event>
 4    1  0.4639964E-008  0.3103313E+03  0.7818608E-02  0.1080187E+00
         -2   -1    0    0    0  501 -0.00000000000E+00  0.00000000000E+00  0.46508474925E+03  0.46508474926E+03  0.25500000000E-02 0.  1.
          2   -1    0    0  501    0  0.00000000000E+00 -0.00000000000E+00 -0.50462165605E+03  0.50462165605E+03  0.25500000000E-02 0. -1.
    8880022    1    1    2    0    0 -0.11478458544E+03  0.24441426574E+03  0.35254429132E+03  0.46967325313E+03  0.15294330000E+03 0.  1.
    8880022    1    1    2    0    0  0.11478458544E+03 -0.24441426574E+03 -0.39208119811E+03  0.50003315218E+03  0.15294330000E+03 0.  0.
<mgrwt>
<rscale>  0 0.31033125E+03</rscale>
<asrwt>0</asrwt>
<pdfrwt beam="1">  1        2 0.77634101E-01 0.31033125E+03</pdfrwt>
<pdfrwt beam="2">  1       -2 0.71551500E-01 0.31033125E+03</pdfrwt>
<totfact> 0.11275836E+02</totfact>
</mgrwt>
</event>
<event>
 4    1  0.4639964E-008  0.9929358E+03  0.7818608E-02  0.9316327E-01
         -2   -1    0    0    0  501 -0.00000000000E+00  0.00000000000E+00  0.73031079890E+03  0.73031079890E+03  0.25500000000E-02 0.  1.
          2   -1    0    0  501    0  0.00000000000E+00 -0.00000000000E+00 -0.15749900486E+04  0.15749900486E+04  0.25500000000E-02 0. -1.
    8880022    1    1    2    0    0 -0.97667247600E+03 -0.92955002874E+02  0.13310597773E+02  0.99302496593E+03  0.15294330000E+03 0.  0.
    8880022    1    1    2    0    0  0.97667247600E+03  0.92955002874E+02 -0.85798984744E+03  0.13122758815E+04  0.15294330000E+03 0.  0.
<mgrwt>
<rscale>  0 0.99293575E+03</rscale>
<asrwt>0</asrwt>
<pdfrwt beam="1">  1        2 0.24230616E+00 0.99293575E+03</pdfrwt>
<pdfrwt beam="2">  1       -2 0.11235551E+00 0.99293575E+03</pdfrwt>
<totfact> 0.71580470E+00</totfact>
</mgrwt>
</event>
<event>
 4    1  0.4639964E-008  0.4069917E+03  0.7818608E-02  0.1041385E+00
          2   -1    0    0  501    0  0.00000000000E+00  0.00000000000E+00  0.17477606715E+04  0.17477606715E+04  0.25500000000E-02 0. -1.
         -2   -1    0    0    0  501 -0.00000000000E+00 -0.00000000000E+00 -0.99879543063E+02  0.99879543095E+02  0.25500000000E-02 0.  1.
    8880022    1    1    2    0    0 -0.24235892419E+03 -0.28898570364E+03  0.61507305674E+03  0.73753447593E+03  0.15294330000E+03 0.  0.
    8880022    1    1    2    0    0  0.24235892419E+03  0.28898570364E+03  0.10328080717E+04  0.11101057387E+04  0.15294330000E+03 0.  0.
<mgrwt>
<rscale>  0 0.40699169E+03</rscale>
<asrwt>0</asrwt>
<pdfrwt beam="1">  1        2 0.26888625E+00 0.40699169E+03</pdfrwt>
<pdfrwt beam="2">  1       -2 0.15366084E-01 0.40699169E+03</pdfrwt>
<totfact> 0.32617731E+02</totfact>
</mgrwt>
</event>
<event>
 4    1  0.4639964E-008  0.2492192E+03  0.7818608E-02  0.1113799E+00
          2   -1    0    0  501    0  0.00000000000E+00  0.00000000000E+00  0.18150659785E+04  0.18150659785E+04  0.25500000000E-02 0. -1.
         -2   -1    0    0    0  501 -0.00000000000E+00 -0.00000000000E+00 -0.82813585513E+02  0.82813585552E+02  0.25500000000E-02 0.  1.
    8880022    1    1    2    0    0  0.23362949281E+02  0.19537841181E+03  0.15930362319E+04  0.16124126768E+04  0.15294330000E+03 0.  0.
    8880022    1    1    2    0    0 -0.23362949281E+02 -0.19537841181E+03  0.13921616114E+03  0.28546688729E+03  0.15294330000E+03 0. -1.
<mgrwt>
<rscale>  0 0.24921919E+03</rscale>
<asrwt>0</asrwt>
<pdfrwt beam="1">  1        2 0.27924092E+00 0.24921919E+03</pdfrwt>
<pdfrwt beam="2">  1       -2 0.12740552E-01 0.24921919E+03</pdfrwt>
<totfact> 0.41970555E+02</totfact>
</mgrwt>
</event>
<event>
 4    1  0.4639964E-008  0.8088279E+03  0.7818608E-02  0.9547326E-01
         -2   -1    0    0    0  501 -0.00000000000E+00  0.00000000000E+00  0.94764703132E+03  0.94764703133E+03  0.25500000000E-02 0.  1.
          2   -1    0    0  501    0  0.00000000000E+00 -0.00000000000E+00 -0.78838513022E+03  0.78838513022E+03  0.25500000000E-02 0. -1.
    8880022    1    1    2    0    0  0.17114502453E+03 -0.77557743360E+03 -0.22646830909E+03  0.83993483257E+03  0.15294330000E+03 0.  0.
    8880022    1    1    2    0    0 -0.17114502453E+03  0.77557743360E+03  0.38573021019E+03  0.89609732898E+03  0.15294330000E+03 0.  0.
<mgrwt>
<rscale>  0 0.80882793E+03</rscale>
<asrwt>0</asrwt>
<pdfrwt beam="1">  1        2 0.12129002E+00 0.80882793E+03</pdfrwt>
<pdfrwt beam="2">  1       -2 0.14579185E+00 0.80882793E+03</pdfrwt>
<totfact> 0.11453067E+01</totfact>
</mgrwt>
</event>
<event>
 4    1  0.4639964E-008  0.8869396E+03  0.7818608E-02  0.9442056E-01
          2   -1    0    0  501    0  0.00000000000E+00  0.00000000000E+00  0.26738233083E+04  0.26738233083E+04  0.25500000000E-02 0. -1.
         -2   -1    0    0    0  501 -0.00000000000E+00 -0.00000000000E+00 -0.62399111359E+03  0.62399111359E+03  0.25500000000E-02 0.  1.
    8880022    1    1    2    0    0 -0.72990885741E+03  0.48010760274E+03  0.22236445240E+04  0.23940043593E+04  0.15294330000E+03 0.  0.
    8880022    1    1    2    0    0  0.72990885741E+03 -0.48010760274E+03 -0.17381232930E+03  0.90381006255E+03  0.15294330000E+03 0.  0.
<mgrwt>
<rscale>  0 0.88693963E+03</rscale>
<asrwt>0</asrwt>
<pdfrwt beam="1">  1        2 0.41135743E+00 0.88693963E+03</pdfrwt>
<pdfrwt beam="2">  1       -2 0.95998633E-01 0.88693963E+03</pdfrwt>
<totfact> 0.25789387E+00</totfact>
</mgrwt>
</event>
<event>
 4    1  0.4639964E-008  0.7602942E+03  0.7818608E-02  0.9619337E-01
         -2   -1    0    0    0  501 -0.00000000000E+00  0.00000000000E+00  0.20007844137E+04  0.20007844137E+04  0.25500000000E-02 0.  1.
          2   -1    0    0  501    0  0.00000000000E+00 -0.00000000000E+00 -0.59829792004E+03  0.59829792004E+03  0.25500000000E-02 0. -1.
    8880022    1    1    2    0    0  0.48934713921E+03 -0.56142223441E+03 -0.23326420637E+03  0.79527315491E+03  0.15294330000E+03 0.  0.
    8880022    1    1    2    0    0 -0.48934713921E+03  0.56142223441E+03  0.16357507000E+04  0.18038091788E+04  0.15294330000E+03 0.  0.
<mgrwt>
<rscale>  0 0.76029415E+03</rscale>
<asrwt>0</asrwt>
<pdfrwt beam="1">  1        2 0.92045833E-01 0.76029415E+03</pdfrwt>
<pdfrwt beam="2">  1       -2 0.30781299E+00 0.76029415E+03</pdfrwt>
<totfact> 0.14767254E+00</totfact>
</mgrwt>
</event>
<event>
 4    1  0.4639964E-008  0.2950352E+03  0.7818608E-02  0.1087749E+00
         -2   -1    0    0    0  501 -0.00000000000E+00  0.00000000000E+00  0.10367294610E+03  0.10367294613E+03  0.25500000000E-02 0.  1.
          2   -1    0    0  501    0  0.00000000000E+00 -0.00000000000E+00 -0.15558240631E+04  0.15558240631E+04  0.25500000000E-02 0. -1.
    8880022    1    1    2    0    0  0.18677906624E+03 -0.16961046273E+03 -0.16310600080E+03  0.33711919133E+03  0.15294330000E+03 0.  1.
    8880022    1    1    2    0    0 -0.18677906624E+03  0.16961046273E+03 -0.12890451162E+04  0.13223778179E+04  0.15294330000E+03 0. -1.
<mgrwt>
<rscale>  0 0.29503522E+03</rscale>
<asrwt>0</asrwt>
<pdfrwt beam="1">  1        2 0.23935753E+00 0.29503522E+03</pdfrwt>
<pdfrwt beam="2">  1       -2 0.15949685E-01 0.29503522E+03</pdfrwt>
<totfact> 0.39405906E+02</totfact>
</mgrwt>
</event>
<event>
 4    1  0.4639964E-008  0.3312636E+03  0.7818608E-02  0.1070579E+00
         -2   -1    0    0    0  501 -0.00000000000E+00  0.00000000000E+00  0.39909033488E+03  0.39909033489E+03  0.25500000000E-02 0.  1.
          2   -1    0    0  501    0  0.00000000000E+00 -0.00000000000E+00 -0.51036481553E+03  0.51036481554E+03  0.25500000000E-02 0. -1.
    8880022    1    1    2    0    0  0.21165625770E+03 -0.20382719080E+03 -0.36446386865E+03  0.49251341068E+03  0.15294330000E+03 0. -1.
    8880022    1    1    2    0    0 -0.21165625770E+03  0.20382719080E+03  0.25318938800E+03  0.41694173975E+03  0.15294330000E+03 0.  0.
<mgrwt>
<rscale>  0 0.33126356E+03</rscale>
<asrwt>0</asrwt>
<pdfrwt beam="1">  1        2 0.78517664E-01 0.33126356E+03</pdfrwt>
<pdfrwt beam="2">  1       -2 0.61398513E-01 0.33126356E+03</pdfrwt>
<totfact> 0.15388009E+02</totfact>
</mgrwt>
</event>
<event>
 4    1  0.4639964E-008  0.5519057E+03  0.7818608E-02  0.1001054E+00
          2   -1    0    0  501    0  0.00000000000E+00  0.00000000000E+00  0.27219091163E+04  0.27219091164E+04  0.25500000000E-02 0. -1.
         -2   -1    0    0    0  501 -0.00000000000E+00 -0.00000000000E+00 -0.12710396356E+03  0.12710396359E+03  0.25500000000E-02 0.  1.
    8880022    1    1    2    0    0 -0.28691933453E+03  0.44596585527E+03  0.17899719625E+04  0.18731256039E+04  0.15294330000E+03 0.  0.
    8880022    1    1    2    0    0  0.28691933453E+03 -0.44596585527E+03  0.80483319030E+03  0.97588747601E+03  0.15294330000E+03 0.  0.
<mgrwt>
<rscale>  0 0.55190570E+03</rscale>
<asrwt>0</asrwt>
<pdfrwt beam="1">  1        2 0.41875522E+00 0.55190570E+03</pdfrwt>
<pdfrwt beam="2">  1       -2 0.19554457E-01 0.55190570E+03</pdfrwt>
<totfact> 0.61731561E+01</totfact>
</mgrwt>
</event>
<event>
 4    1  0.4639964E-008  0.5004975E+03  0.7818608E-02  0.1013649E+00
          2   -1    0    0  501    0  0.00000000000E+00  0.00000000000E+00  0.28476664698E+03  0.28476664699E+03  0.25500000000E-02 0. -1.
         -2   -1    0    0    0  501 -0.00000000000E+00 -0.00000000000E+00 -0.11002090631E+04  0.11002090631E+04  0.25500000000E-02 0.  1.
    8880022    1    1    2    0    0 -0.37706109129E+03 -0.29142928174E+03 -0.71776814634E+03  0.87503648937E+03  0.15294330000E+03 0.  0.
    8880022    1    1    2    0    0  0.37706109129E+03  0.29142928174E+03 -0.97674269745E+02  0.50993922069E+03  0.15294330000E+03 0.  0.
<mgrwt>
<rscale>  0 0.50049750E+03</rscale>
<asrwt>0</asrwt>
<pdfrwt beam="1">  1        2 0.43810254E-01 0.50049750E+03</pdfrwt>
<pdfrwt beam="2">  1       -2 0.16926293E+00 0.50049750E+03</pdfrwt>
<totfact> 0.26014538E+01</totfact>
</mgrwt>
</event>
<event>
 4    1  0.4639964E-008  0.8852380E+03  0.7818608E-02  0.9444225E-01
          2   -1    0    0  501    0  0.00000000000E+00  0.00000000000E+00  0.37932423606E+04  0.37932423606E+04  0.25500000000E-02 0. -1.
         -2   -1    0    0    0  501 -0.00000000000E+00 -0.00000000000E+00 -0.28319702729E+03  0.28319702730E+03  0.25500000000E-02 0.  1.
    8880022    1    1    2    0    0 -0.12638221731E+03 -0.86271788204E+03  0.69493761047E+03  0.11254263833E+04  0.15294330000E+03 0.  0.
    8880022    1    1    2    0    0  0.12638221731E+03  0.86271788204E+03  0.28151077228E+04  0.29510130045E+04  0.15294330000E+03 0.  0.
<mgrwt>
<rscale>  0 0.88523797E+03</rscale>
<asrwt>0</asrwt>
<pdfrwt beam="1">  1        2 0.58357574E+00 0.88523797E+03</pdfrwt>
<pdfrwt beam="2">  1       -2 0.43568774E-01 0.88523797E+03</pdfrwt>
<totfact> 0.26525459E+00</totfact>
</mgrwt>
</event>
<event>
 4    1  0.4639964E-008  0.7853093E+03  0.7818608E-02  0.9581528E-01
         -2   -1    0    0    0  501 -0.00000000000E+00  0.00000000000E+00  0.13126808157E+04  0.13126808157E+04  0.25500000000E-02 0.  1.
          2   -1    0    0  501    0  0.00000000000E+00 -0.00000000000E+00 -0.85442543246E+03  0.85442543246E+03  0.25500000000E-02 0. -1.
    8880022    1    1    2    0    0  0.50395548296E+03 -0.58253577519E+03 -0.49785893064E+03  0.92982483620E+03  0.15294330000E+03 0.  0.
    8880022    1    1    2    0    0 -0.50395548296E+03  0.58253577519E+03  0.95611431393E+03  0.12372814120E+04  0.15294330000E+03 0.  0.
<mgrwt>
<rscale>  0 0.78530931E+03</rscale>
<asrwt>0</asrwt>
<pdfrwt beam="1">  1        2 0.13145007E+00 0.78530931E+03</pdfrwt>
<pdfrwt beam="2">  1       -2 0.20195089E+00 0.78530931E+03</pdfrwt>
<totfact> 0.41425297E+00</totfact>
</mgrwt>
</event>
<event>
 4    1  0.4639964E-008  0.4544860E+03  0.7818608E-02  0.1026393E+00
          2   -1    0    0  501    0  0.00000000000E+00  0.00000000000E+00  0.24277026458E+04  0.24277026458E+04  0.25500000000E-02 0. -1.
         -2   -1    0    0    0  501 -0.00000000000E+00 -0.00000000000E+00 -0.24116759337E+03  0.24116759339E+03  0.25500000000E-02 0.  1.
    8880022    1    1    2    0    0 -0.14862576511E+03 -0.40134310604E+03  0.19729971345E+02  0.45491409255E+03  0.15294330000E+03 0.  0.
    8880022    1    1    2    0    0  0.14862576511E+03  0.40134310604E+03  0.21668050811E+04  0.22139561466E+04  0.15294330000E+03 0.  0.
<mgrwt>
<rscale>  0 0.45448604E+03</rscale>
<asrwt>0</asrwt>
<pdfrwt beam="1">  1        2 0.37349272E+00 0.45448604E+03</pdfrwt>
<pdfrwt beam="2">  1       -2 0.37102706E-01 0.45448604E+03</pdfrwt>
<totfact> 0.28889760E+01</totfact>
</mgrwt>
</event>
<event>
 4    1  0.4639964E-008  0.8016222E+03  0.7818608E-02  0.9557672E-01
         -2   -1    0    0    0  501 -0.00000000000E+00  0.00000000000E+00  0.72349348753E+03  0.72349348753E+03  0.25500000000E-02 0.  1.
          2   -1    0    0  501    0  0.00000000000E+00 -0.00000000000E+00 -0.17171025568E+04  0.17171025568E+04  0.25500000000E-02 0. -1.
    8880022    1    1    2    0    0  0.67943363880E+03 -0.39695890798E+03 -0.13446617542E+04  0.15654754327E+04  0.15294330000E+03 0.  0.
    8880022    1    1    2    0    0 -0.67943363880E+03  0.39695890798E+03  0.35105268498E+03  0.87512061158E+03  0.15294330000E+03 0.  0.
<mgrwt>
<rscale>  0 0.80162217E+03</rscale>
<asrwt>0</asrwt>
<pdfrwt beam="1">  1        2 0.26416962E+00 0.80162217E+03</pdfrwt>
<pdfrwt beam="2">  1       -2 0.11130669E+00 0.80162217E+03</pdfrwt>
<totfact> 0.62583273E+00</totfact>
</mgrwt>
</event>
<event>
 4    1  0.4639964E-008  0.5807891E+03  0.7818608E-02  0.9946084E-01
          2   -1    0    0  501    0  0.00000000000E+00  0.00000000000E+00  0.64532320698E+03  0.64532320698E+03  0.25500000000E-02 0. -1.
         -2   -1    0    0    0  501 -0.00000000000E+00 -0.00000000000E+00 -0.69980035839E+03  0.69980035839E+03  0.25500000000E-02 0.  1.
    8880022    1    1    2    0    0  0.55961701721E+03  0.27442944750E+02 -0.36557153745E+03  0.68626417885E+03  0.15294330000E+03 0.  0.
    8880022    1    1    2    0    0 -0.55961701721E+03 -0.27442944750E+02  0.31109438604E+03  0.65885938652E+03  0.15294330000E+03 0.  0.
<mgrwt>
<rscale>  0 0.58078910E+03</rscale>
<asrwt>0</asrwt>
<pdfrwt beam="1">  1        2 0.99280493E-01 0.58078910E+03</pdfrwt>
<pdfrwt beam="2">  1       -2 0.10766159E+00 0.58078910E+03</pdfrwt>
<totfact> 0.32307559E+01</totfact>
</mgrwt>
</event>
<event>
 4    1  0.4639964E-008  0.4897544E+03  0.7818608E-02  0.1016488E+00
          2   -1    0    0  501    0  0.00000000000E+00  0.00000000000E+00  0.81015612142E+03  0.81015612142E+03  0.25500000000E-02 0. -1.
         -2   -1    0    0    0  501 -0.00000000000E+00 -0.00000000000E+00 -0.58314584561E+03  0.58314584562E+03  0.25500000000E-02 0.  1.
    8880022    1    1    2    0    0 -0.27284294917E+03  0.37686124546E+03  0.60230192877E+03  0.77629049953E+03  0.15294330000E+03 0.  0.
    8880022    1    1    2    0    0  0.27284294917E+03 -0.37686124546E+03 -0.37529165296E+03  0.61701146751E+03  0.15294330000E+03 0. -1.
<mgrwt>
<rscale>  0 0.48975435E+03</rscale>
<asrwt>0</asrwt>
<pdfrwt beam="1">  1        2 0.12463940E+00 0.48975435E+03</pdfrwt>
<pdfrwt beam="2">  1       -2 0.89714745E-01 0.48975435E+03</pdfrwt>
<totfact> 0.37577145E+01</totfact>
</mgrwt>
</event>
<event>
 4    1  0.4639964E-008  0.5665175E+03  0.7818608E-02  0.9977415E-01
          2   -1    0    0  501    0  0.00000000000E+00  0.00000000000E+00  0.14285524880E+04  0.14285524880E+04  0.25500000000E-02 0. -1.
         -2   -1    0    0    0  501 -0.00000000000E+00 -0.00000000000E+00 -0.42944086971E+03  0.42944086972E+03  0.25500000000E-02 0.  1.
    8880022    1    1    2    0    0 -0.24353708346E+03  0.48809843178E+03 -0.14195593555E+03  0.58403213163E+03  0.15294330000E+03 0.  0.
    8880022    1    1    2    0    0  0.24353708346E+03 -0.48809843178E+03  0.11410675538E+04  0.12739612261E+04  0.15294330000E+03 0.  0.
<mgrwt>
<rscale>  0 0.56651747E+03</rscale>
<asrwt>0</asrwt>
<pdfrwt beam="1">  1        2 0.21977731E+00 0.56651747E+03</pdfrwt>
<pdfrwt beam="2">  1       -2 0.66067825E-01 0.56651747E+03</pdfrwt>
<totfact> 0.30743695E+01</totfact>
</mgrwt>
</event>
<event>
 4    1  0.4639964E-008  0.1206778E+04  0.7818608E-02  0.9106944E-01
         -2   -1    0    0    0  501 -0.00000000000E+00  0.00000000000E+00  0.18855701434E+04  0.18855701434E+04  0.25500000000E-02 0.  1.
          2   -1    0    0  501    0  0.00000000000E+00 -0.00000000000E+00 -0.39172078433E+04  0.39172078433E+04  0.25500000000E-02 0. -1.
    8880022    1    1    2    0    0 -0.11459543994E+04  0.34599138998E+03 -0.36154899982E+04  0.38115719995E+04  0.15294330000E+03 0.  0.
    8880022    1    1    2    0    0  0.11459543994E+04 -0.34599138998E+03  0.15838522983E+04  0.19912059872E+04  0.15294330000E+03 0.  0.
<mgrwt>
<rscale>  0 0.12067780E+04</rscale>
<asrwt>0</asrwt>
<pdfrwt beam="1">  1        2 0.60264736E+00 0.12067780E+04</pdfrwt>
<pdfrwt beam="2">  1       -2 0.29008771E+00 0.12067780E+04</pdfrwt>
<totfact> 0.14659634E-02</totfact>
</mgrwt>
</event>
<event>
 4    1  0.4639964E-008  0.3083782E+03  0.7818608E-02  0.1081126E+00
         -2   -1    0    0    0  501 -0.00000000000E+00  0.00000000000E+00  0.11287954987E+03  0.11287954989E+03  0.25500000000E-02 0.  1.
          2   -1    0    0  501    0  0.00000000000E+00 -0.00000000000E+00 -0.27266731323E+04  0.27266731323E+04  0.25500000000E-02 0. -1.
    8880022    1    1    2    0    0 -0.21020691941E+03  0.16588713937E+03 -0.12666378503E+03  0.33337795283E+03  0.15294330000E+03 0.  0.
    8880022    1    1    2    0    0  0.21020691941E+03 -0.16588713937E+03 -0.24871297974E+04  0.25061747293E+04  0.15294330000E+03 0.  0.
<mgrwt>
<rscale>  0 0.30837825E+03</rscale>
<asrwt>0</asrwt>
<pdfrwt beam="1">  1        2 0.41948813E+00 0.30837825E+03</pdfrwt>
<pdfrwt beam="2">  1       -2 0.17366087E-01 0.30837825E+03</pdfrwt>
<totfact> 0.79722440E+01</totfact>
</mgrwt>
</event>
<event>
 4    1  0.4639964E-008  0.4683496E+03  0.7818608E-02  0.1022387E+00
         -2   -1    0    0    0  501 -0.00000000000E+00  0.00000000000E+00  0.39531515534E+03  0.39531515535E+03  0.25500000000E-02 0.  1.
          2   -1    0    0  501    0  0.00000000000E+00 -0.00000000000E+00 -0.61645226751E+03  0.61645226751E+03  0.25500000000E-02 0. -1.
    8880022    1    1    2    0    0  0.40405684088E+03 -0.18082513021E+03 -0.27045215259E+03  0.54082869584E+03  0.15294330000E+03 0.  0.
    8880022    1    1    2    0    0 -0.40405684088E+03  0.18082513021E+03  0.49315040426E+02  0.47093872702E+03  0.15294330000E+03 0.  0.
<mgrwt>
<rscale>  0 0.46834956E+03</rscale>
<asrwt>0</asrwt>
<pdfrwt beam="1">  1        2 0.94838811E-01 0.46834956E+03</pdfrwt>
<pdfrwt beam="2">  1       -2 0.60817716E-01 0.46834956E+03</pdfrwt>
<totfact> 0.12444215E+02</totfact>
</mgrwt>
</event>
<event>
 4    1  0.4639964E-008  0.7032874E+03  0.7818608E-02  0.9711627E-01
         -2   -1    0    0    0  501 -0.00000000000E+00  0.00000000000E+00  0.33699914603E+03  0.33699914604E+03  0.25500000000E-02 0.  1.
          2   -1    0    0  501    0  0.00000000000E+00 -0.00000000000E+00 -0.17705059878E+04  0.17705059878E+04  0.25500000000E-02 0. -1.
    8880022    1    1    2    0    0 -0.37662010447E+02  0.68542183757E+03 -0.11525393242E+04  0.13501703853E+04  0.15294330000E+03 0.  0.
    8880022    1    1    2    0    0  0.37662010447E+02 -0.68542183757E+03 -0.28096751758E+03  0.75733474857E+03  0.15294330000E+03 0.  0.
<mgrwt>
<rscale>  0 0.70328741E+03</rscale>
<asrwt>0</asrwt>
<pdfrwt beam="1">  1        2 0.27238553E+00 0.70328741E+03</pdfrwt>
<pdfrwt beam="2">  1       -2 0.51846023E-01 0.70328741E+03</pdfrwt>
<totfact> 0.32545233E+01</totfact>
</mgrwt>
</event>
<event>
 4    1  0.4639964E-008  0.1787609E+03  0.7818608E-02  0.1169008E+00
         -2   -1    0    0    0  501 -0.00000000000E+00  0.00000000000E+00  0.30305054012E+03  0.30305054013E+03  0.25500000000E-02 0.  1.
          2   -1    0    0  501    0  0.00000000000E+00 -0.00000000000E+00 -0.11374124306E+03  0.11374124309E+03  0.25500000000E-02 0. -1.
    8880022    1    1    2    0    0 -0.78498466928E+02 -0.49007996859E+02  0.15093367227E+03  0.23395815760E+03  0.15294330000E+03 0. -1.
    8880022    1    1    2    0    0  0.78498466928E+02  0.49007996859E+02  0.38375624787E+02  0.18283362562E+03  0.15294330000E+03 0. -1.
<mgrwt>
<rscale>  0 0.17876086E+03</rscale>
<asrwt>0</asrwt>
<pdfrwt beam="1">  1        2 0.17498653E-01 0.17876086E+03</pdfrwt>
<pdfrwt beam="2">  1       -2 0.46623159E-01 0.17876086E+03</pdfrwt>
<totfact> 0.14132442E+03</totfact>
</mgrwt>
</event>
<event>
 4    1  0.4639964E-008  0.4192042E+03  0.7818608E-02  0.1037326E+00
         -2   -1    0    0    0  501 -0.00000000000E+00  0.00000000000E+00  0.72619808453E+03  0.72619808453E+03  0.25500000000E-02 0.  1.
          2   -1    0    0  501    0  0.00000000000E+00 -0.00000000000E+00 -0.11298820715E+04  0.11298820715E+04  0.25500000000E-02 0. -1.
    8880022    1    1    2    0    0 -0.26853910609E+02 -0.38938335312E+03  0.62083703827E+03  0.74911334877E+03  0.15294330000E+03 0.  1.
    8880022    1    1    2    0    0  0.26853910609E+02  0.38938335312E+03 -0.10245210253E+04  0.11069668073E+04  0.15294330000E+03 0.  0.
<mgrwt>
<rscale>  0 0.41920422E+03</rscale>
<asrwt>0</asrwt>
<pdfrwt beam="1">  1        2 0.17382801E+00 0.41920422E+03</pdfrwt>
<pdfrwt beam="2">  1       -2 0.11172278E+00 0.41920422E+03</pdfrwt>
<totfact> 0.14170195E+01</totfact>
</mgrwt>
</event>
<event>
 4    1  0.4639964E-008  0.3323568E+03  0.7818608E-02  0.1070099E+00
         -2   -1    0    0    0  501 -0.00000000000E+00  0.00000000000E+00  0.36981253780E+03  0.36981253781E+03  0.25500000000E-02 0.  1.
          2   -1    0    0  501    0  0.00000000000E+00 -0.00000000000E+00 -0.76686023316E+03  0.76686023317E+03  0.25500000000E-02 0. -1.
    8880022    1    1    2    0    0  0.28437181265E+03 -0.78753367845E+02 -0.64258934898E+03  0.72345155001E+03  0.15294330000E+03 0.  0.
    8880022    1    1    2    0    0 -0.28437181265E+03  0.78753367845E+02  0.24554165362E+03  0.41322122096E+03  0.15294330000E+03 0.  0.
<mgrwt>
<rscale>  0 0.33235685E+03</rscale>
<asrwt>0</asrwt>
<pdfrwt beam="1">  1        2 0.11797850E+00 0.33235685E+03</pdfrwt>
<pdfrwt beam="2">  1       -2 0.56894237E-01 0.33235685E+03</pdfrwt>
<totfact> 0.11088950E+02</totfact>
</mgrwt>
</event>
<event>
 4    1  0.4639964E-008  0.9916271E+03  0.7818608E-02  0.9317776E-01
          2   -1    0    0  501    0  0.00000000000E+00  0.00000000000E+00  0.18276333921E+04  0.18276333921E+04  0.25500000000E-02 0. -1.
         -2   -1    0    0    0  501 -0.00000000000E+00 -0.00000000000E+00 -0.73444762450E+03  0.73444762450E+03  0.25500000000E-02 0.  1.
    8880022    1    1    2    0    0  0.27713650293E+03  0.93974893182E+03 -0.11588442633E+03  0.99837545513E+03  0.15294330000E+03 0.  0.
    8880022    1    1    2    0    0 -0.27713650293E+03 -0.93974893182E+03  0.12090701940E+04  0.15637055615E+04  0.15294330000E+03 0.  0.
<mgrwt>
<rscale>  0 0.99162712E+03</rscale>
<asrwt>0</asrwt>
<pdfrwt beam="1">  1        2 0.28117436E+00 0.99162712E+03</pdfrwt>
<pdfrwt beam="2">  1       -2 0.11299194E+00 0.99162712E+03</pdfrwt>
<totfact> 0.51189940E+00</totfact>
</mgrwt>
</event>
<event>
 4    1  0.4639964E-008  0.2288986E+03  0.7818608E-02  0.1127417E+00
         -2   -1    0    0    0  501 -0.00000000000E+00  0.00000000000E+00  0.10265082430E+04  0.10265082430E+04  0.25500000000E-02 0.  1.
          2   -1    0    0  501    0  0.00000000000E+00 -0.00000000000E+00 -0.38702962401E+03  0.38702962402E+03  0.25500000000E-02 0. -1.
    8880022    1    1    2    0    0  0.16971725774E+03  0.14106133459E+02  0.97825673438E+03  0.10046794623E+04  0.15294330000E+03 0.  0.
    8880022    1    1    2    0    0 -0.16971725774E+03 -0.14106133459E+02 -0.33877811543E+03  0.40885840469E+03  0.15294330000E+03 0. -1.
<mgrwt>
<rscale>  0 0.22889863E+03</rscale>
<asrwt>0</asrwt>
<pdfrwt beam="1">  1        2 0.59543020E-01 0.22889863E+03</pdfrwt>
<pdfrwt beam="2">  1       -2 0.15792434E+00 0.22889863E+03</pdfrwt>
<totfact> 0.23431977E+01</totfact>
</mgrwt>
</event>
<event>
 4    1  0.4639964E-008  0.7076053E+03  0.7818608E-02  0.9704314E-01
          2   -1    0    0  501    0  0.00000000000E+00  0.00000000000E+00  0.12408262360E+04  0.12408262360E+04  0.25500000000E-02 0. -1.
         -2   -1    0    0    0  501 -0.00000000000E+00 -0.00000000000E+00 -0.71063933756E+03  0.71063933756E+03  0.25500000000E-02 0.  1.
    8880022    1    1    2    0    0 -0.24181485493E+03  0.64717791243E+03  0.90653309301E+03  0.11500032940E+04  0.15294330000E+03 0.  0.
    8880022    1    1    2    0    0  0.24181485493E+03 -0.64717791243E+03 -0.37634619458E+03  0.80146227958E+03  0.15294330000E+03 0.  0.
<mgrwt>
<rscale>  0 0.70760535E+03</rscale>
<asrwt>0</asrwt>
<pdfrwt beam="1">  1        2 0.19089634E+00 0.70760535E+03</pdfrwt>
<pdfrwt beam="2">  1       -2 0.10932913E+00 0.70760535E+03</pdfrwt>
<totfact> 0.12249696E+01</totfact>
</mgrwt>
</event>
<event>
 4    1  0.4639964E-008  0.5220045E+03  0.7818608E-02  0.1008190E+00
          2   -1    0    0  501    0  0.00000000000E+00  0.00000000000E+00  0.71081999950E+03  0.71081999950E+03  0.25500000000E-02 0. -1.
         -2   -1    0    0    0  501 -0.00000000000E+00 -0.00000000000E+00 -0.12572342211E+04  0.12572342211E+04  0.25500000000E-02 0.  1.
    8880022    1    1    2    0    0  0.49846868730E+03 -0.25019346534E+02  0.54719615719E+03  0.75624882636E+03  0.15294330000E+03 0.  0.
    8880022    1    1    2    0    0 -0.49846868730E+03  0.25019346534E+02 -0.10936103788E+04  0.12118053943E+04  0.15294330000E+03 0.  0.
<mgrwt>
<rscale>  0 0.52200446E+03</rscale>
<asrwt>0</asrwt>
<pdfrwt beam="1">  1        2 0.10935692E+00 0.52200446E+03</pdfrwt>
<pdfrwt beam="2">  1       -2 0.19342065E+00 0.52200446E+03</pdfrwt>
<totfact> 0.62356453E+00</totfact>
</mgrwt>
</event>
<event>
 4    1  0.4639964E-008  0.4714080E+03  0.7818608E-02  0.1021524E+00
         -2   -1    0    0    0  501 -0.00000000000E+00  0.00000000000E+00  0.16898288289E+03  0.16898288291E+03  0.25500000000E-02 0.  1.
          2   -1    0    0  501    0  0.00000000000E+00 -0.00000000000E+00 -0.17893433530E+04  0.17893433530E+04  0.25500000000E-02 0. -1.
    8880022    1    1    2    0    0  0.70192957934E+00  0.44590732790E+03 -0.30607710510E+03  0.56205754604E+03  0.15294330000E+03 0.  0.
    8880022    1    1    2    0    0 -0.70192957934E+00 -0.44590732790E+03 -0.13142833650E+04  0.13962686899E+04  0.15294330000E+03 0.  0.
<mgrwt>
<rscale>  0 0.47140799E+03</rscale>
<asrwt>0</asrwt>
<pdfrwt beam="1">  1        2 0.27528358E+00 0.47140799E+03</pdfrwt>
<pdfrwt beam="2">  1       -2 0.25997368E-01 0.47140799E+03</pdfrwt>
<totfact> 0.12331459E+02</totfact>
</mgrwt>
</event>
<event>
 4    1  0.4639964E-008  0.1645522E+03  0.7818608E-02  0.1183651E+00
         -2   -1    0    0    0  501 -0.00000000000E+00  0.00000000000E+00  0.40790176449E+02  0.40790176528E+02  0.25500000000E-02 0.  1.
          2   -1    0    0  501    0  0.00000000000E+00 -0.00000000000E+00 -0.66716427888E+03  0.66716427888E+03  0.25500000000E-02 0. -1.
    8880022    1    1    2    0    0  0.55626004727E+02  0.24320906338E+02 -0.28813244040E+03  0.33180975741E+03  0.15294330000E+03 0. -1.
    8880022    1    1    2    0    0 -0.55626004727E+02 -0.24320906338E+02 -0.33824166203E+03  0.37614469801E+03  0.15294330000E+03 0.  1.
<mgrwt>
<rscale>  0 0.16455216E+03</rscale>
<asrwt>0</asrwt>
<pdfrwt beam="1">  1        2 0.10264065E+00 0.16455216E+03</pdfrwt>
<pdfrwt beam="2">  1       -2 0.62754122E-02 0.16455216E+03</pdfrwt>
<totfact> 0.59854215E+03</totfact>
</mgrwt>
</event>
<event>
 4    1  0.4639964E-008  0.2053312E+03  0.7818608E-02  0.1145317E+00
          2   -1    0    0  501    0  0.00000000000E+00  0.00000000000E+00  0.75661172123E+03  0.75661172123E+03  0.25500000000E-02 0. -1.
         -2   -1    0    0    0  501 -0.00000000000E+00 -0.00000000000E+00 -0.19120615794E+03  0.19120615795E+03  0.25500000000E-02 0.  1.
    8880022    1    1    2    0    0  0.73757729251E+02 -0.11545146867E+03  0.68162309193E+03  0.71187845641E+03  0.15294330000E+03 0.  0.
    8880022    1    1    2    0    0 -0.73757729251E+02  0.11545146867E+03 -0.11621752864E+03  0.23593942277E+03  0.15294330000E+03 0.  1.
<mgrwt>
<rscale>  0 0.20533119E+03</rscale>
<asrwt>0</asrwt>
<pdfrwt beam="1">  1        2 0.11640181E+00 0.20533119E+03</pdfrwt>
<pdfrwt beam="2">  1       -2 0.29416331E-01 0.20533119E+03</pdfrwt>
<totfact> 0.40860098E+02</totfact>
</mgrwt>
</event>
<event>
 4    1  0.4639964E-008  0.3500743E+03  0.7818608E-02  0.1062585E+00
          2   -1    0    0  501    0  0.00000000000E+00  0.00000000000E+00  0.37621019630E+04  0.37621019630E+04  0.25500000000E-02 0. -1.
         -2   -1    0    0    0  501 -0.00000000000E+00 -0.00000000000E+00 -0.17892547348E+03  0.17892547349E+03  0.25500000000E-02 0.  1.
    8880022    1    1    2    0    0 -0.26787098707E+03 -0.16554602828E+03  0.35737201103E+04  0.35908254529E+04  0.15294330000E+03 0.  0.
    8880022    1    1    2    0    0  0.26787098707E+03  0.16554602828E+03  0.94563791943E+01  0.35020198360E+03  0.15294330000E+03 0.  0.
<mgrwt>
<rscale>  0 0.35007429E+03</rscale>
<asrwt>0</asrwt>
<pdfrwt beam="1">  1        2 0.57878486E+00 0.35007429E+03</pdfrwt>
<pdfrwt beam="2">  1       -2 0.27526999E-01 0.35007429E+03</pdfrwt>
<totfact> 0.77704769E+00</totfact>
</mgrwt>
</event>
<event>
 4    1  0.4639964E-008  0.6425671E+03  0.7818608E-02  0.9820827E-01
         -2   -1    0    0    0  501 -0.00000000000E+00  0.00000000000E+00  0.27697073954E+03  0.27697073956E+03  0.25500000000E-02 0.  1.
          2   -1    0    0  501    0  0.00000000000E+00 -0.00000000000E+00 -0.22542624195E+04  0.22542624195E+04  0.25500000000E-02 0. -1.
    8880022    1    1    2    0    0  0.59057225987E+03  0.20180482449E+03 -0.17252085262E+04  0.18409880209E+04  0.15294330000E+03 0.  0.
    8880022    1    1    2    0    0 -0.59057225987E+03 -0.20180482449E+03 -0.25208315379E+03  0.69024513816E+03  0.15294330000E+03 0.  0.
<mgrwt>
<rscale>  0 0.64256707E+03</rscale>
<asrwt>0</asrwt>
<pdfrwt beam="1">  1        2 0.34680959E+00 0.64256707E+03</pdfrwt>
<pdfrwt beam="2">  1       -2 0.42610884E-01 0.64256707E+03</pdfrwt>
<totfact> 0.26525250E+01</totfact>
</mgrwt>
</event>
<event>
 4    1  0.4639964E-008  0.7035444E+03  0.7818608E-02  0.9711190E-01
         -2   -1    0    0    0  501 -0.00000000000E+00  0.00000000000E+00  0.42851398406E+03  0.42851398407E+03  0.25500000000E-02 0.  1.
          2   -1    0    0  501    0  0.00000000000E+00 -0.00000000000E+00 -0.23056840084E+04  0.23056840084E+04  0.25500000000E-02 0. -1.
    8880022    1    1    2    0    0 -0.54961317599E+03  0.41171403147E+03 -0.19043245545E+04  0.20301297369E+04  0.15294330000E+03 0.  0.
    8880022    1    1    2    0    0  0.54961317599E+03 -0.41171403147E+03  0.27154530161E+02  0.70406825553E+03  0.15294330000E+03 0.  0.
<mgrwt>
<rscale>  0 0.70354441E+03</rscale>
<asrwt>0</asrwt>
<pdfrwt beam="1">  1        2 0.35472061E+00 0.70354441E+03</pdfrwt>
<pdfrwt beam="2">  1       -2 0.65925230E-01 0.70354441E+03</pdfrwt>
<totfact> 0.10018244E+01</totfact>
</mgrwt>
</event>
<event>
 4    1  0.4639964E-008  0.1193789E+04  0.7818608E-02  0.9118310E-01
         -2   -1    0    0    0  501 -0.00000000000E+00  0.00000000000E+00  0.69488730917E+03  0.69488730917E+03  0.25500000000E-02 0.  1.
          2   -1    0    0  501    0  0.00000000000E+00 -0.00000000000E+00 -0.27920897986E+04  0.27920897986E+04  0.25500000000E-02 0. -1.
    8880022    1    1    2    0    0  0.98343416333E+03 -0.65924048976E+03 -0.19469069655E+04  0.22837642528E+04  0.15294330000E+03 0.  0.
    8880022    1    1    2    0    0 -0.98343416333E+03  0.65924048976E+03 -0.15029552395E+03  0.12032128550E+04  0.15294330000E+03 0.  0.
<mgrwt>
<rscale>  0 0.11937891E+04</rscale>
<asrwt>0</asrwt>
<pdfrwt beam="1">  1        2 0.42955227E+00 0.11937891E+04</pdfrwt>
<pdfrwt beam="2">  1       -2 0.10690574E+00 0.11937891E+04</pdfrwt>
<totfact> 0.16245908E+00</totfact>
</mgrwt>
</event>
<event>
 4    1  0.4639964E-008  0.5738656E+03  0.7818608E-02  0.9961161E-01
          2   -1    0    0  501    0  0.00000000000E+00  0.00000000000E+00  0.63865024152E+03  0.63865024153E+03  0.25500000000E-02 0. -1.
         -2   -1    0    0    0  501 -0.00000000000E+00 -0.00000000000E+00 -0.62027056761E+03  0.62027056762E+03  0.25500000000E-02 0.  1.
    8880022    1    1    2    0    0 -0.32626005227E+03  0.44663679867E+03 -0.24932222746E+03  0.62568624546E+03  0.15294330000E+03 0.  1.
    8880022    1    1    2    0    0  0.32626005227E+03 -0.44663679867E+03  0.26770190137E+03  0.63323456369E+03  0.15294330000E+03 0.  0.
<mgrwt>
<rscale>  0 0.57386558E+03</rscale>
<asrwt>0</asrwt>
<pdfrwt beam="1">  1        2 0.98253883E-01 0.57386558E+03</pdfrwt>
<pdfrwt beam="2">  1       -2 0.95426241E-01 0.57386558E+03</pdfrwt>
<totfact> 0.43572351E+01</totfact>
</mgrwt>
</event>
<event>
 4    1  0.4639964E-008  0.1598400E+03  0.7818608E-02  0.1188877E+00
          2   -1    0    0  501    0  0.00000000000E+00  0.00000000000E+00  0.10451497529E+04  0.10451497529E+04  0.25500000000E-02 0. -1.
         -2   -1    0    0    0  501 -0.00000000000E+00 -0.00000000000E+00 -0.86486279095E+03  0.86486279095E+03  0.25500000000E-02 0.  1.
    8880022    1    1    2    0    0 -0.43363811771E+02  0.16636130847E+02  0.10315564989E+04  0.10438666794E+04  0.15294330000E+03 0.  0.
    8880022    1    1    2    0    0  0.43363811771E+02 -0.16636130847E+02 -0.85126953691E+03  0.86614586445E+03  0.15294330000E+03 0.  1.
<mgrwt>
<rscale>  0 0.15984003E+03</rscale>
<asrwt>0</asrwt>
<pdfrwt beam="1">  1        2 0.16079227E+00 0.15984003E+03</pdfrwt>
<pdfrwt beam="2">  1       -2 0.13305581E+00 0.15984003E+03</pdfrwt>
<totfact> 0.11335224E+01</totfact>
</mgrwt>
</event>
<event>
 4    1  0.4639964E-008  0.4183740E+03  0.7818608E-02  0.1037597E+00
         -2   -1    0    0    0  501 -0.00000000000E+00  0.00000000000E+00  0.50990098134E+03  0.50990098135E+03  0.25500000000E-02 0.  1.
          2   -1    0    0  501    0  0.00000000000E+00 -0.00000000000E+00 -0.67466063462E+03  0.67466063462E+03  0.25500000000E-02 0. -1.
    8880022    1    1    2    0    0 -0.38096327008E+03 -0.80697923521E+02 -0.49747825799E+03  0.65001649071E+03  0.15294330000E+03 0.  0.
    8880022    1    1    2    0    0  0.38096327008E+03  0.80697923521E+02  0.33271860471E+03  0.53454512527E+03  0.15294330000E+03 0.  0.
<mgrwt>
<rscale>  0 0.41837402E+03</rscale>
<asrwt>0</asrwt>
<pdfrwt beam="1">  1        2 0.10379394E+00 0.41837402E+03</pdfrwt>
<pdfrwt beam="2">  1       -2 0.78446305E-01 0.41837402E+03</pdfrwt>
<totfact> 0.64704193E+01</totfact>
</mgrwt>
</event>
<event>
 4    1  0.4639964E-008  0.2229080E+03  0.7818608E-02  0.1131733E+00
          2   -1    0    0  501    0  0.00000000000E+00  0.00000000000E+00  0.54243927934E+03  0.54243927935E+03  0.25500000000E-02 0. -1.
         -2   -1    0    0    0  501 -0.00000000000E+00 -0.00000000000E+00 -0.34534562828E+03  0.34534562829E+03  0.25500000000E-02 0.  1.
    8880022    1    1    2    0    0  0.21969469294E+02 -0.16066630003E+03 -0.28194841162E+03  0.35942019612E+03  0.15294330000E+03 0.  0.
    8880022    1    1    2    0    0 -0.21969469294E+02  0.16066630003E+03  0.47904206268E+03  0.52836471152E+03  0.15294330000E+03 0. -1.
<mgrwt>
<rscale>  0 0.22290799E+03</rscale>
<asrwt>0</asrwt>
<pdfrwt beam="1">  1        2 0.83452197E-01 0.22290799E+03</pdfrwt>
<pdfrwt beam="2">  1       -2 0.53130097E-01 0.22290799E+03</pdfrwt>
<totfact> 0.19554834E+02</totfact>
</mgrwt>
</event>
<event>
 4    1  0.4639964E-008  0.4995489E+03  0.7818608E-02  0.1013897E+00
          2   -1    0    0  501    0  0.00000000000E+00  0.00000000000E+00  0.24116635649E+04  0.24116635649E+04  0.25500000000E-02 0. -1.
         -2   -1    0    0    0  501 -0.00000000000E+00 -0.00000000000E+00 -0.21574007418E+03  0.21574007419E+03  0.25500000000E-02 0.  1.
    8880022    1    1    2    0    0  0.15125190824E+03  0.45086616346E+03  0.15030303942E+03  0.52167048390E+03  0.15294330000E+03 0.  0.
    8880022    1    1    2    0    0 -0.15125190824E+03 -0.45086616346E+03  0.20456204513E+04  0.21057331552E+04  0.15294330000E+03 0.  0.
<mgrwt>
<rscale>  0 0.49954889E+03</rscale>
<asrwt>0</asrwt>
<pdfrwt beam="1">  1        2 0.37102516E+00 0.49954889E+03</pdfrwt>
<pdfrwt beam="2">  1       -2 0.33190781E-01 0.49954889E+03</pdfrwt>
<totfact> 0.36031171E+01</totfact>
</mgrwt>
</event>
<event>
 4    1  0.4639964E-008  0.5991445E+03  0.7818608E-02  0.9907183E-01
          2   -1    0    0  501    0  0.00000000000E+00  0.00000000000E+00  0.10885555461E+04  0.10885555461E+04  0.25500000000E-02 0. -1.
         -2   -1    0    0    0  501 -0.00000000000E+00 -0.00000000000E+00 -0.87211407914E+03  0.87211407915E+03  0.25500000000E-02 0.  1.
    8880022    1    1    2    0    0 -0.43826696507E+03  0.37881994584E+03 -0.66485990360E+03  0.89499320024E+03  0.15294330000E+03 0.  0.
    8880022    1    1    2    0    0  0.43826696507E+03 -0.37881994584E+03  0.88130137051E+03  0.10656764250E+04  0.15294330000E+03 0.  0.
<mgrwt>
<rscale>  0 0.59914450E+03</rscale>
<asrwt>0</asrwt>
<pdfrwt beam="1">  1        2 0.16747008E+00 0.59914450E+03</pdfrwt>
<pdfrwt beam="2">  1       -2 0.13417140E+00 0.59914450E+03</pdfrwt>
<totfact> 0.92330599E+00</totfact>
</mgrwt>
</event>
<event>
 4    1  0.4639964E-008  0.5095889E+03  0.7818608E-02  0.1011306E+00
         -2   -1    0    0    0  501 -0.00000000000E+00  0.00000000000E+00  0.78790038102E+03  0.78790038102E+03  0.25500000000E-02 0.  1.
          2   -1    0    0  501    0  0.00000000000E+00 -0.00000000000E+00 -0.11430734164E+04  0.11430734164E+04  0.25500000000E-02 0. -1.
    8880022    1    1    2    0    0 -0.18144474063E+03  0.45096228620E+03  0.63690164634E+03  0.81567428402E+03  0.15294330000E+03 0.  0.
    8880022    1    1    2    0    0  0.18144474063E+03 -0.45096228620E+03 -0.99207468173E+03  0.11152995134E+04  0.15294330000E+03 0.  0.
<mgrwt>
<rscale>  0 0.50958888E+03</rscale>
<asrwt>0</asrwt>
<pdfrwt beam="1">  1        2 0.17585745E+00 0.50958888E+03</pdfrwt>
<pdfrwt beam="2">  1       -2 0.12121544E+00 0.50958888E+03</pdfrwt>
<totfact> 0.11209975E+01</totfact>
</mgrwt>
</event>
<event>
 4    1  0.4639964E-008  0.1023494E+04  0.7818608E-02  0.9283146E-01
          2   -1    0    0  501    0  0.00000000000E+00  0.00000000000E+00  0.59611143708E+03  0.59611143709E+03  0.25500000000E-02 0. -1.
         -2   -1    0    0    0  501 -0.00000000000E+00 -0.00000000000E+00 -0.27432156266E+04  0.27432156266E+04  0.25500000000E-02 0.  1.
    8880022    1    1    2    0    0  0.98987143867E+03  0.21048004219E+03 -0.72580635530E+02  0.10260637967E+04  0.15294330000E+03 0. -1.
    8880022    1    1    2    0    0 -0.98987143867E+03 -0.21048004219E+03 -0.20745235540E+04  0.23132632670E+04  0.15294330000E+03 0.  0.
<mgrwt>
<rscale>  0 0.10234935E+04</rscale>
<asrwt>0</asrwt>
<pdfrwt beam="1">  1        2 0.91709453E-01 0.10234935E+04</pdfrwt>
<pdfrwt beam="2">  1       -2 0.42203317E+00 0.10234935E+04</pdfrwt>
<totfact> 0.27015152E-01</totfact>
</mgrwt>
</event>
<event>
 4    1  0.4639964E-008  0.7064106E+03  0.7818608E-02  0.9706332E-01
          2   -1    0    0  501    0  0.00000000000E+00  0.00000000000E+00  0.11007923076E+04  0.11007923076E+04  0.25500000000E-02 0. -1.
         -2   -1    0    0    0  501 -0.00000000000E+00 -0.00000000000E+00 -0.12839377445E+04  0.12839377445E+04  0.25500000000E-02 0.  1.
    8880022    1    1    2    0    0  0.51550166862E+03  0.45812910254E+03  0.86746729007E+03  0.11187114898E+04  0.15294330000E+03 0.  0.
    8880022    1    1    2    0    0 -0.51550166862E+03 -0.45812910254E+03 -0.10506127270E+04  0.12660185623E+04  0.15294330000E+03 0.  0.
<mgrwt>
<rscale>  0 0.70641057E+03</rscale>
<asrwt>0</asrwt>
<pdfrwt beam="1">  1        2 0.16935266E+00 0.70641057E+03</pdfrwt>
<pdfrwt beam="2">  1       -2 0.19752888E+00 0.70641057E+03</pdfrwt>
<totfact> 0.31018269E+00</totfact>
</mgrwt>
</event>
<event>
 4    1  0.4639964E-008  0.2600152E+03  0.7818608E-02  0.1107134E+00
          2   -1    0    0  501    0  0.00000000000E+00  0.00000000000E+00  0.30781713074E+04  0.30781713074E+04  0.25500000000E-02 0. -1.
         -2   -1    0    0    0  501 -0.00000000000E+00 -0.00000000000E+00 -0.53822553107E+02  0.53822553168E+02  0.25500000000E-02 0.  1.
    8880022    1    1    2    0    0  0.20116071374E+03  0.61242449454E+02  0.30734911120E+03  0.40258092297E+03  0.15294330000E+03 0.  0.
    8880022    1    1    2    0    0 -0.20116071374E+03 -0.61242449454E+02  0.27169996431E+04  0.27294129376E+04  0.15294330000E+03 0. -1.
<mgrwt>
<rscale>  0 0.26001524E+03</rscale>
<asrwt>0</asrwt>
<pdfrwt beam="1">  1        2 0.47356507E+00 0.26001524E+03</pdfrwt>
<pdfrwt beam="2">  1       -2 0.82803883E-02 0.26001524E+03</pdfrwt>
<totfact> 0.16847992E+02</totfact>
</mgrwt>
</event>
<event>
 4    1  0.4639964E-008  0.1276585E+04  0.7818608E-02  0.9048342E-01
          2   -1    0    0  501    0  0.00000000000E+00  0.00000000000E+00  0.33914712022E+04  0.33914712022E+04  0.25500000000E-02 0. -1.
         -2   -1    0    0    0  501 -0.00000000000E+00 -0.00000000000E+00 -0.21619053933E+04  0.21619053933E+04  0.25500000000E-02 0.  1.
    8880022    1    1    2    0    0 -0.10609310355E+04 -0.69332833091E+03  0.30635213183E+04  0.33188602497E+04  0.15294330000E+03 0.  0.
    8880022    1    1    2    0    0  0.10609310355E+04  0.69332833091E+03 -0.18339555094E+04  0.22345163458E+04  0.15294330000E+03 0.  0.
<mgrwt>
<rscale>  0 0.12765855E+04</rscale>
<asrwt>0</asrwt>
<pdfrwt beam="1">  1        2 0.52176480E+00 0.12765855E+04</pdfrwt>
<pdfrwt beam="2">  1       -2 0.33260083E+00 0.12765855E+04</pdfrwt>
<totfact> 0.19013390E-02</totfact>
</mgrwt>
</event>
<event>
 4    1  0.4639964E-008  0.4097221E+03  0.7818608E-02  0.1040464E+00
         -2   -1    0    0    0  501 -0.00000000000E+00  0.00000000000E+00  0.10413537721E+04  0.10413537721E+04  0.25500000000E-02 0.  1.
          2   -1    0    0  501    0  0.00000000000E+00 -0.00000000000E+00 -0.48241787737E+03  0.48241787738E+03  0.25500000000E-02 0. -1.
    8880022    1    1    2    0    0  0.97345529420E+02  0.36742938889E+03 -0.34222250707E+03  0.53384305304E+03  0.15294330000E+03 0.  0.
    8880022    1    1    2    0    0 -0.97345529420E+02 -0.36742938889E+03  0.90115840176E+03  0.98992859641E+03  0.15294330000E+03 0.  0.
<mgrwt>
<rscale>  0 0.40972205E+03</rscale>
<asrwt>0</asrwt>
<pdfrwt beam="1">  1        2 0.74218136E-01 0.40972205E+03</pdfrwt>
<pdfrwt beam="2">  1       -2 0.16020827E+00 0.40972205E+03</pdfrwt>
<totfact> 0.17033323E+01</totfact>
</mgrwt>
</event>
<event>
 4    1  0.4639964E-008  0.4246731E+03  0.7818608E-02  0.1035556E+00
         -2   -1    0    0    0  501 -0.00000000000E+00  0.00000000000E+00  0.23335530642E+03  0.23335530643E+03  0.25500000000E-02 0.  1.
          2   -1    0    0  501    0  0.00000000000E+00 -0.00000000000E+00 -0.29094946984E+04  0.29094946984E+04  0.25500000000E-02 0. -1.
    8880022    1    1    2    0    0  0.38379840627E+03  0.98256763236E+02 -0.26847100752E+04  0.27180904049E+04  0.15294330000E+03 0.  0.
    8880022    1    1    2    0    0 -0.38379840627E+03 -0.98256763236E+02  0.85706831660E+01  0.42475960001E+03  0.15294330000E+03 0.  1.
<mgrwt>
<rscale>  0 0.42467312E+03</rscale>
<asrwt>0</asrwt>
<pdfrwt beam="1">  1        2 0.44761454E+00 0.42467312E+03</pdfrwt>
<pdfrwt beam="2">  1       -2 0.35900818E-01 0.42467312E+03</pdfrwt>
<totfact> 0.16461671E+01</totfact>
</mgrwt>
</event>
<event>
 4    1  0.4639964E-008  0.2826781E+03  0.7818608E-02  0.1094235E+00
         -2   -1    0    0    0  501 -0.00000000000E+00  0.00000000000E+00  0.28983014272E+03  0.28983014273E+03  0.25500000000E-02 0.  1.
          2   -1    0    0  501    0  0.00000000000E+00 -0.00000000000E+00 -0.11818296183E+04  0.11818296183E+04  0.25500000000E-02 0. -1.
    8880022    1    1    2    0    0 -0.66799061515E+02 -0.22815158126E+03  0.19830976234E+03  0.34530229293E+03  0.15294330000E+03 0.  1.
    8880022    1    1    2    0    0  0.66799061515E+02  0.22815158126E+03 -0.10903092379E+04  0.11263574681E+04  0.15294330000E+03 0.  0.
<mgrwt>
<rscale>  0 0.28267811E+03</rscale>
<asrwt>0</asrwt>
<pdfrwt beam="1">  1        2 0.18181994E+00 0.28267811E+03</pdfrwt>
<pdfrwt beam="2">  1       -2 0.44589253E-01 0.28267811E+03</pdfrwt>
<totfact> 0.99755318E+01</totfact>
</mgrwt>
</event>
<event>
 4    1  0.4639964E-008  0.2227362E+03  0.7818608E-02  0.1131859E+00
          2   -1    0    0  501    0  0.00000000000E+00  0.00000000000E+00  0.11671918238E+04  0.11671918238E+04  0.25500000000E-02 0. -1.
         -2   -1    0    0    0  501 -0.00000000000E+00 -0.00000000000E+00 -0.97323320633E+02  0.97323320667E+02  0.25500000000E-02 0.  1.
    8880022    1    1    2    0    0  0.14508497573E+03  0.71903340783E+02  0.10094479622E+04  0.10337294530E+04  0.15294330000E+03 0.  0.
    8880022    1    1    2    0    0 -0.14508497573E+03 -0.71903340783E+02  0.60420540958E+02  0.23078569146E+03  0.15294330000E+03 0.  0.
<mgrwt>
<rscale>  0 0.22273615E+03</rscale>
<asrwt>0</asrwt>
<pdfrwt beam="1">  1        2 0.17956797E+00 0.22273615E+03</pdfrwt>
<pdfrwt beam="2">  1       -2 0.14972819E-01 0.22273615E+03</pdfrwt>
<totfact> 0.72175027E+02</totfact>
</mgrwt>
</event>
<event>
 4    1  0.4754671E-008  0.8372688E+03  0.7818608E-02  0.9507586E-01
          2   -1    0    0  501    0  0.00000000000E+00  0.00000000000E+00  0.18809256195E+04  0.18809256195E+04  0.25500000000E-02 0. -1.
         -2   -1    0    0    0  501 -0.00000000000E+00 -0.00000000000E+00 -0.11694540048E+04  0.11694540048E+04  0.25500000000E-02 0.  1.
    8880022    1    1    2    0    0 -0.81673448036E+03  0.10282069717E+03 -0.90317436531E+03  0.12315611614E+04  0.15294330000E+03 0.  0.
    8880022    1    1    2    0    0  0.81673448036E+03 -0.10282069717E+03  0.16146459800E+04  0.18188184629E+04  0.15294330000E+03 0.  0.
<mgrwt>
<rscale>  0 0.83726875E+03</rscale>
<asrwt>0</asrwt>
<pdfrwt beam="1">  1        2 0.28937318E+00 0.83726875E+03</pdfrwt>
<pdfrwt beam="2">  1       -2 0.17991600E+00 0.83726875E+03</pdfrwt>
<totfact> 0.14434742E+00</totfact>
</mgrwt>
</event>
<event>
 4    1  0.4639964E-008  0.3241089E+03  0.7818608E-02  0.1073774E+00
         -2   -1    0    0    0  501 -0.00000000000E+00  0.00000000000E+00  0.13608740072E+03  0.13608740075E+03  0.25500000000E-02 0.  1.
          2   -1    0    0  501    0  0.00000000000E+00 -0.00000000000E+00 -0.31052176190E+04  0.31052176190E+04  0.25500000000E-02 0. -1.
    8880022    1    1    2    0    0 -0.27279712787E+03 -0.85068647748E+02 -0.28894162616E+04  0.29075372626E+04  0.15294330000E+03 0.  0.
    8880022    1    1    2    0    0  0.27279712787E+03  0.85068647748E+02 -0.79713956714E+02  0.33376775715E+03  0.15294330000E+03 0.  0.
<mgrwt>
<rscale>  0 0.32410893E+03</rscale>
<asrwt>0</asrwt>
<pdfrwt beam="1">  1        2 0.47772573E+00 0.32410893E+03</pdfrwt>
<pdfrwt beam="2">  1       -2 0.20936526E-01 0.32410893E+03</pdfrwt>
<totfact> 0.34499894E+01</totfact>
</mgrwt>
</event>
<event>
 4    1  0.4639964E-008  0.2039742E+03  0.7818608E-02  0.1146429E+00
         -2   -1    0    0    0  501 -0.00000000000E+00  0.00000000000E+00  0.16691029781E+03  0.16691029783E+03  0.25500000000E-02 0.  1.
          2   -1    0    0  501    0  0.00000000000E+00 -0.00000000000E+00 -0.46550068362E+03  0.46550068363E+03  0.25500000000E-02 0. -1.
    8880022    1    1    2    0    0 -0.12311289309E+03  0.55290557845E+02 -0.36480616721E+03  0.41795815925E+03  0.15294330000E+03 0.  0.
    8880022    1    1    2    0    0  0.12311289309E+03 -0.55290557845E+02  0.66215781400E+02  0.21445282221E+03  0.15294330000E+03 0.  0.
<mgrwt>
<rscale>  0 0.20397422E+03</rscale>
<asrwt>0</asrwt>
<pdfrwt beam="1">  1        2 0.71615489E-01 0.20397422E+03</pdfrwt>
<pdfrwt beam="2">  1       -2 0.25678507E-01 0.20397422E+03</pdfrwt>
<totfact> 0.91480879E+02</totfact>
</mgrwt>
</event>
<event>
 4    1  0.4639964E-008  0.9220112E+03  0.7818608E-02  0.9398477E-01
         -2   -1    0    0    0  501 -0.00000000000E+00  0.00000000000E+00  0.86988252605E+03  0.86988252606E+03  0.25500000000E-02 0.  1.
          2   -1    0    0  501    0  0.00000000000E+00 -0.00000000000E+00 -0.11374293781E+04  0.11374293781E+04  0.25500000000E-02 0. -1.
    8880022    1    1    2    0    0 -0.73881559478E+03  0.52996655096E+03  0.24284994873E+03  0.95345727688E+03  0.15294330000E+03 0.  0.
    8880022    1    1    2    0    0  0.73881559478E+03 -0.52996655096E+03 -0.51039680082E+03  0.10538546273E+04  0.15294330000E+03 0. -1.
<mgrwt>
<rscale>  0 0.92201122E+03</rscale>
<asrwt>0</asrwt>
<pdfrwt beam="1">  1        2 0.17498913E+00 0.92201122E+03</pdfrwt>
<pdfrwt beam="2">  1       -2 0.13382808E+00 0.92201122E+03</pdfrwt>
<totfact> 0.83315097E+00</totfact>
</mgrwt>
</event>
<event>
 4    1  0.4639964E-008  0.2324566E+03  0.7818608E-02  0.1124923E+00
          2   -1    0    0  501    0  0.00000000000E+00  0.00000000000E+00  0.18544947790E+04  0.18544947790E+04  0.25500000000E-02 0. -1.
         -2   -1    0    0    0  501 -0.00000000000E+00 -0.00000000000E+00 -0.43156802428E+02  0.43156802504E+02  0.25500000000E-02 0.  1.
    8880022    1    1    2    0    0  0.17029396471E+03  0.40551202939E+02  0.14464467504E+04  0.14650065834E+04  0.15294330000E+03 0. -1.
    8880022    1    1    2    0    0 -0.17029396471E+03 -0.40551202939E+02  0.36489122611E+03  0.43264499810E+03  0.15294330000E+03 0.  0.
<mgrwt>
<rscale>  0 0.23245664E+03</rscale>
<asrwt>0</asrwt>
<pdfrwt beam="1">  1        2 0.28530685E+00 0.23245664E+03</pdfrwt>
<pdfrwt beam="2">  1       -2 0.66395091E-02 0.23245664E+03</pdfrwt>
<totfact> 0.11260401E+03</totfact>
</mgrwt>
</event>
<event>
 4    1  0.4639964E-008  0.1574156E+03  0.7818608E-02  0.1191646E+00
          2   -1    0    0  501    0  0.00000000000E+00  0.00000000000E+00  0.18905661846E+04  0.18905661846E+04  0.25500000000E-02 0. -1.
         -2   -1    0    0    0  501 -0.00000000000E+00 -0.00000000000E+00 -0.13816057640E+03  0.13816057642E+03  0.25500000000E-02 0.  1.
    8880022    1    1    2    0    0  0.15898764555E+02  0.33693267949E+02 -0.88846593901E+02  0.18075778623E+03  0.15294330000E+03 0.  0.
    8880022    1    1    2    0    0 -0.15898764555E+02 -0.33693267949E+02  0.18412522021E+04  0.18479689747E+04  0.15294330000E+03 0. -1.
<mgrwt>
<rscale>  0 0.15741556E+03</rscale>
<asrwt>0</asrwt>
<pdfrwt beam="1">  1        2 0.29085631E+00 0.15741556E+03</pdfrwt>
<pdfrwt beam="2">  1       -2 0.21255476E-01 0.15741556E+03</pdfrwt>
<totfact> 0.16774173E+02</totfact>
</mgrwt>
</event>
<event>
 4    1  0.4639964E-008  0.1709461E+03  0.7818608E-02  0.1176865E+00
         -2   -1    0    0    0  501 -0.00000000000E+00  0.00000000000E+00  0.42557674286E+03  0.42557674287E+03  0.25500000000E-02 0.  1.
          2   -1    0    0  501    0  0.00000000000E+00 -0.00000000000E+00 -0.11916648249E+04  0.11916648249E+04  0.25500000000E-02 0. -1.
    8880022    1    1    2    0    0  0.72213623200E+02 -0.24821535673E+02  0.40193403723E+03  0.43677630351E+03  0.15294330000E+03 0.  0.
    8880022    1    1    2    0    0 -0.72213623200E+02  0.24821535673E+02 -0.11680221193E+04  0.11804652643E+04  0.15294330000E+03 0. -1.
<mgrwt>
<rscale>  0 0.17094610E+03</rscale>
<asrwt>0</asrwt>
<pdfrwt beam="1">  1        2 0.18333305E+00 0.17094610E+03</pdfrwt>
<pdfrwt beam="2">  1       -2 0.65473346E-01 0.17094610E+03</pdfrwt>
<totfact> 0.46711047E+01</totfact>
</mgrwt>
</event>
<event>
 4    1  0.4639964E-008  0.6158736E+03  0.7818608E-02  0.9873010E-01
         -2   -1    0    0    0  501 -0.00000000000E+00  0.00000000000E+00  0.98747035219E+03  0.98747035220E+03  0.25500000000E-02 0.  1.
          2   -1    0    0  501    0  0.00000000000E+00 -0.00000000000E+00 -0.11588729005E+04  0.11588729005E+04  0.25500000000E-02 0. -1.
    8880022    1    1    2    0    0  0.14322005633E+02 -0.59640888933E+03 -0.96317638493E+03  0.11432449801E+04  0.15294330000E+03 0. -1.
    8880022    1    1    2    0    0 -0.14322005633E+02  0.59640888933E+03  0.79177383660E+03  0.10030982726E+04  0.15294330000E+03 0.  0.
<mgrwt>
<rscale>  0 0.61587364E+03</rscale>
<asrwt>0</asrwt>
<pdfrwt beam="1">  1        2 0.17828814E+00 0.61587364E+03</pdfrwt>
<pdfrwt beam="2">  1       -2 0.15191852E+00 0.61587364E+03</pdfrwt>
<totfact> 0.60508057E+00</totfact>
</mgrwt>
</event>
<event>
 4    1  0.4639964E-008  0.7190251E+03  0.7818608E-02  0.9685239E-01
          2   -1    0    0  501    0  0.00000000000E+00  0.00000000000E+00  0.59757570501E+03  0.59757570501E+03  0.25500000000E-02 0. -1.
         -2   -1    0    0    0  501 -0.00000000000E+00 -0.00000000000E+00 -0.10632225615E+04  0.10632225615E+04  0.25500000000E-02 0.  1.
    8880022    1    1    2    0    0 -0.44437956834E+03  0.54418028989E+03  0.12558552040E+03  0.72991010721E+03  0.15294330000E+03 0.  0.
    8880022    1    1    2    0    0  0.44437956834E+03 -0.54418028989E+03 -0.59123237694E+03  0.93088815935E+03  0.15294330000E+03 0.  0.
<mgrwt>
<rscale>  0 0.71902506E+03</rscale>
<asrwt>0</asrwt>
<pdfrwt beam="1">  1        2 0.91934724E-01 0.71902506E+03</pdfrwt>
<pdfrwt beam="2">  1       -2 0.16357270E+00 0.71902506E+03</pdfrwt>
<totfact> 0.12040667E+01</totfact>
</mgrwt>
</event>
<event>
 4    1  0.4639964E-008  0.5585765E+03  0.7818608E-02  0.9995281E-01
         -2   -1    0    0    0  501 -0.00000000000E+00  0.00000000000E+00  0.85508366690E+03  0.85508366690E+03  0.25500000000E-02 0.  1.
          2   -1    0    0  501    0  0.00000000000E+00 -0.00000000000E+00 -0.14448944732E+04  0.14448944732E+04  0.25500000000E-02 0. -1.
    8880022    1    1    2    0    0  0.49554211017E+03 -0.20749477139E+03 -0.12891410034E+04  0.14049527546E+04  0.15294330000E+03 0. -1.
    8880022    1    1    2    0    0 -0.49554211017E+03  0.20749477139E+03  0.69933019708E+03  0.89502538549E+03  0.15294330000E+03 0.  0.
<mgrwt>
<rscale>  0 0.55857651E+03</rscale>
<asrwt>0</asrwt>
<pdfrwt beam="1">  1        2 0.22229146E+00 0.55857651E+03</pdfrwt>
<pdfrwt beam="2">  1       -2 0.13155133E+00 0.55857651E+03</pdfrwt>
<totfact> 0.60828002E+00</totfact>
</mgrwt>
</event>
<event>
 4    1  0.4639964E-008  0.5559029E+03  0.7818608E-02  0.1000137E+00
         -2   -1    0    0    0  501 -0.00000000000E+00  0.00000000000E+00  0.55122009672E+03  0.55122009672E+03  0.25500000000E-02 0.  1.
          2   -1    0    0  501    0  0.00000000000E+00 -0.00000000000E+00 -0.16297212706E+04  0.16297212706E+04  0.25500000000E-02 0. -1.
    8880022    1    1    2    0    0  0.31206447135E+03  0.43388039242E+03 -0.14224639240E+04  0.15272300735E+04  0.15294330000E+03 0.  0.
    8880022    1    1    2    0    0 -0.31206447135E+03 -0.43388039242E+03  0.34396275013E+03  0.65371129384E+03  0.15294330000E+03 0.  0.
<mgrwt>
<rscale>  0 0.55590294E+03</rscale>
<asrwt>0</asrwt>
<pdfrwt beam="1">  1        2 0.25072635E+00 0.55590294E+03</pdfrwt>
<pdfrwt beam="2">  1       -2 0.84803093E-01 0.55590294E+03</pdfrwt>
<totfact> 0.13762156E+01</totfact>
</mgrwt>
</event>
<event>
 4    1  0.4639964E-008  0.8257392E+03  0.7818608E-02  0.9523490E-01
          2   -1    0    0  501    0  0.00000000000E+00  0.00000000000E+00  0.37375511309E+04  0.37375511309E+04  0.25500000000E-02 0. -1.
         -2   -1    0    0    0  501 -0.00000000000E+00 -0.00000000000E+00 -0.41384116177E+03  0.41384116178E+03  0.25500000000E-02 0.  1.
    8880022    1    1    2    0    0 -0.48012104063E+03  0.65416921684E+03  0.10968907935E+03  0.83299275211E+03  0.15294330000E+03 0.  0.
    8880022    1    1    2    0    0  0.48012104063E+03 -0.65416921684E+03  0.32140208898E+04  0.33183995406E+04  0.15294330000E+03 0.  0.
<mgrwt>
<rscale>  0 0.82573920E+03</rscale>
<asrwt>0</asrwt>
<pdfrwt beam="1">  1        2 0.57500787E+00 0.82573920E+03</pdfrwt>
<pdfrwt beam="2">  1       -2 0.63667870E-01 0.82573920E+03</pdfrwt>
<totfact> 0.13495690E+00</totfact>
</mgrwt>
</event>
<event>
 4    1  0.4639964E-008  0.1233349E+04  0.7818608E-02  0.9084157E-01
          2   -1    0    0  501    0  0.00000000000E+00  0.00000000000E+00  0.27223788227E+04  0.27223788227E+04  0.25500000000E-02 0. -1.
         -2   -1    0    0    0  501 -0.00000000000E+00 -0.00000000000E+00 -0.62850092585E+03  0.62850092585E+03  0.25500000000E-02 0.  1.
    8880022    1    1    2    0    0 -0.93004589495E+03  0.79546991163E+03  0.16050591418E+04  0.20241947161E+04  0.15294330000E+03 0.  0.
    8880022    1    1    2    0    0  0.93004589495E+03 -0.79546991163E+03  0.48881875505E+03  0.13266850325E+04  0.15294330000E+03 0.  0.
<mgrwt>
<rscale>  0 0.12333489E+04</rscale>
<asrwt>0</asrwt>
<pdfrwt beam="1">  1        2 0.41882751E+00 0.12333489E+04</pdfrwt>
<pdfrwt beam="2">  1       -2 0.96692450E-01 0.12333489E+04</pdfrwt>
<totfact> 0.22629182E+00</totfact>
</mgrwt>
</event>
<event>
 4    1  0.4639964E-008  0.2069902E+03  0.7818608E-02  0.1143972E+00
          2   -1    0    0  501    0  0.00000000000E+00  0.00000000000E+00  0.37520184642E+03  0.37520184643E+03  0.25500000000E-02 0. -1.
         -2   -1    0    0    0  501 -0.00000000000E+00 -0.00000000000E+00 -0.11533689348E+03  0.11533689351E+03  0.25500000000E-02 0.  1.
    8880022    1    1    2    0    0 -0.13920892511E+03  0.86118561018E+01  0.15437218310E+03  0.25821640696E+03  0.15294330000E+03 0.  1.
    8880022    1    1    2    0    0  0.13920892511E+03 -0.86118561018E+01  0.10549276985E+03  0.23232233298E+03  0.15294330000E+03 0. -1.
<mgrwt>
<rscale>  0 0.20699020E+03</rscale>
<asrwt>0</asrwt>
<pdfrwt beam="1">  1        2 0.57723361E-01 0.20699020E+03</pdfrwt>
<pdfrwt beam="2">  1       -2 0.17744137E-01 0.20699020E+03</pdfrwt>
<totfact> 0.21882936E+03</totfact>
</mgrwt>
</event>
<event>
 4    1  0.4639964E-008  0.5597288E+03  0.7818608E-02  0.9992668E-01
          2   -1    0    0  501    0  0.00000000000E+00  0.00000000000E+00  0.30305354380E+03  0.30305354381E+03  0.25500000000E-02 0. -1.
         -2   -1    0    0    0  501 -0.00000000000E+00 -0.00000000000E+00 -0.18132984979E+04  0.18132984979E+04  0.25500000000E-02 0.  1.
    8880022    1    1    2    0    0 -0.24869610595E+03 -0.47755101047E+03 -0.14489176204E+04  0.15532735253E+04  0.15294330000E+03 0.  0.
    8880022    1    1    2    0    0  0.24869610595E+03  0.47755101047E+03 -0.61327333650E+02  0.56307851635E+03  0.15294330000E+03 0.  0.
<mgrwt>
<rscale>  0 0.55972884E+03</rscale>
<asrwt>0</asrwt>
<pdfrwt beam="1">  1        2 0.46623623E-01 0.55972884E+03</pdfrwt>
<pdfrwt beam="2">  1       -2 0.27896899E+00 0.55972884E+03</pdfrwt>
<totfact> 0.49336661E+00</totfact>
</mgrwt>
</event>
<event>
 4    1  0.4639964E-008  0.3377001E+03  0.7818608E-02  0.1067780E+00
          2   -1    0    0  501    0  0.00000000000E+00  0.00000000000E+00  0.13570640034E+04  0.13570640034E+04  0.25500000000E-02 0. -1.
         -2   -1    0    0    0  501 -0.00000000000E+00 -0.00000000000E+00 -0.44541327111E+03  0.44541327112E+03  0.25500000000E-02 0.  1.
    8880022    1    1    2    0    0 -0.29706253091E+03  0.49026261158E+02  0.12676066272E+04  0.13118185606E+04  0.15294330000E+03 0.  0.
    8880022    1    1    2    0    0  0.29706253091E+03 -0.49026261158E+02 -0.35595589484E+03  0.49065871402E+03  0.15294330000E+03 0.  1.
<mgrwt>
<rscale>  0 0.33770013E+03</rscale>
<asrwt>0</asrwt>
<pdfrwt beam="1">  1        2 0.20877908E+00 0.33770013E+03</pdfrwt>
<pdfrwt beam="2">  1       -2 0.68525119E-01 0.33770013E+03</pdfrwt>
<totfact> 0.32527708E+01</totfact>
</mgrwt>
</event>
<event>
 4    1  0.4639964E-008  0.5256579E+03  0.7818608E-02  0.1007291E+00
         -2   -1    0    0    0  501 -0.00000000000E+00  0.00000000000E+00  0.27348804956E+03  0.27348804957E+03  0.25500000000E-02 0.  1.
          2   -1    0    0  501    0  0.00000000000E+00 -0.00000000000E+00 -0.27595935257E+04  0.27595935257E+04  0.25500000000E-02 0. -1.
    8880022    1    1    2    0    0 -0.20733533158E+02 -0.50248850261E+03 -0.35634381989E+02  0.52686434387E+03  0.15294330000E+03 0.  0.
    8880022    1    1    2    0    0  0.20733533158E+02  0.50248850261E+03 -0.24504710942E+04  0.25062172314E+04  0.15294330000E+03 0.  0.
<mgrwt>
<rscale>  0 0.52565790E+03</rscale>
<asrwt>0</asrwt>
<pdfrwt beam="1">  1        2 0.42455283E+00 0.52565790E+03</pdfrwt>
<pdfrwt beam="2">  1       -2 0.42075086E-01 0.52565790E+03</pdfrwt>
<totfact> 0.14443426E+01</totfact>
</mgrwt>
</event>
<event>
 4    1  0.4639964E-008  0.8314760E+03  0.7818608E-02  0.9515542E-01
         -2   -1    0    0    0  501 -0.00000000000E+00  0.00000000000E+00  0.67584051844E+03  0.67584051845E+03  0.25500000000E-02 0.  1.
          2   -1    0    0  501    0  0.00000000000E+00 -0.00000000000E+00 -0.12249113235E+04  0.12249113235E+04  0.25500000000E-02 0. -1.
    8880022    1    1    2    0    0  0.77950653287E+03  0.24562211822E+03 -0.66043578406E+03  0.10618510901E+04  0.15294330000E+03 0.  0.
    8880022    1    1    2    0    0 -0.77950653287E+03 -0.24562211822E+03  0.11136497905E+03  0.83890075177E+03  0.15294330000E+03 0.  0.
<mgrwt>
<rscale>  0 0.83147598E+03</rscale>
<asrwt>0</asrwt>
<pdfrwt beam="1">  1        2 0.18844790E+00 0.83147598E+03</pdfrwt>
<pdfrwt beam="2">  1       -2 0.10397546E+00 0.83147598E+03</pdfrwt>
<totfact> 0.13918700E+01</totfact>
</mgrwt>
</event>
<event>
 4    1  0.7151604E-008  0.7185252E+03  0.7818608E-02  0.9686066E-01
          2   -1    0    0  501    0  0.00000000000E+00  0.00000000000E+00  0.23899334149E+04  0.23899334149E+04  0.25500000000E-02 0. -1.
         -2   -1    0    0    0  501 -0.00000000000E+00 -0.00000000000E+00 -0.83228056379E+03  0.83228056379E+03  0.25500000000E-02 0.  1.
    8880022    1    1    2    0    0 -0.12529238739E+03 -0.69078842641E+03 -0.60751738068E+03  0.94093350097E+03  0.15294330000E+03 0.  0.
    8880022    1    1    2    0    0  0.12529238739E+03  0.69078842641E+03  0.21651702318E+04  0.22812804777E+04  0.15294330000E+03 0.  0.
<mgrwt>
<rscale>  0 0.71852522E+03</rscale>
<asrwt>0</asrwt>
<pdfrwt beam="1">  1        2 0.36768207E+00 0.71852522E+03</pdfrwt>
<pdfrwt beam="2">  1       -2 0.12804316E+00 0.71852522E+03</pdfrwt>
<totfact> 0.19168188E+00</totfact>
</mgrwt>
</event>
<event>
 4    1  0.4639964E-008  0.1753676E+04  0.7818608E-02  0.8731329E-01
         -2   -1    0    0    0  501 -0.00000000000E+00  0.00000000000E+00  0.31902801066E+04  0.31902801066E+04  0.25500000000E-02 0.  1.
          2   -1    0    0  501    0  0.00000000000E+00 -0.00000000000E+00 -0.15688327100E+04  0.15688327100E+04  0.25500000000E-02 0. -1.
    8880022    1    1    2    0    0  0.26673748614E+03  0.17265108036E+04 -0.66678804140E+03  0.18761626759E+04  0.15294330000E+03 0.  0.
    8880022    1    1    2    0    0 -0.26673748614E+03 -0.17265108036E+04  0.22882354380E+04  0.28829501408E+04  0.15294330000E+03 0.  0.
<mgrwt>
<rscale>  0 0.17536762E+04</rscale>
<asrwt>0</asrwt>
<pdfrwt beam="1">  1        2 0.24135888E+00 0.17536762E+04</pdfrwt>
<pdfrwt beam="2">  1       -2 0.49081232E+00 0.17536762E+04</pdfrwt>
<totfact> 0.19827460E-02</totfact>
</mgrwt>
</event>
<event>
 4    1  0.4639964E-008  0.5504865E+03  0.7818608E-02  0.1001381E+00
         -2   -1    0    0    0  501 -0.00000000000E+00  0.00000000000E+00  0.61377417342E+03  0.61377417342E+03  0.25500000000E-02 0.  1.
          2   -1    0    0  501    0  0.00000000000E+00 -0.00000000000E+00 -0.22417256788E+04  0.22417256788E+04  0.25500000000E-02 0. -1.
    8880022    1    1    2    0    0  0.34932077975E+03  0.39701224643E+03 -0.20747338499E+04  0.21465218219E+04  0.15294330000E+03 0. -1.
    8880022    1    1    2    0    0 -0.34932077975E+03 -0.39701224643E+03  0.44678234457E+03  0.70897803027E+03  0.15294330000E+03 0.  0.
<mgrwt>
<rscale>  0 0.55048650E+03</rscale>
<asrwt>0</asrwt>
<pdfrwt beam="1">  1        2 0.34488087E+00 0.55048650E+03</pdfrwt>
<pdfrwt beam="2">  1       -2 0.94426797E-01 0.55048650E+03</pdfrwt>
<totfact> 0.50192110E+00</totfact>
</mgrwt>
</event>
<event>
 4    1  0.4639964E-008  0.1056711E+04  0.7818608E-02  0.9248442E-01
          2   -1    0    0  501    0  0.00000000000E+00  0.00000000000E+00  0.19649489041E+04  0.19649489041E+04  0.25500000000E-02 0. -1.
         -2   -1    0    0    0  501 -0.00000000000E+00 -0.00000000000E+00 -0.12299637139E+04  0.12299637139E+04  0.25500000000E-02 0.  1.
    8880022    1    1    2    0    0  0.36989193137E+02 -0.10449299574E+04  0.15391712331E+04  0.18669993449E+04  0.15294330000E+03 0.  0.
    8880022    1    1    2    0    0 -0.36989193137E+02  0.10449299574E+04 -0.80418604289E+03  0.13279132731E+04  0.15294330000E+03 0.  0.
<mgrwt>
<rscale>  0 0.10567112E+04</rscale>
<asrwt>0</asrwt>
<pdfrwt beam="1">  1        2 0.30229983E+00 0.10567112E+04</pdfrwt>
<pdfrwt beam="2">  1       -2 0.18922519E+00 0.10567112E+04</pdfrwt>
<totfact> 0.10847170E+00</totfact>
</mgrwt>
</event>
<event>
 4    1  0.4639964E-008  0.6573603E+03  0.7818608E-02  0.9793065E-01
          2   -1    0    0  501    0  0.00000000000E+00  0.00000000000E+00  0.40704213000E+03  0.40704213001E+03  0.25500000000E-02 0. -1.
         -2   -1    0    0    0  501 -0.00000000000E+00 -0.00000000000E+00 -0.11799987679E+04  0.11799987679E+04  0.25500000000E-02 0.  1.
    8880022    1    1    2    0    0 -0.62895523283E+03  0.11465707262E+03 -0.63781793122E+03  0.91593356506E+03  0.15294330000E+03 0.  0.
    8880022    1    1    2    0    0  0.62895523283E+03 -0.11465707262E+03 -0.13513870672E+03  0.67110733290E+03  0.15294330000E+03 0.  0.
<mgrwt>
<rscale>  0 0.65736031E+03</rscale>
<asrwt>0</asrwt>
<pdfrwt beam="1">  1        2 0.62621867E-01 0.65736031E+03</pdfrwt>
<pdfrwt beam="2">  1       -2 0.18153827E+00 0.65736031E+03</pdfrwt>
<totfact> 0.14147459E+01</totfact>
</mgrwt>
</event>
<event>
 4    1  0.4639964E-008  0.2617873E+03  0.7818608E-02  0.1106074E+00
         -2   -1    0    0    0  501 -0.00000000000E+00  0.00000000000E+00  0.18244747724E+03  0.18244747726E+03  0.25500000000E-02 0.  1.
          2   -1    0    0  501    0  0.00000000000E+00 -0.00000000000E+00 -0.69741925886E+03  0.69741925886E+03  0.25500000000E-02 0. -1.
    8880022    1    1    2    0    0  0.18542435780E+03 -0.10372449499E+03  0.41345479596E+02  0.26503219621E+03  0.15294330000E+03 0.  0.
    8880022    1    1    2    0    0 -0.18542435780E+03  0.10372449499E+03 -0.55631726121E+03  0.61483453991E+03  0.15294330000E+03 0.  0.
<mgrwt>
<rscale>  0 0.26178735E+03</rscale>
<asrwt>0</asrwt>
<pdfrwt beam="1">  1        2 0.10729527E+00 0.26178735E+03</pdfrwt>
<pdfrwt beam="2">  1       -2 0.28068843E-01 0.26178735E+03</pdfrwt>
<totfact> 0.48945286E+02</totfact>
</mgrwt>
</event>
<event>
 4    1  0.4639964E-008  0.3735615E+03  0.7818608E-02  0.1053339E+00
         -2   -1    0    0    0  501 -0.00000000000E+00  0.00000000000E+00  0.28747533104E+03  0.28747533105E+03  0.25500000000E-02 0.  1.
          2   -1    0    0  501    0  0.00000000000E+00 -0.00000000000E+00 -0.73860594396E+03  0.73860594396E+03  0.25500000000E-02 0. -1.
    8880022    1    1    2    0    0 -0.12214806217E+03 -0.31817667651E+03 -0.52593728953E+03  0.64510327243E+03  0.15294330000E+03 0.  0.
    8880022    1    1    2    0    0  0.12214806217E+03  0.31817667651E+03  0.74806676609E+02  0.38097800258E+03  0.15294330000E+03 0.  0.
<mgrwt>
<rscale>  0 0.37356151E+03</rscale>
<asrwt>0</asrwt>
<pdfrwt beam="1">  1        2 0.11363168E+00 0.37356151E+03</pdfrwt>
<pdfrwt beam="2">  1       -2 0.44226974E-01 0.37356151E+03</pdfrwt>
<totfact> 0.19215046E+02</totfact>
</mgrwt>
</event>
<event>
 4    1  0.4639964E-008  0.1051496E+04  0.7818608E-02  0.9253801E-01
         -2   -1    0    0    0  501 -0.00000000000E+00  0.00000000000E+00  0.11253623920E+04  0.11253623920E+04  0.25500000000E-02 0.  1.
          2   -1    0    0  501    0  0.00000000000E+00 -0.00000000000E+00 -0.21441050670E+04  0.21441050670E+04  0.25500000000E-02 0. -1.
    8880022    1    1    2    0    0  0.71038206856E+03 -0.76000557634E+03  0.69388322232E+03  0.12598082150E+04  0.15294330000E+03 0.  0.
    8880022    1    1    2    0    0 -0.71038206856E+03  0.76000557634E+03 -0.17126258974E+04  0.20096592440E+04  0.15294330000E+03 0.  0.
<mgrwt>
<rscale>  0 0.10514955E+04</rscale>
<asrwt>0</asrwt>
<pdfrwt beam="1">  1        2 0.32986232E+00 0.10514955E+04</pdfrwt>
<pdfrwt beam="2">  1       -2 0.17313268E+00 0.10514955E+04</pdfrwt>
<totfact> 0.11153521E+00</totfact>
</mgrwt>
</event>
<event>
 4    1  0.4639964E-008  0.7909857E+03  0.7818608E-02  0.9573157E-01
          2   -1    0    0  501    0  0.00000000000E+00  0.00000000000E+00  0.96536585604E+03  0.96536585604E+03  0.25500000000E-02 0. -1.
         -2   -1    0    0    0  501 -0.00000000000E+00 -0.00000000000E+00 -0.84471678200E+03  0.84471678200E+03  0.25500000000E-02 0.  1.
    8880022    1    1    2    0    0  0.38665193428E+03 -0.67287965354E+03 -0.37630957291E+03  0.87593795106E+03  0.15294330000E+03 0.  0.
    8880022    1    1    2    0    0 -0.38665193428E+03  0.67287965354E+03  0.49695864695E+03  0.93414468698E+03  0.15294330000E+03 0.  0.
<mgrwt>
<rscale>  0 0.79098571E+03</rscale>
<asrwt>0</asrwt>
<pdfrwt beam="1">  1        2 0.14851782E+00 0.79098571E+03</pdfrwt>
<pdfrwt beam="2">  1       -2 0.12995643E+00 0.79098571E+03</pdfrwt>
<totfact> 0.11671383E+01</totfact>
</mgrwt>
</event>
<event>
 4    1  0.4639964E-008  0.3997850E+03  0.7818608E-02  0.1043854E+00
          2   -1    0    0  501    0  0.00000000000E+00  0.00000000000E+00  0.18848906833E+04  0.18848906833E+04  0.25500000000E-02 0. -1.
         -2   -1    0    0    0  501 -0.00000000000E+00 -0.00000000000E+00 -0.56881048784E+03  0.56881048784E+03  0.25500000000E-02 0.  1.
    8880022    1    1    2    0    0  0.27334222700E+03 -0.24843586800E+03 -0.47367683892E+03  0.61983687718E+03  0.15294330000E+03 0.  0.
    8880022    1    1    2    0    0 -0.27334222700E+03  0.24843586800E+03  0.17897570344E+04  0.18338642940E+04  0.15294330000E+03 0.  0.
<mgrwt>
<rscale>  0 0.39978495E+03</rscale>
<asrwt>0</asrwt>
<pdfrwt beam="1">  1        2 0.28998318E+00 0.39978495E+03</pdfrwt>
<pdfrwt beam="2">  1       -2 0.87509307E-01 0.39978495E+03</pdfrwt>
<totfact> 0.96850335E+00</totfact>
</mgrwt>
</event>
<event>
 4    1  0.4639964E-008  0.1480135E+04  0.7818608E-02  0.8897771E-01
          2   -1    0    0  501    0  0.00000000000E+00  0.00000000000E+00  0.31859958983E+04  0.31859958984E+04  0.25500000000E-02 0. -1.
         -2   -1    0    0    0  501 -0.00000000000E+00 -0.00000000000E+00 -0.76673863390E+03  0.76673863390E+03  0.25500000000E-02 0.  1.
    8880022    1    1    2    0    0 -0.40549827819E+03 -0.14152665916E+04  0.18444391906E+04  0.23649008351E+04  0.15294330000E+03 0.  0.
    8880022    1    1    2    0    0  0.40549827819E+03  0.14152665916E+04  0.57481807382E+03  0.15878336972E+04  0.15294330000E+03 0.  0.
<mgrwt>
<rscale>  0 0.14801351E+04</rscale>
<asrwt>0</asrwt>
<pdfrwt beam="1">  1        2 0.49015322E+00 0.14801351E+04</pdfrwt>
<pdfrwt beam="2">  1       -2 0.11795979E+00 0.14801351E+04</pdfrwt>
<totfact> 0.70211983E-01</totfact>
</mgrwt>
</event>
<event>
 4    1  0.4639964E-008  0.2381450E+03  0.7818608E-02  0.1121035E+00
         -2   -1    0    0    0  501 -0.00000000000E+00  0.00000000000E+00  0.33331511566E+03  0.33331511567E+03  0.25500000000E-02 0.  1.
          2   -1    0    0  501    0  0.00000000000E+00 -0.00000000000E+00 -0.38541493431E+03  0.38541493432E+03  0.25500000000E-02 0. -1.
    8880022    1    1    2    0    0 -0.16730929680E+03  0.73000019987E+02 -0.29462128730E+03  0.37883341941E+03  0.15294330000E+03 0.  0.
    8880022    1    1    2    0    0  0.16730929680E+03 -0.73000019987E+02  0.24252146864E+03  0.33989663058E+03  0.15294330000E+03 0.  0.
<mgrwt>
<rscale>  0 0.23814503E+03</rscale>
<asrwt>0</asrwt>
<pdfrwt beam="1">  1        2 0.59294606E-01 0.23814503E+03</pdfrwt>
<pdfrwt beam="2">  1       -2 0.51279248E-01 0.23814503E+03</pdfrwt>
<totfact> 0.30616303E+02</totfact>
</mgrwt>
</event>
<event>
 4    1  0.4639964E-008  0.1106822E+04  0.7818608E-02  0.9198568E-01
          2   -1    0    0  501    0  0.00000000000E+00  0.00000000000E+00  0.31876611215E+04  0.31876611215E+04  0.25500000000E-02 0. -1.
         -2   -1    0    0    0  501 -0.00000000000E+00 -0.00000000000E+00 -0.62283288535E+03  0.62283288536E+03  0.25500000000E-02 0.  1.
    8880022    1    1    2    0    0  0.95176654417E+03 -0.54387858171E+03  0.10337260149E+03  0.11116388865E+04  0.15294330000E+03 0.  0.
    8880022    1    1    2    0    0 -0.95176654417E+03  0.54387858171E+03  0.24614556347E+04  0.26988551204E+04  0.15294330000E+03 0.  0.
<mgrwt>
<rscale>  0 0.11068221E+04</rscale>
<asrwt>0</asrwt>
<pdfrwt beam="1">  1        2 0.49040941E+00 0.11068221E+04</pdfrwt>
<pdfrwt beam="2">  1       -2 0.95820443E-01 0.11068221E+04</pdfrwt>
<totfact> 0.12160564E+00</totfact>
</mgrwt>
</event>
<event>
 4    1  0.4639964E-008  0.3241959E+03  0.7818608E-02  0.1073734E+00
          2   -1    0    0  501    0  0.00000000000E+00  0.00000000000E+00  0.13880196490E+04  0.13880196490E+04  0.25500000000E-02 0. -1.
         -2   -1    0    0    0  501 -0.00000000000E+00 -0.00000000000E+00 -0.18452916789E+03  0.18452916791E+03  0.25500000000E-02 0.  1.
    8880022    1    1    2    0    0  0.87616319160E+02 -0.27209322206E+03  0.12055149037E+04  0.12483465772E+04  0.15294330000E+03 0.  0.
    8880022    1    1    2    0    0 -0.87616319160E+02  0.27209322206E+03 -0.20244226292E+01  0.32420223962E+03  0.15294330000E+03 0.  0.
<mgrwt>
<rscale>  0 0.32419592E+03</rscale>
<asrwt>0</asrwt>
<pdfrwt beam="1">  1        2 0.21354148E+00 0.32419592E+03</pdfrwt>
<pdfrwt beam="2">  1       -2 0.28389103E-01 0.32419592E+03</pdfrwt>
<totfact> 0.17746823E+02</totfact>
</mgrwt>
</event>
<event>
 4    1  0.4639964E-008  0.2060843E+03  0.7818608E-02  0.1144705E+00
         -2   -1    0    0    0  501 -0.00000000000E+00  0.00000000000E+00  0.20519350048E+03  0.20519350050E+03  0.25500000000E-02 0.  1.
          2   -1    0    0  501    0  0.00000000000E+00 -0.00000000000E+00 -0.31654043563E+03  0.31654043564E+03  0.25500000000E-02 0. -1.
    8880022    1    1    2    0    0 -0.13633178043E+03  0.22197611630E+02 -0.20914696516E+03  0.29362083436E+03  0.15294330000E+03 0. -1.
    8880022    1    1    2    0    0  0.13633178043E+03 -0.22197611630E+02  0.97800030016E+02  0.22811310178E+03  0.15294330000E+03 0. -1.
<mgrwt>
<rscale>  0 0.20608431E+03</rscale>
<asrwt>0</asrwt>
<pdfrwt beam="1">  1        2 0.48698529E-01 0.20608431E+03</pdfrwt>
<pdfrwt beam="2">  1       -2 0.31568231E-01 0.20608431E+03</pdfrwt>
<totfact> 0.95853487E+02</totfact>
</mgrwt>
</event>
<event>
 4    1  0.4639964E-008  0.2599286E+03  0.7818608E-02  0.1107186E+00
         -2   -1    0    0    0  501 -0.00000000000E+00  0.00000000000E+00  0.57089040967E+03  0.57089040967E+03  0.25500000000E-02 0.  1.
          2   -1    0    0  501    0  0.00000000000E+00 -0.00000000000E+00 -0.10579339551E+04  0.10579339551E+04  0.25500000000E-02 0. -1.
    8880022    1    1    2    0    0 -0.15418539762E+02  0.20960312796E+03  0.52398744271E+03  0.58491511842E+03  0.15294330000E+03 0.  0.
    8880022    1    1    2    0    0  0.15418539762E+02 -0.20960312796E+03 -0.10110309882E+04  0.10439092464E+04  0.15294330000E+03 0. -1.
<mgrwt>
<rscale>  0 0.25992856E+03</rscale>
<asrwt>0</asrwt>
<pdfrwt beam="1">  1        2 0.16275907E+00 0.25992856E+03</pdfrwt>
<pdfrwt beam="2">  1       -2 0.87829294E-01 0.25992856E+03</pdfrwt>
<totfact> 0.28527034E+01</totfact>
</mgrwt>
</event>
<event>
 4    1  0.4639964E-008  0.3145376E+03  0.7818608E-02  0.1078191E+00
          2   -1    0    0  501    0  0.00000000000E+00  0.00000000000E+00  0.18127503035E+04  0.18127503035E+04  0.25500000000E-02 0. -1.
         -2   -1    0    0    0  501 -0.00000000000E+00 -0.00000000000E+00 -0.25306304174E+03  0.25306304175E+03  0.25500000000E-02 0.  1.
    8880022    1    1    2    0    0 -0.12120614199E+03 -0.24668054474E+03 -0.13492669654E+03  0.34225587864E+03  0.15294330000E+03 0.  0.
    8880022    1    1    2    0    0  0.12120614199E+03  0.24668054474E+03  0.16946139583E+04  0.17235574666E+04  0.15294330000E+03 0.  0.
<mgrwt>
<rscale>  0 0.31453755E+03</rscale>
<asrwt>0</asrwt>
<pdfrwt beam="1">  1        2 0.27888465E+00 0.31453755E+03</pdfrwt>
<pdfrwt beam="2">  1       -2 0.38932777E-01 0.31453755E+03</pdfrwt>
<totfact> 0.58498043E+01</totfact>
</mgrwt>
</event>
<event>
 4    1  0.4639964E-008  0.3217384E+03  0.7818608E-02  0.1074852E+00
          2   -1    0    0  501    0  0.00000000000E+00  0.00000000000E+00  0.97561373842E+03  0.97561373842E+03  0.25500000000E-02 0. -1.
         -2   -1    0    0    0  501 -0.00000000000E+00 -0.00000000000E+00 -0.62839303736E+03  0.62839303736E+03  0.25500000000E-02 0.  1.
    8880022    1    1    2    0    0 -0.17896501134E+03 -0.21930682190E+03  0.90477698260E+03  0.96027964608E+03  0.15294330000E+03 0.  0.
    8880022    1    1    2    0    0  0.17896501134E+03  0.21930682190E+03 -0.55755628154E+03  0.64372712971E+03  0.15294330000E+03 0.  0.
<mgrwt>
<rscale>  0 0.32173842E+03</rscale>
<asrwt>0</asrwt>
<pdfrwt beam="1">  1        2 0.15009442E+00 0.32173842E+03</pdfrwt>
<pdfrwt beam="2">  1       -2 0.96675852E-01 0.32173842E+03</pdfrwt>
<totfact> 0.25310017E+01</totfact>
</mgrwt>
</event>
<event>
 4    1  0.4639964E-008  0.6125435E+03  0.7818608E-02  0.9879719E-01
         -2   -1    0    0    0  501 -0.00000000000E+00  0.00000000000E+00  0.29637182776E+03  0.29637182777E+03  0.25500000000E-02 0.  1.
          2   -1    0    0  501    0  0.00000000000E+00 -0.00000000000E+00 -0.16421903065E+04  0.16421903065E+04  0.25500000000E-02 0. -1.
    8880022    1    1    2    0    0  0.47540591768E+03  0.35469290961E+03 -0.11368220882E+04  0.12913457941E+04  0.15294330000E+03 0.  0.
    8880022    1    1    2    0    0 -0.47540591768E+03 -0.35469290961E+03 -0.20899639053E+03  0.64721634016E+03  0.15294330000E+03 0.  0.
<mgrwt>
<rscale>  0 0.61254347E+03</rscale>
<asrwt>0</asrwt>
<pdfrwt beam="1">  1        2 0.25264466E+00 0.61254347E+03</pdfrwt>
<pdfrwt beam="2">  1       -2 0.45595667E-01 0.61254347E+03</pdfrwt>
<totfact> 0.50157582E+01</totfact>
</mgrwt>
</event>
<event>
 4    1  0.4639964E-008  0.3822584E+03  0.7818608E-02  0.1050102E+00
         -2   -1    0    0    0  501 -0.00000000000E+00  0.00000000000E+00  0.78492686290E+02  0.78492686331E+02  0.25500000000E-02 0.  1.
          2   -1    0    0  501    0  0.00000000000E+00 -0.00000000000E+00 -0.36519812811E+04  0.36519812811E+04  0.25500000000E-02 0. -1.
    8880022    1    1    2    0    0  0.21965438965E+03 -0.27291347440E+03 -0.48074390075E+03  0.61419554421E+03  0.15294330000E+03 0.  0.
    8880022    1    1    2    0    0 -0.21965438965E+03  0.27291347440E+03 -0.30927446941E+04  0.31162784233E+04  0.15294330000E+03 0. -1.
<mgrwt>
<rscale>  0 0.38225838E+03</rscale>
<asrwt>0</asrwt>
<pdfrwt beam="1">  1        2 0.56184314E+00 0.38225838E+03</pdfrwt>
<pdfrwt beam="2">  1       -2 0.12075801E-01 0.38225838E+03</pdfrwt>
<totfact> 0.37608199E+01</totfact>
</mgrwt>
</event>
<event>
 4    1  0.4639964E-008  0.1554257E+03  0.7818608E-02  0.1193960E+00
         -2   -1    0    0    0  501 -0.00000000000E+00  0.00000000000E+00  0.31794847906E+03  0.31794847907E+03  0.25500000000E-02 0.  1.
          2   -1    0    0  501    0  0.00000000000E+00 -0.00000000000E+00 -0.13468645107E+03  0.13468645109E+03  0.25500000000E-02 0. -1.
    8880022    1    1    2    0    0  0.26748982821E+02 -0.70692938707E+01 -0.57788006773E+02  0.16582095688E+03  0.15294330000E+03 0.  0.
    8880022    1    1    2    0    0 -0.26748982821E+02  0.70692938707E+01  0.24105003477E+03  0.28681397329E+03  0.15294330000E+03 0.  1.
<mgrwt>
<rscale>  0 0.15542566E+03</rscale>
<asrwt>0</asrwt>
<pdfrwt beam="1">  1        2 0.20720993E-01 0.15542566E+03</pdfrwt>
<pdfrwt beam="2">  1       -2 0.48915150E-01 0.15542566E+03</pdfrwt>
<totfact> 0.10552376E+03</totfact>
</mgrwt>
</event>
<event>
 4    1  0.4639964E-008  0.9853992E+03  0.7818608E-02  0.9324705E-01
         -2   -1    0    0    0  501 -0.00000000000E+00  0.00000000000E+00  0.12839109990E+04  0.12839109990E+04  0.25500000000E-02 0.  1.
          2   -1    0    0  501    0  0.00000000000E+00 -0.00000000000E+00 -0.15289789732E+04  0.15289789732E+04  0.25500000000E-02 0. -1.
    8880022    1    1    2    0    0  0.85886510044E+03 -0.45822561586E+03 -0.11223585119E+04  0.14935528976E+04  0.15294330000E+03 0.  0.
    8880022    1    1    2    0    0 -0.85886510044E+03  0.45822561586E+03  0.87729053765E+03  0.13193370745E+04  0.15294330000E+03 0.  0.
<mgrwt>
<rscale>  0 0.98539922E+03</rscale>
<asrwt>0</asrwt>
<pdfrwt beam="1">  1        2 0.23522753E+00 0.98539922E+03</pdfrwt>
<pdfrwt beam="2">  1       -2 0.19752477E+00 0.98539922E+03</pdfrwt>
<totfact> 0.16807249E+00</totfact>
</mgrwt>
</event>
<event>
 4    1  0.4639964E-008  0.4570376E+03  0.7818608E-02  0.1025644E+00
         -2   -1    0    0    0  501 -0.00000000000E+00  0.00000000000E+00  0.61544280187E+03  0.61544280188E+03  0.25500000000E-02 0.  1.
          2   -1    0    0  501    0  0.00000000000E+00 -0.00000000000E+00 -0.17029228273E+04  0.17029228273E+04  0.25500000000E-02 0. -1.
    8880022    1    1    2    0    0  0.39894150803E+03  0.16228810310E+03  0.49351396255E+03  0.67263618657E+03  0.15294330000E+03 0.  0.
    8880022    1    1    2    0    0 -0.39894150803E+03 -0.16228810310E+03 -0.15809939880E+04  0.16457294426E+04  0.15294330000E+03 0.  0.
<mgrwt>
<rscale>  0 0.45703764E+03</rscale>
<asrwt>0</asrwt>
<pdfrwt beam="1">  1        2 0.26198813E+00 0.45703764E+03</pdfrwt>
<pdfrwt beam="2">  1       -2 0.94683509E-01 0.45703764E+03</pdfrwt>
<totfact> 0.99635872E+00</totfact>
</mgrwt>
</event>
<event>
 4    1  0.4639964E-008  0.5215236E+03  0.7818608E-02  0.1008309E+00
          2   -1    0    0  501    0  0.00000000000E+00  0.00000000000E+00  0.88107145652E+03  0.88107145653E+03  0.25500000000E-02 0. -1.
         -2   -1    0    0    0  501 -0.00000000000E+00 -0.00000000000E+00 -0.40118103951E+03  0.40118103952E+03  0.25500000000E-02 0.  1.
    8880022    1    1    2    0    0 -0.47893639394E+03  0.13861884784E+03  0.54776696541E+03  0.75633032190E+03  0.15294330000E+03 0.  0.
    8880022    1    1    2    0    0  0.47893639394E+03 -0.13861884784E+03 -0.67876548397E+02  0.52592217414E+03  0.15294330000E+03 0.  0.
<mgrwt>
<rscale>  0 0.52152364E+03</rscale>
<asrwt>0</asrwt>
<pdfrwt beam="1">  1        2 0.13554945E+00 0.52152364E+03</pdfrwt>
<pdfrwt beam="2">  1       -2 0.61720160E-01 0.52152364E+03</pdfrwt>
<totfact> 0.76202933E+01</totfact>
</mgrwt>
</event>
<event>
 4    1  0.4639964E-008  0.2486366E+03  0.7818608E-02  0.1114170E+00
         -2   -1    0    0    0  501 -0.00000000000E+00  0.00000000000E+00  0.24037213739E+03  0.24037213740E+03  0.25500000000E-02 0.  1.
          2   -1    0    0  501    0  0.00000000000E+00 -0.00000000000E+00 -0.67210060657E+03  0.67210060658E+03  0.25500000000E-02 0. -1.
    8880022    1    1    2    0    0 -0.18664667274E+03 -0.59929136555E+02 -0.57433404697E+03  0.62584321709E+03  0.15294330000E+03 0. -1.
    8880022    1    1    2    0    0  0.18664667274E+03  0.59929136555E+02  0.14260557778E+03  0.28662952689E+03  0.15294330000E+03 0.  0.
<mgrwt>
<rscale>  0 0.24863655E+03</rscale>
<asrwt>0</asrwt>
<pdfrwt beam="1">  1        2 0.10340009E+00 0.24863655E+03</pdfrwt>
<pdfrwt beam="2">  1       -2 0.36980329E-01 0.24863655E+03</pdfrwt>
<totfact> 0.30816225E+02</totfact>
</mgrwt>
</event>
<event>
 4    1  0.4639964E-008  0.3832562E+03  0.7818608E-02  0.1049737E+00
         -2   -1    0    0    0  501 -0.00000000000E+00  0.00000000000E+00  0.37806422503E+03  0.37806422504E+03  0.25500000000E-02 0.  1.
          2   -1    0    0  501    0  0.00000000000E+00 -0.00000000000E+00 -0.40249291334E+03  0.40249291335E+03  0.25500000000E-02 0. -1.
    8880022    1    1    2    0    0 -0.30867011445E+03  0.16797743056E+03  0.60504574278E+02  0.38800272326E+03  0.15294330000E+03 0.  0.
    8880022    1    1    2    0    0  0.30867011445E+03 -0.16797743056E+03 -0.84933262586E+02  0.39255441513E+03  0.15294330000E+03 0.  0.
<mgrwt>
<rscale>  0 0.38325619E+03</rscale>
<asrwt>0</asrwt>
<pdfrwt beam="1">  1        2 0.61921987E-01 0.38325619E+03</pdfrwt>
<pdfrwt beam="2">  1       -2 0.58163727E-01 0.38325619E+03</pdfrwt>
<totfact> 0.22388431E+02</totfact>
</mgrwt>
</event>
<event>
 4    1  0.4639964E-008  0.3043163E+03  0.7818608E-02  0.1083103E+00
         -2   -1    0    0    0  501 -0.00000000000E+00  0.00000000000E+00  0.11404305317E+04  0.11404305317E+04  0.25500000000E-02 0.  1.
          2   -1    0    0  501    0  0.00000000000E+00 -0.00000000000E+00 -0.14573568641E+03  0.14573568643E+03  0.25500000000E-02 0. -1.
    8880022    1    1    2    0    0  0.21419691134E+03 -0.15276263801E+03  0.69422007911E+02  0.31213427975E+03  0.15294330000E+03 0.  0.
    8880022    1    1    2    0    0 -0.21419691134E+03  0.15276263801E+03  0.92527283736E+03  0.97403193837E+03  0.15294330000E+03 0.  1.
<mgrwt>
<rscale>  0 0.30431627E+03</rscale>
<asrwt>0</asrwt>
<pdfrwt beam="1">  1        2 0.22420874E-01 0.30431627E+03</pdfrwt>
<pdfrwt beam="2">  1       -2 0.17545086E+00 0.30431627E+03</pdfrwt>
<totfact> 0.50877531E+01</totfact>
</mgrwt>
</event>
<event>
 4    1  0.4639964E-008  0.5397507E+03  0.7818608E-02  0.1003894E+00
          2   -1    0    0  501    0  0.00000000000E+00  0.00000000000E+00  0.13608081545E+04  0.13608081545E+04  0.25500000000E-02 0. -1.
         -2   -1    0    0    0  501 -0.00000000000E+00 -0.00000000000E+00 -0.24329604583E+03  0.24329604584E+03  0.25500000000E-02 0.  1.
    8880022    1    1    2    0    0  0.48881404561E+03  0.17029384114E+03  0.28085091737E+03  0.60844724859E+03  0.15294330000E+03 0.  0.
    8880022    1    1    2    0    0 -0.48881404561E+03 -0.17029384114E+03  0.83666119126E+03  0.99565695171E+03  0.15294330000E+03 0.  0.
<mgrwt>
<rscale>  0 0.53975070E+03</rscale>
<asrwt>0</asrwt>
<pdfrwt beam="1">  1        2 0.20935510E+00 0.53975070E+03</pdfrwt>
<pdfrwt beam="2">  1       -2 0.37430161E-01 0.53975070E+03</pdfrwt>
<totfact> 0.10648882E+02</totfact>
</mgrwt>
</event>
<event>
 4    1  0.4639964E-008  0.5561383E+03  0.7818608E-02  0.1000083E+00
          2   -1    0    0  501    0  0.00000000000E+00  0.00000000000E+00  0.28481259155E+04  0.28481259155E+04  0.25500000000E-02 0. -1.
         -2   -1    0    0    0  501 -0.00000000000E+00 -0.00000000000E+00 -0.22395357099E+03  0.22395357101E+03  0.25500000000E-02 0.  1.
    8880022    1    1    2    0    0 -0.51792970521E+03  0.13284186210E+03  0.20965875933E+03  0.59434551251E+03  0.15294330000E+03 0.  0.
    8880022    1    1    2    0    0  0.51792970521E+03 -0.13284186210E+03  0.24145135851E+04  0.24777339740E+04  0.15294330000E+03 0.  0.
<mgrwt>
<rscale>  0 0.55613829E+03</rscale>
<asrwt>0</asrwt>
<pdfrwt beam="1">  1        2 0.43817320E+00 0.55613829E+03</pdfrwt>
<pdfrwt beam="2">  1       -2 0.34454397E-01 0.55613829E+03</pdfrwt>
<totfact> 0.18690740E+01</totfact>
</mgrwt>
</event>
<event>
 4    1  0.4639964E-008  0.4831404E+03  0.7818608E-02  0.1018276E+00
         -2   -1    0    0    0  501 -0.00000000000E+00  0.00000000000E+00  0.25438931818E+03  0.25438931820E+03  0.25500000000E-02 0.  1.
          2   -1    0    0  501    0  0.00000000000E+00 -0.00000000000E+00 -0.12167813641E+04  0.12167813641E+04  0.25500000000E-02 0. -1.
    8880022    1    1    2    0    0  0.27033959653E+03 -0.37006690323E+03 -0.11643993587E+03  0.49697376390E+03  0.15294330000E+03 0.  0.
    8880022    1    1    2    0    0 -0.27033959653E+03  0.37006690323E+03 -0.84595211005E+03  0.97419691841E+03  0.15294330000E+03 0.  0.
<mgrwt>
<rscale>  0 0.48314042E+03</rscale>
<asrwt>0</asrwt>
<pdfrwt beam="1">  1        2 0.18719713E+00 0.48314042E+03</pdfrwt>
<pdfrwt beam="2">  1       -2 0.39136819E-01 0.48314042E+03</pdfrwt>
<totfact> 0.11890439E+02</totfact>
</mgrwt>
</event>
<event>
 4    1  0.4639964E-008  0.4688540E+03  0.7818608E-02  0.1022244E+00
         -2   -1    0    0    0  501 -0.00000000000E+00  0.00000000000E+00  0.22809948451E+03  0.22809948453E+03  0.25500000000E-02 0.  1.
          2   -1    0    0  501    0  0.00000000000E+00 -0.00000000000E+00 -0.99573624445E+03  0.99573624446E+03  0.25500000000E-02 0. -1.
    8880022    1    1    2    0    0  0.43891665647E+03  0.61519006546E+02 -0.49354324608E+03  0.68074151354E+03  0.15294330000E+03 0.  0.
    8880022    1    1    2    0    0 -0.43891665647E+03 -0.61519006546E+02 -0.27409351386E+03  0.54309421544E+03  0.15294330000E+03 0.  0.
<mgrwt>
<rscale>  0 0.46885400E+03</rscale>
<asrwt>0</asrwt>
<pdfrwt beam="1">  1        2 0.15319019E+00 0.46885400E+03</pdfrwt>
<pdfrwt beam="2">  1       -2 0.35092229E-01 0.46885400E+03</pdfrwt>
<totfact> 0.19924660E+02</totfact>
</mgrwt>
</event>
<event>
 4    1  0.4639964E-008  0.4593360E+03  0.7818608E-02  0.1024974E+00
          2   -1    0    0  501    0  0.00000000000E+00  0.00000000000E+00  0.36106612947E+04  0.36106612947E+04  0.25500000000E-02 0. -1.
         -2   -1    0    0    0  501 -0.00000000000E+00 -0.00000000000E+00 -0.15522413091E+03  0.15522413094E+03  0.25500000000E-02 0.  1.
    8880022    1    1    2    0    0  0.59357992320E+02 -0.42903906305E+03  0.24085733398E+03  0.51865383178E+03  0.15294330000E+03 0.  0.
    8880022    1    1    2    0    0 -0.59357992320E+02  0.42903906305E+03  0.32145798298E+04  0.32472315938E+04  0.15294330000E+03 0.  0.
<mgrwt>
<rscale>  0 0.45933598E+03</rscale>
<asrwt>0</asrwt>
<pdfrwt beam="1">  1        2 0.55548636E+00 0.45933598E+03</pdfrwt>
<pdfrwt beam="2">  1       -2 0.23880635E-01 0.45933598E+03</pdfrwt>
<totfact> 0.12288609E+01</totfact>
</mgrwt>
</event>
<event>
 4    1  0.4639964E-008  0.6723871E+03  0.7818608E-02  0.9765655E-01
          2   -1    0    0  501    0  0.00000000000E+00  0.00000000000E+00  0.17577431554E+04  0.17577431554E+04  0.25500000000E-02 0. -1.
         -2   -1    0    0    0  501 -0.00000000000E+00 -0.00000000000E+00 -0.85837074710E+03  0.85837074710E+03  0.25500000000E-02 0.  1.
    8880022    1    1    2    0    0  0.85745826268E+02 -0.64912283886E+03  0.15443618688E+04  0.16843865476E+04  0.15294330000E+03 0.  0.
    8880022    1    1    2    0    0 -0.85745826268E+02  0.64912283886E+03 -0.64498946056E+03  0.93172735492E+03  0.15294330000E+03 0.  0.
<mgrwt>
<rscale>  0 0.67238714E+03</rscale>
<asrwt>0</asrwt>
<pdfrwt beam="1">  1        2 0.27042203E+00 0.67238714E+03</pdfrwt>
<pdfrwt beam="2">  1       -2 0.13205704E+00 0.67238714E+03</pdfrwt>
<totfact> 0.39720186E+00</totfact>
</mgrwt>
</event>
<event>
 4    1  0.4639964E-008  0.3960982E+03  0.7818608E-02  0.1045139E+00
         -2   -1    0    0    0  501 -0.00000000000E+00  0.00000000000E+00  0.19105380771E+04  0.19105380771E+04  0.25500000000E-02 0.  1.
          2   -1    0    0  501    0  0.00000000000E+00 -0.00000000000E+00 -0.27195453401E+03  0.27195453402E+03  0.25500000000E-02 0. -1.
    8880022    1    1    2    0    0 -0.26913875335E+03  0.24711632974E+03 -0.92429308443E+02  0.40673944861E+03  0.15294330000E+03 0.  0.
    8880022    1    1    2    0    0  0.26913875335E+03 -0.24711632974E+03  0.17310128515E+04  0.17757531625E+04  0.15294330000E+03 0.  0.
<mgrwt>
<rscale>  0 0.39609822E+03</rscale>
<asrwt>0</asrwt>
<pdfrwt beam="1">  1        2 0.41839159E-01 0.39609822E+03</pdfrwt>
<pdfrwt beam="2">  1       -2 0.29392893E+00 0.39609822E+03</pdfrwt>
<totfact> 0.46864500E+00</totfact>
</mgrwt>
</event>
<event>
 4    1  0.4639964E-008  0.5565283E+03  0.7818608E-02  0.9999941E-01
         -2   -1    0    0    0  501 -0.00000000000E+00  0.00000000000E+00  0.43831214649E+03  0.43831214650E+03  0.25500000000E-02 0.  1.
          2   -1    0    0  501    0  0.00000000000E+00 -0.00000000000E+00 -0.10399356208E+04  0.10399356208E+04  0.25500000000E-02 0. -1.
    8880022    1    1    2    0    0 -0.20536410358E+03  0.49412312539E+03 -0.71925491202E+03  0.90942364141E+03  0.15294330000E+03 0.  0.
    8880022    1    1    2    0    0  0.20536410358E+03 -0.49412312539E+03  0.11763143767E+03  0.56882412592E+03  0.15294330000E+03 0.  0.
<mgrwt>
<rscale>  0 0.55652828E+03</rscale>
<asrwt>0</asrwt>
<pdfrwt beam="1">  1        2 0.15999010E+00 0.55652828E+03</pdfrwt>
<pdfrwt beam="2">  1       -2 0.67432638E-01 0.55652828E+03</pdfrwt>
<totfact> 0.49640449E+01</totfact>
</mgrwt>
</event>
<event>
 4    1  0.6340637E-008  0.5578648E+03  0.7818608E-02  0.9996898E-01
         -2   -1    0    0    0  501 -0.00000000000E+00  0.00000000000E+00  0.95280600408E+03  0.95280600408E+03  0.25500000000E-02 0.  1.
          2   -1    0    0  501    0  0.00000000000E+00 -0.00000000000E+00 -0.20012693594E+04  0.20012693594E+04  0.25500000000E-02 0. -1.
    8880022    1    1    2    0    0  0.52324971753E+03 -0.11845345489E+03 -0.18753696687E+04  0.19565849164E+04  0.15294330000E+03 0.  0.
    8880022    1    1    2    0    0 -0.52324971753E+03  0.11845345489E+03  0.82690631338E+03  0.99749044707E+03  0.15294330000E+03 0.  0.
<mgrwt>
<rscale>  0 0.55786481E+03</rscale>
<asrwt>0</asrwt>
<pdfrwt beam="1">  1        2 0.30788759E+00 0.55786481E+03</pdfrwt>
<pdfrwt beam="2">  1       -2 0.14658554E+00 0.55786481E+03</pdfrwt>
<totfact> 0.22967069E+00</totfact>
</mgrwt>
</event>
<event>
 4    1  0.4639964E-008  0.2413895E+03  0.7818608E-02  0.1118871E+00
          2   -1    0    0  501    0  0.00000000000E+00  0.00000000000E+00  0.73851200394E+03  0.73851200394E+03  0.25500000000E-02 0. -1.
         -2   -1    0    0    0  501 -0.00000000000E+00 -0.00000000000E+00 -0.93182217267E+02  0.93182217302E+02  0.25500000000E-02 0.  1.
    8880022    1    1    2    0    0 -0.13969523095E+03  0.12394541631E+03  0.15986308362E+03  0.28952561595E+03  0.15294330000E+03 0.  0.
    8880022    1    1    2    0    0  0.13969523095E+03 -0.12394541631E+03  0.48546670305E+03  0.54216860529E+03  0.15294330000E+03 0.  0.
<mgrwt>
<rscale>  0 0.24138947E+03</rscale>
<asrwt>0</asrwt>
<pdfrwt beam="1">  1        2 0.11361723E+00 0.24138947E+03</pdfrwt>
<pdfrwt beam="2">  1       -2 0.14335726E-01 0.24138947E+03</pdfrwt>
<totfact> 0.14481803E+03</totfact>
</mgrwt>
</event>
<event>
 4    1  0.4639964E-008  0.1956701E+03  0.7818608E-02  0.1153444E+00
          2   -1    0    0  501    0  0.00000000000E+00  0.00000000000E+00  0.89873466605E+03  0.89873466605E+03  0.25500000000E-02 0. -1.
         -2   -1    0    0    0  501 -0.00000000000E+00 -0.00000000000E+00 -0.30134367102E+03  0.30134367104E+03  0.25500000000E-02 0.  1.
    8880022    1    1    2    0    0 -0.85946657087E+02 -0.86650499178E+02  0.85470572960E+03  0.87681735504E+03  0.15294330000E+03 0.  0.
    8880022    1    1    2    0    0  0.85946657087E+02  0.86650499178E+02 -0.25731473457E+03  0.32326098205E+03  0.15294330000E+03 0.  1.
<mgrwt>
<rscale>  0 0.19567010E+03</rscale>
<asrwt>0</asrwt>
<pdfrwt beam="1">  1        2 0.13826687E+00 0.19567010E+03</pdfrwt>
<pdfrwt beam="2">  1       -2 0.46360565E-01 0.19567010E+03</pdfrwt>
<totfact> 0.13953183E+02</totfact>
</mgrwt>
</event>
<event>
 4    1  0.4639964E-008  0.4823079E+03  0.7818608E-02  0.1018503E+00
         -2   -1    0    0    0  501 -0.00000000000E+00  0.00000000000E+00  0.41246471625E+03  0.41246471626E+03  0.25500000000E-02 0.  1.
          2   -1    0    0  501    0  0.00000000000E+00 -0.00000000000E+00 -0.13325402704E+04  0.13325402704E+04  0.25500000000E-02 0. -1.
    8880022    1    1    2    0    0 -0.29208758873E+03  0.35201438930E+03  0.20258459150E+03  0.52312661899E+03  0.15294330000E+03 0.  0.
    8880022    1    1    2    0    0  0.29208758873E+03 -0.35201438930E+03 -0.11226601456E+04  0.12218783677E+04  0.15294330000E+03 0.  0.
<mgrwt>
<rscale>  0 0.48230793E+03</rscale>
<asrwt>0</asrwt>
<pdfrwt beam="1">  1        2 0.20500619E+00 0.48230793E+03</pdfrwt>
<pdfrwt beam="2">  1       -2 0.63456111E-01 0.48230793E+03</pdfrwt>
<totfact> 0.38428901E+01</totfact>
</mgrwt>
</event>
<event>
 4    1  0.4639964E-008  0.2401987E+03  0.7818608E-02  0.1119661E+00
         -2   -1    0    0    0  501 -0.00000000000E+00  0.00000000000E+00  0.61779938688E+02  0.61779938741E+02  0.25500000000E-02 0.  1.
          2   -1    0    0  501    0  0.00000000000E+00 -0.00000000000E+00 -0.15448338112E+04  0.15448338112E+04  0.25500000000E-02 0. -1.
    8880022    1    1    2    0    0 -0.14181703411E+02  0.18466902219E+03 -0.23635100822E+03  0.33698252265E+03  0.15294330000E+03 0.  0.
    8880022    1    1    2    0    0  0.14181703411E+02 -0.18466902219E+03 -0.12467028643E+04  0.12696312273E+04  0.15294330000E+03 0.  0.
<mgrwt>
<rscale>  0 0.24019871E+03</rscale>
<asrwt>0</asrwt>
<pdfrwt beam="1">  1        2 0.23766671E+00 0.24019871E+03</pdfrwt>
<pdfrwt beam="2">  1       -2 0.95046071E-02 0.24019871E+03</pdfrwt>
<totfact> 0.93353088E+02</totfact>
</mgrwt>
</event>
<event>
 4    1  0.4639964E-008  0.3086668E+03  0.7818608E-02  0.1080987E+00
         -2   -1    0    0    0  501 -0.00000000000E+00  0.00000000000E+00  0.55218031033E+03  0.55218031034E+03  0.25500000000E-02 0.  1.
          2   -1    0    0  501    0  0.00000000000E+00 -0.00000000000E+00 -0.22156763733E+03  0.22156763734E+03  0.25500000000E-02 0. -1.
    8880022    1    1    2    0    0 -0.22597666626E+03  0.14428473722E+03 -0.16672456397E+02  0.30911674640E+03  0.15294330000E+03 0.  0.
    8880022    1    1    2    0    0  0.22597666626E+03 -0.14428473722E+03  0.34728512940E+03  0.46463120128E+03  0.15294330000E+03 0.  0.
<mgrwt>
<rscale>  0 0.30866680E+03</rscale>
<asrwt>0</asrwt>
<pdfrwt beam="1">  1        2 0.34087329E-01 0.30866680E+03</pdfrwt>
<pdfrwt beam="2">  1       -2 0.84950816E-01 0.30866680E+03</pdfrwt>
<totfact> 0.19052485E+02</totfact>
</mgrwt>
</event>
<event>
 4    1  0.4639964E-008  0.1605351E+03  0.7818608E-02  0.1188094E+00
          2   -1    0    0  501    0  0.00000000000E+00  0.00000000000E+00  0.71100435938E+03  0.71100435939E+03  0.25500000000E-02 0. -1.
         -2   -1    0    0    0  501 -0.00000000000E+00 -0.00000000000E+00 -0.10728229533E+03  0.10728229536E+03  0.25500000000E-02 0.  1.
    8880022    1    1    2    0    0 -0.38939367960E+02 -0.29386797499E+02 -0.31066471017E+02  0.16351341499E+03  0.15294330000E+03 0.  1.
    8880022    1    1    2    0    0  0.38939367960E+02  0.29386797499E+02  0.63478853506E+03  0.65477323976E+03  0.15294330000E+03 0.  0.
<mgrwt>
<rscale>  0 0.16053508E+03</rscale>
<asrwt>0</asrwt>
<pdfrwt beam="1">  1        2 0.10938528E+00 0.16053508E+03</pdfrwt>
<pdfrwt beam="2">  1       -2 0.16504970E-01 0.16053508E+03</pdfrwt>
<totfact> 0.11980742E+03</totfact>
</mgrwt>
</event>
<event>
 4    1  0.4639964E-008  0.7770833E+03  0.7818608E-02  0.9593793E-01
          2   -1    0    0  501    0  0.00000000000E+00  0.00000000000E+00  0.11954150514E+04  0.11954150514E+04  0.25500000000E-02 0. -1.
         -2   -1    0    0    0  501 -0.00000000000E+00 -0.00000000000E+00 -0.93355433241E+03  0.93355433241E+03  0.25500000000E-02 0.  1.
    8880022    1    1    2    0    0  0.16114309690E+03  0.74464739958E+03  0.85203591780E+03  0.11531798236E+04  0.15294330000E+03 0.  0.
    8880022    1    1    2    0    0 -0.16114309690E+03 -0.74464739958E+03 -0.59017519883E+03  0.97578956016E+03  0.15294330000E+03 0.  0.
<mgrwt>
<rscale>  0 0.77708333E+03</rscale>
<asrwt>0</asrwt>
<pdfrwt beam="1">  1        2 0.18391001E+00 0.77708333E+03</pdfrwt>
<pdfrwt beam="2">  1       -2 0.14362374E+00 0.77708333E+03</pdfrwt>
<totfact> 0.65139244E+00</totfact>
</mgrwt>
</event>
<event>
 4    1  0.4639964E-008  0.8911336E+03  0.7818608E-02  0.9436733E-01
         -2   -1    0    0    0  501 -0.00000000000E+00  0.00000000000E+00  0.69184430646E+03  0.69184430646E+03  0.25500000000E-02 0.  1.
          2   -1    0    0  501    0  0.00000000000E+00 -0.00000000000E+00 -0.16117154915E+04  0.16117154915E+04  0.25500000000E-02 0. -1.
    8880022    1    1    2    0    0  0.27646436091E+03 -0.83324363507E+03  0.15798267898E+03  0.90502910346E+03  0.15294330000E+03 0.  0.
    8880022    1    1    2    0    0 -0.27646436091E+03  0.83324363507E+03 -0.10778538640E+04  0.13985306945E+04  0.15294330000E+03 0.  0.
<mgrwt>
<rscale>  0 0.89113363E+03</rscale>
<asrwt>0</asrwt>
<pdfrwt beam="1">  1        2 0.24795623E+00 0.89113363E+03</pdfrwt>
<pdfrwt beam="2">  1       -2 0.10643759E+00 0.89113363E+03</pdfrwt>
<totfact> 0.78785772E+00</totfact>
</mgrwt>
</event>
<event>
 4    1  0.4639964E-008  0.9037866E+03  0.7818608E-02  0.9420860E-01
          2   -1    0    0  501    0  0.00000000000E+00  0.00000000000E+00  0.19447669244E+04  0.19447669244E+04  0.25500000000E-02 0. -1.
         -2   -1    0    0    0  501 -0.00000000000E+00 -0.00000000000E+00 -0.51691732572E+03  0.51691732572E+03  0.25500000000E-02 0.  1.
    8880022    1    1    2    0    0  0.86855917654E+03 -0.19759420268E+03  0.12468425567E+04  0.15399501701E+04  0.15294330000E+03 0.  0.
    8880022    1    1    2    0    0 -0.86855917654E+03  0.19759420268E+03  0.18100704198E+03  0.92173408006E+03  0.15294330000E+03 0.  0.
<mgrwt>
<rscale>  0 0.90378657E+03</rscale>
<asrwt>0</asrwt>
<pdfrwt beam="1">  1        2 0.29919492E+00 0.90378657E+03</pdfrwt>
<pdfrwt beam="2">  1       -2 0.79525741E-01 0.90378657E+03</pdfrwt>
<totfact> 0.10173920E+01</totfact>
</mgrwt>
</event>
<event>
 4    1  0.4639964E-008  0.5429501E+03  0.7818608E-02  0.1003139E+00
         -2   -1    0    0    0  501 -0.00000000000E+00  0.00000000000E+00  0.22964131570E+04  0.22964131570E+04  0.25500000000E-02 0.  1.
          2   -1    0    0  501    0  0.00000000000E+00 -0.00000000000E+00 -0.27202607695E+03  0.27202607697E+03  0.25500000000E-02 0. -1.
    8880022    1    1    2    0    0  0.83082662902E+02 -0.51429605647E+03  0.78953790504E+02  0.54866065708E+03  0.15294330000E+03 0.  0.
    8880022    1    1    2    0    0 -0.83082662902E+02  0.51429605647E+03  0.19454332896E+04  0.20197785769E+04  0.15294330000E+03 0.  0.
<mgrwt>
<rscale>  0 0.54295010E+03</rscale>
<asrwt>0</asrwt>
<pdfrwt beam="1">  1        2 0.41850167E-01 0.54295010E+03</pdfrwt>
<pdfrwt beam="2">  1       -2 0.35329432E+00 0.54295010E+03</pdfrwt>
<totfact> 0.19856371E+00</totfact>
</mgrwt>
</event>
<event>
 4    1  0.4639964E-008  0.3450972E+03  0.7818608E-02  0.1064646E+00
          2   -1    0    0  501    0  0.00000000000E+00  0.00000000000E+00  0.10323154108E+04  0.10323154108E+04  0.25500000000E-02 0. -1.
         -2   -1    0    0    0  501 -0.00000000000E+00 -0.00000000000E+00 -0.11391434852E+04  0.11391434852E+04  0.25500000000E-02 0.  1.
    8880022    1    1    2    0    0  0.78469338067E+02  0.29923731232E+03 -0.10826989533E+04  0.11363666145E+04  0.15294330000E+03 0.  0.
    8880022    1    1    2    0    0 -0.78469338067E+02 -0.29923731232E+03  0.97587087888E+03  0.10350922816E+04  0.15294330000E+03 0.  0.
<mgrwt>
<rscale>  0 0.34509717E+03</rscale>
<asrwt>0</asrwt>
<pdfrwt beam="1">  1        2 0.15881776E+00 0.34509717E+03</pdfrwt>
<pdfrwt beam="2">  1       -2 0.17525284E+00 0.34509717E+03</pdfrwt>
<totfact> 0.52097885E+00</totfact>
</mgrwt>
</event>
<event>
 4    1  0.4639964E-008  0.3254193E+03  0.7818608E-02  0.1073182E+00
         -2   -1    0    0    0  501 -0.00000000000E+00  0.00000000000E+00  0.17021137926E+03  0.17021137928E+03  0.25500000000E-02 0.  1.
          2   -1    0    0  501    0  0.00000000000E+00 -0.00000000000E+00 -0.22951572805E+04  0.22951572805E+04  0.25500000000E-02 0. -1.
    8880022    1    1    2    0    0  0.97807740168E+02 -0.27007356999E+03 -0.10041040543E+02  0.32557420468E+03  0.15294330000E+03 0.  0.
    8880022    1    1    2    0    0 -0.97807740168E+02  0.27007356999E+03 -0.21149048607E+04  0.21397944551E+04  0.15294330000E+03 0.  0.
<mgrwt>
<rscale>  0 0.32541933E+03</rscale>
<asrwt>0</asrwt>
<pdfrwt beam="1">  1        2 0.35310110E+00 0.32541933E+03</pdfrwt>
<pdfrwt beam="2">  1       -2 0.26186368E-01 0.32541933E+03</pdfrwt>
<totfact> 0.67244207E+01</totfact>
</mgrwt>
</event>
<event>
 4    1  0.4639964E-008  0.6566026E+03  0.7818608E-02  0.9794468E-01
          2   -1    0    0  501    0  0.00000000000E+00  0.00000000000E+00  0.15090142796E+04  0.15090142796E+04  0.25500000000E-02 0. -1.
         -2   -1    0    0    0  501 -0.00000000000E+00 -0.00000000000E+00 -0.10584582585E+04  0.10584582585E+04  0.25500000000E-02 0.  1.
    8880022    1    1    2    0    0 -0.62787045440E+03  0.11624991852E+03 -0.87160540085E+03  0.10912483580E+04  0.15294330000E+03 0.  0.
    8880022    1    1    2    0    0  0.62787045440E+03 -0.11624991852E+03  0.13221614219E+04  0.14762241800E+04  0.15294330000E+03 0.  0.
<mgrwt>
<rscale>  0 0.65660262E+03</rscale>
<asrwt>0</asrwt>
<pdfrwt beam="1">  1        2 0.23215604E+00 0.65660262E+03</pdfrwt>
<pdfrwt beam="2">  1       -2 0.16283973E+00 0.65660262E+03</pdfrwt>
<totfact> 0.31465590E+00</totfact>
</mgrwt>
</event>
<event>
 4    1  0.4639964E-008  0.2379327E+03  0.7818608E-02  0.1121178E+00
          2   -1    0    0  501    0  0.00000000000E+00  0.00000000000E+00  0.17667905243E+04  0.17667905243E+04  0.25500000000E-02 0. -1.
         -2   -1    0    0    0  501 -0.00000000000E+00 -0.00000000000E+00 -0.43170535470E+03  0.43170535471E+03  0.25500000000E-02 0.  1.
    8880022    1    1    2    0    0  0.18109597877E+03  0.20604522302E+02 -0.39012444998E+03  0.45695627729E+03  0.15294330000E+03 0.  1.
    8880022    1    1    2    0    0 -0.18109597877E+03 -0.20604522302E+02  0.17252096195E+04  0.17415396017E+04  0.15294330000E+03 0.  0.
<mgrwt>
<rscale>  0 0.23793266E+03</rscale>
<asrwt>0</asrwt>
<pdfrwt beam="1">  1        2 0.27181393E+00 0.23793266E+03</pdfrwt>
<pdfrwt beam="2">  1       -2 0.66416207E-01 0.23793266E+03</pdfrwt>
<totfact> 0.21679686E+01</totfact>
</mgrwt>
</event>
<event>
 4    1  0.4639964E-008  0.6381643E+03  0.7818608E-02  0.9829245E-01
         -2   -1    0    0    0  501 -0.00000000000E+00  0.00000000000E+00  0.69423787084E+03  0.69423787084E+03  0.25500000000E-02 0.  1.
          2   -1    0    0  501    0  0.00000000000E+00 -0.00000000000E+00 -0.13709775017E+04  0.13709775017E+04  0.25500000000E-02 0. -1.
    8880022    1    1    2    0    0  0.24272743523E+03 -0.57003983061E+03  0.44267737906E+03  0.77667041352E+03  0.15294330000E+03 0.  0.
    8880022    1    1    2    0    0 -0.24272743523E+03  0.57003983061E+03 -0.11194170099E+04  0.12885449590E+04  0.15294330000E+03 0.  0.
<mgrwt>
<rscale>  0 0.63816430E+03</rscale>
<asrwt>0</asrwt>
<pdfrwt beam="1">  1        2 0.21091961E+00 0.63816430E+03</pdfrwt>
<pdfrwt beam="2">  1       -2 0.10680583E+00 0.63816430E+03</pdfrwt>
<totfact> 0.11018761E+01</totfact>
</mgrwt>
</event>
<event>
 4    1  0.4639964E-008  0.4028178E+03  0.7818608E-02  0.1042808E+00
         -2   -1    0    0    0  501 -0.00000000000E+00  0.00000000000E+00  0.28637149978E+03  0.28637149979E+03  0.25500000000E-02 0.  1.
          2   -1    0    0  501    0  0.00000000000E+00 -0.00000000000E+00 -0.72376409125E+03  0.72376409126E+03  0.25500000000E-02 0. -1.
    8880022    1    1    2    0    0 -0.15656276792E+03 -0.33816952633E+03 -0.45404298326E+03  0.60697381533E+03  0.15294330000E+03 0.  0.
    8880022    1    1    2    0    0  0.15656276792E+03  0.33816952633E+03  0.16650391790E+02  0.40316177572E+03  0.15294330000E+03 0.  1.
<mgrwt>
<rscale>  0 0.40281780E+03</rscale>
<asrwt>0</asrwt>
<pdfrwt beam="1">  1        2 0.11134832E+00 0.40281780E+03</pdfrwt>
<pdfrwt beam="2">  1       -2 0.44057154E-01 0.40281780E+03</pdfrwt>
<totfact> 0.19807494E+02</totfact>
</mgrwt>
</event>
<event>
 4    1  0.4639964E-008  0.7799396E+03  0.7818608E-02  0.9589516E-01
          2   -1    0    0  501    0  0.00000000000E+00  0.00000000000E+00  0.10193443479E+04  0.10193443479E+04  0.25500000000E-02 0. -1.
         -2   -1    0    0    0  501 -0.00000000000E+00 -0.00000000000E+00 -0.13021669654E+04  0.13021669654E+04  0.25500000000E-02 0.  1.
    8880022    1    1    2    0    0  0.74460914661E+03 -0.17456025152E+03  0.71292095055E+03  0.10566749724E+04  0.15294330000E+03 0.  0.
    8880022    1    1    2    0    0 -0.74460914661E+03  0.17456025152E+03 -0.99574356808E+03  0.12648363408E+04  0.15294330000E+03 0.  0.
<mgrwt>
<rscale>  0 0.77993956E+03</rscale>
<asrwt>0</asrwt>
<pdfrwt beam="1">  1        2 0.15682221E+00 0.77993956E+03</pdfrwt>
<pdfrwt beam="2">  1       -2 0.20033338E+00 0.77993956E+03</pdfrwt>
<totfact> 0.33042897E+00</totfact>
</mgrwt>
</event>
<event>
 4    1  0.4639964E-008  0.4977016E+03  0.7818608E-02  0.1014381E+00
          2   -1    0    0  501    0  0.00000000000E+00  0.00000000000E+00  0.24222728344E+04  0.24222728344E+04  0.25500000000E-02 0. -1.
         -2   -1    0    0    0  501 -0.00000000000E+00 -0.00000000000E+00 -0.44902864486E+03  0.44902864487E+03  0.25500000000E-02 0.  1.
    8880022    1    1    2    0    0  0.31119670551E+03 -0.35703202562E+03  0.22482471891E+04  0.23026772099E+04  0.15294330000E+03 0. -1.
    8880022    1    1    2    0    0 -0.31119670551E+03  0.35703202562E+03 -0.27500299959E+03  0.56862426930E+03  0.15294330000E+03 0.  0.
<mgrwt>
<rscale>  0 0.49770163E+03</rscale>
<asrwt>0</asrwt>
<pdfrwt beam="1">  1        2 0.37265736E+00 0.49770163E+03</pdfrwt>
<pdfrwt beam="2">  1       -2 0.69081329E-01 0.49770163E+03</pdfrwt>
<totfact> 0.81495827E+00</totfact>
</mgrwt>
</event>
<event>
 4    1  0.4639964E-008  0.9287351E+03  0.7818608E-02  0.9390357E-01
          2   -1    0    0  501    0  0.00000000000E+00  0.00000000000E+00  0.21625832747E+04  0.21625832747E+04  0.25500000000E-02 0. -1.
         -2   -1    0    0    0  501 -0.00000000000E+00 -0.00000000000E+00 -0.78877274571E+03  0.78877274571E+03  0.25500000000E-02 0.  1.
    8880022    1    1    2    0    0  0.74270049718E+03 -0.53623986579E+03 -0.35063339913E+03  0.99271982743E+03  0.15294330000E+03 0.  0.
    8880022    1    1    2    0    0 -0.74270049718E+03  0.53623986579E+03  0.17244439281E+04  0.19586361929E+04  0.15294330000E+03 0.  0.
<mgrwt>
<rscale>  0 0.92873509E+03</rscale>
<asrwt>0</asrwt>
<pdfrwt beam="1">  1        2 0.33270513E+00 0.92873509E+03</pdfrwt>
<pdfrwt beam="2">  1       -2 0.12134965E+00 0.92873509E+03</pdfrwt>
<totfact> 0.28304447E+00</totfact>
</mgrwt>
</event>
<event>
 4    1  0.4639964E-008  0.1941349E+03  0.7818608E-02  0.1154784E+00
          2   -1    0    0  501    0  0.00000000000E+00  0.00000000000E+00  0.29985755288E+04  0.29985755288E+04  0.25500000000E-02 0. -1.
         -2   -1    0    0    0  501 -0.00000000000E+00 -0.00000000000E+00 -0.38969928025E+02  0.38969928108E+02  0.25500000000E-02 0.  1.
    8880022    1    1    2    0    0 -0.11828774400E+03  0.17455603082E+02  0.27298881175E+04  0.27367823215E+04  0.15294330000E+03 0.  0.
    8880022    1    1    2    0    0  0.11828774400E+03 -0.17455603082E+02  0.22971748331E+03  0.30076313539E+03  0.15294330000E+03 0.  0.
<mgrwt>
<rscale>  0 0.19413485E+03</rscale>
<asrwt>0</asrwt>
<pdfrwt beam="1">  1        2 0.46131919E+00 0.19413485E+03</pdfrwt>
<pdfrwt beam="2">  1       -2 0.59953752E-02 0.19413485E+03</pdfrwt>
<totfact> 0.31741739E+02</totfact>
</mgrwt>
</event>
<event>
 4    1  0.4639964E-008  0.2819110E+03  0.7818608E-02  0.1094650E+00
          2   -1    0    0  501    0  0.00000000000E+00  0.00000000000E+00  0.21057481957E+04  0.21057481957E+04  0.25500000000E-02 0. -1.
         -2   -1    0    0    0  501 -0.00000000000E+00 -0.00000000000E+00 -0.46398408055E+03  0.46398408056E+03  0.25500000000E-02 0.  1.
    8880022    1    1    2    0    0 -0.10619052560E+03  0.21167361897E+03 -0.41061911872E+03  0.49807816894E+03  0.15294330000E+03 0.  1.
    8880022    1    1    2    0    0  0.10619052560E+03 -0.21167361897E+03  0.20523832339E+04  0.20716541074E+04  0.15294330000E+03 0.  0.
<mgrwt>
<rscale>  0 0.28191098E+03</rscale>
<asrwt>0</asrwt>
<pdfrwt beam="1">  1        2 0.32396126E+00 0.28191098E+03</pdfrwt>
<pdfrwt beam="2">  1       -2 0.71382166E-01 0.28191098E+03</pdfrwt>
<totfact> 0.12098141E+01</totfact>
</mgrwt>
</event>
<event>
 4    1  0.4639964E-008  0.6186291E+03  0.7818608E-02  0.9867493E-01
          2   -1    0    0  501    0  0.00000000000E+00  0.00000000000E+00  0.24367965912E+04  0.24367965912E+04  0.25500000000E-02 0. -1.
         -2   -1    0    0    0  501 -0.00000000000E+00 -0.00000000000E+00 -0.73887519223E+03  0.73887519223E+03  0.25500000000E-02 0.  1.
    8880022    1    1    2    0    0 -0.55751009759E+03 -0.22021070142E+03 -0.56005512840E+03  0.83448406923E+03  0.15294330000E+03 0.  0.
    8880022    1    1    2    0    0  0.55751009759E+03  0.22021070142E+03  0.22579765274E+04  0.23411877142E+04  0.15294330000E+03 0.  0.
<mgrwt>
<rscale>  0 0.61862906E+03</rscale>
<asrwt>0</asrwt>
<pdfrwt beam="1">  1        2 0.37489179E+00 0.61862906E+03</pdfrwt>
<pdfrwt beam="2">  1       -2 0.11367311E+00 0.61862906E+03</pdfrwt>
<totfact> 0.24770391E+00</totfact>
</mgrwt>
</event>
<event>
 4    1  0.4639964E-008  0.2231835E+03  0.7818608E-02  0.1131532E+00
          2   -1    0    0  501    0  0.00000000000E+00  0.00000000000E+00  0.46217503587E+03  0.46217503587E+03  0.25500000000E-02 0. -1.
         -2   -1    0    0    0  501 -0.00000000000E+00 -0.00000000000E+00 -0.17432182102E+03  0.17432182103E+03  0.25500000000E-02 0.  1.
    8880022    1    1    2    0    0 -0.70575760579E+02  0.14641813061E+03 -0.52705499440E+02  0.22932232695E+03  0.15294330000E+03 0.  1.
    8880022    1    1    2    0    0  0.70575760579E+02 -0.14641813061E+03  0.34055871429E+03  0.40717452996E+03  0.15294330000E+03 0. -1.
<mgrwt>
<rscale>  0 0.22318347E+03</rscale>
<asrwt>0</asrwt>
<pdfrwt beam="1">  1        2 0.71103851E-01 0.22318347E+03</pdfrwt>
<pdfrwt beam="2">  1       -2 0.26818742E-01 0.22318347E+03</pdfrwt>
<totfact> 0.85407548E+02</totfact>
</mgrwt>
</event>
<event>
 4    1  0.4639964E-008  0.2710744E+03  0.7818608E-02  0.1100666E+00
         -2   -1    0    0    0  501 -0.00000000000E+00  0.00000000000E+00  0.47291538322E+03  0.47291538322E+03  0.25500000000E-02 0.  1.
          2   -1    0    0  501    0  0.00000000000E+00 -0.00000000000E+00 -0.20656367441E+03  0.20656367442E+03  0.25500000000E-02 0. -1.
    8880022    1    1    2    0    0  0.22288214679E+03 -0.20328421563E+02 -0.35941048380E+02  0.27344671886E+03  0.15294330000E+03 0.  0.
    8880022    1    1    2    0    0 -0.22288214679E+03  0.20328421563E+02  0.30229275719E+03  0.40603233879E+03  0.15294330000E+03 0.  0.
<mgrwt>
<rscale>  0 0.27107443E+03</rscale>
<asrwt>0</asrwt>
<pdfrwt beam="1">  1        2 0.31779027E-01 0.27107443E+03</pdfrwt>
<pdfrwt beam="2">  1       -2 0.72756211E-01 0.27107443E+03</pdfrwt>
<totfact> 0.29011438E+02</totfact>
</mgrwt>
</event>
<event>
 4    1  0.4639964E-008  0.7205749E+03  0.7818608E-02  0.9682679E-01
         -2   -1    0    0    0  501 -0.00000000000E+00  0.00000000000E+00  0.37579751611E+03  0.37579751612E+03  0.25500000000E-02 0.  1.
          2   -1    0    0  501    0  0.00000000000E+00 -0.00000000000E+00 -0.39824107563E+04  0.39824107563E+04  0.25500000000E-02 0. -1.
    8880022    1    1    2    0    0  0.60281547578E+03 -0.36393681870E+03 -0.35642828331E+04  0.36363911056E+04  0.15294330000E+03 0.  0.
    8880022    1    1    2    0    0 -0.60281547578E+03  0.36393681870E+03 -0.42330407075E+02  0.72181716676E+03  0.15294330000E+03 0.  0.
<mgrwt>
<rscale>  0 0.72057488E+03</rscale>
<asrwt>0</asrwt>
<pdfrwt beam="1">  1        2 0.61267855E+00 0.72057488E+03</pdfrwt>
<pdfrwt beam="2">  1       -2 0.57815005E-01 0.72057488E+03</pdfrwt>
<totfact> 0.11084312E+00</totfact>
</mgrwt>
</event>
<event>
 4    1  0.4639964E-008  0.5330353E+03  0.7818608E-02  0.1005499E+00
         -2   -1    0    0    0  501 -0.00000000000E+00  0.00000000000E+00  0.22519322661E+03  0.22519322663E+03  0.25500000000E-02 0.  1.
          2   -1    0    0  501    0  0.00000000000E+00 -0.00000000000E+00 -0.31451402933E+04  0.31451402933E+04  0.25500000000E-02 0. -1.
    8880022    1    1    2    0    0 -0.78055671258E+02  0.50462089326E+03 -0.27640367695E+04  0.28149646267E+04  0.15294330000E+03 0.  0.
    8880022    1    1    2    0    0  0.78055671258E+02 -0.50462089326E+03 -0.15591029720E+03  0.55536889319E+03  0.15294330000E+03 0.  0.
<mgrwt>
<rscale>  0 0.53303526E+03</rscale>
<asrwt>0</asrwt>
<pdfrwt beam="1">  1        2 0.48386771E+00 0.53303526E+03</pdfrwt>
<pdfrwt beam="2">  1       -2 0.34645114E-01 0.53303526E+03</pdfrwt>
<totfact> 0.12288784E+01</totfact>
</mgrwt>
</event>
<event>
 4    1  0.4639964E-008  0.2885810E+03  0.7818608E-02  0.1091092E+00
         -2   -1    0    0    0  501 -0.00000000000E+00  0.00000000000E+00  0.10547352815E+03  0.10547352818E+03  0.25500000000E-02 0.  1.
          2   -1    0    0  501    0  0.00000000000E+00 -0.00000000000E+00 -0.11382001859E+04  0.11382001859E+04  0.25500000000E-02 0. -1.
    8880022    1    1    2    0    0  0.24394306881E+03  0.19471311016E+02 -0.86051352399E+03  0.90761364619E+03  0.15294330000E+03 0.  0.
    8880022    1    1    2    0    0 -0.24394306881E+03 -0.19471311016E+02 -0.17221313374E+03  0.33606006788E+03  0.15294330000E+03 0.  0.
<mgrwt>
<rscale>  0 0.28858102E+03</rscale>
<asrwt>0</asrwt>
<pdfrwt beam="1">  1        2 0.17510771E+00 0.28858102E+03</pdfrwt>
<pdfrwt beam="2">  1       -2 0.16226697E-01 0.28858102E+03</pdfrwt>
<totfact> 0.65260719E+02</totfact>
</mgrwt>
</event>
<event>
 4    1  0.4639964E-008  0.2301635E+03  0.7818608E-02  0.1126525E+00
         -2   -1    0    0    0  501 -0.00000000000E+00  0.00000000000E+00  0.75105808994E+02  0.75105809037E+02  0.25500000000E-02 0.  1.
          2   -1    0    0  501    0  0.00000000000E+00 -0.00000000000E+00 -0.20369739719E+04  0.20369739719E+04  0.25500000000E-02 0. -1.
    8880022    1    1    2    0    0  0.81932837857E+02 -0.15123025571E+03 -0.12708759535E+03  0.26291917022E+03  0.15294330000E+03 0.  0.
    8880022    1    1    2    0    0 -0.81932837857E+02  0.15123025571E+03 -0.18347805676E+04  0.18491606107E+04  0.15294330000E+03 0. -1.
<mgrwt>
<rscale>  0 0.23016349E+03</rscale>
<asrwt>0</asrwt>
<pdfrwt beam="1">  1        2 0.31338057E+00 0.23016349E+03</pdfrwt>
<pdfrwt beam="2">  1       -2 0.11554741E-01 0.23016349E+03</pdfrwt>
<totfact> 0.37779062E+02</totfact>
</mgrwt>
</event>
<event>
 4    1  0.4639964E-008  0.1006672E+04  0.7818608E-02  0.9301257E-01
          2   -1    0    0  501    0  0.00000000000E+00  0.00000000000E+00  0.20343285175E+04  0.20343285175E+04  0.25500000000E-02 0. -1.
         -2   -1    0    0    0  501 -0.00000000000E+00 -0.00000000000E+00 -0.57814239334E+03  0.57814239335E+03  0.25500000000E-02 0.  1.
    8880022    1    1    2    0    0 -0.25157907417E+02 -0.99466807949E+03  0.24219645173E+03  0.10353976448E+04  0.15294330000E+03 0.  0.
    8880022    1    1    2    0    0  0.25157907417E+02  0.99466807949E+03  0.12139896725E+04  0.15770732661E+04  0.15294330000E+03 0.  0.
<mgrwt>
<rscale>  0 0.10066723E+04</rscale>
<asrwt>0</asrwt>
<pdfrwt beam="1">  1        2 0.31297362E+00 0.10066723E+04</pdfrwt>
<pdfrwt beam="2">  1       -2 0.88944983E-01 0.10066723E+04</pdfrwt>
<totfact> 0.69504675E+00</totfact>
</mgrwt>
</event>
<event>
 4    1  0.4639964E-008  0.6134299E+03  0.7818608E-02  0.9877929E-01
         -2   -1    0    0    0  501 -0.00000000000E+00  0.00000000000E+00  0.46231809828E+03  0.46231809828E+03  0.25500000000E-02 0.  1.
          2   -1    0    0  501    0  0.00000000000E+00 -0.00000000000E+00 -0.32210565790E+04  0.32210565790E+04  0.25500000000E-02 0. -1.
    8880022    1    1    2    0    0 -0.82132669272E+01 -0.59400091841E+03 -0.29714528501E+04  0.30341107828E+04  0.15294330000E+03 0.  0.
    8880022    1    1    2    0    0  0.82132669272E+01  0.59400091841E+03  0.21271436933E+03  0.64926389455E+03  0.15294330000E+03 0.  0.
<mgrwt>
<rscale>  0 0.61342987E+03</rscale>
<asrwt>0</asrwt>
<pdfrwt beam="1">  1        2 0.49554715E+00 0.61342987E+03</pdfrwt>
<pdfrwt beam="2">  1       -2 0.71125863E-01 0.61342987E+03</pdfrwt>
<totfact> 0.25055231E+00</totfact>
</mgrwt>
</event>
<event>
 4    1  0.4639964E-008  0.3439480E+03  0.7818608E-02  0.1065127E+00
         -2   -1    0    0    0  501 -0.00000000000E+00  0.00000000000E+00  0.39009099428E+03  0.39009099429E+03  0.25500000000E-02 0.  1.
          2   -1    0    0  501    0  0.00000000000E+00 -0.00000000000E+00 -0.92432186973E+03  0.92432186973E+03  0.25500000000E-02 0. -1.
    8880022    1    1    2    0    0 -0.19930678818E+03 -0.23491561299E+03  0.27159643767E+03  0.43825200400E+03  0.15294330000E+03 0.  0.
    8880022    1    1    2    0    0  0.19930678818E+03  0.23491561299E+03 -0.80582731312E+03  0.87616086002E+03  0.15294330000E+03 0.  0.
<mgrwt>
<rscale>  0 0.34394795E+03</rscale>
<asrwt>0</asrwt>
<pdfrwt beam="1">  1        2 0.14220336E+00 0.34394795E+03</pdfrwt>
<pdfrwt beam="2">  1       -2 0.60014000E-01 0.34394795E+03</pdfrwt>
<totfact> 0.77470339E+01</totfact>
</mgrwt>
</event>
<event>
 4    1  0.4639964E-008  0.4053288E+03  0.7818608E-02  0.1041950E+00
         -2   -1    0    0    0  501 -0.00000000000E+00  0.00000000000E+00  0.47398468134E+03  0.47398468135E+03  0.25500000000E-02 0.  1.
          2   -1    0    0  501    0  0.00000000000E+00 -0.00000000000E+00 -0.16787885659E+04  0.16787885659E+04  0.25500000000E-02 0. -1.
    8880022    1    1    2    0    0  0.30500727120E+03 -0.21879285347E+03 -0.15612510837E+04  0.16130084772E+04  0.15294330000E+03 0.  0.
    8880022    1    1    2    0    0 -0.30500727120E+03  0.21879285347E+03  0.35644719912E+03  0.53976477005E+03  0.15294330000E+03 0.  0.
<mgrwt>
<rscale>  0 0.40532876E+03</rscale>
<asrwt>0</asrwt>
<pdfrwt beam="1">  1        2 0.25827516E+00 0.40532876E+03</pdfrwt>
<pdfrwt beam="2">  1       -2 0.72920721E-01 0.40532876E+03</pdfrwt>
<totfact> 0.18702255E+01</totfact>
</mgrwt>
</event>
<event>
 4    1  0.4639964E-008  0.6818530E+03  0.7818608E-02  0.9748779E-01
         -2   -1    0    0    0  501 -0.00000000000E+00  0.00000000000E+00  0.88739827119E+03  0.88739827119E+03  0.25500000000E-02 0.  1.
          2   -1    0    0  501    0  0.00000000000E+00 -0.00000000000E+00 -0.61932566275E+03  0.61932566275E+03  0.25500000000E-02 0. -1.
    8880022    1    1    2    0    0 -0.86140560637E+02 -0.65887149054E+03  0.42972648517E+03  0.80597043513E+03  0.15294330000E+03 0.  0.
    8880022    1    1    2    0    0  0.86140560637E+02  0.65887149054E+03 -0.16165387672E+03  0.70075349882E+03  0.15294330000E+03 0.  0.
<mgrwt>
<rscale>  0 0.68185298E+03</rscale>
<asrwt>0</asrwt>
<pdfrwt beam="1">  1        2 0.95280872E-01 0.68185298E+03</pdfrwt>
<pdfrwt beam="2">  1       -2 0.13652281E+00 0.68185298E+03</pdfrwt>
<totfact> 0.18666995E+01</totfact>
</mgrwt>
</event>
<event>
 4    1  0.4639964E-008  0.6297030E+03  0.7818608E-02  0.9845628E-01
          2   -1    0    0  501    0  0.00000000000E+00  0.00000000000E+00  0.72883620067E+03  0.72883620067E+03  0.25500000000E-02 0. -1.
         -2   -1    0    0    0  501 -0.00000000000E+00 -0.00000000000E+00 -0.89354224259E+03  0.89354224259E+03  0.25500000000E-02 0.  1.
    8880022    1    1    2    0    0  0.53990841907E+03 -0.28571514365E+03 -0.58967212057E+03  0.86269293905E+03  0.15294330000E+03 0.  0.
    8880022    1    1    2    0    0 -0.53990841907E+03  0.28571514365E+03  0.42496607865E+03  0.75968550421E+03  0.15294330000E+03 0.  0.
<mgrwt>
<rscale>  0 0.62970302E+03</rscale>
<asrwt>0</asrwt>
<pdfrwt beam="1">  1        2 0.11212865E+00 0.62970302E+03</pdfrwt>
<pdfrwt beam="2">  1       -2 0.13746804E+00 0.62970302E+03</pdfrwt>
<totfact> 0.15068818E+01</totfact>
</mgrwt>
</event>
<event>
 4    1  0.4639964E-008  0.1372152E+04  0.7818608E-02  0.8974227E-01
          2   -1    0    0  501    0  0.00000000000E+00  0.00000000000E+00  0.25273518134E+04  0.25273518134E+04  0.25500000000E-02 0. -1.
         -2   -1    0    0    0  501 -0.00000000000E+00 -0.00000000000E+00 -0.92759199806E+03  0.92759199806E+03  0.25500000000E-02 0.  1.
    8880022    1    1    2    0    0  0.92931916110E+03 -0.99788552162E+03  0.15663744132E+04  0.20823856686E+04  0.15294330000E+03 0.  0.
    8880022    1    1    2    0    0 -0.92931916110E+03  0.99788552162E+03  0.33385402154E+02  0.13725581429E+04  0.15294330000E+03 0.  0.
<mgrwt>
<rscale>  0 0.13721521E+04</rscale>
<asrwt>0</asrwt>
<pdfrwt beam="1">  1        2 0.38882336E+00 0.13721521E+04</pdfrwt>
<pdfrwt beam="2">  1       -2 0.14270646E+00 0.13721521E+04</pdfrwt>
<totfact> 0.10995330E+00</totfact>
</mgrwt>
</event>
<event>
 4    1  0.4639964E-008  0.6062578E+03  0.7818608E-02  0.9892508E-01
          2   -1    0    0  501    0  0.00000000000E+00  0.00000000000E+00  0.98853397845E+03  0.98853397845E+03  0.25500000000E-02 0. -1.
         -2   -1    0    0    0  501 -0.00000000000E+00 -0.00000000000E+00 -0.69598350416E+03  0.69598350417E+03  0.25500000000E-02 0.  1.
    8880022    1    1    2    0    0 -0.46179996560E+03  0.36179775343E+03  0.72109764387E+03  0.94208825893E+03  0.15294330000E+03 0.  0.
    8880022    1    1    2    0    0  0.46179996560E+03 -0.36179775343E+03 -0.42854716958E+03  0.74242922369E+03  0.15294330000E+03 0.  0.
<mgrwt>
<rscale>  0 0.60625776E+03</rscale>
<asrwt>0</asrwt>
<pdfrwt beam="1">  1        2 0.15208215E+00 0.60625776E+03</pdfrwt>
<pdfrwt beam="2">  1       -2 0.10707439E+00 0.60625776E+03</pdfrwt>
<totfact> 0.18576053E+01</totfact>
</mgrwt>
</event>
<event>
 4    1  0.4639964E-008  0.4792141E+03  0.7818608E-02  0.1019351E+00
         -2   -1    0    0    0  501 -0.00000000000E+00  0.00000000000E+00  0.14640173380E+03  0.14640173383E+03  0.25500000000E-02 0.  1.
          2   -1    0    0  501    0  0.00000000000E+00 -0.00000000000E+00 -0.24121423876E+04  0.24121423876E+04  0.25500000000E-02 0. -1.
    8880022    1    1    2    0    0 -0.18034773910E+03 -0.41680832471E+03 -0.18893795586E+04  0.19492052883E+04  0.15294330000E+03 0.  0.
    8880022    1    1    2    0    0  0.18034773910E+03  0.41680832471E+03 -0.37636109520E+03  0.60933883311E+03  0.15294330000E+03 0.  0.
<mgrwt>
<rscale>  0 0.47921409E+03</rscale>
<asrwt>0</asrwt>
<pdfrwt beam="1">  1        2 0.37109880E+00 0.47921409E+03</pdfrwt>
<pdfrwt beam="2">  1       -2 0.22523345E-01 0.47921409E+03</pdfrwt>
<totfact> 0.73144561E+01</totfact>
</mgrwt>
</event>
<event>
 4    1  0.4639964E-008  0.2613492E+03  0.7818608E-02  0.1106335E+00
         -2   -1    0    0    0  501 -0.00000000000E+00  0.00000000000E+00  0.12781886755E+03  0.12781886758E+03  0.25500000000E-02 0.  1.
          2   -1    0    0  501    0  0.00000000000E+00 -0.00000000000E+00 -0.78214587322E+03  0.78214587323E+03  0.25500000000E-02 0. -1.
    8880022    1    1    2    0    0  0.11922229483E+03 -0.17520793137E+03 -0.71084303048E+02  0.27084387745E+03  0.15294330000E+03 0.  1.
    8880022    1    1    2    0    0 -0.11922229483E+03  0.17520793137E+03 -0.58324270262E+03  0.63912086335E+03  0.15294330000E+03 0.  0.
<mgrwt>
<rscale>  0 0.26134924E+03</rscale>
<asrwt>0</asrwt>
<pdfrwt beam="1">  1        2 0.12033013E+00 0.26134924E+03</pdfrwt>
<pdfrwt beam="2">  1       -2 0.19664442E-01 0.26134924E+03</pdfrwt>
<totfact> 0.79293961E+02</totfact>
</mgrwt>
</event>
<event>
 4    1  0.4639964E-008  0.2240083E+03  0.7818608E-02  0.1130929E+00
         -2   -1    0    0    0  501 -0.00000000000E+00  0.00000000000E+00  0.28269920239E+03  0.28269920241E+03  0.25500000000E-02 0.  1.
          2   -1    0    0  501    0  0.00000000000E+00 -0.00000000000E+00 -0.62221569119E+03  0.62221569120E+03  0.25500000000E-02 0. -1.
    8880022    1    1    2    0    0  0.28378431285E+02  0.16119165016E+03  0.21275581536E+03  0.30894137540E+03  0.15294330000E+03 0.  0.
    8880022    1    1    2    0    0 -0.28378431285E+02 -0.16119165016E+03 -0.55227230416E+03  0.59597351821E+03  0.15294330000E+03 0. -1.
<mgrwt>
<rscale>  0 0.22400834E+03</rscale>
<asrwt>0</asrwt>
<pdfrwt beam="1">  1        2 0.95725490E-01 0.22400834E+03</pdfrwt>
<pdfrwt beam="2">  1       -2 0.43492185E-01 0.22400834E+03</pdfrwt>
<totfact> 0.24816670E+02</totfact>
</mgrwt>
</event>
<event>
 4    1  0.4639964E-008  0.5924184E+03  0.7818608E-02  0.9921261E-01
          2   -1    0    0  501    0  0.00000000000E+00  0.00000000000E+00  0.10880345485E+04  0.10880345485E+04  0.25500000000E-02 0. -1.
         -2   -1    0    0    0  501 -0.00000000000E+00 -0.00000000000E+00 -0.58079729385E+03  0.58079729386E+03  0.25500000000E-02 0.  1.
    8880022    1    1    2    0    0 -0.46736986697E+03 -0.33035336898E+03 -0.30276881715E+03  0.66530335231E+03  0.15294330000E+03 0.  0.
    8880022    1    1    2    0    0  0.46736986697E+03  0.33035336898E+03  0.81000607175E+03  0.10035284900E+04  0.15294330000E+03 0.  0.
<mgrwt>
<rscale>  0 0.59241843E+03</rscale>
<asrwt>0</asrwt>
<pdfrwt beam="1">  1        2 0.16738993E+00 0.59241843E+03</pdfrwt>
<pdfrwt beam="2">  1       -2 0.89353431E-01 0.59241843E+03</pdfrwt>
<totfact> 0.24678449E+01</totfact>
</mgrwt>
</event>
<event>
 4    1  0.4639964E-008  0.5436815E+03  0.7818608E-02  0.1002967E+00
          2   -1    0    0  501    0  0.00000000000E+00  0.00000000000E+00  0.33716700730E+04  0.33716700730E+04  0.25500000000E-02 0. -1.
         -2   -1    0    0    0  501 -0.00000000000E+00 -0.00000000000E+00 -0.87669616158E+02  0.87669616195E+02  0.25500000000E-02 0.  1.
    8880022    1    1    2    0    0 -0.27645644167E+03 -0.44245877315E+03  0.16478991759E+04  0.17352697995E+04  0.15294330000E+03 0. -1.
    8880022    1    1    2    0    0  0.27645644167E+03  0.44245877315E+03  0.16361012809E+04  0.17240698897E+04  0.15294330000E+03 0.  1.
<mgrwt>
<rscale>  0 0.54368151E+03</rscale>
<asrwt>0</asrwt>
<pdfrwt beam="1">  1        2 0.51871836E+00 0.54368151E+03</pdfrwt>
<pdfrwt beam="2">  1       -2 0.13487636E-01 0.54368151E+03</pdfrwt>
<totfact> 0.46403862E+01</totfact>
</mgrwt>
</event>
<event>
 4    1  0.4639964E-008  0.4019760E+03  0.7818608E-02  0.1043098E+00
         -2   -1    0    0    0  501 -0.00000000000E+00  0.00000000000E+00  0.33834014848E+03  0.33834014849E+03  0.25500000000E-02 0.  1.
          2   -1    0    0  501    0  0.00000000000E+00 -0.00000000000E+00 -0.18032864774E+04  0.18032864774E+04  0.25500000000E-02 0. -1.
    8880022    1    1    2    0    0  0.14662822806E+03  0.34160383007E+03 -0.16506049048E+04  0.16988470263E+04  0.15294330000E+03 0.  0.
    8880022    1    1    2    0    0 -0.14662822806E+03 -0.34160383007E+03  0.18565857589E+03  0.44277959958E+03  0.15294330000E+03 0.  0.
<mgrwt>
<rscale>  0 0.40197595E+03</rscale>
<asrwt>0</asrwt>
<pdfrwt beam="1">  1        2 0.27742868E+00 0.40197595E+03</pdfrwt>
<pdfrwt beam="2">  1       -2 0.52052332E-01 0.40197595E+03</pdfrwt>
<totfact> 0.32652545E+01</totfact>
</mgrwt>
</event>
<event>
 4    1  0.4639964E-008  0.2787163E+03  0.7818608E-02  0.1096392E+00
          2   -1    0    0  501    0  0.00000000000E+00  0.00000000000E+00  0.56340273668E+03  0.56340273669E+03  0.25500000000E-02 0. -1.
         -2   -1    0    0    0  501 -0.00000000000E+00 -0.00000000000E+00 -0.33293007496E+03  0.33293007497E+03  0.25500000000E-02 0.  1.
    8880022    1    1    2    0    0 -0.36391860472E+02 -0.23014512313E+03 -0.22779533127E+03  0.35996320808E+03  0.15294330000E+03 0.  0.
    8880022    1    1    2    0    0  0.36391860472E+02  0.23014512313E+03  0.45826799300E+03  0.53636960357E+03  0.15294330000E+03 0.  0.
<mgrwt>
<rscale>  0 0.27871634E+03</rscale>
<asrwt>0</asrwt>
<pdfrwt beam="1">  1        2 0.86677344E-01 0.27871634E+03</pdfrwt>
<pdfrwt beam="2">  1       -2 0.51220012E-01 0.27871634E+03</pdfrwt>
<totfact> 0.20041896E+02</totfact>
</mgrwt>
</event>
<event>
 4    1  0.4639964E-008  0.2339987E+03  0.7818608E-02  0.1123857E+00
         -2   -1    0    0    0  501 -0.00000000000E+00  0.00000000000E+00  0.20009886507E+03  0.20009886509E+03  0.25500000000E-02 0.  1.
          2   -1    0    0  501    0  0.00000000000E+00 -0.00000000000E+00 -0.21451246799E+04  0.21451246799E+04  0.25500000000E-02 0. -1.
    8880022    1    1    2    0    0  0.80449983325E+02  0.15777047613E+03  0.12275643455E+03  0.26424329356E+03  0.15294330000E+03 0.  0.
    8880022    1    1    2    0    0 -0.80449983325E+02 -0.15777047613E+03 -0.20677822494E+04  0.20809802514E+04  0.15294330000E+03 0. -1.
<mgrwt>
<rscale>  0 0.23399867E+03</rscale>
<asrwt>0</asrwt>
<pdfrwt beam="1">  1        2 0.33001917E+00 0.23399867E+03</pdfrwt>
<pdfrwt beam="2">  1       -2 0.30784442E-01 0.23399867E+03</pdfrwt>
<totfact> 0.62248398E+01</totfact>
</mgrwt>
</event>
<event>
 4    1  0.4639964E-008  0.4464178E+03  0.7818608E-02  0.1028796E+00
          2   -1    0    0  501    0  0.00000000000E+00  0.00000000000E+00  0.25981728671E+04  0.25981728671E+04  0.25500000000E-02 0. -1.
         -2   -1    0    0    0  501 -0.00000000000E+00 -0.00000000000E+00 -0.37830091002E+03  0.37830091003E+03  0.25500000000E-02 0.  1.
    8880022    1    1    2    0    0  0.41717754761E+03 -0.43128339766E+02  0.24387592175E+04  0.24792812131E+04  0.15294330000E+03 0. -1.
    8880022    1    1    2    0    0 -0.41717754761E+03  0.43128339766E+02 -0.21888726039E+03  0.49719256400E+03  0.15294330000E+03 0.  0.
<mgrwt>
<rscale>  0 0.44641776E+03</rscale>
<asrwt>0</asrwt>
<pdfrwt beam="1">  1        2 0.39971892E+00 0.44641776E+03</pdfrwt>
<pdfrwt beam="2">  1       -2 0.58200138E-01 0.44641776E+03</pdfrwt>
<totfact> 0.94824373E+00</totfact>
</mgrwt>
</event>
<event>
 4    1  0.4639964E-008  0.1778228E+03  0.7818608E-02  0.1169927E+00
         -2   -1    0    0    0  501 -0.00000000000E+00  0.00000000000E+00  0.22949863056E+03  0.22949863058E+03  0.25500000000E-02 0.  1.
          2   -1    0    0  501    0  0.00000000000E+00 -0.00000000000E+00 -0.22553571852E+04  0.22553571852E+04  0.25500000000E-02 0. -1.
    8880022    1    1    2    0    0 -0.68849098412E+02  0.59068608069E+02  0.19094982331E+03  0.26092678446E+03  0.15294330000E+03 0.  1.
    8880022    1    1    2    0    0  0.68849098412E+02 -0.59068608069E+02 -0.22168083779E+04  0.22239290313E+04  0.15294330000E+03 0.  0.
<mgrwt>
<rscale>  0 0.17782281E+03</rscale>
<asrwt>0</asrwt>
<pdfrwt beam="1">  1        2 0.34697801E+00 0.17782281E+03</pdfrwt>
<pdfrwt beam="2">  1       -2 0.35307483E-01 0.17782281E+03</pdfrwt>
<totfact> 0.43474829E+01</totfact>
</mgrwt>
</event>
<event>
 4    1  0.4639964E-008  0.1040400E+04  0.7818608E-02  0.9265311E-01
         -2   -1    0    0    0  501 -0.00000000000E+00  0.00000000000E+00  0.27075880613E+03  0.27075880614E+03  0.25500000000E-02 0.  1.
          2   -1    0    0  501    0  0.00000000000E+00 -0.00000000000E+00 -0.41839390123E+04  0.41839390123E+04  0.25500000000E-02 0. -1.
    8880022    1    1    2    0    0 -0.31913513025E+03 -0.97836304146E+03 -0.24264214458E+04  0.26400670745E+04  0.15294330000E+03 0.  0.
    8880022    1    1    2    0    0  0.31913513025E+03  0.97836304146E+03 -0.14867587604E+04  0.18146307439E+04  0.15294330000E+03 0.  0.
<mgrwt>
<rscale>  0 0.10404005E+04</rscale>
<asrwt>0</asrwt>
<pdfrwt beam="1">  1        2 0.64368288E+00 0.10404005E+04</pdfrwt>
<pdfrwt beam="2">  1       -2 0.41655204E-01 0.10404005E+04</pdfrwt>
<totfact> 0.13825083E+00</totfact>
</mgrwt>
</event>
<event>
 4    1  0.4639964E-008  0.6547634E+03  0.7818608E-02  0.9797882E-01
         -2   -1    0    0    0  501 -0.00000000000E+00  0.00000000000E+00  0.79968120429E+03  0.79968120429E+03  0.25500000000E-02 0.  1.
          2   -1    0    0  501    0  0.00000000000E+00 -0.00000000000E+00 -0.16920000646E+04  0.16920000646E+04  0.25500000000E-02 0. -1.
    8880022    1    1    2    0    0  0.30409259026E+03  0.55933095051E+03  0.58356506636E+03  0.87707653904E+03  0.15294330000E+03 0.  1.
    8880022    1    1    2    0    0 -0.30409259026E+03 -0.55933095051E+03 -0.14758839266E+04  0.16146047298E+04  0.15294330000E+03 0.  0.
<mgrwt>
<rscale>  0 0.65476337E+03</rscale>
<asrwt>0</asrwt>
<pdfrwt beam="1">  1        2 0.26030770E+00 0.65476337E+03</pdfrwt>
<pdfrwt beam="2">  1       -2 0.12302788E+00 0.65476337E+03</pdfrwt>
<totfact> 0.51700722E+00</totfact>
</mgrwt>
</event>
<event>
 4    1  0.4639964E-008  0.6545029E+03  0.7818608E-02  0.9798366E-01
          2   -1    0    0  501    0  0.00000000000E+00  0.00000000000E+00  0.31988549133E+03  0.31988549134E+03  0.25500000000E-02 0. -1.
         -2   -1    0    0    0  501 -0.00000000000E+00 -0.00000000000E+00 -0.20111488893E+04  0.20111488893E+04  0.25500000000E-02 0.  1.
    8880022    1    1    2    0    0 -0.63613346399E+03 -0.17794540900E+02 -0.17190861484E+03  0.67670278155E+03  0.15294330000E+03 0.  0.
    8880022    1    1    2    0    0  0.63613346399E+03  0.17794540900E+02 -0.15193547831E+04  0.16543315990E+04  0.15294330000E+03 0.  0.
<mgrwt>
<rscale>  0 0.65450293E+03</rscale>
<asrwt>0</asrwt>
<pdfrwt beam="1">  1        2 0.49213154E-01 0.65450293E+03</pdfrwt>
<pdfrwt beam="2">  1       -2 0.30940752E+00 0.65450293E+03</pdfrwt>
<totfact> 0.30078865E+00</totfact>
</mgrwt>
</event>
<event>
 4    1  0.4639964E-008  0.3011749E+03  0.7818608E-02  0.1084655E+00
         -2   -1    0    0    0  501 -0.00000000000E+00  0.00000000000E+00  0.13087783443E+03  0.13087783445E+03  0.25500000000E-02 0.  1.
          2   -1    0    0  501    0  0.00000000000E+00 -0.00000000000E+00 -0.10595767044E+04  0.10595767044E+04  0.25500000000E-02 0. -1.
    8880022    1    1    2    0    0  0.77957985139E+02 -0.24746157259E+03 -0.81442587070E+03  0.86832933224E+03  0.15294330000E+03 0.  0.
    8880022    1    1    2    0    0 -0.77957985139E+02  0.24746157259E+03 -0.11427299926E+03  0.32212520660E+03  0.15294330000E+03 0.  1.
<mgrwt>
<rscale>  0 0.30117492E+03</rscale>
<asrwt>0</asrwt>
<pdfrwt beam="1">  1        2 0.16301179E+00 0.30117492E+03</pdfrwt>
<pdfrwt beam="2">  1       -2 0.20135052E-01 0.30117492E+03</pdfrwt>
<totfact> 0.50296800E+02</totfact>
</mgrwt>
</event>
<event>
 4    1  0.4639964E-008  0.9730633E+03  0.7818608E-02  0.9338592E-01
          2   -1    0    0  501    0  0.00000000000E+00  0.00000000000E+00  0.11276793602E+04  0.11276793602E+04  0.25500000000E-02 0. -1.
         -2   -1    0    0    0  501 -0.00000000000E+00 -0.00000000000E+00 -0.90938295360E+03  0.90938295360E+03  0.25500000000E-02 0.  1.
    8880022    1    1    2    0    0  0.32313444005E+03 -0.90501087323E+03 -0.17290456572E+03  0.98830571630E+03  0.15294330000E+03 0.  0.
    8880022    1    1    2    0    0 -0.32313444005E+03  0.90501087323E+03  0.39120097230E+03  0.10487565975E+04  0.15294330000E+03 0.  0.
<mgrwt>
<rscale>  0 0.97306331E+03</rscale>
<asrwt>0</asrwt>
<pdfrwt beam="1">  1        2 0.17348913E+00 0.97306331E+03</pdfrwt>
<pdfrwt beam="2">  1       -2 0.13990507E+00 0.97306331E+03</pdfrwt>
<totfact> 0.74934141E+00</totfact>
</mgrwt>
</event>
<event>
 4    1  0.4639964E-008  0.6806095E+03  0.7818608E-02  0.9750979E-01
          2   -1    0    0  501    0  0.00000000000E+00  0.00000000000E+00  0.26212914898E+04  0.26212914898E+04  0.25500000000E-02 0. -1.
         -2   -1    0    0    0  501 -0.00000000000E+00 -0.00000000000E+00 -0.29836491440E+03  0.29836491441E+03  0.25500000000E-02 0.  1.
    8880022    1    1    2    0    0 -0.39833512164E+03 -0.53025157310E+03  0.22932893165E+03  0.71820680296E+03  0.15294330000E+03 0.  0.
    8880022    1    1    2    0    0  0.39833512164E+03  0.53025157310E+03  0.20935976437E+04  0.22014496012E+04  0.15294330000E+03 0.  0.
<mgrwt>
<rscale>  0 0.68060947E+03</rscale>
<asrwt>0</asrwt>
<pdfrwt beam="1">  1        2 0.40327559E+00 0.68060947E+03</pdfrwt>
<pdfrwt beam="2">  1       -2 0.45902297E-01 0.68060947E+03</pdfrwt>
<totfact> 0.14147513E+01</totfact>
</mgrwt>
</event>
<event>
 4    1  0.4639964E-008  0.3265674E+03  0.7818608E-02  0.1072666E+00
          2   -1    0    0  501    0  0.00000000000E+00  0.00000000000E+00  0.24714248679E+04  0.24714248679E+04  0.25500000000E-02 0. -1.
         -2   -1    0    0    0  501 -0.00000000000E+00 -0.00000000000E+00 -0.52053596052E+03  0.52053596053E+03  0.25500000000E-02 0.  1.
    8880022    1    1    2    0    0 -0.24520470729E+03  0.15208312903E+03 -0.45718728863E+03  0.56184205655E+03  0.15294330000E+03 0.  1.
    8880022    1    1    2    0    0  0.24520470729E+03 -0.15208312903E+03  0.24080761960E+04  0.24301187719E+04  0.15294330000E+03 0.  0.
<mgrwt>
<rscale>  0 0.32656742E+03</rscale>
<asrwt>0</asrwt>
<pdfrwt beam="1">  1        2 0.38021921E+00 0.32656742E+03</pdfrwt>
<pdfrwt beam="2">  1       -2 0.80082455E-01 0.32656742E+03</pdfrwt>
<totfact> 0.58612255E+00</totfact>
</mgrwt>
</event>
<event>
 4    1  0.4639964E-008  0.1568572E+03  0.7818608E-02  0.1192291E+00
         -2   -1    0    0    0  501 -0.00000000000E+00  0.00000000000E+00  0.39017747170E+02  0.39017747253E+02  0.25500000000E-02 0.  1.
          2   -1    0    0  501    0  0.00000000000E+00 -0.00000000000E+00 -0.80055343954E+03  0.80055343954E+03  0.25500000000E-02 0. -1.
    8880022    1    1    2    0    0  0.23032472775E+01  0.34745220644E+02 -0.57419192803E+03  0.59523151675E+03  0.15294330000E+03 0.  0.
    8880022    1    1    2    0    0 -0.23032472775E+01 -0.34745220644E+02 -0.18734376434E+03  0.24433967004E+03  0.15294330000E+03 0.  1.
<mgrwt>
<rscale>  0 0.15685722E+03</rscale>
<asrwt>0</asrwt>
<pdfrwt beam="1">  1        2 0.12316206E+00 0.15685722E+03</pdfrwt>
<pdfrwt beam="2">  1       -2 0.60027309E-02 0.15685722E+03</pdfrwt>
<totfact> 0.51233401E+03</totfact>
</mgrwt>
</event>
<event>
 4    1  0.4639964E-008  0.1071459E+04  0.7818608E-02  0.9233465E-01
          2   -1    0    0  501    0  0.00000000000E+00  0.00000000000E+00  0.99706274989E+03  0.99706274989E+03  0.25500000000E-02 0. -1.
         -2   -1    0    0    0  501 -0.00000000000E+00 -0.00000000000E+00 -0.21060628412E+04  0.21060628412E+04  0.25500000000E-02 0.  1.
    8880022    1    1    2    0    0  0.79722311255E+03 -0.69933367713E+03 -0.15991176994E+04  0.19248899586E+04  0.15294330000E+03 0.  0.
    8880022    1    1    2    0    0 -0.79722311255E+03  0.69933367713E+03  0.49011760802E+03  0.11782356326E+04  0.15294330000E+03 0.  0.
<mgrwt>
<rscale>  0 0.10714588E+04</rscale>
<asrwt>0</asrwt>
<pdfrwt beam="1">  1        2 0.15339427E+00 0.10714588E+04</pdfrwt>
<pdfrwt beam="2">  1       -2 0.32400967E+00 0.10714588E+04</pdfrwt>
<totfact> 0.57046829E-01</totfact>
</mgrwt>
</event>
<event>
 4    1  0.4639964E-008  0.6490827E+03  0.7818608E-02  0.9808502E-01
         -2   -1    0    0    0  501 -0.00000000000E+00  0.00000000000E+00  0.91274900870E+03  0.91274900870E+03  0.25500000000E-02 0.  1.
          2   -1    0    0  501    0  0.00000000000E+00 -0.00000000000E+00 -0.11695520571E+04  0.11695520571E+04  0.25500000000E-02 0. -1.
    8880022    1    1    2    0    0 -0.31801390756E+03 -0.54477867391E+03  0.68164742518E+03  0.94124997435E+03  0.15294330000E+03 0.  0.
    8880022    1    1    2    0    0  0.31801390756E+03  0.54477867391E+03 -0.93845047357E+03  0.11410510915E+04  0.15294330000E+03 0.  0.
<mgrwt>
<rscale>  0 0.64908266E+03</rscale>
<asrwt>0</asrwt>
<pdfrwt beam="1">  1        2 0.17993109E+00 0.64908266E+03</pdfrwt>
<pdfrwt beam="2">  1       -2 0.14042292E+00 0.64908266E+03</pdfrwt>
<totfact> 0.72866979E+00</totfact>
</mgrwt>
</event>
<event>
 4    1  0.4639964E-008  0.9941241E+03  0.7818608E-02  0.9315013E-01
         -2   -1    0    0    0  501 -0.00000000000E+00  0.00000000000E+00  0.34088196680E+03  0.34088196681E+03  0.25500000000E-02 0.  1.
          2   -1    0    0  501    0  0.00000000000E+00 -0.00000000000E+00 -0.43835356611E+04  0.43835356611E+04  0.25500000000E-02 0. -1.
    8880022    1    1    2    0    0 -0.63781754751E+02  0.98021580682E+03 -0.64673735194E+03  0.11859814482E+04  0.15294330000E+03 0.  0.
    8880022    1    1    2    0    0  0.63781754751E+02 -0.98021580682E+03 -0.33959163424E+04  0.35384361797E+04  0.15294330000E+03 0.  0.
<mgrwt>
<rscale>  0 0.99412413E+03</rscale>
<asrwt>0</asrwt>
<pdfrwt beam="1">  1        2 0.67439006E+00 0.99412413E+03</pdfrwt>
<pdfrwt beam="2">  1       -2 0.52443383E-01 0.99412413E+03</pdfrwt>
<totfact> 0.58498674E-01</totfact>
</mgrwt>
</event>
<event>
 4    1  0.4639964E-008  0.9678213E+03  0.7818608E-02  0.9344559E-01
          2   -1    0    0  501    0  0.00000000000E+00  0.00000000000E+00  0.17177815498E+04  0.17177815498E+04  0.25500000000E-02 0. -1.
         -2   -1    0    0    0  501 -0.00000000000E+00 -0.00000000000E+00 -0.64239582871E+03  0.64239582872E+03  0.25500000000E-02 0.  1.
    8880022    1    1    2    0    0  0.56870199491E+03  0.76802637671E+03  0.99652119184E+03  0.13891481610E+04  0.15294330000E+03 0.  0.
    8880022    1    1    2    0    0 -0.56870199491E+03 -0.76802637671E+03  0.78864529249E+02  0.97102921754E+03  0.15294330000E+03 0.  0.
<mgrwt>
<rscale>  0 0.96782133E+03</rscale>
<asrwt>0</asrwt>
<pdfrwt beam="1">  1        2 0.26427408E+00 0.96782133E+03</pdfrwt>
<pdfrwt beam="2">  1       -2 0.98830129E-01 0.96782133E+03</pdfrwt>
<totfact> 0.81490823E+00</totfact>
</mgrwt>
</event>
<event>
 4    1  0.4639964E-008  0.6812339E+03  0.7818608E-02  0.9749874E-01
          2   -1    0    0  501    0  0.00000000000E+00  0.00000000000E+00  0.12512675840E+04  0.12512675840E+04  0.25500000000E-02 0. -1.
         -2   -1    0    0    0  501 -0.00000000000E+00 -0.00000000000E+00 -0.51387346596E+03  0.51387346597E+03  0.25500000000E-02 0.  1.
    8880022    1    1    2    0    0 -0.53969529035E+03  0.38654499006E+03 -0.96854523991E+02  0.68808465148E+03  0.15294330000E+03 0.  0.
    8880022    1    1    2    0    0  0.53969529035E+03 -0.38654499006E+03  0.83424864199E+03  0.10770563985E+04  0.15294330000E+03 0.  0.
<mgrwt>
<rscale>  0 0.68123395E+03</rscale>
<asrwt>0</asrwt>
<pdfrwt beam="1">  1        2 0.19250271E+00 0.68123395E+03</pdfrwt>
<pdfrwt beam="2">  1       -2 0.79057456E-01 0.68123395E+03</pdfrwt>
<totfact> 0.25759907E+01</totfact>
</mgrwt>
</event>
<event>
 4    1  0.4639964E-008  0.7094951E+03  0.7818608E-02  0.9701131E-01
          2   -1    0    0  501    0  0.00000000000E+00  0.00000000000E+00  0.22058894140E+04  0.22058894140E+04  0.25500000000E-02 0. -1.
         -2   -1    0    0    0  501 -0.00000000000E+00 -0.00000000000E+00 -0.40648980908E+03  0.40648980909E+03  0.25500000000E-02 0.  1.
    8880022    1    1    2    0    0  0.66676546251E+03 -0.18818980984E+03  0.17647574591E+04  0.19020389399E+04  0.15294330000E+03 0.  0.
    8880022    1    1    2    0    0 -0.66676546251E+03  0.18818980984E+03  0.34642145759E+02  0.71034028310E+03  0.15294330000E+03 0.  0.
<mgrwt>
<rscale>  0 0.70949506E+03</rscale>
<asrwt>0</asrwt>
<pdfrwt beam="1">  1        2 0.33936760E+00 0.70949506E+03</pdfrwt>
<pdfrwt beam="2">  1       -2 0.62536894E-01 0.70949506E+03</pdfrwt>
<totfact> 0.12721656E+01</totfact>
</mgrwt>
</event>
<event>
 4    1  0.4639964E-008  0.4245610E+03  0.7818608E-02  0.1035592E+00
         -2   -1    0    0    0  501 -0.00000000000E+00  0.00000000000E+00  0.92075504771E+03  0.92075504771E+03  0.25500000000E-02 0.  1.
          2   -1    0    0  501    0  0.00000000000E+00 -0.00000000000E+00 -0.41517786762E+03  0.41517786763E+03  0.25500000000E-02 0. -1.
    8880022    1    1    2    0    0  0.39643349052E+02  0.39406700543E+03  0.73837679649E+03  0.85173490388E+03  0.15294330000E+03 0.  0.
    8880022    1    1    2    0    0 -0.39643349052E+02 -0.39406700543E+03 -0.23279961639E+03  0.48419801146E+03  0.15294330000E+03 0.  0.
<mgrwt>
<rscale>  0 0.42456101E+03</rscale>
<asrwt>0</asrwt>
<pdfrwt beam="1">  1        2 0.63873519E-01 0.42456101E+03</pdfrwt>
<pdfrwt beam="2">  1       -2 0.14165462E+00 0.42456101E+03</pdfrwt>
<totfact> 0.27775447E+01</totfact>
</mgrwt>
</event>
<event>
 4    1  0.4639964E-008  0.2021381E+03  0.7818608E-02  0.1147948E+00
          2   -1    0    0  501    0  0.00000000000E+00  0.00000000000E+00  0.36945449648E+04  0.36945449648E+04  0.25500000000E-02 0. -1.
         -2   -1    0    0    0  501 -0.00000000000E+00 -0.00000000000E+00 -0.23181781171E+02  0.23181781311E+02  0.25500000000E-02 0.  1.
    8880022    1    1    2    0    0 -0.11351467095E+03 -0.67694809089E+02  0.49147431194E+03  0.53141962704E+03  0.15294330000E+03 0.  1.
    8880022    1    1    2    0    0  0.11351467095E+03  0.67694809089E+02  0.31798888717E+04  0.31863071191E+04  0.15294330000E+03 0.  0.
<mgrwt>
<rscale>  0 0.20213812E+03</rscale>
<asrwt>0</asrwt>
<pdfrwt beam="1">  1        2 0.56839107E+00 0.20213812E+03</pdfrwt>
<pdfrwt beam="2">  1       -2 0.35664308E-02 0.20213812E+03</pdfrwt>
<totfact> 0.25106551E+02</totfact>
</mgrwt>
</event>
<event>
 4    1  0.4639964E-008  0.1905763E+03  0.7818608E-02  0.1157943E+00
         -2   -1    0    0    0  501 -0.00000000000E+00  0.00000000000E+00  0.32141171419E+03  0.32141171420E+03  0.25500000000E-02 0.  1.
          2   -1    0    0  501    0  0.00000000000E+00 -0.00000000000E+00 -0.10205144466E+04  0.10205144466E+04  0.25500000000E-02 0. -1.
    8880022    1    1    2    0    0  0.11383622716E+02  0.11312865346E+03  0.28317504277E+03  0.34133185753E+03  0.15294330000E+03 0.  0.
    8880022    1    1    2    0    0 -0.11383622716E+02 -0.11312865346E+03 -0.98227777518E+03  0.10005943033E+04  0.15294330000E+03 0. -1.
<mgrwt>
<rscale>  0 0.19057632E+03</rscale>
<asrwt>0</asrwt>
<pdfrwt beam="1">  1        2 0.15700222E+00 0.19057632E+03</pdfrwt>
<pdfrwt beam="2">  1       -2 0.49447956E-01 0.19057632E+03</pdfrwt>
<totfact> 0.10340315E+02</totfact>
</mgrwt>
</event>
<event>
 4    1  0.4639964E-008  0.6473843E+03  0.7818608E-02  0.9811700E-01
          2   -1    0    0  501    0  0.00000000000E+00  0.00000000000E+00  0.15170696806E+04  0.15170696806E+04  0.25500000000E-02 0. -1.
         -2   -1    0    0    0  501 -0.00000000000E+00 -0.00000000000E+00 -0.31234531614E+03  0.31234531615E+03  0.25500000000E-02 0.  1.
    8880022    1    1    2    0    0 -0.62085074159E+03 -0.10128743543E+03  0.29145773128E+03  0.70996764014E+03  0.15294330000E+03 0.  0.
    8880022    1    1    2    0    0  0.62085074159E+03  0.10128743543E+03  0.91326663315E+03  0.11194473566E+04  0.15294330000E+03 0.  0.
<mgrwt>
<rscale>  0 0.64738431E+03</rscale>
<asrwt>0</asrwt>
<pdfrwt beam="1">  1        2 0.23339534E+00 0.64738431E+03</pdfrwt>
<pdfrwt beam="2">  1       -2 0.48053125E-01 0.64738431E+03</pdfrwt>
<totfact> 0.52651776E+01</totfact>
</mgrwt>
</event>
<event>
 4    1  0.4639964E-008  0.1724604E+03  0.7818608E-02  0.1175306E+00
         -2   -1    0    0    0  501 -0.00000000000E+00  0.00000000000E+00  0.11715509594E+03  0.11715509597E+03  0.25500000000E-02 0.  1.
          2   -1    0    0  501    0  0.00000000000E+00 -0.00000000000E+00 -0.52902618050E+03  0.52902618051E+03  0.25500000000E-02 0. -1.
    8880022    1    1    2    0    0  0.75014650899E+02 -0.26902505393E+02  0.27073364108E+02  0.17457251417E+03  0.15294330000E+03 0.  1.
    8880022    1    1    2    0    0 -0.75014650899E+02  0.26902505393E+02 -0.43894444867E+03  0.47160876230E+03  0.15294330000E+03 0. -1.
<mgrwt>
<rscale>  0 0.17246042E+03</rscale>
<asrwt>0</asrwt>
<pdfrwt beam="1">  1        2 0.81388642E-01 0.17246042E+03</pdfrwt>
<pdfrwt beam="2">  1       -2 0.18023861E-01 0.17246042E+03</pdfrwt>
<totfact> 0.14569802E+03</totfact>
</mgrwt>
</event>
<event>
 4    1  0.4639964E-008  0.8898665E+03  0.7818608E-02  0.9438338E-01
         -2   -1    0    0    0  501 -0.00000000000E+00  0.00000000000E+00  0.69086770328E+03  0.69086770328E+03  0.25500000000E-02 0.  1.
          2   -1    0    0  501    0  0.00000000000E+00 -0.00000000000E+00 -0.22397999258E+04  0.22397999258E+04  0.25500000000E-02 0. -1.
    8880022    1    1    2    0    0  0.76927743603E+03  0.42033674707E+03 -0.17983816010E+04  0.20064991379E+04  0.15294330000E+03 0.  0.
    8880022    1    1    2    0    0 -0.76927743603E+03 -0.42033674707E+03  0.24944937855E+03  0.92416849113E+03  0.15294330000E+03 0.  0.
<mgrwt>
<rscale>  0 0.88986651E+03</rscale>
<asrwt>0</asrwt>
<pdfrwt beam="1">  1        2 0.34458460E+00 0.88986651E+03</pdfrwt>
<pdfrwt beam="2">  1       -2 0.10628734E+00 0.88986651E+03</pdfrwt>
<totfact> 0.35674806E+00</totfact>
</mgrwt>
</event>
<event>
 4    1  0.4639964E-008  0.1675704E+03  0.7818608E-02  0.1180406E+00
         -2   -1    0    0    0  501 -0.00000000000E+00  0.00000000000E+00  0.55517005278E+03  0.55517005279E+03  0.25500000000E-02 0.  1.
          2   -1    0    0  501    0  0.00000000000E+00 -0.00000000000E+00 -0.55593547297E+02  0.55593547355E+02  0.25500000000E-02 0. -1.
    8880022    1    1    2    0    0  0.23670256006E+01 -0.68429319800E+02  0.15806993824E+03  0.23036044150E+03  0.15294330000E+03 0.  0.
    8880022    1    1    2    0    0 -0.23670256006E+01  0.68429319800E+02  0.34150656724E+03  0.38040315864E+03  0.15294330000E+03 0.  0.
<mgrwt>
<rscale>  0 0.16757037E+03</rscale>
<asrwt>0</asrwt>
<pdfrwt beam="1">  1        2 0.85528532E-02 0.16757037E+03</pdfrwt>
<pdfrwt beam="2">  1       -2 0.85410780E-01 0.16757037E+03</pdfrwt>
<totfact> 0.94512157E+02</totfact>
</mgrwt>
</event>
<event>
 4    1  0.4639964E-008  0.3931745E+03  0.7818608E-02  0.1046169E+00
         -2   -1    0    0    0  501 -0.00000000000E+00  0.00000000000E+00  0.27836196979E+03  0.27836196980E+03  0.25500000000E-02 0.  1.
          2   -1    0    0  501    0  0.00000000000E+00 -0.00000000000E+00 -0.64614500274E+03  0.64614500274E+03  0.25500000000E-02 0. -1.
    8880022    1    1    2    0    0 -0.18634481416E+03 -0.31059641141E+03 -0.10605062895E+02  0.39331748108E+03  0.15294330000E+03 0.  0.
    8880022    1    1    2    0    0  0.18634481416E+03  0.31059641141E+03 -0.35717797005E+03  0.53118949147E+03  0.15294330000E+03 0. -1.
<mgrwt>
<rscale>  0 0.39317448E+03</rscale>
<asrwt>0</asrwt>
<pdfrwt beam="1">  1        2 0.99406923E-01 0.39317448E+03</pdfrwt>
<pdfrwt beam="2">  1       -2 0.42824919E-01 0.39317448E+03</pdfrwt>
<totfact> 0.24088691E+02</totfact>
</mgrwt>
</event>
<event>
 4    1  0.4639964E-008  0.2854957E+03  0.7818608E-02  0.1092725E+00
          2   -1    0    0  501    0  0.00000000000E+00  0.00000000000E+00  0.19484451639E+04  0.19484451639E+04  0.25500000000E-02 0. -1.
         -2   -1    0    0    0  501 -0.00000000000E+00 -0.00000000000E+00 -0.19049616096E+03  0.19049616098E+03  0.25500000000E-02 0.  1.
    8880022    1    1    2    0    0 -0.22008387281E+03 -0.98383157945E+02 -0.65800873351E+02  0.29298048533E+03  0.15294330000E+03 0.  0.
    8880022    1    1    2    0    0  0.22008387281E+03  0.98383157945E+02  0.18237498762E+04  0.18459608395E+04  0.15294330000E+03 0.  0.
<mgrwt>
<rscale>  0 0.28549573E+03</rscale>
<asrwt>0</asrwt>
<pdfrwt beam="1">  1        2 0.29976079E+00 0.28549573E+03</pdfrwt>
<pdfrwt beam="2">  1       -2 0.29307102E-01 0.28549573E+03</pdfrwt>
<totfact> 0.84923409E+01</totfact>
</mgrwt>
</event>
<event>
 4    1  0.4639964E-008  0.5749756E+03  0.7818608E-02  0.9958728E-01
         -2   -1    0    0    0  501 -0.00000000000E+00  0.00000000000E+00  0.23552809168E+03  0.23552809169E+03  0.25500000000E-02 0.  1.
          2   -1    0    0  501    0  0.00000000000E+00 -0.00000000000E+00 -0.23112061656E+04  0.23112061656E+04  0.25500000000E-02 0. -1.
    8880022    1    1    2    0    0  0.49686566273E+02 -0.55202949627E+03 -0.18357843207E+04  0.19237206254E+04  0.15294330000E+03 0.  0.
    8880022    1    1    2    0    0 -0.49686566273E+02  0.55202949627E+03 -0.23989375323E+03  0.62301363185E+03  0.15294330000E+03 0.  0.
<mgrwt>
<rscale>  0 0.57497563E+03</rscale>
<asrwt>0</asrwt>
<pdfrwt beam="1">  1        2 0.35557016E+00 0.57497563E+03</pdfrwt>
<pdfrwt beam="2">  1       -2 0.36235093E-01 0.57497563E+03</pdfrwt>
<totfact> 0.34177301E+01</totfact>
</mgrwt>
</event>
<event>
 4    1  0.4639964E-008  0.3821971E+03  0.7818608E-02  0.1050125E+00
         -2   -1    0    0    0  501 -0.00000000000E+00  0.00000000000E+00  0.39805349627E+03  0.39805349628E+03  0.25500000000E-02 0.  1.
          2   -1    0    0  501    0  0.00000000000E+00 -0.00000000000E+00 -0.18637553054E+04  0.18637553054E+04  0.25500000000E-02 0. -1.
    8880022    1    1    2    0    0  0.58190918808E+02 -0.34539366199E+03  0.28061902081E+03  0.47415361712E+03  0.15294330000E+03 0.  0.
    8880022    1    1    2    0    0 -0.58190918808E+02  0.34539366199E+03 -0.17463208300E+04  0.17876551846E+04  0.15294330000E+03 0. -1.
<mgrwt>
<rscale>  0 0.38219709E+03</rscale>
<asrwt>0</asrwt>
<pdfrwt beam="1">  1        2 0.28673158E+00 0.38219709E+03</pdfrwt>
<pdfrwt beam="2">  1       -2 0.61239001E-01 0.38219709E+03</pdfrwt>
<totfact> 0.21780634E+01</totfact>
</mgrwt>
</event>
<event>
 4    1  0.4639964E-008  0.3657137E+03  0.7818608E-02  0.1056344E+00
         -2   -1    0    0    0  501 -0.00000000000E+00  0.00000000000E+00  0.21837478838E+03  0.21837478840E+03  0.25500000000E-02 0.  1.
          2   -1    0    0  501    0  0.00000000000E+00 -0.00000000000E+00 -0.23466265655E+04  0.23466265655E+04  0.25500000000E-02 0. -1.
    8880022    1    1    2    0    0  0.25430071966E+03 -0.21374289694E+03 -0.21666309900E+04  0.21972793135E+04  0.15294330000E+03 0.  0.
    8880022    1    1    2    0    0 -0.25430071966E+03  0.21374289694E+03  0.38379212803E+02  0.36772204041E+03  0.15294330000E+03 0.  0.
<mgrwt>
<rscale>  0 0.36571373E+03</rscale>
<asrwt>0</asrwt>
<pdfrwt beam="1">  1        2 0.36101945E+00 0.36571373E+03</pdfrwt>
<pdfrwt beam="2">  1       -2 0.33596123E-01 0.36571373E+03</pdfrwt>
<totfact> 0.39520696E+01</totfact>
</mgrwt>
</event>
<event>
 4    1  0.4639964E-008  0.2805638E+03  0.7818608E-02  0.1095381E+00
          2   -1    0    0  501    0  0.00000000000E+00  0.00000000000E+00  0.16259633548E+04  0.16259633548E+04  0.25500000000E-02 0. -1.
         -2   -1    0    0    0  501 -0.00000000000E+00 -0.00000000000E+00 -0.30342507966E+03  0.30342507967E+03  0.25500000000E-02 0.  1.
    8880022    1    1    2    0    0  0.20131045682E+03 -0.12164895890E+03  0.15456619951E+04  0.15709191657E+04  0.15294330000E+03 0.  0.
    8880022    1    1    2    0    0 -0.20131045682E+03  0.12164895890E+03 -0.22312371992E+03  0.35846926874E+03  0.15294330000E+03 0.  0.
<mgrwt>
<rscale>  0 0.28056376E+03</rscale>
<asrwt>0</asrwt>
<pdfrwt beam="1">  1        2 0.25014821E+00 0.28056376E+03</pdfrwt>
<pdfrwt beam="2">  1       -2 0.46680782E-01 0.28056376E+03</pdfrwt>
<totfact> 0.52109153E+01</totfact>
</mgrwt>
</event>
<event>
 4    1  0.4639964E-008  0.5707426E+03  0.7818608E-02  0.9968037E-01
         -2   -1    0    0    0  501 -0.00000000000E+00  0.00000000000E+00  0.14579995229E+04  0.14579995229E+04  0.25500000000E-02 0.  1.
          2   -1    0    0  501    0  0.00000000000E+00 -0.00000000000E+00 -0.88397896852E+03  0.88397896853E+03  0.25500000000E-02 0. -1.
    8880022    1    1    2    0    0  0.42611275920E+03 -0.34753906899E+03  0.12992596979E+04  0.14190922816E+04  0.15294330000E+03 0.  0.
    8880022    1    1    2    0    0 -0.42611275920E+03  0.34753906899E+03 -0.72523914353E+03  0.92288620986E+03  0.15294330000E+03 0.  0.
<mgrwt>
<rscale>  0 0.57074262E+03</rscale>
<asrwt>0</asrwt>
<pdfrwt beam="1">  1        2 0.13599676E+00 0.57074262E+03</pdfrwt>
<pdfrwt beam="2">  1       -2 0.22430762E+00 0.57074262E+03</pdfrwt>
<totfact> 0.29576821E+00</totfact>
</mgrwt>
</event>
<event>
 4    1  0.4639964E-008  0.7069216E+03  0.7818608E-02  0.9705468E-01
          2   -1    0    0  501    0  0.00000000000E+00  0.00000000000E+00  0.20122413605E+03  0.20122413607E+03  0.25500000000E-02 0. -1.
         -2   -1    0    0    0  501 -0.00000000000E+00 -0.00000000000E+00 -0.30049339483E+04  0.30049339483E+04  0.25500000000E-02 0.  1.
    8880022    1    1    2    0    0  0.50235441869E+03 -0.47327216518E+03 -0.73406287865E+03  0.10191106256E+04  0.15294330000E+03 0.  0.
    8880022    1    1    2    0    0 -0.50235441869E+03  0.47327216518E+03 -0.20696469336E+04  0.21870474588E+04  0.15294330000E+03 0.  0.
<mgrwt>
<rscale>  0 0.70692161E+03</rscale>
<asrwt>0</asrwt>
<pdfrwt beam="1">  1        2 0.30957562E-01 0.70692161E+03</pdfrwt>
<pdfrwt beam="2">  1       -2 0.46229750E+00 0.70692161E+03</pdfrwt>
<totfact> 0.52971858E-01</totfact>
</mgrwt>
</event>
<event>
 4    1  0.4639964E-008  0.1223135E+04  0.7818608E-02  0.9092844E-01
         -2   -1    0    0    0  501 -0.00000000000E+00  0.00000000000E+00  0.10911296715E+04  0.10911296715E+04  0.25500000000E-02 0.  1.
          2   -1    0    0  501    0  0.00000000000E+00 -0.00000000000E+00 -0.19730631147E+04  0.19730631147E+04  0.25500000000E-02 0. -1.
    8880022    1    1    2    0    0  0.33860320930E+03  0.11653396791E+04  0.40527887490E+03  0.12885306828E+04  0.15294330000E+03 0.  0.
    8880022    1    1    2    0    0 -0.33860320930E+03 -0.11653396791E+04 -0.12872123181E+04  0.17756621035E+04  0.15294330000E+03 0.  0.
<mgrwt>
<rscale>  0 0.12231355E+04</rscale>
<asrwt>0</asrwt>
<pdfrwt beam="1">  1        2 0.30354817E+00 0.12231355E+04</pdfrwt>
<pdfrwt beam="2">  1       -2 0.16786610E+00 0.12231355E+04</pdfrwt>
<totfact> 0.14800428E+00</totfact>
</mgrwt>
</event>
<event>
 4    1  0.4639964E-008  0.5031897E+03  0.7818608E-02  0.1012950E+00
          2   -1    0    0  501    0  0.00000000000E+00  0.00000000000E+00  0.67771514080E+03  0.67771514081E+03  0.25500000000E-02 0. -1.
         -2   -1    0    0    0  501 -0.00000000000E+00 -0.00000000000E+00 -0.34921010713E+04  0.34921010713E+04  0.25500000000E-02 0.  1.
    8880022    1    1    2    0    0  0.44502590059E+03 -0.17821371579E+03 -0.33774183191E+04  0.34146968147E+04  0.15294330000E+03 0.  1.
    8880022    1    1    2    0    0 -0.44502590059E+03  0.17821371579E+03  0.56303238865E+03  0.75511939743E+03  0.15294330000E+03 0.  0.
<mgrwt>
<rscale>  0 0.50318966E+03</rscale>
<asrwt>0</asrwt>
<pdfrwt beam="1">  1        2 0.10426387E+00 0.50318966E+03</pdfrwt>
<pdfrwt beam="2">  1       -2 0.53724631E+00 0.50318966E+03</pdfrwt>
<totfact> 0.47470037E-02</totfact>
</mgrwt>
</event>
<event>
 4    1  0.4639964E-008  0.5038029E+03  0.7818608E-02  0.1012791E+00
          2   -1    0    0  501    0  0.00000000000E+00  0.00000000000E+00  0.30872005757E+04  0.30872005757E+04  0.25500000000E-02 0. -1.
         -2   -1    0    0    0  501 -0.00000000000E+00 -0.00000000000E+00 -0.23434420607E+03  0.23434420608E+03  0.25500000000E-02 0.  1.
    8880022    1    1    2    0    0 -0.26500688827E+03 -0.40024619958E+03  0.88330377827E+02  0.51148761448E+03  0.15294330000E+03 0.  0.
    8880022    1    1    2    0    0  0.26500688827E+03  0.40024619958E+03  0.27645259918E+04  0.28100571673E+04  0.15294330000E+03 0.  0.
<mgrwt>
<rscale>  0 0.50380286E+03</rscale>
<asrwt>0</asrwt>
<pdfrwt beam="1">  1        2 0.47495395E+00 0.50380286E+03</pdfrwt>
<pdfrwt beam="2">  1       -2 0.36052954E-01 0.50380286E+03</pdfrwt>
<totfact> 0.12470991E+01</totfact>
</mgrwt>
</event>
<event>
 4    1  0.4760004E-008  0.7896233E+03  0.7818608E-02  0.9575160E-01
         -2   -1    0    0    0  501 -0.00000000000E+00  0.00000000000E+00  0.72025150378E+03  0.72025150378E+03  0.25500000000E-02 0.  1.
          2   -1    0    0  501    0  0.00000000000E+00 -0.00000000000E+00 -0.29223203139E+04  0.29223203139E+04  0.25500000000E-02 0. -1.
    8880022    1    1    2    0    0 -0.70825805111E+03  0.31382135911E+03  0.42686139360E+03  0.89761663017E+03  0.15294330000E+03 0.  0.
    8880022    1    1    2    0    0  0.70825805111E+03 -0.31382135911E+03 -0.26289302037E+04  0.27449551875E+04  0.15294330000E+03 0.  0.
<mgrwt>
<rscale>  0 0.78962331E+03</rscale>
<asrwt>0</asrwt>
<pdfrwt beam="1">  1        2 0.44958773E+00 0.78962331E+03</pdfrwt>
<pdfrwt beam="2">  1       -2 0.11080793E+00 0.78962331E+03</pdfrwt>
<totfact> 0.13270155E+00</totfact>
</mgrwt>
</event>
<event>
 4    1  0.4639964E-008  0.7337858E+03  0.7818608E-02  0.9661137E-01
         -2   -1    0    0    0  501 -0.00000000000E+00  0.00000000000E+00  0.28113466048E+03  0.28113466049E+03  0.25500000000E-02 0.  1.
          2   -1    0    0  501    0  0.00000000000E+00 -0.00000000000E+00 -0.22283197061E+04  0.22283197061E+04  0.25500000000E-02 0. -1.
    8880022    1    1    2    0    0  0.38203038467E+03 -0.60753830211E+03 -0.50328190318E+03  0.88979454394E+03  0.15294330000E+03 0.  0.
    8880022    1    1    2    0    0 -0.38203038467E+03  0.60753830211E+03 -0.14439031424E+04  0.16196598226E+04  0.15294330000E+03 0.  0.
<mgrwt>
<rscale>  0 0.73378584E+03</rscale>
<asrwt>0</asrwt>
<pdfrwt beam="1">  1        2 0.34281841E+00 0.73378584E+03</pdfrwt>
<pdfrwt beam="2">  1       -2 0.43251488E-01 0.73378584E+03</pdfrwt>
<totfact> 0.26246957E+01</totfact>
</mgrwt>
</event>
<event>
 4    1  0.4639964E-008  0.9453831E+03  0.7818608E-02  0.9370563E-01
          2   -1    0    0  501    0  0.00000000000E+00  0.00000000000E+00  0.17008038928E+04  0.17008038928E+04  0.25500000000E-02 0. -1.
         -2   -1    0    0    0  501 -0.00000000000E+00 -0.00000000000E+00 -0.71022991651E+03  0.71022991651E+03  0.25500000000E-02 0.  1.
    8880022    1    1    2    0    0 -0.37531074656E+03  0.85410731461E+03  0.11101219643E+04  0.14581220422E+04  0.15294330000E+03 0.  0.
    8880022    1    1    2    0    0  0.37531074656E+03 -0.85410731461E+03 -0.11954798805E+03  0.95291176706E+03  0.15294330000E+03 0.  0.
<mgrwt>
<rscale>  0 0.94538305E+03</rscale>
<asrwt>0</asrwt>
<pdfrwt beam="1">  1        2 0.26166214E+00 0.94538305E+03</pdfrwt>
<pdfrwt beam="2">  1       -2 0.10926614E+00 0.94538305E+03</pdfrwt>
<totfact> 0.65593894E+00</totfact>
</mgrwt>
</event>
<event>
 4    1  0.4639964E-008  0.5791660E+03  0.7818608E-02  0.9949598E-01
          2   -1    0    0  501    0  0.00000000000E+00  0.00000000000E+00  0.31259327786E+04  0.31259327786E+04  0.25500000000E-02 0. -1.
         -2   -1    0    0    0  501 -0.00000000000E+00 -0.00000000000E+00 -0.27210090503E+03  0.27210090505E+03  0.25500000000E-02 0.  1.
    8880022    1    1    2    0    0 -0.12440897391E+03 -0.54457687725E+03  0.27491361413E+04  0.28094808675E+04  0.15294330000E+03 0.  0.
    8880022    1    1    2    0    0  0.12440897391E+03  0.54457687725E+03  0.10469573218E+03  0.58855281614E+03  0.15294330000E+03 0.  0.
<mgrwt>
<rscale>  0 0.57916597E+03</rscale>
<asrwt>0</asrwt>
<pdfrwt beam="1">  1        2 0.48091270E+00 0.57916597E+03</pdfrwt>
<pdfrwt beam="2">  1       -2 0.41861681E-01 0.57916597E+03</pdfrwt>
<totfact> 0.86756000E+00</totfact>
</mgrwt>
</event>
<event>
 4    1  0.4639964E-008  0.3958940E+03  0.7818608E-02  0.1045211E+00
         -2   -1    0    0    0  501 -0.00000000000E+00  0.00000000000E+00  0.27872602401E+03  0.27872602402E+03  0.25500000000E-02 0.  1.
          2   -1    0    0  501    0  0.00000000000E+00 -0.00000000000E+00 -0.11224975266E+04  0.11224975266E+04  0.25500000000E-02 0. -1.
    8880022    1    1    2    0    0  0.33587884753E+03  0.14326836513E+03  0.73050383567E+02  0.40257724255E+03  0.15294330000E+03 0.  1.
    8880022    1    1    2    0    0 -0.33587884753E+03 -0.14326836513E+03 -0.91682188616E+03  0.99864630807E+03  0.15294330000E+03 0.  0.
<mgrwt>
<rscale>  0 0.39589402E+03</rscale>
<asrwt>0</asrwt>
<pdfrwt beam="1">  1        2 0.17269192E+00 0.39589402E+03</pdfrwt>
<pdfrwt beam="2">  1       -2 0.42880927E-01 0.39589402E+03</pdfrwt>
<totfact> 0.11437490E+02</totfact>
</mgrwt>
</event>
<event>
 4    1  0.6335875E-008  0.5873552E+03  0.7818608E-02  0.9931993E-01
         -2   -1    0    0    0  501 -0.00000000000E+00  0.00000000000E+00  0.10806375659E+04  0.10806375659E+04  0.25500000000E-02 0.  1.
          2   -1    0    0  501    0  0.00000000000E+00 -0.00000000000E+00 -0.26474315008E+04  0.26474315008E+04  0.25500000000E-02 0. -1.
    8880022    1    1    2    0    0  0.13030801862E+03  0.55191875167E+03  0.96464012437E+03  0.11293877592E+04  0.15294330000E+03 0.  0.
    8880022    1    1    2    0    0 -0.13030801862E+03 -0.55191875167E+03 -0.25314340592E+04  0.25986813074E+04  0.15294330000E+03 0.  0.
<mgrwt>
<rscale>  0 0.58735521E+03</rscale>
<asrwt>0</asrwt>
<pdfrwt beam="1">  1        2 0.40729715E+00 0.58735521E+03</pdfrwt>
<pdfrwt beam="2">  1       -2 0.16625193E+00 0.58735521E+03</pdfrwt>
<totfact> 0.71423158E-01</totfact>
</mgrwt>
</event>
<event>
 4    1  0.4639964E-008  0.4079234E+03  0.7818608E-02  0.1041070E+00
         -2   -1    0    0    0  501 -0.00000000000E+00  0.00000000000E+00  0.10749466628E+04  0.10749466628E+04  0.25500000000E-02 0.  1.
          2   -1    0    0  501    0  0.00000000000E+00 -0.00000000000E+00 -0.28186226023E+03  0.28186226024E+03  0.25500000000E-02 0. -1.
    8880022    1    1    2    0    0 -0.31964661624E+03  0.20207889030E+03 -0.58947876697E+02  0.41216057836E+03  0.15294330000E+03 0.  0.
    8880022    1    1    2    0    0  0.31964661624E+03 -0.20207889030E+03  0.85203227928E+03  0.94464834469E+03  0.15294330000E+03 0.  0.
<mgrwt>
<rscale>  0 0.40792339E+03</rscale>
<asrwt>0</asrwt>
<pdfrwt beam="1">  1        2 0.43363424E-01 0.40792339E+03</pdfrwt>
<pdfrwt beam="2">  1       -2 0.16537641E+00 0.40792339E+03</pdfrwt>
<totfact> 0.28339375E+01</totfact>
</mgrwt>
</event>
<event>
 4    1  0.4639964E-008  0.6150676E+03  0.7818608E-02  0.9874629E-01
         -2   -1    0    0    0  501 -0.00000000000E+00  0.00000000000E+00  0.93425261494E+03  0.93425261494E+03  0.25500000000E-02 0.  1.
          2   -1    0    0  501    0  0.00000000000E+00 -0.00000000000E+00 -0.74101296258E+03  0.74101296258E+03  0.25500000000E-02 0. -1.
    8880022    1    1    2    0    0  0.59473065603E+03  0.34812954615E+02 -0.46748934419E+03  0.77256354754E+03  0.15294330000E+03 0.  0.
    8880022    1    1    2    0    0 -0.59473065603E+03 -0.34812954615E+02  0.66072899656E+03  0.90270202999E+03  0.15294330000E+03 0.  1.
<mgrwt>
<rscale>  0 0.61506760E+03</rscale>
<asrwt>0</asrwt>
<pdfrwt beam="1">  1        2 0.11400199E+00 0.61506760E+03</pdfrwt>
<pdfrwt beam="2">  1       -2 0.14373117E+00 0.61506760E+03</pdfrwt>
<totfact> 0.13171316E+01</totfact>
</mgrwt>
</event>
<event>
 4    1  0.4639964E-008  0.8791936E+03  0.7818608E-02  0.9451971E-01
         -2   -1    0    0    0  501 -0.00000000000E+00  0.00000000000E+00  0.13233874847E+04  0.13233874847E+04  0.25500000000E-02 0.  1.
          2   -1    0    0  501    0  0.00000000000E+00 -0.00000000000E+00 -0.14001127321E+04  0.14001127321E+04  0.25500000000E-02 0. -1.
    8880022    1    1    2    0    0 -0.71121903997E+03  0.49371769464E+03  0.10012373312E+04  0.13324629568E+04  0.15294330000E+03 0.  0.
    8880022    1    1    2    0    0  0.71121903997E+03 -0.49371769464E+03 -0.10779625786E+04  0.13910372600E+04  0.15294330000E+03 0.  0.
<mgrwt>
<rscale>  0 0.87919357E+03</rscale>
<asrwt>0</asrwt>
<pdfrwt beam="1">  1        2 0.21540196E+00 0.87919357E+03</pdfrwt>
<pdfrwt beam="2">  1       -2 0.20359807E+00 0.87919357E+03</pdfrwt>
<totfact> 0.18407556E+00</totfact>
</mgrwt>
</event>
<event>
 4    1  0.4639964E-008  0.6955935E+03  0.7818608E-02  0.9724798E-01
          2   -1    0    0  501    0  0.00000000000E+00  0.00000000000E+00  0.17952131572E+04  0.17952131572E+04  0.25500000000E-02 0. -1.
         -2   -1    0    0    0  501 -0.00000000000E+00 -0.00000000000E+00 -0.56005068869E+03  0.56005068870E+03  0.25500000000E-02 0.  1.
    8880022    1    1    2    0    0 -0.40631176943E+03 -0.54347902453E+03  0.14657651497E+04  0.16224419346E+04  0.15294330000E+03 0.  0.
    8880022    1    1    2    0    0  0.40631176943E+03  0.54347902453E+03 -0.23060268119E+03  0.73282191129E+03  0.15294330000E+03 0.  0.
<mgrwt>
<rscale>  0 0.69559353E+03</rscale>
<asrwt>0</asrwt>
<pdfrwt beam="1">  1        2 0.27618664E+00 0.69559353E+03</pdfrwt>
<pdfrwt beam="2">  1       -2 0.86161645E-01 0.69559353E+03</pdfrwt>
<totfact> 0.10537700E+01</totfact>
</mgrwt>
</event>
<event>
 4    1  0.4639964E-008  0.5129033E+03  0.7818608E-02  0.1010465E+00
         -2   -1    0    0    0  501 -0.00000000000E+00  0.00000000000E+00  0.32187926306E+03  0.32187926307E+03  0.25500000000E-02 0.  1.
          2   -1    0    0  501    0  0.00000000000E+00 -0.00000000000E+00 -0.10595947534E+04  0.10595947534E+04  0.25500000000E-02 0. -1.
    8880022    1    1    2    0    0 -0.81882401934E+02 -0.48267320043E+03 -0.38548491747E+02  0.51434986671E+03  0.15294330000E+03 0.  0.
    8880022    1    1    2    0    0  0.81882401934E+02  0.48267320043E+03 -0.69916699856E+03  0.86712414973E+03  0.15294330000E+03 0.  0.
<mgrwt>
<rscale>  0 0.51290330E+03</rscale>
<asrwt>0</asrwt>
<pdfrwt beam="1">  1        2 0.16301458E+00 0.51290330E+03</pdfrwt>
<pdfrwt beam="2">  1       -2 0.49519887E-01 0.51290330E+03</pdfrwt>
<totfact> 0.92393104E+01</totfact>
</mgrwt>
</event>
<event>
 4    1  0.4639964E-008  0.1672063E+03  0.7818608E-02  0.1180793E+00
          2   -1    0    0  501    0  0.00000000000E+00  0.00000000000E+00  0.56425300535E+03  0.56425300535E+03  0.25500000000E-02 0. -1.
         -2   -1    0    0    0  501 -0.00000000000E+00 -0.00000000000E+00 -0.15129765967E+03  0.15129765970E+03  0.25500000000E-02 0.  1.
    8880022    1    1    2    0    0  0.67561998770E+02  0.12929812651E+01 -0.86921904179E+02  0.18844990294E+03  0.15294330000E+03 0.  0.
    8880022    1    1    2    0    0 -0.67561998770E+02 -0.12929812651E+01  0.49987724985E+03  0.52710076211E+03  0.15294330000E+03 0. -1.
<mgrwt>
<rscale>  0 0.16720631E+03</rscale>
<asrwt>0</asrwt>
<pdfrwt beam="1">  1        2 0.86808154E-01 0.16720631E+03</pdfrwt>
<pdfrwt beam="2">  1       -2 0.23276563E-01 0.16720631E+03</pdfrwt>
<totfact> 0.87554674E+02</totfact>
</mgrwt>
</event>
<event>
 4    1  0.6229650E-008  0.7101583E+03  0.7818608E-02  0.9700016E-01
          2   -1    0    0  501    0  0.00000000000E+00  0.00000000000E+00  0.18050209572E+04  0.18050209572E+04  0.25500000000E-02 0. -1.
         -2   -1    0    0    0  501 -0.00000000000E+00 -0.00000000000E+00 -0.10728656158E+04  0.10728656158E+04  0.25500000000E-02 0.  1.
    8880022    1    1    2    0    0  0.64007586312E+03  0.26690094322E+03 -0.87139256889E+03  0.11241218289E+04  0.15294330000E+03 0.  0.
    8880022    1    1    2    0    0 -0.64007586312E+03 -0.26690094322E+03  0.16035479103E+04  0.17537647441E+04  0.15294330000E+03 0.  0.
<mgrwt>
<rscale>  0 0.71015835E+03</rscale>
<asrwt>0</asrwt>
<pdfrwt beam="1">  1        2 0.27769553E+00 0.71015835E+03</pdfrwt>
<pdfrwt beam="2">  1       -2 0.16505625E+00 0.71015835E+03</pdfrwt>
<totfact> 0.20666319E+00</totfact>
</mgrwt>
</event>
<event>
 4    1  0.4639964E-008  0.5136073E+03  0.7818608E-02  0.1010287E+00
          2   -1    0    0  501    0  0.00000000000E+00  0.00000000000E+00  0.13574633578E+04  0.13574633578E+04  0.25500000000E-02 0. -1.
         -2   -1    0    0    0  501 -0.00000000000E+00 -0.00000000000E+00 -0.38180535983E+03  0.38180535984E+03  0.25500000000E-02 0.  1.
    8880022    1    1    2    0    0  0.48991277909E+03  0.19654083041E+02 -0.12155446877E+03  0.52779537321E+03  0.15294330000E+03 0.  0.
    8880022    1    1    2    0    0 -0.48991277909E+03 -0.19654083041E+02  0.10972124667E+04  0.12114733444E+04  0.15294330000E+03 0.  0.
<mgrwt>
<rscale>  0 0.51360731E+03</rscale>
<asrwt>0</asrwt>
<pdfrwt beam="1">  1        2 0.20884051E+00 0.51360731E+03</pdfrwt>
<pdfrwt beam="2">  1       -2 0.58739287E-01 0.51360731E+03</pdfrwt>
<totfact> 0.43567113E+01</totfact>
</mgrwt>
</event>
<event>
 4    1  0.4639964E-008  0.2928510E+03  0.7818608E-02  0.1088870E+00
         -2   -1    0    0    0  501 -0.00000000000E+00  0.00000000000E+00  0.98833054705E+02  0.98833054738E+02  0.25500000000E-02 0.  1.
          2   -1    0    0  501    0  0.00000000000E+00 -0.00000000000E+00 -0.20215101399E+04  0.20215101400E+04  0.25500000000E-02 0. -1.
    8880022    1    1    2    0    0 -0.19370741820E+03 -0.15763083888E+03 -0.17622735437E+04  0.17864405226E+04  0.15294330000E+03 0.  0.
    8880022    1    1    2    0    0  0.19370741820E+03  0.15763083888E+03 -0.16040354157E+03  0.33390267204E+03  0.15294330000E+03 0.  1.
<mgrwt>
<rscale>  0 0.29285098E+03</rscale>
<asrwt>0</asrwt>
<pdfrwt beam="1">  1        2 0.31100153E+00 0.29285098E+03</pdfrwt>
<pdfrwt beam="2">  1       -2 0.15205087E-01 0.29285098E+03</pdfrwt>
<totfact> 0.24216226E+02</totfact>
</mgrwt>
</event>
<event>
 4    1  0.4639964E-008  0.5994779E+03  0.7818608E-02  0.9906490E-01
          2   -1    0    0  501    0  0.00000000000E+00  0.00000000000E+00  0.36819084645E+04  0.36819084645E+04  0.25500000000E-02 0. -1.
         -2   -1    0    0    0  501 -0.00000000000E+00 -0.00000000000E+00 -0.12006853191E+03  0.12006853194E+03  0.25500000000E-02 0.  1.
    8880022    1    1    2    0    0  0.56948211756E+03  0.10803830121E+03  0.95867555188E+03  0.11306779486E+04  0.15294330000E+03 0.  0.
    8880022    1    1    2    0    0 -0.56948211756E+03 -0.10803830121E+03  0.26031643807E+04  0.26712990478E+04  0.15294330000E+03 0.  0.
<mgrwt>
<rscale>  0 0.59947795E+03</rscale>
<asrwt>0</asrwt>
<pdfrwt beam="1">  1        2 0.56644747E+00 0.59947795E+03</pdfrwt>
<pdfrwt beam="2">  1       -2 0.18472081E-01 0.59947795E+03</pdfrwt>
<totfact> 0.16521747E+01</totfact>
</mgrwt>
</event>
<event>
 4    1  0.4639964E-008  0.6533028E+03  0.7818608E-02  0.9800601E-01
          2   -1    0    0  501    0  0.00000000000E+00  0.00000000000E+00  0.19960552954E+04  0.19960552954E+04  0.25500000000E-02 0. -1.
         -2   -1    0    0    0  501 -0.00000000000E+00 -0.00000000000E+00 -0.26848915545E+03  0.26848915546E+03  0.25500000000E-02 0.  1.
    8880022    1    1    2    0    0  0.60104842992E+03  0.20531355355E+03  0.35287497747E+03  0.74251281007E+03  0.15294330000E+03 0.  0.
    8880022    1    1    2    0    0 -0.60104842992E+03 -0.20531355355E+03  0.13746911625E+04  0.15220316408E+04  0.15294330000E+03 0.  0.
<mgrwt>
<rscale>  0 0.65330278E+03</rscale>
<asrwt>0</asrwt>
<pdfrwt beam="1">  1        2 0.30708543E+00 0.65330278E+03</pdfrwt>
<pdfrwt beam="2">  1       -2 0.41306024E-01 0.65330278E+03</pdfrwt>
<totfact> 0.38952511E+01</totfact>
</mgrwt>
</event>
<event>
 4    1  0.4639964E-008  0.3469717E+03  0.7818608E-02  0.1063865E+00
          2   -1    0    0  501    0  0.00000000000E+00  0.00000000000E+00  0.10025733899E+03  0.10025733903E+03  0.25500000000E-02 0. -1.
         -2   -1    0    0    0  501 -0.00000000000E+00 -0.00000000000E+00 -0.25720206930E+04  0.25720206930E+04  0.25500000000E-02 0.  1.
    8880022    1    1    2    0    0 -0.16874767928E+03 -0.26176689484E+03 -0.22114722153E+04  0.22385260103E+04  0.15294330000E+03 0.  0.
    8880022    1    1    2    0    0  0.16874767928E+03  0.26176689484E+03 -0.26029113871E+03  0.43375202178E+03  0.15294330000E+03 0.  0.
<mgrwt>
<rscale>  0 0.34697167E+03</rscale>
<asrwt>0</asrwt>
<pdfrwt beam="1">  1        2 0.15424208E-01 0.34697167E+03</pdfrwt>
<pdfrwt beam="2">  1       -2 0.39569544E+00 0.34697167E+03</pdfrwt>
<totfact> 0.35306390E+00</totfact>
</mgrwt>
</event>
<event>
 4    1  0.4639964E-008  0.8776556E+03  0.7818608E-02  0.9453952E-01
          2   -1    0    0  501    0  0.00000000000E+00  0.00000000000E+00  0.33919975690E+04  0.33919975690E+04  0.25500000000E-02 0. -1.
         -2   -1    0    0    0  501 -0.00000000000E+00 -0.00000000000E+00 -0.75698133683E+03  0.75698133684E+03  0.25500000000E-02 0.  1.
    8880022    1    1    2    0    0  0.86254747285E+03 -0.53846989903E+02  0.30531622794E+04  0.31768032987E+04  0.15294330000E+03 0.  0.
    8880022    1    1    2    0    0 -0.86254747285E+03  0.53846989903E+02 -0.41814604725E+03  0.97217560712E+03  0.15294330000E+03 0.  0.
<mgrwt>
<rscale>  0 0.87765557E+03</rscale>
<asrwt>0</asrwt>
<pdfrwt beam="1">  1        2 0.52184577E+00 0.87765557E+03</pdfrwt>
<pdfrwt beam="2">  1       -2 0.11645867E+00 0.87765557E+03</pdfrwt>
<totfact> 0.58152187E-01</totfact>
</mgrwt>
</event>
<event>
 4    1  0.4639964E-008  0.1534246E+03  0.7818608E-02  0.1196327E+00
         -2   -1    0    0    0  501 -0.00000000000E+00  0.00000000000E+00  0.18248515741E+02  0.18248515919E+02  0.25500000000E-02 0.  1.
          2   -1    0    0  501    0  0.00000000000E+00 -0.00000000000E+00 -0.14597926658E+04  0.14597926659E+04  0.25500000000E-02 0. -1.
    8880022    1    1    2    0    0 -0.82320100329E+01  0.89260291769E+01 -0.46867083551E+03  0.49314444645E+03  0.15294330000E+03 0.  1.
    8880022    1    1    2    0    0  0.82320100329E+01 -0.89260291769E+01 -0.97287331460E+03  0.98489673532E+03  0.15294330000E+03 0.  0.
<mgrwt>
<rscale>  0 0.15342455E+03</rscale>
<asrwt>0</asrwt>
<pdfrwt beam="1">  1        2 0.22458339E+00 0.15342455E+03</pdfrwt>
<pdfrwt beam="2">  1       -2 0.28074651E-02 0.15342455E+03</pdfrwt>
<totfact> 0.66041085E+03</totfact>
</mgrwt>
</event>
<event>
 4    1  0.4639964E-008  0.2783675E+03  0.7818608E-02  0.1096584E+00
         -2   -1    0    0    0  501 -0.00000000000E+00  0.00000000000E+00  0.84526291655E+03  0.84526291656E+03  0.25500000000E-02 0.  1.
          2   -1    0    0  501    0  0.00000000000E+00 -0.00000000000E+00 -0.15817412419E+04  0.15817412419E+04  0.25500000000E-02 0. -1.
    8880022    1    1    2    0    0 -0.22911169717E+03 -0.40057689235E+02  0.80957228780E+03  0.85609329540E+03  0.15294330000E+03 0.  0.
    8880022    1    1    2    0    0  0.22911169717E+03  0.40057689235E+02 -0.15460506131E+04  0.15709108631E+04  0.15294330000E+03 0.  0.
<mgrwt>
<rscale>  0 0.27836746E+03</rscale>
<asrwt>0</asrwt>
<pdfrwt beam="1">  1        2 0.24334481E+00 0.27836746E+03</pdfrwt>
<pdfrwt beam="2">  1       -2 0.13004045E+00 0.27836746E+03</pdfrwt>
<totfact> 0.57148018E+00</totfact>
</mgrwt>
</event>
<event>
 4    1  0.4639964E-008  0.3079123E+03  0.7818608E-02  0.1081351E+00
         -2   -1    0    0    0  501 -0.00000000000E+00  0.00000000000E+00  0.17543869022E+03  0.17543869024E+03  0.25500000000E-02 0.  1.
          2   -1    0    0  501    0  0.00000000000E+00 -0.00000000000E+00 -0.58885122520E+03  0.58885122520E+03  0.25500000000E-02 0. -1.
    8880022    1    1    2    0    0  0.10663540385E+03  0.24504535084E+03 -0.31630440257E+03  0.44142775334E+03  0.15294330000E+03 0.  0.
    8880022    1    1    2    0    0 -0.10663540385E+03 -0.24504535084E+03 -0.97108132403E+02  0.32286216210E+03  0.15294330000E+03 0.  0.
<mgrwt>
<rscale>  0 0.30791230E+03</rscale>
<asrwt>0</asrwt>
<pdfrwt beam="1">  1        2 0.90592496E-01 0.30791230E+03</pdfrwt>
<pdfrwt beam="2">  1       -2 0.26990568E-01 0.30791230E+03</pdfrwt>
<totfact> 0.64126312E+02</totfact>
</mgrwt>
</event>
<event>
 4    1  0.4639964E-008  0.1599840E+04  0.7818608E-02  0.8820646E-01
         -2   -1    0    0    0  501 -0.00000000000E+00  0.00000000000E+00  0.27247359193E+04  0.27247359193E+04  0.25500000000E-02 0.  1.
          2   -1    0    0  501    0  0.00000000000E+00 -0.00000000000E+00 -0.10554458216E+04  0.10554458216E+04  0.25500000000E-02 0. -1.
    8880022    1    1    2    0    0 -0.12126137554E+04 -0.10323098923E+04  0.20778825344E+03  0.16132772374E+04  0.15294330000E+03 0.  0.
    8880022    1    1    2    0    0  0.12126137554E+04  0.10323098923E+04  0.14615018443E+04  0.21669045035E+04  0.15294330000E+03 0.  0.
<mgrwt>
<rscale>  0 0.15998398E+04</rscale>
<asrwt>0</asrwt>
<pdfrwt beam="1">  1        2 0.16237628E+00 0.15998398E+04</pdfrwt>
<pdfrwt beam="2">  1       -2 0.41919014E+00 0.15998398E+04</pdfrwt>
<totfact> 0.12092644E-01</totfact>
</mgrwt>
</event>
<event>
 4    1  0.4639964E-008  0.4896304E+03  0.7818608E-02  0.1016522E+00
         -2   -1    0    0    0  501 -0.00000000000E+00  0.00000000000E+00  0.63753831269E+03  0.63753831269E+03  0.25500000000E-02 0.  1.
          2   -1    0    0  501    0  0.00000000000E+00 -0.00000000000E+00 -0.13835738425E+04  0.13835738425E+04  0.25500000000E-02 0. -1.
    8880022    1    1    2    0    0  0.32257125386E+03 -0.33510303625E+03  0.48934449679E+03  0.69223980547E+03  0.15294330000E+03 0.  1.
    8880022    1    1    2    0    0 -0.32257125386E+03  0.33510303625E+03 -0.12353800266E+04  0.13288723497E+04  0.15294330000E+03 0.  0.
<mgrwt>
<rscale>  0 0.48963038E+03</rscale>
<asrwt>0</asrwt>
<pdfrwt beam="1">  1        2 0.21285751E+00 0.48963038E+03</pdfrwt>
<pdfrwt beam="2">  1       -2 0.98082817E-01 0.48963038E+03</pdfrwt>
<totfact> 0.13616702E+01</totfact>
</mgrwt>
</event>
<event>
 4    1  0.4639964E-008  0.7222454E+03  0.7818608E-02  0.9679928E-01
          2   -1    0    0  501    0  0.00000000000E+00  0.00000000000E+00  0.14631934412E+04  0.14631934412E+04  0.25500000000E-02 0. -1.
         -2   -1    0    0    0  501 -0.00000000000E+00 -0.00000000000E+00 -0.84239761597E+03  0.84239761597E+03  0.25500000000E-02 0.  1.
    8880022    1    1    2    0    0 -0.51942349650E+03  0.47796019510E+03 -0.56511605016E+03  0.91705753362E+03  0.15294330000E+03 0.  0.
    8880022    1    1    2    0    0  0.51942349650E+03 -0.47796019510E+03  0.11859118754E+04  0.13885335236E+04  0.15294330000E+03 0.  0.
<mgrwt>
<rscale>  0 0.72224537E+03</rscale>
<asrwt>0</asrwt>
<pdfrwt beam="1">  1        2 0.22510668E+00 0.72224537E+03</pdfrwt>
<pdfrwt beam="2">  1       -2 0.12959963E+00 0.72224537E+03</pdfrwt>
<totfact> 0.59981631E+00</totfact>
</mgrwt>
</event>
<event>
 4    1  0.4639964E-008  0.7805730E+03  0.7818608E-02  0.9588570E-01
          2   -1    0    0  501    0  0.00000000000E+00  0.00000000000E+00  0.18558934645E+04  0.18558934645E+04  0.25500000000E-02 0. -1.
         -2   -1    0    0    0  501 -0.00000000000E+00 -0.00000000000E+00 -0.38551883237E+03  0.38551883238E+03  0.25500000000E-02 0.  1.
    8880022    1    1    2    0    0 -0.17386786078E+03 -0.74543448244E+03  0.11669343811E+04  0.14039337959E+04  0.15294330000E+03 0.  0.
    8880022    1    1    2    0    0  0.17386786078E+03  0.74543448244E+03  0.30344025109E+03  0.83747850099E+03  0.15294330000E+03 0.  0.
<mgrwt>
<rscale>  0 0.78057303E+03</rscale>
<asrwt>0</asrwt>
<pdfrwt beam="1">  1        2 0.28552208E+00 0.78057303E+03</pdfrwt>
<pdfrwt beam="2">  1       -2 0.59310589E-01 0.78057303E+03</pdfrwt>
<totfact> 0.21889825E+01</totfact>
</mgrwt>
</event>
<event>
 4    1  0.4639964E-008  0.9219596E+03  0.7818608E-02  0.9398540E-01
         -2   -1    0    0    0  501 -0.00000000000E+00  0.00000000000E+00  0.65365069423E+03  0.65365069423E+03  0.25500000000E-02 0.  1.
          2   -1    0    0  501    0  0.00000000000E+00 -0.00000000000E+00 -0.16147731502E+04  0.16147731502E+04  0.25500000000E-02 0. -1.
    8880022    1    1    2    0    0 -0.85139195828E+03  0.31898202486E+03  0.19886779201E+02  0.92217402685E+03  0.15294330000E+03 0.  0.
    8880022    1    1    2    0    0  0.85139195828E+03 -0.31898202486E+03 -0.98100923515E+03  0.13462498176E+04  0.15294330000E+03 0.  0.
<mgrwt>
<rscale>  0 0.92195957E+03</rscale>
<asrwt>0</asrwt>
<pdfrwt beam="1">  1        2 0.24842664E+00 0.92195957E+03</pdfrwt>
<pdfrwt beam="2">  1       -2 0.10056165E+00 0.92195957E+03</pdfrwt>
<totfact> 0.89613908E+00</totfact>
</mgrwt>
</event>
<event>
 4    1  0.4639964E-008  0.4545287E+03  0.7818608E-02  0.1026380E+00
         -2   -1    0    0    0  501 -0.00000000000E+00  0.00000000000E+00  0.17009053209E+03  0.17009053211E+03  0.25500000000E-02 0.  1.
          2   -1    0    0  501    0  0.00000000000E+00 -0.00000000000E+00 -0.15367572875E+04  0.15367572875E+04  0.25500000000E-02 0. -1.
    8880022    1    1    2    0    0 -0.28714303373E+02  0.42705996570E+03 -0.10740650678E+04  0.11662813333E+04  0.15294330000E+03 0. -1.
    8880022    1    1    2    0    0  0.28714303373E+02 -0.42705996570E+03 -0.29260168764E+03  0.54056648634E+03  0.15294330000E+03 0.  0.
<mgrwt>
<rscale>  0 0.45452874E+03</rscale>
<asrwt>0</asrwt>
<pdfrwt beam="1">  1        2 0.23642419E+00 0.45452874E+03</pdfrwt>
<pdfrwt beam="2">  1       -2 0.26167775E-01 0.45452874E+03</pdfrwt>
<totfact> 0.16722461E+02</totfact>
</mgrwt>
</event>
<event>
 4    1  0.4639964E-008  0.6765354E+03  0.7818608E-02  0.9758223E-01
         -2   -1    0    0    0  501 -0.00000000000E+00  0.00000000000E+00  0.39938653630E+03  0.39938653631E+03  0.25500000000E-02 0.  1.
          2   -1    0    0  501    0  0.00000000000E+00 -0.00000000000E+00 -0.25419276053E+04  0.25419276053E+04  0.25500000000E-02 0. -1.
    8880022    1    1    2    0    0 -0.57979108185E+03 -0.31329028280E+03 -0.21611037373E+04  0.22645241258E+04  0.15294330000E+03 0.  0.
    8880022    1    1    2    0    0  0.57979108185E+03  0.31329028280E+03  0.18562668263E+02  0.67679001586E+03  0.15294330000E+03 0.  0.
<mgrwt>
<rscale>  0 0.67653540E+03</rscale>
<asrwt>0</asrwt>
<pdfrwt beam="1">  1        2 0.39106578E+00 0.67653540E+03</pdfrwt>
<pdfrwt beam="2">  1       -2 0.61444084E-01 0.67653540E+03</pdfrwt>
<totfact> 0.86241255E+00</totfact>
</mgrwt>
</event>
<event>
 4    1  0.4639964E-008  0.4968613E+03  0.7818608E-02  0.1014601E+00
         -2   -1    0    0    0  501 -0.00000000000E+00  0.00000000000E+00  0.13978039422E+03  0.13978039424E+03  0.25500000000E-02 0.  1.
          2   -1    0    0  501    0  0.00000000000E+00 -0.00000000000E+00 -0.25146518655E+04  0.25146518655E+04  0.25500000000E-02 0. -1.
    8880022    1    1    2    0    0  0.31127643443E+03 -0.35578988043E+03 -0.19115437909E+04  0.19750622206E+04  0.15294330000E+03 0.  0.
    8880022    1    1    2    0    0 -0.31127643443E+03  0.35578988043E+03 -0.46332768033E+03  0.67937003910E+03  0.15294330000E+03 0.  0.
<mgrwt>
<rscale>  0 0.49686126E+03</rscale>
<asrwt>0</asrwt>
<pdfrwt beam="1">  1        2 0.38686949E+00 0.49686126E+03</pdfrwt>
<pdfrwt beam="2">  1       -2 0.21504678E-01 0.49686126E+03</pdfrwt>
<totfact> 0.69333207E+01</totfact>
</mgrwt>
</event>
<event>
 4    1  0.4639964E-008  0.5642238E+03  0.7818608E-02  0.9982543E-01
          2   -1    0    0  501    0  0.00000000000E+00  0.00000000000E+00  0.12096207937E+04  0.12096207937E+04  0.25500000000E-02 0. -1.
         -2   -1    0    0    0  501 -0.00000000000E+00 -0.00000000000E+00 -0.39364119788E+03  0.39364119789E+03  0.25500000000E-02 0.  1.
    8880022    1    1    2    0    0 -0.18885826977E+03  0.50920463544E+03 -0.53502309253E+02  0.56675475906E+03  0.15294330000E+03 0.  0.
    8880022    1    1    2    0    0  0.18885826977E+03 -0.50920463544E+03  0.86948190504E+03  0.10365072325E+04  0.15294330000E+03 0.  0.
<mgrwt>
<rscale>  0 0.56422377E+03</rscale>
<asrwt>0</asrwt>
<pdfrwt beam="1">  1        2 0.18609551E+00 0.56422377E+03</pdfrwt>
<pdfrwt beam="2">  1       -2 0.60560184E-01 0.56422377E+03</pdfrwt>
<totfact> 0.49310261E+01</totfact>
</mgrwt>
</event>
<event>
 4    1  0.4639964E-008  0.5552466E+03  0.7818608E-02  0.1000287E+00
         -2   -1    0    0    0  501 -0.00000000000E+00  0.00000000000E+00  0.26733821864E+03  0.26733821866E+03  0.25500000000E-02 0.  1.
          2   -1    0    0  501    0  0.00000000000E+00 -0.00000000000E+00 -0.27696521560E+04  0.27696521560E+04  0.25500000000E-02 0. -1.
    8880022    1    1    2    0    0 -0.26451973789E+03 -0.46361237280E+03 -0.24112158954E+04  0.24743202847E+04  0.15294330000E+03 0.  0.
    8880022    1    1    2    0    0  0.26451973789E+03  0.46361237280E+03 -0.91098042018E+02  0.56267009004E+03  0.15294330000E+03 0.  0.
<mgrwt>
<rscale>  0 0.55524659E+03</rscale>
<asrwt>0</asrwt>
<pdfrwt beam="1">  1        2 0.42610031E+00 0.55524659E+03</pdfrwt>
<pdfrwt beam="2">  1       -2 0.41128959E-01 0.55524659E+03</pdfrwt>
<totfact> 0.14794363E+01</totfact>
</mgrwt>
</event>
<event>
 4    1  0.4639964E-008  0.1047146E+04  0.7818608E-02  0.9258296E-01
         -2   -1    0    0    0  501 -0.00000000000E+00  0.00000000000E+00  0.94317672773E+03  0.94317672773E+03  0.25500000000E-02 0.  1.
          2   -1    0    0  501    0  0.00000000000E+00 -0.00000000000E+00 -0.13621477636E+04  0.13621477636E+04  0.25500000000E-02 0. -1.
    8880022    1    1    2    0    0  0.19310855485E+03 -0.10177580951E+04 -0.65069019274E+03  0.12328470441E+04  0.15294330000E+03 0.  0.
    8880022    1    1    2    0    0 -0.19310855485E+03  0.10177580951E+04  0.23171915690E+03  0.10724774472E+04  0.15294330000E+03 0.  0.
<mgrwt>
<rscale>  0 0.10471457E+04</rscale>
<asrwt>0</asrwt>
<pdfrwt beam="1">  1        2 0.20956119E+00 0.10471457E+04</pdfrwt>
<pdfrwt beam="2">  1       -2 0.14510411E+00 0.10471457E+04</pdfrwt>
<totfact> 0.49116862E+00</totfact>
</mgrwt>
</event>
<event>
 4    1  0.4639964E-008  0.2526674E+03  0.7818608E-02  0.1111631E+00
         -2   -1    0    0    0  501 -0.00000000000E+00  0.00000000000E+00  0.37882270149E+03  0.37882270149E+03  0.25500000000E-02 0.  1.
          2   -1    0    0  501    0  0.00000000000E+00 -0.00000000000E+00 -0.24164005622E+04  0.24164005622E+04  0.25500000000E-02 0. -1.
    8880022    1    1    2    0    0 -0.19449162242E+03  0.51206960719E+02  0.32920597729E+03  0.41499081016E+03  0.15294330000E+03 0.  0.
    8880022    1    1    2    0    0  0.19449162242E+03 -0.51206960719E+02 -0.23667838380E+04  0.23802324536E+04  0.15294330000E+03 0. -1.
<mgrwt>
<rscale>  0 0.25266736E+03</rscale>
<asrwt>0</asrwt>
<pdfrwt beam="1">  1        2 0.37175392E+00 0.25266736E+03</pdfrwt>
<pdfrwt beam="2">  1       -2 0.58280417E-01 0.25266736E+03</pdfrwt>
<totfact> 0.12835895E+01</totfact>
</mgrwt>
</event>
<event>
 4    1  0.4639964E-008  0.7425649E+03  0.7818608E-02  0.9647088E-01
          2   -1    0    0  501    0  0.00000000000E+00  0.00000000000E+00  0.18378084124E+04  0.18378084124E+04  0.25500000000E-02 0. -1.
         -2   -1    0    0    0  501 -0.00000000000E+00 -0.00000000000E+00 -0.44009519454E+03  0.44009519455E+03  0.25500000000E-02 0.  1.
    8880022    1    1    2    0    0 -0.26567109731E+02 -0.72615781942E+03  0.56327300427E+02  0.74469819914E+03  0.15294330000E+03 0.  0.
    8880022    1    1    2    0    0  0.26567109731E+02  0.72615781942E+03  0.13413859175E+04  0.15332054078E+04  0.15294330000E+03 0.  0.
<mgrwt>
<rscale>  0 0.74256491E+03</rscale>
<asrwt>0</asrwt>
<pdfrwt beam="1">  1        2 0.28273976E+00 0.74256491E+03</pdfrwt>
<pdfrwt beam="2">  1       -2 0.67706953E-01 0.74256491E+03</pdfrwt>
<totfact> 0.16958695E+01</totfact>
</mgrwt>
</event>
<event>
 4    1  0.4639964E-008  0.1171941E+04  0.7818608E-02  0.9137778E-01
          2   -1    0    0  501    0  0.00000000000E+00  0.00000000000E+00  0.35500231537E+04  0.35500231537E+04  0.25500000000E-02 0. -1.
         -2   -1    0    0    0  501 -0.00000000000E+00 -0.00000000000E+00 -0.50446845880E+03  0.50446845881E+03  0.25500000000E-02 0.  1.
    8880022    1    1    2    0    0 -0.11469714190E+04  0.18576820934E+03  0.54404142158E+03  0.12920626862E+04  0.15294330000E+03 0.  0.
    8880022    1    1    2    0    0  0.11469714190E+04 -0.18576820934E+03  0.25015132733E+04  0.27624289263E+04  0.15294330000E+03 0.  0.
<mgrwt>
<rscale>  0 0.11719407E+04</rscale>
<asrwt>0</asrwt>
<pdfrwt beam="1">  1        2 0.54615742E+00 0.11719407E+04</pdfrwt>
<pdfrwt beam="2">  1       -2 0.77610530E-01 0.11719407E+04</pdfrwt>
<totfact> 0.11191509E+00</totfact>
</mgrwt>
</event>
<event>
 4    1  0.4639964E-008  0.3593078E+03  0.7818608E-02  0.1058858E+00
          2   -1    0    0  501    0  0.00000000000E+00  0.00000000000E+00  0.18355101010E+04  0.18355101010E+04  0.25500000000E-02 0. -1.
         -2   -1    0    0    0  501 -0.00000000000E+00 -0.00000000000E+00 -0.13669143659E+03  0.13669143661E+03  0.25500000000E-02 0.  1.
    8880022    1    1    2    0    0 -0.24559963258E+03 -0.21305231362E+03  0.16235755841E+03  0.39428682155E+03  0.15294330000E+03 0.  0.
    8880022    1    1    2    0    0  0.24559963258E+03  0.21305231362E+03  0.15364611060E+04  0.15779147160E+04  0.15294330000E+03 0.  0.
<mgrwt>
<rscale>  0 0.35930784E+03</rscale>
<asrwt>0</asrwt>
<pdfrwt beam="1">  1        2 0.28238615E+00 0.35930784E+03</pdfrwt>
<pdfrwt beam="2">  1       -2 0.21029453E-01 0.35930784E+03</pdfrwt>
<totfact> 0.17274206E+02</totfact>
</mgrwt>
</event>
<event>
 4    1  0.4639964E-008  0.4400743E+03  0.7818608E-02  0.1030724E+00
          2   -1    0    0  501    0  0.00000000000E+00  0.00000000000E+00  0.16319668616E+04  0.16319668616E+04  0.25500000000E-02 0. -1.
         -2   -1    0    0    0  501 -0.00000000000E+00 -0.00000000000E+00 -0.32750006697E+03  0.32750006698E+03  0.25500000000E-02 0.  1.
    8880022    1    1    2    0    0  0.22269660096E+03  0.34739017315E+03 -0.13011257778E+03  0.45890592107E+03  0.15294330000E+03 0.  1.
    8880022    1    1    2    0    0 -0.22269660096E+03 -0.34739017315E+03  0.14345793724E+04  0.15005610075E+04  0.15294330000E+03 0.  0.
<mgrwt>
<rscale>  0 0.44007427E+03</rscale>
<asrwt>0</asrwt>
<pdfrwt beam="1">  1        2 0.25107182E+00 0.44007427E+03</pdfrwt>
<pdfrwt beam="2">  1       -2 0.50384626E-01 0.44007427E+03</pdfrwt>
<totfact> 0.42745627E+01</totfact>
</mgrwt>
</event>
<event>
 4    1  0.4639964E-008  0.3740290E+03  0.7818608E-02  0.1053163E+00
          2   -1    0    0  501    0  0.00000000000E+00  0.00000000000E+00  0.54292159637E+03  0.54292159637E+03  0.25500000000E-02 0. -1.
         -2   -1    0    0    0  501 -0.00000000000E+00 -0.00000000000E+00 -0.59069398663E+03  0.59069398663E+03  0.25500000000E-02 0.  1.
    8880022    1    1    2    0    0 -0.11935605287E+03 -0.31978149906E+03  0.40170099503E+03  0.54887286044E+03  0.15294330000E+03 0.  0.
    8880022    1    1    2    0    0  0.11935605287E+03  0.31978149906E+03 -0.44947338529E+03  0.58474272257E+03  0.15294330000E+03 0.  0.
<mgrwt>
<rscale>  0 0.37402905E+03</rscale>
<asrwt>0</asrwt>
<pdfrwt beam="1">  1        2 0.83526399E-01 0.37402905E+03</pdfrwt>
<pdfrwt beam="2">  1       -2 0.90875998E-01 0.37402905E+03</pdfrwt>
<totfact> 0.60449909E+01</totfact>
</mgrwt>
</event>
<event>
 4    1  0.4639964E-008  0.2301302E+03  0.7818608E-02  0.1126548E+00
          2   -1    0    0  501    0  0.00000000000E+00  0.00000000000E+00  0.23187321832E+04  0.23187321832E+04  0.25500000000E-02 0. -1.
         -2   -1    0    0    0  501 -0.00000000000E+00 -0.00000000000E+00 -0.18522742166E+03  0.18522742168E+03  0.25500000000E-02 0.  1.
    8880022    1    1    2    0    0 -0.87478070858E+02  0.14803993060E+03 -0.10549926134E+03  0.25315999109E+03  0.15294330000E+03 0.  1.
    8880022    1    1    2    0    0  0.87478070858E+02 -0.14803993060E+03  0.22390040229E+04  0.22507996138E+04  0.15294330000E+03 0.  0.
<mgrwt>
<rscale>  0 0.23013015E+03</rscale>
<asrwt>0</asrwt>
<pdfrwt beam="1">  1        2 0.35672805E+00 0.23013015E+03</pdfrwt>
<pdfrwt beam="2">  1       -2 0.28496525E-01 0.23013015E+03</pdfrwt>
<totfact> 0.58019919E+01</totfact>
</mgrwt>
</event>
<event>
 4    1  0.4639964E-008  0.4328229E+03  0.7818608E-02  0.1032972E+00
          2   -1    0    0  501    0  0.00000000000E+00  0.00000000000E+00  0.17359800270E+04  0.17359800270E+04  0.25500000000E-02 0. -1.
         -2   -1    0    0    0  501 -0.00000000000E+00 -0.00000000000E+00 -0.68043059397E+03  0.68043059397E+03  0.25500000000E-02 0.  1.
    8880022    1    1    2    0    0  0.32814830147E+03 -0.23719759871E+03  0.16360382856E+04  0.16923229401E+04  0.15294330000E+03 0. -1.
    8880022    1    1    2    0    0 -0.32814830147E+03  0.23719759871E+03 -0.58048885259E+03  0.72408768087E+03  0.15294330000E+03 0.  0.
<mgrwt>
<rscale>  0 0.43282290E+03</rscale>
<asrwt>0</asrwt>
<pdfrwt beam="1">  1        2 0.26707385E+00 0.43282290E+03</pdfrwt>
<pdfrwt beam="2">  1       -2 0.10468163E+00 0.43282290E+03</pdfrwt>
<totfact> 0.76024347E+00</totfact>
</mgrwt>
</event>
