<event>
 4    1  0.3565372E-007  0.6659230E+03  0.7818608E-02  0.1018771E+00
         -2   -1    0    0    0  501 -0.00000000000E+00  0.00000000000E+00  0.15952158157E+03  0.15952158159E+03  0.25500000000E-02 0.  1.
          2   -1    0    0  501    0  0.00000000000E+00 -0.00000000000E+00 -0.17053491379E+04  0.17053491379E+04  0.25500000000E-02 0. -1.
    8880023    1    1    2    0    0 -0.63068908315E+02  0.75269932603E+02 -0.15457764496E+04  0.16831156492E+04  0.65864270000E+03 0.  0.
    8880022    1    1    2    0    0  0.63068908315E+02 -0.75269932603E+02 -0.51106664558E-01  0.18175507029E+03  0.15294330000E+03 0.  0.
<mgrwt>
<rscale>  0 0.48132636E+03</rscale>
<asrwt>0</asrwt>
<pdfrwt beam="1">  1        2 0.26236139E+00 0.66592301E+03</pdfrwt>
<pdfrwt beam="2">  1       -2 0.24541783E-01 0.66592301E+03</pdfrwt>
<totfact> 0.14829641E+02</totfact>
</mgrwt>
</event>
<event>
 4    1  0.3565372E-007  0.7709659E+03  0.7818608E-02  0.9777503E-01
          2   -1    0    0  501    0  0.00000000000E+00  0.00000000000E+00  0.15429911991E+04  0.15429911991E+04  0.25500000000E-02 0. -1.
         -2   -1    0    0    0  501 -0.00000000000E+00 -0.00000000000E+00 -0.33210025843E+03  0.33210025844E+03  0.25500000000E-02 0.  1.
    8880023    1    1    2    0    0 -0.28642677788E+03 -0.28024614234E+03  0.23003076047E+03  0.80455115214E+03  0.65864270000E+03 0.  1.
    8880022    1    1    2    0    0  0.28642677788E+03  0.28024614234E+03  0.98086018023E+03  0.10705403054E+04  0.15294330000E+03 0.  0.
<mgrwt>
<rscale>  0 0.66583973E+03</rscale>
<asrwt>0</asrwt>
<pdfrwt beam="1">  1        2 0.23738327E+00 0.77096589E+03</pdfrwt>
<pdfrwt beam="2">  1       -2 0.51092347E-01 0.77096589E+03</pdfrwt>
<totfact> 0.44353995E+01</totfact>
</mgrwt>
</event>
<event>
 4    1  0.3565372E-007  0.8012604E+03  0.7818608E-02  0.9708077E-01
          2   -1    0    0  501    0  0.00000000000E+00  0.00000000000E+00  0.17516523365E+04  0.17516523365E+04  0.25500000000E-02 0. -1.
         -2   -1    0    0    0  501 -0.00000000000E+00 -0.00000000000E+00 -0.40357612920E+03  0.40357612921E+03  0.25500000000E-02 0.  1.
    8880023    1    1    2    0    0  0.12953632656E+03 -0.43752535179E+03  0.87634298043E+02  0.80603850393E+03  0.65864270000E+03 0.  1.
    8880022    1    1    2    0    0 -0.12953632656E+03  0.43752535179E+03  0.12604419093E+04  0.13491899618E+04  0.15294330000E+03 0.  0.
<mgrwt>
<rscale>  0 0.70537902E+03</rscale>
<asrwt>0</asrwt>
<pdfrwt beam="1">  1        2 0.26948498E+00 0.80126044E+03</pdfrwt>
<pdfrwt beam="2">  1       -2 0.62088635E-01 0.80126044E+03</pdfrwt>
<totfact> 0.22592973E+01</totfact>
</mgrwt>
</event>
<event>
 4    1  0.3565372E-007  0.7052299E+03  0.7818608E-02  0.9976160E-01
          2   -1    0    0  501    0  0.00000000000E+00  0.00000000000E+00  0.16860726677E+04  0.16860726677E+04  0.25500000000E-02 0. -1.
         -2   -1    0    0    0  501 -0.00000000000E+00 -0.00000000000E+00 -0.15327752693E+03  0.15327752695E+03  0.25500000000E-02 0.  1.
    8880023    1    1    2    0    0 -0.11762490555E+03  0.22294264124E+03  0.12223889084E+04  0.14112348810E+04  0.65864270000E+03 0.  0.
    8880022    1    1    2    0    0  0.11762490555E+03 -0.22294264124E+03  0.31040623238E+03  0.42811531368E+03  0.15294330000E+03 0.  0.
<mgrwt>
<rscale>  0 0.56708047E+03</rscale>
<asrwt>0</asrwt>
<pdfrwt beam="1">  1        2 0.25939579E+00 0.70522992E+03</pdfrwt>
<pdfrwt beam="2">  1       -2 0.23581159E-01 0.70522992E+03</pdfrwt>
<totfact> 0.16259061E+02</totfact>
</mgrwt>
</event>
<event>
 4    1  0.3565372E-007  0.1154279E+04  0.7818608E-02  0.9202901E-01
          2   -1    0    0  501    0  0.00000000000E+00  0.00000000000E+00  0.18890539204E+04  0.18890539204E+04  0.25500000000E-02 0. -1.
         -2   -1    0    0    0  501 -0.00000000000E+00 -0.00000000000E+00 -0.13290028872E+04  0.13290028872E+04  0.25500000000E-02 0.  1.
    8880023    1    1    2    0    0  0.94022258212E+03  0.12054612406E+03  0.14876893040E+04  0.18829709354E+04  0.65864270000E+03 0.  0.
    8880022    1    1    2    0    0 -0.94022258212E+03 -0.12054612406E+03 -0.92763827081E+03  0.13350858723E+04  0.15294330000E+03 0.  0.
<mgrwt>
<rscale>  0 0.11023539E+04</rscale>
<asrwt>0</asrwt>
<pdfrwt beam="1">  1        2 0.29062368E+00 0.11542790E+04</pdfrwt>
<pdfrwt beam="2">  1       -2 0.20446198E+00 0.11542790E+04</pdfrwt>
<totfact> 0.93505251E-01</totfact>
</mgrwt>
</event>
<event>
 4    1  0.3565372E-007  0.7166843E+03  0.7818608E-02  0.9933969E-01
         -2   -1    0    0    0  501 -0.00000000000E+00  0.00000000000E+00  0.62549202031E+02  0.62549202083E+02  0.25500000000E-02 0.  1.
          2   -1    0    0  501    0  0.00000000000E+00 -0.00000000000E+00 -0.44074404200E+04  0.44074404200E+04  0.25500000000E-02 0. -1.
    8880023    1    1    2    0    0 -0.13956608114E+03  0.24565716404E+03 -0.32950337216E+04  0.33720740748E+04  0.65864270000E+03 0.  0.
    8880022    1    1    2    0    0  0.13956608114E+03 -0.24565716404E+03 -0.10498574963E+04  0.10979155473E+04  0.15294330000E+03 0.  1.
<mgrwt>
<rscale>  0 0.58642871E+03</rscale>
<asrwt>0</asrwt>
<pdfrwt beam="1">  1        2 0.67806752E+00 0.71668427E+03</pdfrwt>
<pdfrwt beam="2">  1       -2 0.96229576E-02 0.71668427E+03</pdfrwt>
<totfact> 0.12503957E+01</totfact>
</mgrwt>
</event>
<event>
 4    1  0.3565372E-007  0.9231410E+03  0.7818608E-02  0.9489860E-01
         -2   -1    0    0    0  501 -0.00000000000E+00  0.00000000000E+00  0.34032982389E+03  0.34032982390E+03  0.25500000000E-02 0.  1.
          2   -1    0    0  501    0  0.00000000000E+00 -0.00000000000E+00 -0.20527695695E+04  0.20527695695E+04  0.25500000000E-02 0. -1.
    8880023    1    1    2    0    0  0.39496390114E+03 -0.51223297418E+03 -0.13517137412E+04  0.16368626538E+04  0.65864270000E+03 0.  0.
    8880022    1    1    2    0    0 -0.39496390114E+03  0.51223297418E+03 -0.36072600442E+03  0.75623673960E+03  0.15294330000E+03 0.  0.
<mgrwt>
<rscale>  0 0.85035575E+03</rscale>
<asrwt>0</asrwt>
<pdfrwt beam="1">  1        2 0.31581069E+00 0.92314100E+03</pdfrwt>
<pdfrwt beam="2">  1       -2 0.52358436E-01 0.92314100E+03</pdfrwt>
<totfact> 0.21774029E+01</totfact>
</mgrwt>
</event>
<event>
 4    1  0.3565372E-007  0.9054017E+03  0.7818608E-02  0.9517415E-01
          2   -1    0    0  501    0  0.00000000000E+00  0.00000000000E+00  0.27591831790E+04  0.27591831790E+04  0.25500000000E-02 0. -1.
         -2   -1    0    0    0  501 -0.00000000000E+00 -0.00000000000E+00 -0.49429688428E+03  0.49429688429E+03  0.25500000000E-02 0.  1.
    8880023    1    1    2    0    0 -0.48955313967E+03 -0.38246546940E+03  0.24296058384E+04  0.25928241067E+04  0.65864270000E+03 0. -1.
    8880022    1    1    2    0    0  0.48955313967E+03  0.38246546940E+03 -0.16471954374E+03  0.66065595657E+03  0.15294330000E+03 0.  0.
<mgrwt>
<rscale>  0 0.83011964E+03</rscale>
<asrwt>0</asrwt>
<pdfrwt beam="1">  1        2 0.42448971E+00 0.90540174E+03</pdfrwt>
<pdfrwt beam="2">  1       -2 0.76045676E-01 0.90540174E+03</pdfrwt>
<totfact> 0.39043747E+00</totfact>
</mgrwt>
</event>
<event>
 4    1  0.3565372E-007  0.7827903E+03  0.7818608E-02  0.9749323E-01
          2   -1    0    0  501    0  0.00000000000E+00  0.00000000000E+00  0.10522310319E+04  0.10522310319E+04  0.25500000000E-02 0. -1.
         -2   -1    0    0    0  501 -0.00000000000E+00 -0.00000000000E+00 -0.53196932854E+03  0.53196932855E+03  0.25500000000E-02 0.  1.
    8880023    1    1    2    0    0 -0.16815659816E+03 -0.38816729845E+03  0.74563117891E+03  0.10810765719E+04  0.65864270000E+03 0. -1.
    8880022    1    1    2    0    0  0.16815659816E+03  0.38816729845E+03 -0.22536947555E+03  0.50312378856E+03  0.15294330000E+03 0.  0.
<mgrwt>
<rscale>  0 0.68154554E+03</rscale>
<asrwt>0</asrwt>
<pdfrwt beam="1">  1        2 0.16188170E+00 0.78279033E+03</pdfrwt>
<pdfrwt beam="2">  1       -2 0.81841436E-01 0.78279033E+03</pdfrwt>
<totfact> 0.31052610E+01</totfact>
</mgrwt>
</event>
<event>
 4    1  0.3565372E-007  0.6664571E+03  0.7818608E-02  0.1018341E+00
         -2   -1    0    0    0  501 -0.00000000000E+00  0.00000000000E+00  0.40937617407E+03  0.40937617408E+03  0.25500000000E-02 0.  1.
          2   -1    0    0  501    0  0.00000000000E+00 -0.00000000000E+00 -0.12546697124E+04  0.12546697124E+04  0.25500000000E-02 0. -1.
    8880023    1    1    2    0    0  0.10149221686E+03 -0.73599471201E+01 -0.11378116696E+04  0.13186282420E+04  0.65864270000E+03 0. -1.
    8880022    1    1    2    0    0 -0.10149221686E+03  0.73599471201E+01  0.29251813132E+03  0.34541764441E+03  0.15294330000E+03 0.  0.
<mgrwt>
<rscale>  0 0.48290057E+03</rscale>
<asrwt>0</asrwt>
<pdfrwt beam="1">  1        2 0.19302611E+00 0.66645708E+03</pdfrwt>
<pdfrwt beam="2">  1       -2 0.62980951E-01 0.66645708E+03</pdfrwt>
<totfact> 0.42202784E+01</totfact>
</mgrwt>
</event>
<event>
 4    1  0.3565372E-007  0.8190587E+03  0.7818608E-02  0.9671008E-01
         -2   -1    0    0    0  501 -0.00000000000E+00  0.00000000000E+00  0.10193974136E+04  0.10193974136E+04  0.25500000000E-02 0.  1.
          2   -1    0    0  501    0  0.00000000000E+00 -0.00000000000E+00 -0.15968646534E+04  0.15968646534E+04  0.25500000000E-02 0. -1.
    8880023    1    1    2    0    0 -0.48531561441E+03 -0.38931485796E+02 -0.14153145799E+04  0.16352285689E+04  0.65864270000E+03 0. -1.
    8880022    1    1    2    0    0  0.48531561441E+03  0.38931485796E+02  0.83784734006E+03  0.98103349813E+03  0.15294330000E+03 0.  0.
<mgrwt>
<rscale>  0 0.72769505E+03</rscale>
<asrwt>0</asrwt>
<pdfrwt beam="1">  1        2 0.24567148E+00 0.81905867E+03</pdfrwt>
<pdfrwt beam="2">  1       -2 0.15683037E+00 0.81905867E+03</pdfrwt>
<totfact> 0.30314550E+00</totfact>
</mgrwt>
</event>
<event>
 4    1  0.3565372E-007  0.7727603E+03  0.7818608E-02  0.9773126E-01
          2   -1    0    0  501    0  0.00000000000E+00  0.00000000000E+00  0.32940824157E+03  0.32940824158E+03  0.25500000000E-02 0. -1.
         -2   -1    0    0    0  501 -0.00000000000E+00 -0.00000000000E+00 -0.13574422145E+04  0.13574422145E+04  0.25500000000E-02 0.  1.
    8880023    1    1    2    0    0 -0.40081526211E+03 -0.51917785684E+02 -0.98591001780E+03  0.12526679928E+04  0.65864270000E+03 0.  0.
    8880022    1    1    2    0    0  0.40081526211E+03  0.51917785684E+02 -0.42123955171E+02  0.43418246328E+03  0.15294330000E+03 0.  0.
<mgrwt>
<rscale>  0 0.66824894E+03</rscale>
<asrwt>0</asrwt>
<pdfrwt beam="1">  1        2 0.50678192E-01 0.77276034E+03</pdfrwt>
<pdfrwt beam="2">  1       -2 0.20883726E+00 0.77276034E+03</pdfrwt>
<totfact> 0.11718852E+01</totfact>
</mgrwt>
</event>
<event>
 4    1  0.3565372E-007  0.8566871E+03  0.7818608E-02  0.9599484E-01
         -2   -1    0    0    0  501 -0.00000000000E+00  0.00000000000E+00  0.51413428495E+03  0.51413428496E+03  0.25500000000E-02 0.  1.
          2   -1    0    0  501    0  0.00000000000E+00 -0.00000000000E+00 -0.25521271546E+04  0.25521271546E+04  0.25500000000E-02 0. -1.
    8880023    1    1    2    0    0  0.51540962553E+03  0.18562212814E+03 -0.22893805501E+04  0.24444173469E+04  0.65864270000E+03 0. -1.
    8880022    1    1    2    0    0 -0.51540962553E+03 -0.18562212814E+03  0.25138768050E+03  0.62184409258E+03  0.15294330000E+03 0.  0.
<mgrwt>
<rscale>  0 0.77330358E+03</rscale>
<asrwt>0</asrwt>
<pdfrwt beam="1">  1        2 0.39263494E+00 0.85668714E+03</pdfrwt>
<pdfrwt beam="2">  1       -2 0.79097584E-01 0.85668714E+03</pdfrwt>
<totfact> 0.47532795E+00</totfact>
</mgrwt>
</event>
<event>
 4    1  0.3565372E-007  0.8067099E+03  0.7818608E-02  0.9696471E-01
          2   -1    0    0  501    0  0.00000000000E+00  0.00000000000E+00  0.74552979213E+03  0.74552979213E+03  0.25500000000E-02 0. -1.
         -2   -1    0    0    0  501 -0.00000000000E+00 -0.00000000000E+00 -0.68391531866E+03  0.68391531867E+03  0.25500000000E-02 0.  1.
    8880023    1    1    2    0    0 -0.21218223130E+02 -0.46531758889E+03  0.32874841105E+03  0.87112363965E+03  0.65864270000E+03 0. -1.
    8880022    1    1    2    0    0  0.21218223130E+02  0.46531758889E+03 -0.26713393758E+03  0.55832147115E+03  0.15294330000E+03 0.  0.
<mgrwt>
<rscale>  0 0.71227277E+03</rscale>
<asrwt>0</asrwt>
<pdfrwt beam="1">  1        2 0.11469689E+00 0.80670991E+03</pdfrwt>
<pdfrwt beam="2">  1       -2 0.10521774E+00 0.80670991E+03</pdfrwt>
<totfact> 0.27889126E+01</totfact>
</mgrwt>
</event>
<event>
 4    1  0.3565372E-007  0.7484916E+03  0.7818608E-02  0.9835868E-01
         -2   -1    0    0    0  501 -0.00000000000E+00  0.00000000000E+00  0.60329316305E+03  0.60329316305E+03  0.25500000000E-02 0.  1.
          2   -1    0    0  501    0  0.00000000000E+00 -0.00000000000E+00 -0.11498171186E+04  0.11498171186E+04  0.25500000000E-02 0. -1.
    8880023    1    1    2    0    0  0.35115768878E+03 -0.55836354982E+02 -0.93970931528E+03  0.12013713932E+04  0.65864270000E+03 0. -1.
    8880022    1    1    2    0    0 -0.35115768878E+03  0.55836354982E+02  0.39318535971E+03  0.55173888846E+03  0.15294330000E+03 0.  1.
<mgrwt>
<rscale>  0 0.63472674E+03</rscale>
<asrwt>0</asrwt>
<pdfrwt beam="1">  1        2 0.17689494E+00 0.74849157E+03</pdfrwt>
<pdfrwt beam="2">  1       -2 0.92814332E-01 0.74849157E+03</pdfrwt>
<totfact> 0.20353765E+01</totfact>
</mgrwt>
</event>
<event>
 4    1  0.3565372E-007  0.6743059E+03  0.7818608E-02  0.1012747E+00
          2   -1    0    0  501    0  0.00000000000E+00  0.00000000000E+00  0.50823002673E+03  0.50823002674E+03  0.25500000000E-02 0. -1.
         -2   -1    0    0    0  501 -0.00000000000E+00 -0.00000000000E+00 -0.79429885179E+03  0.79429885179E+03  0.25500000000E-02 0.  1.
    8880023    1    1    2    0    0  0.14393303323E+03 -0.12707196599E+02  0.25583847434E+03  0.72120851500E+03  0.65864270000E+03 0. -1.
    8880022    1    1    2    0    0 -0.14393303323E+03  0.12707196599E+02 -0.54190729939E+03  0.58132036353E+03  0.15294330000E+03 0.  0.
<mgrwt>
<rscale>  0 0.50397176E+03</rscale>
<asrwt>0</asrwt>
<pdfrwt beam="1">  1        2 0.78189235E-01 0.67430586E+03</pdfrwt>
<pdfrwt beam="2">  1       -2 0.12219982E+00 0.67430586E+03</pdfrwt>
<totfact> 0.31229590E+01</totfact>
</mgrwt>
</event>
<event>
 4    1  0.3565372E-007  0.1243180E+04  0.7818608E-02  0.9116250E-01
         -2   -1    0    0    0  501 -0.00000000000E+00  0.00000000000E+00  0.60746088074E+03  0.60746088074E+03  0.25500000000E-02 0.  1.
          2   -1    0    0  501    0  0.00000000000E+00 -0.00000000000E+00 -0.24830947667E+04  0.24830947667E+04  0.25500000000E-02 0. -1.
    8880023    1    1    2    0    0  0.97722142329E+03 -0.39588401277E+03 -0.15280678409E+04  0.19698952750E+04  0.65864270000E+03 0.  1.
    8880022    1    1    2    0    0 -0.97722142329E+03  0.39588401277E+03 -0.34756604503E+03  0.11206603724E+04  0.15294330000E+03 0.  0.
<mgrwt>
<rscale>  0 0.11961307E+04</rscale>
<asrwt>0</asrwt>
<pdfrwt beam="1">  1        2 0.38201458E+00 0.12431798E+04</pdfrwt>
<pdfrwt beam="2">  1       -2 0.93455521E-01 0.12431798E+04</pdfrwt>
<totfact> 0.33767834E+00</totfact>
</mgrwt>
</event>
<event>
 4    1  0.3565372E-007  0.7669088E+03  0.7818608E-02  0.9787539E-01
          2   -1    0    0  501    0  0.00000000000E+00  0.00000000000E+00  0.28957887047E+04  0.28957887047E+04  0.25500000000E-02 0. -1.
         -2   -1    0    0    0  501 -0.00000000000E+00 -0.00000000000E+00 -0.80970965380E+03  0.80970965380E+03  0.25500000000E-02 0.  1.
    8880023    1    1    2    0    0 -0.24006427892E+03 -0.31097911423E+03  0.27853360161E+04  0.28889869845E+04  0.65864270000E+03 0.  0.
    8880022    1    1    2    0    0  0.24006427892E+03  0.31097911423E+03 -0.69925696522E+03  0.81651137403E+03  0.15294330000E+03 0.  1.
<mgrwt>
<rscale>  0 0.66035586E+03</rscale>
<asrwt>0</asrwt>
<pdfrwt beam="1">  1        2 0.44550595E+00 0.76690878E+03</pdfrwt>
<pdfrwt beam="2">  1       -2 0.12457072E+00 0.76690878E+03</pdfrwt>
<totfact> 0.10367709E+00</totfact>
</mgrwt>
</event>
<event>
 4    1  0.3565372E-007  0.8750995E+03  0.7818608E-02  0.9567249E-01
          2   -1    0    0  501    0  0.00000000000E+00  0.00000000000E+00  0.83986185840E+03  0.83986185840E+03  0.25500000000E-02 0. -1.
         -2   -1    0    0    0  501 -0.00000000000E+00 -0.00000000000E+00 -0.11647968010E+04  0.11647968010E+04  0.25500000000E-02 0.  1.
    8880023    1    1    2    0    0  0.38104143898E+03 -0.43219937198E+03  0.48381753816E+03  0.99993924408E+03  0.65864270000E+03 0. -1.
    8880022    1    1    2    0    0 -0.38104143898E+03  0.43219937198E+03 -0.80875248076E+03  0.10047194153E+04  0.15294330000E+03 0.  0.
<mgrwt>
<rscale>  0 0.79502314E+03</rscale>
<asrwt>0</asrwt>
<pdfrwt beam="1">  1        2 0.12920952E+00 0.87509947E+03</pdfrwt>
<pdfrwt beam="2">  1       -2 0.17919951E+00 0.87509947E+03</pdfrwt>
<totfact> 0.59516871E+00</totfact>
</mgrwt>
</event>
<event>
 4    1  0.3565372E-007  0.7742234E+03  0.7818608E-02  0.9769585E-01
         -2   -1    0    0    0  501 -0.00000000000E+00  0.00000000000E+00  0.70588609453E+03  0.70588609453E+03  0.25500000000E-02 0.  1.
          2   -1    0    0  501    0  0.00000000000E+00 -0.00000000000E+00 -0.19827121926E+04  0.19827121926E+04  0.25500000000E-02 0. -1.
    8880023    1    1    2    0    0 -0.39564562414E+03 -0.95269354261E+02 -0.18288247833E+04  0.19859561939E+04  0.65864270000E+03 0. -1.
    8880022    1    1    2    0    0  0.39564562414E+03  0.95269354261E+02  0.55199868520E+03  0.70264209327E+03  0.15294330000E+03 0.  0.
<mgrwt>
<rscale>  0 0.67020617E+03</rscale>
<asrwt>0</asrwt>
<pdfrwt beam="1">  1        2 0.30503264E+00 0.77422343E+03</pdfrwt>
<pdfrwt beam="2">  1       -2 0.10859786E+00 0.77422343E+03</pdfrwt>
<totfact> 0.47761980E+00</totfact>
</mgrwt>
</event>
<event>
 4    1  0.3565372E-007  0.7977970E+03  0.7818608E-02  0.9715580E-01
          2   -1    0    0  501    0  0.00000000000E+00  0.00000000000E+00  0.14598311356E+04  0.14598311356E+04  0.25500000000E-02 0. -1.
         -2   -1    0    0    0  501 -0.00000000000E+00 -0.00000000000E+00 -0.35334899373E+03  0.35334899374E+03  0.25500000000E-02 0.  1.
    8880023    1    1    2    0    0 -0.41833436157E+03  0.16633165574E+03  0.10722529476E+04  0.13364903470E+04  0.65864270000E+03 0. -1.
    8880022    1    1    2    0    0  0.41833436157E+03 -0.16633165574E+03  0.34229194223E+02  0.47668978227E+03  0.15294330000E+03 0.  0.
<mgrwt>
<rscale>  0 0.70096709E+03</rscale>
<asrwt>0</asrwt>
<pdfrwt beam="1">  1        2 0.22458940E+00 0.79779701E+03</pdfrwt>
<pdfrwt beam="2">  1       -2 0.54361385E-01 0.79779701E+03</pdfrwt>
<totfact> 0.43319054E+01</totfact>
</mgrwt>
</event>
<event>
 4    1  0.3565372E-007  0.8282232E+03  0.7818608E-02  0.9652799E-01
         -2   -1    0    0    0  501 -0.00000000000E+00  0.00000000000E+00  0.14991629637E+04  0.14991629637E+04  0.25500000000E-02 0.  1.
          2   -1    0    0  501    0  0.00000000000E+00 -0.00000000000E+00 -0.10580157809E+04  0.10580157809E+04  0.25500000000E-02 0. -1.
    8880023    1    1    2    0    0  0.62304332944E+02  0.49825856449E+03 -0.83573768290E+03  0.11766100067E+04  0.65864270000E+03 0.  0.
    8880022    1    1    2    0    0 -0.62304332944E+02 -0.49825856449E+03  0.12768848656E+04  0.13805687379E+04  0.15294330000E+03 0.  0.
<mgrwt>
<rscale>  0 0.73897994E+03</rscale>
<asrwt>0</asrwt>
<pdfrwt beam="1">  1        2 0.16277166E+00 0.82822318E+03</pdfrwt>
<pdfrwt beam="2">  1       -2 0.23064045E+00 0.82822318E+03</pdfrwt>
<totfact> 0.19953448E+00</totfact>
</mgrwt>
</event>
<event>
 4    1  0.3565372E-007  0.6834477E+03  0.7818608E-02  0.1007437E+00
          2   -1    0    0  501    0  0.00000000000E+00  0.00000000000E+00  0.24880742253E+04  0.24880742253E+04  0.25500000000E-02 0. -1.
         -2   -1    0    0    0  501 -0.00000000000E+00 -0.00000000000E+00 -0.16715661264E+03  0.16715661266E+03  0.25500000000E-02 0.  1.
    8880023    1    1    2    0    0  0.12344534333E+03 -0.13435695478E+03  0.23185032062E+04  0.24171383634E+04  0.65864270000E+03 0. -1.
    8880022    1    1    2    0    0 -0.12344534333E+03  0.13435695478E+03  0.24144064246E+01  0.23809247459E+03  0.15294330000E+03 0.  0.
<mgrwt>
<rscale>  0 0.52506104E+03</rscale>
<asrwt>0</asrwt>
<pdfrwt beam="1">  1        2 0.38278060E+00 0.68344769E+03</pdfrwt>
<pdfrwt beam="2">  1       -2 0.25716405E-01 0.68344769E+03</pdfrwt>
<totfact> 0.50578502E+01</totfact>
</mgrwt>
</event>
<event>
 4    1  0.3565372E-007  0.8252211E+03  0.7818608E-02  0.9658703E-01
          2   -1    0    0  501    0  0.00000000000E+00  0.00000000000E+00  0.35335943729E+04  0.35335943729E+04  0.25500000000E-02 0. -1.
         -2   -1    0    0    0  501 -0.00000000000E+00 -0.00000000000E+00 -0.29675147005E+03  0.29675147006E+03  0.25500000000E-02 0.  1.
    8880023    1    1    2    0    0  0.22148309240E+03 -0.44511225638E+03  0.32046399365E+04  0.33091852487E+04  0.65864270000E+03 0.  0.
    8880022    1    1    2    0    0 -0.22148309240E+03  0.44511225638E+03  0.32202966345E+02  0.52116059430E+03  0.15294330000E+03 0.  0.
<mgrwt>
<rscale>  0 0.73529730E+03</rscale>
<asrwt>0</asrwt>
<pdfrwt beam="1">  1        2 0.54362991E+00 0.82522111E+03</pdfrwt>
<pdfrwt beam="2">  1       -2 0.45654072E-01 0.82522111E+03</pdfrwt>
<totfact> 0.37484914E+00</totfact>
</mgrwt>
</event>
<event>
 4    1  0.3565372E-007  0.9795190E+03  0.7818608E-02  0.9408858E-01
          2   -1    0    0  501    0  0.00000000000E+00  0.00000000000E+00  0.21442982844E+04  0.21442982844E+04  0.25500000000E-02 0. -1.
         -2   -1    0    0    0  501 -0.00000000000E+00 -0.00000000000E+00 -0.51919184513E+03  0.51919184514E+03  0.25500000000E-02 0.  1.
    8880023    1    1    2    0    0  0.18305244773E+03  0.70152624514E+03  0.12124500809E+03  0.98699434116E+03  0.65864270000E+03 0.  0.
    8880022    1    1    2    0    0 -0.18305244773E+03 -0.70152624514E+03  0.15038614312E+04  0.16764957884E+04  0.15294330000E+03 0.  0.
<mgrwt>
<rscale>  0 0.91350313E+03</rscale>
<asrwt>0</asrwt>
<pdfrwt beam="1">  1        2 0.32989205E+00 0.97951900E+03</pdfrwt>
<pdfrwt beam="2">  1       -2 0.79875668E-01 0.97951900E+03</pdfrwt>
<totfact> 0.77496084E+00</totfact>
</mgrwt>
</event>
<event>
 4    1  0.3565372E-007  0.7401615E+03  0.7818608E-02  0.9859477E-01
          2   -1    0    0  501    0  0.00000000000E+00  0.00000000000E+00  0.18323753718E+04  0.18323753718E+04  0.25500000000E-02 0. -1.
         -2   -1    0    0    0  501 -0.00000000000E+00 -0.00000000000E+00 -0.24626446706E+03  0.24626446707E+03  0.25500000000E-02 0.  1.
    8880023    1    1    2    0    0  0.28473799772E+03 -0.18152999385E+03  0.15353906645E+04  0.17044833718E+04  0.65864270000E+03 0.  0.
    8880022    1    1    2    0    0 -0.28473799772E+03  0.18152999385E+03  0.50720240219E+02  0.37415646700E+03  0.15294330000E+03 0.  0.
<mgrwt>
<rscale>  0 0.62266051E+03</rscale>
<asrwt>0</asrwt>
<pdfrwt beam="1">  1        2 0.28190390E+00 0.74016152E+03</pdfrwt>
<pdfrwt beam="2">  1       -2 0.37886841E-01 0.74016152E+03</pdfrwt>
<totfact> 0.55928615E+01</totfact>
</mgrwt>
</event>
<event>
 4    1  0.3565372E-007  0.7337579E+03  0.7818608E-02  0.9878518E-01
          2   -1    0    0  501    0  0.00000000000E+00  0.00000000000E+00  0.37767023076E+04  0.37767023076E+04  0.25500000000E-02 0. -1.
         -2   -1    0    0    0  501 -0.00000000000E+00 -0.00000000000E+00 -0.14296787089E+03  0.14296787091E+03  0.25500000000E-02 0.  1.
    8880023    1    1    2    0    0  0.29878197959E+03  0.12377324915E+03  0.34307702744E+04  0.35083593560E+04  0.65864270000E+03 0.  0.
    8880022    1    1    2    0    0 -0.29878197959E+03 -0.12377324915E+03  0.20296416227E+03  0.41131082251E+03  0.15294330000E+03 0.  0.
<mgrwt>
<rscale>  0 0.61313806E+03</rscale>
<asrwt>0</asrwt>
<pdfrwt beam="1">  1        2 0.58103105E+00 0.73375793E+03</pdfrwt>
<pdfrwt beam="2">  1       -2 0.21995060E-01 0.73375793E+03</pdfrwt>
<totfact> 0.10099244E+01</totfact>
</mgrwt>
</event>
<event>
 4    1  0.3565372E-007  0.7007463E+03  0.7818608E-02  0.9994119E-01
         -2   -1    0    0    0  501 -0.00000000000E+00  0.00000000000E+00  0.15474642622E+03  0.15474642624E+03  0.25500000000E-02 0.  1.
          2   -1    0    0  501    0  0.00000000000E+00 -0.00000000000E+00 -0.27637942443E+04  0.27637942443E+04  0.25500000000E-02 0. -1.
    8880023    1    1    2    0    0 -0.20561492344E+03  0.12230148074E+03 -0.25278949807E+04  0.26232229011E+04  0.65864270000E+03 0. -1.
    8880022    1    1    2    0    0  0.20561492344E+03 -0.12230148074E+03 -0.81152837360E+02  0.29531776946E+03  0.15294330000E+03 0.  1.
<mgrwt>
<rscale>  0 0.55908846E+03</rscale>
<asrwt>0</asrwt>
<pdfrwt beam="1">  1        2 0.42519908E+00 0.70074628E+03</pdfrwt>
<pdfrwt beam="2">  1       -2 0.23807145E-01 0.70074628E+03</pdfrwt>
<totfact> 0.40231877E+01</totfact>
</mgrwt>
</event>
<event>
 4    1  0.3565372E-007  0.6651051E+03  0.7818608E-02  0.1019445E+00
          2   -1    0    0  501    0  0.00000000000E+00  0.00000000000E+00  0.23257869412E+03  0.23257869414E+03  0.25500000000E-02 0. -1.
         -2   -1    0    0    0  501 -0.00000000000E+00 -0.00000000000E+00 -0.78011581185E+03  0.78011581186E+03  0.25500000000E-02 0.  1.
    8880023    1    1    2    0    0 -0.36499052927E+02  0.84984541017E+02 -0.37149681652E+03  0.76182323673E+03  0.65864270000E+03 0. -1.
    8880022    1    1    2    0    0  0.36499052927E+02 -0.84984541017E+02 -0.17604030121E+03  0.25087126926E+03  0.15294330000E+03 0.  1.
<mgrwt>
<rscale>  0 0.47887273E+03</rscale>
<asrwt>0</asrwt>
<pdfrwt beam="1">  1        2 0.35781338E-01 0.66510507E+03</pdfrwt>
<pdfrwt beam="2">  1       -2 0.12001782E+00 0.66510507E+03</pdfrwt>
<totfact> 0.78511304E+01</totfact>
</mgrwt>
</event>
<event>
 4    1  0.4556083E-007  0.8794846E+03  0.7818608E-02  0.9559802E-01
         -2   -1    0    0    0  501 -0.00000000000E+00  0.00000000000E+00  0.10934688029E+04  0.10934688029E+04  0.25500000000E-02 0.  1.
          2   -1    0    0  501    0  0.00000000000E+00 -0.00000000000E+00 -0.20031544146E+04  0.20031544146E+04  0.25500000000E-02 0. -1.
    8880023    1    1    2    0    0 -0.40621378348E+03 -0.41793944165E+03 -0.18105293749E+04  0.20128362672E+04  0.65864270000E+03 0. -1.
    8880022    1    1    2    0    0  0.40621378348E+03  0.41793944165E+03  0.90084376324E+03  0.10837869503E+04  0.15294330000E+03 0.  0.
<mgrwt>
<rscale>  0 0.80014867E+03</rscale>
<asrwt>0</asrwt>
<pdfrwt beam="1">  1        2 0.30817760E+00 0.87948463E+03</pdfrwt>
<pdfrwt beam="2">  1       -2 0.16822597E+00 0.87948463E+03</pdfrwt>
<totfact> 0.14836981E+00</totfact>
</mgrwt>
</event>
<event>
 4    1  0.6150809E-007  0.9016357E+03  0.7818608E-02  0.9523411E-01
         -2   -1    0    0    0  501 -0.00000000000E+00  0.00000000000E+00  0.19258381231E+04  0.19258381231E+04  0.25500000000E-02 0.  1.
          2   -1    0    0  501    0  0.00000000000E+00 -0.00000000000E+00 -0.15575482251E+04  0.15575482251E+04  0.25500000000E-02 0. -1.
    8880023    1    1    2    0    0  0.51485306841E+03  0.33773219840E+03 -0.13659740075E+04  0.16367137548E+04  0.65864270000E+03 0.  0.
    8880022    1    1    2    0    0 -0.51485306841E+03 -0.33773219840E+03  0.17342639055E+04  0.18466725933E+04  0.15294330000E+03 0.  0.
<mgrwt>
<rscale>  0 0.82579621E+03</rscale>
<asrwt>0</asrwt>
<pdfrwt beam="1">  1        2 0.23962280E+00 0.90163569E+03</pdfrwt>
<pdfrwt beam="2">  1       -2 0.29628279E+00 0.90163569E+03</pdfrwt>
<totfact> 0.40351760E-01</totfact>
</mgrwt>
</event>
<event>
 4    1  0.3565372E-007  0.6751290E+03  0.7818608E-02  0.1012225E+00
         -2   -1    0    0    0  501 -0.00000000000E+00  0.00000000000E+00  0.72497903726E+03  0.72497903726E+03  0.25500000000E-02 0.  1.
          2   -1    0    0  501    0  0.00000000000E+00 -0.00000000000E+00 -0.38649982251E+03  0.38649982252E+03  0.25500000000E-02 0. -1.
    8880023    1    1    2    0    0 -0.95958396538E+02 -0.11305288774E+03 -0.40916433092E+02  0.67636774764E+03  0.65864270000E+03 0. -1.
    8880022    1    1    2    0    0  0.95958396538E+02  0.11305288774E+03  0.37939564784E+03  0.43511111214E+03  0.15294330000E+03 0.  0.
<mgrwt>
<rscale>  0 0.50599809E+03</rscale>
<asrwt>0</asrwt>
<pdfrwt beam="1">  1        2 0.59461512E-01 0.67512901E+03</pdfrwt>
<pdfrwt beam="2">  1       -2 0.11153524E+00 0.67512901E+03</pdfrwt>
<totfact> 0.53347350E+01</totfact>
</mgrwt>
</event>
<event>
 4    1  0.3565372E-007  0.9317375E+03  0.7818608E-02  0.9476892E-01
          2   -1    0    0  501    0  0.00000000000E+00  0.00000000000E+00  0.14047591863E+04  0.14047591863E+04  0.25500000000E-02 0. -1.
         -2   -1    0    0    0  501 -0.00000000000E+00 -0.00000000000E+00 -0.58734427417E+03  0.58734427417E+03  0.25500000000E-02 0.  1.
    8880023    1    1    2    0    0 -0.65832986935E+03 -0.30436022944E+02  0.91814351313E+03  0.13080987292E+04  0.65864270000E+03 0.  0.
    8880022    1    1    2    0    0  0.65832986935E+03  0.30436022944E+02 -0.10072860097E+03  0.68400473130E+03  0.15294330000E+03 0.  0.
<mgrwt>
<rscale>  0 0.86009163E+03</rscale>
<asrwt>0</asrwt>
<pdfrwt beam="1">  1        2 0.21611680E+00 0.93173750E+03</pdfrwt>
<pdfrwt beam="2">  1       -2 0.90360658E-01 0.93173750E+03</pdfrwt>
<totfact> 0.15090589E+01</totfact>
</mgrwt>
</event>
<event>
 4    1  0.3565372E-007  0.8004073E+03  0.7818608E-02  0.9709916E-01
          2   -1    0    0  501    0  0.00000000000E+00  0.00000000000E+00  0.14770893549E+04  0.14770893549E+04  0.25500000000E-02 0. -1.
         -2   -1    0    0    0  501 -0.00000000000E+00 -0.00000000000E+00 -0.61081831047E+03  0.61081831048E+03  0.25500000000E-02 0.  1.
    8880023    1    1    2    0    0 -0.19460912121E+02  0.45438190335E+03  0.12426217830E+04  0.14780936178E+04  0.65864270000E+03 0. -1.
    8880022    1    1    2    0    0  0.19460912121E+02 -0.45438190335E+03 -0.37635073855E+03  0.60981404757E+03  0.15294330000E+03 0.  0.
<mgrwt>
<rscale>  0 0.70429450E+03</rscale>
<asrwt>0</asrwt>
<pdfrwt beam="1">  1        2 0.22724452E+00 0.80040730E+03</pdfrwt>
<pdfrwt beam="2">  1       -2 0.93972048E-01 0.80040730E+03</pdfrwt>
<totfact> 0.12722704E+01</totfact>
</mgrwt>
</event>
<event>
 4    1  0.3565372E-007  0.7942626E+03  0.7818608E-02  0.9723342E-01
          2   -1    0    0  501    0  0.00000000000E+00  0.00000000000E+00  0.32874558844E+04  0.32874558844E+04  0.25500000000E-02 0. -1.
         -2   -1    0    0    0  501 -0.00000000000E+00 -0.00000000000E+00 -0.45958489696E+03  0.45958489697E+03  0.25500000000E-02 0.  1.
    8880023    1    1    2    0    0 -0.16595320083E+03 -0.41170663145E+03  0.31028796682E+04  0.32029229239E+04  0.65864270000E+03 0. -1.
    8880022    1    1    2    0    0  0.16595320083E+03  0.41170663145E+03 -0.27500868076E+03  0.54411785741E+03  0.15294330000E+03 0.  0.
<mgrwt>
<rscale>  0 0.69643888E+03</rscale>
<asrwt>0</asrwt>
<pdfrwt beam="1">  1        2 0.50576245E+00 0.79426256E+03</pdfrwt>
<pdfrwt beam="2">  1       -2 0.70705368E-01 0.79426256E+03</pdfrwt>
<totfact> 0.22064791E+00</totfact>
</mgrwt>
</event>
<event>
 4    1  0.3565372E-007  0.7020901E+03  0.7818608E-02  0.9988639E-01
          2   -1    0    0  501    0  0.00000000000E+00  0.00000000000E+00  0.17718264941E+04  0.17718264941E+04  0.25500000000E-02 0. -1.
         -2   -1    0    0    0  501 -0.00000000000E+00 -0.00000000000E+00 -0.67918609804E+03  0.67918609805E+03  0.25500000000E-02 0.  1.
    8880023    1    1    2    0    0 -0.20502368510E+03  0.13071207691E+03  0.16670059982E+04  0.18088227008E+04  0.65864270000E+03 0. -1.
    8880022    1    1    2    0    0  0.20502368510E+03 -0.13071207691E+03 -0.57436560221E+03  0.64218989132E+03  0.15294330000E+03 0.  0.
<mgrwt>
<rscale>  0 0.56151234E+03</rscale>
<asrwt>0</asrwt>
<pdfrwt beam="1">  1        2 0.27258869E+00 0.70209014E+03</pdfrwt>
<pdfrwt beam="2">  1       -2 0.10449017E+00 0.70209014E+03</pdfrwt>
<totfact> 0.69076527E+00</totfact>
</mgrwt>
</event>
<event>
 4    1  0.3565372E-007  0.8238136E+03  0.7818608E-02  0.9661491E-01
          2   -1    0    0  501    0  0.00000000000E+00  0.00000000000E+00  0.13104891864E+04  0.13104891864E+04  0.25500000000E-02 0. -1.
         -2   -1    0    0    0  501 -0.00000000000E+00 -0.00000000000E+00 -0.18576647349E+04  0.18576647349E+04  0.25500000000E-02 0.  1.
    8880023    1    1    2    0    0 -0.14203898412E+03  0.47400791053E+03  0.11381664884E+04  0.14050237485E+04  0.65864270000E+03 0. -1.
    8880022    1    1    2    0    0  0.14203898412E+03 -0.47400791053E+03 -0.16853420368E+04  0.17631301728E+04  0.15294330000E+03 0.  0.
<mgrwt>
<rscale>  0 0.73356603E+03</rscale>
<asrwt>0</asrwt>
<pdfrwt beam="1">  1        2 0.20161372E+00 0.82381356E+03</pdfrwt>
<pdfrwt beam="2">  1       -2 0.28579457E+00 0.82381356E+03</pdfrwt>
<totfact> 0.65328614E-01</totfact>
</mgrwt>
</event>
<event>
 4    1  0.3565372E-007  0.8241896E+03  0.7818608E-02  0.9660745E-01
         -2   -1    0    0    0  501 -0.00000000000E+00  0.00000000000E+00  0.25945547420E+03  0.25945547421E+03  0.25500000000E-02 0.  1.
          2   -1    0    0  501    0  0.00000000000E+00 -0.00000000000E+00 -0.30567451757E+04  0.30567451757E+04  0.25500000000E-02 0. -1.
    8880023    1    1    2    0    0 -0.48124898729E+03  0.11780397363E+03 -0.26528515799E+04  0.27779326981E+04  0.65864270000E+03 0. -1.
    8880022    1    1    2    0    0  0.48124898729E+03 -0.11780397363E+03 -0.14443812161E+03  0.53826795182E+03  0.15294330000E+03 0.  0.
<mgrwt>
<rscale>  0 0.73402890E+03</rscale>
<asrwt>0</asrwt>
<pdfrwt beam="1">  1        2 0.47026846E+00 0.82418964E+03</pdfrwt>
<pdfrwt beam="2">  1       -2 0.39916229E-01 0.82418964E+03</pdfrwt>
<totfact> 0.10011402E+01</totfact>
</mgrwt>
</event>
<event>
 4    1  0.3565372E-007  0.1371006E+04  0.7818608E-02  0.9006546E-01
         -2   -1    0    0    0  501 -0.00000000000E+00  0.00000000000E+00  0.18457503428E+04  0.18457503428E+04  0.25500000000E-02 0.  1.
          2   -1    0    0  501    0  0.00000000000E+00 -0.00000000000E+00 -0.12350446835E+04  0.12350446835E+04  0.25500000000E-02 0. -1.
    8880023    1    1    2    0    0  0.84137532173E+03 -0.85903083666E+03 -0.47758094402E+03  0.14518058323E+04  0.65864270000E+03 0. -1.
    8880022    1    1    2    0    0 -0.84137532173E+03  0.85903083666E+03  0.10882866032E+04  0.16289891940E+04  0.15294330000E+03 0.  0.
<mgrwt>
<rscale>  0 0.13294315E+04</rscale>
<asrwt>0</asrwt>
<pdfrwt beam="1">  1        2 0.19000688E+00 0.13710057E+04</pdfrwt>
<pdfrwt beam="2">  1       -2 0.28396159E+00 0.13710057E+04</pdfrwt>
<totfact> 0.68756429E-01</totfact>
</mgrwt>
</event>
<event>
 4    1  0.3565372E-007  0.8228741E+03  0.7818608E-02  0.9663360E-01
          2   -1    0    0  501    0  0.00000000000E+00  0.00000000000E+00  0.13897991795E+04  0.13897991795E+04  0.25500000000E-02 0. -1.
         -2   -1    0    0    0  501 -0.00000000000E+00 -0.00000000000E+00 -0.42857625960E+03  0.42857625961E+03  0.25500000000E-02 0.  1.
    8880023    1    1    2    0    0 -0.49135835500E+03 -0.43342128504E+02  0.12042227849E+03  0.83163892679E+03  0.65864270000E+03 0.  1.
    8880022    1    1    2    0    0  0.49135835500E+03  0.43342128504E+02  0.84080064143E+03  0.98673651234E+03  0.15294330000E+03 0.  0.
<mgrwt>
<rscale>  0 0.73240884E+03</rscale>
<asrwt>0</asrwt>
<pdfrwt beam="1">  1        2 0.21381526E+00 0.82287410E+03</pdfrwt>
<pdfrwt beam="2">  1       -2 0.65934809E-01 0.82287410E+03</pdfrwt>
<totfact> 0.31472393E+01</totfact>
</mgrwt>
</event>
<event>
 4    1  0.3565372E-007  0.6657690E+03  0.7818608E-02  0.1018897E+00
          2   -1    0    0  501    0  0.00000000000E+00  0.00000000000E+00  0.18941099204E+04  0.18941099204E+04  0.25500000000E-02 0. -1.
         -2   -1    0    0    0  501 -0.00000000000E+00 -0.00000000000E+00 -0.64004539798E+03  0.64004539799E+03  0.25500000000E-02 0.  1.
    8880023    1    1    2    0    0  0.68858175139E+02  0.68532814688E+02  0.18210429214E+04  0.19389290144E+04  0.65864270000E+03 0. -1.
    8880022    1    1    2    0    0 -0.68858175139E+02 -0.68532814688E+02 -0.56697839902E+03  0.59522630397E+03  0.15294330000E+03 0.  0.
<mgrwt>
<rscale>  0 0.48086847E+03</rscale>
<asrwt>0</asrwt>
<pdfrwt beam="1">  1        2 0.29140153E+00 0.66576903E+03</pdfrwt>
<pdfrwt beam="2">  1       -2 0.98468521E-01 0.66576903E+03</pdfrwt>
<totfact> 0.68680584E+00</totfact>
</mgrwt>
</event>
<event>
 4    1  0.3565372E-007  0.7671940E+03  0.7818608E-02  0.9786827E-01
          2   -1    0    0  501    0  0.00000000000E+00  0.00000000000E+00  0.46046326490E+03  0.46046326490E+03  0.25500000000E-02 0. -1.
         -2   -1    0    0    0  501 -0.00000000000E+00 -0.00000000000E+00 -0.13168315208E+04  0.13168315208E+04  0.25500000000E-02 0.  1.
    8880023    1    1    2    0    0 -0.21548602711E+03  0.32915370130E+03  0.58831382417E+02  0.76944637550E+03  0.65864270000E+03 0. -1.
    8880022    1    1    2    0    0  0.21548602711E+03 -0.32915370130E+03 -0.91519963834E+03  0.10078484102E+04  0.15294330000E+03 0.  0.
<mgrwt>
<rscale>  0 0.66074306E+03</rscale>
<asrwt>0</asrwt>
<pdfrwt beam="1">  1        2 0.70840502E-01 0.76719397E+03</pdfrwt>
<pdfrwt beam="2">  1       -2 0.20258946E+00 0.76719397E+03</pdfrwt>
<totfact> 0.88165693E+00</totfact>
</mgrwt>
</event>
<event>
 4    1  0.3565372E-007  0.7118715E+03  0.7818608E-02  0.9951116E-01
         -2   -1    0    0    0  501 -0.00000000000E+00  0.00000000000E+00  0.40809748927E+03  0.40809748928E+03  0.25500000000E-02 0.  1.
          2   -1    0    0  501    0  0.00000000000E+00 -0.00000000000E+00 -0.94830135016E+03  0.94830135016E+03  0.25500000000E-02 0. -1.
    8880023    1    1    2    0    0  0.26972724894E+03  0.14074735914E+02 -0.70761994357E+03  0.10037365580E+04  0.65864270000E+03 0.  0.
    8880022    1    1    2    0    0 -0.26972724894E+03 -0.14074735914E+02  0.16741608269E+03  0.35266228147E+03  0.15294330000E+03 0.  0.
<mgrwt>
<rscale>  0 0.57846686E+03</rscale>
<asrwt>0</asrwt>
<pdfrwt beam="1">  1        2 0.14589251E+00 0.71187154E+03</pdfrwt>
<pdfrwt beam="2">  1       -2 0.62784230E-01 0.71187154E+03</pdfrwt>
<totfact> 0.65143055E+01</totfact>
</mgrwt>
</event>
<event>
 4    1  0.3565372E-007  0.8190707E+03  0.7818608E-02  0.9670984E-01
         -2   -1    0    0    0  501 -0.00000000000E+00  0.00000000000E+00  0.80204381022E+03  0.80204381022E+03  0.25500000000E-02 0.  1.
          2   -1    0    0  501    0  0.00000000000E+00 -0.00000000000E+00 -0.12836208314E+04  0.12836208314E+04  0.25500000000E-02 0. -1.
    8880023    1    1    2    0    0  0.47422908980E+03  0.11033312337E+03 -0.10435085260E+04  0.13265695903E+04  0.65864270000E+03 0. -1.
    8880022    1    1    2    0    0 -0.47422908980E+03 -0.11033312337E+03  0.56193150488E+03  0.75909505130E+03  0.15294330000E+03 0.  0.
<mgrwt>
<rscale>  0 0.72770996E+03</rscale>
<asrwt>0</asrwt>
<pdfrwt beam="1">  1        2 0.19748013E+00 0.81907071E+03</pdfrwt>
<pdfrwt beam="2">  1       -2 0.12339135E+00 0.81907071E+03</pdfrwt>
<totfact> 0.84748266E+00</totfact>
</mgrwt>
</event>
<event>
 4    1  0.3565372E-007  0.8085159E+03  0.7818608E-02  0.9692677E-01
          2   -1    0    0  501    0  0.00000000000E+00  0.00000000000E+00  0.15548793946E+04  0.15548793946E+04  0.25500000000E-02 0. -1.
         -2   -1    0    0    0  501 -0.00000000000E+00 -0.00000000000E+00 -0.42512652150E+03  0.42512652151E+03  0.25500000000E-02 0.  1.
    8880023    1    1    2    0    0  0.41319467108E+03 -0.22171587551E+03  0.12345701169E+04  0.14757578885E+04  0.65864270000E+03 0.  0.
    8880022    1    1    2    0    0 -0.41319467108E+03  0.22171587551E+03 -0.10481724387E+03  0.50424802755E+03  0.15294330000E+03 0.  0.
<mgrwt>
<rscale>  0 0.71454502E+03</rscale>
<asrwt>0</asrwt>
<pdfrwt beam="1">  1        2 0.23921222E+00 0.80851591E+03</pdfrwt>
<pdfrwt beam="2">  1       -2 0.65404080E-01 0.80851591E+03</pdfrwt>
<totfact> 0.25915403E+01</totfact>
</mgrwt>
</event>
<event>
 4    1  0.3565372E-007  0.6626987E+03  0.7818608E-02  0.1021547E+00
          2   -1    0    0  501    0  0.00000000000E+00  0.00000000000E+00  0.18415143810E+04  0.18415143810E+04  0.25500000000E-02 0. -1.
         -2   -1    0    0    0  501 -0.00000000000E+00 -0.00000000000E+00 -0.17213149574E+03  0.17213149576E+03  0.25500000000E-02 0.  1.
    8880023    1    1    2    0    0 -0.41816484524E+02  0.60089337375E+02  0.17145557561E+04  0.18381705563E+04  0.65864270000E+03 0. -1.
    8880022    1    1    2    0    0  0.41816484524E+02 -0.60089337375E+02 -0.45172870820E+02  0.17547532054E+03  0.15294330000E+03 0.  0.
<mgrwt>
<rscale>  0 0.47132308E+03</rscale>
<asrwt>0</asrwt>
<pdfrwt beam="1">  1        2 0.28330989E+00 0.66269869E+03</pdfrwt>
<pdfrwt beam="2">  1       -2 0.26481770E-01 0.66269869E+03</pdfrwt>
<totfact> 0.10904093E+02</totfact>
</mgrwt>
</event>
<event>
 4    1  0.3565372E-007  0.8901349E+03  0.7818608E-02  0.9542058E-01
          2   -1    0    0  501    0  0.00000000000E+00  0.00000000000E+00  0.13168592086E+04  0.13168592086E+04  0.25500000000E-02 0. -1.
         -2   -1    0    0    0  501 -0.00000000000E+00 -0.00000000000E+00 -0.13622533090E+04  0.13622533090E+04  0.25500000000E-02 0.  1.
    8880023    1    1    2    0    0  0.59279404258E+03 -0.84410457123E+02  0.10773593081E+04  0.13975132154E+04  0.65864270000E+03 0.  0.
    8880022    1    1    2    0    0 -0.59279404258E+03  0.84410457123E+02 -0.11227534084E+04  0.12815993022E+04  0.15294330000E+03 0.  0.
<mgrwt>
<rscale>  0 0.81252856E+03</rscale>
<asrwt>0</asrwt>
<pdfrwt beam="1">  1        2 0.20259373E+00 0.89013488E+03</pdfrwt>
<pdfrwt beam="2">  1       -2 0.20957743E+00 0.89013488E+03</pdfrwt>
<totfact> 0.18773798E+00</totfact>
</mgrwt>
</event>
<event>
 4    1  0.3565372E-007  0.6885968E+03  0.7818608E-02  0.1004827E+00
          2   -1    0    0  501    0  0.00000000000E+00  0.00000000000E+00  0.30085564466E+04  0.30085564466E+04  0.25500000000E-02 0. -1.
         -2   -1    0    0    0  501 -0.00000000000E+00 -0.00000000000E+00 -0.21820863670E+03  0.21820863671E+03  0.25500000000E-02 0.  1.
    8880023    1    1    2    0    0  0.17452415860E+03 -0.99481789465E+02  0.28782076926E+04  0.29594332289E+04  0.65864270000E+03 0. -1.
    8880022    1    1    2    0    0 -0.17452415860E+03  0.99481789465E+02 -0.87859882708E+02  0.26733185440E+03  0.15294330000E+03 0.  0.
<mgrwt>
<rscale>  0 0.53583512E+03</rscale>
<asrwt>0</asrwt>
<pdfrwt beam="1">  1        2 0.46285485E+00 0.68859677E+03</pdfrwt>
<pdfrwt beam="2">  1       -2 0.33570558E-01 0.68859677E+03</pdfrwt>
<totfact> 0.15304129E+01</totfact>
</mgrwt>
</event>
<event>
 4    1  0.3565372E-007  0.8801696E+03  0.7818608E-02  0.9558646E-01
          2   -1    0    0  501    0  0.00000000000E+00  0.00000000000E+00  0.42351676457E+04  0.42351676457E+04  0.25500000000E-02 0. -1.
         -2   -1    0    0    0  501 -0.00000000000E+00 -0.00000000000E+00 -0.24921658202E+03  0.24921658203E+03  0.25500000000E-02 0.  1.
    8880023    1    1    2    0    0  0.45838837047E+03 -0.36161914843E+03  0.37237098991E+04  0.38263185865E+04  0.65864270000E+03 0.  0.
    8880022    1    1    2    0    0 -0.45838837047E+03  0.36161914843E+03  0.26224116456E+03  0.65806564118E+03  0.15294330000E+03 0.  0.
<mgrwt>
<rscale>  0 0.80094774E+03</rscale>
<asrwt>0</asrwt>
<pdfrwt beam="1">  1        2 0.65156424E+00 0.88016959E+03</pdfrwt>
<pdfrwt beam="2">  1       -2 0.38341014E-01 0.88016959E+03</pdfrwt>
<totfact> 0.15161097E+00</totfact>
</mgrwt>
</event>
<event>
 4    1  0.3565372E-007  0.7341664E+03  0.7818608E-02  0.9877278E-01
          2   -1    0    0  501    0  0.00000000000E+00  0.00000000000E+00  0.94767151083E+03  0.94767151084E+03  0.25500000000E-02 0. -1.
         -2   -1    0    0    0  501 -0.00000000000E+00 -0.00000000000E+00 -0.42004134994E+03  0.42004134995E+03  0.25500000000E-02 0.  1.
    8880023    1    1    2    0    0  0.29192648079E+03 -0.14131178954E+03  0.65828078812E+03  0.98606992365E+03  0.65864270000E+03 0. -1.
    8880022    1    1    2    0    0 -0.29192648079E+03  0.14131178954E+03 -0.13065062723E+03  0.38164293713E+03  0.15294330000E+03 0.  0.
<mgrwt>
<rscale>  0 0.61375252E+03</rscale>
<asrwt>0</asrwt>
<pdfrwt beam="1">  1        2 0.14579562E+00 0.73416640E+03</pdfrwt>
<pdfrwt beam="2">  1       -2 0.64621746E-01 0.73416640E+03</pdfrwt>
<totfact> 0.61191581E+01</totfact>
</mgrwt>
</event>
<event>
 4    1  0.3565372E-007  0.7105164E+03  0.7818608E-02  0.9956088E-01
          2   -1    0    0  501    0  0.00000000000E+00  0.00000000000E+00  0.20002240570E+04  0.20002240570E+04  0.25500000000E-02 0. -1.
         -2   -1    0    0    0  501 -0.00000000000E+00 -0.00000000000E+00 -0.54127720000E+03  0.54127720001E+03  0.25500000000E-02 0.  1.
    8880023    1    1    2    0    0  0.23573017676E+03 -0.12431671251E+03  0.18859973424E+04  0.20153956294E+04  0.65864270000E+03 0. -1.
    8880022    1    1    2    0    0 -0.23573017676E+03  0.12431671251E+03 -0.42705048543E+03  0.52610562757E+03  0.15294330000E+03 0.  0.
<mgrwt>
<rscale>  0 0.57618337E+03</rscale>
<asrwt>0</asrwt>
<pdfrwt beam="1">  1        2 0.30772678E+00 0.71051641E+03</pdfrwt>
<pdfrwt beam="2">  1       -2 0.83273414E-01 0.71051641E+03</pdfrwt>
<totfact> 0.87869251E+00</totfact>
</mgrwt>
</event>
<event>
 4    1  0.3565372E-007  0.9231527E+03  0.7818608E-02  0.9489842E-01
         -2   -1    0    0    0  501 -0.00000000000E+00  0.00000000000E+00  0.38581465606E+03  0.38581465607E+03  0.25500000000E-02 0.  1.
          2   -1    0    0  501    0  0.00000000000E+00 -0.00000000000E+00 -0.38479286555E+04  0.38479286555E+04  0.25500000000E-02 0. -1.
    8880023    1    1    2    0    0 -0.38614036164E+03  0.51893765078E+03 -0.34474462368E+04  0.35689068952E+04  0.65864270000E+03 0. -1.
    8880022    1    1    2    0    0  0.38614036164E+03 -0.51893765078E+03 -0.14667762590E+02  0.66483641639E+03  0.15294330000E+03 0.  0.
<mgrwt>
<rscale>  0 0.85036900E+03</rscale>
<asrwt>0</asrwt>
<pdfrwt beam="1">  1        2 0.59198900E+00 0.92315268E+03</pdfrwt>
<pdfrwt beam="2">  1       -2 0.59356104E-01 0.92315268E+03</pdfrwt>
<totfact> 0.12719532E+00</totfact>
</mgrwt>
</event>
<event>
 4    1  0.3565372E-007  0.7564100E+03  0.7818608E-02  0.9814492E-01
         -2   -1    0    0    0  501 -0.00000000000E+00  0.00000000000E+00  0.38599305423E+03  0.38599305424E+03  0.25500000000E-02 0.  1.
          2   -1    0    0  501    0  0.00000000000E+00 -0.00000000000E+00 -0.95643374896E+03  0.95643374897E+03  0.25500000000E-02 0. -1.
    8880023    1    1    2    0    0 -0.36688277625E+03 -0.61179136997E+02 -0.17078524105E+03  0.77545061940E+03  0.65864270000E+03 0.  1.
    8880022    1    1    2    0    0  0.36688277625E+03  0.61179136997E+02 -0.39965545369E+03  0.56697618380E+03  0.15294330000E+03 0.  0.
<mgrwt>
<rscale>  0 0.64590595E+03</rscale>
<asrwt>0</asrwt>
<pdfrwt beam="1">  1        2 0.14714365E+00 0.75640998E+03</pdfrwt>
<pdfrwt beam="2">  1       -2 0.59383547E-01 0.75640998E+03</pdfrwt>
<totfact> 0.72151379E+01</totfact>
</mgrwt>
</event>
<event>
 4    1  0.3565372E-007  0.1267887E+04  0.7818608E-02  0.9093800E-01
          2   -1    0    0  501    0  0.00000000000E+00  0.00000000000E+00  0.33829950150E+04  0.33829950150E+04  0.25500000000E-02 0. -1.
         -2   -1    0    0    0  501 -0.00000000000E+00 -0.00000000000E+00 -0.56912743751E+03  0.56912743751E+03  0.25500000000E-02 0.  1.
    8880023    1    1    2    0    0  0.94768774320E+03 -0.52499043663E+03  0.25172094017E+04  0.28184890270E+04  0.65864270000E+03 0. -1.
    8880022    1    1    2    0    0 -0.94768774320E+03  0.52499043663E+03  0.29665817583E+03  0.11336334255E+04  0.15294330000E+03 0.  1.
<mgrwt>
<rscale>  0 0.12220178E+04</rscale>
<asrwt>0</asrwt>
<pdfrwt beam="1">  1        2 0.52046076E+00 0.12678869E+04</pdfrwt>
<pdfrwt beam="2">  1       -2 0.87558069E-01 0.12678869E+04</pdfrwt>
<totfact> 0.10919568E+00</totfact>
</mgrwt>
</event>
<event>
 4    1  0.3565372E-007  0.1264386E+04  0.7818608E-02  0.9096942E-01
          2   -1    0    0  501    0  0.00000000000E+00  0.00000000000E+00  0.40022685688E+04  0.40022685688E+04  0.25500000000E-02 0. -1.
         -2   -1    0    0    0  501 -0.00000000000E+00 -0.00000000000E+00 -0.57771016135E+03  0.57771016136E+03  0.25500000000E-02 0.  1.
    8880023    1    1    2    0    0  0.10610191447E+04  0.19773530994E+03  0.32353128746E+04  0.34736033856E+04  0.65864270000E+03 0. -1.
    8880022    1    1    2    0    0 -0.10610191447E+04 -0.19773530994E+03  0.18924553288E+03  0.11063753445E+04  0.15294330000E+03 0.  0.
<mgrwt>
<rscale>  0 0.12183534E+04</rscale>
<asrwt>0</asrwt>
<pdfrwt beam="1">  1        2 0.61573365E+00 0.12643857E+04</pdfrwt>
<pdfrwt beam="2">  1       -2 0.88878483E-01 0.12643857E+04</pdfrwt>
<totfact> 0.37241811E-01</totfact>
</mgrwt>
</event>
<event>
 4    1  0.3565372E-007  0.7784837E+03  0.7818608E-02  0.9759411E-01
         -2   -1    0    0    0  501 -0.00000000000E+00  0.00000000000E+00  0.46227416926E+03  0.46227416927E+03  0.25500000000E-02 0.  1.
          2   -1    0    0  501    0  0.00000000000E+00 -0.00000000000E+00 -0.17520730630E+04  0.17520730630E+04  0.25500000000E-02 0. -1.
    8880023    1    1    2    0    0  0.18269782428E+03  0.37262333478E+03 -0.15258822041E+04  0.17129954325E+04  0.65864270000E+03 0.  0.
    8880022    1    1    2    0    0 -0.18269782428E+03 -0.37262333478E+03  0.23608331043E+03  0.50135179973E+03  0.15294330000E+03 0.  0.
<mgrwt>
<rscale>  0 0.67587024E+03</rscale>
<asrwt>0</asrwt>
<pdfrwt beam="1">  1        2 0.26954970E+00 0.77848369E+03</pdfrwt>
<pdfrwt beam="2">  1       -2 0.71119104E-01 0.77848369E+03</pdfrwt>
<totfact> 0.16887960E+01</totfact>
</mgrwt>
</event>
<event>
 4    1  0.3565372E-007  0.6662049E+03  0.7818608E-02  0.1018543E+00
         -2   -1    0    0    0  501 -0.00000000000E+00  0.00000000000E+00  0.35552167489E+03  0.35552167490E+03  0.25500000000E-02 0.  1.
          2   -1    0    0  501    0  0.00000000000E+00 -0.00000000000E+00 -0.62379185056E+03  0.62379185057E+03  0.25500000000E-02 0. -1.
    8880023    1    1    2    0    0 -0.39441867718E+02 -0.91995471591E+02 -0.37814764309E+03  0.76604482503E+03  0.65864270000E+03 0. -1.
    8880022    1    1    2    0    0  0.39441867718E+02  0.91995471591E+02  0.10987746742E+03  0.21326870043E+03  0.15294330000E+03 0.  0.
<mgrwt>
<rscale>  0 0.48216006E+03</rscale>
<asrwt>0</asrwt>
<pdfrwt beam="1">  1        2 0.95967977E-01 0.66620495E+03</pdfrwt>
<pdfrwt beam="2">  1       -2 0.54695642E-01 0.66620495E+03</pdfrwt>
<totfact> 0.15100259E+02</totfact>
</mgrwt>
</event>
<event>
 4    1  0.3565372E-007  0.8632888E+03  0.7818608E-02  0.9587740E-01
          2   -1    0    0  501    0  0.00000000000E+00  0.00000000000E+00  0.19725503657E+04  0.19725503657E+04  0.25500000000E-02 0. -1.
         -2   -1    0    0    0  501 -0.00000000000E+00 -0.00000000000E+00 -0.39131014224E+03  0.39131014225E+03  0.25500000000E-02 0.  1.
    8880023    1    1    2    0    0  0.55377360781E+03  0.69225584106E+02  0.15622270397E+04  0.17848868087E+04  0.65864270000E+03 0.  0.
    8880022    1    1    2    0    0 -0.55377360781E+03 -0.69225584106E+02  0.19013183770E+02  0.57897369921E+03  0.15294330000E+03 0.  0.
<mgrwt>
<rscale>  0 0.78112983E+03</rscale>
<asrwt>0</asrwt>
<pdfrwt beam="1">  1        2 0.30346929E+00 0.86328883E+03</pdfrwt>
<pdfrwt beam="2">  1       -2 0.60201560E-01 0.86328883E+03</pdfrwt>
<totfact> 0.18127405E+01</totfact>
</mgrwt>
</event>
<event>
 4    1  0.3565372E-007  0.7160502E+03  0.7818608E-02  0.9936184E-01
         -2   -1    0    0    0  501 -0.00000000000E+00  0.00000000000E+00  0.34756977650E+03  0.34756977651E+03  0.25500000000E-02 0.  1.
          2   -1    0    0  501    0  0.00000000000E+00 -0.00000000000E+00 -0.14159014934E+04  0.14159014934E+04  0.25500000000E-02 0. -1.
    8880023    1    1    2    0    0 -0.22641953355E+03  0.16628872666E+03 -0.12160056095E+04  0.14111688752E+04  0.65864270000E+03 0. -1.
    8880022    1    1    2    0    0  0.22641953355E+03 -0.16628872666E+03  0.14767389254E+03  0.35230239474E+03  0.15294330000E+03 0.  0.
<mgrwt>
<rscale>  0 0.58539238E+03</rscale>
<asrwt>0</asrwt>
<pdfrwt beam="1">  1        2 0.21783100E+00 0.71605024E+03</pdfrwt>
<pdfrwt beam="2">  1       -2 0.53472274E-01 0.71605024E+03</pdfrwt>
<totfact> 0.47844643E+01</totfact>
</mgrwt>
</event>
<event>
 4    1  0.3565372E-007  0.9435675E+03  0.7818608E-02  0.9459430E-01
         -2   -1    0    0    0  501 -0.00000000000E+00  0.00000000000E+00  0.61880934429E+03  0.61880934430E+03  0.25500000000E-02 0.  1.
          2   -1    0    0  501    0  0.00000000000E+00 -0.00000000000E+00 -0.15805081048E+04  0.15805081048E+04  0.25500000000E-02 0. -1.
    8880023    1    1    2    0    0 -0.49182355709E+03 -0.46326985860E+03 -0.11440603249E+04  0.14829678373E+04  0.65864270000E+03 0.  0.
    8880022    1    1    2    0    0  0.49182355709E+03  0.46326985860E+03  0.18236156436E+03  0.71634961182E+03  0.15294330000E+03 0.  0.
<mgrwt>
<rscale>  0 0.87342110E+03</rscale>
<asrwt>0</asrwt>
<pdfrwt beam="1">  1        2 0.24315509E+00 0.94356747E+03</pdfrwt>
<pdfrwt beam="2">  1       -2 0.95201438E-01 0.94356747E+03</pdfrwt>
<totfact> 0.10630669E+01</totfact>
</mgrwt>
</event>
<event>
 4    1  0.3565372E-007  0.6758360E+03  0.7818608E-02  0.1011784E+00
          2   -1    0    0  501    0  0.00000000000E+00  0.00000000000E+00  0.26828224369E+04  0.26828224369E+04  0.25500000000E-02 0. -1.
         -2   -1    0    0    0  501 -0.00000000000E+00 -0.00000000000E+00 -0.19763815457E+03  0.19763815459E+03  0.25500000000E-02 0.  1.
    8880023    1    1    2    0    0  0.37189529447E+02  0.14683654827E+03  0.25637350974E+04  0.26513188961E+04  0.65864270000E+03 0. -1.
    8880022    1    1    2    0    0 -0.37189529447E+02 -0.14683654827E+03 -0.78550815052E+02  0.22914169539E+03  0.15294330000E+03 0.  0.
<mgrwt>
<rscale>  0 0.50771550E+03</rscale>
<asrwt>0</asrwt>
<pdfrwt beam="1">  1        2 0.41274189E+00 0.67583596E+03</pdfrwt>
<pdfrwt beam="2">  1       -2 0.30405872E-01 0.67583596E+03</pdfrwt>
<totfact> 0.28832243E+01</totfact>
</mgrwt>
</event>
<event>
 4    1  0.3565372E-007  0.6697371E+03  0.7818608E-02  0.1015852E+00
          2   -1    0    0  501    0  0.00000000000E+00  0.00000000000E+00  0.50223383163E+03  0.50223383163E+03  0.25500000000E-02 0. -1.
         -2   -1    0    0    0  501 -0.00000000000E+00 -0.00000000000E+00 -0.58140121581E+03  0.58140121582E+03  0.25500000000E-02 0.  1.
    8880023    1    1    2    0    0  0.71369238082E+02 -0.98203596541E+02  0.23834507073E+03  0.71088402255E+03  0.65864270000E+03 0. -1.
    8880022    1    1    2    0    0 -0.71369238082E+02  0.98203596541E+02 -0.31751245492E+03  0.37275102490E+03  0.15294330000E+03 0.  0.
<mgrwt>
<rscale>  0 0.49213631E+03</rscale>
<asrwt>0</asrwt>
<pdfrwt beam="1">  1        2 0.77266743E-01 0.66973705E+03</pdfrwt>
<pdfrwt beam="2">  1       -2 0.89446342E-01 0.66973705E+03</pdfrwt>
<totfact> 0.66768276E+01</totfact>
</mgrwt>
</event>
<event>
 4    1  0.4070958E-007  0.8236673E+03  0.7818608E-02  0.9661782E-01
          2   -1    0    0  501    0  0.00000000000E+00  0.00000000000E+00  0.27992009383E+04  0.27992009383E+04  0.25500000000E-02 0. -1.
         -2   -1    0    0    0  501 -0.00000000000E+00 -0.00000000000E+00 -0.79890299106E+03  0.79890299106E+03  0.25500000000E-02 0.  1.
    8880023    1    1    2    0    0  0.90066646050E+02 -0.48631838390E+03  0.26455720939E+04  0.27708264979E+04  0.65864270000E+03 0. -1.
    8880022    1    1    2    0    0 -0.90066646050E+02  0.48631838390E+03 -0.64527414665E+03  0.82727743146E+03  0.15294330000E+03 0.  0.
<mgrwt>
<rscale>  0 0.73338593E+03</rscale>
<asrwt>0</asrwt>
<pdfrwt beam="1">  1        2 0.43064629E+00 0.82366727E+03</pdfrwt>
<pdfrwt beam="2">  1       -2 0.12290815E+00 0.82366727E+03</pdfrwt>
<totfact> 0.12101840E+00</totfact>
</mgrwt>
</event>
<event>
 4    1  0.3565372E-007  0.1334081E+04  0.7818608E-02  0.9036674E-01
          2   -1    0    0  501    0  0.00000000000E+00  0.00000000000E+00  0.19805647485E+04  0.19805647485E+04  0.25500000000E-02 0. -1.
         -2   -1    0    0    0  501 -0.00000000000E+00 -0.00000000000E+00 -0.10175768344E+04  0.10175768344E+04  0.25500000000E-02 0.  1.
    8880023    1    1    2    0    0 -0.34339637741E+03  0.11081700015E+04  0.12112356905E+04  0.18019056381E+04  0.65864270000E+03 0.  0.
    8880022    1    1    2    0    0  0.34339637741E+03 -0.11081700015E+04 -0.24824777647E+03  0.11962359448E+04  0.15294330000E+03 0.  0.
<mgrwt>
<rscale>  0 0.12910739E+04</rscale>
<asrwt>0</asrwt>
<pdfrwt beam="1">  1        2 0.30470227E+00 0.13340810E+04</pdfrwt>
<pdfrwt beam="2">  1       -2 0.15655028E+00 0.13340810E+04</pdfrwt>
<totfact> 0.17552512E+00</totfact>
</mgrwt>
</event>
<event>
 4    1  0.3565372E-007  0.9476804E+03  0.7818608E-02  0.9453459E-01
          2   -1    0    0  501    0  0.00000000000E+00  0.00000000000E+00  0.17850461959E+04  0.17850461959E+04  0.25500000000E-02 0. -1.
         -2   -1    0    0    0  501 -0.00000000000E+00 -0.00000000000E+00 -0.93177886055E+03  0.93177886055E+03  0.25500000000E-02 0.  1.
    8880023    1    1    2    0    0  0.12782925311E+03  0.66928888563E+03  0.14939098610E+04  0.17691423938E+04  0.65864270000E+03 0.  0.
    8880022    1    1    2    0    0 -0.12782925311E+03 -0.66928888563E+03 -0.64064252568E+03  0.94768266266E+03  0.15294330000E+03 0.  0.
<mgrwt>
<rscale>  0 0.87803786E+03</rscale>
<asrwt>0</asrwt>
<pdfrwt beam="1">  1        2 0.27462249E+00 0.94768040E+03</pdfrwt>
<pdfrwt beam="2">  1       -2 0.14335059E+00 0.94768040E+03</pdfrwt>
<totfact> 0.29761514E+00</totfact>
</mgrwt>
</event>
<event>
 4    1  0.3565372E-007  0.6908089E+03  0.7818608E-02  0.1003770E+00
         -2   -1    0    0    0  501 -0.00000000000E+00  0.00000000000E+00  0.86965046592E+03  0.86965046593E+03  0.25500000000E-02 0.  1.
          2   -1    0    0  501    0  0.00000000000E+00 -0.00000000000E+00 -0.70030526797E+03  0.70030526798E+03  0.25500000000E-02 0. -1.
    8880023    1    1    2    0    0  0.85560809153E+02  0.18996345750E+03 -0.49978605034E+03  0.85264474995E+03  0.65864270000E+03 0. -1.
    8880022    1    1    2    0    0 -0.85560809153E+02 -0.18996345750E+03  0.66913124829E+03  0.71731098395E+03  0.15294330000E+03 0.  0.
<mgrwt>
<rscale>  0 0.54027420E+03</rscale>
<asrwt>0</asrwt>
<pdfrwt beam="1">  1        2 0.10773927E+00 0.69080893E+03</pdfrwt>
<pdfrwt beam="2">  1       -2 0.13379238E+00 0.69080893E+03</pdfrwt>
<totfact> 0.16868213E+01</totfact>
</mgrwt>
</event>
<event>
 4    1  0.3565372E-007  0.8072539E+03  0.7818608E-02  0.9695326E-01
         -2   -1    0    0    0  501 -0.00000000000E+00  0.00000000000E+00  0.21182013542E+03  0.21182013543E+03  0.25500000000E-02 0.  1.
          2   -1    0    0  501    0  0.00000000000E+00 -0.00000000000E+00 -0.33984216702E+04  0.33984216702E+04  0.25500000000E-02 0. -1.
    8880023    1    1    2    0    0  0.46517836908E+03  0.38180245809E+02 -0.29622349308E+04  0.30702597021E+04  0.65864270000E+03 0. -1.
    8880022    1    1    2    0    0 -0.46517836908E+03 -0.38180245809E+02 -0.22436660397E+03  0.53998210362E+03  0.15294330000E+03 0.  0.
<mgrwt>
<rscale>  0 0.71295783E+03</rscale>
<asrwt>0</asrwt>
<pdfrwt beam="1">  1        2 0.52283407E+00 0.80725390E+03</pdfrwt>
<pdfrwt beam="2">  1       -2 0.32587715E-01 0.80725390E+03</pdfrwt>
<totfact> 0.89367989E+00</totfact>
</mgrwt>
</event>
<event>
 4    1  0.3565372E-007  0.6620198E+03  0.7818608E-02  0.1022176E+00
          2   -1    0    0  501    0  0.00000000000E+00  0.00000000000E+00  0.31557655503E+04  0.31557655503E+04  0.25500000000E-02 0. -1.
         -2   -1    0    0    0  501 -0.00000000000E+00 -0.00000000000E+00 -0.61795128988E+02  0.61795129041E+02  0.25500000000E-02 0.  1.
    8880023    1    1    2    0    0 -0.64410287383E+02  0.17643117813E+02  0.28208113373E+04  0.28974552234E+04  0.65864270000E+03 0. -1.
    8880022    1    1    2    0    0  0.64410287383E+02 -0.17643117813E+02  0.27315908399E+03  0.32010545592E+03  0.15294330000E+03 0. -1.
<mgrwt>
<rscale>  0 0.46909361E+03</rscale>
<asrwt>0</asrwt>
<pdfrwt beam="1">  1        2 0.48550250E+00 0.66201977E+03</pdfrwt>
<pdfrwt beam="2">  1       -2 0.95069408E-02 0.66201977E+03</pdfrwt>
<totfact> 0.11089741E+02</totfact>
</mgrwt>
</event>
<event>
 4    1  0.3565372E-007  0.9491877E+03  0.7818608E-02  0.9451284E-01
         -2   -1    0    0    0  501 -0.00000000000E+00  0.00000000000E+00  0.27986011180E+04  0.27986011180E+04  0.25500000000E-02 0.  1.
          2   -1    0    0  501    0  0.00000000000E+00 -0.00000000000E+00 -0.52249542768E+03  0.52249542769E+03  0.25500000000E-02 0. -1.
    8880023    1    1    2    0    0  0.59276872247E+03 -0.34025343413E+03  0.10016131040E+02  0.94924058432E+03  0.65864270000E+03 0.  0.
    8880022    1    1    2    0    0 -0.59276872247E+03  0.34025343413E+03  0.22660895592E+04  0.23718559613E+04  0.15294330000E+03 0.  0.
<mgrwt>
<rscale>  0 0.87972769E+03</rscale>
<asrwt>0</asrwt>
<pdfrwt beam="1">  1        2 0.80383911E-01 0.94918774E+03</pdfrwt>
<pdfrwt beam="2">  1       -2 0.43055403E+00 0.94918774E+03</pdfrwt>
<totfact> 0.28107243E-01</totfact>
</mgrwt>
</event>
<event>
 4    1  0.3565372E-007  0.6988470E+03  0.7818608E-02  0.1000202E+00
          2   -1    0    0  501    0  0.00000000000E+00  0.00000000000E+00  0.54342550889E+03  0.54342550889E+03  0.25500000000E-02 0. -1.
         -2   -1    0    0    0  501 -0.00000000000E+00 -0.00000000000E+00 -0.54996384953E+03  0.54996384954E+03  0.25500000000E-02 0.  1.
    8880023    1    1    2    0    0 -0.12484017995E+03  0.19746341376E+03  0.22125005082E+03  0.73303387477E+03  0.65864270000E+03 0. -1.
    8880022    1    1    2    0    0  0.12484017995E+03 -0.19746341376E+03 -0.22778839146E+03  0.36035548366E+03  0.15294330000E+03 0.  0.
<mgrwt>
<rscale>  0 0.55561821E+03</rscale>
<asrwt>0</asrwt>
<pdfrwt beam="1">  1        2 0.83603925E-01 0.69884696E+03</pdfrwt>
<pdfrwt beam="2">  1       -2 0.84609823E-01 0.69884696E+03</pdfrwt>
<totfact> 0.69013232E+01</totfact>
</mgrwt>
</event>
<event>
 4    1  0.3565372E-007  0.6915652E+03  0.7818608E-02  0.1003417E+00
          2   -1    0    0  501    0  0.00000000000E+00  0.00000000000E+00  0.62698057213E+03  0.62698057214E+03  0.25500000000E-02 0. -1.
         -2   -1    0    0    0  501 -0.00000000000E+00 -0.00000000000E+00 -0.78336226727E+03  0.78336226727E+03  0.25500000000E-02 0.  1.
    8880023    1    1    2    0    0 -0.13322677506E+03 -0.16340993569E+03  0.39793397759E+03  0.79788084164E+03  0.65864270000E+03 0. -1.
    8880022    1    1    2    0    0  0.13322677506E+03  0.16340993569E+03 -0.55431567272E+03  0.61246199777E+03  0.15294330000E+03 0.  0.
<mgrwt>
<rscale>  0 0.54176835E+03</rscale>
<asrwt>0</asrwt>
<pdfrwt beam="1">  1        2 0.96458549E-01 0.69156517E+03</pdfrwt>
<pdfrwt beam="2">  1       -2 0.12051727E+00 0.69156517E+03</pdfrwt>
<totfact> 0.25151035E+01</totfact>
</mgrwt>
</event>
<event>
 4    1  0.3565372E-007  0.6684038E+03  0.7818608E-02  0.1016834E+00
          2   -1    0    0  501    0  0.00000000000E+00  0.00000000000E+00  0.26329226710E+04  0.26329226710E+04  0.25500000000E-02 0. -1.
         -2   -1    0    0    0  501 -0.00000000000E+00 -0.00000000000E+00 -0.21530352550E+03  0.21530352552E+03  0.25500000000E-02 0.  1.
    8880023    1    1    2    0    0  0.96463485261E+02 -0.60400494659E+02  0.25368104970E+04  0.26233892445E+04  0.65864270000E+03 0. -1.
    8880022    1    1    2    0    0 -0.96463485261E+02  0.60400494659E+02 -0.11919135150E+03  0.22483695210E+03  0.15294330000E+03 0.  1.
<mgrwt>
<rscale>  0 0.48846661E+03</rscale>
<asrwt>0</asrwt>
<pdfrwt beam="1">  1        2 0.40506505E+00 0.66840379E+03</pdfrwt>
<pdfrwt beam="2">  1       -2 0.33123617E-01 0.66840379E+03</pdfrwt>
<totfact> 0.26283065E+01</totfact>
</mgrwt>
</event>
<event>
 4    1  0.3565372E-007  0.6641949E+03  0.7818608E-02  0.1020219E+00
         -2   -1    0    0    0  501 -0.00000000000E+00  0.00000000000E+00  0.50701518275E+03  0.50701518276E+03  0.25500000000E-02 0.  1.
          2   -1    0    0  501    0  0.00000000000E+00 -0.00000000000E+00 -0.67208114147E+03  0.67208114148E+03  0.25500000000E-02 0. -1.
    8880023    1    1    2    0    0 -0.85618536919E+02  0.37646096044E+01 -0.47942968475E+03  0.81915061804E+03  0.65864270000E+03 0.  0.
    8880022    1    1    2    0    0  0.85618536919E+02 -0.37646096044E+01  0.31436372603E+03  0.35994570619E+03  0.15294330000E+03 0.  0.
<mgrwt>
<rscale>  0 0.47607812E+03</rscale>
<asrwt>0</asrwt>
<pdfrwt beam="1">  1        2 0.10339710E+00 0.66419494E+03</pdfrwt>
<pdfrwt beam="2">  1       -2 0.78002336E-01 0.66419494E+03</pdfrwt>
<totfact> 0.64290748E+01</totfact>
</mgrwt>
</event>
<event>
 4    1  0.3565372E-007  0.6674949E+03  0.7818608E-02  0.1017526E+00
         -2   -1    0    0    0  501 -0.00000000000E+00  0.00000000000E+00  0.21896453981E+03  0.21896453982E+03  0.25500000000E-02 0.  1.
          2   -1    0    0  501    0  0.00000000000E+00 -0.00000000000E+00 -0.10571615201E+04  0.10571615201E+04  0.25500000000E-02 0. -1.
    8880023    1    1    2    0    0  0.53958755294E+02 -0.93955997329E+02 -0.85865155285E+03  0.10875807888E+04  0.65864270000E+03 0.  0.
    8880022    1    1    2    0    0 -0.53958755294E+02  0.93955997329E+02  0.20454572555E+02  0.18854527112E+03  0.15294330000E+03 0.  0.
<mgrwt>
<rscale>  0 0.48590032E+03</rscale>
<asrwt>0</asrwt>
<pdfrwt beam="1">  1        2 0.16264023E+00 0.66749493E+03</pdfrwt>
<pdfrwt beam="2">  1       -2 0.33686853E-01 0.66749493E+03</pdfrwt>
<totfact> 0.19396699E+02</totfact>
</mgrwt>
</event>
<event>
 4    1  0.3565372E-007  0.6710398E+03  0.7818608E-02  0.1014928E+00
          2   -1    0    0  501    0  0.00000000000E+00  0.00000000000E+00  0.20624320850E+04  0.20624320850E+04  0.25500000000E-02 0. -1.
         -2   -1    0    0    0  501 -0.00000000000E+00 -0.00000000000E+00 -0.11021264677E+03  0.11021264680E+03  0.25500000000E-02 0.  1.
    8880023    1    1    2    0    0  0.12247165774E+03  0.38535155931E+02  0.10318180688E+04  0.12308302071E+04  0.65864270000E+03 0.  1.
    8880022    1    1    2    0    0 -0.12247165774E+03 -0.38535155931E+02  0.92040136938E+03  0.94181452472E+03  0.15294330000E+03 0.  0.
<mgrwt>
<rscale>  0 0.49562142E+03</rscale>
<asrwt>0</asrwt>
<pdfrwt beam="1">  1        2 0.31729725E+00 0.67103984E+03</pdfrwt>
<pdfrwt beam="2">  1       -2 0.16955792E-01 0.67103984E+03</pdfrwt>
<totfact> 0.18120001E+02</totfact>
</mgrwt>
</event>
<event>
 4    1  0.3565372E-007  0.7722225E+03  0.7818608E-02  0.9774434E-01
         -2   -1    0    0    0  501 -0.00000000000E+00  0.00000000000E+00  0.11822174832E+04  0.11822174832E+04  0.25500000000E-02 0.  1.
          2   -1    0    0  501    0  0.00000000000E+00 -0.00000000000E+00 -0.87631354543E+03  0.87631354544E+03  0.25500000000E-02 0. -1.
    8880023    1    1    2    0    0  0.32270773687E+03 -0.24161341160E+03 -0.65033027180E+03  0.10095825834E+04  0.65864270000E+03 0. -1.
    8880022    1    1    2    0    0 -0.32270773687E+03  0.24161341160E+03  0.95623420952E+03  0.10489484451E+04  0.15294330000E+03 0.  0.
<mgrwt>
<rscale>  0 0.66752782E+03</rscale>
<asrwt>0</asrwt>
<pdfrwt beam="1">  1        2 0.13481747E+00 0.77222246E+03</pdfrwt>
<pdfrwt beam="2">  1       -2 0.18187961E+00 0.77222246E+03</pdfrwt>
<totfact> 0.54483569E+00</totfact>
</mgrwt>
</event>
<event>
 4    1  0.3565372E-007  0.6911559E+03  0.7818608E-02  0.1003608E+00
          2   -1    0    0  501    0  0.00000000000E+00  0.00000000000E+00  0.85206973849E+03  0.85206973850E+03  0.25500000000E-02 0. -1.
         -2   -1    0    0    0  501 -0.00000000000E+00 -0.00000000000E+00 -0.60089636613E+03  0.60089636613E+03  0.25500000000E-02 0.  1.
    8880023    1    1    2    0    0  0.20886513161E+03 -0.16173914401E+02  0.66852972536E+03  0.96157601814E+03  0.65864270000E+03 0. -1.
    8880022    1    1    2    0    0 -0.20886513161E+03  0.16173914401E+02 -0.41735635299E+03  0.49139008649E+03  0.15294330000E+03 0.  0.
<mgrwt>
<rscale>  0 0.54096112E+03</rscale>
<asrwt>0</asrwt>
<pdfrwt beam="1">  1        2 0.13108765E+00 0.69115588E+03</pdfrwt>
<pdfrwt beam="2">  1       -2 0.92445596E-01 0.69115588E+03</pdfrwt>
<totfact> 0.32050649E+01</totfact>
</mgrwt>
</event>
<event>
 4    1  0.3565372E-007  0.9400956E+03  0.7818608E-02  0.9464510E-01
         -2   -1    0    0    0  501 -0.00000000000E+00  0.00000000000E+00  0.10681747337E+04  0.10681747337E+04  0.25500000000E-02 0.  1.
          2   -1    0    0  501    0  0.00000000000E+00 -0.00000000000E+00 -0.14634890955E+04  0.14634890955E+04  0.25500000000E-02 0. -1.
    8880023    1    1    2    0    0  0.38008353911E+03  0.55272607654E+03 -0.11665091131E+04  0.14981733310E+04  0.65864270000E+03 0.  0.
    8880022    1    1    2    0    0 -0.38008353911E+03 -0.55272607654E+03  0.77119475128E+03  0.10334904982E+04  0.15294330000E+03 0.  0.
<mgrwt>
<rscale>  0 0.86951708E+03</rscale>
<asrwt>0</asrwt>
<pdfrwt beam="1">  1        2 0.22515217E+00 0.94009564E+03</pdfrwt>
<pdfrwt beam="2">  1       -2 0.16433457E+00 0.94009564E+03</pdfrwt>
<totfact> 0.31156753E+00</totfact>
</mgrwt>
</event>
<event>
 4    1  0.3565372E-007  0.6939128E+03  0.7818608E-02  0.1002346E+00
          2   -1    0    0  501    0  0.00000000000E+00  0.00000000000E+00  0.90360027542E+03  0.90360027543E+03  0.25500000000E-02 0. -1.
         -2   -1    0    0    0  501 -0.00000000000E+00 -0.00000000000E+00 -0.69107631170E+03  0.69107631170E+03  0.25500000000E-02 0.  1.
    8880023    1    1    2    0    0  0.14849267680E+03  0.16017077965E+03  0.73332036615E+03  0.10095908673E+04  0.65864270000E+03 0. -1.
    8880022    1    1    2    0    0 -0.14849267680E+03 -0.16017077965E+03 -0.52079640243E+03  0.58508571980E+03  0.15294330000E+03 0.  0.
<mgrwt>
<rscale>  0 0.54633576E+03</rscale>
<asrwt>0</asrwt>
<pdfrwt beam="1">  1        2 0.13901543E+00 0.69391279E+03</pdfrwt>
<pdfrwt beam="2">  1       -2 0.10631943E+00 0.69391279E+03</pdfrwt>
<totfact> 0.21243898E+01</totfact>
</mgrwt>
</event>
<event>
 4    1  0.3565372E-007  0.9402753E+03  0.7818608E-02  0.9464246E-01
          2   -1    0    0  501    0  0.00000000000E+00  0.00000000000E+00  0.16619080665E+04  0.16619080665E+04  0.25500000000E-02 0. -1.
         -2   -1    0    0    0  501 -0.00000000000E+00 -0.00000000000E+00 -0.47581704941E+03  0.47581704942E+03  0.25500000000E-02 0.  1.
    8880023    1    1    2    0    0 -0.85908302993E+02 -0.66552782225E+03  0.10952479276E+04  0.14434977478E+04  0.65864270000E+03 0.  0.
    8880022    1    1    2    0    0  0.85908302993E+02  0.66552782225E+03  0.90843089461E+02  0.69422736811E+03  0.15294330000E+03 0.  0.
<mgrwt>
<rscale>  0 0.86971931E+03</rscale>
<asrwt>0</asrwt>
<pdfrwt beam="1">  1        2 0.25567817E+00 0.94027535E+03</pdfrwt>
<pdfrwt beam="2">  1       -2 0.73202622E-01 0.94027535E+03</pdfrwt>
<totfact> 0.17436357E+01</totfact>
</mgrwt>
</event>
<event>
 4    1  0.3565372E-007  0.7227659E+03  0.7818608E-02  0.9913336E-01
         -2   -1    0    0    0  501 -0.00000000000E+00  0.00000000000E+00  0.10082720217E+04  0.10082720217E+04  0.25500000000E-02 0.  1.
          2   -1    0    0  501    0  0.00000000000E+00 -0.00000000000E+00 -0.66051242401E+03  0.66051242401E+03  0.25500000000E-02 0. -1.
    8880023    1    1    2    0    0 -0.29309458805E+03 -0.51728886388E+02 -0.41670885925E+03  0.83428819653E+03  0.65864270000E+03 0.  0.
    8880022    1    1    2    0    0  0.29309458805E+03  0.51728886388E+02  0.76446845695E+03  0.83449624919E+03  0.15294330000E+03 0.  0.
<mgrwt>
<rscale>  0 0.59619303E+03</rscale>
<asrwt>0</asrwt>
<pdfrwt beam="1">  1        2 0.10161730E+00 0.72276588E+03</pdfrwt>
<pdfrwt beam="2">  1       -2 0.15511877E+00 0.72276588E+03</pdfrwt>
<totfact> 0.12294804E+01</totfact>
</mgrwt>
</event>
<event>
 4    1  0.3565372E-007  0.9510394E+03  0.7818608E-02  0.9448620E-01
          2   -1    0    0  501    0  0.00000000000E+00  0.00000000000E+00  0.13989101432E+04  0.13989101432E+04  0.25500000000E-02 0. -1.
         -2   -1    0    0    0  501 -0.00000000000E+00 -0.00000000000E+00 -0.12953596804E+04  0.12953596804E+04  0.25500000000E-02 0.  1.
    8880023    1    1    2    0    0  0.11367256039E+03  0.67656797242E+03  0.11131442552E+04  0.14640922141E+04  0.65864270000E+03 0. -1.
    8880022    1    1    2    0    0 -0.11367256039E+03 -0.67656797242E+03 -0.10095937924E+04  0.12301776095E+04  0.15294330000E+03 0.  0.
<mgrwt>
<rscale>  0 0.88180192E+03</rscale>
<asrwt>0</asrwt>
<pdfrwt beam="1">  1        2 0.21521695E+00 0.95103937E+03</pdfrwt>
<pdfrwt beam="2">  1       -2 0.19928610E+00 0.95103937E+03</pdfrwt>
<totfact> 0.19470852E+00</totfact>
</mgrwt>
</event>
<event>
 4    1  0.3565372E-007  0.1081200E+04  0.7818608E-02  0.9282282E-01
          2   -1    0    0  501    0  0.00000000000E+00  0.00000000000E+00  0.23873217966E+04  0.23873217966E+04  0.25500000000E-02 0. -1.
         -2   -1    0    0    0  501 -0.00000000000E+00 -0.00000000000E+00 -0.53598291524E+03  0.53598291525E+03  0.25500000000E-02 0.  1.
    8880023    1    1    2    0    0 -0.78331174467E+03 -0.34872017506E+03  0.17354095883E+04  0.20446612666E+04  0.65864270000E+03 0.  0.
    8880022    1    1    2    0    0  0.78331174467E+03  0.34872017506E+03  0.11592929306E+03  0.87864344522E+03  0.15294330000E+03 0. -1.
<mgrwt>
<rscale>  0 0.10243050E+04</rscale>
<asrwt>0</asrwt>
<pdfrwt beam="1">  1        2 0.36728027E+00 0.10811999E+04</pdfrwt>
<pdfrwt beam="2">  1       -2 0.82458912E-01 0.10811999E+04</pdfrwt>
<totfact> 0.52076549E+00</totfact>
</mgrwt>
</event>
<event>
 4    1  0.3565372E-007  0.6636165E+03  0.7818608E-02  0.1020723E+00
         -2   -1    0    0    0  501 -0.00000000000E+00  0.00000000000E+00  0.47996678724E+03  0.47996678725E+03  0.25500000000E-02 0.  1.
          2   -1    0    0  501    0  0.00000000000E+00 -0.00000000000E+00 -0.83714489650E+03  0.83714489651E+03  0.25500000000E-02 0. -1.
    8880023    1    1    2    0    0  0.28241107251E+02  0.76020022077E+02 -0.68040810223E+03  0.95044305234E+03  0.65864270000E+03 0. -1.
    8880022    1    1    2    0    0 -0.28241107251E+02 -0.76020022077E+02  0.32322999297E+03  0.36666863142E+03  0.15294330000E+03 0.  0.
<mgrwt>
<rscale>  0 0.47426443E+03</rscale>
<asrwt>0</asrwt>
<pdfrwt beam="1">  1        2 0.12879152E+00 0.66361646E+03</pdfrwt>
<pdfrwt beam="2">  1       -2 0.73841044E-01 0.66361646E+03</pdfrwt>
<totfact> 0.54698203E+01</totfact>
</mgrwt>
</event>
<event>
 4    1  0.5334498E-007  0.7144233E+03  0.7818608E-02  0.9941928E-01
          2   -1    0    0  501    0  0.00000000000E+00  0.00000000000E+00  0.41309185427E+04  0.41309185427E+04  0.25500000000E-02 0. -1.
         -2   -1    0    0    0  501 -0.00000000000E+00 -0.00000000000E+00 -0.78079575491E+03  0.78079575491E+03  0.25500000000E-02 0.  1.
    8880023    1    1    2    0    0 -0.27673498897E+03  0.28533805370E+01  0.40664354715E+04  0.41287162710E+04  0.65864270000E+03 0. -1.
    8880022    1    1    2    0    0  0.27673498897E+03 -0.28533805370E+01 -0.71631268370E+03  0.78299802666E+03  0.15294330000E+03 0.  0.
<mgrwt>
<rscale>  0 0.58271600E+03</rscale>
<asrwt>0</asrwt>
<pdfrwt beam="1">  1        2 0.63552593E+00 0.71442327E+03</pdfrwt>
<pdfrwt beam="2">  1       -2 0.12012242E+00 0.71442327E+03</pdfrwt>
<totfact> 0.16010837E-01</totfact>
</mgrwt>
</event>
<event>
 4    1  0.3565372E-007  0.7796289E+03  0.7818608E-02  0.9756709E-01
          2   -1    0    0  501    0  0.00000000000E+00  0.00000000000E+00  0.14450309118E+04  0.14450309118E+04  0.25500000000E-02 0. -1.
         -2   -1    0    0    0  501 -0.00000000000E+00 -0.00000000000E+00 -0.26655366838E+03  0.26655366839E+03  0.25500000000E-02 0.  1.
    8880023    1    1    2    0    0  0.39679430181E+03 -0.12870627466E+03  0.88339041949E+03  0.11782189366E+04  0.65864270000E+03 0.  0.
    8880022    1    1    2    0    0 -0.39679430181E+03  0.12870627466E+03  0.29508682395E+03  0.53336564360E+03  0.15294330000E+03 0. -1.
<mgrwt>
<rscale>  0 0.67738423E+03</rscale>
<asrwt>0</asrwt>
<pdfrwt beam="1">  1        2 0.22231244E+00 0.77962890E+03</pdfrwt>
<pdfrwt beam="2">  1       -2 0.41008258E-01 0.77962890E+03</pdfrwt>
<totfact> 0.78054081E+01</totfact>
</mgrwt>
</event>
<event>
 4    1  0.3565372E-007  0.9019976E+03  0.7818608E-02  0.9522832E-01
          2   -1    0    0  501    0  0.00000000000E+00  0.00000000000E+00  0.14295869187E+04  0.14295869187E+04  0.25500000000E-02 0. -1.
         -2   -1    0    0    0  501 -0.00000000000E+00 -0.00000000000E+00 -0.44397303192E+03  0.44397303193E+03  0.25500000000E-02 0.  1.
    8880023    1    1    2    0    0  0.51294825622E+03 -0.34157503847E+03  0.81600535873E+03  0.12163323445E+04  0.65864270000E+03 0.  1.
    8880022    1    1    2    0    0 -0.51294825622E+03  0.34157503847E+03  0.16960852801E+03  0.65722760612E+03  0.15294330000E+03 0.  0.
<mgrwt>
<rscale>  0 0.82621209E+03</rscale>
<asrwt>0</asrwt>
<pdfrwt beam="1">  1        2 0.21993645E+00 0.90199758E+03</pdfrwt>
<pdfrwt beam="2">  1       -2 0.68303543E-01 0.90199758E+03</pdfrwt>
<totfact> 0.27467453E+01</totfact>
</mgrwt>
</event>
<event>
 4    1  0.3565372E-007  0.1269802E+04  0.7818608E-02  0.9092087E-01
         -2   -1    0    0    0  501 -0.00000000000E+00  0.00000000000E+00  0.14683933531E+04  0.14683933531E+04  0.25500000000E-02 0.  1.
          2   -1    0    0  501    0  0.00000000000E+00 -0.00000000000E+00 -0.13887310929E+04  0.13887310929E+04  0.25500000000E-02 0. -1.
    8880023    1    1    2    0    0 -0.10720804382E+04  0.17096771108E+03 -0.75670999145E+03  0.14781767964E+04  0.65864270000E+03 0. -1.
    8880022    1    1    2    0    0  0.10720804382E+04 -0.17096771108E+03  0.83637225162E+03  0.13789476496E+04  0.15294330000E+03 0.  0.
<mgrwt>
<rscale>  0 0.12240214E+04</rscale>
<asrwt>0</asrwt>
<pdfrwt beam="1">  1        2 0.21365094E+00 0.12698018E+04</pdfrwt>
<pdfrwt beam="2">  1       -2 0.22590667E+00 0.12698018E+04</pdfrwt>
<totfact> 0.12833873E+00</totfact>
</mgrwt>
</event>
<event>
 4    1  0.3587736E-007  0.9568003E+03  0.7818608E-02  0.9440397E-01
          2   -1    0    0  501    0  0.00000000000E+00  0.00000000000E+00  0.13603699647E+04  0.13603699647E+04  0.25500000000E-02 0. -1.
         -2   -1    0    0    0  501 -0.00000000000E+00 -0.00000000000E+00 -0.17454389729E+04  0.17454389729E+04  0.25500000000E-02 0.  1.
    8880023    1    1    2    0    0 -0.58952783671E+03 -0.36621511433E+03  0.11009403226E+04  0.14586076856E+04  0.65864270000E+03 0. -1.
    8880022    1    1    2    0    0  0.58952783671E+03  0.36621511433E+03 -0.14860093308E+04  0.16472012520E+04  0.15294330000E+03 0.  0.
<mgrwt>
<rscale>  0 0.88824461E+03</rscale>
<asrwt>0</asrwt>
<pdfrwt beam="1">  1        2 0.20928769E+00 0.95680029E+03</pdfrwt>
<pdfrwt beam="2">  1       -2 0.26852907E+00 0.95680029E+03</pdfrwt>
<totfact> 0.75950516E-01</totfact>
</mgrwt>
</event>
<event>
 4    1  0.3565372E-007  0.8665664E+03  0.7818608E-02  0.9581988E-01
         -2   -1    0    0    0  501 -0.00000000000E+00  0.00000000000E+00  0.20343616453E+04  0.20343616453E+04  0.25500000000E-02 0.  1.
          2   -1    0    0  501    0  0.00000000000E+00 -0.00000000000E+00 -0.44242402052E+03  0.44242402053E+03  0.25500000000E-02 0. -1.
    8880023    1    1    2    0    0  0.44659464296E+03 -0.34304578166E+03  0.96981422553E+02  0.87197636781E+03  0.65864270000E+03 0.  0.
    8880022    1    1    2    0    0 -0.44659464296E+03  0.34304578166E+03  0.14949562022E+04  0.16048092980E+04  0.15294330000E+03 0.  0.
<mgrwt>
<rscale>  0 0.78499889E+03</rscale>
<asrwt>0</asrwt>
<pdfrwt beam="1">  1        2 0.68065234E-01 0.86656644E+03</pdfrwt>
<pdfrwt beam="2">  1       -2 0.31297872E+00 0.86656644E+03</pdfrwt>
<totfact> 0.19261821E+00</totfact>
</mgrwt>
</event>
<event>
 4    1  0.3565372E-007  0.1402193E+04  0.7818608E-02  0.8981980E-01
         -2   -1    0    0    0  501 -0.00000000000E+00  0.00000000000E+00  0.12418464356E+04  0.12418464356E+04  0.25500000000E-02 0.  1.
          2   -1    0    0  501    0  0.00000000000E+00 -0.00000000000E+00 -0.22010474668E+04  0.22010474668E+04  0.25500000000E-02 0. -1.
    8880023    1    1    2    0    0  0.25621578050E+03  0.12110696132E+04 -0.15264052753E+04  0.20726937557E+04  0.65864270000E+03 0. -1.
    8880022    1    1    2    0    0 -0.25621578050E+03 -0.12110696132E+04  0.56720424414E+03  0.13702001466E+04  0.15294330000E+03 0.  0.
<mgrwt>
<rscale>  0 0.13617508E+04</rscale>
<asrwt>0</asrwt>
<pdfrwt beam="1">  1        2 0.33862269E+00 0.14021934E+04</pdfrwt>
<pdfrwt beam="2">  1       -2 0.19105330E+00 0.14021934E+04</pdfrwt>
<totfact> 0.74684577E-01</totfact>
</mgrwt>
</event>
<event>
 4    1  0.3565372E-007  0.8488238E+03  0.7818608E-02  0.9613762E-01
         -2   -1    0    0    0  501 -0.00000000000E+00  0.00000000000E+00  0.78649281567E+03  0.78649281568E+03  0.25500000000E-02 0.  1.
          2   -1    0    0  501    0  0.00000000000E+00 -0.00000000000E+00 -0.12990173629E+04  0.12990173629E+04  0.25500000000E-02 0. -1.
    8880023    1    1    2    0    0  0.80746206298E-01  0.53543585148E+03 -0.10235444874E+04  0.13297161658E+04  0.65864270000E+03 0.  0.
    8880022    1    1    2    0    0 -0.80746206298E-01 -0.53543585148E+03  0.51101994016E+03  0.75579401283E+03  0.15294330000E+03 0.  0.
<mgrwt>
<rscale>  0 0.76392008E+03</rscale>
<asrwt>0</asrwt>
<pdfrwt beam="1">  1        2 0.19984883E+00 0.84882375E+03</pdfrwt>
<pdfrwt beam="2">  1       -2 0.12099889E+00 0.84882375E+03</pdfrwt>
<totfact> 0.86878702E+00</totfact>
</mgrwt>
</event>
<event>
 4    1  0.3565372E-007  0.8791745E+03  0.7818608E-02  0.9560326E-01
         -2   -1    0    0    0  501 -0.00000000000E+00  0.00000000000E+00  0.22762161940E+03  0.22762161942E+03  0.25500000000E-02 0.  1.
          2   -1    0    0  501    0  0.00000000000E+00 -0.00000000000E+00 -0.34101141554E+04  0.34101141554E+04  0.25500000000E-02 0. -1.
    8880023    1    1    2    0    0 -0.34889835629E+03  0.46626981361E+03 -0.82878176238E+03  0.12082330148E+04  0.65864270000E+03 0.  1.
    8880022    1    1    2    0    0  0.34889835629E+03 -0.46626981361E+03 -0.23537107736E+04  0.24295027601E+04  0.15294330000E+03 0.  0.
<mgrwt>
<rscale>  0 0.79978673E+03</rscale>
<asrwt>0</asrwt>
<pdfrwt beam="1">  1        2 0.52463291E+00 0.87917450E+03</pdfrwt>
<pdfrwt beam="2">  1       -2 0.35018713E-01 0.87917450E+03</pdfrwt>
<totfact> 0.75636890E+00</totfact>
</mgrwt>
</event>
<event>
 4    1  0.3565372E-007  0.1076986E+04  0.7818608E-02  0.9287122E-01
         -2   -1    0    0    0  501 -0.00000000000E+00  0.00000000000E+00  0.81610324507E+03  0.81610324507E+03  0.25500000000E-02 0.  1.
          2   -1    0    0  501    0  0.00000000000E+00 -0.00000000000E+00 -0.13287891710E+04  0.13287891710E+04  0.25500000000E-02 0. -1.
    8880023    1    1    2    0    0  0.70797043528E+03 -0.47420196393E+03 -0.66517033876E+03  0.12658402054E+04  0.65864270000E+03 0.  0.
    8880022    1    1    2    0    0 -0.70797043528E+03  0.47420196393E+03  0.15248441286E+03  0.87905221063E+03  0.15294330000E+03 0.  0.
<mgrwt>
<rscale>  0 0.10197713E+04</rscale>
<asrwt>0</asrwt>
<pdfrwt beam="1">  1        2 0.20442910E+00 0.10769865E+04</pdfrwt>
<pdfrwt beam="2">  1       -2 0.12555435E+00 0.10769865E+04</pdfrwt>
<totfact> 0.74317801E+00</totfact>
</mgrwt>
</event>
<event>
 4    1  0.3565372E-007  0.1072931E+04  0.7818608E-02  0.9291810E-01
         -2   -1    0    0    0  501 -0.00000000000E+00  0.00000000000E+00  0.84079917424E+03  0.84079917424E+03  0.25500000000E-02 0.  1.
          2   -1    0    0  501    0  0.00000000000E+00 -0.00000000000E+00 -0.23953307943E+04  0.23953307943E+04  0.25500000000E-02 0. -1.
    8880023    1    1    2    0    0  0.84494013097E+03  0.58713902995E+02 -0.19980467694E+04  0.22679004049E+04  0.65864270000E+03 0.  0.
    8880022    1    1    2    0    0 -0.84494013097E+03 -0.58713902995E+02  0.44351514933E+03  0.96822956371E+03  0.15294330000E+03 0.  0.
<mgrwt>
<rscale>  0 0.10154038E+04</rscale>
<asrwt>0</asrwt>
<pdfrwt beam="1">  1        2 0.36851243E+00 0.10729312E+04</pdfrwt>
<pdfrwt beam="2">  1       -2 0.12935372E+00 0.10729312E+04</pdfrwt>
<totfact> 0.17494943E+00</totfact>
</mgrwt>
</event>
<event>
 4    1  0.3565372E-007  0.6883591E+03  0.7818608E-02  0.1004942E+00
          2   -1    0    0  501    0  0.00000000000E+00  0.00000000000E+00  0.36957955642E+03  0.36957955642E+03  0.25500000000E-02 0. -1.
         -2   -1    0    0    0  501 -0.00000000000E+00 -0.00000000000E+00 -0.11046510279E+04  0.11046510279E+04  0.25500000000E-02 0.  1.
    8880023    1    1    2    0    0  0.10957550460E+03 -0.16739558833E+03  0.92911304103E+01  0.68842182241E+03  0.65864270000E+03 0.  0.
    8880022    1    1    2    0    0 -0.10957550460E+03  0.16739558833E+03 -0.74436260194E+03  0.78580876196E+03  0.15294330000E+03 0.  0.
<mgrwt>
<rscale>  0 0.53535190E+03</rscale>
<asrwt>0</asrwt>
<pdfrwt beam="1">  1        2 0.56858394E-01 0.68835912E+03</pdfrwt>
<pdfrwt beam="2">  1       -2 0.16994631E+00 0.68835912E+03</pdfrwt>
<totfact> 0.18912701E+01</totfact>
</mgrwt>
</event>
<event>
 4    1  0.3565372E-007  0.7974058E+03  0.7818608E-02  0.9716434E-01
         -2   -1    0    0    0  501 -0.00000000000E+00  0.00000000000E+00  0.89935631388E+03  0.89935631389E+03  0.25500000000E-02 0.  1.
          2   -1    0    0  501    0  0.00000000000E+00 -0.00000000000E+00 -0.80213133233E+03  0.80213133233E+03  0.25500000000E-02 0. -1.
    8880023    1    1    2    0    0 -0.43120230532E+03  0.12692674751E+03 -0.49796122132E+03  0.94011776472E+03  0.65864270000E+03 0. -1.
    8880022    1    1    2    0    0  0.43120230532E+03 -0.12692674751E+03  0.59518620288E+03  0.76136988150E+03  0.15294330000E+03 0.  0.
<mgrwt>
<rscale>  0 0.70046722E+03</rscale>
<asrwt>0</asrwt>
<pdfrwt beam="1">  1        2 0.12340482E+00 0.79740581E+03</pdfrwt>
<pdfrwt beam="2">  1       -2 0.13836251E+00 0.79740581E+03</pdfrwt>
<totfact> 0.12843464E+01</totfact>
</mgrwt>
</event>
<event>
 4    1  0.3565372E-007  0.6977735E+03  0.7818608E-02  0.1000657E+00
         -2   -1    0    0    0  501 -0.00000000000E+00  0.00000000000E+00  0.16916375336E+03  0.16916375338E+03  0.25500000000E-02 0.  1.
          2   -1    0    0  501    0  0.00000000000E+00 -0.00000000000E+00 -0.19697770368E+04  0.19697770368E+04  0.25500000000E-02 0. -1.
    8880023    1    1    2    0    0  0.17864324911E+03  0.14547937488E+03 -0.17117115096E+04  0.18484707619E+04  0.65864270000E+03 0. -1.
    8880022    1    1    2    0    0 -0.17864324911E+03 -0.14547937488E+03 -0.88901773840E+02  0.29047002836E+03  0.15294330000E+03 0.  0.
<mgrwt>
<rscale>  0 0.55363273E+03</rscale>
<asrwt>0</asrwt>
<pdfrwt beam="1">  1        2 0.30304260E+00 0.69777351E+03</pdfrwt>
<pdfrwt beam="2">  1       -2 0.26025194E-01 0.69777351E+03</pdfrwt>
<totfact> 0.95475294E+01</totfact>
</mgrwt>
</event>
<event>
 4    1  0.3565372E-007  0.1274822E+04  0.7818608E-02  0.9087613E-01
          2   -1    0    0  501    0  0.00000000000E+00  0.00000000000E+00  0.30790563329E+04  0.30790563329E+04  0.25500000000E-02 0. -1.
         -2   -1    0    0    0  501 -0.00000000000E+00 -0.00000000000E+00 -0.93863652719E+03  0.93863652719E+03  0.25500000000E-02 0.  1.
    8880023    1    1    2    0    0 -0.66324632553E+03  0.86687093252E+03 -0.32631958589E+03  0.13159238505E+04  0.65864270000E+03 0.  0.
    8880022    1    1    2    0    0  0.66324632553E+03 -0.86687093252E+03  0.24667393916E+04  0.27017690096E+04  0.15294330000E+03 0.  0.
<mgrwt>
<rscale>  0 0.12292724E+04</rscale>
<asrwt>0</asrwt>
<pdfrwt beam="1">  1        2 0.47370099E+00 0.12748220E+04</pdfrwt>
<pdfrwt beam="2">  1       -2 0.14440562E+00 0.12748220E+04</pdfrwt>
<totfact> 0.50186280E-01</totfact>
</mgrwt>
</event>
<event>
 4    1  0.3565372E-007  0.7210002E+03  0.7818608E-02  0.9919216E-01
         -2   -1    0    0    0  501 -0.00000000000E+00  0.00000000000E+00  0.59408944841E+03  0.59408944841E+03  0.25500000000E-02 0.  1.
          2   -1    0    0  501    0  0.00000000000E+00 -0.00000000000E+00 -0.13508667464E+04  0.13508667464E+04  0.25500000000E-02 0. -1.
    8880023    1    1    2    0    0 -0.26571318565E+03  0.12420786283E+03 -0.11951456363E+04  0.13957845065E+04  0.65864270000E+03 0. -1.
    8880022    1    1    2    0    0  0.26571318565E+03 -0.12420786283E+03  0.43836833833E+03  0.54917168835E+03  0.15294330000E+03 0.  0.
<mgrwt>
<rscale>  0 0.59338968E+03</rscale>
<asrwt>0</asrwt>
<pdfrwt beam="1">  1        2 0.20782565E+00 0.72100021E+03</pdfrwt>
<pdfrwt beam="2">  1       -2 0.91398377E-01 0.72100021E+03</pdfrwt>
<totfact> 0.16147785E+01</totfact>
</mgrwt>
</event>
<event>
 4    1  0.3565372E-007  0.7490379E+03  0.7818608E-02  0.9834361E-01
         -2   -1    0    0    0  501 -0.00000000000E+00  0.00000000000E+00  0.25259499873E+03  0.25259499875E+03  0.25500000000E-02 0.  1.
          2   -1    0    0  501    0  0.00000000000E+00 -0.00000000000E+00 -0.15803061437E+04  0.15803061437E+04  0.25500000000E-02 0. -1.
    8880023    1    1    2    0    0  0.28570328968E+03  0.21359133031E+03 -0.12174500165E+04  0.14294202934E+04  0.65864270000E+03 0. -1.
    8880022    1    1    2    0    0 -0.28570328968E+03 -0.21359133031E+03 -0.11026112846E+03  0.40348084909E+03  0.15294330000E+03 0.  0.
<mgrwt>
<rscale>  0 0.63550671E+03</rscale>
<asrwt>0</asrwt>
<pdfrwt beam="1">  1        2 0.24312402E+00 0.74903794E+03</pdfrwt>
<pdfrwt beam="2">  1       -2 0.38860770E-01 0.74903794E+03</pdfrwt>
<totfact> 0.73098188E+01</totfact>
</mgrwt>
</event>
<event>
 4    1  0.3565372E-007  0.6711101E+03  0.7818608E-02  0.1014879E+00
         -2   -1    0    0    0  501 -0.00000000000E+00  0.00000000000E+00  0.31897822116E+03  0.31897822117E+03  0.25500000000E-02 0.  1.
          2   -1    0    0  501    0  0.00000000000E+00 -0.00000000000E+00 -0.20881199467E+04  0.20881199467E+04  0.25500000000E-02 0. -1.
    8880023    1    1    2    0    0 -0.30438111889E+02 -0.12510808135E+03 -0.19953600397E+04  0.21051960491E+04  0.65864270000E+03 0. -1.
    8880022    1    1    2    0    0  0.30438111889E+02  0.12510808135E+03  0.22621831416E+03  0.30190211882E+03  0.15294330000E+03 0.  0.
<mgrwt>
<rscale>  0 0.49580660E+03</rscale>
<asrwt>0</asrwt>
<pdfrwt beam="1">  1        2 0.32124921E+00 0.67111006E+03</pdfrwt>
<pdfrwt beam="2">  1       -2 0.49073574E-01 0.67111006E+03</pdfrwt>
<totfact> 0.24563666E+01</totfact>
</mgrwt>
</event>
<event>
 4    1  0.3565372E-007  0.6605192E+03  0.7818608E-02  0.1023631E+00
         -2   -1    0    0    0  501 -0.00000000000E+00  0.00000000000E+00  0.91589250433E+02  0.91589250469E+02  0.25500000000E-02 0.  1.
          2   -1    0    0  501    0  0.00000000000E+00 -0.00000000000E+00 -0.40015428047E+04  0.40015428047E+04  0.25500000000E-02 0. -1.
    8880023    1    1    2    0    0  0.20146984283E+01 -0.49712434854E+02 -0.38719308003E+04  0.39278663055E+04  0.65864270000E+03 0. -1.
    8880022    1    1    2    0    0 -0.20146984283E+01  0.49712434854E+02 -0.38022753983E+02  0.16526574970E+03  0.15294330000E+03 0.  0.
<mgrwt>
<rscale>  0 0.46398871E+03</rscale>
<asrwt>0</asrwt>
<pdfrwt beam="1">  1        2 0.61562183E+00 0.66051918E+03</pdfrwt>
<pdfrwt beam="2">  1       -2 0.14090657E-01 0.66051918E+03</pdfrwt>
<totfact> 0.14899414E+01</totfact>
</mgrwt>
</event>
<event>
 4    1  0.3565372E-007  0.6956527E+03  0.7818608E-02  0.1001574E+00
         -2   -1    0    0    0  501 -0.00000000000E+00  0.00000000000E+00  0.22920044270E+03  0.22920044272E+03  0.25500000000E-02 0.  1.
          2   -1    0    0  501    0  0.00000000000E+00 -0.00000000000E+00 -0.11143180270E+04  0.11143180270E+04  0.25500000000E-02 0. -1.
    8880023    1    1    2    0    0 -0.22374399208E+03 -0.78166042830E+01 -0.44251730599E+03  0.82447210120E+03  0.65864270000E+03 0.  1.
    8880022    1    1    2    0    0  0.22374399208E+03  0.78166042830E+01 -0.44260027827E+03  0.51904636848E+03  0.15294330000E+03 0.  0.
<mgrwt>
<rscale>  0 0.54965566E+03</rscale>
<asrwt>0</asrwt>
<pdfrwt beam="1">  1        2 0.17143354E+00 0.69565270E+03</pdfrwt>
<pdfrwt beam="2">  1       -2 0.35261607E-01 0.69565270E+03</pdfrwt>
<totfact> 0.16374904E+02</totfact>
</mgrwt>
</event>
<event>
 4    1  0.3565372E-007  0.6948155E+03  0.7818608E-02  0.1001943E+00
         -2   -1    0    0    0  501 -0.00000000000E+00  0.00000000000E+00  0.21406879157E+03  0.21406879158E+03  0.25500000000E-02 0.  1.
          2   -1    0    0  501    0  0.00000000000E+00 -0.00000000000E+00 -0.14927259417E+04  0.14927259417E+04  0.25500000000E-02 0. -1.
    8880023    1    1    2    0    0  0.15532470877E+03 -0.15758381854E+03 -0.12578703460E+04  0.14370130266E+04  0.65864270000E+03 0. -1.
    8880022    1    1    2    0    0 -0.15532470877E+03  0.15758381854E+03 -0.20786804130E+02  0.26978170668E+03  0.15294330000E+03 0.  0.
<mgrwt>
<rscale>  0 0.54806493E+03</rscale>
<asrwt>0</asrwt>
<pdfrwt beam="1">  1        2 0.22965014E+00 0.69481554E+03</pdfrwt>
<pdfrwt beam="2">  1       -2 0.32933661E-01 0.69481554E+03</pdfrwt>
<totfact> 0.11272779E+02</totfact>
</mgrwt>
</event>
<event>
 4    1  0.3565372E-007  0.1403546E+04  0.7818608E-02  0.8980932E-01
          2   -1    0    0  501    0  0.00000000000E+00  0.00000000000E+00  0.20922434876E+04  0.20922434876E+04  0.25500000000E-02 0. -1.
         -2   -1    0    0    0  501 -0.00000000000E+00 -0.00000000000E+00 -0.11462922755E+04  0.11462922755E+04  0.25500000000E-02 0.  1.
    8880023    1    1    2    0    0  0.75457107160E+03  0.98323701195E+03  0.13283671273E+04  0.19324859521E+04  0.65864270000E+03 0.  0.
    8880022    1    1    2    0    0 -0.75457107160E+03 -0.98323701195E+03 -0.38241591515E+03  0.13060498110E+04  0.15294330000E+03 0.  0.
<mgrwt>
<rscale>  0 0.13631515E+04</rscale>
<asrwt>0</asrwt>
<pdfrwt beam="1">  1        2 0.32188361E+00 0.14035465E+04</pdfrwt>
<pdfrwt beam="2">  1       -2 0.17635266E+00 0.14035465E+04</pdfrwt>
<totfact> 0.10843174E+00</totfact>
</mgrwt>
</event>
<event>
 4    1  0.3565372E-007  0.1261152E+04  0.7818608E-02  0.9099856E-01
          2   -1    0    0  501    0  0.00000000000E+00  0.00000000000E+00  0.27769598651E+04  0.27769598651E+04  0.25500000000E-02 0. -1.
         -2   -1    0    0    0  501 -0.00000000000E+00 -0.00000000000E+00 -0.50297862549E+03  0.50297862550E+03  0.25500000000E-02 0.  1.
    8880023    1    1    2    0    0 -0.96766052639E+03  0.46938942006E+03  0.14117582926E+04  0.18930306402E+04  0.65864270000E+03 0.  0.
    8880022    1    1    2    0    0  0.96766052639E+03 -0.46938942006E+03  0.86222294708E+03  0.13869078504E+04  0.15294330000E+03 0.  0.
<mgrwt>
<rscale>  0 0.12149675E+04</rscale>
<asrwt>0</asrwt>
<pdfrwt beam="1">  1        2 0.42722460E+00 0.12611517E+04</pdfrwt>
<pdfrwt beam="2">  1       -2 0.77381326E-01 0.12611517E+04</pdfrwt>
<totfact> 0.34974089E+00</totfact>
</mgrwt>
</event>
<event>
 4    1  0.3565372E-007  0.8442802E+03  0.7818608E-02  0.9622162E-01
         -2   -1    0    0    0  501 -0.00000000000E+00  0.00000000000E+00  0.28585423263E+03  0.28585423265E+03  0.25500000000E-02 0.  1.
          2   -1    0    0  501    0  0.00000000000E+00 -0.00000000000E+00 -0.18485830022E+04  0.18485830022E+04  0.25500000000E-02 0. -1.
    8880023    1    1    2    0    0 -0.40250813977E+03  0.34203220970E+03 -0.12294401903E+04  0.14914195328E+04  0.65864270000E+03 0. -1.
    8880022    1    1    2    0    0  0.40250813977E+03 -0.34203220970E+03 -0.33328857927E+03  0.64301770204E+03  0.15294330000E+03 0.  1.
<mgrwt>
<rscale>  0 0.75846574E+03</rscale>
<asrwt>0</asrwt>
<pdfrwt beam="1">  1        2 0.28439738E+00 0.84428019E+03</pdfrwt>
<pdfrwt beam="2">  1       -2 0.43977575E-01 0.84428019E+03</pdfrwt>
<totfact> 0.40453911E+01</totfact>
</mgrwt>
</event>
<event>
 4    1  0.3565372E-007  0.7172120E+03  0.7818608E-02  0.9932135E-01
          2   -1    0    0  501    0  0.00000000000E+00  0.00000000000E+00  0.41190529005E+03  0.41190529006E+03  0.25500000000E-02 0. -1.
         -2   -1    0    0    0  501 -0.00000000000E+00 -0.00000000000E+00 -0.69771590382E+03  0.69771590382E+03  0.25500000000E-02 0.  1.
    8880023    1    1    2    0    0 -0.10585825556E+03 -0.26339485750E+03 -0.67847892379E+02  0.72041402262E+03  0.65864270000E+03 0. -1.
    8880022    1    1    2    0    0  0.10585825556E+03  0.26339485750E+03 -0.21796272139E+03  0.38920717126E+03  0.15294330000E+03 0. -1.
<mgrwt>
<rscale>  0 0.58728850E+03</rscale>
<asrwt>0</asrwt>
<pdfrwt beam="1">  1        2 0.63370045E-01 0.71721198E+03</pdfrwt>
<pdfrwt beam="2">  1       -2 0.10734091E+00 0.71721198E+03</pdfrwt>
<totfact> 0.54332052E+01</totfact>
</mgrwt>
</event>
<event>
 4    1  0.3565372E-007  0.1264720E+04  0.7818608E-02  0.9096641E-01
          2   -1    0    0  501    0  0.00000000000E+00  0.00000000000E+00  0.21499279004E+04  0.21499279004E+04  0.25500000000E-02 0. -1.
         -2   -1    0    0    0  501 -0.00000000000E+00 -0.00000000000E+00 -0.72108856442E+03  0.72108856443E+03  0.25500000000E-02 0.  1.
    8880023    1    1    2    0    0 -0.55035923827E+03  0.92887688842E+03  0.12268471703E+04  0.17620078747E+04  0.65864270000E+03 0.  0.
    8880022    1    1    2    0    0  0.55035923827E+03 -0.92887688842E+03  0.20199216568E+03  0.11090085901E+04  0.15294330000E+03 0.  0.
<mgrwt>
<rscale>  0 0.12187038E+04</rscale>
<asrwt>0</asrwt>
<pdfrwt beam="1">  1        2 0.33075814E+00 0.12647204E+04</pdfrwt>
<pdfrwt beam="2">  1       -2 0.11093670E+00 0.12647204E+04</pdfrwt>
<totfact> 0.34463046E+00</totfact>
</mgrwt>
</event>
<event>
 4    1  0.3565372E-007  0.6961965E+03  0.7818608E-02  0.1001336E+00
         -2   -1    0    0    0  501 -0.00000000000E+00  0.00000000000E+00  0.29849309798E+03  0.29849309799E+03  0.25500000000E-02 0.  1.
          2   -1    0    0  501    0  0.00000000000E+00 -0.00000000000E+00 -0.87645818171E+03  0.87645818171E+03  0.25500000000E-02 0. -1.
    8880023    1    1    2    0    0 -0.14271414123E+03  0.17467705233E+03 -0.57413510706E+03  0.90239721084E+03  0.65864270000E+03 0. -1.
    8880022    1    1    2    0    0  0.14271414123E+03 -0.17467705233E+03 -0.38299766703E+01  0.27255406886E+03  0.15294330000E+03 0.  0.
<mgrwt>
<rscale>  0 0.55068258E+03</rscale>
<asrwt>0</asrwt>
<pdfrwt beam="1">  1        2 0.13483972E+00 0.69619653E+03</pdfrwt>
<pdfrwt beam="2">  1       -2 0.45922016E-01 0.69619653E+03</pdfrwt>
<totfact> 0.13886418E+02</totfact>
</mgrwt>
</event>
<event>
 4    1  0.4786285E-007  0.7680580E+03  0.7818608E-02  0.9784676E-01
         -2   -1    0    0    0  501 -0.00000000000E+00  0.00000000000E+00  0.10282157483E+04  0.10282157483E+04  0.25500000000E-02 0.  1.
          2   -1    0    0  501    0  0.00000000000E+00 -0.00000000000E+00 -0.21234681475E+04  0.21234681475E+04  0.25500000000E-02 0. -1.
    8880023    1    1    2    0    0  0.81248074598E+02  0.38665439527E+03 -0.20055683456E+04  0.21476073817E+04  0.65864270000E+03 0. -1.
    8880022    1    1    2    0    0 -0.81248074598E+02 -0.38665439527E+03  0.91031594636E+03  0.10040765141E+04  0.15294330000E+03 0.  0.
<mgrwt>
<rscale>  0 0.66191452E+03</rscale>
<asrwt>0</asrwt>
<pdfrwt beam="1">  1        2 0.32668741E+00 0.76805799E+03</pdfrwt>
<pdfrwt beam="2">  1       -2 0.15818704E+00 0.76805799E+03</pdfrwt>
<totfact> 0.15379595E+00</totfact>
</mgrwt>
</event>
<event>
 4    1  0.3565372E-007  0.8314662E+03  0.7818608E-02  0.9646486E-01
          2   -1    0    0  501    0  0.00000000000E+00  0.00000000000E+00  0.12053159481E+04  0.12053159481E+04  0.25500000000E-02 0. -1.
         -2   -1    0    0    0  501 -0.00000000000E+00 -0.00000000000E+00 -0.62646748819E+03  0.62646748819E+03  0.25500000000E-02 0.  1.
    8880023    1    1    2    0    0  0.47643228896E+03 -0.17475163952E+03  0.88936904603E+03  0.12175029231E+04  0.65864270000E+03 0. -1.
    8880022    1    1    2    0    0 -0.47643228896E+03  0.17475163952E+03 -0.31052058611E+03  0.61428051319E+03  0.15294330000E+03 0.  1.
<mgrwt>
<rscale>  0 0.74294353E+03</rscale>
<asrwt>0</asrwt>
<pdfrwt beam="1">  1        2 0.18543322E+00 0.83146622E+03</pdfrwt>
<pdfrwt beam="2">  1       -2 0.96379614E-01 0.83146622E+03</pdfrwt>
<totfact> 0.17116784E+01</totfact>
</mgrwt>
</event>
<event>
 4    1  0.3565372E-007  0.8280939E+03  0.7818608E-02  0.9653053E-01
         -2   -1    0    0    0  501 -0.00000000000E+00  0.00000000000E+00  0.12587342796E+04  0.12587342796E+04  0.25500000000E-02 0.  1.
          2   -1    0    0  501    0  0.00000000000E+00 -0.00000000000E+00 -0.72670128816E+03  0.72670128816E+03  0.25500000000E-02 0. -1.
    8880023    1    1    2    0    0 -0.49937445198E+03 -0.50540998846E+02 -0.39709697109E+03  0.91838197204E+03  0.65864270000E+03 0. -1.
    8880022    1    1    2    0    0  0.49937445198E+03  0.50540998846E+02  0.92912996253E+03  0.10670535957E+04  0.15294330000E+03 0.  0.
<mgrwt>
<rscale>  0 0.73882157E+03</rscale>
<asrwt>0</asrwt>
<pdfrwt beam="1">  1        2 0.11180020E+00 0.82809386E+03</pdfrwt>
<pdfrwt beam="2">  1       -2 0.19365142E+00 0.82809386E+03</pdfrwt>
<totfact> 0.57846008E+00</totfact>
</mgrwt>
</event>
<event>
 4    1  0.3565372E-007  0.8274246E+03  0.7818608E-02  0.9654364E-01
          2   -1    0    0  501    0  0.00000000000E+00  0.00000000000E+00  0.24385948897E+04  0.24385948897E+04  0.25500000000E-02 0. -1.
         -2   -1    0    0    0  501 -0.00000000000E+00 -0.00000000000E+00 -0.44087453041E+03  0.44087453042E+03  0.25500000000E-02 0.  1.
    8880023    1    1    2    0    0 -0.49104368602E+03  0.98474806544E+02  0.21746422937E+04  0.23267360187E+04  0.65864270000E+03 0. -1.
    8880022    1    1    2    0    0  0.49104368602E+03 -0.98474806544E+02 -0.17692193442E+03  0.55273340138E+03  0.15294330000E+03 0.  0.
<mgrwt>
<rscale>  0 0.73800156E+03</rscale>
<asrwt>0</asrwt>
<pdfrwt beam="1">  1        2 0.37516844E+00 0.82742456E+03</pdfrwt>
<pdfrwt beam="2">  1       -2 0.67826852E-01 0.82742456E+03</pdfrwt>
<totfact> 0.77806410E+00</totfact>
</mgrwt>
</event>
<event>
 4    1  0.3565372E-007  0.1184804E+04  0.7818608E-02  0.9172038E-01
          2   -1    0    0  501    0  0.00000000000E+00  0.00000000000E+00  0.27329828505E+04  0.27329828505E+04  0.25500000000E-02 0. -1.
         -2   -1    0    0    0  501 -0.00000000000E+00 -0.00000000000E+00 -0.81138185554E+03  0.81138185555E+03  0.25500000000E-02 0.  1.
    8880023    1    1    2    0    0 -0.32596550214E+03 -0.92935238676E+03  0.22093544426E+04  0.25069915490E+04  0.65864270000E+03 0.  0.
    8880022    1    1    2    0    0  0.32596550214E+03  0.92935238676E+03 -0.28775344764E+03  0.10373731571E+04  0.15294330000E+03 0.  0.
<mgrwt>
<rscale>  0 0.11346765E+04</rscale>
<asrwt>0</asrwt>
<pdfrwt beam="1">  1        2 0.42045890E+00 0.11848036E+04</pdfrwt>
<pdfrwt beam="2">  1       -2 0.12482798E+00 0.11848036E+04</pdfrwt>
<totfact> 0.12028605E+00</totfact>
</mgrwt>
</event>
<event>
 4    1  0.3565372E-007  0.7621761E+03  0.7818608E-02  0.9799506E-01
         -2   -1    0    0    0  501 -0.00000000000E+00  0.00000000000E+00  0.93393261952E+03  0.93393261952E+03  0.25500000000E-02 0.  1.
          2   -1    0    0  501    0  0.00000000000E+00 -0.00000000000E+00 -0.72443437861E+03  0.72443437861E+03  0.25500000000E-02 0. -1.
    8880023    1    1    2    0    0  0.37898295637E+03  0.58941390846E+02 -0.44642957673E+03  0.88329595381E+03  0.65864270000E+03 0. -1.
    8880022    1    1    2    0    0 -0.37898295637E+03 -0.58941390846E+02  0.65592781765E+03  0.77507104432E+03  0.15294330000E+03 0.  0.
<mgrwt>
<rscale>  0 0.65389056E+03</rscale>
<asrwt>0</asrwt>
<pdfrwt beam="1">  1        2 0.11145144E+00 0.76217608E+03</pdfrwt>
<pdfrwt beam="2">  1       -2 0.14368194E+00 0.76217608E+03</pdfrwt>
<totfact> 0.13343801E+01</totfact>
</mgrwt>
</event>
<event>
 4    1  0.3565372E-007  0.7159404E+03  0.7818608E-02  0.9936570E-01
         -2   -1    0    0    0  501 -0.00000000000E+00  0.00000000000E+00  0.61080507647E+03  0.61080507648E+03  0.25500000000E-02 0.  1.
          2   -1    0    0  501    0  0.00000000000E+00 -0.00000000000E+00 -0.92083424704E+03  0.92083424704E+03  0.25500000000E-02 0. -1.
    8880023    1    1    2    0    0 -0.15250738256E+03  0.23558844362E+03 -0.71761903997E+03  0.10136802796E+04  0.65864270000E+03 0. -1.
    8880022    1    1    2    0    0  0.15250738256E+03 -0.23558844362E+03  0.40758986941E+03  0.51795904390E+03  0.15294330000E+03 0.  0.
<mgrwt>
<rscale>  0 0.58521242E+03</rscale>
<asrwt>0</asrwt>
<pdfrwt beam="1">  1        2 0.14166681E+00 0.71594038E+03</pdfrwt>
<pdfrwt beam="2">  1       -2 0.93970012E-01 0.71594038E+03</pdfrwt>
<totfact> 0.27649867E+01</totfact>
</mgrwt>
</event>
<event>
 4    1  0.3565372E-007  0.6803636E+03  0.7818608E-02  0.1009119E+00
         -2   -1    0    0    0  501 -0.00000000000E+00  0.00000000000E+00  0.21990026688E+03  0.21990026689E+03  0.25500000000E-02 0.  1.
          2   -1    0    0  501    0  0.00000000000E+00 -0.00000000000E+00 -0.11141030282E+04  0.11141030282E+04  0.25500000000E-02 0. -1.
    8880023    1    1    2    0    0  0.16769483366E+03  0.31029869939E+02 -0.86883613941E+03  0.11035265531E+04  0.65864270000E+03 0. -1.
    8880022    1    1    2    0    0 -0.16769483366E+03 -0.31029869939E+02 -0.25366621915E+02  0.23047674196E+03  0.15294330000E+03 0.  0.
<mgrwt>
<rscale>  0 0.51826389E+03</rscale>
<asrwt>0</asrwt>
<pdfrwt beam="1">  1        2 0.17140046E+00 0.68036359E+03</pdfrwt>
<pdfrwt beam="2">  1       -2 0.33830811E-01 0.68036359E+03</pdfrwt>
<totfact> 0.17738806E+02</totfact>
</mgrwt>
</event>
<event>
 4    1  0.3565372E-007  0.6706819E+03  0.7818608E-02  0.1015179E+00
         -2   -1    0    0    0  501 -0.00000000000E+00  0.00000000000E+00  0.84658545148E+03  0.84658545149E+03  0.25500000000E-02 0.  1.
          2   -1    0    0  501    0  0.00000000000E+00 -0.00000000000E+00 -0.47116123997E+03  0.47116123998E+03  0.25500000000E-02 0. -1.
    8880023    1    1    2    0    0 -0.85898580166E+02 -0.92872928935E+02 -0.20742777024E+03  0.70202594904E+03  0.65864270000E+03 0. -1.
    8880022    1    1    2    0    0  0.85898580166E+02  0.92872928935E+02  0.58285198175E+03  0.61572074242E+03  0.15294330000E+03 0.  0.
<mgrwt>
<rscale>  0 0.49467320E+03</rscale>
<asrwt>0</asrwt>
<pdfrwt beam="1">  1        2 0.72486345E-01 0.67068186E+03</pdfrwt>
<pdfrwt beam="2">  1       -2 0.13024392E+00 0.67068186E+03</pdfrwt>
<totfact> 0.29054039E+01</totfact>
</mgrwt>
</event>
<event>
 4    1  0.3565372E-007  0.8877673E+03  0.7818608E-02  0.9545961E-01
         -2   -1    0    0    0  501 -0.00000000000E+00  0.00000000000E+00  0.23285384439E+03  0.23285384440E+03  0.25500000000E-02 0.  1.
          2   -1    0    0  501    0  0.00000000000E+00 -0.00000000000E+00 -0.24653926968E+04  0.24653926968E+04  0.25500000000E-02 0. -1.
    8880023    1    1    2    0    0  0.33298791526E+02  0.59431617953E+03 -0.11422904539E+04  0.14467059888E+04  0.65864270000E+03 0. -1.
    8880022    1    1    2    0    0 -0.33298791526E+02 -0.59431617953E+03 -0.10902483985E+04  0.12515405523E+04  0.15294330000E+03 0.  0.
<mgrwt>
<rscale>  0 0.80978453E+03</rscale>
<asrwt>0</asrwt>
<pdfrwt beam="1">  1        2 0.37929117E+00 0.88776728E+03</pdfrwt>
<pdfrwt beam="2">  1       -2 0.35823670E-01 0.88776728E+03</pdfrwt>
<totfact> 0.27352984E+01</totfact>
</mgrwt>
</event>
<event>
 4    1  0.3565372E-007  0.7272574E+03  0.7818608E-02  0.9898753E-01
         -2   -1    0    0    0  501 -0.00000000000E+00  0.00000000000E+00  0.20517227509E+03  0.20517227510E+03  0.25500000000E-02 0.  1.
          2   -1    0    0  501    0  0.00000000000E+00 -0.00000000000E+00 -0.15556934324E+04  0.15556934324E+04  0.25500000000E-02 0. -1.
    8880023    1    1    2    0    0 -0.30836673361E+03  0.17397645791E+01 -0.11552953911E+04  0.13651412807E+04  0.65864270000E+03 0. -1.
    8880022    1    1    2    0    0  0.30836673361E+03 -0.17397645791E+01 -0.19522576616E+03  0.39572442680E+03  0.15294330000E+03 0.  0.
<mgrwt>
<rscale>  0 0.60321744E+03</rscale>
<asrwt>0</asrwt>
<pdfrwt beam="1">  1        2 0.23933744E+00 0.72725737E+03</pdfrwt>
<pdfrwt beam="2">  1       -2 0.31564966E-01 0.72725737E+03</pdfrwt>
<totfact> 0.11230453E+02</totfact>
</mgrwt>
</event>
<event>
 4    1  0.3565372E-007  0.1048169E+04  0.7818608E-02  0.9321086E-01
          2   -1    0    0  501    0  0.00000000000E+00  0.00000000000E+00  0.25639077204E+04  0.25639077204E+04  0.25500000000E-02 0. -1.
         -2   -1    0    0    0  501 -0.00000000000E+00 -0.00000000000E+00 -0.41970109232E+03  0.41970109233E+03  0.25500000000E-02 0.  1.
    8880023    1    1    2    0    0  0.77673521244E+03 -0.24805354027E+03  0.18051465561E+04  0.20873936966E+04  0.65864270000E+03 0. -1.
    8880022    1    1    2    0    0 -0.77673521244E+03  0.24805354027E+03  0.33906007198E+03  0.89621511620E+03  0.15294330000E+03 0.  0.
<mgrwt>
<rscale>  0 0.98864636E+03</rscale>
<asrwt>0</asrwt>
<pdfrwt beam="1">  1        2 0.39444734E+00 0.10481690E+04</pdfrwt>
<pdfrwt beam="2">  1       -2 0.64569398E-01 0.10481690E+04</pdfrwt>
<totfact> 0.71224747E+00</totfact>
</mgrwt>
</event>
<event>
 4    1  0.3565372E-007  0.7004296E+03  0.7818608E-02  0.9995424E-01
         -2   -1    0    0    0  501 -0.00000000000E+00  0.00000000000E+00  0.39864918122E+03  0.39864918123E+03  0.25500000000E-02 0.  1.
          2   -1    0    0  501    0  0.00000000000E+00 -0.00000000000E+00 -0.80788259010E+03  0.80788259011E+03  0.25500000000E-02 0. -1.
    8880023    1    1    2    0    0  0.18290797783E+03 -0.15276144039E+03 -0.54975923329E+03  0.89041384023E+03  0.65864270000E+03 0. -1.
    8880022    1    1    2    0    0 -0.18290797783E+03  0.15276144039E+03  0.14052582440E+03  0.31611793110E+03  0.15294330000E+03 0.  0.
<mgrwt>
<rscale>  0 0.55851350E+03</rscale>
<asrwt>0</asrwt>
<pdfrwt beam="1">  1        2 0.12428963E+00 0.70042958E+03</pdfrwt>
<pdfrwt beam="2">  1       -2 0.61330644E-01 0.70042958E+03</pdfrwt>
<totfact> 0.85426193E+01</totfact>
</mgrwt>
</event>
<event>
 4    1  0.3565372E-007  0.1011651E+04  0.7818608E-02  0.9366471E-01
         -2   -1    0    0    0  501 -0.00000000000E+00  0.00000000000E+00  0.44457768014E+03  0.44457768014E+03  0.25500000000E-02 0.  1.
          2   -1    0    0  501    0  0.00000000000E+00 -0.00000000000E+00 -0.25221075366E+04  0.25221075366E+04  0.25500000000E-02 0. -1.
    8880023    1    1    2    0    0  0.45204702897E+03  0.62070989773E+03 -0.19168247775E+04  0.21674073746E+04  0.65864270000E+03 0.  0.
    8880022    1    1    2    0    0 -0.45204702897E+03 -0.62070989773E+03 -0.16070507897E+03  0.79927784216E+03  0.15294330000E+03 0.  0.
<mgrwt>
<rscale>  0 0.94887113E+03</rscale>
<asrwt>0</asrwt>
<pdfrwt beam="1">  1        2 0.38801653E+00 0.10116509E+04</pdfrwt>
<pdfrwt beam="2">  1       -2 0.68396568E-01 0.10116509E+04</pdfrwt>
<totfact> 0.66751158E+00</totfact>
</mgrwt>
</event>
<event>
 4    1  0.3565372E-007  0.6727814E+03  0.7818608E-02  0.1013743E+00
         -2   -1    0    0    0  501 -0.00000000000E+00  0.00000000000E+00  0.10140657099E+04  0.10140657099E+04  0.25500000000E-02 0.  1.
          2   -1    0    0  501    0  0.00000000000E+00 -0.00000000000E+00 -0.83915001576E+03  0.83915001577E+03  0.25500000000E-02 0. -1.
    8880023    1    1    2    0    0 -0.16843310522E+01  0.13719233531E+03 -0.69030862466E+03  0.96392986123E+03  0.65864270000E+03 0. -1.
    8880022    1    1    2    0    0  0.16843310522E+01 -0.13719233531E+03  0.86522431882E+03  0.88928586447E+03  0.15294330000E+03 0.  0.
<mgrwt>
<rscale>  0 0.50013863E+03</rscale>
<asrwt>0</asrwt>
<pdfrwt beam="1">  1        2 0.12910000E+00 0.67278138E+03</pdfrwt>
<pdfrwt beam="2">  1       -2 0.15601011E+00 0.67278138E+03</pdfrwt>
<totfact> 0.89469208E+00</totfact>
</mgrwt>
</event>
<event>
 4    1  0.3565372E-007  0.1281091E+04  0.7818608E-02  0.9082063E-01
         -2   -1    0    0    0  501 -0.00000000000E+00  0.00000000000E+00  0.17657692213E+04  0.17657692213E+04  0.25500000000E-02 0.  1.
          2   -1    0    0  501    0  0.00000000000E+00 -0.00000000000E+00 -0.15584794916E+04  0.15584794916E+04  0.25500000000E-02 0. -1.
    8880023    1    1    2    0    0  0.10601278513E+04 -0.28898746563E+03  0.12585551624E+04  0.17958719663E+04  0.65864270000E+03 0.  0.
    8880022    1    1    2    0    0 -0.10601278513E+04  0.28898746563E+03 -0.10512654327E+04  0.15283767466E+04  0.15294330000E+03 0.  0.
<mgrwt>
<rscale>  0 0.12358264E+04</rscale>
<asrwt>0</asrwt>
<pdfrwt beam="1">  1        2 0.23976608E+00 0.12810913E+04</pdfrwt>
<pdfrwt beam="2">  1       -2 0.27165680E+00 0.12810913E+04</pdfrwt>
<totfact> 0.53664853E-01</totfact>
</mgrwt>
</event>
<event>
 4    1  0.3565372E-007  0.1074788E+04  0.7818608E-02  0.9289659E-01
         -2   -1    0    0    0  501 -0.00000000000E+00  0.00000000000E+00  0.65675257508E+03  0.65675257508E+03  0.25500000000E-02 0.  1.
          2   -1    0    0  501    0  0.00000000000E+00 -0.00000000000E+00 -0.18490839397E+04  0.18490839397E+04  0.25500000000E-02 0. -1.
    8880023    1    1    2    0    0 -0.11660195282E+03 -0.84128715149E+03 -0.12406960740E+04  0.16414923213E+04  0.65864270000E+03 0. -1.
    8880022    1    1    2    0    0  0.11660195282E+03  0.84128715149E+03  0.48364709378E+02  0.86434419347E+03  0.15294330000E+03 0.  1.
<mgrwt>
<rscale>  0 0.10174046E+04</rscale>
<asrwt>0</asrwt>
<pdfrwt beam="1">  1        2 0.28447445E+00 0.10747885E+04</pdfrwt>
<pdfrwt beam="2">  1       -2 0.10103886E+00 0.10747885E+04</pdfrwt>
<totfact> 0.64684308E+00</totfact>
</mgrwt>
</event>
<event>
 4    1  0.3565372E-007  0.1150992E+04  0.7818608E-02  0.9206299E-01
          2   -1    0    0  501    0  0.00000000000E+00  0.00000000000E+00  0.25765601120E+04  0.25765601120E+04  0.25500000000E-02 0. -1.
         -2   -1    0    0    0  501 -0.00000000000E+00 -0.00000000000E+00 -0.49490301484E+03  0.49490301485E+03  0.25500000000E-02 0.  1.
    8880023    1    1    2    0    0  0.93215665359E+03 -0.14851370269E+03  0.57411076760E+03  0.12862292667E+04  0.65864270000E+03 0.  1.
    8880022    1    1    2    0    0 -0.93215665359E+03  0.14851370269E+03  0.15075463295E+04  0.17852338602E+04  0.15294330000E+03 0.  0.
<mgrwt>
<rscale>  0 0.10988644E+04</rscale>
<asrwt>0</asrwt>
<pdfrwt beam="1">  1        2 0.39639386E+00 0.11509920E+04</pdfrwt>
<pdfrwt beam="2">  1       -2 0.76138927E-01 0.11509920E+04</pdfrwt>
<totfact> 0.48181163E+00</totfact>
</mgrwt>
</event>
<event>
 4    1  0.3565372E-007  0.1057116E+04  0.7818608E-02  0.9310375E-01
         -2   -1    0    0    0  501 -0.00000000000E+00  0.00000000000E+00  0.54264159733E+03  0.54264159734E+03  0.25500000000E-02 0.  1.
          2   -1    0    0  501    0  0.00000000000E+00 -0.00000000000E+00 -0.25378173621E+04  0.25378173621E+04  0.25500000000E-02 0. -1.
    8880023    1    1    2    0    0  0.25981003191E+03  0.78497333335E+03 -0.19740932414E+04  0.22393165740E+04  0.65864270000E+03 0.  0.
    8880022    1    1    2    0    0 -0.25981003191E+03 -0.78497333335E+03 -0.21082523405E+02  0.84114238543E+03  0.15294330000E+03 0.  0.
<mgrwt>
<rscale>  0 0.99833271E+03</rscale>
<asrwt>0</asrwt>
<pdfrwt beam="1">  1        2 0.39043343E+00 0.10571162E+04</pdfrwt>
<pdfrwt beam="2">  1       -2 0.83483324E-01 0.10571162E+04</pdfrwt>
<totfact> 0.41669329E+00</totfact>
</mgrwt>
</event>
<event>
 4    1  0.3565372E-007  0.8506577E+03  0.7818608E-02  0.9610403E-01
         -2   -1    0    0    0  501 -0.00000000000E+00  0.00000000000E+00  0.52592112911E+03  0.52592112912E+03  0.25500000000E-02 0.  1.
          2   -1    0    0  501    0  0.00000000000E+00 -0.00000000000E+00 -0.20705835656E+04  0.20705835656E+04  0.25500000000E-02 0. -1.
    8880023    1    1    2    0    0  0.24305794655E+03  0.48034487865E+03 -0.17927554128E+04  0.19843362981E+04  0.65864270000E+03 0. -1.
    8880022    1    1    2    0    0 -0.24305794655E+03 -0.48034487865E+03  0.24809297631E+03  0.61216839655E+03  0.15294330000E+03 0.  0.
<mgrwt>
<rscale>  0 0.76611482E+03</rscale>
<asrwt>0</asrwt>
<pdfrwt beam="1">  1        2 0.31855131E+00 0.85065773E+03</pdfrwt>
<pdfrwt beam="2">  1       -2 0.80910944E-01 0.85065773E+03</pdfrwt>
<totfact> 0.84046168E+00</totfact>
</mgrwt>
</event>
<event>
 4    1  0.3565372E-007  0.9715028E+03  0.7818608E-02  0.9419829E-01
          2   -1    0    0  501    0  0.00000000000E+00  0.00000000000E+00  0.34472956102E+04  0.34472956102E+04  0.25500000000E-02 0. -1.
         -2   -1    0    0    0  501 -0.00000000000E+00 -0.00000000000E+00 -0.31882774627E+03  0.31882774628E+03  0.25500000000E-02 0.  1.
    8880023    1    1    2    0    0  0.71387019624E+03  0.19920210812E+02  0.61760026612E+03  0.11511940613E+04  0.65864270000E+03 0.  0.
    8880022    1    1    2    0    0 -0.71387019624E+03 -0.19920210812E+02  0.25108675978E+04  0.26149292952E+04  0.15294330000E+03 0.  0.
<mgrwt>
<rscale>  0 0.90461665E+03</rscale>
<asrwt>0</asrwt>
<pdfrwt beam="1">  1        2 0.53035316E+00 0.97150279E+03</pdfrwt>
<pdfrwt beam="2">  1       -2 0.49050423E-01 0.97150279E+03</pdfrwt>
<totfact> 0.36211849E+00</totfact>
</mgrwt>
</event>
<event>
 4    1  0.3565372E-007  0.7357202E+03  0.7818608E-02  0.9872594E-01
         -2   -1    0    0    0  501 -0.00000000000E+00  0.00000000000E+00  0.21768306632E+03  0.21768306633E+03  0.25500000000E-02 0.  1.
          2   -1    0    0  501    0  0.00000000000E+00 -0.00000000000E+00 -0.22752056714E+04  0.22752056714E+04  0.25500000000E-02 0. -1.
    8880023    1    1    2    0    0 -0.32407055154E+03  0.49520726878E+02 -0.19942631410E+04  0.21256457152E+04  0.65864270000E+03 0. -1.
    8880022    1    1    2    0    0  0.32407055154E+03 -0.49520726878E+02 -0.63259464049E+02  0.36724302250E+03  0.15294330000E+03 0.  0.
<mgrwt>
<rscale>  0 0.61608089E+03</rscale>
<asrwt>0</asrwt>
<pdfrwt beam="1">  1        2 0.35003163E+00 0.73572021E+03</pdfrwt>
<pdfrwt beam="2">  1       -2 0.33489704E-01 0.73572021E+03</pdfrwt>
<totfact> 0.40526638E+01</totfact>
</mgrwt>
</event>
<event>
 4    1  0.3565372E-007  0.7414217E+03  0.7818608E-02  0.9855825E-01
          2   -1    0    0  501    0  0.00000000000E+00  0.00000000000E+00  0.87976545074E+03  0.87976545074E+03  0.25500000000E-02 0. -1.
         -2   -1    0    0    0  501 -0.00000000000E+00 -0.00000000000E+00 -0.16400186991E+04  0.16400186991E+04  0.25500000000E-02 0.  1.
    8880023    1    1    2    0    0  0.20802365358E+03 -0.26948473322E+03  0.69572749842E+03  0.10167314396E+04  0.65864270000E+03 0.  0.
    8880022    1    1    2    0    0 -0.20802365358E+03  0.26948473322E+03 -0.14559807467E+04  0.15030527103E+04  0.15294330000E+03 0.  0.
<mgrwt>
<rscale>  0 0.62450795E+03</rscale>
<asrwt>0</asrwt>
<pdfrwt beam="1">  1        2 0.13534853E+00 0.74142165E+03</pdfrwt>
<pdfrwt beam="2">  1       -2 0.25231057E+00 0.74142165E+03</pdfrwt>
<totfact> 0.19475019E+00</totfact>
</mgrwt>
</event>
<event>
 4    1  0.3565372E-007  0.1230078E+04  0.7818608E-02  0.9128424E-01
          2   -1    0    0  501    0  0.00000000000E+00  0.00000000000E+00  0.18227348736E+04  0.18227348736E+04  0.25500000000E-02 0. -1.
         -2   -1    0    0    0  501 -0.00000000000E+00 -0.00000000000E+00 -0.10439733397E+04  0.10439733397E+04  0.25500000000E-02 0.  1.
    8880023    1    1    2    0    0 -0.66042667721E+03  0.80194721369E+03 -0.39484697653E+03  0.12918966950E+04  0.65864270000E+03 0.  0.
    8880022    1    1    2    0    0  0.66042667721E+03 -0.80194721369E+03  0.11736085104E+04  0.15748115183E+04  0.15294330000E+03 0.  0.
<mgrwt>
<rscale>  0 0.11823757E+04</rscale>
<asrwt>0</asrwt>
<pdfrwt beam="1">  1        2 0.28042075E+00 0.12300784E+04</pdfrwt>
<pdfrwt beam="2">  1       -2 0.16061128E+00 0.12300784E+04</pdfrwt>
<totfact> 0.20237993E+00</totfact>
</mgrwt>
</event>
<event>
 4    1  0.3565372E-007  0.8247902E+03  0.7818608E-02  0.9659555E-01
         -2   -1    0    0    0  501 -0.00000000000E+00  0.00000000000E+00  0.40757563469E+03  0.40757563470E+03  0.25500000000E-02 0.  1.
          2   -1    0    0  501    0  0.00000000000E+00 -0.00000000000E+00 -0.24561121376E+04  0.24561121376E+04  0.25500000000E-02 0. -1.
    8880023    1    1    2    0    0  0.47828004901E+03  0.13310471330E+03 -0.21774708204E+04  0.23284454148E+04  0.65864270000E+03 0. -1.
    8880022    1    1    2    0    0 -0.47828004901E+03 -0.13310471330E+03  0.12893431747E+03  0.53524235746E+03  0.15294330000E+03 0.  0.
<mgrwt>
<rscale>  0 0.73476760E+03</rscale>
<asrwt>0</asrwt>
<pdfrwt beam="1">  1        2 0.37786340E+00 0.82479020E+03</pdfrwt>
<pdfrwt beam="2">  1       -2 0.62703945E-01 0.82479020E+03</pdfrwt>
<totfact> 0.90096902E+00</totfact>
</mgrwt>
</event>
<event>
 4    1  0.3565372E-007  0.8264540E+03  0.7818608E-02  0.9656272E-01
          2   -1    0    0  501    0  0.00000000000E+00  0.00000000000E+00  0.12097756080E+04  0.12097756080E+04  0.25500000000E-02 0. -1.
         -2   -1    0    0    0  501 -0.00000000000E+00 -0.00000000000E+00 -0.44397365889E+03  0.44397365889E+03  0.25500000000E-02 0.  1.
    8880023    1    1    2    0    0  0.46979569879E+03 -0.16884331580E+03  0.13914454816E+03  0.83808560150E+03  0.65864270000E+03 0.  0.
    8880022    1    1    2    0    0 -0.46979569879E+03  0.16884331580E+03  0.62665740099E+03  0.81566366544E+03  0.15294330000E+03 0. -1.
<mgrwt>
<rscale>  0 0.73681133E+03</rscale>
<asrwt>0</asrwt>
<pdfrwt beam="1">  1        2 0.18611932E+00 0.82645403E+03</pdfrwt>
<pdfrwt beam="2">  1       -2 0.68303640E-01 0.82645403E+03</pdfrwt>
<totfact> 0.37053884E+01</totfact>
</mgrwt>
</event>
<event>
 4    1  0.3565372E-007  0.6678396E+03  0.7818608E-02  0.1017261E+00
          2   -1    0    0  501    0  0.00000000000E+00  0.00000000000E+00  0.12343611669E+04  0.12343611669E+04  0.25500000000E-02 0. -1.
         -2   -1    0    0    0  501 -0.00000000000E+00 -0.00000000000E+00 -0.61702913159E+03  0.61702913159E+03  0.25500000000E-02 0.  1.
    8880023    1    1    2    0    0  0.10712613104E+03  0.26899486230E+02  0.11258385656E+04  0.13090157648E+04  0.65864270000E+03 0. -1.
    8880022    1    1    2    0    0 -0.10712613104E+03 -0.26899486230E+02 -0.50850653038E+03  0.54237453366E+03  0.15294330000E+03 0.  0.
<mgrwt>
<rscale>  0 0.48688012E+03</rscale>
<asrwt>0</asrwt>
<pdfrwt beam="1">  1        2 0.18990171E+00 0.66783965E+03</pdfrwt>
<pdfrwt beam="2">  1       -2 0.94927560E-01 0.66783965E+03</pdfrwt>
<totfact> 0.17378465E+01</totfact>
</mgrwt>
</event>
<event>
 4    1  0.3565372E-007  0.7487487E+03  0.7818608E-02  0.9835158E-01
          2   -1    0    0  501    0  0.00000000000E+00  0.00000000000E+00  0.38948678690E+04  0.38948678690E+04  0.25500000000E-02 0. -1.
         -2   -1    0    0    0  501 -0.00000000000E+00 -0.00000000000E+00 -0.13495660177E+03  0.13495660179E+03  0.25500000000E-02 0.  1.
    8880023    1    1    2    0    0 -0.34890975824E+03 -0.71249088834E+02  0.34591291423E+04  0.35392370762E+04  0.65864270000E+03 0. -1.
    8880022    1    1    2    0    0  0.34890975824E+03  0.71249088834E+02  0.30078212491E+03  0.49058739459E+03  0.15294330000E+03 0.  0.
<mgrwt>
<rscale>  0 0.63509402E+03</rscale>
<asrwt>0</asrwt>
<pdfrwt beam="1">  1        2 0.59921043E+00 0.74874873E+03</pdfrwt>
<pdfrwt beam="2">  1       -2 0.20762555E-01 0.74874873E+03</pdfrwt>
<totfact> 0.90941076E+00</totfact>
</mgrwt>
</event>
<event>
 4    1  0.3565372E-007  0.8640669E+03  0.7818608E-02  0.9586370E-01
         -2   -1    0    0    0  501 -0.00000000000E+00  0.00000000000E+00  0.27828779570E+03  0.27828779572E+03  0.25500000000E-02 0.  1.
          2   -1    0    0  501    0  0.00000000000E+00 -0.00000000000E+00 -0.21714573670E+04  0.21714573670E+04  0.25500000000E-02 0. -1.
    8880023    1    1    2    0    0 -0.18646042712E+02 -0.55897552741E+03 -0.15538398129E+04  0.17779284815E+04  0.65864270000E+03 0.  0.
    8880022    1    1    2    0    0  0.18646042712E+02  0.55897552741E+03 -0.33932975844E+03  0.67181668119E+03  0.15294330000E+03 0.  0.
<mgrwt>
<rscale>  0 0.78204922E+03</rscale>
<asrwt>0</asrwt>
<pdfrwt beam="1">  1        2 0.33407035E+00 0.86406685E+03</pdfrwt>
<pdfrwt beam="2">  1       -2 0.42813508E-01 0.86406685E+03</pdfrwt>
<totfact> 0.28307467E+01</totfact>
</mgrwt>
</event>
<event>
 4    1  0.3565372E-007  0.2000662E+04  0.7818608E-02  0.8618974E-01
         -2   -1    0    0    0  501 -0.00000000000E+00  0.00000000000E+00  0.29628478675E+04  0.29628478675E+04  0.25500000000E-02 0.  1.
          2   -1    0    0  501    0  0.00000000000E+00 -0.00000000000E+00 -0.18309107455E+04  0.18309107455E+04  0.25500000000E-02 0. -1.
    8880023    1    1    2    0    0  0.17754939074E+04  0.64533770117E+03 -0.73687617545E+03  0.21320497339E+04  0.65864270000E+03 0.  0.
    8880022    1    1    2    0    0 -0.17754939074E+04 -0.64533770117E+03  0.18688132974E+04  0.26617088791E+04  0.15294330000E+03 0.  0.
<mgrwt>
<rscale>  0 0.19737897E+04</rscale>
<asrwt>0</asrwt>
<pdfrwt beam="1">  1        2 0.28167858E+00 0.20006623E+04</pdfrwt>
<pdfrwt beam="2">  1       -2 0.45582275E+00 0.20006623E+04</pdfrwt>
<totfact> 0.23297689E-02</totfact>
</mgrwt>
</event>
<event>
 4    1  0.3565372E-007  0.6768576E+03  0.7818608E-02  0.1011160E+00
          2   -1    0    0  501    0  0.00000000000E+00  0.00000000000E+00  0.93232778474E+03  0.93232778474E+03  0.25500000000E-02 0. -1.
         -2   -1    0    0    0  501 -0.00000000000E+00 -0.00000000000E+00 -0.30275241502E+03  0.30275241504E+03  0.25500000000E-02 0.  1.
    8880023    1    1    2    0    0 -0.15104022001E+03  0.38895422910E+02  0.72926070047E+03  0.99496601826E+03  0.65864270000E+03 0. -1.
    8880022    1    1    2    0    0  0.15104022001E+03 -0.38895422910E+02 -0.99685330755E+02  0.24011418152E+03  0.15294330000E+03 0.  0.
<mgrwt>
<rscale>  0 0.51016172E+03</rscale>
<asrwt>0</asrwt>
<pdfrwt beam="1">  1        2 0.14343504E+00 0.67685760E+03</pdfrwt>
<pdfrwt beam="2">  1       -2 0.46577295E-01 0.67685760E+03</pdfrwt>
<totfact> 0.12401309E+02</totfact>
</mgrwt>
</event>
<event>
 4    1  0.3565372E-007  0.6615168E+03  0.7818608E-02  0.1022654E+00
          2   -1    0    0  501    0  0.00000000000E+00  0.00000000000E+00  0.12652807059E+04  0.12652807059E+04  0.25500000000E-02 0. -1.
         -2   -1    0    0    0  501 -0.00000000000E+00 -0.00000000000E+00 -0.26513277887E+03  0.26513277889E+03  0.25500000000E-02 0.  1.
    8880023    1    1    2    0    0 -0.13977839954E+02 -0.59990673258E+02  0.11374657894E+04  0.13158392338E+04  0.65864270000E+03 0. -1.
    8880022    1    1    2    0    0  0.13977839954E+02  0.59990673258E+02 -0.13731786231E+03  0.21457425105E+03  0.15294330000E+03 0.  0.
<mgrwt>
<rscale>  0 0.46741070E+03</rscale>
<asrwt>0</asrwt>
<pdfrwt beam="1">  1        2 0.19465857E+00 0.66151679E+03</pdfrwt>
<pdfrwt beam="2">  1       -2 0.40789658E-01 0.66151679E+03</pdfrwt>
<totfact> 0.10093458E+02</totfact>
</mgrwt>
</event>
<event>
 4    1  0.3565372E-007  0.7558710E+03  0.7818608E-02  0.9815917E-01
         -2   -1    0    0    0  501 -0.00000000000E+00  0.00000000000E+00  0.30458537326E+03  0.30458537327E+03  0.25500000000E-02 0.  1.
          2   -1    0    0  501    0  0.00000000000E+00 -0.00000000000E+00 -0.11032915740E+04  0.11032915740E+04  0.25500000000E-02 0. -1.
    8880023    1    1    2    0    0  0.29935832025E+03 -0.21889579041E+03 -0.56409814955E+03  0.94315836398E+03  0.65864270000E+03 0. -1.
    8880022    1    1    2    0    0 -0.29935832025E+03  0.21889579041E+03 -0.23460805118E+03  0.46471858329E+03  0.15294330000E+03 0.  1.
<mgrwt>
<rscale>  0 0.64515317E+03</rscale>
<asrwt>0</asrwt>
<pdfrwt beam="1">  1        2 0.16973716E+00 0.75587101E+03</pdfrwt>
<pdfrwt beam="2">  1       -2 0.46859289E-01 0.75587101E+03</pdfrwt>
<totfact> 0.94930688E+01</totfact>
</mgrwt>
</event>
<event>
 4    1  0.3565372E-007  0.9362180E+03  0.7818608E-02  0.9470227E-01
          2   -1    0    0  501    0  0.00000000000E+00  0.00000000000E+00  0.14898485624E+04  0.14898485624E+04  0.25500000000E-02 0. -1.
         -2   -1    0    0    0  501 -0.00000000000E+00 -0.00000000000E+00 -0.59419780216E+03  0.59419780217E+03  0.25500000000E-02 0.  1.
    8880023    1    1    2    0    0 -0.66345061477E+03  0.50271465031E+02  0.10260647841E+04  0.13889971511E+04  0.65864270000E+03 0. -1.
    8880022    1    1    2    0    0  0.66345061477E+03 -0.50271465031E+02 -0.13041402386E+03  0.69504921342E+03  0.15294330000E+03 0.  0.
<mgrwt>
<rscale>  0 0.86514908E+03</rscale>
<asrwt>0</asrwt>
<pdfrwt beam="1">  1        2 0.22920747E+00 0.93621800E+03</pdfrwt>
<pdfrwt beam="2">  1       -2 0.91415047E-01 0.93621800E+03</pdfrwt>
<totfact> 0.13143816E+01</totfact>
</mgrwt>
</event>
<event>
 4    1  0.3565372E-007  0.8353267E+03  0.7818608E-02  0.9639056E-01
          2   -1    0    0  501    0  0.00000000000E+00  0.00000000000E+00  0.20298371477E+04  0.20298371477E+04  0.25500000000E-02 0. -1.
         -2   -1    0    0    0  501 -0.00000000000E+00 -0.00000000000E+00 -0.27585917046E+03  0.27585917047E+03  0.25500000000E-02 0.  1.
    8880023    1    1    2    0    0  0.53430624245E+02  0.51098500429E+03  0.14899846184E+04  0.17081641829E+04  0.65864270000E+03 0.  0.
    8880022    1    1    2    0    0 -0.53430624245E+02 -0.51098500429E+03  0.26399335882E+03  0.59753213532E+03  0.15294330000E+03 0.  0.
<mgrwt>
<rscale>  0 0.74764268E+03</rscale>
<asrwt>0</asrwt>
<pdfrwt beam="1">  1        2 0.31228263E+00 0.83532671E+03</pdfrwt>
<pdfrwt beam="2">  1       -2 0.42439873E-01 0.83532671E+03</pdfrwt>
<totfact> 0.34579737E+01</totfact>
</mgrwt>
</event>
<event>
 4    1  0.3565372E-007  0.6809751E+03  0.7818608E-02  0.1008777E+00
          2   -1    0    0  501    0  0.00000000000E+00  0.00000000000E+00  0.11603839605E+04  0.11603839605E+04  0.25500000000E-02 0. -1.
         -2   -1    0    0    0  501 -0.00000000000E+00 -0.00000000000E+00 -0.11566137688E+04  0.11566137688E+04  0.25500000000E-02 0.  1.
    8880023    1    1    2    0    0 -0.16301961451E+03 -0.57805847108E+02  0.10467517723E+04  0.12487659467E+04  0.65864270000E+03 0. -1.
    8880022    1    1    2    0    0  0.16301961451E+03  0.57805847108E+02 -0.10429815807E+04  0.10682317826E+04  0.15294330000E+03 0.  0.
<mgrwt>
<rscale>  0 0.51963460E+03</rscale>
<asrwt>0</asrwt>
<pdfrwt beam="1">  1        2 0.17852061E+00 0.68097512E+03</pdfrwt>
<pdfrwt beam="2">  1       -2 0.17794058E+00 0.68097512E+03</pdfrwt>
<totfact> 0.38789448E+00</totfact>
</mgrwt>
</event>
<event>
 4    1  0.3565372E-007  0.7139753E+03  0.7818608E-02  0.9943525E-01
         -2   -1    0    0    0  501 -0.00000000000E+00  0.00000000000E+00  0.14910154379E+03  0.14910154382E+03  0.25500000000E-02 0.  1.
          2   -1    0    0  501    0  0.00000000000E+00 -0.00000000000E+00 -0.21588807771E+04  0.21588807771E+04  0.25500000000E-02 0. -1.
    8880023    1    1    2    0    0  0.13297628655E+03 -0.24138743008E+03 -0.17802267847E+04  0.19180636578E+04  0.65864270000E+03 0.  1.
    8880022    1    1    2    0    0 -0.13297628655E+03  0.24138743008E+03 -0.22955244868E+03  0.38991866318E+03  0.15294330000E+03 0.  0.
<mgrwt>
<rscale>  0 0.58197476E+03</rscale>
<asrwt>0</asrwt>
<pdfrwt beam="1">  1        2 0.33213548E+00 0.71397534E+03</pdfrwt>
<pdfrwt beam="2">  1       -2 0.22938701E-01 0.71397534E+03</pdfrwt>
<totfact> 0.94252707E+01</totfact>
</mgrwt>
</event>
<event>
 4    1  0.4315049E-007  0.7454289E+03  0.7818608E-02  0.9844406E-01
          2   -1    0    0  501    0  0.00000000000E+00  0.00000000000E+00  0.17512439770E+04  0.17512439770E+04  0.25500000000E-02 0. -1.
         -2   -1    0    0    0  501 -0.00000000000E+00 -0.00000000000E+00 -0.10141879487E+04  0.10141879487E+04  0.25500000000E-02 0.  1.
    8880023    1    1    2    0    0  0.33526360555E+03 -0.97222978529E+02  0.16312005031E+04  0.17934545660E+04  0.65864270000E+03 0. -1.
    8880022    1    1    2    0    0 -0.33526360555E+03  0.97222978529E+02 -0.89414447480E+03  0.97197735961E+03  0.15294330000E+03 0.  0.
<mgrwt>
<rscale>  0 0.63032937E+03</rscale>
<asrwt>0</asrwt>
<pdfrwt beam="1">  1        2 0.26942215E+00 0.74542887E+03</pdfrwt>
<pdfrwt beam="2">  1       -2 0.15602892E+00 0.74542887E+03</pdfrwt>
<totfact> 0.25589077E+00</totfact>
</mgrwt>
</event>
<event>
 4    1  0.3565372E-007  0.8575598E+03  0.7818608E-02  0.9597919E-01
         -2   -1    0    0    0  501 -0.00000000000E+00  0.00000000000E+00  0.73486334271E+03  0.73486334271E+03  0.25500000000E-02 0.  1.
          2   -1    0    0  501    0  0.00000000000E+00 -0.00000000000E+00 -0.18612007130E+04  0.18612007130E+04  0.25500000000E-02 0. -1.
    8880023    1    1    2    0    0 -0.40536929938E+03 -0.37050549195E+03 -0.16258200610E+04  0.18381239527E+04  0.65864270000E+03 0.  0.
    8880022    1    1    2    0    0  0.40536929938E+03  0.37050549195E+03  0.49948269070E+03  0.75794010303E+03  0.15294330000E+03 0.  0.
<mgrwt>
<rscale>  0 0.77434072E+03</rscale>
<asrwt>0</asrwt>
<pdfrwt beam="1">  1        2 0.28633857E+00 0.85755979E+03</pdfrwt>
<pdfrwt beam="2">  1       -2 0.11305590E+00 0.85755979E+03</pdfrwt>
<totfact> 0.49847670E+00</totfact>
</mgrwt>
</event>
<event>
 4    1  0.3565372E-007  0.1088711E+04  0.7818608E-02  0.9273730E-01
         -2   -1    0    0    0  501 -0.00000000000E+00  0.00000000000E+00  0.28489280642E+04  0.28489280642E+04  0.25500000000E-02 0.  1.
          2   -1    0    0  501    0  0.00000000000E+00 -0.00000000000E+00 -0.90530246315E+03  0.90530246316E+03  0.25500000000E-02 0. -1.
    8880023    1    1    2    0    0 -0.14227404618E+03 -0.85512599045E+03 -0.46944900009E+03  0.11856116285E+04  0.65864270000E+03 0. -1.
    8880022    1    1    2    0    0  0.14227404618E+03  0.85512599045E+03  0.24130746011E+04  0.25686188988E+04  0.15294330000E+03 0.  0.
<mgrwt>
<rscale>  0 0.10323774E+04</rscale>
<asrwt>0</asrwt>
<pdfrwt beam="1">  1        2 0.13927730E+00 0.10887114E+04</pdfrwt>
<pdfrwt beam="2">  1       -2 0.43829662E+00 0.10887114E+04</pdfrwt>
<totfact> 0.12106440E-01</totfact>
</mgrwt>
</event>
<event>
 4    1  0.3565372E-007  0.7266322E+03  0.7818608E-02  0.9900752E-01
          2   -1    0    0  501    0  0.00000000000E+00  0.00000000000E+00  0.92845505391E+03  0.92845505391E+03  0.25500000000E-02 0. -1.
         -2   -1    0    0    0  501 -0.00000000000E+00 -0.00000000000E+00 -0.56224836604E+03  0.56224836605E+03  0.25500000000E-02 0.  1.
    8880023    1    1    2    0    0 -0.28793676444E+03  0.10619092439E+03  0.70230665085E+03  0.10105587221E+04  0.65864270000E+03 0. -1.
    8880022    1    1    2    0    0  0.28793676444E+03 -0.10619092439E+03 -0.33609996299E+03  0.48014469785E+03  0.15294330000E+03 0.  0.
<mgrwt>
<rscale>  0 0.60224844E+03</rscale>
<asrwt>0</asrwt>
<pdfrwt beam="1">  1        2 0.14283924E+00 0.72663216E+03</pdfrwt>
<pdfrwt beam="2">  1       -2 0.86499749E-01 0.72663216E+03</pdfrwt>
<totfact> 0.33051568E+01</totfact>
</mgrwt>
</event>
<event>
 4    1  0.3565372E-007  0.7925229E+03  0.7818608E-02  0.9727202E-01
         -2   -1    0    0    0  501 -0.00000000000E+00  0.00000000000E+00  0.30808057713E+03  0.30808057714E+03  0.25500000000E-02 0.  1.
          2   -1    0    0  501    0  0.00000000000E+00 -0.00000000000E+00 -0.16131214272E+04  0.16131214272E+04  0.25500000000E-02 0. -1.
    8880023    1    1    2    0    0 -0.42644235879E+03 -0.11148672874E+03 -0.12078302953E+04  0.14446268046E+04  0.65864270000E+03 0.  0.
    8880022    1    1    2    0    0  0.42644235879E+03  0.11148672874E+03 -0.97210554814E+02  0.47657519977E+03  0.15294330000E+03 0.  0.
<mgrwt>
<rscale>  0 0.69420015E+03</rscale>
<asrwt>0</asrwt>
<pdfrwt beam="1">  1        2 0.24817252E+00 0.79252292E+03</pdfrwt>
<pdfrwt beam="2">  1       -2 0.47397013E-01 0.79252292E+03</pdfrwt>
<totfact> 0.47138228E+01</totfact>
</mgrwt>
</event>
<event>
 4    1  0.3565372E-007  0.7867983E+03  0.7818608E-02  0.9740103E-01
          2   -1    0    0  501    0  0.00000000000E+00  0.00000000000E+00  0.27722146374E+04  0.27722146374E+04  0.25500000000E-02 0. -1.
         -2   -1    0    0    0  501 -0.00000000000E+00 -0.00000000000E+00 -0.41887861224E+03  0.41887861225E+03  0.25500000000E-02 0.  1.
    8880023    1    1    2    0    0  0.33567085896E+03 -0.26938158746E+03  0.25684146479E+04  0.26862251162E+04  0.65864270000E+03 0.  0.
    8880022    1    1    2    0    0 -0.33567085896E+03  0.26938158746E+03 -0.21507862272E+03  0.50486813346E+03  0.15294330000E+03 0.  0.
<mgrwt>
<rscale>  0 0.68678443E+03</rscale>
<asrwt>0</asrwt>
<pdfrwt beam="1">  1        2 0.42649456E+00 0.78679830E+03</pdfrwt>
<pdfrwt beam="2">  1       -2 0.64442863E-01 0.78679830E+03</pdfrwt>
<totfact> 0.56190146E+00</totfact>
</mgrwt>
</event>
<event>
 4    1  0.3565372E-007  0.9458502E+03  0.7818608E-02  0.9456110E-01
          2   -1    0    0  501    0  0.00000000000E+00  0.00000000000E+00  0.23782970337E+04  0.23782970337E+04  0.25500000000E-02 0. -1.
         -2   -1    0    0    0  501 -0.00000000000E+00 -0.00000000000E+00 -0.35867703629E+03  0.35867703629E+03  0.25500000000E-02 0.  1.
    8880023    1    1    2    0    0 -0.83331189997E+02  0.67370488130E+03  0.50974238104E+03  0.10744625892E+04  0.65864270000E+03 0.  0.
    8880022    1    1    2    0    0  0.83331189997E+02 -0.67370488130E+03  0.15098776163E+04  0.16625114808E+04  0.15294330000E+03 0.  0.
<mgrwt>
<rscale>  0 0.87598452E+03</rscale>
<asrwt>0</asrwt>
<pdfrwt beam="1">  1        2 0.36589186E+00 0.94585018E+03</pdfrwt>
<pdfrwt beam="2">  1       -2 0.55181081E-01 0.94585018E+03</pdfrwt>
<totfact> 0.12838363E+01</totfact>
</mgrwt>
</event>
<event>
 4    1  0.3565372E-007  0.7653772E+03  0.7818608E-02  0.9791380E-01
          2   -1    0    0  501    0  0.00000000000E+00  0.00000000000E+00  0.27444612627E+04  0.27444612627E+04  0.25500000000E-02 0. -1.
         -2   -1    0    0    0  501 -0.00000000000E+00 -0.00000000000E+00 -0.19382764227E+03  0.19382764229E+03  0.25500000000E-02 0.  1.
    8880023    1    1    2    0    0  0.29854488081E+03 -0.25072499187E+03  0.23546333466E+04  0.24759039703E+04  0.65864270000E+03 0. -1.
    8880022    1    1    2    0    0 -0.29854488081E+03  0.25072499187E+03  0.19600027385E+03  0.46238493462E+03  0.15294330000E+03 0.  0.
<mgrwt>
<rscale>  0 0.65827188E+03</rscale>
<asrwt>0</asrwt>
<pdfrwt beam="1">  1        2 0.42222478E+00 0.76537721E+03</pdfrwt>
<pdfrwt beam="2">  1       -2 0.29819639E-01 0.76537721E+03</pdfrwt>
<totfact> 0.27134920E+01</totfact>
</mgrwt>
</event>
<event>
 4    1  0.3565372E-007  0.6881786E+03  0.7818608E-02  0.1005031E+00
          2   -1    0    0  501    0  0.00000000000E+00  0.00000000000E+00  0.89269886591E+03  0.89269886591E+03  0.25500000000E-02 0. -1.
         -2   -1    0    0    0  501 -0.00000000000E+00 -0.00000000000E+00 -0.27411115279E+03  0.27411115281E+03  0.25500000000E-02 0.  1.
    8880023    1    1    2    0    0  0.19939224122E+03 -0.47236063618E+01  0.60300429665E+03  0.91498850613E+03  0.65864270000E+03 0. -1.
    8880022    1    1    2    0    0 -0.19939224122E+03  0.47236063618E+01  0.15583416464E+02  0.25182151258E+03  0.15294330000E+03 0.  1.
<mgrwt>
<rscale>  0 0.53498400E+03</rscale>
<asrwt>0</asrwt>
<pdfrwt beam="1">  1        2 0.13733829E+00 0.68817860E+03</pdfrwt>
<pdfrwt beam="2">  1       -2 0.42170947E-01 0.68817860E+03</pdfrwt>
<totfact> 0.16040134E+02</totfact>
</mgrwt>
</event>
<event>
 4    1  0.3565372E-007  0.1708624E+04  0.7818608E-02  0.8774841E-01
          2   -1    0    0  501    0  0.00000000000E+00  0.00000000000E+00  0.44386709143E+04  0.44386709143E+04  0.25500000000E-02 0. -1.
         -2   -1    0    0    0  501 -0.00000000000E+00 -0.00000000000E+00 -0.62225162600E+03  0.62225162601E+03  0.25500000000E-02 0.  1.
    8880023    1    1    2    0    0  0.15579143146E+04  0.24184105563E+03  0.23249589409E+04  0.28852778706E+04  0.65864270000E+03 0.  0.
    8880022    1    1    2    0    0 -0.15579143146E+04 -0.24184105563E+03  0.14914603474E+04  0.21756446697E+04  0.15294330000E+03 0.  0.
<mgrwt>
<rscale>  0 0.16765706E+04</rscale>
<asrwt>0</asrwt>
<pdfrwt beam="1">  1        2 0.68287247E+00 0.17086235E+04</pdfrwt>
<pdfrwt beam="2">  1       -2 0.95731016E-01 0.17086235E+04</pdfrwt>
<totfact> 0.12310789E-01</totfact>
</mgrwt>
</event>
<event>
 4    1  0.3565372E-007  0.6631820E+03  0.7818608E-02  0.1021110E+00
         -2   -1    0    0    0  501 -0.00000000000E+00  0.00000000000E+00  0.51052405062E+03  0.51052405063E+03  0.25500000000E-02 0.  1.
          2   -1    0    0  501    0  0.00000000000E+00 -0.00000000000E+00 -0.46782791032E+03  0.46782791033E+03  0.25500000000E-02 0. -1.
    8880023    1    1    2    0    0 -0.40478620186E+02  0.66043176388E+02 -0.18949768875E+03  0.68972443783E+03  0.65864270000E+03 0. -1.
    8880022    1    1    2    0    0  0.40478620186E+02 -0.66043176388E+02  0.23219382905E+03  0.28862752312E+03  0.15294330000E+03 0.  0.
<mgrwt>
<rscale>  0 0.47288221E+03</rscale>
<asrwt>0</asrwt>
<pdfrwt beam="1">  1        2 0.71973525E-01 0.66318205E+03</pdfrwt>
<pdfrwt beam="2">  1       -2 0.78542161E-01 0.66318205E+03</pdfrwt>
<totfact> 0.97329863E+01</totfact>
</mgrwt>
</event>
<event>
 4    1  0.3565372E-007  0.6618129E+03  0.7818608E-02  0.1022371E+00
          2   -1    0    0  501    0  0.00000000000E+00  0.00000000000E+00  0.36411812769E+04  0.36411812769E+04  0.25500000000E-02 0. -1.
         -2   -1    0    0    0  501 -0.00000000000E+00 -0.00000000000E+00 -0.67656970918E+02  0.67656970966E+02  0.25500000000E-02 0.  1.
    8880023    1    1    2    0    0 -0.40824886764E+02  0.50194395668E+02  0.34174460842E+04  0.34809386800E+04  0.65864270000E+03 0. -1.
    8880022    1    1    2    0    0  0.40824886764E+02 -0.50194395668E+02  0.15607822177E+03  0.22789956793E+03  0.15294330000E+03 0.  0.
<mgrwt>
<rscale>  0 0.46840486E+03</rscale>
<asrwt>0</asrwt>
<pdfrwt beam="1">  1        2 0.56018184E+00 0.66181293E+03</pdfrwt>
<pdfrwt beam="2">  1       -2 0.10408763E-01 0.66181293E+03</pdfrwt>
<totfact> 0.45546648E+01</totfact>
</mgrwt>
</event>
<event>
 4    1  0.3565372E-007  0.8037172E+03  0.7818608E-02  0.9702816E-01
         -2   -1    0    0    0  501 -0.00000000000E+00  0.00000000000E+00  0.10192235486E+04  0.10192235486E+04  0.25500000000E-02 0.  1.
          2   -1    0    0  501    0  0.00000000000E+00 -0.00000000000E+00 -0.14205500799E+04  0.14205500799E+04  0.25500000000E-02 0. -1.
    8880023    1    1    2    0    0 -0.44932050666E+03  0.10130291728E+03 -0.12359553572E+04  0.14742954419E+04  0.65864270000E+03 0. -1.
    8880022    1    1    2    0    0  0.44932050666E+03 -0.10130291728E+03  0.83462882587E+03  0.96547818657E+03  0.15294330000E+03 0.  0.
<mgrwt>
<rscale>  0 0.70849405E+03</rscale>
<asrwt>0</asrwt>
<pdfrwt beam="1">  1        2 0.21854617E+00 0.80371724E+03</pdfrwt>
<pdfrwt beam="2">  1       -2 0.15680362E+00 0.80371724E+03</pdfrwt>
<totfact> 0.38128540E+00</totfact>
</mgrwt>
</event>
<event>
 4    1  0.3565372E-007  0.7431431E+03  0.7818608E-02  0.9850884E-01
          2   -1    0    0  501    0  0.00000000000E+00  0.00000000000E+00  0.14976336730E+04  0.14976336730E+04  0.25500000000E-02 0. -1.
         -2   -1    0    0    0  501 -0.00000000000E+00 -0.00000000000E+00 -0.28711593438E+03  0.28711593439E+03  0.25500000000E-02 0.  1.
    8880023    1    1    2    0    0  0.15359246307E+03 -0.30799491404E+03  0.11957202747E+04  0.14078383051E+04  0.65864270000E+03 0. -1.
    8880022    1    1    2    0    0 -0.15359246307E+03  0.30799491404E+03  0.14797463873E+02  0.37691130221E+03  0.15294330000E+03 0.  0.
<mgrwt>
<rscale>  0 0.62701857E+03</rscale>
<asrwt>0</asrwt>
<pdfrwt beam="1">  1        2 0.23040518E+00 0.74314313E+03</pdfrwt>
<pdfrwt beam="2">  1       -2 0.44171682E-01 0.74314313E+03</pdfrwt>
<totfact> 0.63210070E+01</totfact>
</mgrwt>
</event>
<event>
 4    1  0.3565372E-007  0.7478316E+03  0.7818608E-02  0.9837695E-01
         -2   -1    0    0    0  501 -0.00000000000E+00  0.00000000000E+00  0.13563360063E+04  0.13563360064E+04  0.25500000000E-02 0.  1.
          2   -1    0    0  501    0  0.00000000000E+00 -0.00000000000E+00 -0.54002609186E+03  0.54002609186E+03  0.25500000000E-02 0. -1.
    8880023    1    1    2    0    0  0.29367071428E+03 -0.19798839986E+03 -0.22902026024E+03  0.78211404588E+03  0.65864270000E+03 0. -1.
    8880022    1    1    2    0    0 -0.29367071428E+03  0.19798839986E+03  0.10453301747E+04  0.11142480523E+04  0.15294330000E+03 0.  0.
<mgrwt>
<rscale>  0 0.63378282E+03</rscale>
<asrwt>0</asrwt>
<pdfrwt beam="1">  1        2 0.83080939E-01 0.74783160E+03</pdfrwt>
<pdfrwt beam="2">  1       -2 0.20866707E+00 0.74783160E+03</pdfrwt>
<totfact> 0.67111557E+00</totfact>
</mgrwt>
</event>
<event>
 4    1  0.5822162E-007  0.6629079E+03  0.7818608E-02  0.1021357E+00
         -2   -1    0    0    0  501 -0.00000000000E+00  0.00000000000E+00  0.10404833948E+04  0.10404833948E+04  0.25500000000E-02 0.  1.
          2   -1    0    0  501    0  0.00000000000E+00 -0.00000000000E+00 -0.28587383380E+04  0.28587383380E+04  0.25500000000E-02 0. -1.
    8880023    1    1    2    0    0  0.38784916207E+02  0.64284124695E+02 -0.28129676496E+04  0.28900231698E+04  0.65864270000E+03 0. -1.
    8880022    1    1    2    0    0 -0.38784916207E+02 -0.64284124695E+02  0.99471270631E+03  0.10091985630E+04  0.15294330000E+03 0.  0.
<mgrwt>
<rscale>  0 0.47200081E+03</rscale>
<asrwt>0</asrwt>
<pdfrwt beam="1">  1        2 0.43980589E+00 0.66290793E+03</pdfrwt>
<pdfrwt beam="2">  1       -2 0.16007437E+00 0.66290793E+03</pdfrwt>
<totfact> 0.58350312E-01</totfact>
</mgrwt>
</event>
<event>
 4    1  0.3565372E-007  0.7762328E+03  0.7818608E-02  0.9764762E-01
         -2   -1    0    0    0  501 -0.00000000000E+00  0.00000000000E+00  0.18555646896E+04  0.18555646896E+04  0.25500000000E-02 0.  1.
          2   -1    0    0  501    0  0.00000000000E+00 -0.00000000000E+00 -0.40961272380E+03  0.40961272381E+03  0.25500000000E-02 0. -1.
    8880023    1    1    2    0    0  0.24261942545E+03 -0.33145592441E+03  0.23351722539E+02  0.77658401003E+03  0.65864270000E+03 0. -1.
    8880022    1    1    2    0    0 -0.24261942545E+03  0.33145592441E+03  0.14226002433E+04  0.14885934034E+04  0.15294330000E+03 0.  0.
<mgrwt>
<rscale>  0 0.67288409E+03</rscale>
<asrwt>0</asrwt>
<pdfrwt beam="1">  1        2 0.63017341E-01 0.77623284E+03</pdfrwt>
<pdfrwt beam="2">  1       -2 0.28547149E+00 0.77623284E+03</pdfrwt>
<totfact> 0.31192192E+00</totfact>
</mgrwt>
</event>
<event>
 4    1  0.3565372E-007  0.6617869E+03  0.7818608E-02  0.1022396E+00
          2   -1    0    0  501    0  0.00000000000E+00  0.00000000000E+00  0.16433900141E+04  0.16433900141E+04  0.25500000000E-02 0. -1.
         -2   -1    0    0    0  501 -0.00000000000E+00 -0.00000000000E+00 -0.11442232075E+03  0.11442232078E+03  0.25500000000E-02 0.  1.
    8880023    1    1    2    0    0 -0.40746302104E+02 -0.49914741880E+02  0.13968347878E+04  0.15456744072E+04  0.65864270000E+03 0. -1.
    8880022    1    1    2    0    0  0.40746302104E+02  0.49914741880E+02  0.13213290556E+03  0.21213792763E+03  0.15294330000E+03 0.  0.
<mgrwt>
<rscale>  0 0.46831798E+03</rscale>
<asrwt>0</asrwt>
<pdfrwt beam="1">  1        2 0.25282924E+00 0.66178694E+03</pdfrwt>
<pdfrwt beam="2">  1       -2 0.17603434E-01 0.66178694E+03</pdfrwt>
<totfact> 0.28741639E+02</totfact>
</mgrwt>
</event>
<event>
 4    1  0.3565372E-007  0.7691409E+03  0.7818608E-02  0.9781993E-01
         -2   -1    0    0    0  501 -0.00000000000E+00  0.00000000000E+00  0.54279123788E+03  0.54279123788E+03  0.25500000000E-02 0.  1.
          2   -1    0    0  501    0  0.00000000000E+00 -0.00000000000E+00 -0.88106879227E+03  0.88106879227E+03  0.25500000000E-02 0. -1.
    8880023    1    1    2    0    0 -0.33895794775E+03  0.20706280989E+03 -0.55283751939E+03  0.94721012805E+03  0.65864270000E+03 0.  0.
    8880022    1    1    2    0    0  0.33895794775E+03 -0.20706280989E+03  0.21455996500E+03  0.47664990210E+03  0.15294330000E+03 0.  0.
<mgrwt>
<rscale>  0 0.66337937E+03</rscale>
<asrwt>0</asrwt>
<pdfrwt beam="1">  1        2 0.13554904E+00 0.76914089E+03</pdfrwt>
<pdfrwt beam="2">  1       -2 0.83506345E-01 0.76914089E+03</pdfrwt>
<totfact> 0.38384800E+01</totfact>
</mgrwt>
</event>
<event>
 4    1  0.3565372E-007  0.6904031E+03  0.7818608E-02  0.1003962E+00
         -2   -1    0    0    0  501 -0.00000000000E+00  0.00000000000E+00  0.32969764974E+03  0.32969764975E+03  0.25500000000E-02 0.  1.
          2   -1    0    0  501    0  0.00000000000E+00 -0.00000000000E+00 -0.17045286757E+04  0.17045286757E+04  0.25500000000E-02 0. -1.
    8880023    1    1    2    0    0 -0.18130994493E+03 -0.99864705494E+02 -0.15674488743E+04  0.17127616400E+04  0.65864270000E+03 0. -1.
    8880022    1    1    2    0    0  0.18130994493E+03  0.99864705494E+02  0.19261784831E+03  0.32146468552E+03  0.15294330000E+03 0.  0.
<mgrwt>
<rscale>  0 0.53946762E+03</rscale>
<asrwt>0</asrwt>
<pdfrwt beam="1">  1        2 0.26223518E+00 0.69040312E+03</pdfrwt>
<pdfrwt beam="2">  1       -2 0.50722716E-01 0.69040312E+03</pdfrwt>
<totfact> 0.37035522E+01</totfact>
</mgrwt>
</event>
<event>
 4    1  0.3927941E-007  0.7042696E+03  0.7818608E-02  0.9979930E-01
         -2   -1    0    0    0  501 -0.00000000000E+00  0.00000000000E+00  0.85813614450E+03  0.85813614451E+03  0.25500000000E-02 0.  1.
          2   -1    0    0  501    0  0.00000000000E+00 -0.00000000000E+00 -0.16678809724E+04  0.16678809724E+04  0.25500000000E-02 0. -1.
    8880023    1    1    2    0    0  0.24059944831E+03  0.65554001397E+02 -0.15649577559E+04  0.17161259877E+04  0.65864270000E+03 0. -1.
    8880022    1    1    2    0    0 -0.24059944831E+03 -0.65554001397E+02  0.75521292798E+03  0.80989112924E+03  0.15294330000E+03 0.  0.
<mgrwt>
<rscale>  0 0.56539098E+03</rscale>
<asrwt>0</asrwt>
<pdfrwt beam="1">  1        2 0.25659707E+00 0.70426957E+03</pdfrwt>
<pdfrwt beam="2">  1       -2 0.13202095E+00 0.70426957E+03</pdfrwt>
<totfact> 0.44246311E+00</totfact>
</mgrwt>
</event>
<event>
 4    1  0.3565372E-007  0.1035813E+04  0.7818608E-02  0.9336134E-01
          2   -1    0    0  501    0  0.00000000000E+00  0.00000000000E+00  0.17380072121E+04  0.17380072121E+04  0.25500000000E-02 0. -1.
         -2   -1    0    0    0  501 -0.00000000000E+00 -0.00000000000E+00 -0.13067307270E+04  0.13067307270E+04  0.25500000000E-02 0.  1.
    8880023    1    1    2    0    0  0.26543555153E+03 -0.75408364133E+03  0.14240767147E+04  0.17609380641E+04  0.65864270000E+03 0.  0.
    8880022    1    1    2    0    0 -0.26543555153E+03  0.75408364133E+03 -0.99280022961E+03  0.12837998750E+04  0.15294330000E+03 0.  0.
<mgrwt>
<rscale>  0 0.97523300E+03</rscale>
<asrwt>0</asrwt>
<pdfrwt beam="1">  1        2 0.26738572E+00 0.10358129E+04</pdfrwt>
<pdfrwt beam="2">  1       -2 0.20103550E+00 0.10358129E+04</pdfrwt>
<totfact> 0.12116002E+00</totfact>
</mgrwt>
</event>
<event>
 4    1  0.3565372E-007  0.6840799E+03  0.7818608E-02  0.1007104E+00
          2   -1    0    0  501    0  0.00000000000E+00  0.00000000000E+00  0.10825972560E+04  0.10825972560E+04  0.25500000000E-02 0. -1.
         -2   -1    0    0    0  501 -0.00000000000E+00 -0.00000000000E+00 -0.36055123191E+03  0.36055123192E+03  0.25500000000E-02 0.  1.
    8880023    1    1    2    0    0 -0.13315598790E+03 -0.12815864505E+03  0.90996347285E+03  0.11384194673E+04  0.65864270000E+03 0. -1.
    8880022    1    1    2    0    0  0.13315598790E+03  0.12815864505E+03 -0.18791744877E+03  0.30472902058E+03  0.15294330000E+03 0.  0.
<mgrwt>
<rscale>  0 0.52642050E+03</rscale>
<asrwt>0</asrwt>
<pdfrwt beam="1">  1        2 0.16655342E+00 0.68407994E+03</pdfrwt>
<pdfrwt beam="2">  1       -2 0.55469420E-01 0.68407994E+03</pdfrwt>
<totfact> 0.69676678E+01</totfact>
</mgrwt>
</event>
<event>
 4    1  0.3565372E-007  0.7505189E+03  0.7818608E-02  0.9830302E-01
          2   -1    0    0  501    0  0.00000000000E+00  0.00000000000E+00  0.11369485030E+04  0.11369485030E+04  0.25500000000E-02 0. -1.
         -2   -1    0    0    0  501 -0.00000000000E+00 -0.00000000000E+00 -0.51458928640E+03  0.51458928640E+03  0.25500000000E-02 0.  1.
    8880023    1    1    2    0    0  0.35903790516E+03 -0.23669708252E+02  0.90010595891E+03  0.11719511150E+04  0.65864270000E+03 0. -1.
    8880022    1    1    2    0    0 -0.35903790516E+03  0.23669708252E+02 -0.27774674228E+03  0.47958667443E+03  0.15294330000E+03 0.  0.
<mgrwt>
<rscale>  0 0.63761426E+03</rscale>
<asrwt>0</asrwt>
<pdfrwt beam="1">  1        2 0.17491515E+00 0.75051894E+03</pdfrwt>
<pdfrwt beam="2">  1       -2 0.79167583E-01 0.75051894E+03</pdfrwt>
<totfact> 0.29782497E+01</totfact>
</mgrwt>
</event>
<event>
 4    1  0.3565372E-007  0.1063945E+04  0.7818608E-02  0.9302302E-01
          2   -1    0    0  501    0  0.00000000000E+00  0.00000000000E+00  0.12176416773E+04  0.12176416773E+04  0.25500000000E-02 0. -1.
         -2   -1    0    0    0  501 -0.00000000000E+00 -0.00000000000E+00 -0.15629320717E+04  0.15629320717E+04  0.25500000000E-02 0.  1.
    8880023    1    1    2    0    0 -0.27440033609E+03  0.78922349200E+03  0.81666112144E+03  0.13412363171E+04  0.65864270000E+03 0.  0.
    8880022    1    1    2    0    0  0.27440033609E+03 -0.78922349200E+03 -0.11619515158E+04  0.14393374319E+04  0.15294330000E+03 0.  0.
<mgrwt>
<rscale>  0 0.10057119E+04</rscale>
<asrwt>0</asrwt>
<pdfrwt beam="1">  1        2 0.18732949E+00 0.10639452E+04</pdfrwt>
<pdfrwt beam="2">  1       -2 0.24045109E+00 0.10639452E+04</pdfrwt>
<totfact> 0.13438061E+00</totfact>
</mgrwt>
</event>
<event>
 4    1  0.3565372E-007  0.7780561E+03  0.7818608E-02  0.9760423E-01
          2   -1    0    0  501    0  0.00000000000E+00  0.00000000000E+00  0.28439737710E+04  0.28439737710E+04  0.25500000000E-02 0. -1.
         -2   -1    0    0    0  501 -0.00000000000E+00 -0.00000000000E+00 -0.42203946075E+03  0.42203946075E+03  0.25500000000E-02 0.  1.
    8880023    1    1    2    0    0 -0.53017435316E+00 -0.41419890238E+03  0.26550585563E+04  0.27667141441E+04  0.65864270000E+03 0.  0.
    8880022    1    1    2    0    0  0.53017435316E+00  0.41419890238E+03 -0.23312424601E+03  0.49929908764E+03  0.15294330000E+03 0.  0.
<mgrwt>
<rscale>  0 0.67530398E+03</rscale>
<asrwt>0</asrwt>
<pdfrwt beam="1">  1        2 0.43753441E+00 0.77805605E+03</pdfrwt>
<pdfrwt beam="2">  1       -2 0.64929150E-01 0.77805605E+03</pdfrwt>
<totfact> 0.50211603E+00</totfact>
</mgrwt>
</event>
<event>
 4    1  0.3565372E-007  0.1496827E+04  0.7818608E-02  0.8911880E-01
         -2   -1    0    0    0  501 -0.00000000000E+00  0.00000000000E+00  0.99918563416E+03  0.99918563417E+03  0.25500000000E-02 0.  1.
          2   -1    0    0  501    0  0.00000000000E+00 -0.00000000000E+00 -0.23730584592E+04  0.23730584592E+04  0.25500000000E-02 0. -1.
    8880023    1    1    2    0    0  0.41781684612E+03 -0.12775402894E+04 -0.77908821302E+02  0.14988529276E+04  0.65864270000E+03 0.  0.
    8880022    1    1    2    0    0 -0.41781684612E+03  0.12775402894E+04 -0.12959640037E+04  0.18733911658E+04  0.15294330000E+03 0.  0.
<mgrwt>
<rscale>  0 0.14594431E+04</rscale>
<asrwt>0</asrwt>
<pdfrwt beam="1">  1        2 0.36508592E+00 0.14968267E+04</pdfrwt>
<pdfrwt beam="2">  1       -2 0.15372087E+00 0.14968267E+04</pdfrwt>
<totfact> 0.10918317E+00</totfact>
</mgrwt>
</event>
<event>
 4    1  0.3565372E-007  0.1405446E+04  0.7818608E-02  0.8979462E-01
         -2   -1    0    0    0  501 -0.00000000000E+00  0.00000000000E+00  0.10442383487E+04  0.10442383487E+04  0.25500000000E-02 0.  1.
          2   -1    0    0  501    0  0.00000000000E+00 -0.00000000000E+00 -0.22400016429E+04  0.22400016429E+04  0.25500000000E-02 0. -1.
    8880023    1    1    2    0    0  0.85601939841E+03 -0.89927754968E+03 -0.14372331374E+04  0.20102036263E+04  0.65864270000E+03 0.  0.
    8880022    1    1    2    0    0 -0.85601939841E+03  0.89927754968E+03  0.24146984325E+03  0.12740363653E+04  0.15294330000E+03 0.  0.
<mgrwt>
<rscale>  0 0.13651180E+04</rscale>
<asrwt>0</asrwt>
<pdfrwt beam="1">  1        2 0.34461564E+00 0.14054464E+04</pdfrwt>
<pdfrwt beam="2">  1       -2 0.16065205E+00 0.14054464E+04</pdfrwt>
<totfact> 0.11626661E+00</totfact>
</mgrwt>
</event>
<event>
 4    1  0.3565372E-007  0.6821922E+03  0.7818608E-02  0.1008110E+00
          2   -1    0    0  501    0  0.00000000000E+00  0.00000000000E+00  0.43564922402E+03  0.43564922403E+03  0.25500000000E-02 0. -1.
         -2   -1    0    0    0  501 -0.00000000000E+00 -0.00000000000E+00 -0.77519507703E+03  0.77519507703E+03  0.25500000000E-02 0.  1.
    8880023    1    1    2    0    0 -0.87787113578E+02 -0.15449730529E+03  0.12213987820E+03  0.69303993446E+03  0.65864270000E+03 0. -1.
    8880022    1    1    2    0    0  0.87787113578E+02  0.15449730529E+03 -0.46168573121E+03  0.51780436660E+03  0.15294330000E+03 0.  1.
<mgrwt>
<rscale>  0 0.52232818E+03</rscale>
<asrwt>0</asrwt>
<pdfrwt beam="1">  1        2 0.67022957E-01 0.68219220E+03</pdfrwt>
<pdfrwt beam="2">  1       -2 0.11926078E+00 0.68219220E+03</pdfrwt>
<totfact> 0.39564089E+01</totfact>
</mgrwt>
</event>
<event>
 4    1  0.3565372E-007  0.6756523E+03  0.7818608E-02  0.1011898E+00
         -2   -1    0    0    0  501 -0.00000000000E+00  0.00000000000E+00  0.66055463223E+03  0.66055463223E+03  0.25500000000E-02 0.  1.
          2   -1    0    0  501    0  0.00000000000E+00 -0.00000000000E+00 -0.49024040697E+03  0.49024040697E+03  0.25500000000E-02 0. -1.
    8880023    1    1    2    0    0 -0.11122509430E+03  0.10161125868E+03 -0.21557445646E+03  0.70920971654E+03  0.65864270000E+03 0. -1.
    8880022    1    1    2    0    0  0.11122509430E+03 -0.10161125868E+03  0.38588868172E+03  0.44158532266E+03  0.15294330000E+03 0.  0.
<mgrwt>
<rscale>  0 0.50727140E+03</rscale>
<asrwt>0</asrwt>
<pdfrwt beam="1">  1        2 0.75421601E-01 0.67565233E+03</pdfrwt>
<pdfrwt beam="2">  1       -2 0.10162379E+00 0.67565233E+03</pdfrwt>
<totfact> 0.50932836E+01</totfact>
</mgrwt>
</event>
<event>
 4    1  0.3565372E-007  0.1029494E+04  0.7818608E-02  0.9343949E-01
         -2   -1    0    0    0  501 -0.00000000000E+00  0.00000000000E+00  0.82464810822E+03  0.82464810822E+03  0.25500000000E-02 0.  1.
          2   -1    0    0  501    0  0.00000000000E+00 -0.00000000000E+00 -0.28788087485E+04  0.28788087485E+04  0.25500000000E-02 0. -1.
    8880023    1    1    2    0    0 -0.62560804742E+03 -0.48441920356E+03  0.41206890531E+03  0.11088996270E+04  0.65864270000E+03 0.  0.
    8880022    1    1    2    0    0  0.62560804742E+03  0.48441920356E+03 -0.24662295456E+04  0.25945572297E+04  0.15294330000E+03 0.  0.
<mgrwt>
<rscale>  0 0.96835616E+03</rscale>
<asrwt>0</asrwt>
<pdfrwt beam="1">  1        2 0.44289365E+00 0.10294939E+04</pdfrwt>
<pdfrwt beam="2">  1       -2 0.12686894E+00 0.10294939E+04</pdfrwt>
<totfact> 0.96571846E-01</totfact>
</mgrwt>
</event>
<event>
 4    1  0.3565372E-007  0.7714996E+03  0.7818608E-02  0.9776197E-01
          2   -1    0    0  501    0  0.00000000000E+00  0.00000000000E+00  0.72794493492E+03  0.72794493492E+03  0.25500000000E-02 0. -1.
         -2   -1    0    0    0  501 -0.00000000000E+00 -0.00000000000E+00 -0.15027384675E+04  0.15027384675E+04  0.25500000000E-02 0.  1.
    8880023    1    1    2    0    0 -0.35933961298E+02  0.40013777289E+03  0.47705743322E+03  0.90708075039E+03  0.65864270000E+03 0. -1.
    8880022    1    1    2    0    0  0.35933961298E+02 -0.40013777289E+03 -0.12518509658E+04  0.13236026520E+04  0.15294330000E+03 0.  0.
<mgrwt>
<rscale>  0 0.66655736E+03</rscale>
<asrwt>0</asrwt>
<pdfrwt beam="1">  1        2 0.11199153E+00 0.77149964E+03</pdfrwt>
<pdfrwt beam="2">  1       -2 0.23119053E+00 0.77149964E+03</pdfrwt>
<totfact> 0.33536973E+00</totfact>
</mgrwt>
</event>
<event>
 4    1  0.3565372E-007  0.6647245E+03  0.7818608E-02  0.1019766E+00
         -2   -1    0    0    0  501 -0.00000000000E+00  0.00000000000E+00  0.17279769248E+03  0.17279769250E+03  0.25500000000E-02 0.  1.
          2   -1    0    0  501    0  0.00000000000E+00 -0.00000000000E+00 -0.29013554445E+04  0.29013554445E+04  0.25500000000E-02 0. -1.
    8880023    1    1    2    0    0 -0.15039760090E+01 -0.89700896872E+02 -0.28038119054E+04  0.28815308293E+04  0.65864270000E+03 0. -1.
    8880022    1    1    2    0    0  0.15039760090E+01  0.89700896872E+02  0.75254153345E+02  0.19262230778E+03  0.15294330000E+03 0.  0.
<mgrwt>
<rscale>  0 0.47771281E+03</rscale>
<asrwt>0</asrwt>
<pdfrwt beam="1">  1        2 0.44636234E+00 0.66472454E+03</pdfrwt>
<pdfrwt beam="2">  1       -2 0.26584263E-01 0.66472454E+03</pdfrwt>
<totfact> 0.27495365E+01</totfact>
</mgrwt>
</event>
<event>
 4    1  0.3565372E-007  0.7878761E+03  0.7818608E-02  0.9737651E-01
         -2   -1    0    0    0  501 -0.00000000000E+00  0.00000000000E+00  0.17025334733E+03  0.17025334735E+03  0.25500000000E-02 0.  1.
          2   -1    0    0  501    0  0.00000000000E+00 -0.00000000000E+00 -0.23602350069E+04  0.23602350069E+04  0.25500000000E-02 0. -1.
    8880023    1    1    2    0    0 -0.27286020167E+03  0.33538914073E+03 -0.11514543569E+04  0.13952046114E+04  0.65864270000E+03 0.  0.
    8880022    1    1    2    0    0  0.27286020167E+03 -0.33538914073E+03 -0.10385273027E+04  0.11352837429E+04  0.15294330000E+03 0.  0.
<mgrwt>
<rscale>  0 0.68818652E+03</rscale>
<asrwt>0</asrwt>
<pdfrwt beam="1">  1        2 0.36311305E+00 0.78787611E+03</pdfrwt>
<pdfrwt beam="2">  1       -2 0.26192824E-01 0.78787611E+03</pdfrwt>
<totfact> 0.56928841E+01</totfact>
</mgrwt>
</event>
<event>
 4    1  0.3565372E-007  0.7261304E+03  0.7818608E-02  0.9902364E-01
         -2   -1    0    0    0  501 -0.00000000000E+00  0.00000000000E+00  0.49351212276E+03  0.49351212277E+03  0.25500000000E-02 0.  1.
          2   -1    0    0  501    0  0.00000000000E+00 -0.00000000000E+00 -0.16301682858E+04  0.16301682858E+04  0.25500000000E-02 0. -1.
    8880023    1    1    2    0    0 -0.23088296754E+03 -0.20037013379E+03 -0.14741704718E+04  0.16433027480E+04  0.65864270000E+03 0.  0.
    8880022    1    1    2    0    0  0.23088296754E+03  0.20037013379E+03  0.33751430875E+03  0.48037766064E+03  0.15294330000E+03 0.  0.
<mgrwt>
<rscale>  0 0.60146873E+03</rscale>
<asrwt>0</asrwt>
<pdfrwt beam="1">  1        2 0.25079512E+00 0.72613039E+03</pdfrwt>
<pdfrwt beam="2">  1       -2 0.75924943E-01 0.72613039E+03</pdfrwt>
<totfact> 0.17165676E+01</totfact>
</mgrwt>
</event>
<event>
 4    1  0.3565372E-007  0.9166640E+03  0.7818608E-02  0.9499793E-01
          2   -1    0    0  501    0  0.00000000000E+00  0.00000000000E+00  0.21741555053E+04  0.21741555053E+04  0.25500000000E-02 0. -1.
         -2   -1    0    0    0  501 -0.00000000000E+00 -0.00000000000E+00 -0.59798451967E+03  0.59798451968E+03  0.25500000000E-02 0.  1.
    8880023    1    1    2    0    0 -0.23011056780E+03 -0.59456858194E+03  0.18476350273E+04  0.20625295325E+04  0.65864270000E+03 0. -1.
    8880022    1    1    2    0    0  0.23011056780E+03  0.59456858194E+03 -0.27146404171E+03  0.70961049245E+03  0.15294330000E+03 0.  0.
<mgrwt>
<rscale>  0 0.84299072E+03</rscale>
<asrwt>0</asrwt>
<pdfrwt beam="1">  1        2 0.33448546E+00 0.91666399E+03</pdfrwt>
<pdfrwt beam="2">  1       -2 0.91997619E-01 0.91666399E+03</pdfrwt>
<totfact> 0.54414417E+00</totfact>
</mgrwt>
</event>
<event>
 4    1  0.3565372E-007  0.9708191E+03  0.7818608E-02  0.9420772E-01
          2   -1    0    0  501    0  0.00000000000E+00  0.00000000000E+00  0.64477914160E+03  0.64477914160E+03  0.25500000000E-02 0. -1.
         -2   -1    0    0    0  501 -0.00000000000E+00 -0.00000000000E+00 -0.22957262555E+04  0.22957262555E+04  0.25500000000E-02 0.  1.
    8880023    1    1    2    0    0  0.42397727631E+03 -0.57351791836E+03  0.16389812609E+03  0.98455692344E+03  0.65864270000E+03 0. -1.
    8880022    1    1    2    0    0 -0.42397727631E+03  0.57351791836E+03 -0.18148452400E+04  0.19559484737E+04  0.15294330000E+03 0.  0.
<mgrwt>
<rscale>  0 0.90385748E+03</rscale>
<asrwt>0</asrwt>
<pdfrwt beam="1">  1        2 0.99196792E-01 0.97081911E+03</pdfrwt>
<pdfrwt beam="2">  1       -2 0.35318865E+00 0.97081911E+03</pdfrwt>
<totfact> 0.68660547E-01</totfact>
</mgrwt>
</event>
<event>
 4    1  0.3565372E-007  0.8548928E+03  0.7818608E-02  0.9602714E-01
          2   -1    0    0  501    0  0.00000000000E+00  0.00000000000E+00  0.58611881680E+03  0.58611881680E+03  0.25500000000E-02 0. -1.
         -2   -1    0    0    0  501 -0.00000000000E+00 -0.00000000000E+00 -0.88984271686E+03  0.88984271686E+03  0.25500000000E-02 0.  1.
    8880023    1    1    2    0    0  0.49412159831E+03  0.22994635151E+03 -0.31142428053E+03  0.90984985973E+03  0.65864270000E+03 0.  0.
    8880022    1    1    2    0    0 -0.49412159831E+03 -0.22994635151E+03  0.77003804715E+01  0.56611167393E+03  0.15294330000E+03 0. -1.
<mgrwt>
<rscale>  0 0.77116840E+03</rscale>
<asrwt>0</asrwt>
<pdfrwt beam="1">  1        2 0.90172125E-01 0.85489279E+03</pdfrwt>
<pdfrwt beam="2">  1       -2 0.13689888E+00 0.85489279E+03</pdfrwt>
<totfact> 0.19508576E+01</totfact>
</mgrwt>
</event>
<event>
 4    1  0.3565372E-007  0.6946404E+03  0.7818608E-02  0.1002021E+00
         -2   -1    0    0    0  501 -0.00000000000E+00  0.00000000000E+00  0.18137862102E+03  0.18137862104E+03  0.25500000000E-02 0.  1.
          2   -1    0    0  501    0  0.00000000000E+00 -0.00000000000E+00 -0.24058998592E+04  0.24058998592E+04  0.25500000000E-02 0. -1.
    8880023    1    1    2    0    0  0.62682240872E+02  0.21162708120E+03 -0.22119491957E+04  0.23184573611E+04  0.65864270000E+03 0. -1.
    8880022    1    1    2    0    0 -0.62682240872E+02 -0.21162708120E+03 -0.12572042510E+02  0.26882111912E+03  0.15294330000E+03 0.  0.
<mgrwt>
<rscale>  0 0.54773061E+03</rscale>
<asrwt>0</asrwt>
<pdfrwt beam="1">  1        2 0.37013842E+00 0.69464040E+03</pdfrwt>
<pdfrwt beam="2">  1       -2 0.27904405E-01 0.69464040E+03</pdfrwt>
<totfact> 0.48404690E+01</totfact>
</mgrwt>
</event>
<event>
 4    1  0.3565372E-007  0.8393655E+03  0.7818608E-02  0.9631378E-01
          2   -1    0    0  501    0  0.00000000000E+00  0.00000000000E+00  0.11420494012E+04  0.11420494012E+04  0.25500000000E-02 0. -1.
         -2   -1    0    0    0  501 -0.00000000000E+00 -0.00000000000E+00 -0.42111657883E+03  0.42111657884E+03  0.25500000000E-02 0.  1.
    8880023    1    1    2    0    0  0.87268409532E+02 -0.51294096650E+03  0.50405308546E+03  0.97908320874E+03  0.65864270000E+03 0.  0.
    8880022    1    1    2    0    0 -0.87268409532E+02  0.51294096650E+03  0.21687973687E+03  0.58408277127E+03  0.15294330000E+03 0. -1.
<mgrwt>
<rscale>  0 0.75253748E+03</rscale>
<asrwt>0</asrwt>
<pdfrwt beam="1">  1        2 0.17569991E+00 0.83936548E+03</pdfrwt>
<pdfrwt beam="2">  1       -2 0.64787167E-01 0.83936548E+03</pdfrwt>
<totfact> 0.45551782E+01</totfact>
</mgrwt>
</event>
<event>
 4    1  0.3565372E-007  0.7069540E+03  0.7818608E-02  0.9969491E-01
          2   -1    0    0  501    0  0.00000000000E+00  0.00000000000E+00  0.17195371495E+03  0.17195371497E+03  0.25500000000E-02 0. -1.
         -2   -1    0    0    0  501 -0.00000000000E+00 -0.00000000000E+00 -0.32072546552E+04  0.32072546552E+04  0.25500000000E-02 0.  1.
    8880023    1    1    2    0    0 -0.12506884420E+03 -0.22434675464E+03 -0.60470129816E+03  0.93029433427E+03  0.65864270000E+03 0. -1.
    8880022    1    1    2    0    0  0.12506884420E+03  0.22434675464E+03 -0.24305996421E+04  0.24489140359E+04  0.15294330000E+03 0.  0.
<mgrwt>
<rscale>  0 0.57008482E+03</rscale>
<asrwt>0</asrwt>
<pdfrwt beam="1">  1        2 0.26454420E-01 0.70695395E+03</pdfrwt>
<pdfrwt beam="2">  1       -2 0.49342375E+00 0.70695395E+03</pdfrwt>
<totfact> 0.39653304E-01</totfact>
</mgrwt>
</event>
<event>
 4    1  0.3565372E-007  0.9865820E+03  0.7818608E-02  0.9399327E-01
          2   -1    0    0  501    0  0.00000000000E+00  0.00000000000E+00  0.13973935394E+04  0.13973935394E+04  0.25500000000E-02 0. -1.
         -2   -1    0    0    0  501 -0.00000000000E+00 -0.00000000000E+00 -0.11166446615E+04  0.11166446615E+04  0.25500000000E-02 0.  1.
    8880023    1    1    2    0    0 -0.72698652224E+03  0.10499774215E+03  0.10491013912E+04  0.14401242532E+04  0.65864270000E+03 0.  0.
    8880022    1    1    2    0    0  0.72698652224E+03 -0.10499774215E+03 -0.76835251331E+03  0.10739139477E+04  0.15294330000E+03 0.  0.
<mgrwt>
<rscale>  0 0.92131105E+03</rscale>
<asrwt>0</asrwt>
<pdfrwt beam="1">  1        2 0.21498362E+00 0.98658205E+03</pdfrwt>
<pdfrwt beam="2">  1       -2 0.17179149E+00 0.98658205E+03</pdfrwt>
<totfact> 0.29862580E+00</totfact>
</mgrwt>
</event>
<event>
 4    1  0.3565372E-007  0.7191782E+03  0.7818608E-02  0.9925377E-01
          2   -1    0    0  501    0  0.00000000000E+00  0.00000000000E+00  0.11441716289E+04  0.11441716289E+04  0.25500000000E-02 0. -1.
         -2   -1    0    0    0  501 -0.00000000000E+00 -0.00000000000E+00 -0.68205981960E+03  0.68205981961E+03  0.25500000000E-02 0.  1.
    8880023    1    1    2    0    0  0.25947794996E+03 -0.12679992137E+03  0.97895890145E+03  0.12147336184E+04  0.65864270000E+03 0. -1.
    8880022    1    1    2    0    0 -0.25947794996E+03  0.12679992137E+03 -0.51684709216E+03  0.61149783014E+03  0.15294330000E+03 0.  0.
<mgrwt>
<rscale>  0 0.59047036E+03</rscale>
<asrwt>0</asrwt>
<pdfrwt beam="1">  1        2 0.17602640E+00 0.71917816E+03</pdfrwt>
<pdfrwt beam="2">  1       -2 0.10493228E+00 0.71917816E+03</pdfrwt>
<totfact> 0.15405193E+01</totfact>
</mgrwt>
</event>
<event>
 4    1  0.3565372E-007  0.7657847E+03  0.7818608E-02  0.9790355E-01
         -2   -1    0    0    0  501 -0.00000000000E+00  0.00000000000E+00  0.15988049194E+03  0.15988049196E+03  0.25500000000E-02 0.  1.
          2   -1    0    0  501    0  0.00000000000E+00 -0.00000000000E+00 -0.31916461009E+04  0.31916461009E+04  0.25500000000E-02 0. -1.
    8880023    1    1    2    0    0 -0.38835020997E+02 -0.38872590810E+03 -0.27283266240E+04  0.28337594047E+04  0.65864270000E+03 0. -1.
    8880022    1    1    2    0    0  0.38835020997E+02  0.38872590810E+03 -0.30343898499E+03  0.51776718813E+03  0.15294330000E+03 0.  0.
<mgrwt>
<rscale>  0 0.65882710E+03</rscale>
<asrwt>0</asrwt>
<pdfrwt beam="1">  1        2 0.49102243E+00 0.76578469E+03</pdfrwt>
<pdfrwt beam="2">  1       -2 0.24597001E-01 0.76578469E+03</pdfrwt>
<totfact> 0.20595543E+01</totfact>
</mgrwt>
</event>
<event>
 4    1  0.3565372E-007  0.9441258E+03  0.7818608E-02  0.9458617E-01
          2   -1    0    0  501    0  0.00000000000E+00  0.00000000000E+00  0.28124360031E+04  0.28124360031E+04  0.25500000000E-02 0. -1.
         -2   -1    0    0    0  501 -0.00000000000E+00 -0.00000000000E+00 -0.30323141518E+03  0.30323141519E+03  0.25500000000E-02 0.  1.
    8880023    1    1    2    0    0 -0.62802750836E+03  0.25128622266E+03  0.69184206376E+03  0.11704780922E+04  0.65864270000E+03 0. -1.
    8880022    1    1    2    0    0  0.62802750836E+03 -0.25128622266E+03  0.18173625242E+04  0.19451893261E+04  0.15294330000E+03 0.  0.
<mgrwt>
<rscale>  0 0.87404834E+03</rscale>
<asrwt>0</asrwt>
<pdfrwt beam="1">  1        2 0.43268248E+00 0.94412580E+03</pdfrwt>
<pdfrwt beam="2">  1       -2 0.46650985E-01 0.94412580E+03</pdfrwt>
<totfact> 0.10160066E+01</totfact>
</mgrwt>
</event>
<event>
 4    1  0.4882912E-007  0.1555549E+04  0.7818608E-02  0.8871375E-01
          2   -1    0    0  501    0  0.00000000000E+00  0.00000000000E+00  0.31450250106E+04  0.31450250106E+04  0.25500000000E-02 0. -1.
         -2   -1    0    0    0  501 -0.00000000000E+00 -0.00000000000E+00 -0.15789407953E+04  0.15789407953E+04  0.25500000000E-02 0.  1.
    8880023    1    1    2    0    0 -0.41040228284E+03  0.13481445956E+04  0.25580225087E+04  0.29938625964E+04  0.65864270000E+03 0. -1.
    8880022    1    1    2    0    0  0.41040228284E+03 -0.13481445956E+04 -0.99193829340E+03  0.17301032095E+04  0.15294330000E+03 0.  0.
<mgrwt>
<rscale>  0 0.15198260E+04</rscale>
<asrwt>0</asrwt>
<pdfrwt beam="1">  1        2 0.48385000E+00 0.15555494E+04</pdfrwt>
<pdfrwt beam="2">  1       -2 0.24291397E+00 0.15555494E+04</pdfrwt>
<totfact> 0.93550825E-02</totfact>
</mgrwt>
</event>
<event>
 4    1  0.3565372E-007  0.6864933E+03  0.7818608E-02  0.1005866E+00
         -2   -1    0    0    0  501 -0.00000000000E+00  0.00000000000E+00  0.19151824617E+04  0.19151824617E+04  0.25500000000E-02 0.  1.
          2   -1    0    0  501    0  0.00000000000E+00 -0.00000000000E+00 -0.36184599842E+03  0.36184599843E+03  0.25500000000E-02 0. -1.
    8880023    1    1    2    0    0 -0.96670528739E+02  0.16768323630E+03 -0.17720561731E+02  0.68672198409E+03  0.65864270000E+03 0. -1.
    8880022    1    1    2    0    0  0.96670528739E+02 -0.16768323630E+03  0.15710570251E+04  0.15903064761E+04  0.15294330000E+03 0.  0.
<mgrwt>
<rscale>  0 0.53151293E+03</rscale>
<asrwt>0</asrwt>
<pdfrwt beam="1">  1        2 0.55668616E-01 0.68649331E+03</pdfrwt>
<pdfrwt beam="2">  1       -2 0.29464345E+00 0.68649331E+03</pdfrwt>
<totfact> 0.31998812E+00</totfact>
</mgrwt>
</event>
<event>
 4    1  0.3565372E-007  0.6928098E+03  0.7818608E-02  0.1002845E+00
          2   -1    0    0  501    0  0.00000000000E+00  0.00000000000E+00  0.21768067459E+04  0.21768067459E+04  0.25500000000E-02 0. -1.
         -2   -1    0    0    0  501 -0.00000000000E+00 -0.00000000000E+00 -0.32790772026E+03  0.32790772027E+03  0.25500000000E-02 0.  1.
    8880023    1    1    2    0    0  0.14150981338E+03 -0.16171039229E+03  0.20558575797E+04  0.21694552018E+04  0.65864270000E+03 0. -1.
    8880022    1    1    2    0    0 -0.14150981338E+03  0.16171039229E+03 -0.20695855405E+03  0.33525926440E+03  0.15294330000E+03 0.  0.
<mgrwt>
<rscale>  0 0.54420295E+03</rscale>
<asrwt>0</asrwt>
<pdfrwt beam="1">  1        2 0.33489335E+00 0.69280985E+03</pdfrwt>
<pdfrwt beam="2">  1       -2 0.50447341E-01 0.69280985E+03</pdfrwt>
<totfact> 0.20698804E+01</totfact>
</mgrwt>
</event>
<event>
 4    1  0.3565372E-007  0.6682978E+03  0.7818608E-02  0.1016914E+00
          2   -1    0    0  501    0  0.00000000000E+00  0.00000000000E+00  0.61481797216E+03  0.61481797216E+03  0.25500000000E-02 0. -1.
         -2   -1    0    0    0  501 -0.00000000000E+00 -0.00000000000E+00 -0.11265478138E+04  0.11265478138E+04  0.25500000000E-02 0.  1.
    8880023    1    1    2    0    0 -0.10177234534E+03  0.49539865288E+02  0.42072003518E+03  0.78970080587E+03  0.65864270000E+03 0. -1.
    8880022    1    1    2    0    0  0.10177234534E+03 -0.49539865288E+02 -0.93244987680E+03  0.95166498007E+03  0.15294330000E+03 0.  0.
<mgrwt>
<rscale>  0 0.48817025E+03</rscale>
<asrwt>0</asrwt>
<pdfrwt beam="1">  1        2 0.94587380E-01 0.66829785E+03</pdfrwt>
<pdfrwt beam="2">  1       -2 0.17331505E+00 0.66829785E+03</pdfrwt>
<totfact> 0.99770713E+00</totfact>
</mgrwt>
</event>
<event>
 4    1  0.3565372E-007  0.7350645E+03  0.7818608E-02  0.9874564E-01
         -2   -1    0    0    0  501 -0.00000000000E+00  0.00000000000E+00  0.23947719111E+03  0.23947719113E+03  0.25500000000E-02 0.  1.
          2   -1    0    0  501    0  0.00000000000E+00 -0.00000000000E+00 -0.15080398228E+04  0.15080398228E+04  0.25500000000E-02 0. -1.
    8880023    1    1    2    0    0 -0.28645969639E+03 -0.15636634331E+03 -0.11560359274E+04  0.13699411895E+04  0.65864270000E+03 0.  0.
    8880022    1    1    2    0    0  0.28645969639E+03  0.15636634331E+03 -0.11252670423E+03  0.37757582438E+03  0.15294330000E+03 0.  0.
<mgrwt>
<rscale>  0 0.61510002E+03</rscale>
<asrwt>0</asrwt>
<pdfrwt beam="1">  1        2 0.23200612E+00 0.73506449E+03</pdfrwt>
<pdfrwt beam="2">  1       -2 0.36842646E-01 0.73506449E+03</pdfrwt>
<totfact> 0.88968039E+01</totfact>
</mgrwt>
</event>
<event>
 4    1  0.3565372E-007  0.7977955E+03  0.7818608E-02  0.9715583E-01
         -2   -1    0    0    0  501 -0.00000000000E+00  0.00000000000E+00  0.69571665142E+03  0.69571665143E+03  0.25500000000E-02 0.  1.
          2   -1    0    0  501    0  0.00000000000E+00 -0.00000000000E+00 -0.90464476450E+03  0.90464476450E+03  0.25500000000E-02 0. -1.
    8880023    1    1    2    0    0 -0.15079348382E+03 -0.42418007243E+03 -0.58899875417E+03  0.99166382776E+03  0.65864270000E+03 0.  0.
    8880022    1    1    2    0    0  0.15079348382E+03  0.42418007243E+03  0.38007064110E+03  0.60869758817E+03  0.15294330000E+03 0.  0.
<mgrwt>
<rscale>  0 0.70096513E+03</rscale>
<asrwt>0</asrwt>
<pdfrwt beam="1">  1        2 0.13917612E+00 0.79779547E+03</pdfrwt>
<pdfrwt beam="2">  1       -2 0.10703333E+00 0.79779547E+03</pdfrwt>
<totfact> 0.20652998E+01</totfact>
</mgrwt>
</event>
<event>
 4    1  0.3565372E-007  0.7153984E+03  0.7818608E-02  0.9938475E-01
         -2   -1    0    0    0  501 -0.00000000000E+00  0.00000000000E+00  0.10709319084E+03  0.10709319087E+03  0.25500000000E-02 0.  1.
          2   -1    0    0  501    0  0.00000000000E+00 -0.00000000000E+00 -0.27090289974E+04  0.27090289974E+04  0.25500000000E-02 0. -1.
    8880023    1    1    2    0    0  0.19812886767E+03 -0.19679851749E+03 -0.21291111214E+04  0.22460875046E+04  0.65864270000E+03 0.  1.
    8880022    1    1    2    0    0 -0.19812886767E+03  0.19679851749E+03 -0.47282468509E+03  0.57003468363E+03  0.15294330000E+03 0.  0.
<mgrwt>
<rscale>  0 0.58432312E+03</rscale>
<asrwt>0</asrwt>
<pdfrwt beam="1">  1        2 0.41677364E+00 0.71539843E+03</pdfrwt>
<pdfrwt beam="2">  1       -2 0.16475878E-01 0.71539843E+03</pdfrwt>
<totfact> 0.82208015E+01</totfact>
</mgrwt>
</event>
<event>
 4    1  0.3565372E-007  0.7641144E+03  0.7818608E-02  0.9794570E-01
          2   -1    0    0  501    0  0.00000000000E+00  0.00000000000E+00  0.25448146801E+04  0.25448146801E+04  0.25500000000E-02 0. -1.
         -2   -1    0    0    0  501 -0.00000000000E+00 -0.00000000000E+00 -0.15130684341E+03  0.15130684343E+03  0.25500000000E-02 0.  1.
    8880023    1    1    2    0    0 -0.19992109492E+03 -0.33180135370E+03  0.19146304503E+04  0.20614753333E+04  0.65864270000E+03 0.  0.
    8880022    1    1    2    0    0  0.19992109492E+03  0.33180135370E+03  0.47887738642E+03  0.63464619021E+03  0.15294330000E+03 0.  0.
<mgrwt>
<rscale>  0 0.65654768E+03</rscale>
<asrwt>0</asrwt>
<pdfrwt beam="1">  1        2 0.39150991E+00 0.76411438E+03</pdfrwt>
<pdfrwt beam="2">  1       -2 0.23277979E-01 0.76411438E+03</pdfrwt>
<totfact> 0.55556345E+01</totfact>
</mgrwt>
</event>
<event>
 4    1  0.3565372E-007  0.6688925E+03  0.7818608E-02  0.1016470E+00
          2   -1    0    0  501    0  0.00000000000E+00  0.00000000000E+00  0.15486483015E+04  0.15486483015E+04  0.25500000000E-02 0. -1.
         -2   -1    0    0    0  501 -0.00000000000E+00 -0.00000000000E+00 -0.13542870377E+03  0.13542870379E+03  0.25500000000E-02 0.  1.
    8880023    1    1    2    0    0 -0.11103264146E+03 -0.35759632120E+02  0.12970497837E+04  0.14593681326E+04  0.65864270000E+03 0. -1.
    8880022    1    1    2    0    0  0.11103264146E+03  0.35759632120E+02  0.11616981400E+03  0.22470887268E+03  0.15294330000E+03 0.  1.
<mgrwt>
<rscale>  0 0.48982449E+03</rscale>
<asrwt>0</asrwt>
<pdfrwt beam="1">  1        2 0.23825359E+00 0.66889252E+03</pdfrwt>
<pdfrwt beam="2">  1       -2 0.20835185E-01 0.66889252E+03</pdfrwt>
<totfact> 0.24162323E+02</totfact>
</mgrwt>
</event>
<event>
 4    1  0.3565372E-007  0.8182323E+03  0.7818608E-02  0.9672678E-01
          2   -1    0    0  501    0  0.00000000000E+00  0.00000000000E+00  0.10699249103E+04  0.10699249103E+04  0.25500000000E-02 0. -1.
         -2   -1    0    0    0  501 -0.00000000000E+00 -0.00000000000E+00 -0.57308442656E+03  0.57308442657E+03  0.25500000000E-02 0.  1.
    8880023    1    1    2    0    0 -0.43248505680E+03 -0.22056878591E+03  0.71747472841E+03  0.10882435875E+04  0.65864270000E+03 0. -1.
    8880022    1    1    2    0    0  0.43248505680E+03  0.22056878591E+03 -0.22063424468E+03  0.55476574931E+03  0.15294330000E+03 0.  0.
<mgrwt>
<rscale>  0 0.72667107E+03</rscale>
<asrwt>0</asrwt>
<pdfrwt beam="1">  1        2 0.16460383E+00 0.81823231E+03</pdfrwt>
<pdfrwt beam="2">  1       -2 0.88166835E-01 0.81823231E+03</pdfrwt>
<totfact> 0.25464587E+01</totfact>
</mgrwt>
</event>
<event>
 4    1  0.3565372E-007  0.8492869E+03  0.7818608E-02  0.9612912E-01
          2   -1    0    0  501    0  0.00000000000E+00  0.00000000000E+00  0.16594517611E+04  0.16594517611E+04  0.25500000000E-02 0. -1.
         -2   -1    0    0    0  501 -0.00000000000E+00 -0.00000000000E+00 -0.36320842345E+03  0.36320842346E+03  0.25500000000E-02 0.  1.
    8880023    1    1    2    0    0 -0.30347190930E+03  0.44202135042E+03  0.11787823164E+04  0.14528647665E+04  0.65864270000E+03 0. -1.
    8880022    1    1    2    0    0  0.30347190930E+03 -0.44202135042E+03  0.11746102127E+03  0.56979541810E+03  0.15294330000E+03 0.  0.
<mgrwt>
<rscale>  0 0.76447473E+03</rscale>
<asrwt>0</asrwt>
<pdfrwt beam="1">  1        2 0.25530028E+00 0.84928692E+03</pdfrwt>
<pdfrwt beam="2">  1       -2 0.55878217E-01 0.84928692E+03</pdfrwt>
<totfact> 0.31527305E+01</totfact>
</mgrwt>
</event>
<event>
 4    1  0.3565372E-007  0.8536476E+03  0.7818608E-02  0.9604965E-01
          2   -1    0    0  501    0  0.00000000000E+00  0.00000000000E+00  0.31635995590E+04  0.31635995590E+04  0.25500000000E-02 0. -1.
         -2   -1    0    0    0  501 -0.00000000000E+00 -0.00000000000E+00 -0.22785733853E+03  0.22785733855E+03  0.25500000000E-02 0.  1.
    8880023    1    1    2    0    0 -0.24057450110E+03  0.48685507411E+03  0.25963016626E+04  0.27330379586E+04  0.65864270000E+03 0.  0.
    8880022    1    1    2    0    0  0.24057450110E+03 -0.48685507411E+03  0.33944055781E+03  0.65841893887E+03  0.15294330000E+03 0.  0.
<mgrwt>
<rscale>  0 0.76968458E+03</rscale>
<asrwt>0</asrwt>
<pdfrwt beam="1">  1        2 0.48670758E+00 0.85364756E+03</pdfrwt>
<pdfrwt beam="2">  1       -2 0.35054978E-01 0.85364756E+03</pdfrwt>
<totfact> 0.10972000E+01</totfact>
</mgrwt>
</event>
<event>
 4    1  0.3565372E-007  0.7061073E+03  0.7818608E-02  0.9972750E-01
         -2   -1    0    0    0  501 -0.00000000000E+00  0.00000000000E+00  0.19625426325E+03  0.19625426327E+03  0.25500000000E-02 0.  1.
          2   -1    0    0  501    0  0.00000000000E+00 -0.00000000000E+00 -0.13516804423E+04  0.13516804423E+04  0.25500000000E-02 0. -1.
    8880023    1    1    2    0    0  0.13217543231E+03 -0.21750164836E+03 -0.96288149295E+03  0.11940386458E+04  0.65864270000E+03 0.  0.
    8880022    1    1    2    0    0 -0.13217543231E+03  0.21750164836E+03 -0.19254468605E+03  0.35389605972E+03  0.15294330000E+03 0. -1.
<mgrwt>
<rscale>  0 0.56861393E+03</rscale>
<asrwt>0</asrwt>
<pdfrwt beam="1">  1        2 0.20795083E+00 0.70610730E+03</pdfrwt>
<pdfrwt beam="2">  1       -2 0.30192964E-01 0.70610730E+03</pdfrwt>
<totfact> 0.15901008E+02</totfact>
</mgrwt>
</event>
<event>
 4    1  0.3565372E-007  0.6605460E+03  0.7818608E-02  0.1023604E+00
          2   -1    0    0  501    0  0.00000000000E+00  0.00000000000E+00  0.11293647679E+04  0.11293647679E+04  0.25500000000E-02 0. -1.
         -2   -1    0    0    0  501 -0.00000000000E+00 -0.00000000000E+00 -0.33288727212E+03  0.33288727213E+03  0.25500000000E-02 0.  1.
    8880023    1    1    2    0    0  0.46103972568E+02  0.19626896683E+02  0.10026633700E+04  0.12006893150E+04  0.65864270000E+03 0. -1.
    8880022    1    1    2    0    0 -0.46103972568E+02 -0.19626896683E+02 -0.20618587424E+03  0.26156272500E+03  0.15294330000E+03 0.  0.
<mgrwt>
<rscale>  0 0.46408217E+03</rscale>
<asrwt>0</asrwt>
<pdfrwt beam="1">  1        2 0.17374843E+00 0.66054598E+03</pdfrwt>
<pdfrwt beam="2">  1       -2 0.51213426E-01 0.66054598E+03</pdfrwt>
<totfact> 0.77083768E+01</totfact>
</mgrwt>
</event>
<event>
 4    1  0.3565372E-007  0.7391009E+03  0.7818608E-02  0.9862574E-01
         -2   -1    0    0    0  501 -0.00000000000E+00  0.00000000000E+00  0.56412123665E+03  0.56412123665E+03  0.25500000000E-02 0.  1.
          2   -1    0    0  501    0  0.00000000000E+00 -0.00000000000E+00 -0.20450402593E+04  0.20450402593E+04  0.25500000000E-02 0. -1.
    8880023    1    1    2    0    0 -0.17215849055E+03  0.28778699558E+03 -0.19073335511E+04  0.20455296092E+04  0.65864270000E+03 0. -1.
    8880022    1    1    2    0    0  0.17215849055E+03 -0.28778699558E+03  0.42641452844E+03  0.56363188676E+03  0.15294330000E+03 0.  0.
<mgrwt>
<rscale>  0 0.62109905E+03</rscale>
<asrwt>0</asrwt>
<pdfrwt beam="1">  1        2 0.31462157E+00 0.73910088E+03</pdfrwt>
<pdfrwt beam="2">  1       -2 0.86787884E-01 0.73910088E+03</pdfrwt>
<totfact> 0.75251417E+00</totfact>
</mgrwt>
</event>
<event>
 4    1  0.3565372E-007  0.9238727E+03  0.7818608E-02  0.9488746E-01
          2   -1    0    0  501    0  0.00000000000E+00  0.00000000000E+00  0.62034741223E+03  0.62034741223E+03  0.25500000000E-02 0. -1.
         -2   -1    0    0    0  501 -0.00000000000E+00 -0.00000000000E+00 -0.36731665591E+04  0.36731665591E+04  0.25500000000E-02 0.  1.
    8880023    1    1    2    0    0  0.38686756679E+03  0.51967680164E+03  0.22327879074E+03  0.95047047142E+03  0.65864270000E+03 0. -1.
    8880022    1    1    2    0    0 -0.38686756679E+03 -0.51967680164E+03 -0.32760979376E+04  0.33430434999E+04  0.15294330000E+03 0.  0.
<mgrwt>
<rscale>  0 0.85118609E+03</rscale>
<asrwt>0</asrwt>
<pdfrwt beam="1">  1        2 0.95438065E-01 0.92387266E+03</pdfrwt>
<pdfrwt beam="2">  1       -2 0.56510254E+00 0.92387266E+03</pdfrwt>
<totfact> 0.34253581E-02</totfact>
</mgrwt>
</event>
<event>
 4    1  0.3565372E-007  0.1124098E+04  0.7818608E-02  0.9234689E-01
          2   -1    0    0  501    0  0.00000000000E+00  0.00000000000E+00  0.70287601374E+03  0.70287601375E+03  0.25500000000E-02 0. -1.
         -2   -1    0    0    0  501 -0.00000000000E+00 -0.00000000000E+00 -0.47977836717E+04  0.47977836717E+04  0.25500000000E-02 0.  1.
    8880023    1    1    2    0    0  0.70805031143E+03  0.57310558869E+03  0.16999608201E+03  0.11368791200E+04  0.65864270000E+03 0. -1.
    8880022    1    1    2    0    0 -0.70805031143E+03 -0.57310558869E+03 -0.42649037399E+04  0.43637805654E+04  0.15294330000E+03 0.  0.
<mgrwt>
<rscale>  0 0.10702443E+04</rscale>
<asrwt>0</asrwt>
<pdfrwt beam="1">  1        2 0.10813477E+00 0.11240976E+04</pdfrwt>
<pdfrwt beam="2">  1       -2 0.73812055E+00 0.11240976E+04</pdfrwt>
<totfact> 0.66566125E-03</totfact>
</mgrwt>
</event>
<event>
 4    1  0.3565372E-007  0.8451340E+03  0.7818608E-02  0.9620575E-01
          2   -1    0    0  501    0  0.00000000000E+00  0.00000000000E+00  0.53740845313E+03  0.53740845314E+03  0.25500000000E-02 0. -1.
         -2   -1    0    0    0  501 -0.00000000000E+00 -0.00000000000E+00 -0.99749112532E+03  0.99749112532E+03  0.25500000000E-02 0.  1.
    8880023    1    1    2    0    0  0.39085307651E+03  0.35731654355E+03 -0.50048564966E+03  0.98221043137E+03  0.65864270000E+03 0.  0.
    8880022    1    1    2    0    0 -0.39085307651E+03 -0.35731654355E+03  0.40402977471E+02  0.55268914709E+03  0.15294330000E+03 0.  0.
<mgrwt>
<rscale>  0 0.75949256E+03</rscale>
<asrwt>0</asrwt>
<pdfrwt beam="1">  1        2 0.82678224E-01 0.84513398E+03</pdfrwt>
<pdfrwt beam="2">  1       -2 0.15346017E+00 0.84513398E+03</pdfrwt>
<totfact> 0.16046025E+01</totfact>
</mgrwt>
</event>
<event>
 4    1  0.3565372E-007  0.8981019E+03  0.7818608E-02  0.9529086E-01
         -2   -1    0    0    0  501 -0.00000000000E+00  0.00000000000E+00  0.37619067672E+03  0.37619067673E+03  0.25500000000E-02 0.  1.
          2   -1    0    0  501    0  0.00000000000E+00 -0.00000000000E+00 -0.23509756885E+04  0.23509756885E+04  0.25500000000E-02 0. -1.
    8880023    1    1    2    0    0  0.56474013701E+03  0.23204609132E+03 -0.18893905749E+04  0.20919808225E+04  0.65864270000E+03 0. -1.
    8880022    1    1    2    0    0 -0.56474013701E+03 -0.23204609132E+03 -0.85394436877E+02  0.63518554275E+03  0.15294330000E+03 0.  0.
<mgrwt>
<rscale>  0 0.82173010E+03</rscale>
<asrwt>0</asrwt>
<pdfrwt beam="1">  1        2 0.36168856E+00 0.89810190E+03</pdfrwt>
<pdfrwt beam="2">  1       -2 0.57875490E-01 0.89810190E+03</pdfrwt>
<totfact> 0.12110575E+01</totfact>
</mgrwt>
</event>
<event>
 4    1  0.3565372E-007  0.7648207E+03  0.7818608E-02  0.9792783E-01
         -2   -1    0    0    0  501 -0.00000000000E+00  0.00000000000E+00  0.95046872868E+03  0.95046872868E+03  0.25500000000E-02 0.  1.
          2   -1    0    0  501    0  0.00000000000E+00 -0.00000000000E+00 -0.10869351313E+04  0.10869351313E+04  0.25500000000E-02 0. -1.
    8880023    1    1    2    0    0  0.37797095374E+03  0.90985852320E+02 -0.89142726428E+03  0.11745608715E+04  0.65864270000E+03 0. -1.
    8880022    1    1    2    0    0 -0.37797095374E+03 -0.90985852320E+02  0.75496086162E+03  0.86284298849E+03  0.15294330000E+03 0.  0.
<mgrwt>
<rscale>  0 0.65751269E+03</rscale>
<asrwt>0</asrwt>
<pdfrwt beam="1">  1        2 0.16722079E+00 0.76482068E+03</pdfrwt>
<pdfrwt beam="2">  1       -2 0.14622596E+00 0.76482068E+03</pdfrwt>
<totfact> 0.72377841E+00</totfact>
</mgrwt>
</event>
<event>
 4    1  0.3565372E-007  0.7733880E+03  0.7818608E-02  0.9771604E-01
          2   -1    0    0  501    0  0.00000000000E+00  0.00000000000E+00  0.29979531084E+04  0.29979531084E+04  0.25500000000E-02 0. -1.
         -2   -1    0    0    0  501 -0.00000000000E+00 -0.00000000000E+00 -0.30418079720E+03  0.30418079721E+03  0.25500000000E-02 0.  1.
    8880023    1    1    2    0    0 -0.60979496247E+02 -0.40074959145E+03  0.27577836352E+04  0.28641751900E+04  0.65864270000E+03 0. -1.
    8880022    1    1    2    0    0  0.60979496247E+02  0.40074959145E+03 -0.64011323972E+02  0.43795871566E+03  0.15294330000E+03 0.  0.
<mgrwt>
<rscale>  0 0.66908931E+03</rscale>
<asrwt>0</asrwt>
<pdfrwt beam="1">  1        2 0.46122352E+00 0.77338796E+03</pdfrwt>
<pdfrwt beam="2">  1       -2 0.46797049E-01 0.77338796E+03</pdfrwt>
<totfact> 0.80108061E+00</totfact>
</mgrwt>
</event>
<event>
 4    1  0.3565372E-007  0.1072398E+04  0.7818608E-02  0.9292428E-01
         -2   -1    0    0    0  501 -0.00000000000E+00  0.00000000000E+00  0.94443932487E+03  0.94443932488E+03  0.25500000000E-02 0.  1.
          2   -1    0    0  501    0  0.00000000000E+00 -0.00000000000E+00 -0.13208507111E+04  0.13208507111E+04  0.25500000000E-02 0. -1.
    8880023    1    1    2    0    0 -0.55259749595E+02 -0.84449585477E+03 -0.76928957971E+03  0.13197892075E+04  0.65864270000E+03 0.  0.
    8880022    1    1    2    0    0  0.55259749595E+02  0.84449585477E+03  0.39287819348E+03  0.94550082844E+03  0.15294330000E+03 0.  0.
<mgrwt>
<rscale>  0 0.10148291E+04</rscale>
<asrwt>0</asrwt>
<pdfrwt beam="1">  1        2 0.20320780E+00 0.10723978E+04</pdfrwt>
<pdfrwt beam="2">  1       -2 0.14529836E+00 0.10723978E+04</pdfrwt>
<totfact> 0.51579583E+00</totfact>
</mgrwt>
</event>
<event>
 4    1  0.3565372E-007  0.7345298E+03  0.7818608E-02  0.9876178E-01
          2   -1    0    0  501    0  0.00000000000E+00  0.00000000000E+00  0.39123368778E+04  0.39123368778E+04  0.25500000000E-02 0. -1.
         -2   -1    0    0    0  501 -0.00000000000E+00 -0.00000000000E+00 -0.14583296437E+03  0.14583296439E+03  0.25500000000E-02 0.  1.
    8880023    1    1    2    0    0 -0.90067852343E+02 -0.31242845089E+03  0.35775765243E+04  0.36522031362E+04  0.65864270000E+03 0.  0.
    8880022    1    1    2    0    0  0.90067852343E+02  0.31242845089E+03  0.18892738912E+03  0.40596670593E+03  0.15294330000E+03 0.  0.
<mgrwt>
<rscale>  0 0.61429829E+03</rscale>
<asrwt>0</asrwt>
<pdfrwt beam="1">  1        2 0.60189792E+00 0.73452976E+03</pdfrwt>
<pdfrwt beam="2">  1       -2 0.22435843E-01 0.73452976E+03</pdfrwt>
<totfact> 0.77120819E+00</totfact>
</mgrwt>
</event>
<event>
 4    1  0.3565372E-007  0.7069509E+03  0.7818608E-02  0.9969502E-01
         -2   -1    0    0    0  501 -0.00000000000E+00  0.00000000000E+00  0.30310369973E+03  0.30310369974E+03  0.25500000000E-02 0.  1.
          2   -1    0    0  501    0  0.00000000000E+00 -0.00000000000E+00 -0.30431633654E+04  0.30431633654E+04  0.25500000000E-02 0. -1.
    8880023    1    1    2    0    0  0.25376713898E+03  0.39644125052E+02 -0.29152751273E+04  0.29997681063E+04  0.65864270000E+03 0. -1.
    8880022    1    1    2    0    0 -0.25376713898E+03 -0.39644125052E+02  0.17521546162E+03  0.34649895885E+03  0.15294330000E+03 0.  0.
<mgrwt>
<rscale>  0 0.57007960E+03</rscale>
<asrwt>0</asrwt>
<pdfrwt beam="1">  1        2 0.46817896E+00 0.70695093E+03</pdfrwt>
<pdfrwt beam="2">  1       -2 0.46631340E-01 0.70695093E+03</pdfrwt>
<totfact> 0.76631655E+00</totfact>
</mgrwt>
</event>
<event>
 4    1  0.3565372E-007  0.7314485E+03  0.7818608E-02  0.9885596E-01
          2   -1    0    0  501    0  0.00000000000E+00  0.00000000000E+00  0.11322476308E+04  0.11322476308E+04  0.25500000000E-02 0. -1.
         -2   -1    0    0    0  501 -0.00000000000E+00 -0.00000000000E+00 -0.30894819257E+03  0.30894819258E+03  0.25500000000E-02 0.  1.
    8880023    1    1    2    0    0 -0.31086965866E+03  0.67578110430E+02  0.80508642086E+03  0.10877412822E+04  0.65864270000E+03 0.  0.
    8880022    1    1    2    0    0  0.31086965866E+03 -0.67578110430E+02  0.18213017404E+02  0.35345454121E+03  0.15294330000E+03 0.  0.
<mgrwt>
<rscale>  0 0.60964482E+03</rscale>
<asrwt>0</asrwt>
<pdfrwt beam="1">  1        2 0.17419194E+00 0.73144853E+03</pdfrwt>
<pdfrwt beam="2">  1       -2 0.47530491E-01 0.73144853E+03</pdfrwt>
<totfact> 0.88761800E+01</totfact>
</mgrwt>
</event>
<event>
 4    1  0.3565372E-007  0.7157506E+03  0.7818608E-02  0.9937236E-01
         -2   -1    0    0    0  501 -0.00000000000E+00  0.00000000000E+00  0.35512686840E+03  0.35512686841E+03  0.25500000000E-02 0.  1.
          2   -1    0    0  501    0  0.00000000000E+00 -0.00000000000E+00 -0.15952622150E+04  0.15952622150E+04  0.25500000000E-02 0. -1.
    8880023    1    1    2    0    0 -0.77193246225E+02 -0.26931373664E+03 -0.14155215335E+04  0.15861904376E+04  0.65864270000E+03 0. -1.
    8880022    1    1    2    0    0  0.77193246225E+02  0.26931373664E+03  0.17538618699E+03  0.36419864581E+03  0.15294330000E+03 0.  0.
<mgrwt>
<rscale>  0 0.58490129E+03</rscale>
<asrwt>0</asrwt>
<pdfrwt beam="1">  1        2 0.24542495E+00 0.71575058E+03</pdfrwt>
<pdfrwt beam="2">  1       -2 0.54634904E-01 0.71575058E+03</pdfrwt>
<totfact> 0.36375787E+01</totfact>
</mgrwt>
</event>
<event>
 4    1  0.3565372E-007  0.8690426E+03  0.7818608E-02  0.9577676E-01
         -2   -1    0    0    0  501 -0.00000000000E+00  0.00000000000E+00  0.71432312408E+03  0.71432312408E+03  0.25500000000E-02 0.  1.
          2   -1    0    0  501    0  0.00000000000E+00 -0.00000000000E+00 -0.98098042983E+03  0.98098042983E+03  0.25500000000E-02 0. -1.
    8880023    1    1    2    0    0 -0.33669467454E+03  0.45613757523E+03 -0.56508831352E+03  0.10366097625E+04  0.65864270000E+03 0.  0.
    8880022    1    1    2    0    0  0.33669467454E+03 -0.45613757523E+03  0.29843100778E+03  0.65869379140E+03  0.15294330000E+03 0.  0.
<mgrwt>
<rscale>  0 0.78791485E+03</rscale>
<asrwt>0</asrwt>
<pdfrwt beam="1">  1        2 0.15092007E+00 0.86904258E+03</pdfrwt>
<pdfrwt beam="2">  1       -2 0.10989587E+00 0.86904258E+03</pdfrwt>
<totfact> 0.17140901E+01</totfact>
</mgrwt>
</event>
<event>
 4    1  0.3565372E-007  0.6966242E+03  0.7818608E-02  0.1001150E+00
         -2   -1    0    0    0  501 -0.00000000000E+00  0.00000000000E+00  0.13359635101E+04  0.13359635101E+04  0.25500000000E-02 0.  1.
          2   -1    0    0  501    0  0.00000000000E+00 -0.00000000000E+00 -0.61889555220E+03  0.61889555221E+03  0.25500000000E-02 0. -1.
    8880023    1    1    2    0    0  0.18331732989E+03  0.13367818227E+03 -0.40100174363E+03  0.80379581021E+03  0.65864270000E+03 0. -1.
    8880022    1    1    2    0    0 -0.18331732989E+03 -0.13367818227E+03  0.11180697015E+04  0.11510632521E+04  0.15294330000E+03 0.  0.
<mgrwt>
<rscale>  0 0.55148671E+03</rscale>
<asrwt>0</asrwt>
<pdfrwt beam="1">  1        2 0.95214702E-01 0.69662422E+03</pdfrwt>
<pdfrwt beam="2">  1       -2 0.20553284E+00 0.69662422E+03</pdfrwt>
<totfact> 0.60095597E+00</totfact>
</mgrwt>
</event>
<event>
 4    1  0.3565372E-007  0.6819929E+03  0.7818608E-02  0.1008218E+00
          2   -1    0    0  501    0  0.00000000000E+00  0.00000000000E+00  0.47450647524E+03  0.47450647525E+03  0.25500000000E-02 0. -1.
         -2   -1    0    0    0  501 -0.00000000000E+00 -0.00000000000E+00 -0.65279005719E+03  0.65279005720E+03  0.25500000000E-02 0.  1.
    8880023    1    1    2    0    0  0.15713276599E+03  0.81322848427E+02  0.17456429081E+03  0.70397941001E+03  0.65864270000E+03 0.  0.
    8880022    1    1    2    0    0 -0.15713276599E+03 -0.81322848427E+02 -0.35284787276E+03  0.42331712244E+03  0.15294330000E+03 0.  0.
<mgrwt>
<rscale>  0 0.52189015E+03</rscale>
<asrwt>0</asrwt>
<pdfrwt beam="1">  1        2 0.73000996E-01 0.68199290E+03</pdfrwt>
<pdfrwt beam="2">  1       -2 0.10042924E+00 0.68199290E+03</pdfrwt>
<totfact> 0.54364249E+01</totfact>
</mgrwt>
</event>
<event>
 4    1  0.3565372E-007  0.1179484E+04  0.7818608E-02  0.9177328E-01
          2   -1    0    0  501    0  0.00000000000E+00  0.00000000000E+00  0.21418624030E+04  0.21418624030E+04  0.25500000000E-02 0. -1.
         -2   -1    0    0    0  501 -0.00000000000E+00 -0.00000000000E+00 -0.61101881884E+03  0.61101881884E+03  0.25500000000E-02 0.  1.
    8880023    1    1    2    0    0  0.38429333319E+03  0.89982794998E+03  0.12605639911E+04  0.17263265877E+04  0.65864270000E+03 0.  0.
    8880022    1    1    2    0    0 -0.38429333319E+03 -0.89982794998E+03  0.27027959311E+03  0.10265546342E+04  0.15294330000E+03 0.  0.
<mgrwt>
<rscale>  0 0.11290534E+04</rscale>
<asrwt>0</asrwt>
<pdfrwt beam="1">  1        2 0.32951730E+00 0.11794837E+04</pdfrwt>
<pdfrwt beam="2">  1       -2 0.94002893E-01 0.11794837E+04</pdfrwt>
<totfact> 0.52267437E+00</totfact>
</mgrwt>
</event>
<event>
 4    1  0.3565372E-007  0.7246488E+03  0.7818608E-02  0.9907159E-01
          2   -1    0    0  501    0  0.00000000000E+00  0.00000000000E+00  0.16465142324E+04  0.16465142324E+04  0.25500000000E-02 0. -1.
         -2   -1    0    0    0  501 -0.00000000000E+00 -0.00000000000E+00 -0.31731783456E+03  0.31731783457E+03  0.25500000000E-02 0.  1.
    8880023    1    1    2    0    0  0.25676951209E+03  0.15929549433E+03  0.14362003463E+04  0.16086600877E+04  0.65864270000E+03 0. -1.
    8880022    1    1    2    0    0 -0.25676951209E+03 -0.15929549433E+03 -0.10700394844E+03  0.35517197926E+03  0.15294330000E+03 0.  0.
<mgrwt>
<rscale>  0 0.59915587E+03</rscale>
<asrwt>0</asrwt>
<pdfrwt beam="1">  1        2 0.25330988E+00 0.72464877E+03</pdfrwt>
<pdfrwt beam="2">  1       -2 0.48818129E-01 0.72464877E+03</pdfrwt>
<totfact> 0.42885031E+01</totfact>
</mgrwt>
</event>
<event>
 4    1  0.3565372E-007  0.7534208E+03  0.7818608E-02  0.9822448E-01
          2   -1    0    0  501    0  0.00000000000E+00  0.00000000000E+00  0.97199191117E+03  0.97199191117E+03  0.25500000000E-02 0. -1.
         -2   -1    0    0    0  501 -0.00000000000E+00 -0.00000000000E+00 -0.17595159789E+04  0.17595159789E+04  0.25500000000E-02 0.  1.
    8880023    1    1    2    0    0  0.14618887571E+03  0.33535278730E+03  0.79781238372E+03  0.10973365415E+04  0.65864270000E+03 0. -1.
    8880022    1    1    2    0    0 -0.14618887571E+03 -0.33535278730E+03 -0.15853364515E+04  0.16341713486E+04  0.15294330000E+03 0.  0.
<mgrwt>
<rscale>  0 0.64171645E+03</rscale>
<asrwt>0</asrwt>
<pdfrwt beam="1">  1        2 0.14953722E+00 0.75342079E+03</pdfrwt>
<pdfrwt beam="2">  1       -2 0.27069477E+00 0.75342079E+03</pdfrwt>
<totfact> 0.13083913E+00</totfact>
</mgrwt>
</event>
<event>
 4    1  0.3565372E-007  0.7368270E+03  0.7818608E-02  0.9869288E-01
          2   -1    0    0  501    0  0.00000000000E+00  0.00000000000E+00  0.16731501012E+04  0.16731501012E+04  0.25500000000E-02 0. -1.
         -2   -1    0    0    0  501 -0.00000000000E+00 -0.00000000000E+00 -0.18435583389E+03  0.18435583391E+03  0.25500000000E-02 0.  1.
    8880023    1    1    2    0    0 -0.24100873265E+03 -0.22587284596E+03  0.11088421733E+04  0.13313320109E+04  0.65864270000E+03 0.  0.
    8880022    1    1    2    0    0  0.24100873265E+03  0.22587284596E+03  0.37995209406E+03  0.52617392424E+03  0.15294330000E+03 0.  1.
<mgrwt>
<rscale>  0 0.61773076E+03</rscale>
<asrwt>0</asrwt>
<pdfrwt beam="1">  1        2 0.25740770E+00 0.73682695E+03</pdfrwt>
<pdfrwt beam="2">  1       -2 0.28362437E-01 0.73682695E+03</pdfrwt>
<totfact> 0.11791622E+02</totfact>
</mgrwt>
</event>
<event>
 4    1  0.3565372E-007  0.7054928E+03  0.7818608E-02  0.9975135E-01
         -2   -1    0    0    0  501 -0.00000000000E+00  0.00000000000E+00  0.13175136078E+03  0.13175136081E+03  0.25500000000E-02 0.  1.
          2   -1    0    0  501    0  0.00000000000E+00 -0.00000000000E+00 -0.20196461738E+04  0.20196461738E+04  0.25500000000E-02 0. -1.
    8880023    1    1    2    0    0  0.20794761232E+03  0.14376258329E+03 -0.15470166132E+04  0.17002883572E+04  0.65864270000E+03 0. -1.
    8880022    1    1    2    0    0 -0.20794761232E+03 -0.14376258329E+03 -0.34087819984E+03  0.45110917744E+03  0.15294330000E+03 0.  0.
<mgrwt>
<rscale>  0 0.56754092E+03</rscale>
<asrwt>0</asrwt>
<pdfrwt beam="1">  1        2 0.31071477E+00 0.70549280E+03</pdfrwt>
<pdfrwt beam="2">  1       -2 0.20269442E-01 0.70549280E+03</pdfrwt>
<totfact> 0.13986957E+02</totfact>
</mgrwt>
</event>
<event>
 4    1  0.5538870E-007  0.8416591E+03  0.7818608E-02  0.9627060E-01
         -2   -1    0    0    0  501 -0.00000000000E+00  0.00000000000E+00  0.18749872420E+04  0.18749872420E+04  0.25500000000E-02 0.  1.
          2   -1    0    0  501    0  0.00000000000E+00 -0.00000000000E+00 -0.15910945473E+04  0.15910945473E+04  0.25500000000E-02 0. -1.
    8880023    1    1    2    0    0 -0.30494844286E+03 -0.42612946236E+03 -0.14344383220E+04  0.16631305954E+04  0.65864270000E+03 0. -1.
    8880022    1    1    2    0    0  0.30494844286E+03  0.42612946236E+03  0.17183310167E+04  0.18029511938E+04  0.15294330000E+03 0.  0.
<mgrwt>
<rscale>  0 0.75530789E+03</rscale>
<asrwt>0</asrwt>
<pdfrwt beam="1">  1        2 0.24478378E+00 0.84165912E+03</pdfrwt>
<pdfrwt beam="2">  1       -2 0.28845957E+00 0.84165912E+03</pdfrwt>
<totfact> 0.43591195E-01</totfact>
</mgrwt>
</event>
<event>
 4    1  0.3565372E-007  0.7462654E+03  0.7818608E-02  0.9842058E-01
          2   -1    0    0  501    0  0.00000000000E+00  0.00000000000E+00  0.23191396508E+04  0.23191396508E+04  0.25500000000E-02 0. -1.
         -2   -1    0    0    0  501 -0.00000000000E+00 -0.00000000000E+00 -0.17027658482E+03  0.17027658484E+03  0.25500000000E-02 0.  1.
    8880023    1    1    2    0    0  0.33447786093E+03  0.10595497107E+03  0.83009972435E+03  0.11162336915E+04  0.65864270000E+03 0.  1.
    8880022    1    1    2    0    0 -0.33447786093E+03 -0.10595497107E+03  0.13187633416E+04  0.13731825441E+04  0.15294330000E+03 0.  0.
<mgrwt>
<rscale>  0 0.63153483E+03</rscale>
<asrwt>0</asrwt>
<pdfrwt beam="1">  1        2 0.35679070E+00 0.74626544E+03</pdfrwt>
<pdfrwt beam="2">  1       -2 0.26196399E-01 0.74626544E+03</pdfrwt>
<totfact> 0.60305443E+01</totfact>
</mgrwt>
</event>
<event>
 4    1  0.3565372E-007  0.8660905E+03  0.7818608E-02  0.9582820E-01
         -2   -1    0    0    0  501 -0.00000000000E+00  0.00000000000E+00  0.90026200415E+03  0.90026200416E+03  0.25500000000E-02 0.  1.
          2   -1    0    0  501    0  0.00000000000E+00 -0.00000000000E+00 -0.88091910472E+03  0.88091910472E+03  0.25500000000E-02 0. -1.
    8880023    1    1    2    0    0 -0.42724375150E+03 -0.36573936097E+03 -0.50040909468E+03  0.10002609518E+04  0.65864270000E+03 0.  0.
    8880022    1    1    2    0    0  0.42724375150E+03  0.36573936097E+03  0.51975199412E+03  0.78092015709E+03  0.15294330000E+03 0.  0.
<mgrwt>
<rscale>  0 0.78443770E+03</rscale>
<asrwt>0</asrwt>
<pdfrwt beam="1">  1        2 0.13552602E+00 0.86609047E+03</pdfrwt>
<pdfrwt beam="2">  1       -2 0.13850185E+00 0.86609047E+03</pdfrwt>
<totfact> 0.11203396E+01</totfact>
</mgrwt>
</event>
<event>
 4    1  0.3565372E-007  0.9280369E+03  0.7818608E-02  0.9482444E-01
          2   -1    0    0  501    0  0.00000000000E+00  0.00000000000E+00  0.15535882948E+04  0.15535882948E+04  0.25500000000E-02 0. -1.
         -2   -1    0    0    0  501 -0.00000000000E+00 -0.00000000000E+00 -0.67717229880E+03  0.67717229880E+03  0.25500000000E-02 0.  1.
    8880023    1    1    2    0    0  0.14595482158E+03 -0.63729079887E+03  0.11738513800E+04  0.14963888669E+04  0.65864270000E+03 0. -1.
    8880022    1    1    2    0    0 -0.14595482158E+03  0.63729079887E+03 -0.29743538405E+03  0.73437172670E+03  0.15294330000E+03 0.  0.
<mgrwt>
<rscale>  0 0.85590593E+03</rscale>
<asrwt>0</asrwt>
<pdfrwt beam="1">  1        2 0.23901358E+00 0.92803695E+03</pdfrwt>
<pdfrwt beam="2">  1       -2 0.10418036E+00 0.92803695E+03</pdfrwt>
<totfact> 0.88984819E+00</totfact>
</mgrwt>
</event>
<event>
 4    1  0.3565372E-007  0.8947970E+03  0.7818608E-02  0.9534436E-01
         -2   -1    0    0    0  501 -0.00000000000E+00  0.00000000000E+00  0.79488483226E+03  0.79488483226E+03  0.25500000000E-02 0.  1.
          2   -1    0    0  501    0  0.00000000000E+00 -0.00000000000E+00 -0.10048596169E+04  0.10048596169E+04  0.25500000000E-02 0. -1.
    8880023    1    1    2    0    0  0.22731081933E+03  0.56141005342E+03 -0.58694233360E+03  0.10701228742E+04  0.65864270000E+03 0. -1.
    8880022    1    1    2    0    0 -0.22731081933E+03 -0.56141005342E+03  0.37696754896E+03  0.72962157496E+03  0.15294330000E+03 0.  0.
<mgrwt>
<rscale>  0 0.81791899E+03</rscale>
<asrwt>0</asrwt>
<pdfrwt beam="1">  1        2 0.15459379E+00 0.89479700E+03</pdfrwt>
<pdfrwt beam="2">  1       -2 0.12228997E+00 0.89479700E+03</pdfrwt>
<totfact> 0.12691543E+01</totfact>
</mgrwt>
</event>
<event>
 4    1  0.3565372E-007  0.8232456E+03  0.7818608E-02  0.9662620E-01
         -2   -1    0    0    0  501 -0.00000000000E+00  0.00000000000E+00  0.14740420635E+04  0.14740420635E+04  0.25500000000E-02 0.  1.
          2   -1    0    0  501    0  0.00000000000E+00 -0.00000000000E+00 -0.61634637970E+03  0.61634637970E+03  0.25500000000E-02 0. -1.
    8880023    1    1    2    0    0  0.32411196554E+03 -0.37265872408E+03 -0.25633281821E+03  0.86222955806E+03  0.65864270000E+03 0. -1.
    8880022    1    1    2    0    0 -0.32411196554E+03  0.37265872408E+03  0.11140285020E+04  0.12281588851E+04  0.15294330000E+03 0.  0.
<mgrwt>
<rscale>  0 0.73286659E+03</rscale>
<asrwt>0</asrwt>
<pdfrwt beam="1">  1        2 0.94822520E-01 0.82324559E+03</pdfrwt>
<pdfrwt beam="2">  1       -2 0.22677570E+00 0.82324559E+03</pdfrwt>
<totfact> 0.43667983E+00</totfact>
</mgrwt>
</event>
<event>
 4    1  0.3565372E-007  0.1289068E+04  0.7818608E-02  0.9075059E-01
         -2   -1    0    0    0  501 -0.00000000000E+00  0.00000000000E+00  0.51542202329E+03  0.51542202330E+03  0.25500000000E-02 0.  1.
          2   -1    0    0  501    0  0.00000000000E+00 -0.00000000000E+00 -0.29442744719E+04  0.29442744719E+04  0.25500000000E-02 0. -1.
    8880023    1    1    2    0    0 -0.77248328451E+03  0.79445255292E+03 -0.93037211818E+03  0.15897445607E+04  0.65864270000E+03 0.  0.
    8880022    1    1    2    0    0  0.77248328451E+03 -0.79445255292E+03 -0.14984803304E+04  0.18699519345E+04  0.15294330000E+03 0.  0.
<mgrwt>
<rscale>  0 0.12441592E+04</rscale>
<asrwt>0</asrwt>
<pdfrwt beam="1">  1        2 0.45296529E+00 0.12890677E+04</pdfrwt>
<pdfrwt beam="2">  1       -2 0.79295698E-01 0.12890677E+04</pdfrwt>
<totfact> 0.26125033E+00</totfact>
</mgrwt>
</event>
<event>
 4    1  0.3565372E-007  0.6634199E+03  0.7818608E-02  0.1020898E+00
         -2   -1    0    0    0  501 -0.00000000000E+00  0.00000000000E+00  0.81193665131E+03  0.81193665132E+03  0.25500000000E-02 0.  1.
          2   -1    0    0  501    0  0.00000000000E+00 -0.00000000000E+00 -0.41311735048E+03  0.41311735049E+03  0.25500000000E-02 0. -1.
    8880023    1    1    2    0    0 -0.42733648525E+02 -0.67004279080E+02 -0.12368914354E+03  0.67485179753E+03  0.65864270000E+03 0. -1.
    8880022    1    1    2    0    0  0.42733648525E+02  0.67004279080E+02  0.52250844438E+03  0.55020220428E+03  0.15294330000E+03 0.  0.
<mgrwt>
<rscale>  0 0.47364115E+03</rscale>
<asrwt>0</asrwt>
<pdfrwt beam="1">  1        2 0.63556515E-01 0.66341989E+03</pdfrwt>
<pdfrwt beam="2">  1       -2 0.12491333E+00 0.66341989E+03</pdfrwt>
<totfact> 0.37491830E+01</totfact>
</mgrwt>
</event>
<event>
 4    1  0.3565372E-007  0.7253772E+03  0.7818608E-02  0.9904794E-01
         -2   -1    0    0    0  501 -0.00000000000E+00  0.00000000000E+00  0.73076337656E+03  0.73076337657E+03  0.25500000000E-02 0.  1.
          2   -1    0    0  501    0  0.00000000000E+00 -0.00000000000E+00 -0.46239548380E+03  0.46239548381E+03  0.25500000000E-02 0. -1.
    8880023    1    1    2    0    0  0.16924603470E+03 -0.25242342536E+03 -0.50143814886E+02  0.72710825492E+03  0.65864270000E+03 0. -1.
    8880022    1    1    2    0    0 -0.16924603470E+03  0.25242342536E+03  0.31851170764E+03  0.46605060546E+03  0.15294330000E+03 0.  0.
<mgrwt>
<rscale>  0 0.60029490E+03</rscale>
<asrwt>0</asrwt>
<pdfrwt beam="1">  1        2 0.71137767E-01 0.72537715E+03</pdfrwt>
<pdfrwt beam="2">  1       -2 0.11242513E+00 0.72537715E+03</pdfrwt>
<totfact> 0.42570927E+01</totfact>
</mgrwt>
</event>
<event>
 4    1  0.3565372E-007  0.6869912E+03  0.7818608E-02  0.1005617E+00
          2   -1    0    0  501    0  0.00000000000E+00  0.00000000000E+00  0.12709038868E+04  0.12709038868E+04  0.25500000000E-02 0. -1.
         -2   -1    0    0    0  501 -0.00000000000E+00 -0.00000000000E+00 -0.25344392489E+03  0.25344392490E+03  0.25500000000E-02 0.  1.
    8880023    1    1    2    0    0  0.87254920160E+02  0.17473792104E+03  0.10692538954E+04  0.12709291331E+04  0.65864270000E+03 0.  0.
    8880022    1    1    2    0    0 -0.87254920160E+02 -0.17473792104E+03 -0.51793933469E+02  0.25341867868E+03  0.15294330000E+03 0.  0.
<mgrwt>
<rscale>  0 0.53254546E+03</rscale>
<asrwt>0</asrwt>
<pdfrwt beam="1">  1        2 0.19552368E+00 0.68699124E+03</pdfrwt>
<pdfrwt beam="2">  1       -2 0.38991373E-01 0.68699124E+03</pdfrwt>
<totfact> 0.10911436E+02</totfact>
</mgrwt>
</event>
<event>
 4    1  0.3565372E-007  0.7057198E+03  0.7818608E-02  0.9974252E-01
          2   -1    0    0  501    0  0.00000000000E+00  0.00000000000E+00  0.11345612533E+04  0.11345612533E+04  0.25500000000E-02 0. -1.
         -2   -1    0    0    0  501 -0.00000000000E+00 -0.00000000000E+00 -0.59750990553E+03  0.59750990553E+03  0.25500000000E-02 0.  1.
    8880023    1    1    2    0    0 -0.22874567391E+03  0.10911320127E+03  0.97491646815E+03  0.12035375358E+04  0.65864270000E+03 0. -1.
    8880022    1    1    2    0    0  0.22874567391E+03 -0.10911320127E+03 -0.43786512036E+03  0.52853362302E+03  0.15294330000E+03 0.  0.
<mgrwt>
<rscale>  0 0.56793789E+03</rscale>
<asrwt>0</asrwt>
<pdfrwt beam="1">  1        2 0.17454789E+00 0.70571983E+03</pdfrwt>
<pdfrwt beam="2">  1       -2 0.91924601E-01 0.70571983E+03</pdfrwt>
<totfact> 0.21361242E+01</totfact>
</mgrwt>
</event>
<event>
 4    1  0.3565372E-007  0.7086400E+03  0.7818608E-02  0.9963086E-01
          2   -1    0    0  501    0  0.00000000000E+00  0.00000000000E+00  0.63962851700E+03  0.63962851700E+03  0.25500000000E-02 0. -1.
         -2   -1    0    0    0  501 -0.00000000000E+00 -0.00000000000E+00 -0.58131397069E+03  0.58131397069E+03  0.25500000000E-02 0.  1.
    8880023    1    1    2    0    0  0.21464117985E+03  0.14929695321E+03  0.35878237344E+03  0.79428925089E+03  0.65864270000E+03 0. -1.
    8880022    1    1    2    0    0 -0.21464117985E+03 -0.14929695321E+03 -0.30046782713E+03  0.42665323681E+03  0.15294330000E+03 0.  0.
<mgrwt>
<rscale>  0 0.57298892E+03</rscale>
<asrwt>0</asrwt>
<pdfrwt beam="1">  1        2 0.98404387E-01 0.70863998E+03</pdfrwt>
<pdfrwt beam="2">  1       -2 0.89432918E-01 0.70863998E+03</pdfrwt>
<totfact> 0.49954142E+01</totfact>
</mgrwt>
</event>
<event>
 4    1  0.3565372E-007  0.9513410E+03  0.7818608E-02  0.9448187E-01
         -2   -1    0    0    0  501 -0.00000000000E+00  0.00000000000E+00  0.37371944017E+03  0.37371944018E+03  0.25500000000E-02 0.  1.
          2   -1    0    0  501    0  0.00000000000E+00 -0.00000000000E+00 -0.28864588869E+04  0.28864588869E+04  0.25500000000E-02 0. -1.
    8880023    1    1    2    0    0 -0.40580309170E+03 -0.55368162500E+03 -0.23543068275E+04  0.25392538935E+04  0.65864270000E+03 0.  0.
    8880022    1    1    2    0    0  0.40580309170E+03  0.55368162500E+03 -0.15843261918E+03  0.72092443358E+03  0.15294330000E+03 0.  0.
<mgrwt>
<rscale>  0 0.88213965E+03</rscale>
<asrwt>0</asrwt>
<pdfrwt beam="1">  1        2 0.44407058E+00 0.95134100E+03</pdfrwt>
<pdfrwt beam="2">  1       -2 0.57495300E-01 0.95134100E+03</pdfrwt>
<totfact> 0.59607775E+00</totfact>
</mgrwt>
</event>
<event>
 4    1  0.3565372E-007  0.7510791E+03  0.7818608E-02  0.9828776E-01
          2   -1    0    0  501    0  0.00000000000E+00  0.00000000000E+00  0.87205606882E+03  0.87205606883E+03  0.25500000000E-02 0. -1.
         -2   -1    0    0    0  501 -0.00000000000E+00 -0.00000000000E+00 -0.87227026421E+03  0.87227026422E+03  0.25500000000E-02 0.  1.
    8880023    1    1    2    0    0 -0.35996113005E+03 -0.27157672164E+02  0.64454750076E+03  0.98972786224E+03  0.65864270000E+03 0.  0.
    8880022    1    1    2    0    0  0.35996113005E+03  0.27157672164E+02 -0.64476169615E+03  0.75459847080E+03  0.15294330000E+03 0.  0.
<mgrwt>
<rscale>  0 0.63840885E+03</rscale>
<asrwt>0</asrwt>
<pdfrwt beam="1">  1        2 0.13416247E+00 0.75107906E+03</pdfrwt>
<pdfrwt beam="2">  1       -2 0.13419543E+00 0.75107906E+03</pdfrwt>
<totfact> 0.12468497E+01</totfact>
</mgrwt>
</event>
<event>
 4    1  0.3565372E-007  0.6668518E+03  0.7818608E-02  0.1018028E+00
          2   -1    0    0  501    0  0.00000000000E+00  0.00000000000E+00  0.10438817594E+04  0.10438817594E+04  0.25500000000E-02 0. -1.
         -2   -1    0    0    0  501 -0.00000000000E+00 -0.00000000000E+00 -0.28260155731E+03  0.28260155732E+03  0.25500000000E-02 0.  1.
    8880023    1    1    2    0    0 -0.92736123223E+02  0.47761559870E+02  0.88181574545E+03  0.11055724175E+04  0.65864270000E+03 0.  0.
    8880022    1    1    2    0    0  0.92736123223E+02 -0.47761559870E+02 -0.12053554338E+03  0.22091089920E+03  0.15294330000E+03 0.  1.
<mgrwt>
<rscale>  0 0.48405055E+03</rscale>
<asrwt>0</asrwt>
<pdfrwt beam="1">  1        2 0.16059719E+00 0.66685183E+03</pdfrwt>
<pdfrwt beam="2">  1       -2 0.43477163E-01 0.66685183E+03</pdfrwt>
<totfact> 0.12077314E+02</totfact>
</mgrwt>
</event>
<event>
 4    1  0.3565372E-007  0.8306996E+03  0.7818608E-02  0.9647973E-01
         -2   -1    0    0    0  501 -0.00000000000E+00  0.00000000000E+00  0.36454755773E+03  0.36454755773E+03  0.25500000000E-02 0.  1.
          2   -1    0    0  501    0  0.00000000000E+00 -0.00000000000E+00 -0.22666424923E+04  0.22666424923E+04  0.25500000000E-02 0. -1.
    8880023    1    1    2    0    0  0.43450206557E+03  0.25972988203E+03 -0.19304735247E+04  0.21016160193E+04  0.65864270000E+03 0.  0.
    8880022    1    1    2    0    0 -0.43450206557E+03 -0.25972988203E+03  0.28378590190E+02  0.52957403071E+03  0.15294330000E+03 0.  0.
<mgrwt>
<rscale>  0 0.74200796E+03</rscale>
<asrwt>0</asrwt>
<pdfrwt beam="1">  1        2 0.34871422E+00 0.83069962E+03</pdfrwt>
<pdfrwt beam="2">  1       -2 0.56084241E-01 0.83069962E+03</pdfrwt>
<totfact> 0.14546946E+01</totfact>
</mgrwt>
</event>
<event>
 4    1  0.3565372E-007  0.9848034E+03  0.7818608E-02  0.9401715E-01
         -2   -1    0    0    0  501 -0.00000000000E+00  0.00000000000E+00  0.12466445709E+04  0.12466445709E+04  0.25500000000E-02 0.  1.
          2   -1    0    0  501    0  0.00000000000E+00 -0.00000000000E+00 -0.67944087852E+03  0.67944087852E+03  0.25500000000E-02 0. -1.
    8880023    1    1    2    0    0 -0.71616997400E+03 -0.15207911138E+03 -0.42640825383E+01  0.98481260981E+03  0.65864270000E+03 0.  0.
    8880022    1    1    2    0    0  0.71616997400E+03  0.15207911138E+03  0.57146777488E+03  0.94127283957E+03  0.15294330000E+03 0.  0.
<mgrwt>
<rscale>  0 0.91934668E+03</rscale>
<asrwt>0</asrwt>
<pdfrwt beam="1">  1        2 0.10452937E+00 0.98480338E+03</pdfrwt>
<pdfrwt beam="2">  1       -2 0.19179147E+00 0.98480338E+03</pdfrwt>
<totfact> 0.63801401E+00</totfact>
</mgrwt>
</event>
<event>
 4    1  0.3565372E-007  0.8906478E+03  0.7818608E-02  0.9541215E-01
         -2   -1    0    0    0  501 -0.00000000000E+00  0.00000000000E+00  0.30305975130E+03  0.30305975131E+03  0.25500000000E-02 0.  1.
          2   -1    0    0  501    0  0.00000000000E+00 -0.00000000000E+00 -0.28338761066E+04  0.28338761066E+04  0.25500000000E-02 0. -1.
    8880023    1    1    2    0    0  0.14260756030E+02 -0.59936621347E+03 -0.23170182247E+04  0.24823027388E+04  0.65864270000E+03 0. -1.
    8880022    1    1    2    0    0 -0.14260756030E+02  0.59936621347E+03 -0.21379813060E+03  0.65463311914E+03  0.15294330000E+03 0.  1.
<mgrwt>
<rscale>  0 0.81312240E+03</rscale>
<asrwt>0</asrwt>
<pdfrwt beam="1">  1        2 0.43598092E+00 0.89064776E+03</pdfrwt>
<pdfrwt beam="2">  1       -2 0.46624579E-01 0.89064776E+03</pdfrwt>
<totfact> 0.99506904E+00</totfact>
</mgrwt>
</event>
<event>
 4    1  0.3565372E-007  0.7086271E+03  0.7818608E-02  0.9963135E-01
          2   -1    0    0  501    0  0.00000000000E+00  0.00000000000E+00  0.23742282806E+04  0.23742282806E+04  0.25500000000E-02 0. -1.
         -2   -1    0    0    0  501 -0.00000000000E+00 -0.00000000000E+00 -0.44920558749E+03  0.44920558749E+03  0.25500000000E-02 0.  1.
    8880023    1    1    2    0    0 -0.25807972707E+03 -0.41677835900E+02  0.22619688643E+04  0.23703703375E+04  0.65864270000E+03 0.  0.
    8880022    1    1    2    0    0  0.25807972707E+03  0.41677835900E+02 -0.33694617115E+03  0.45306353064E+03  0.15294330000E+03 0.  0.
<mgrwt>
<rscale>  0 0.57296689E+03</rscale>
<asrwt>0</asrwt>
<pdfrwt beam="1">  1        2 0.36526589E+00 0.70862712E+03</pdfrwt>
<pdfrwt beam="2">  1       -2 0.69108553E-01 0.70862712E+03</pdfrwt>
<totfact> 0.82783434E+00</totfact>
</mgrwt>
</event>
<event>
 4    1  0.3565372E-007  0.1022899E+04  0.7818608E-02  0.9352193E-01
         -2   -1    0    0    0  501 -0.00000000000E+00  0.00000000000E+00  0.36561041640E+03  0.36561041640E+03  0.25500000000E-02 0.  1.
          2   -1    0    0  501    0  0.00000000000E+00 -0.00000000000E+00 -0.26482876966E+04  0.26482876966E+04  0.25500000000E-02 0. -1.
    8880023    1    1    2    0    0  0.29634971189E+03 -0.72435411605E+03 -0.18312032511E+04  0.20975289248E+04  0.65864270000E+03 0. -1.
    8880022    1    1    2    0    0 -0.29634971189E+03  0.72435411605E+03 -0.45147402911E+03  0.91636918823E+03  0.15294330000E+03 0.  0.
<mgrwt>
<rscale>  0 0.96116614E+03</rscale>
<asrwt>0</asrwt>
<pdfrwt beam="1">  1        2 0.40742886E+00 0.10228989E+04</pdfrwt>
<pdfrwt beam="2">  1       -2 0.56247758E-01 0.10228989E+04</pdfrwt>
<totfact> 0.85569500E+00</totfact>
</mgrwt>
</event>
<event>
 4    1  0.3565372E-007  0.7251898E+03  0.7818608E-02  0.9905401E-01
          2   -1    0    0  501    0  0.00000000000E+00  0.00000000000E+00  0.10928493459E+04  0.10928493459E+04  0.25500000000E-02 0. -1.
         -2   -1    0    0    0  501 -0.00000000000E+00 -0.00000000000E+00 -0.27404573736E+03  0.27404573737E+03  0.25500000000E-02 0.  1.
    8880023    1    1    2    0    0 -0.29246615412E+03  0.80954191361E+02  0.40214927380E+03  0.82923113611E+03  0.65864270000E+03 0.  1.
    8880022    1    1    2    0    0  0.29246615412E+03 -0.80954191361E+02  0.41665433475E+03  0.53766394717E+03  0.15294330000E+03 0. -1.
<mgrwt>
<rscale>  0 0.60000228E+03</rscale>
<asrwt>0</asrwt>
<pdfrwt beam="1">  1        2 0.16813067E+00 0.72518979E+03</pdfrwt>
<pdfrwt beam="2">  1       -2 0.42160883E-01 0.72518979E+03</pdfrwt>
<totfact> 0.11914690E+02</totfact>
</mgrwt>
</event>
<event>
 4    1  0.3565372E-007  0.6752739E+03  0.7818608E-02  0.1012134E+00
          2   -1    0    0  501    0  0.00000000000E+00  0.00000000000E+00  0.78414870730E+03  0.78414870730E+03  0.25500000000E-02 0. -1.
         -2   -1    0    0    0  501 -0.00000000000E+00 -0.00000000000E+00 -0.39361796960E+03  0.39361796961E+03  0.25500000000E-02 0.  1.
    8880023    1    1    2    0    0  0.13366757655E+03  0.65708313831E+02  0.58164181344E+03  0.89123622510E+03  0.65864270000E+03 0. -1.
    8880022    1    1    2    0    0 -0.13366757655E+03 -0.65708313831E+02 -0.19111107574E+03  0.28653045181E+03  0.15294330000E+03 0. -1.
<mgrwt>
<rscale>  0 0.50635172E+03</rscale>
<asrwt>0</asrwt>
<pdfrwt beam="1">  1        2 0.12063826E+00 0.67527388E+03</pdfrwt>
<pdfrwt beam="2">  1       -2 0.60556611E-01 0.67527388E+03</pdfrwt>
<totfact> 0.91443579E+01</totfact>
</mgrwt>
</event>
<event>
 4    1  0.3565372E-007  0.6689146E+03  0.7818608E-02  0.1016453E+00
          2   -1    0    0  501    0  0.00000000000E+00  0.00000000000E+00  0.57686997243E+03  0.57686997244E+03  0.25500000000E-02 0. -1.
         -2   -1    0    0    0  501 -0.00000000000E+00 -0.00000000000E+00 -0.63040547033E+03  0.63040547033E+03  0.25500000000E-02 0.  1.
    8880023    1    1    2    0    0  0.88340979168E+02  0.76369821320E+02  0.35384228820E+03  0.75673710719E+03  0.65864270000E+03 0.  0.
    8880022    1    1    2    0    0 -0.88340979168E+02 -0.76369821320E+02 -0.40737778610E+03  0.45053833558E+03  0.15294330000E+03 0.  1.
<mgrwt>
<rscale>  0 0.48988536E+03</rscale>
<asrwt>0</asrwt>
<pdfrwt beam="1">  1        2 0.88749226E-01 0.66891456E+03</pdfrwt>
<pdfrwt beam="2">  1       -2 0.96985457E-01 0.66891456E+03</pdfrwt>
<totfact> 0.47024170E+01</totfact>
</mgrwt>
</event>
<event>
 4    1  0.3565372E-007  0.7581514E+03  0.7818608E-02  0.9809917E-01
          2   -1    0    0  501    0  0.00000000000E+00  0.00000000000E+00  0.22276027401E+03  0.22276027403E+03  0.25500000000E-02 0. -1.
         -2   -1    0    0    0  501 -0.00000000000E+00 -0.00000000000E+00 -0.16358385369E+04  0.16358385369E+04  0.25500000000E-02 0.  1.
    8880023    1    1    2    0    0  0.51363070748E+02 -0.37194778036E+03 -0.66845389787E+03  0.10107542412E+04  0.65864270000E+03 0. -1.
    8880022    1    1    2    0    0 -0.51363070748E+02  0.37194778036E+03 -0.74462436502E+03  0.84784456969E+03  0.15294330000E+03 0.  0.
<mgrwt>
<rscale>  0 0.64833044E+03</rscale>
<asrwt>0</asrwt>
<pdfrwt beam="1">  1        2 0.34270812E-01 0.75815139E+03</pdfrwt>
<pdfrwt beam="2">  1       -2 0.25166746E+00 0.75815139E+03</pdfrwt>
<totfact> 0.98614060E+00</totfact>
</mgrwt>
</event>
<event>
 4    1  0.3565372E-007  0.7292250E+03  0.7818608E-02  0.9892525E-01
          2   -1    0    0  501    0  0.00000000000E+00  0.00000000000E+00  0.28693986568E+04  0.28693986568E+04  0.25500000000E-02 0. -1.
         -2   -1    0    0    0  501 -0.00000000000E+00 -0.00000000000E+00 -0.29331728413E+03  0.29331728414E+03  0.25500000000E-02 0.  1.
    8880023    1    1    2    0    0  0.15917250552E+03  0.26948646666E+03  0.26970973610E+04  0.27939404473E+04  0.65864270000E+03 0.  0.
    8880022    1    1    2    0    0 -0.15917250552E+03 -0.26948646666E+03 -0.12101598834E+03  0.36877549359E+03  0.15294330000E+03 0.  1.
<mgrwt>
<rscale>  0 0.60624943E+03</rscale>
<asrwt>0</asrwt>
<pdfrwt beam="1">  1        2 0.44144592E+00 0.72922496E+03</pdfrwt>
<pdfrwt beam="2">  1       -2 0.45125738E-01 0.72922496E+03</pdfrwt>
<totfact> 0.10385649E+01</totfact>
</mgrwt>
</event>
<event>
 4    1  0.3565372E-007  0.9444724E+03  0.7818608E-02  0.9458112E-01
         -2   -1    0    0    0  501 -0.00000000000E+00  0.00000000000E+00  0.55466770615E+03  0.55466770616E+03  0.25500000000E-02 0.  1.
          2   -1    0    0  501    0  0.00000000000E+00 -0.00000000000E+00 -0.21826749138E+04  0.21826749138E+04  0.25500000000E-02 0. -1.
    8880023    1    1    2    0    0 -0.22890254045E+03  0.63704126182E+03 -0.17907340090E+04  0.20245385745E+04  0.65864270000E+03 0.  0.
    8880022    1    1    2    0    0  0.22890254045E+03 -0.63704126182E+03  0.16272680140E+03  0.71280404544E+03  0.15294330000E+03 0.  0.
<mgrwt>
<rscale>  0 0.87443766E+03</rscale>
<asrwt>0</asrwt>
<pdfrwt beam="1">  1        2 0.33579614E+00 0.94447242E+03</pdfrwt>
<pdfrwt beam="2">  1       -2 0.85333494E-01 0.94447242E+03</pdfrwt>
<totfact> 0.63783890E+00</totfact>
</mgrwt>
</event>
<event>
 4    1  0.3565372E-007  0.7910796E+03  0.7818608E-02  0.9730426E-01
         -2   -1    0    0    0  501 -0.00000000000E+00  0.00000000000E+00  0.20634556606E+03  0.20634556607E+03  0.25500000000E-02 0.  1.
          2   -1    0    0  501    0  0.00000000000E+00 -0.00000000000E+00 -0.19114622359E+04  0.19114622359E+04  0.25500000000E-02 0. -1.
    8880023    1    1    2    0    0 -0.39060696049E+03 -0.19855218825E+03 -0.11126264746E+04  0.13651903338E+04  0.65864270000E+03 0. -1.
    8880022    1    1    2    0    0  0.39060696049E+03  0.19855218825E+03 -0.59249019523E+03  0.75261746824E+03  0.15294330000E+03 0.  1.
<mgrwt>
<rscale>  0 0.69233764E+03</rscale>
<asrwt>0</asrwt>
<pdfrwt beam="1">  1        2 0.29407110E+00 0.79107963E+03</pdfrwt>
<pdfrwt beam="2">  1       -2 0.31745473E-01 0.79107963E+03</pdfrwt>
<totfact> 0.70503890E+01</totfact>
</mgrwt>
</event>
<event>
 4    1  0.3565372E-007  0.9632449E+03  0.7818608E-02  0.9431308E-01
          2   -1    0    0  501    0  0.00000000000E+00  0.00000000000E+00  0.92186711888E+03  0.92186711889E+03  0.25500000000E-02 0. -1.
         -2   -1    0    0    0  501 -0.00000000000E+00 -0.00000000000E+00 -0.18326843225E+04  0.18326843225E+04  0.25500000000E-02 0.  1.
    8880023    1    1    2    0    0 -0.70197298494E+03 -0.35559229438E+02  0.56218274711E+03  0.11152982461E+04  0.65864270000E+03 0. -1.
    8880022    1    1    2    0    0  0.70197298494E+03  0.35559229438E+02 -0.14729999508E+04  0.16392531953E+04  0.15294330000E+03 0.  0.
<mgrwt>
<rscale>  0 0.89543315E+03</rscale>
<asrwt>0</asrwt>
<pdfrwt beam="1">  1        2 0.14182571E+00 0.96324490E+03</pdfrwt>
<pdfrwt beam="2">  1       -2 0.28195143E+00 0.96324490E+03</pdfrwt>
<totfact> 0.11687624E+00</totfact>
</mgrwt>
</event>
<event>
 4    1  0.3565372E-007  0.7706885E+03  0.7818608E-02  0.9778183E-01
         -2   -1    0    0    0  501 -0.00000000000E+00  0.00000000000E+00  0.59591015072E+03  0.59591015073E+03  0.25500000000E-02 0.  1.
          2   -1    0    0  501    0  0.00000000000E+00 -0.00000000000E+00 -0.14584424814E+04  0.14584424814E+04  0.25500000000E-02 0. -1.
    8880023    1    1    2    0    0  0.39366893969E+03  0.71939742994E+02 -0.12553891322E+04  0.14730793055E+04  0.65864270000E+03 0. -1.
    8880022    1    1    2    0    0 -0.39366893969E+03 -0.71939742994E+02  0.39285680156E+03  0.58127332662E+03  0.15294330000E+03 0.  0.
<mgrwt>
<rscale>  0 0.66546644E+03</rscale>
<asrwt>0</asrwt>
<pdfrwt beam="1">  1        2 0.22437576E+00 0.77068850E+03</pdfrwt>
<pdfrwt beam="2">  1       -2 0.91678486E-01 0.77068850E+03</pdfrwt>
<totfact> 0.13853922E+01</totfact>
</mgrwt>
</event>
<event>
 4    1  0.3565372E-007  0.6763016E+03  0.7818608E-02  0.1011498E+00
         -2   -1    0    0    0  501 -0.00000000000E+00  0.00000000000E+00  0.15485693902E+03  0.15485693904E+03  0.25500000000E-02 0.  1.
          2   -1    0    0  501    0  0.00000000000E+00 -0.00000000000E+00 -0.18881136513E+04  0.18881136513E+04  0.25500000000E-02 0. -1.
    8880023    1    1    2    0    0  0.13683821516E+03  0.69634511122E+02 -0.16922814620E+04  0.18224160927E+04  0.65864270000E+03 0.  0.
    8880022    1    1    2    0    0 -0.13683821516E+03 -0.69634511122E+02 -0.40975250334E+02  0.22055449762E+03  0.15294330000E+03 0.  0.
<mgrwt>
<rscale>  0 0.50883558E+03</rscale>
<asrwt>0</asrwt>
<pdfrwt beam="1">  1        2 0.29047901E+00 0.67630161E+03</pdfrwt>
<pdfrwt beam="2">  1       -2 0.23824146E-01 0.67630161E+03</pdfrwt>
<totfact> 0.12428413E+02</totfact>
</mgrwt>
</event>
<event>
 4    1  0.3565372E-007  0.8996676E+03  0.7818608E-02  0.9526565E-01
         -2   -1    0    0    0  501 -0.00000000000E+00  0.00000000000E+00  0.60730357544E+03  0.60730357544E+03  0.25500000000E-02 0.  1.
          2   -1    0    0  501    0  0.00000000000E+00 -0.00000000000E+00 -0.17207358880E+04  0.17207358880E+04  0.25500000000E-02 0. -1.
    8880023    1    1    2    0    0 -0.40234020977E+03 -0.46229213533E+03 -0.13759805171E+04  0.16439964272E+04  0.65864270000E+03 0. -1.
    8880022    1    1    2    0    0  0.40234020977E+03  0.46229213533E+03  0.26254820454E+03  0.68404303630E+03  0.15294330000E+03 0.  0.
<mgrwt>
<rscale>  0 0.82353283E+03</rscale>
<asrwt>0</asrwt>
<pdfrwt beam="1">  1        2 0.26472860E+00 0.89966764E+03</pdfrwt>
<pdfrwt beam="2">  1       -2 0.93431320E-01 0.89966764E+03</pdfrwt>
<totfact> 0.93379455E+00</totfact>
</mgrwt>
</event>
<event>
 4    1  0.3565372E-007  0.8056927E+03  0.7818608E-02  0.9698620E-01
          2   -1    0    0  501    0  0.00000000000E+00  0.00000000000E+00  0.35788100307E+04  0.35788100307E+04  0.25500000000E-02 0. -1.
         -2   -1    0    0    0  501 -0.00000000000E+00 -0.00000000000E+00 -0.36256170673E+03  0.36256170674E+03  0.25500000000E-02 0.  1.
    8880023    1    1    2    0    0  0.46378055632E+03 -0.15430658579E+02  0.33412704593E+04  0.34370378232E+04  0.65864270000E+03 0. -1.
    8880022    1    1    2    0    0 -0.46378055632E+03  0.15430658579E+02 -0.12502213538E+03  0.50433391418E+03  0.15294330000E+03 0.  0.
<mgrwt>
<rscale>  0 0.71099028E+03</rscale>
<asrwt>0</asrwt>
<pdfrwt beam="1">  1        2 0.55058618E+00 0.80569269E+03</pdfrwt>
<pdfrwt beam="2">  1       -2 0.55778722E-01 0.80569269E+03</pdfrwt>
<totfact> 0.23256563E+00</totfact>
</mgrwt>
</event>
<event>
 4    1  0.3565372E-007  0.1024546E+04  0.7818608E-02  0.9350125E-01
          2   -1    0    0  501    0  0.00000000000E+00  0.00000000000E+00  0.12020255938E+04  0.12020255938E+04  0.25500000000E-02 0. -1.
         -2   -1    0    0    0  501 -0.00000000000E+00 -0.00000000000E+00 -0.90344451788E+03  0.90344451789E+03  0.25500000000E-02 0.  1.
    8880023    1    1    2    0    0 -0.62644466583E+03  0.47270746753E+03  0.66968285073E+03  0.12239977925E+04  0.65864270000E+03 0.  0.
    8880022    1    1    2    0    0  0.62644466583E+03 -0.47270746753E+03 -0.37110177482E+03  0.88147231919E+03  0.15294330000E+03 0.  0.
<mgrwt>
<rscale>  0 0.96296361E+03</rscale>
<asrwt>0</asrwt>
<pdfrwt beam="1">  1        2 0.18492701E+00 0.10245465E+04</pdfrwt>
<pdfrwt beam="2">  1       -2 0.13899146E+00 0.10245465E+04</pdfrwt>
<totfact> 0.68386210E+00</totfact>
</mgrwt>
</event>
<event>
 4    1  0.3565372E-007  0.7681753E+03  0.7818608E-02  0.9784384E-01
          2   -1    0    0  501    0  0.00000000000E+00  0.00000000000E+00  0.30680519229E+03  0.30680519230E+03  0.25500000000E-02 0. -1.
         -2   -1    0    0    0  501 -0.00000000000E+00 -0.00000000000E+00 -0.21497240188E+04  0.21497240188E+04  0.25500000000E-02 0.  1.
    8880023    1    1    2    0    0  0.26321777648E+03 -0.29495667644E+03 -0.24947574421E+03  0.80767034862E+03  0.65864270000E+03 0. -1.
    8880022    1    1    2    0    0 -0.26321777648E+03  0.29495667644E+03 -0.15934430823E+04  0.16488588625E+04  0.15294330000E+03 0.  0.
<mgrwt>
<rscale>  0 0.66207335E+03</rscale>
<asrwt>0</asrwt>
<pdfrwt beam="1">  1        2 0.47200800E-01 0.76817527E+03</pdfrwt>
<pdfrwt beam="2">  1       -2 0.33072676E+00 0.76817527E+03</pdfrwt>
<totfact> 0.22980434E+00</totfact>
</mgrwt>
</event>
<event>
 4    1  0.3565372E-007  0.6714365E+03  0.7818608E-02  0.1014653E+00
         -2   -1    0    0    0  501 -0.00000000000E+00  0.00000000000E+00  0.10655933056E+03  0.10655933059E+03  0.25500000000E-02 0.  1.
          2   -1    0    0  501    0  0.00000000000E+00 -0.00000000000E+00 -0.21881397167E+04  0.21881397167E+04  0.25500000000E-02 0. -1.
    8880023    1    1    2    0    0  0.70606788067E+02 -0.10968774157E+03 -0.19284599863E+04  0.20420051039E+04  0.65864270000E+03 0. -1.
    8880022    1    1    2    0    0 -0.70606788067E+02  0.10968774157E+03 -0.15312039979E+03  0.25269394337E+03  0.15294330000E+03 0.  0.
<mgrwt>
<rscale>  0 0.49666392E+03</rscale>
<asrwt>0</asrwt>
<pdfrwt beam="1">  1        2 0.33663685E+00 0.67143646E+03</pdfrwt>
<pdfrwt beam="2">  1       -2 0.16393745E-01 0.67143646E+03</pdfrwt>
<totfact> 0.16383651E+02</totfact>
</mgrwt>
</event>
<event>
 4    1  0.3565372E-007  0.7586753E+03  0.7818608E-02  0.9808549E-01
         -2   -1    0    0    0  501 -0.00000000000E+00  0.00000000000E+00  0.32441483767E+03  0.32441483768E+03  0.25500000000E-02 0.  1.
          2   -1    0    0  501    0  0.00000000000E+00 -0.00000000000E+00 -0.29904379487E+04  0.29904379487E+04  0.25500000000E-02 0. -1.
    8880023    1    1    2    0    0 -0.71084707793E+02  0.36976342178E+03 -0.27889170700E+04  0.28902675747E+04  0.65864270000E+03 0. -1.
    8880022    1    1    2    0    0  0.71084707793E+02 -0.36976342178E+03  0.12289395901E+03  0.42458521164E+03  0.15294330000E+03 0.  0.
<mgrwt>
<rscale>  0 0.64905762E+03</rscale>
<asrwt>0</asrwt>
<pdfrwt beam="1">  1        2 0.46006736E+00 0.75867531E+03</pdfrwt>
<pdfrwt beam="2">  1       -2 0.49909977E-01 0.75867531E+03</pdfrwt>
<totfact> 0.71261402E+00</totfact>
</mgrwt>
</event>
<event>
 4    1  0.3565372E-007  0.7739812E+03  0.7818608E-02  0.9770170E-01
         -2   -1    0    0    0  501 -0.00000000000E+00  0.00000000000E+00  0.16655313394E+04  0.16655313394E+04  0.25500000000E-02 0.  1.
          2   -1    0    0  501    0  0.00000000000E+00 -0.00000000000E+00 -0.47149246708E+03  0.47149246709E+03  0.25500000000E-02 0. -1.
    8880023    1    1    2    0    0  0.23107941748E+03 -0.33442342067E+03 -0.92185592420E+02  0.77945180171E+03  0.65864270000E+03 0.  0.
    8880022    1    1    2    0    0 -0.23107941748E+03  0.33442342067E+03  0.12862244648E+04  0.13575720048E+04  0.15294330000E+03 0.  0.
<mgrwt>
<rscale>  0 0.66988260E+03</rscale>
<asrwt>0</asrwt>
<pdfrwt beam="1">  1        2 0.72537302E-01 0.77398122E+03</pdfrwt>
<pdfrwt beam="2">  1       -2 0.25623559E+00 0.77398122E+03</pdfrwt>
<totfact> 0.39835703E+00</totfact>
</mgrwt>
</event>
<event>
 4    1  0.4420613E-007  0.6658648E+03  0.7818608E-02  0.1018819E+00
         -2   -1    0    0    0  501 -0.00000000000E+00  0.00000000000E+00  0.17798120205E+04  0.17798120205E+04  0.25500000000E-02 0.  1.
          2   -1    0    0  501    0  0.00000000000E+00 -0.00000000000E+00 -0.99466988489E+03  0.99466988489E+03  0.25500000000E-02 0. -1.
    8880023    1    1    2    0    0  0.78060494856E+02 -0.58925844700E+02 -0.87773550462E+03  0.11017238848E+04  0.65864270000E+03 0. -1.
    8880022    1    1    2    0    0 -0.78060494856E+02  0.58925844700E+02  0.16628776402E+04  0.16727580206E+04  0.15294330000E+03 0.  0.
<mgrwt>
<rscale>  0 0.48115341E+03</rscale>
<asrwt>0</asrwt>
<pdfrwt beam="1">  1        2 0.15302614E+00 0.66586478E+03</pdfrwt>
<pdfrwt beam="2">  1       -2 0.27381723E+00 0.66586478E+03</pdfrwt>
<totfact> 0.12323947E+00</totfact>
</mgrwt>
</event>
<event>
 4    1  0.3565372E-007  0.9686747E+03  0.7818608E-02  0.9423740E-01
          2   -1    0    0  501    0  0.00000000000E+00  0.00000000000E+00  0.22856062254E+04  0.22856062254E+04  0.25500000000E-02 0. -1.
         -2   -1    0    0    0  501 -0.00000000000E+00 -0.00000000000E+00 -0.82471929787E+03  0.82471929788E+03  0.25500000000E-02 0.  1.
    8880023    1    1    2    0    0 -0.69433047789E+03  0.14975171655E+03  0.19888357048E+04  0.22121930422E+04  0.65864270000E+03 0.  0.
    8880022    1    1    2    0    0  0.69433047789E+03 -0.14975171655E+03 -0.52794877725E+03  0.89813248107E+03  0.15294330000E+03 0.  0.
<mgrwt>
<rscale>  0 0.90147492E+03</rscale>
<asrwt>0</asrwt>
<pdfrwt beam="1">  1        2 0.35163172E+00 0.96867466E+03</pdfrwt>
<pdfrwt beam="2">  1       -2 0.12687989E+00 0.96867466E+03</pdfrwt>
<totfact> 0.21491882E+00</totfact>
</mgrwt>
</event>
<event>
 4    1  0.3565372E-007  0.7870584E+03  0.7818608E-02  0.9739511E-01
          2   -1    0    0  501    0  0.00000000000E+00  0.00000000000E+00  0.10424634598E+04  0.10424634598E+04  0.25500000000E-02 0. -1.
         -2   -1    0    0    0  501 -0.00000000000E+00 -0.00000000000E+00 -0.64979046026E+03  0.64979046027E+03  0.25500000000E-02 0.  1.
    8880023    1    1    2    0    0 -0.27737486646E+03  0.32971781692E+03  0.76878357469E+03  0.11002222713E+04  0.65864270000E+03 0.  0.
    8880022    1    1    2    0    0  0.27737486646E+03 -0.32971781692E+03 -0.37611057517E+03  0.59203164873E+03  0.15294330000E+03 0.  0.
<mgrwt>
<rscale>  0 0.68712298E+03</rscale>
<asrwt>0</asrwt>
<pdfrwt beam="1">  1        2 0.16037899E+00 0.78705836E+03</pdfrwt>
<pdfrwt beam="2">  1       -2 0.99967763E-01 0.78705836E+03</pdfrwt>
<totfact> 0.19820248E+01</totfact>
</mgrwt>
</event>
<event>
 4    1  0.3565372E-007  0.6865388E+03  0.7818608E-02  0.1005843E+00
         -2   -1    0    0    0  501 -0.00000000000E+00  0.00000000000E+00  0.82608219087E+03  0.82608219087E+03  0.25500000000E-02 0.  1.
          2   -1    0    0  501    0  0.00000000000E+00 -0.00000000000E+00 -0.28190212538E+03  0.28190212540E+03  0.25500000000E-02 0. -1.
    8880023    1    1    2    0    0  0.19354822149E+03  0.80282778422E+01  0.51749830268E+03  0.85973255541E+03  0.65864270000E+03 0.  1.
    8880022    1    1    2    0    0 -0.19354822149E+03 -0.80282778422E+01  0.26681762803E+02  0.24825176086E+03  0.15294330000E+03 0.  0.
<mgrwt>
<rscale>  0 0.53160758E+03</rscale>
<asrwt>0</asrwt>
<pdfrwt beam="1">  1        2 0.43369558E-01 0.68653884E+03</pdfrwt>
<pdfrwt beam="2">  1       -2 0.12708957E+00 0.68653884E+03</pdfrwt>
<totfact> 0.54881335E+01</totfact>
</mgrwt>
</event>
<event>
 4    1  0.3565372E-007  0.7114436E+03  0.7818608E-02  0.9952679E-01
         -2   -1    0    0    0  501 -0.00000000000E+00  0.00000000000E+00  0.26963635230E+03  0.26963635231E+03  0.25500000000E-02 0.  1.
          2   -1    0    0  501    0  0.00000000000E+00 -0.00000000000E+00 -0.12637871254E+04  0.12637871254E+04  0.25500000000E-02 0. -1.
    8880023    1    1    2    0    0  0.34309153470E+02  0.26676710861E+03 -0.99601582225E+03  0.12240096130E+04  0.65864270000E+03 0.  1.
    8880022    1    1    2    0    0 -0.34309153470E+02 -0.26676710861E+03  0.18650491771E+01  0.30941386470E+03  0.15294330000E+03 0. -1.
<mgrwt>
<rscale>  0 0.57774784E+03</rscale>
<asrwt>0</asrwt>
<pdfrwt beam="1">  1        2 0.19442878E+00 0.71144361E+03</pdfrwt>
<pdfrwt beam="2">  1       -2 0.41482517E-01 0.71144361E+03</pdfrwt>
<totfact> 0.97412919E+01</totfact>
</mgrwt>
</event>
<event>
 4    1  0.3565372E-007  0.9689250E+03  0.7818608E-02  0.9423393E-01
          2   -1    0    0  501    0  0.00000000000E+00  0.00000000000E+00  0.17725412726E+04  0.17725412726E+04  0.25500000000E-02 0. -1.
         -2   -1    0    0    0  501 -0.00000000000E+00 -0.00000000000E+00 -0.61701584067E+03  0.61701584067E+03  0.25500000000E-02 0.  1.
    8880023    1    1    2    0    0 -0.61947573326E+03 -0.34821733151E+03  0.13266205965E+04  0.16427835851E+04  0.65864270000E+03 0. -1.
    8880022    1    1    2    0    0  0.61947573326E+03  0.34821733151E+03 -0.17109516458E+03  0.74677352820E+03  0.15294330000E+03 0.  0.
<mgrwt>
<rscale>  0 0.90175319E+03</rscale>
<asrwt>0</asrwt>
<pdfrwt beam="1">  1        2 0.27269865E+00 0.96892502E+03</pdfrwt>
<pdfrwt beam="2">  1       -2 0.94925516E-01 0.96892502E+03</pdfrwt>
<totfact> 0.83588769E+00</totfact>
</mgrwt>
</event>
<event>
 4    1  0.3565372E-007  0.6862339E+03  0.7818608E-02  0.1005997E+00
         -2   -1    0    0    0  501 -0.00000000000E+00  0.00000000000E+00  0.24784773045E+03  0.24784773046E+03  0.25500000000E-02 0.  1.
          2   -1    0    0  501    0  0.00000000000E+00 -0.00000000000E+00 -0.24476271970E+04  0.24476271970E+04  0.25500000000E-02 0. -1.
    8880023    1    1    2    0    0 -0.15445459726E+03  0.11511118131E+03 -0.23216703513E+04  0.24209647319E+04  0.65864270000E+03 0. -1.
    8880022    1    1    2    0    0  0.15445459726E+03 -0.11511118131E+03  0.12189088474E+03  0.27451019558E+03  0.15294330000E+03 0.  0.
<mgrwt>
<rscale>  0 0.53097269E+03</rscale>
<asrwt>0</asrwt>
<pdfrwt beam="1">  1        2 0.37655801E+00 0.68623393E+03</pdfrwt>
<pdfrwt beam="2">  1       -2 0.38130422E-01 0.68623393E+03</pdfrwt>
<totfact> 0.25532855E+01</totfact>
</mgrwt>
</event>
<event>
 4    1  0.3565372E-007  0.7176522E+03  0.7818608E-02  0.9930612E-01
          2   -1    0    0  501    0  0.00000000000E+00  0.00000000000E+00  0.17754836710E+04  0.17754836710E+04  0.25500000000E-02 0. -1.
         -2   -1    0    0    0  501 -0.00000000000E+00 -0.00000000000E+00 -0.61085675737E+03  0.61085675737E+03  0.25500000000E-02 0.  1.
    8880023    1    1    2    0    0 -0.24284027347E+03 -0.14914104187E+03  0.16521529725E+04  0.18012867899E+04  0.65864270000E+03 0. -1.
    8880022    1    1    2    0    0  0.24284027347E+03  0.14914104187E+03 -0.48752605885E+03  0.58505363845E+03  0.15294330000E+03 0.  0.
<mgrwt>
<rscale>  0 0.58800380E+03</rscale>
<asrwt>0</asrwt>
<pdfrwt beam="1">  1        2 0.27315133E+00 0.71765218E+03</pdfrwt>
<pdfrwt beam="2">  1       -2 0.93977964E-01 0.71765218E+03</pdfrwt>
<totfact> 0.88113911E+00</totfact>
</mgrwt>
</event>
<event>
 4    1  0.3565372E-007  0.8875354E+03  0.7818608E-02  0.9546345E-01
          2   -1    0    0  501    0  0.00000000000E+00  0.00000000000E+00  0.28350928241E+04  0.28350928241E+04  0.25500000000E-02 0. -1.
         -2   -1    0    0    0  501 -0.00000000000E+00 -0.00000000000E+00 -0.47867290655E+03  0.47867290656E+03  0.25500000000E-02 0.  1.
    8880023    1    1    2    0    0  0.57510071817E+03  0.15221080409E+03  0.25252994733E+04  0.26767249767E+04  0.65864270000E+03 0.  0.
    8880022    1    1    2    0    0 -0.57510071817E+03 -0.15221080409E+03 -0.16887955568E+03  0.63704075401E+03  0.15294330000E+03 0.  0.
<mgrwt>
<rscale>  0 0.80951560E+03</rscale>
<asrwt>0</asrwt>
<pdfrwt beam="1">  1        2 0.43616813E+00 0.88753545E+03</pdfrwt>
<pdfrwt beam="2">  1       -2 0.73641985E-01 0.88753545E+03</pdfrwt>
<totfact> 0.37902966E+00</totfact>
</mgrwt>
</event>
<event>
 4    1  0.3565372E-007  0.7631681E+03  0.7818608E-02  0.9796974E-01
         -2   -1    0    0    0  501 -0.00000000000E+00  0.00000000000E+00  0.56662741852E+03  0.56662741852E+03  0.25500000000E-02 0.  1.
          2   -1    0    0  501    0  0.00000000000E+00 -0.00000000000E+00 -0.10794396049E+04  0.10794396049E+04  0.25500000000E-02 0. -1.
    8880023    1    1    2    0    0  0.35503649001E+03  0.15021481756E+03 -0.82732427150E+03  0.11255625514E+04  0.65864270000E+03 0. -1.
    8880022    1    1    2    0    0 -0.35503649001E+03 -0.15021481756E+03  0.31451208514E+03  0.52050447199E+03  0.15294330000E+03 0.  0.
<mgrwt>
<rscale>  0 0.65525215E+03</rscale>
<asrwt>0</asrwt>
<pdfrwt beam="1">  1        2 0.16606763E+00 0.76316814E+03</pdfrwt>
<pdfrwt beam="2">  1       -2 0.87173449E-01 0.76316814E+03</pdfrwt>
<totfact> 0.25921683E+01</totfact>
</mgrwt>
</event>
<event>
 4    1  0.3565372E-007  0.6789782E+03  0.7818608E-02  0.1009908E+00
         -2   -1    0    0    0  501 -0.00000000000E+00  0.00000000000E+00  0.27495370967E+03  0.27495370968E+03  0.25500000000E-02 0.  1.
          2   -1    0    0  501    0  0.00000000000E+00 -0.00000000000E+00 -0.19730032378E+04  0.19730032378E+04  0.25500000000E-02 0. -1.
    8880023    1    1    2    0    0 -0.94005774494E+02  0.13551446238E+03 -0.18538909351E+04  0.19743158463E+04  0.65864270000E+03 0. -1.
    8880022    1    1    2    0    0  0.94005774494E+02 -0.13551446238E+03  0.15584140697E+03  0.27364110125E+03  0.15294330000E+03 0.  0.
<mgrwt>
<rscale>  0 0.51511370E+03</rscale>
<asrwt>0</asrwt>
<pdfrwt beam="1">  1        2 0.30353895E+00 0.67897825E+03</pdfrwt>
<pdfrwt beam="2">  1       -2 0.42300572E-01 0.67897825E+03</pdfrwt>
<totfact> 0.38124513E+01</totfact>
</mgrwt>
</event>
<event>
 4    1  0.4922602E-007  0.1348719E+04  0.7818608E-02  0.9024589E-01
          2   -1    0    0  501    0  0.00000000000E+00  0.00000000000E+00  0.30836855777E+04  0.30836855777E+04  0.25500000000E-02 0. -1.
         -2   -1    0    0    0  501 -0.00000000000E+00 -0.00000000000E+00 -0.12965229651E+04  0.12965229651E+04  0.25500000000E-02 0.  1.
    8880023    1    1    2    0    0  0.28776196647E+03 -0.11412391773E+04  0.26087220217E+04  0.29367455801E+04  0.65864270000E+03 0.  0.
    8880022    1    1    2    0    0 -0.28776196647E+03  0.11412391773E+04 -0.82155940913E+03  0.14434629628E+04  0.15294330000E+03 0.  0.
<mgrwt>
<rscale>  0 0.13062931E+04</rscale>
<asrwt>0</asrwt>
<pdfrwt beam="1">  1        2 0.47441316E+00 0.13487194E+04</pdfrwt>
<pdfrwt beam="2">  1       -2 0.19946507E+00 0.13487194E+04</pdfrwt>
<totfact> 0.19894685E-01</totfact>
</mgrwt>
</event>
<event>
 4    1  0.3565372E-007  0.6996229E+03  0.7818608E-02  0.9998769E-01
          2   -1    0    0  501    0  0.00000000000E+00  0.00000000000E+00  0.18896882670E+04  0.18896882670E+04  0.25500000000E-02 0. -1.
         -2   -1    0    0    0  501 -0.00000000000E+00 -0.00000000000E+00 -0.45679834488E+03  0.45679834488E+03  0.25500000000E-02 0.  1.
    8880023    1    1    2    0    0  0.18914972782E+03 -0.14101198844E+03  0.17725076878E+04  0.19055853982E+04  0.65864270000E+03 0. -1.
    8880022    1    1    2    0    0 -0.18914972782E+03  0.14101198844E+03 -0.33961776567E+03  0.44090121365E+03  0.15294330000E+03 0.  0.
<mgrwt>
<rscale>  0 0.55704240E+03</rscale>
<asrwt>0</asrwt>
<pdfrwt beam="1">  1        2 0.29072128E+00 0.69962290E+03</pdfrwt>
<pdfrwt beam="2">  1       -2 0.70276667E-01 0.69962290E+03</pdfrwt>
<totfact> 0.14745897E+01</totfact>
</mgrwt>
</event>
<event>
 4    1  0.3565372E-007  0.8755861E+03  0.7818608E-02  0.9566418E-01
         -2   -1    0    0    0  501 -0.00000000000E+00  0.00000000000E+00  0.22644602347E+04  0.22644602347E+04  0.25500000000E-02 0.  1.
          2   -1    0    0  501    0  0.00000000000E+00 -0.00000000000E+00 -0.65367330598E+03  0.65367330598E+03  0.25500000000E-02 0. -1.
    8880023    1    1    2    0    0 -0.57576707170E+03 -0.36511504480E+02 -0.29274111804E+03  0.92322715475E+03  0.65864270000E+03 0. -1.
    8880022    1    1    2    0    0  0.57576707170E+03  0.36511504480E+02  0.19035280467E+04  0.19949063859E+04  0.15294330000E+03 0.  0.
<mgrwt>
<rscale>  0 0.79559277E+03</rscale>
<asrwt>0</asrwt>
<pdfrwt beam="1">  1        2 0.10056513E+00 0.87558610E+03</pdfrwt>
<pdfrwt beam="2">  1       -2 0.34837849E+00 0.87558610E+03</pdfrwt>
<totfact> 0.73390793E-01</totfact>
</mgrwt>
</event>
<event>
 4    1  0.3565372E-007  0.9082164E+03  0.7818608E-02  0.9512968E-01
          2   -1    0    0  501    0  0.00000000000E+00  0.00000000000E+00  0.15278472914E+04  0.15278472914E+04  0.25500000000E-02 0. -1.
         -2   -1    0    0    0  501 -0.00000000000E+00 -0.00000000000E+00 -0.45684230015E+03  0.45684230016E+03  0.25500000000E-02 0.  1.
    8880023    1    1    2    0    0  0.17255337310E+03  0.60105917743E+03  0.97726714098E+03  0.13341319547E+04  0.65864270000E+03 0.  0.
    8880022    1    1    2    0    0 -0.17255337310E+03 -0.60105917743E+03  0.93737850272E+02  0.65055763690E+03  0.15294330000E+03 0.  0.
<mgrwt>
<rscale>  0 0.83334437E+03</rscale>
<asrwt>0</asrwt>
<pdfrwt beam="1">  1        2 0.23505343E+00 0.90821639E+03</pdfrwt>
<pdfrwt beam="2">  1       -2 0.70283432E-01 0.90821639E+03</pdfrwt>
<totfact> 0.22709985E+01</totfact>
</mgrwt>
</event>
<event>
 4    1  0.3565372E-007  0.7482045E+03  0.7818608E-02  0.9836662E-01
          2   -1    0    0  501    0  0.00000000000E+00  0.00000000000E+00  0.19525950130E+04  0.19525950130E+04  0.25500000000E-02 0. -1.
         -2   -1    0    0    0  501 -0.00000000000E+00 -0.00000000000E+00 -0.45166361153E+03  0.45166361154E+03  0.25500000000E-02 0.  1.
    8880023    1    1    2    0    0  0.19509526760E+03 -0.29654275712E+03  0.17777897302E+04  0.19288199245E+04  0.65864270000E+03 0.  0.
    8880022    1    1    2    0    0 -0.19509526760E+03  0.29654275712E+03 -0.27685832874E+03  0.47543869999E+03  0.15294330000E+03 0.  0.
<mgrwt>
<rscale>  0 0.63431641E+03</rscale>
<asrwt>0</asrwt>
<pdfrwt beam="1">  1        2 0.30039924E+00 0.74820450E+03</pdfrwt>
<pdfrwt beam="2">  1       -2 0.69486709E-01 0.74820450E+03</pdfrwt>
<totfact> 0.13868059E+01</totfact>
</mgrwt>
</event>
<event>
 4    1  0.4379212E-007  0.9388695E+03  0.7818608E-02  0.9466313E-01
         -2   -1    0    0    0  501 -0.00000000000E+00  0.00000000000E+00  0.12703728549E+04  0.12703728549E+04  0.25500000000E-02 0.  1.
          2   -1    0    0  501    0  0.00000000000E+00 -0.00000000000E+00 -0.22306852197E+04  0.22306852197E+04  0.25500000000E-02 0. -1.
    8880023    1    1    2    0    0 -0.31448228347E+03  0.59056461771E+03 -0.20262936643E+04  0.22332357454E+04  0.65864270000E+03 0. -1.
    8880022    1    1    2    0    0  0.31448228347E+03 -0.59056461771E+03  0.10659812996E+04  0.12678223292E+04  0.15294330000E+03 0.  0.
<mgrwt>
<rscale>  0 0.86813673E+03</rscale>
<asrwt>0</asrwt>
<pdfrwt beam="1">  1        2 0.34318234E+00 0.93886947E+03</pdfrwt>
<pdfrwt beam="2">  1       -2 0.19544198E+00 0.93886947E+03</pdfrwt>
<totfact> 0.71582197E-01</totfact>
</mgrwt>
</event>
<event>
 4    1  0.3565372E-007  0.8225295E+03  0.7818608E-02  0.9664046E-01
          2   -1    0    0  501    0  0.00000000000E+00  0.00000000000E+00  0.11695155428E+04  0.11695155428E+04  0.25500000000E-02 0. -1.
         -2   -1    0    0    0  501 -0.00000000000E+00 -0.00000000000E+00 -0.47559954900E+03  0.47559954901E+03  0.25500000000E-02 0.  1.
    8880023    1    1    2    0    0  0.38576332390E+03 -0.30648198514E+03  0.76630288002E+03  0.11241774146E+04  0.65864270000E+03 0.  0.
    8880022    1    1    2    0    0 -0.38576332390E+03  0.30648198514E+03 -0.72386886188E+02  0.52093767726E+03  0.15294330000E+03 0.  0.
<mgrwt>
<rscale>  0 0.73198402E+03</rscale>
<asrwt>0</asrwt>
<pdfrwt beam="1">  1        2 0.17992547E+00 0.82252949E+03</pdfrwt>
<pdfrwt beam="2">  1       -2 0.73169161E-01 0.82252949E+03</pdfrwt>
<totfact> 0.33690073E+01</totfact>
</mgrwt>
</event>
<event>
 4    1  0.3565372E-007  0.9050511E+03  0.7818608E-02  0.9517971E-01
          2   -1    0    0  501    0  0.00000000000E+00  0.00000000000E+00  0.22538651420E+04  0.22538651420E+04  0.25500000000E-02 0. -1.
         -2   -1    0    0    0  501 -0.00000000000E+00 -0.00000000000E+00 -0.39534260388E+03  0.39534260389E+03  0.25500000000E-02 0.  1.
    8880023    1    1    2    0    0  0.25378321874E+03  0.56648155685E+03  0.17905778041E+04  0.20063116297E+04  0.65864270000E+03 0. -1.
    8880022    1    1    2    0    0 -0.25378321874E+03 -0.56648155685E+03  0.67944733964E+02  0.64289611622E+03  0.15294330000E+03 0.  0.
<mgrwt>
<rscale>  0 0.82971752E+03</rscale>
<asrwt>0</asrwt>
<pdfrwt beam="1">  1        2 0.34674849E+00 0.90505109E+03</pdfrwt>
<pdfrwt beam="2">  1       -2 0.60821939E-01 0.90505109E+03</pdfrwt>
<totfact> 0.12345041E+01</totfact>
</mgrwt>
</event>
<event>
 4    1  0.3565372E-007  0.6594712E+03  0.7818608E-02  0.1024705E+00
         -2   -1    0    0    0  501 -0.00000000000E+00  0.00000000000E+00  0.15906570721E+03  0.15906570723E+03  0.25500000000E-02 0.  1.
          2   -1    0    0  501    0  0.00000000000E+00 -0.00000000000E+00 -0.11141632586E+04  0.11141632586E+04  0.25500000000E-02 0. -1.
    8880023    1    1    2    0    0 -0.18332348507E+02  0.27494450636E+02 -0.87996049991E+03  0.10996511754E+04  0.65864270000E+03 0. -1.
    8880022    1    1    2    0    0  0.18332348507E+02 -0.27494450636E+02 -0.75137051466E+02  0.17357779044E+03  0.15294330000E+03 0.  0.
<mgrwt>
<rscale>  0 0.46026339E+03</rscale>
<asrwt>0</asrwt>
<pdfrwt beam="1">  1        2 0.17140973E+00 0.65947117E+03</pdfrwt>
<pdfrwt beam="2">  1       -2 0.24471648E-01 0.65947117E+03</pdfrwt>
<totfact> 0.32242722E+02</totfact>
</mgrwt>
</event>
<event>
 4    1  0.3565372E-007  0.8485222E+03  0.7818608E-02  0.9614316E-01
          2   -1    0    0  501    0  0.00000000000E+00  0.00000000000E+00  0.37032932504E+03  0.37032932505E+03  0.25500000000E-02 0. -1.
         -2   -1    0    0    0  501 -0.00000000000E+00 -0.00000000000E+00 -0.16986772868E+04  0.16986772868E+04  0.25500000000E-02 0.  1.
    8880023    1    1    2    0    0 -0.50479804051E+03  0.17708367027E+03 -0.12446315105E+04  0.15063523795E+04  0.65864270000E+03 0.  0.
    8880022    1    1    2    0    0  0.50479804051E+03 -0.17708367027E+03 -0.83716451252E+02  0.56265423237E+03  0.15294330000E+03 0.  0.
<mgrwt>
<rscale>  0 0.76355881E+03</rscale>
<asrwt>0</asrwt>
<pdfrwt beam="1">  1        2 0.56973743E-01 0.84852218E+03</pdfrwt>
<pdfrwt beam="2">  1       -2 0.26133496E+00 0.84852218E+03</pdfrwt>
<totfact> 0.48378042E+00</totfact>
</mgrwt>
</event>
<event>
 4    1  0.3565372E-007  0.1028935E+04  0.7818608E-02  0.9344644E-01
          2   -1    0    0  501    0  0.00000000000E+00  0.00000000000E+00  0.29920708625E+04  0.29920708625E+04  0.25500000000E-02 0. -1.
         -2   -1    0    0    0  501 -0.00000000000E+00 -0.00000000000E+00 -0.62494417654E+03  0.62494417655E+03  0.25500000000E-02 0.  1.
    8880023    1    1    2    0    0  0.22034701505E+03 -0.75917330473E+03  0.25855386028E+04  0.27827534901E+04  0.65864270000E+03 0.  0.
    8880022    1    1    2    0    0 -0.22034701505E+03  0.75917330473E+03 -0.21841191686E+03  0.83426154897E+03  0.15294330000E+03 0.  0.
<mgrwt>
<rscale>  0 0.96774733E+03</rscale>
<asrwt>0</asrwt>
<pdfrwt beam="1">  1        2 0.46031858E+00 0.10289349E+04</pdfrwt>
<pdfrwt beam="2">  1       -2 0.96145260E-01 0.10289349E+04</pdfrwt>
<totfact> 0.16200417E+00</totfact>
</mgrwt>
</event>
<event>
 4    1  0.3565372E-007  0.8509563E+03  0.7818608E-02  0.9609857E-01
         -2   -1    0    0    0  501 -0.00000000000E+00  0.00000000000E+00  0.11369889260E+04  0.11369889260E+04  0.25500000000E-02 0.  1.
          2   -1    0    0  501    0  0.00000000000E+00 -0.00000000000E+00 -0.50470603812E+03  0.50470603812E+03  0.25500000000E-02 0. -1.
    8880023    1    1    2    0    0 -0.52637356280E+03  0.11509705299E+03  0.66598644876E+03  0.10805853115E+04  0.65864270000E+03 0. -1.
    8880022    1    1    2    0    0  0.52637356280E+03 -0.11509705299E+03 -0.33703560905E+02  0.56110965261E+03  0.15294330000E+03 0.  0.
<mgrwt>
<rscale>  0 0.76647178E+03</rscale>
<asrwt>0</asrwt>
<pdfrwt beam="1">  1        2 0.77647084E-01 0.85095632E+03</pdfrwt>
<pdfrwt beam="2">  1       -2 0.17492137E+00 0.85095632E+03</pdfrwt>
<totfact> 0.12060120E+01</totfact>
</mgrwt>
</event>
<event>
 4    1  0.3565372E-007  0.6863725E+03  0.7818608E-02  0.1005927E+00
          2   -1    0    0  501    0  0.00000000000E+00  0.00000000000E+00  0.19309140688E+04  0.19309140688E+04  0.25500000000E-02 0. -1.
         -2   -1    0    0    0  501 -0.00000000000E+00 -0.00000000000E+00 -0.12214212865E+03  0.12214212868E+03  0.25500000000E-02 0.  1.
    8880023    1    1    2    0    0  0.16662998635E+03  0.97629415278E+02  0.15531236819E+04  0.16980283957E+04  0.65864270000E+03 0. -1.
    8880022    1    1    2    0    0 -0.16662998635E+03 -0.97629415278E+02  0.25564825830E+03  0.35502780182E+03  0.15294330000E+03 0. -1.
<mgrwt>
<rscale>  0 0.53126158E+03</rscale>
<asrwt>0</asrwt>
<pdfrwt beam="1">  1        2 0.29706372E+00 0.68637254E+03</pdfrwt>
<pdfrwt beam="2">  1       -2 0.18791096E-01 0.68637254E+03</pdfrwt>
<totfact> 0.17872041E+02</totfact>
</mgrwt>
</event>
<event>
 4    1  0.3565372E-007  0.6710123E+03  0.7818608E-02  0.1014947E+00
          2   -1    0    0  501    0  0.00000000000E+00  0.00000000000E+00  0.32648686222E+03  0.32648686223E+03  0.25500000000E-02 0. -1.
         -2   -1    0    0    0  501 -0.00000000000E+00 -0.00000000000E+00 -0.78672811528E+03  0.78672811528E+03  0.25500000000E-02 0.  1.
    8880023    1    1    2    0    0 -0.12421551988E+02  0.12764406196E+03 -0.69697270964E+02  0.67462227754E+03  0.65864270000E+03 0. -1.
    8880022    1    1    2    0    0  0.12421551988E+02 -0.12764406196E+03 -0.39054398210E+03  0.43859269998E+03  0.15294330000E+03 0.  0.
<mgrwt>
<rscale>  0 0.49554871E+03</rscale>
<asrwt>0</asrwt>
<pdfrwt beam="1">  1        2 0.50228748E-01 0.67101230E+03</pdfrwt>
<pdfrwt beam="2">  1       -2 0.12103509E+00 0.67101230E+03</pdfrwt>
<totfact> 0.52728629E+01</totfact>
</mgrwt>
</event>
<event>
 4    1  0.3565372E-007  0.8071828E+03  0.7818608E-02  0.9695475E-01
         -2   -1    0    0    0  501 -0.00000000000E+00  0.00000000000E+00  0.56157245876E+03  0.56157245877E+03  0.25500000000E-02 0.  1.
          2   -1    0    0  501    0  0.00000000000E+00 -0.00000000000E+00 -0.16727686990E+04  0.16727686990E+04  0.25500000000E-02 0. -1.
    8880023    1    1    2    0    0  0.36684025646E+03 -0.28837837005E+03 -0.14347917992E+04  0.16462598736E+04  0.65864270000E+03 0.  0.
    8880022    1    1    2    0    0 -0.36684025646E+03  0.28837837005E+03  0.32359555893E+03  0.58808128421E+03  0.15294330000E+03 0.  0.
<mgrwt>
<rscale>  0 0.71286832E+03</rscale>
<asrwt>0</asrwt>
<pdfrwt beam="1">  1        2 0.25734903E+00 0.80718279E+03</pdfrwt>
<pdfrwt beam="2">  1       -2 0.86395764E-01 0.80718279E+03</pdfrwt>
<totfact> 0.12026830E+01</totfact>
</mgrwt>
</event>
<event>
 4    1  0.3565372E-007  0.7141829E+03  0.7818608E-02  0.9942784E-01
         -2   -1    0    0    0  501 -0.00000000000E+00  0.00000000000E+00  0.60633356016E+03  0.60633356016E+03  0.25500000000E-02 0.  1.
          2   -1    0    0  501    0  0.00000000000E+00 -0.00000000000E+00 -0.23745659125E+04  0.23745659125E+04  0.25500000000E-02 0. -1.
    8880023    1    1    2    0    0  0.27122026713E+01 -0.27611520429E+03 -0.22746652758E+04  0.23841474965E+04  0.65864270000E+03 0. -1.
    8880022    1    1    2    0    0 -0.27122026713E+01  0.27611520429E+03  0.50643292343E+03  0.59675197615E+03  0.15294330000E+03 0.  0.
<mgrwt>
<rscale>  0 0.58231842E+03</rscale>
<asrwt>0</asrwt>
<pdfrwt beam="1">  1        2 0.36531783E+00 0.71418287E+03</pdfrwt>
<pdfrwt beam="2">  1       -2 0.93282088E-01 0.71418287E+03</pdfrwt>
<totfact> 0.42109403E+00</totfact>
</mgrwt>
</event>
<event>
 4    1  0.3565372E-007  0.8265915E+03  0.7818608E-02  0.9656001E-01
         -2   -1    0    0    0  501 -0.00000000000E+00  0.00000000000E+00  0.10553135971E+04  0.10553135972E+04  0.25500000000E-02 0.  1.
          2   -1    0    0  501    0  0.00000000000E+00 -0.00000000000E+00 -0.10956863682E+04  0.10956863682E+04  0.25500000000E-02 0. -1.
    8880023    1    1    2    0    0 -0.21279955574E+03 -0.45184024538E+03 -0.85119141237E+03  0.11864991719E+04  0.65864270000E+03 0. -1.
    8880022    1    1    2    0    0  0.21279955574E+03  0.45184024538E+03  0.81081864134E+03  0.96450079338E+03  0.15294330000E+03 0.  0.
<mgrwt>
<rscale>  0 0.73697997E+03</rscale>
<asrwt>0</asrwt>
<pdfrwt beam="1">  1        2 0.16856713E+00 0.82659147E+03</pdfrwt>
<pdfrwt beam="2">  1       -2 0.16235594E+00 0.82659147E+03</pdfrwt>
<totfact> 0.53616329E+00</totfact>
</mgrwt>
</event>
<event>
 4    1  0.3565372E-007  0.6683041E+03  0.7818608E-02  0.1016909E+00
          2   -1    0    0  501    0  0.00000000000E+00  0.00000000000E+00  0.12008922052E+04  0.12008922052E+04  0.25500000000E-02 0. -1.
         -2   -1    0    0    0  501 -0.00000000000E+00 -0.00000000000E+00 -0.19017888194E+03  0.19017888196E+03  0.25500000000E-02 0.  1.
    8880023    1    1    2    0    0 -0.11026622357E+03  0.25721161053E+02  0.99702245872E+03  0.12002850527E+04  0.65864270000E+03 0.  0.
    8880022    1    1    2    0    0  0.11026622357E+03 -0.25721161053E+02  0.13690864571E+02  0.19078603453E+03  0.15294330000E+03 0.  0.
<mgrwt>
<rscale>  0 0.48818787E+03</rscale>
<asrwt>0</asrwt>
<pdfrwt beam="1">  1        2 0.18475264E+00 0.66830414E+03</pdfrwt>
<pdfrwt beam="2">  1       -2 0.29258290E-01 0.66830414E+03</pdfrwt>
<totfact> 0.20663521E+02</totfact>
</mgrwt>
</event>
<event>
 4    1  0.3565372E-007  0.9365207E+03  0.7818608E-02  0.9469779E-01
          2   -1    0    0  501    0  0.00000000000E+00  0.00000000000E+00  0.84952855150E+03  0.84952855150E+03  0.25500000000E-02 0. -1.
         -2   -1    0    0    0  501 -0.00000000000E+00 -0.00000000000E+00 -0.85263595565E+03  0.85263595566E+03  0.25500000000E-02 0.  1.
    8880023    1    1    2    0    0  0.26237919274E+03  0.61189699098E+03  0.25709172679E+03  0.97116792091E+03  0.65864270000E+03 0.  0.
    8880022    1    1    2    0    0 -0.26237919274E+03 -0.61189699098E+03 -0.26019913094E+03  0.73099658625E+03  0.15294330000E+03 0.  0.
<mgrwt>
<rscale>  0 0.86549033E+03</rscale>
<asrwt>0</asrwt>
<pdfrwt beam="1">  1        2 0.13069670E+00 0.93652067E+03</pdfrwt>
<pdfrwt beam="2">  1       -2 0.13117476E+00 0.93652067E+03</pdfrwt>
<totfact> 0.13451583E+01</totfact>
</mgrwt>
</event>
<event>
 4    1  0.3565372E-007  0.7935187E+03  0.7818608E-02  0.9724989E-01
          2   -1    0    0  501    0  0.00000000000E+00  0.00000000000E+00  0.17513501299E+04  0.17513501299E+04  0.25500000000E-02 0. -1.
         -2   -1    0    0    0  501 -0.00000000000E+00 -0.00000000000E+00 -0.51247614730E+03  0.51247614731E+03  0.25500000000E-02 0.  1.
    8880023    1    1    2    0    0 -0.41601599273E+03 -0.15097154615E+03  0.15221439958E+04  0.17165646694E+04  0.65864270000E+03 0. -1.
    8880022    1    1    2    0    0  0.41601599273E+03  0.15097154615E+03 -0.28327001324E+03  0.54726160780E+03  0.15294330000E+03 0.  0.
<mgrwt>
<rscale>  0 0.69548242E+03</rscale>
<asrwt>0</asrwt>
<pdfrwt beam="1">  1        2 0.26943848E+00 0.79351870E+03</pdfrwt>
<pdfrwt beam="2">  1       -2 0.78842484E-01 0.79351870E+03</pdfrwt>
<totfact> 0.13422983E+01</totfact>
</mgrwt>
</event>
<event>
 4    1  0.3565372E-007  0.7216681E+03  0.7818608E-02  0.9916982E-01
          2   -1    0    0  501    0  0.00000000000E+00  0.00000000000E+00  0.13862060995E+04  0.13862060995E+04  0.25500000000E-02 0. -1.
         -2   -1    0    0    0  501 -0.00000000000E+00 -0.00000000000E+00 -0.57682463968E+03  0.57682463969E+03  0.25500000000E-02 0.  1.
    8880023    1    1    2    0    0  0.27181111931E+03 -0.11451356080E+03  0.12305711381E+04  0.14265728766E+04  0.65864270000E+03 0. -1.
    8880022    1    1    2    0    0 -0.27181111931E+03  0.11451356080E+03 -0.42118967828E+03  0.53645786255E+03  0.15294330000E+03 0.  0.
<mgrwt>
<rscale>  0 0.59445300E+03</rscale>
<asrwt>0</asrwt>
<pdfrwt beam="1">  1        2 0.21326247E+00 0.72166810E+03</pdfrwt>
<pdfrwt beam="2">  1       -2 0.88742253E-01 0.72166810E+03</pdfrwt>
<totfact> 0.16502616E+01</totfact>
</mgrwt>
</event>
<event>
 4    1  0.3565372E-007  0.1161301E+04  0.7818608E-02  0.9195690E-01
         -2   -1    0    0    0  501 -0.00000000000E+00  0.00000000000E+00  0.10410714364E+04  0.10410714364E+04  0.25500000000E-02 0.  1.
          2   -1    0    0  501    0  0.00000000000E+00 -0.00000000000E+00 -0.15372603186E+04  0.15372603186E+04  0.25500000000E-02 0. -1.
    8880023    1    1    2    0    0 -0.52057836466E+03 -0.80237635380E+03 -0.95782589684E+03  0.15053405933E+04  0.65864270000E+03 0.  0.
    8880022    1    1    2    0    0  0.52057836466E+03  0.80237635380E+03  0.46163701464E+03  0.10729911617E+04  0.15294330000E+03 0.  0.
<mgrwt>
<rscale>  0 0.11098022E+04</rscale>
<asrwt>0</asrwt>
<pdfrwt beam="1">  1        2 0.23650159E+00 0.11613009E+04</pdfrwt>
<pdfrwt beam="2">  1       -2 0.16016484E+00 0.11613009E+04</pdfrwt>
<totfact> 0.29623505E+00</totfact>
</mgrwt>
</event>
<event>
 4    1  0.4055242E-007  0.8378074E+03  0.7818608E-02  0.9634329E-01
          2   -1    0    0  501    0  0.00000000000E+00  0.00000000000E+00  0.17213804084E+04  0.17213804084E+04  0.25500000000E-02 0. -1.
         -2   -1    0    0    0  501 -0.00000000000E+00 -0.00000000000E+00 -0.13177620421E+04  0.13177620421E+04  0.25500000000E-02 0.  1.
    8880023    1    1    2    0    0 -0.11465373096E+03  0.50494106515E+03  0.15556275484E+04  0.17668894230E+04  0.65864270000E+03 0. -1.
    8880022    1    1    2    0    0  0.11465373096E+03 -0.50494106515E+03 -0.11520091821E+04  0.12722530275E+04  0.15294330000E+03 0.  0.
<mgrwt>
<rscale>  0 0.75065163E+03</rscale>
<asrwt>0</asrwt>
<pdfrwt beam="1">  1        2 0.26482775E+00 0.83780735E+03</pdfrwt>
<pdfrwt beam="2">  1       -2 0.20273262E+00 0.83780735E+03</pdfrwt>
<totfact> 0.12434975E+00</totfact>
</mgrwt>
</event>
<event>
 4    1  0.3565372E-007  0.7303750E+03  0.7818608E-02  0.9888927E-01
          2   -1    0    0  501    0  0.00000000000E+00  0.00000000000E+00  0.13189645710E+04  0.13189645710E+04  0.25500000000E-02 0. -1.
         -2   -1    0    0    0  501 -0.00000000000E+00 -0.00000000000E+00 -0.47987728372E+03  0.47987728373E+03  0.25500000000E-02 0.  1.
    8880023    1    1    2    0    0 -0.19327988690E+03  0.24956033722E+03  0.11284114690E+04  0.13441577758E+04  0.65864270000E+03 0.  0.
    8880022    1    1    2    0    0  0.19327988690E+03 -0.24956033722E+03 -0.28932418165E+03  0.45468407900E+03  0.15294330000E+03 0.  0.
<mgrwt>
<rscale>  0 0.60800959E+03</rscale>
<asrwt>0</asrwt>
<pdfrwt beam="1">  1        2 0.20291762E+00 0.73037503E+03</pdfrwt>
<pdfrwt beam="2">  1       -2 0.73827275E-01 0.73037503E+03</pdfrwt>
<totfact> 0.27255470E+01</totfact>
</mgrwt>
</event>
<event>
 4    1  0.3565372E-007  0.1017324E+04  0.7818608E-02  0.9359236E-01
          2   -1    0    0  501    0  0.00000000000E+00  0.00000000000E+00  0.17860714597E+04  0.17860714597E+04  0.25500000000E-02 0. -1.
         -2   -1    0    0    0  501 -0.00000000000E+00 -0.00000000000E+00 -0.99941853878E+03  0.99941853878E+03  0.25500000000E-02 0.  1.
    8880023    1    1    2    0    0 -0.27765315868E+03 -0.72391024149E+03  0.14379415975E+04  0.17614265691E+04  0.65864270000E+03 0. -1.
    8880022    1    1    2    0    0  0.27765315868E+03  0.72391024149E+03 -0.65128867654E+03  0.10240634294E+04  0.15294330000E+03 0.  0.
<mgrwt>
<rscale>  0 0.95507713E+03</rscale>
<asrwt>0</asrwt>
<pdfrwt beam="1">  1        2 0.27478022E+00 0.10173237E+04</pdfrwt>
<pdfrwt beam="2">  1       -2 0.15375670E+00 0.10173237E+04</pdfrwt>
<totfact> 0.24464469E+00</totfact>
</mgrwt>
</event>
<event>
 4    1  0.3565372E-007  0.6894678E+03  0.7818608E-02  0.1004407E+00
          2   -1    0    0  501    0  0.00000000000E+00  0.00000000000E+00  0.88843533048E+03  0.88843533048E+03  0.25500000000E-02 0. -1.
         -2   -1    0    0    0  501 -0.00000000000E+00 -0.00000000000E+00 -0.38852576397E+03  0.38852576398E+03  0.25500000000E-02 0.  1.
    8880023    1    1    2    0    0 -0.20381791899E+03 -0.37190449981E+01  0.67727252848E+03  0.96646979234E+03  0.65864270000E+03 0. -1.
    8880022    1    1    2    0    0  0.20381791899E+03  0.37190449981E+01 -0.17736296197E+03  0.31049130212E+03  0.15294330000E+03 0.  0.
<mgrwt>
<rscale>  0 0.53759540E+03</rscale>
<asrwt>0</asrwt>
<pdfrwt beam="1">  1        2 0.13668236E+00 0.68946775E+03</pdfrwt>
<pdfrwt beam="2">  1       -2 0.59773195E-01 0.68946775E+03</pdfrwt>
<totfact> 0.79372906E+01</totfact>
</mgrwt>
</event>
<event>
 4    1  0.3565372E-007  0.6723430E+03  0.7818608E-02  0.1014036E+00
          2   -1    0    0  501    0  0.00000000000E+00  0.00000000000E+00  0.14326126849E+04  0.14326126849E+04  0.25500000000E-02 0. -1.
         -2   -1    0    0    0  501 -0.00000000000E+00 -0.00000000000E+00 -0.28890687923E+03  0.28890687924E+03  0.25500000000E-02 0.  1.
    8880023    1    1    2    0    0 -0.13251237363E+03 -0.25989086344E+02  0.13006252742E+04  0.14641281610E+04  0.65864270000E+03 0. -1.
    8880022    1    1    2    0    0  0.13251237363E+03  0.25989086344E+02 -0.15691946853E+03  0.25739140311E+03  0.15294330000E+03 0.  0.
<mgrwt>
<rscale>  0 0.49901612E+03</rscale>
<asrwt>0</asrwt>
<pdfrwt beam="1">  1        2 0.22040195E+00 0.67234304E+03</pdfrwt>
<pdfrwt beam="2">  1       -2 0.44447212E-01 0.67234304E+03</pdfrwt>
<totfact> 0.68381073E+01</totfact>
</mgrwt>
</event>
<event>
 4    1  0.3565372E-007  0.6993585E+03  0.7818608E-02  0.9999873E-01
          2   -1    0    0  501    0  0.00000000000E+00  0.00000000000E+00  0.11478636007E+04  0.11478636007E+04  0.25500000000E-02 0. -1.
         -2   -1    0    0    0  501 -0.00000000000E+00 -0.00000000000E+00 -0.21769118024E+03  0.21769118025E+03  0.25500000000E-02 0.  1.
    8880023    1    1    2    0    0 -0.18931285334E+03 -0.13947310519E+03  0.53299314332E+03  0.87930881981E+03  0.65864270000E+03 0.  0.
    8880022    1    1    2    0    0  0.18931285334E+03  0.13947310519E+03  0.39717927710E+03  0.48624596110E+03  0.15294330000E+03 0.  0.
<mgrwt>
<rscale>  0 0.55655813E+03</rscale>
<asrwt>0</asrwt>
<pdfrwt beam="1">  1        2 0.17659440E+00 0.69935850E+03</pdfrwt>
<pdfrwt beam="2">  1       -2 0.33490951E-01 0.69935850E+03</pdfrwt>
<totfact> 0.17228292E+02</totfact>
</mgrwt>
</event>
<event>
 4    1  0.3565372E-007  0.7211973E+03  0.7818608E-02  0.9918555E-01
          2   -1    0    0  501    0  0.00000000000E+00  0.00000000000E+00  0.49718005450E+03  0.49718005451E+03  0.25500000000E-02 0. -1.
         -2   -1    0    0    0  501 -0.00000000000E+00 -0.00000000000E+00 -0.10588566187E+04  0.10588566187E+04  0.25500000000E-02 0.  1.
    8880023    1    1    2    0    0 -0.20116926566E+03  0.21411736063E+03  0.18038147922E+03  0.74341307621E+03  0.65864270000E+03 0. -1.
    8880022    1    1    2    0    0  0.20116926566E+03 -0.21411736063E+03 -0.74205804341E+03  0.81262359698E+03  0.15294330000E+03 0.  0.
<mgrwt>
<rscale>  0 0.59370382E+03</rscale>
<asrwt>0</asrwt>
<pdfrwt beam="1">  1        2 0.76489239E-01 0.72119728E+03</pdfrwt>
<pdfrwt beam="2">  1       -2 0.16290102E+00 0.72119728E+03</pdfrwt>
<totfact> 0.15125482E+01</totfact>
</mgrwt>
</event>
<event>
 4    1  0.3565372E-007  0.7544237E+03  0.7818608E-02  0.9819764E-01
          2   -1    0    0  501    0  0.00000000000E+00  0.00000000000E+00  0.19362166949E+04  0.19362166949E+04  0.25500000000E-02 0. -1.
         -2   -1    0    0    0  501 -0.00000000000E+00 -0.00000000000E+00 -0.49612914489E+03  0.49612914489E+03  0.25500000000E-02 0.  1.
    8880023    1    1    2    0    0  0.13238571364E+03 -0.34324772627E+03  0.17642044891E+04  0.19187424695E+04  0.65864270000E+03 0. -1.
    8880022    1    1    2    0    0 -0.13238571364E+03  0.34324772627E+03 -0.32411693906E+03  0.51360337028E+03  0.15294330000E+03 0.  0.
<mgrwt>
<rscale>  0 0.64312613E+03</rscale>
<asrwt>0</asrwt>
<pdfrwt beam="1">  1        2 0.29787950E+00 0.75442374E+03</pdfrwt>
<pdfrwt beam="2">  1       -2 0.76327560E-01 0.75442374E+03</pdfrwt>
<totfact> 0.11501319E+01</totfact>
</mgrwt>
</event>
<event>
 4    1  0.3565372E-007  0.1181931E+04  0.7818608E-02  0.9174889E-01
         -2   -1    0    0    0  501 -0.00000000000E+00  0.00000000000E+00  0.15911160910E+04  0.15911160910E+04  0.25500000000E-02 0.  1.
          2   -1    0    0  501    0  0.00000000000E+00 -0.00000000000E+00 -0.14926403906E+04  0.14926403906E+04  0.25500000000E-02 0. -1.
    8880023    1    1    2    0    0  0.74390010899E+03  0.64012827222E+03 -0.10389820348E+04  0.15736726000E+04  0.65864270000E+03 0. -1.
    8880022    1    1    2    0    0 -0.74390010899E+03 -0.64012827222E+03  0.11374577353E+04  0.15100838816E+04  0.15294330000E+03 0.  0.
<mgrwt>
<rscale>  0 0.11316411E+04</rscale>
<asrwt>0</asrwt>
<pdfrwt beam="1">  1        2 0.22963698E+00 0.11819314E+04</pdfrwt>
<pdfrwt beam="2">  1       -2 0.24478709E+00 0.11819314E+04</pdfrwt>
<totfact> 0.86335359E-01</totfact>
</mgrwt>
</event>
<event>
 4    1  0.3565372E-007  0.7488589E+03  0.7818608E-02  0.9834855E-01
         -2   -1    0    0    0  501 -0.00000000000E+00  0.00000000000E+00  0.71320752228E+03  0.71320752228E+03  0.25500000000E-02 0.  1.
          2   -1    0    0  501    0  0.00000000000E+00 -0.00000000000E+00 -0.12101390548E+04  0.12101390548E+04  0.25500000000E-02 0. -1.
    8880023    1    1    2    0    0  0.29419687162E+01  0.35632953587E+03 -0.10242419075E+04  0.12688030125E+04  0.65864270000E+03 0. -1.
    8880022    1    1    2    0    0 -0.29419687162E+01 -0.35632953587E+03  0.52731037497E+03  0.65454356454E+03  0.15294330000E+03 0.  0.
<mgrwt>
<rscale>  0 0.63525122E+03</rscale>
<asrwt>0</asrwt>
<pdfrwt beam="1">  1        2 0.18617524E+00 0.74885886E+03</pdfrwt>
<pdfrwt beam="2">  1       -2 0.10972423E+00 0.74885886E+03</pdfrwt>
<totfact> 0.12592023E+01</totfact>
</mgrwt>
</event>
<event>
 4    1  0.3565372E-007  0.6822682E+03  0.7818608E-02  0.1008069E+00
          2   -1    0    0  501    0  0.00000000000E+00  0.00000000000E+00  0.16554018709E+04  0.16554018709E+04  0.25500000000E-02 0. -1.
         -2   -1    0    0    0  501 -0.00000000000E+00 -0.00000000000E+00 -0.79984363422E+03  0.79984363422E+03  0.25500000000E-02 0.  1.
    8880023    1    1    2    0    0 -0.15230148774E+03  0.92108396272E+02  0.15653988444E+04  0.17076192340E+04  0.65864270000E+03 0.  0.
    8880022    1    1    2    0    0  0.15230148774E+03 -0.92108396272E+02 -0.70984060777E+03  0.74762627113E+03  0.15294330000E+03 0.  1.
<mgrwt>
<rscale>  0 0.52249492E+03</rscale>
<asrwt>0</asrwt>
<pdfrwt beam="1">  1        2 0.25467721E+00 0.68226821E+03</pdfrwt>
<pdfrwt beam="2">  1       -2 0.12305287E+00 0.68226821E+03</pdfrwt>
<totfact> 0.53847968E+00</totfact>
</mgrwt>
</event>
<event>
 4    1  0.3565372E-007  0.1016603E+04  0.7818608E-02  0.9360151E-01
          2   -1    0    0  501    0  0.00000000000E+00  0.00000000000E+00  0.13056647230E+04  0.13056647230E+04  0.25500000000E-02 0. -1.
         -2   -1    0    0    0  501 -0.00000000000E+00 -0.00000000000E+00 -0.99695646689E+03  0.99695646689E+03  0.25500000000E-02 0.  1.
    8880023    1    1    2    0    0  0.13360822457E+03 -0.76277120621E+03  0.86674931441E+03  0.13359399878E+04  0.65864270000E+03 0.  0.
    8880022    1    1    2    0    0 -0.13360822457E+03  0.76277120621E+03 -0.55804105831E+03  0.96668120209E+03  0.15294330000E+03 0.  0.
<mgrwt>
<rscale>  0 0.95428907E+03</rscale>
<asrwt>0</asrwt>
<pdfrwt beam="1">  1        2 0.20087150E+00 0.10166028E+04</pdfrwt>
<pdfrwt beam="2">  1       -2 0.15337792E+00 0.10166028E+04</pdfrwt>
<totfact> 0.45854706E+00</totfact>
</mgrwt>
</event>
<event>
 4    1  0.3565372E-007  0.8818549E+03  0.7818608E-02  0.9555811E-01
         -2   -1    0    0    0  501 -0.00000000000E+00  0.00000000000E+00  0.22881376643E+04  0.22881376643E+04  0.25500000000E-02 0.  1.
          2   -1    0    0  501    0  0.00000000000E+00 -0.00000000000E+00 -0.10916298379E+04  0.10916298379E+04  0.25500000000E-02 0. -1.
    8880023    1    1    2    0    0 -0.45712716018E+03  0.36727741595E+03 -0.86244530865E+03  0.12334828971E+04  0.65864270000E+03 0.  0.
    8880022    1    1    2    0    0  0.45712716018E+03 -0.36727741595E+03  0.20589531350E+04  0.21462846051E+04  0.15294330000E+03 0.  0.
<mgrwt>
<rscale>  0 0.80291215E+03</rscale>
<asrwt>0</asrwt>
<pdfrwt beam="1">  1        2 0.16794305E+00 0.88185495E+03</pdfrwt>
<pdfrwt beam="2">  1       -2 0.35202118E+00 0.88185495E+03</pdfrwt>
<totfact> 0.34396359E-01</totfact>
</mgrwt>
</event>
<event>
 4    1  0.3565372E-007  0.7486672E+03  0.7818608E-02  0.9835383E-01
          2   -1    0    0  501    0  0.00000000000E+00  0.00000000000E+00  0.24657523397E+04  0.24657523397E+04  0.25500000000E-02 0. -1.
         -2   -1    0    0    0  501 -0.00000000000E+00 -0.00000000000E+00 -0.20974272726E+03  0.20974272728E+03  0.25500000000E-02 0.  1.
    8880023    1    1    2    0    0 -0.35207268838E+03  0.52318390999E+02  0.21458925529E+04  0.22727422746E+04  0.65864270000E+03 0. -1.
    8880022    1    1    2    0    0  0.35207268838E+03 -0.52318390999E+02  0.11011705953E+03  0.40275279236E+03  0.15294330000E+03 0.  0.
<mgrwt>
<rscale>  0 0.63497763E+03</rscale>
<asrwt>0</asrwt>
<pdfrwt beam="1">  1        2 0.37934650E+00 0.74866721E+03</pdfrwt>
<pdfrwt beam="2">  1       -2 0.32268113E-01 0.74866721E+03</pdfrwt>
<totfact> 0.33950289E+01</totfact>
</mgrwt>
</event>
<event>
 4    1  0.3565372E-007  0.8749211E+03  0.7818608E-02  0.9567554E-01
          2   -1    0    0  501    0  0.00000000000E+00  0.00000000000E+00  0.17391047129E+04  0.17391047129E+04  0.25500000000E-02 0. -1.
         -2   -1    0    0    0  501 -0.00000000000E+00 -0.00000000000E+00 -0.49242583384E+03  0.49242583385E+03  0.25500000000E-02 0.  1.
    8880023    1    1    2    0    0  0.35836849614E+03  0.45083125249E+03  0.13675894305E+04  0.16235109651E+04  0.65864270000E+03 0.  0.
    8880022    1    1    2    0    0 -0.35836849614E+03 -0.45083125249E+03 -0.12091055137E+03  0.60801958167E+03  0.15294330000E+03 0.  0.
<mgrwt>
<rscale>  0 0.79481434E+03</rscale>
<asrwt>0</asrwt>
<pdfrwt beam="1">  1        2 0.26755457E+00 0.87492114E+03</pdfrwt>
<pdfrwt beam="2">  1       -2 0.75757820E-01 0.87492114E+03</pdfrwt>
<totfact> 0.14755091E+01</totfact>
</mgrwt>
</event>
<event>
 4    1  0.3565372E-007  0.6634560E+03  0.7818608E-02  0.1020865E+00
         -2   -1    0    0    0  501 -0.00000000000E+00  0.00000000000E+00  0.12519905776E+03  0.12519905779E+03  0.25500000000E-02 0.  1.
          2   -1    0    0  501    0  0.00000000000E+00 -0.00000000000E+00 -0.16655322360E+04  0.16655322360E+04  0.25500000000E-02 0. -1.
    8880023    1    1    2    0    0 -0.78460912274E+02 -0.14406080485E+02 -0.14531770926E+04  0.15974659679E+04  0.65864270000E+03 0. -1.
    8880022    1    1    2    0    0  0.78460912274E+02  0.14406080485E+02 -0.87156085638E+02  0.19326532588E+03  0.15294330000E+03 0.  0.
<mgrwt>
<rscale>  0 0.47375591E+03</rscale>
<asrwt>0</asrwt>
<pdfrwt beam="1">  1        2 0.25623571E+00 0.66345599E+03</pdfrwt>
<pdfrwt beam="2">  1       -2 0.19261395E-01 0.66345599E+03</pdfrwt>
<totfact> 0.23922133E+02</totfact>
</mgrwt>
</event>
<event>
 4    1  0.3565372E-007  0.6665847E+03  0.7818608E-02  0.1018239E+00
         -2   -1    0    0    0  501 -0.00000000000E+00  0.00000000000E+00  0.81410749054E+03  0.81410749054E+03  0.25500000000E-02 0.  1.
          2   -1    0    0  501    0  0.00000000000E+00 -0.00000000000E+00 -0.24201666507E+03  0.24201666509E+03  0.25500000000E-02 0. -1.
    8880023    1    1    2    0    0 -0.99697309517E+02 -0.24195135630E+02  0.56166161063E+03  0.87166445908E+03  0.65864270000E+03 0.  1.
    8880022    1    1    2    0    0  0.99697309517E+02  0.24195135630E+02  0.10429214837E+02  0.18445969655E+03  0.15294330000E+03 0.  0.
<mgrwt>
<rscale>  0 0.48327359E+03</rscale>
<asrwt>0</asrwt>
<pdfrwt beam="1">  1        2 0.37233333E-01 0.66658470E+03</pdfrwt>
<pdfrwt beam="2">  1       -2 0.12524731E+00 0.66658470E+03</pdfrwt>
<totfact> 0.67526706E+01</totfact>
</mgrwt>
</event>
<event>
 4    1  0.3565372E-007  0.9848254E+03  0.7818608E-02  0.9401685E-01
         -2   -1    0    0    0  501 -0.00000000000E+00  0.00000000000E+00  0.11017605795E+04  0.11017605795E+04  0.25500000000E-02 0.  1.
          2   -1    0    0  501    0  0.00000000000E+00 -0.00000000000E+00 -0.10086679739E+04  0.10086679739E+04  0.25500000000E-02 0. -1.
    8880023    1    1    2    0    0 -0.26408260176E+03 -0.68288457200E+03 -0.54648877744E+03  0.11262908813E+04  0.65864270000E+03 0.  0.
    8880022    1    1    2    0    0  0.26408260176E+03  0.68288457200E+03  0.63958138305E+03  0.98413767217E+03  0.15294330000E+03 0.  0.
<mgrwt>
<rscale>  0 0.91937106E+03</rscale>
<asrwt>0</asrwt>
<pdfrwt beam="1">  1        2 0.15517969E+00 0.98482545E+03</pdfrwt>
<pdfrwt beam="2">  1       -2 0.16950163E+00 0.98482545E+03</pdfrwt>
<totfact> 0.53045469E+00</totfact>
</mgrwt>
</event>
<event>
 4    1  0.3565372E-007  0.1056218E+04  0.7818608E-02  0.9311444E-01
         -2   -1    0    0    0  501 -0.00000000000E+00  0.00000000000E+00  0.78507456115E+03  0.78507456115E+03  0.25500000000E-02 0.  1.
          2   -1    0    0  501    0  0.00000000000E+00 -0.00000000000E+00 -0.12581314140E+04  0.12581314140E+04  0.25500000000E-02 0. -1.
    8880023    1    1    2    0    0  0.25147647123E+03  0.78647661305E+03 -0.56603004089E+03  0.11983263712E+04  0.65864270000E+03 0.  0.
    8880022    1    1    2    0    0 -0.25147647123E+03 -0.78647661305E+03  0.92973188041E+02  0.84487960395E+03  0.15294330000E+03 0.  0.
<mgrwt>
<rscale>  0 0.99736110E+03</rscale>
<asrwt>0</asrwt>
<pdfrwt beam="1">  1        2 0.19355868E+00 0.10562178E+04</pdfrwt>
<pdfrwt beam="2">  1       -2 0.12078070E+00 0.10562178E+04</pdfrwt>
<totfact> 0.90265800E+00</totfact>
</mgrwt>
</event>
<event>
 4    1  0.3565372E-007  0.7418127E+03  0.7818608E-02  0.9854698E-01
          2   -1    0    0  501    0  0.00000000000E+00  0.00000000000E+00  0.14578967780E+04  0.14578967780E+04  0.25500000000E-02 0. -1.
         -2   -1    0    0    0  501 -0.00000000000E+00 -0.00000000000E+00 -0.26920686059E+03  0.26920686060E+03  0.25500000000E-02 0.  1.
    8880023    1    1    2    0    0 -0.84529899494E+02  0.33065183447E+03  0.11252592445E+04  0.13477739102E+04  0.65864270000E+03 0. -1.
    8880022    1    1    2    0    0  0.84529899494E+02 -0.33065183447E+03  0.63430672934E+02  0.37932972837E+03  0.15294330000E+03 0.  0.
<mgrwt>
<rscale>  0 0.62507964E+03</rscale>
<asrwt>0</asrwt>
<pdfrwt beam="1">  1        2 0.22429181E+00 0.74181274E+03</pdfrwt>
<pdfrwt beam="2">  1       -2 0.41416440E-01 0.74181274E+03</pdfrwt>
<totfact> 0.75554941E+01</totfact>
</mgrwt>
</event>
<event>
 4    1  0.3565372E-007  0.7590569E+03  0.7818608E-02  0.9807555E-01
          2   -1    0    0  501    0  0.00000000000E+00  0.00000000000E+00  0.18318735934E+04  0.18318735934E+04  0.25500000000E-02 0. -1.
         -2   -1    0    0    0  501 -0.00000000000E+00 -0.00000000000E+00 -0.25637265443E+03  0.25637265445E+03  0.25500000000E-02 0.  1.
    8880023    1    1    2    0    0  0.19006913220E+03  0.32593079873E+03  0.14900554701E+04  0.16722537698E+04  0.65864270000E+03 0.  0.
    8880022    1    1    2    0    0 -0.19006913220E+03 -0.32593079873E+03  0.85445468872E+02  0.41599247799E+03  0.15294330000E+03 0.  0.
<mgrwt>
<rscale>  0 0.64958659E+03</rscale>
<asrwt>0</asrwt>
<pdfrwt beam="1">  1        2 0.28182671E+00 0.75905689E+03</pdfrwt>
<pdfrwt beam="2">  1       -2 0.39441946E-01 0.75905689E+03</pdfrwt>
<totfact> 0.51656377E+01</totfact>
</mgrwt>
</event>
<event>
 4    1  0.3565372E-007  0.6633974E+03  0.7818608E-02  0.1020917E+00
          2   -1    0    0  501    0  0.00000000000E+00  0.00000000000E+00  0.53785468683E+03  0.53785468684E+03  0.25500000000E-02 0. -1.
         -2   -1    0    0    0  501 -0.00000000000E+00 -0.00000000000E+00 -0.38773176708E+03  0.38773176709E+03  0.25500000000E-02 0.  1.
    8880023    1    1    2    0    0 -0.68150146066E+02 -0.40515456568E+02  0.26944296988E+03  0.71602769842E+03  0.65864270000E+03 0. -1.
    8880022    1    1    2    0    0  0.68150146066E+02  0.40515456568E+02 -0.11932005013E+03  0.20955875550E+03  0.15294330000E+03 0.  1.
<mgrwt>
<rscale>  0 0.47356973E+03</rscale>
<asrwt>0</asrwt>
<pdfrwt beam="1">  1        2 0.82746874E-01 0.66339743E+03</pdfrwt>
<pdfrwt beam="2">  1       -2 0.59651041E-01 0.66339743E+03</pdfrwt>
<totfact> 0.15040066E+02</totfact>
</mgrwt>
</event>
<event>
 4    1  0.3565372E-007  0.8230687E+03  0.7818608E-02  0.9662972E-01
          2   -1    0    0  501    0  0.00000000000E+00  0.00000000000E+00  0.33394444988E+03  0.33394444989E+03  0.25500000000E-02 0. -1.
         -2   -1    0    0    0  501 -0.00000000000E+00 -0.00000000000E+00 -0.14298173508E+04  0.14298173508E+04  0.25500000000E-02 0.  1.
    8880023    1    1    2    0    0 -0.28211159888E+03 -0.40502466223E+03 -0.45483036219E+03  0.94037907031E+03  0.65864270000E+03 0.  0.
    8880022    1    1    2    0    0  0.28211159888E+03  0.40502466223E+03 -0.64104253876E+03  0.82338273042E+03  0.15294330000E+03 0. -1.
<mgrwt>
<rscale>  0 0.73264869E+03</rscale>
<asrwt>0</asrwt>
<pdfrwt beam="1">  1        2 0.51376070E-01 0.82306873E+03</pdfrwt>
<pdfrwt beam="2">  1       -2 0.21997190E+00 0.82306873E+03</pdfrwt>
<totfact> 0.97656812E+00</totfact>
</mgrwt>
</event>
<event>
 4    1  0.3565372E-007  0.8629371E+03  0.7818608E-02  0.9588360E-01
          2   -1    0    0  501    0  0.00000000000E+00  0.00000000000E+00  0.11472782167E+04  0.11472782167E+04  0.25500000000E-02 0. -1.
         -2   -1    0    0    0  501 -0.00000000000E+00 -0.00000000000E+00 -0.62953438452E+03  0.62953438453E+03  0.25500000000E-02 0.  1.
    8880023    1    1    2    0    0  0.55742859614E+03 -0.11115496648E+02  0.76007214867E+03  0.11499435080E+04  0.65864270000E+03 0. -1.
    8880022    1    1    2    0    0 -0.55742859614E+03  0.11115496648E+02 -0.24232831652E+03  0.62686909324E+03  0.15294330000E+03 0.  0.
<mgrwt>
<rscale>  0 0.78071397E+03</rscale>
<asrwt>0</asrwt>
<pdfrwt beam="1">  1        2 0.17650434E+00 0.86293708E+03</pdfrwt>
<pdfrwt beam="2">  1       -2 0.96851444E-01 0.86293708E+03</pdfrwt>
<totfact> 0.18273003E+01</totfact>
</mgrwt>
</event>
<event>
 4    1  0.3565372E-007  0.6794644E+03  0.7818608E-02  0.1009628E+00
         -2   -1    0    0    0  501 -0.00000000000E+00  0.00000000000E+00  0.16627752341E+03  0.16627752343E+03  0.25500000000E-02 0.  1.
          2   -1    0    0  501    0  0.00000000000E+00 -0.00000000000E+00 -0.23318887153E+04  0.23318887153E+04  0.25500000000E-02 0. -1.
    8880023    1    1    2    0    0 -0.42979902083E+02  0.16128989051E+03 -0.21677728740E+04  0.22717638831E+04  0.65864270000E+03 0. -1.
    8880022    1    1    2    0    0  0.42979902083E+02 -0.16128989051E+03  0.21616821355E+01  0.22640235566E+03  0.15294330000E+03 0.  0.
<mgrwt>
<rscale>  0 0.51622654E+03</rscale>
<asrwt>0</asrwt>
<pdfrwt beam="1">  1        2 0.35875209E+00 0.67946443E+03</pdfrwt>
<pdfrwt beam="2">  1       -2 0.25581159E-01 0.67946443E+03</pdfrwt>
<totfact> 0.62485570E+01</totfact>
</mgrwt>
</event>
<event>
 4    1  0.3565372E-007  0.7109575E+03  0.7818608E-02  0.9954462E-01
          2   -1    0    0  501    0  0.00000000000E+00  0.00000000000E+00  0.82481855415E+03  0.82481855415E+03  0.25500000000E-02 0. -1.
         -2   -1    0    0    0  501 -0.00000000000E+00 -0.00000000000E+00 -0.55977995987E+03  0.55977995988E+03  0.25500000000E-02 0.  1.
    8880023    1    1    2    0    0  0.17102103612E+03  0.20591790401E+03  0.59931870324E+03  0.92986208241E+03  0.65864270000E+03 0. -1.
    8880022    1    1    2    0    0 -0.17102103612E+03 -0.20591790401E+03 -0.33428010896E+03  0.45473643162E+03  0.15294330000E+03 0.  0.
<mgrwt>
<rscale>  0 0.57692877E+03</rscale>
<asrwt>0</asrwt>
<pdfrwt beam="1">  1        2 0.12689516E+00 0.71095751E+03</pdfrwt>
<pdfrwt beam="2">  1       -2 0.86119994E-01 0.71095751E+03</pdfrwt>
<totfact> 0.39344252E+01</totfact>
</mgrwt>
</event>
<event>
 4    1  0.3565372E-007  0.6698495E+03  0.7818608E-02  0.1015771E+00
         -2   -1    0    0    0  501 -0.00000000000E+00  0.00000000000E+00  0.81105662203E+03  0.81105662203E+03  0.25500000000E-02 0.  1.
          2   -1    0    0  501    0  0.00000000000E+00 -0.00000000000E+00 -0.23178783270E+03  0.23178783272E+03  0.25500000000E-02 0. -1.
    8880023    1    1    2    0    0  0.82519499963E+02  0.89881587752E+02  0.47472519667E+03  0.82101302445E+03  0.65864270000E+03 0.  0.
    8880022    1    1    2    0    0 -0.82519499963E+02 -0.89881587752E+02  0.10454359265E+03  0.22183143030E+03  0.15294330000E+03 0. -1.
<mgrwt>
<rscale>  0 0.49244096E+03</rscale>
<asrwt>0</asrwt>
<pdfrwt beam="1">  1        2 0.35659666E-01 0.66984952E+03</pdfrwt>
<pdfrwt beam="2">  1       -2 0.12477794E+00 0.66984952E+03</pdfrwt>
<totfact> 0.71516780E+01</totfact>
</mgrwt>
</event>
<event>
 4    1  0.3565372E-007  0.7223820E+03  0.7818608E-02  0.9914607E-01
         -2   -1    0    0    0  501 -0.00000000000E+00  0.00000000000E+00  0.56593664900E+03  0.56593664901E+03  0.25500000000E-02 0.  1.
          2   -1    0    0  501    0  0.00000000000E+00 -0.00000000000E+00 -0.76130067963E+03  0.76130067963E+03  0.25500000000E-02 0. -1.
    8880023    1    1    2    0    0 -0.29167428435E+03  0.54329484374E+02 -0.49741112807E+03  0.87707104479E+03  0.65864270000E+03 0. -1.
    8880022    1    1    2    0    0  0.29167428435E+03 -0.54329484374E+02  0.30204709744E+03  0.45016628385E+03  0.15294330000E+03 0.  0.
<mgrwt>
<rscale>  0 0.59558568E+03</rscale>
<asrwt>0</asrwt>
<pdfrwt beam="1">  1        2 0.11712318E+00 0.72238202E+03</pdfrwt>
<pdfrwt beam="2">  1       -2 0.87067177E-01 0.72238202E+03</pdfrwt>
<totfact> 0.42607633E+01</totfact>
</mgrwt>
</event>
<event>
 4    1  0.3565372E-007  0.6604998E+03  0.7818608E-02  0.1023650E+00
         -2   -1    0    0    0  501 -0.00000000000E+00  0.00000000000E+00  0.34859564351E+03  0.34859564352E+03  0.25500000000E-02 0.  1.
          2   -1    0    0  501    0  0.00000000000E+00 -0.00000000000E+00 -0.92455215645E+03  0.92455215645E+03  0.25500000000E-02 0. -1.
    8880023    1    1    2    0    0  0.49229644280E+02 -0.51232317827E+01 -0.77436378467E+03  0.10177913748E+04  0.65864270000E+03 0.  0.
    8880022    1    1    2    0    0 -0.49229644280E+02  0.51232317827E+01  0.19840727173E+03  0.25535642516E+03  0.15294330000E+03 0.  1.
<mgrwt>
<rscale>  0 0.46392113E+03</rscale>
<asrwt>0</asrwt>
<pdfrwt beam="1">  1        2 0.14223879E+00 0.66049982E+03</pdfrwt>
<pdfrwt beam="2">  1       -2 0.53630099E-01 0.66049982E+03</pdfrwt>
<totfact> 0.94344161E+01</totfact>
</mgrwt>
</event>
<event>
 4    1  0.3565372E-007  0.1012826E+04  0.7818608E-02  0.9364966E-01
          2   -1    0    0  501    0  0.00000000000E+00  0.00000000000E+00  0.40963009361E+04  0.40963009361E+04  0.25500000000E-02 0. -1.
         -2   -1    0    0    0  501 -0.00000000000E+00 -0.00000000000E+00 -0.70261789591E+03  0.70261789591E+03  0.25500000000E-02 0.  1.
    8880023    1    1    2    0    0 -0.65710749391E+03 -0.40027001364E+03  0.37878958820E+04  0.39209656670E+04  0.65864270000E+03 0.  0.
    8880022    1    1    2    0    0  0.65710749391E+03  0.40027001364E+03 -0.39421284180E+03  0.87795316506E+03  0.15294330000E+03 0.  0.
<mgrwt>
<rscale>  0 0.95015760E+03</rscale>
<asrwt>0</asrwt>
<pdfrwt beam="1">  1        2 0.63020013E+00 0.10128260E+04</pdfrwt>
<pdfrwt beam="2">  1       -2 0.10809506E+00 0.10128260E+04</pdfrwt>
<totfact> 0.20540836E-01</totfact>
</mgrwt>
</event>
<event>
 4    1  0.3565372E-007  0.7434747E+03  0.7818608E-02  0.9849939E-01
         -2   -1    0    0    0  501 -0.00000000000E+00  0.00000000000E+00  0.18010555525E+03  0.18010555526E+03  0.25500000000E-02 0.  1.
          2   -1    0    0  501    0  0.00000000000E+00 -0.00000000000E+00 -0.24474121303E+04  0.24474121303E+04  0.25500000000E-02 0. -1.
    8880023    1    1    2    0    0  0.27135508877E+03 -0.21286335826E+03 -0.20747640007E+04  0.22039510563E+04  0.65864270000E+03 0. -1.
    8880022    1    1    2    0    0 -0.27135508877E+03  0.21286335826E+03 -0.19254257430E+03  0.42356662926E+03  0.15294330000E+03 0.  0.
<mgrwt>
<rscale>  0 0.62750039E+03</rscale>
<asrwt>0</asrwt>
<pdfrwt beam="1">  1        2 0.37652492E+00 0.74347468E+03</pdfrwt>
<pdfrwt beam="2">  1       -2 0.27708549E-01 0.74347468E+03</pdfrwt>
<totfact> 0.46157383E+01</totfact>
</mgrwt>
</event>
<event>
 4    1  0.3565372E-007  0.1159709E+04  0.7818608E-02  0.9197319E-01
          2   -1    0    0  501    0  0.00000000000E+00  0.00000000000E+00  0.30281571197E+04  0.30281571197E+04  0.25500000000E-02 0. -1.
         -2   -1    0    0    0  501 -0.00000000000E+00 -0.00000000000E+00 -0.88589909113E+03  0.88589909113E+03  0.25500000000E-02 0.  1.
    8880023    1    1    2    0    0  0.64992132160E+03 -0.69908343109E+03 -0.37397466231E+03  0.12185165662E+04  0.65864270000E+03 0.  1.
    8880022    1    1    2    0    0 -0.64992132160E+03  0.69908343109E+03  0.25162326909E+04  0.26955396446E+04  0.15294330000E+03 0.  0.
<mgrwt>
<rscale>  0 0.11081146E+04</rscale>
<asrwt>0</asrwt>
<pdfrwt beam="1">  1        2 0.46587034E+00 0.11597093E+04</pdfrwt>
<pdfrwt beam="2">  1       -2 0.13629216E+00 0.11597093E+04</pdfrwt>
<totfact> 0.63866059E-01</totfact>
</mgrwt>
</event>
<event>
 4    1  0.3565372E-007  0.1436853E+04  0.7818608E-02  0.8955564E-01
         -2   -1    0    0    0  501 -0.00000000000E+00  0.00000000000E+00  0.10845452861E+04  0.10845452861E+04  0.25500000000E-02 0.  1.
          2   -1    0    0  501    0  0.00000000000E+00 -0.00000000000E+00 -0.24334186098E+04  0.24334186098E+04  0.25500000000E-02 0. -1.
    8880023    1    1    2    0    0 -0.10627616049E+04  0.70800697940E+03  0.25793302822E+03  0.14598204565E+04  0.65864270000E+03 0.  0.
    8880022    1    1    2    0    0  0.10627616049E+04 -0.70800697940E+03 -0.16068063519E+04  0.20581434394E+04  0.15294330000E+03 0.  0.
<mgrwt>
<rscale>  0 0.13975919E+04</rscale>
<asrwt>0</asrwt>
<pdfrwt beam="1">  1        2 0.37437209E+00 0.14368529E+04</pdfrwt>
<pdfrwt beam="2">  1       -2 0.16685312E+00 0.14368529E+04</pdfrwt>
<totfact> 0.81018757E-01</totfact>
</mgrwt>
</event>
<event>
 4    1  0.3565372E-007  0.6756297E+03  0.7818608E-02  0.1011912E+00
          2   -1    0    0  501    0  0.00000000000E+00  0.00000000000E+00  0.15946104636E+04  0.15946104636E+04  0.25500000000E-02 0. -1.
         -2   -1    0    0    0  501 -0.00000000000E+00 -0.00000000000E+00 -0.51420704176E+03  0.51420704177E+03  0.25500000000E-02 0.  1.
    8880023    1    1    2    0    0  0.14931880164E+03 -0.19213567468E+02  0.14957724115E+04  0.16412832111E+04  0.65864270000E+03 0. -1.
    8880022    1    1    2    0    0 -0.14931880164E+03  0.19213567468E+02 -0.41536898969E+03  0.46753429426E+03  0.15294330000E+03 0.  0.
<mgrwt>
<rscale>  0 0.50721653E+03</rscale>
<asrwt>0</asrwt>
<pdfrwt beam="1">  1        2 0.24532469E+00 0.67562969E+03</pdfrwt>
<pdfrwt beam="2">  1       -2 0.79108776E-01 0.67562969E+03</pdfrwt>
<totfact> 0.16499030E+01</totfact>
</mgrwt>
</event>
<event>
 4    1  0.3565372E-007  0.9266715E+03  0.7818608E-02  0.9484504E-01
         -2   -1    0    0    0  501 -0.00000000000E+00  0.00000000000E+00  0.22450967094E+03  0.22450967096E+03  0.25500000000E-02 0.  1.
          2   -1    0    0  501    0  0.00000000000E+00 -0.00000000000E+00 -0.31554796318E+04  0.31554796318E+04  0.25500000000E-02 0. -1.
    8880023    1    1    2    0    0 -0.49331686924E+03  0.42608486806E+03 -0.22081521274E+04  0.23947141525E+04  0.65864270000E+03 0.  0.
    8880022    1    1    2    0    0  0.49331686924E+03 -0.42608486806E+03 -0.72281783339E+03  0.98527515018E+03  0.15294330000E+03 0.  0.
<mgrwt>
<rscale>  0 0.85435945E+03</rscale>
<asrwt>0</asrwt>
<pdfrwt beam="1">  1        2 0.48545837E+00 0.92667149E+03</pdfrwt>
<pdfrwt beam="2">  1       -2 0.34539952E-01 0.92667149E+03</pdfrwt>
<totfact> 0.11296269E+01</totfact>
</mgrwt>
</event>
<event>
 4    1  0.3565372E-007  0.6869698E+03  0.7818608E-02  0.1005627E+00
         -2   -1    0    0    0  501 -0.00000000000E+00  0.00000000000E+00  0.22067989100E+03  0.22067989101E+03  0.25500000000E-02 0.  1.
          2   -1    0    0  501    0  0.00000000000E+00 -0.00000000000E+00 -0.17610453812E+04  0.17610453812E+04  0.25500000000E-02 0. -1.
    8880023    1    1    2    0    0 -0.19219914020E+03  0.34303661535E+02 -0.15870578793E+04  0.17293583114E+04  0.65864270000E+03 0. -1.
    8880022    1    1    2    0    0  0.19219914020E+03 -0.34303661535E+02  0.46692389107E+02  0.25236696080E+03  0.15294330000E+03 0.  0.
<mgrwt>
<rscale>  0 0.53250105E+03</rscale>
<asrwt>0</asrwt>
<pdfrwt beam="1">  1        2 0.27093005E+00 0.68696976E+03</pdfrwt>
<pdfrwt beam="2">  1       -2 0.33950754E-01 0.68696976E+03</pdfrwt>
<totfact> 0.75885139E+01</totfact>
</mgrwt>
</event>
<event>
 4    1  0.3565372E-007  0.1134244E+04  0.7818608E-02  0.9223855E-01
         -2   -1    0    0    0  501 -0.00000000000E+00  0.00000000000E+00  0.23092803187E+04  0.23092803187E+04  0.25500000000E-02 0.  1.
          2   -1    0    0  501    0  0.00000000000E+00 -0.00000000000E+00 -0.56822807833E+03  0.56822807833E+03  0.25500000000E-02 0. -1.
    8880023    1    1    2    0    0 -0.38068285228E+03 -0.84129619809E+03  0.32467158089E+03  0.11797968336E+04  0.65864270000E+03 0.  1.
    8880022    1    1    2    0    0  0.38068285228E+03  0.84129619809E+03  0.14163806594E+04  0.16977115634E+04  0.15294330000E+03 0.  0.
<mgrwt>
<rscale>  0 0.10810566E+04</rscale>
<asrwt>0</asrwt>
<pdfrwt beam="1">  1        2 0.87419706E-01 0.11342438E+04</pdfrwt>
<pdfrwt beam="2">  1       -2 0.35527389E+00 0.11342438E+04</pdfrwt>
<totfact> 0.76098129E-01</totfact>
</mgrwt>
</event>
<event>
 4    1  0.3565372E-007  0.7922585E+03  0.7818608E-02  0.9727792E-01
         -2   -1    0    0    0  501 -0.00000000000E+00  0.00000000000E+00  0.17889882098E+03  0.17889882100E+03  0.25500000000E-02 0.  1.
          2   -1    0    0  501    0  0.00000000000E+00 -0.00000000000E+00 -0.32124704453E+04  0.32124704453E+04  0.25500000000E-02 0. -1.
    8880023    1    1    2    0    0  0.31034730753E+03  0.31232659130E+03 -0.86381722851E+03  0.11721150803E+04  0.65864270000E+03 0.  1.
    8880022    1    1    2    0    0 -0.31034730753E+03 -0.31232659130E+03 -0.21697543958E+04  0.22192541860E+04  0.15294330000E+03 0.  0.
<mgrwt>
<rscale>  0 0.69385930E+03</rscale>
<asrwt>0</asrwt>
<pdfrwt beam="1">  1        2 0.49422618E+00 0.79225852E+03</pdfrwt>
<pdfrwt beam="2">  1       -2 0.27522898E-01 0.79225852E+03</pdfrwt>
<totfact> 0.16216447E+01</totfact>
</mgrwt>
</event>
<event>
 4    1  0.3565372E-007  0.7827764E+03  0.7818608E-02  0.9749355E-01
         -2   -1    0    0    0  501 -0.00000000000E+00  0.00000000000E+00  0.13069037911E+03  0.13069037914E+03  0.25500000000E-02 0.  1.
          2   -1    0    0  501    0  0.00000000000E+00 -0.00000000000E+00 -0.37939411314E+04  0.37939411314E+04  0.25500000000E-02 0. -1.
    8880023    1    1    2    0    0 -0.18142156466E+03 -0.38211898799E+03 -0.31329620668E+04  0.32292708501E+04  0.65864270000E+03 0. -1.
    8880022    1    1    2    0    0  0.18142156466E+03  0.38211898799E+03 -0.53028868552E+03  0.69536066045E+03  0.15294330000E+03 0.  0.
<mgrwt>
<rscale>  0 0.68152728E+03</rscale>
<asrwt>0</asrwt>
<pdfrwt beam="1">  1        2 0.58368317E+00 0.78277641E+03</pdfrwt>
<pdfrwt beam="2">  1       -2 0.20106215E-01 0.78277641E+03</pdfrwt>
<totfact> 0.11381485E+01</totfact>
</mgrwt>
</event>
<event>
 4    1  0.3565372E-007  0.7305101E+03  0.7818608E-02  0.9888506E-01
         -2   -1    0    0    0  501 -0.00000000000E+00  0.00000000000E+00  0.13073163715E+03  0.13073163717E+03  0.25500000000E-02 0.  1.
          2   -1    0    0  501    0  0.00000000000E+00 -0.00000000000E+00 -0.29922933542E+04  0.29922933542E+04  0.25500000000E-02 0. -1.
    8880023    1    1    2    0    0  0.37049680817E+02  0.31378685551E+03 -0.25536474875E+04  0.26560799247E+04  0.65864270000E+03 0. -1.
    8880022    1    1    2    0    0 -0.37049680817E+02 -0.31378685551E+03 -0.30791422952E+03  0.46694506668E+03  0.15294330000E+03 0.  0.
<mgrwt>
<rscale>  0 0.60821582E+03</rscale>
<asrwt>0</asrwt>
<pdfrwt beam="1">  1        2 0.46035277E+00 0.73051015E+03</pdfrwt>
<pdfrwt beam="2">  1       -2 0.20112562E-01 0.73051015E+03</pdfrwt>
<totfact> 0.39402568E+01</totfact>
</mgrwt>
</event>
<event>
 4    1  0.3565372E-007  0.7253246E+03  0.7818608E-02  0.9904965E-01
          2   -1    0    0  501    0  0.00000000000E+00  0.00000000000E+00  0.57577869664E+03  0.57577869665E+03  0.25500000000E-02 0. -1.
         -2   -1    0    0    0  501 -0.00000000000E+00 -0.00000000000E+00 -0.53809859300E+03  0.53809859301E+03  0.25500000000E-02 0.  1.
    8880023    1    1    2    0    0  0.30301880517E+03 -0.21568441533E+02  0.17655504670E+03  0.74650350618E+03  0.65864270000E+03 0.  0.
    8880022    1    1    2    0    0 -0.30301880517E+03  0.21568441533E+02 -0.13887494307E+03  0.36737378348E+03  0.15294330000E+03 0.  0.
<mgrwt>
<rscale>  0 0.60021287E+03</rscale>
<asrwt>0</asrwt>
<pdfrwt beam="1">  1        2 0.88581339E-01 0.72532462E+03</pdfrwt>
<pdfrwt beam="2">  1       -2 0.82784398E-01 0.72532462E+03</pdfrwt>
<totfact> 0.67588125E+01</totfact>
</mgrwt>
</event>
<event>
 4    1  0.3565372E-007  0.8060439E+03  0.7818608E-02  0.9697877E-01
         -2   -1    0    0    0  501 -0.00000000000E+00  0.00000000000E+00  0.10449445977E+04  0.10449445978E+04  0.25500000000E-02 0.  1.
          2   -1    0    0  501    0  0.00000000000E+00 -0.00000000000E+00 -0.10134173628E+04  0.10134173628E+04  0.25500000000E-02 0. -1.
    8880023    1    1    2    0    0  0.23495842917E+03 -0.40086297285E+03 -0.77299727032E+03  0.11167952241E+04  0.65864270000E+03 0. -1.
    8880022    1    1    2    0    0 -0.23495842917E+03  0.40086297285E+03  0.80452450531E+03  0.94156673640E+03  0.15294330000E+03 0.  0.
<mgrwt>
<rscale>  0 0.71143331E+03</rscale>
<asrwt>0</asrwt>
<pdfrwt beam="1">  1        2 0.15591036E+00 0.80604391E+03</pdfrwt>
<pdfrwt beam="2">  1       -2 0.16076071E+00 0.80604391E+03</pdfrwt>
<totfact> 0.62157775E+00</totfact>
</mgrwt>
</event>
<event>
 4    1  0.3565372E-007  0.8235726E+03  0.7818608E-02  0.9661970E-01
         -2   -1    0    0    0  501 -0.00000000000E+00  0.00000000000E+00  0.12740577232E+04  0.12740577232E+04  0.25500000000E-02 0.  1.
          2   -1    0    0  501    0  0.00000000000E+00 -0.00000000000E+00 -0.10482933245E+04  0.10482933245E+04  0.25500000000E-02 0. -1.
    8880023    1    1    2    0    0 -0.32489283581E+03 -0.37270136763E+03 -0.81584128278E+03  0.11592535828E+04  0.65864270000E+03 0. -1.
    8880022    1    1    2    0    0  0.32489283581E+03  0.37270136763E+03  0.10416056815E+04  0.11630974650E+04  0.15294330000E+03 0.  0.
<mgrwt>
<rscale>  0 0.73326939E+03</rscale>
<asrwt>0</asrwt>
<pdfrwt beam="1">  1        2 0.16127590E+00 0.82357263E+03</pdfrwt>
<pdfrwt beam="2">  1       -2 0.19600888E+00 0.82357263E+03</pdfrwt>
<totfact> 0.33612422E+00</totfact>
</mgrwt>
</event>
<event>
 4    1  0.3565372E-007  0.7110556E+03  0.7818608E-02  0.9954102E-01
          2   -1    0    0  501    0  0.00000000000E+00  0.00000000000E+00  0.35709926174E+04  0.35709926174E+04  0.25500000000E-02 0. -1.
         -2   -1    0    0    0  501 -0.00000000000E+00 -0.00000000000E+00 -0.33154851867E+03  0.33154851868E+03  0.25500000000E-02 0.  1.
    8880023    1    1    2    0    0 -0.12146892854E+03  0.23882027931E+03  0.34542084876E+04  0.35266352673E+04  0.65864270000E+03 0. -1.
    8880022    1    1    2    0    0  0.12146892854E+03 -0.23882027931E+03 -0.21476438891E+03  0.37590586876E+03  0.15294330000E+03 0.  0.
<mgrwt>
<rscale>  0 0.57709421E+03</rscale>
<asrwt>0</asrwt>
<pdfrwt beam="1">  1        2 0.54938346E+00 0.71105558E+03</pdfrwt>
<pdfrwt beam="2">  1       -2 0.51007466E-01 0.71105558E+03</pdfrwt>
<totfact> 0.28909421E+00</totfact>
</mgrwt>
</event>
<event>
 4    1  0.3565372E-007  0.6708113E+03  0.7818608E-02  0.1015088E+00
          2   -1    0    0  501    0  0.00000000000E+00  0.00000000000E+00  0.24508770619E+04  0.24508770619E+04  0.25500000000E-02 0. -1.
         -2   -1    0    0    0  501 -0.00000000000E+00 -0.00000000000E+00 -0.21526896229E+03  0.21526896230E+03  0.25500000000E-02 0.  1.
    8880023    1    1    2    0    0 -0.77960283348E+02 -0.10049739494E+03  0.23450493975E+04  0.24391072988E+04  0.65864270000E+03 0. -1.
    8880022    1    1    2    0    0  0.77960283348E+02  0.10049739494E+03 -0.10944129782E+03  0.22703872545E+03  0.15294330000E+03 0.  0.
<mgrwt>
<rscale>  0 0.49501675E+03</rscale>
<asrwt>0</asrwt>
<pdfrwt beam="1">  1        2 0.37705801E+00 0.67081125E+03</pdfrwt>
<pdfrwt beam="2">  1       -2 0.33118302E-01 0.67081125E+03</pdfrwt>
<totfact> 0.33345227E+01</totfact>
</mgrwt>
</event>
<event>
 4    1  0.3565372E-007  0.6642135E+03  0.7818608E-02  0.1020203E+00
          2   -1    0    0  501    0  0.00000000000E+00  0.00000000000E+00  0.69287108875E+03  0.69287108875E+03  0.25500000000E-02 0. -1.
         -2   -1    0    0    0  501 -0.00000000000E+00 -0.00000000000E+00 -0.50145538359E+03  0.50145538360E+03  0.25500000000E-02 0.  1.
    8880023    1    1    2    0    0 -0.72414830475E+02  0.46102678927E+02  0.50543173444E+03  0.83465011180E+03  0.65864270000E+03 0. -1.
    8880022    1    1    2    0    0  0.72414830475E+02 -0.46102678927E+02 -0.31401602929E+03  0.35967636055E+03  0.15294330000E+03 0.  0.
<mgrwt>
<rscale>  0 0.47613583E+03</rscale>
<asrwt>0</asrwt>
<pdfrwt beam="1">  1        2 0.10659555E+00 0.66421350E+03</pdfrwt>
<pdfrwt beam="2">  1       -2 0.77146982E-01 0.66421350E+03</pdfrwt>
<totfact> 0.63433011E+01</totfact>
</mgrwt>
</event>
<event>
 4    1  0.3565372E-007  0.8581883E+03  0.7818608E-02  0.9596794E-01
          2   -1    0    0  501    0  0.00000000000E+00  0.00000000000E+00  0.74291225496E+03  0.74291225497E+03  0.25500000000E-02 0. -1.
         -2   -1    0    0    0  501 -0.00000000000E+00 -0.00000000000E+00 -0.10484561244E+04  0.10484561244E+04  0.25500000000E-02 0.  1.
    8880023    1    1    2    0    0  0.46262817145E+03 -0.29774493330E+03  0.34573080668E+03  0.92521179590E+03  0.65864270000E+03 0. -1.
    8880022    1    1    2    0    0 -0.46262817145E+03  0.29774493330E+03 -0.65127467612E+03  0.86615658347E+03  0.15294330000E+03 0.  0.
<mgrwt>
<rscale>  0 0.77508714E+03</rscale>
<asrwt>0</asrwt>
<pdfrwt beam="1">  1        2 0.11429419E+00 0.85818825E+03</pdfrwt>
<pdfrwt beam="2">  1       -2 0.16130094E+00 0.85818825E+03</pdfrwt>
<totfact> 0.94009650E+00</totfact>
</mgrwt>
</event>
<event>
 4    1  0.3565372E-007  0.6808785E+03  0.7818608E-02  0.1008831E+00
          2   -1    0    0  501    0  0.00000000000E+00  0.00000000000E+00  0.70682441693E+03  0.70682441694E+03  0.25500000000E-02 0. -1.
         -2   -1    0    0    0  501 -0.00000000000E+00 -0.00000000000E+00 -0.44392639982E+03  0.44392639983E+03  0.25500000000E-02 0.  1.
    8880023    1    1    2    0    0  0.15854866932E+03 -0.68173794759E+02  0.48076737486E+03  0.83350634180E+03  0.65864270000E+03 0. -1.
    8880022    1    1    2    0    0 -0.15854866932E+03  0.68173794759E+02 -0.21786935775E+03  0.31724447497E+03  0.15294330000E+03 0.  0.
<mgrwt>
<rscale>  0 0.51941884E+03</rscale>
<asrwt>0</asrwt>
<pdfrwt beam="1">  1        2 0.10874222E+00 0.68087852E+03</pdfrwt>
<pdfrwt beam="2">  1       -2 0.68296369E-01 0.68087852E+03</pdfrwt>
<totfact> 0.80751340E+01</totfact>
</mgrwt>
</event>
<event>
 4    1  0.5309133E-007  0.7789864E+03  0.7818608E-02  0.9758223E-01
         -2   -1    0    0    0  501 -0.00000000000E+00  0.00000000000E+00  0.87756186553E+03  0.87756186553E+03  0.25500000000E-02 0.  1.
          2   -1    0    0  501    0  0.00000000000E+00 -0.00000000000E+00 -0.40046284421E+04  0.40046284421E+04  0.25500000000E-02 0. -1.
    8880023    1    1    2    0    0  0.41389574693E+03  0.41230966831E+02 -0.39076700634E+04  0.39845583459E+04  0.65864270000E+03 0.  0.
    8880022    1    1    2    0    0 -0.41389574693E+03 -0.41230966831E+02  0.78060348681E+03  0.89763196166E+03  0.15294330000E+03 0.  0.
<mgrwt>
<rscale>  0 0.67653533E+03</rscale>
<asrwt>0</asrwt>
<pdfrwt beam="1">  1        2 0.61609667E+00 0.77898645E+03</pdfrwt>
<pdfrwt beam="2">  1       -2 0.13500952E+00 0.77898645E+03</pdfrwt>
<totfact> 0.14805870E-01</totfact>
</mgrwt>
</event>
<event>
 4    1  0.3565372E-007  0.7249020E+03  0.7818608E-02  0.9906335E-01
         -2   -1    0    0    0  501 -0.00000000000E+00  0.00000000000E+00  0.15539789592E+03  0.15539789594E+03  0.25500000000E-02 0.  1.
          2   -1    0    0  501    0  0.00000000000E+00 -0.00000000000E+00 -0.25064830581E+04  0.25064830581E+04  0.25500000000E-02 0. -1.
    8880023    1    1    2    0    0  0.16994137533E+03 -0.25058470725E+03 -0.21468474884E+04  0.22659296351E+04  0.65864270000E+03 0. -1.
    8880022    1    1    2    0    0 -0.16994137533E+03  0.25058470725E+03 -0.20423767377E+03  0.39595131892E+03  0.15294330000E+03 0.  0.
<mgrwt>
<rscale>  0 0.59955237E+03</rscale>
<asrwt>0</asrwt>
<pdfrwt beam="1">  1        2 0.38561275E+00 0.72490204E+03</pdfrwt>
<pdfrwt beam="2">  1       -2 0.23907370E-01 0.72490204E+03</pdfrwt>
<totfact> 0.55979586E+01</totfact>
</mgrwt>
</event>
<event>
 4    1  0.3565372E-007  0.6854586E+03  0.7818608E-02  0.1006390E+00
          2   -1    0    0  501    0  0.00000000000E+00  0.00000000000E+00  0.23743418009E+04  0.23743418009E+04  0.25500000000E-02 0. -1.
         -2   -1    0    0    0  501 -0.00000000000E+00 -0.00000000000E+00 -0.11197524561E+03  0.11197524564E+03  0.25500000000E-02 0.  1.
    8880023    1    1    2    0    0  0.14503888234E+03 -0.12250295799E+03  0.10806148142E+04  0.12796803644E+04  0.65864270000E+03 0.  1.
    8880022    1    1    2    0    0 -0.14503888234E+03  0.12250295799E+03  0.11817517411E+04  0.12066366821E+04  0.15294330000E+03 0. -1.
<mgrwt>
<rscale>  0 0.52934779E+03</rscale>
<asrwt>0</asrwt>
<pdfrwt beam="1">  1        2 0.36528334E+00 0.68545858E+03</pdfrwt>
<pdfrwt beam="2">  1       -2 0.17226962E-01 0.68545858E+03</pdfrwt>
<totfact> 0.11855391E+02</totfact>
</mgrwt>
</event>
<event>
 4    1  0.3565372E-007  0.7086631E+03  0.7818608E-02  0.9962999E-01
         -2   -1    0    0    0  501 -0.00000000000E+00  0.00000000000E+00  0.10273549726E+03  0.10273549729E+03  0.25500000000E-02 0.  1.
          2   -1    0    0  501    0  0.00000000000E+00 -0.00000000000E+00 -0.28952262488E+04  0.28952262488E+04  0.25500000000E-02 0. -1.
    8880023    1    1    2    0    0  0.23113984257E+03 -0.12234214582E+03 -0.23982363700E+04  0.25007481121E+04  0.65864270000E+03 0. -1.
    8880022    1    1    2    0    0 -0.23113984257E+03  0.12234214582E+03 -0.39425438156E+03  0.49721363402E+03  0.15294330000E+03 0.  1.
<mgrwt>
<rscale>  0 0.57302857E+03</rscale>
<asrwt>0</asrwt>
<pdfrwt beam="1">  1        2 0.44541936E+00 0.70866313E+03</pdfrwt>
<pdfrwt beam="2">  1       -2 0.15805463E-01 0.70866313E+03</pdfrwt>
<totfact> 0.68565855E+01</totfact>
</mgrwt>
</event>
<event>
 4    1  0.3565372E-007  0.8443145E+03  0.7818608E-02  0.9622098E-01
          2   -1    0    0  501    0  0.00000000000E+00  0.00000000000E+00  0.13376138876E+04  0.13376138876E+04  0.25500000000E-02 0. -1.
         -2   -1    0    0    0  501 -0.00000000000E+00 -0.00000000000E+00 -0.10042910132E+04  0.10042910132E+04  0.25500000000E-02 0.  1.
    8880023    1    1    2    0    0 -0.52194688355E+03 -0.81414039355E+02  0.11072778989E+04  0.13924551507E+04  0.65864270000E+03 0. -1.
    8880022    1    1    2    0    0  0.52194688355E+03  0.81414039355E+02 -0.77395502453E+03  0.94944975015E+03  0.15294330000E+03 0.  0.
<mgrwt>
<rscale>  0 0.75850703E+03</rscale>
<asrwt>0</asrwt>
<pdfrwt beam="1">  1        2 0.20578675E+00 0.84431452E+03</pdfrwt>
<pdfrwt beam="2">  1       -2 0.15450631E+00 0.84431452E+03</pdfrwt>
<totfact> 0.43980204E+00</totfact>
</mgrwt>
</event>
<event>
 4    1  0.3565372E-007  0.1166603E+04  0.7818608E-02  0.9190291E-01
          2   -1    0    0  501    0  0.00000000000E+00  0.00000000000E+00  0.27236878684E+04  0.27236878684E+04  0.25500000000E-02 0. -1.
         -2   -1    0    0    0  501 -0.00000000000E+00 -0.00000000000E+00 -0.46990897160E+03  0.46990897161E+03  0.25500000000E-02 0.  1.
    8880023    1    1    2    0    0  0.73693977920E+03 -0.61973533339E+03  0.17307275796E+04  0.20871943567E+04  0.65864270000E+03 0.  0.
    8880022    1    1    2    0    0 -0.73693977920E+03  0.61973533339E+03  0.52305131718E+03  0.11064024833E+04  0.15294330000E+03 0.  0.
<mgrwt>
<rscale>  0 0.11154210E+04</rscale>
<asrwt>0</asrwt>
<pdfrwt beam="1">  1        2 0.41902890E+00 0.11666029E+04</pdfrwt>
<pdfrwt beam="2">  1       -2 0.72293689E-01 0.11666029E+04</pdfrwt>
<totfact> 0.44260814E+00</totfact>
</mgrwt>
</event>
<event>
 4    1  0.3565372E-007  0.6589891E+03  0.7818608E-02  0.1025217E+00
          2   -1    0    0  501    0  0.00000000000E+00  0.00000000000E+00  0.95475870764E+03  0.95475870764E+03  0.25500000000E-02 0. -1.
         -2   -1    0    0    0  501 -0.00000000000E+00 -0.00000000000E+00 -0.32365021553E+03  0.32365021554E+03  0.25500000000E-02 0.  1.
    8880023    1    1    2    0    0  0.19998614855E+02 -0.75190131396E+01  0.80861279980E+03  0.10431305510E+04  0.65864270000E+03 0. -1.
    8880022    1    1    2    0    0 -0.19998614855E+02  0.75190131396E+01 -0.17750430769E+03  0.23527837219E+03  0.15294330000E+03 0.  0.
<mgrwt>
<rscale>  0 0.45850122E+03</rscale>
<asrwt>0</asrwt>
<pdfrwt beam="1">  1        2 0.14688595E+00 0.65898914E+03</pdfrwt>
<pdfrwt beam="2">  1       -2 0.49792341E-01 0.65898914E+03</pdfrwt>
<totfact> 0.10493671E+02</totfact>
</mgrwt>
</event>
<event>
 4    1  0.3565372E-007  0.1164821E+04  0.7818608E-02  0.9192101E-01
          2   -1    0    0  501    0  0.00000000000E+00  0.00000000000E+00  0.28972078616E+04  0.28972078616E+04  0.25500000000E-02 0. -1.
         -2   -1    0    0    0  501 -0.00000000000E+00 -0.00000000000E+00 -0.55682709888E+03  0.55682709889E+03  0.25500000000E-02 0.  1.
    8880023    1    1    2    0    0 -0.80200725856E+03  0.52894477759E+03  0.31426106895E+03  0.12064694137E+04  0.65864270000E+03 0.  1.
    8880022    1    1    2    0    0  0.80200725856E+03 -0.52894477759E+03  0.20261196937E+04  0.22475655467E+04  0.15294330000E+03 0.  0.
<mgrwt>
<rscale>  0 0.11135333E+04</rscale>
<asrwt>0</asrwt>
<pdfrwt beam="1">  1        2 0.44572429E+00 0.11648212E+04</pdfrwt>
<pdfrwt beam="2">  1       -2 0.85665708E-01 0.11648212E+04</pdfrwt>
<totfact> 0.23763805E+00</totfact>
</mgrwt>
</event>
<event>
 4    1  0.3565372E-007  0.7322687E+03  0.7818608E-02  0.9883068E-01
          2   -1    0    0  501    0  0.00000000000E+00  0.00000000000E+00  0.18775295814E+04  0.18775295814E+04  0.25500000000E-02 0. -1.
         -2   -1    0    0    0  501 -0.00000000000E+00 -0.00000000000E+00 -0.47593887129E+03  0.47593887129E+03  0.25500000000E-02 0.  1.
    8880023    1    1    2    0    0  0.22902569628E+03  0.22350511264E+03  0.17246770377E+04  0.18736937838E+04  0.65864270000E+03 0. -1.
    8880022    1    1    2    0    0 -0.22902569628E+03 -0.22350511264E+03 -0.32308632750E+03  0.47977466895E+03  0.15294330000E+03 0.  0.
<mgrwt>
<rscale>  0 0.61088928E+03</rscale>
<asrwt>0</asrwt>
<pdfrwt beam="1">  1        2 0.28885070E+00 0.73226874E+03</pdfrwt>
<pdfrwt beam="2">  1       -2 0.73221366E-01 0.73226874E+03</pdfrwt>
<totfact> 0.13616817E+01</totfact>
</mgrwt>
</event>
<event>
 4    1  0.3565372E-007  0.1010154E+04  0.7818608E-02  0.9368391E-01
          2   -1    0    0  501    0  0.00000000000E+00  0.00000000000E+00  0.13000052426E+04  0.13000052426E+04  0.25500000000E-02 0. -1.
         -2   -1    0    0    0  501 -0.00000000000E+00 -0.00000000000E+00 -0.90305607328E+03  0.90305607328E+03  0.25500000000E-02 0.  1.
    8880023    1    1    2    0    0  0.66795783237E+03 -0.37474542946E+03 -0.40068668977E+03  0.10867206782E+04  0.65864270000E+03 0.  0.
    8880022    1    1    2    0    0 -0.66795783237E+03  0.37474542946E+03  0.79763585912E+03  0.11163406378E+04  0.15294330000E+03 0.  0.
<mgrwt>
<rscale>  0 0.94723226E+03</rscale>
<asrwt>0</asrwt>
<pdfrwt beam="1">  1        2 0.20000080E+00 0.10101544E+04</pdfrwt>
<pdfrwt beam="2">  1       -2 0.13893170E+00 0.10101544E+04</pdfrwt>
<totfact> 0.60019750E+00</totfact>
</mgrwt>
</event>
<event>
 4    1  0.3565372E-007  0.9802513E+03  0.7818608E-02  0.9407864E-01
         -2   -1    0    0    0  501 -0.00000000000E+00  0.00000000000E+00  0.46586648764E+03  0.46586648765E+03  0.25500000000E-02 0.  1.
          2   -1    0    0  501    0  0.00000000000E+00 -0.00000000000E+00 -0.17813623988E+04  0.17813623988E+04  0.25500000000E-02 0. -1.
    8880023    1    1    2    0    0 -0.52792043984E+03 -0.49837977226E+03 -0.11026251746E+04  0.14753558453E+04  0.65864270000E+03 0.  0.
    8880022    1    1    2    0    0  0.52792043984E+03  0.49837977226E+03 -0.21287073651E+03  0.77187304117E+03  0.15294330000E+03 0.  0.
<mgrwt>
<rscale>  0 0.91431359E+03</rscale>
<asrwt>0</asrwt>
<pdfrwt beam="1">  1        2 0.27405575E+00 0.98025129E+03</pdfrwt>
<pdfrwt beam="2">  1       -2 0.71671768E-01 0.98025129E+03</pdfrwt>
<totfact> 0.15633837E+01</totfact>
</mgrwt>
</event>
<event>
 4    1  0.3565372E-007  0.6981087E+03  0.7818608E-02  0.1000514E+00
         -2   -1    0    0    0  501 -0.00000000000E+00  0.00000000000E+00  0.37161218086E+03  0.37161218086E+03  0.25500000000E-02 0.  1.
          2   -1    0    0  501    0  0.00000000000E+00 -0.00000000000E+00 -0.70978968150E+03  0.70978968150E+03  0.25500000000E-02 0. -1.
    8880023    1    1    2    0    0  0.18502679793E+03  0.13896252129E+03 -0.38935387876E+03  0.79934482387E+03  0.65864270000E+03 0.  0.
    8880022    1    1    2    0    0 -0.18502679793E+03 -0.13896252129E+03  0.51176378116E+02  0.28205703850E+03  0.15294330000E+03 0. -1.
<mgrwt>
<rscale>  0 0.55425457E+03</rscale>
<asrwt>0</asrwt>
<pdfrwt beam="1">  1        2 0.10919841E+00 0.69810866E+03</pdfrwt>
<pdfrwt beam="2">  1       -2 0.57171105E-01 0.69810866E+03</pdfrwt>
<totfact> 0.11712545E+02</totfact>
</mgrwt>
</event>
<event>
 4    1  0.3565372E-007  0.1199990E+04  0.7818608E-02  0.9157132E-01
         -2   -1    0    0    0  501 -0.00000000000E+00  0.00000000000E+00  0.66879969862E+03  0.66879969862E+03  0.25500000000E-02 0.  1.
          2   -1    0    0  501    0  0.00000000000E+00 -0.00000000000E+00 -0.39855700830E+04  0.39855700830E+04  0.25500000000E-02 0. -1.
    8880023    1    1    2    0    0 -0.99941704606E+03 -0.85623600898E+02 -0.34295723629E+04  0.36334477609E+04  0.65864270000E+03 0. -1.
    8880022    1    1    2    0    0  0.99941704606E+03  0.85623600898E+02  0.11280197848E+03  0.10209220207E+04  0.15294330000E+03 0.  0.
<mgrwt>
<rscale>  0 0.11507065E+04</rscale>
<asrwt>0</asrwt>
<pdfrwt beam="1">  1        2 0.61316462E+00 0.11999900E+04</pdfrwt>
<pdfrwt beam="2">  1       -2 0.10289226E+00 0.11999900E+04</pdfrwt>
<totfact> 0.27466824E-01</totfact>
</mgrwt>
</event>
<event>
 4    1  0.3565372E-007  0.1315401E+04  0.7818608E-02  0.9052373E-01
          2   -1    0    0  501    0  0.00000000000E+00  0.00000000000E+00  0.13551773190E+04  0.13551773190E+04  0.25500000000E-02 0. -1.
         -2   -1    0    0    0  501 -0.00000000000E+00 -0.00000000000E+00 -0.16719505692E+04  0.16719505692E+04  0.25500000000E-02 0.  1.
    8880023    1    1    2    0    0 -0.51715304085E+03  0.10144078768E+04  0.70255202626E+03  0.14912612662E+04  0.65864270000E+03 0. -1.
    8880022    1    1    2    0    0  0.51715304085E+03 -0.10144078768E+04 -0.10193252765E+04  0.15358666220E+04  0.15294330000E+03 0.  1.
<mgrwt>
<rscale>  0 0.12716272E+04</rscale>
<asrwt>0</asrwt>
<pdfrwt beam="1">  1        2 0.20848882E+00 0.13154014E+04</pdfrwt>
<pdfrwt beam="2">  1       -2 0.25722316E+00 0.13154014E+04</pdfrwt>
<totfact> 0.85509395E-01</totfact>
</mgrwt>
</event>
<event>
 4    1  0.3565372E-007  0.6894835E+03  0.7818608E-02  0.1004399E+00
         -2   -1    0    0    0  501 -0.00000000000E+00  0.00000000000E+00  0.38205507787E+03  0.38205507787E+03  0.25500000000E-02 0.  1.
          2   -1    0    0  501    0  0.00000000000E+00 -0.00000000000E+00 -0.70292519442E+03  0.70292519443E+03  0.25500000000E-02 0. -1.
    8880023    1    1    2    0    0 -0.17535187274E+03  0.10406228205E+03 -0.42466158474E+03  0.80976842717E+03  0.65864270000E+03 0. -1.
    8880022    1    1    2    0    0  0.17535187274E+03 -0.10406228205E+03  0.10379146818E+03  0.27521184513E+03  0.15294330000E+03 0.  0.
<mgrwt>
<rscale>  0 0.53762700E+03</rscale>
<asrwt>0</asrwt>
<pdfrwt beam="1">  1        2 0.10814234E+00 0.68948346E+03</pdfrwt>
<pdfrwt beam="2">  1       -2 0.58777704E-01 0.68948346E+03</pdfrwt>
<totfact> 0.11194760E+02</totfact>
</mgrwt>
</event>
<event>
 4    1  0.3565372E-007  0.8725564E+03  0.7818608E-02  0.9571607E-01
         -2   -1    0    0    0  501 -0.00000000000E+00  0.00000000000E+00  0.31600405644E+03  0.31600405645E+03  0.25500000000E-02 0.  1.
          2   -1    0    0  501    0  0.00000000000E+00 -0.00000000000E+00 -0.32483933614E+04  0.32483933614E+04  0.25500000000E-02 0. -1.
    8880023    1    1    2    0    0  0.30941044607E+02  0.57147802733E+03 -0.28322282405E+04  0.29635909799E+04  0.65864270000E+03 0.  0.
    8880022    1    1    2    0    0 -0.30941044607E+02 -0.57147802733E+03 -0.10016106446E+03  0.60080643789E+03  0.15294330000E+03 0.  0.
<mgrwt>
<rscale>  0 0.79204279E+03</rscale>
<asrwt>0</asrwt>
<pdfrwt beam="1">  1        2 0.49975280E+00 0.87255641E+03</pdfrwt>
<pdfrwt beam="2">  1       -2 0.48616011E-01 0.87255641E+03</pdfrwt>
<totfact> 0.50736085E+00</totfact>
</mgrwt>
</event>
<event>
 4    1  0.3565372E-007  0.7242844E+03  0.7818608E-02  0.9908347E-01
          2   -1    0    0  501    0  0.00000000000E+00  0.00000000000E+00  0.10369753601E+04  0.10369753601E+04  0.25500000000E-02 0. -1.
         -2   -1    0    0    0  501 -0.00000000000E+00 -0.00000000000E+00 -0.37541168934E+03  0.37541168935E+03  0.25500000000E-02 0.  1.
    8880023    1    1    2    0    0  0.85931852361E+02 -0.28877925055E+03  0.77039718293E+03  0.10574023664E+04  0.65864270000E+03 0. -1.
    8880022    1    1    2    0    0 -0.85931852361E+02  0.28877925055E+03 -0.10883351216E+03  0.35498468303E+03  0.15294330000E+03 0.  0.
<mgrwt>
<rscale>  0 0.59858465E+03</rscale>
<asrwt>0</asrwt>
<pdfrwt beam="1">  1        2 0.15953467E+00 0.72428444E+03</pdfrwt>
<pdfrwt beam="2">  1       -2 0.57755645E-01 0.72428444E+03</pdfrwt>
<totfact> 0.68118178E+01</totfact>
</mgrwt>
</event>
<event>
 4    1  0.3565372E-007  0.6728454E+03  0.7818608E-02  0.1013700E+00
          2   -1    0    0  501    0  0.00000000000E+00  0.00000000000E+00  0.11997795030E+04  0.11997795030E+04  0.25500000000E-02 0. -1.
         -2   -1    0    0    0  501 -0.00000000000E+00 -0.00000000000E+00 -0.25709085436E+03  0.25709085437E+03  0.25500000000E-02 0.  1.
    8880023    1    1    2    0    0 -0.53018423742E+02 -0.12688467489E+03  0.10325440439E+04  0.12324236621E+04  0.65864270000E+03 0. -1.
    8880022    1    1    2    0    0  0.53018423742E+02  0.12688467489E+03 -0.89855395236E+02  0.22444669533E+03  0.15294330000E+03 0.  0.
<mgrwt>
<rscale>  0 0.50030170E+03</rscale>
<asrwt>0</asrwt>
<pdfrwt beam="1">  1        2 0.18458146E+00 0.67284536E+03</pdfrwt>
<pdfrwt beam="2">  1       -2 0.39552439E-01 0.67284536E+03</pdfrwt>
<totfact> 0.11692985E+02</totfact>
</mgrwt>
</event>
<event>
 4    1  0.3565372E-007  0.6624901E+03  0.7818608E-02  0.1021739E+00
          2   -1    0    0  501    0  0.00000000000E+00  0.00000000000E+00  0.19654927730E+04  0.19654927730E+04  0.25500000000E-02 0. -1.
         -2   -1    0    0    0  501 -0.00000000000E+00 -0.00000000000E+00 -0.43057396528E+03  0.43057396529E+03  0.25500000000E-02 0.  1.
    8880023    1    1    2    0    0  0.52560690483E+02  0.48169446578E+02  0.18900989056E+04  0.20028397342E+04  0.65864270000E+03 0. -1.
    8880022    1    1    2    0    0 -0.52560690483E+02 -0.48169446578E+02 -0.35518009789E+03  0.39322700406E+03  0.15294330000E+03 0.  0.
<mgrwt>
<rscale>  0 0.47064310E+03</rscale>
<asrwt>0</asrwt>
<pdfrwt beam="1">  1        2 0.30238350E+00 0.66249010E+03</pdfrwt>
<pdfrwt beam="2">  1       -2 0.66242149E-01 0.66249010E+03</pdfrwt>
<totfact> 0.15335128E+01</totfact>
</mgrwt>
</event>
<event>
 4    1  0.3565372E-007  0.6727014E+03  0.7818608E-02  0.1013796E+00
         -2   -1    0    0    0  501 -0.00000000000E+00  0.00000000000E+00  0.65535109037E+03  0.65535109037E+03  0.25500000000E-02 0.  1.
          2   -1    0    0  501    0  0.00000000000E+00 -0.00000000000E+00 -0.57789579409E+03  0.57789579410E+03  0.25500000000E-02 0. -1.
    8880023    1    1    2    0    0  0.12574684775E+03  0.53895409655E+02 -0.35057390753E+03  0.75857053450E+03  0.65864270000E+03 0. -1.
    8880022    1    1    2    0    0 -0.12574684775E+03 -0.53895409655E+02  0.42802920380E+03  0.47467634997E+03  0.15294330000E+03 0.  0.
<mgrwt>
<rscale>  0 0.49993455E+03</rscale>
<asrwt>0</asrwt>
<pdfrwt beam="1">  1        2 0.88907045E-01 0.67270141E+03</pdfrwt>
<pdfrwt beam="2">  1       -2 0.10082324E+00 0.67270141E+03</pdfrwt>
<totfact> 0.42808720E+01</totfact>
</mgrwt>
</event>
<event>
 4    1  0.3565372E-007  0.6982138E+03  0.7818608E-02  0.1000469E+00
         -2   -1    0    0    0  501 -0.00000000000E+00  0.00000000000E+00  0.51254507091E+03  0.51254507091E+03  0.25500000000E-02 0.  1.
          2   -1    0    0  501    0  0.00000000000E+00 -0.00000000000E+00 -0.58989581475E+03  0.58989581476E+03  0.25500000000E-02 0. -1.
    8880023    1    1    2    0    0  0.46337510020E+02  0.22703544936E+03 -0.28663272492E+03  0.75475875971E+03  0.65864270000E+03 0. -1.
    8880022    1    1    2    0    0 -0.46337510020E+02 -0.22703544936E+03  0.20928198107E+03  0.34768212597E+03  0.15294330000E+03 0.  0.
<mgrwt>
<rscale>  0 0.55444922E+03</rscale>
<asrwt>0</asrwt>
<pdfrwt beam="1">  1        2 0.90753202E-01 0.69821377E+03</pdfrwt>
<pdfrwt beam="2">  1       -2 0.78853088E-01 0.69821377E+03</pdfrwt>
<totfact> 0.73392014E+01</totfact>
</mgrwt>
</event>
<event>
 4    1  0.3565372E-007  0.8248003E+03  0.7818608E-02  0.9659535E-01
          2   -1    0    0  501    0  0.00000000000E+00  0.00000000000E+00  0.32246674005E+04  0.32246674005E+04  0.25500000000E-02 0. -1.
         -2   -1    0    0    0  501 -0.00000000000E+00 -0.00000000000E+00 -0.26950345826E+03  0.26950345827E+03  0.25500000000E-02 0.  1.
    8880023    1    1    2    0    0  0.41743416227E+03 -0.26876399685E+03  0.28462912247E+04  0.29633881467E+04  0.65864270000E+03 0. -1.
    8880022    1    1    2    0    0 -0.41743416227E+03  0.26876399685E+03  0.10887271756E+03  0.53078271211E+03  0.15294330000E+03 0.  0.
<mgrwt>
<rscale>  0 0.73478005E+03</rscale>
<asrwt>0</asrwt>
<pdfrwt beam="1">  1        2 0.49610268E+00 0.82480032E+03</pdfrwt>
<pdfrwt beam="2">  1       -2 0.41462071E-01 0.82480032E+03</pdfrwt>
<totfact> 0.72817105E+00</totfact>
</mgrwt>
</event>
<event>
 4    1  0.3565372E-007  0.6835841E+03  0.7818608E-02  0.1007365E+00
          2   -1    0    0  501    0  0.00000000000E+00  0.00000000000E+00  0.25854763160E+04  0.25854763160E+04  0.25500000000E-02 0. -1.
         -2   -1    0    0    0  501 -0.00000000000E+00 -0.00000000000E+00 -0.10689118636E+03  0.10689118639E+03  0.25500000000E-02 0.  1.
    8880023    1    1    2    0    0 -0.17986100095E+03  0.33570491291E+02  0.22854658557E+04  0.23855065167E+04  0.65864270000E+03 0.  0.
    8880022    1    1    2    0    0  0.17986100095E+03 -0.33570491291E+02  0.19311927400E+03  0.30686098571E+03  0.15294330000E+03 0.  0.
<mgrwt>
<rscale>  0 0.52535518E+03</rscale>
<asrwt>0</asrwt>
<pdfrwt beam="1">  1        2 0.39776554E+00 0.68358406E+03</pdfrwt>
<pdfrwt beam="2">  1       -2 0.16444800E-01 0.68358406E+03</pdfrwt>
<totfact> 0.97591136E+01</totfact>
</mgrwt>
</event>
<event>
 4    1  0.3565372E-007  0.6672110E+03  0.7818608E-02  0.1017746E+00
         -2   -1    0    0    0  501 -0.00000000000E+00  0.00000000000E+00  0.22413016905E+03  0.22413016907E+03  0.25500000000E-02 0.  1.
          2   -1    0    0  501    0  0.00000000000E+00 -0.00000000000E+00 -0.10671027654E+04  0.10671027654E+04  0.25500000000E-02 0. -1.
    8880023    1    1    2    0    0 -0.69790559339E+02 -0.80558357402E+02 -0.87677561724E+03  0.11017740514E+04  0.65864270000E+03 0. -1.
    8880022    1    1    2    0    0  0.69790559339E+02  0.80558357402E+02  0.33803020922E+02  0.18945888303E+03  0.15294330000E+03 0. -1.
<mgrwt>
<rscale>  0 0.48508733E+03</rscale>
<asrwt>0</asrwt>
<pdfrwt beam="1">  1        2 0.16416965E+00 0.66721104E+03</pdfrwt>
<pdfrwt beam="2">  1       -2 0.34481565E-01 0.66721104E+03</pdfrwt>
<totfact> 0.18298945E+02</totfact>
</mgrwt>
</event>
<event>
 4    1  0.3565372E-007  0.7054517E+03  0.7818608E-02  0.9975295E-01
         -2   -1    0    0    0  501 -0.00000000000E+00  0.00000000000E+00  0.14113998443E+04  0.14113998443E+04  0.25500000000E-02 0.  1.
          2   -1    0    0  501    0  0.00000000000E+00 -0.00000000000E+00 -0.11622526225E+04  0.11622526225E+04  0.25500000000E-02 0. -1.
    8880023    1    1    2    0    0 -0.25135748572E+03 -0.25910933985E+02 -0.10368995163E+04  0.12541223127E+04  0.65864270000E+03 0. -1.
    8880022    1    1    2    0    0  0.25135748572E+03  0.25910933985E+02  0.12860467380E+04  0.13195301541E+04  0.15294330000E+03 0.  0.
<mgrwt>
<rscale>  0 0.56746907E+03</rscale>
<asrwt>0</asrwt>
<pdfrwt beam="1">  1        2 0.17880810E+00 0.70545175E+03</pdfrwt>
<pdfrwt beam="2">  1       -2 0.21713844E+00 0.70545175E+03</pdfrwt>
<totfact> 0.21336738E+00</totfact>
</mgrwt>
</event>
<event>
 4    1  0.3565372E-007  0.1025480E+04  0.7818608E-02  0.9348956E-01
          2   -1    0    0  501    0  0.00000000000E+00  0.00000000000E+00  0.13912728070E+04  0.13912728070E+04  0.25500000000E-02 0. -1.
         -2   -1    0    0    0  501 -0.00000000000E+00 -0.00000000000E+00 -0.68409939665E+03  0.68409939665E+03  0.25500000000E-02 0.  1.
    8880023    1    1    2    0    0  0.64415127036E+03 -0.45040869329E+03  0.75464352315E+03  0.12732226449E+04  0.65864270000E+03 0.  0.
    8880022    1    1    2    0    0 -0.64415127036E+03  0.45040869329E+03 -0.47470112764E+02  0.80214955882E+03  0.15294330000E+03 0.  0.
<mgrwt>
<rscale>  0 0.96398162E+03</rscale>
<asrwt>0</asrwt>
<pdfrwt beam="1">  1        2 0.21404197E+00 0.10254799E+04</pdfrwt>
<pdfrwt beam="2">  1       -2 0.10524606E+00 0.10254799E+04</pdfrwt>
<totfact> 0.10614550E+01</totfact>
</mgrwt>
</event>
<event>
 4    1  0.3565372E-007  0.8280818E+03  0.7818608E-02  0.9653076E-01
          2   -1    0    0  501    0  0.00000000000E+00  0.00000000000E+00  0.12948631157E+04  0.12948631157E+04  0.25500000000E-02 0. -1.
         -2   -1    0    0    0  501 -0.00000000000E+00 -0.00000000000E+00 -0.79341408211E+03  0.79341408212E+03  0.25500000000E-02 0.  1.
    8880023    1    1    2    0    0  0.17939405239E+03  0.46875041731E+03  0.10446523185E+04  0.13330483309E+04  0.65864270000E+03 0.  0.
    8880022    1    1    2    0    0 -0.17939405239E+03 -0.46875041731E+03 -0.54320328487E+03  0.75522886695E+03  0.15294330000E+03 0.  0.
<mgrwt>
<rscale>  0 0.73880674E+03</rscale>
<asrwt>0</asrwt>
<pdfrwt beam="1">  1        2 0.19920971E+00 0.82808175E+03</pdfrwt>
<pdfrwt beam="2">  1       -2 0.12206371E+00 0.82808175E+03</pdfrwt>
<totfact> 0.85681790E+00</totfact>
</mgrwt>
</event>
<event>
 4    1  0.3565372E-007  0.7501852E+03  0.7818608E-02  0.9831214E-01
          2   -1    0    0  501    0  0.00000000000E+00  0.00000000000E+00  0.75970313568E+03  0.75970313568E+03  0.25500000000E-02 0. -1.
         -2   -1    0    0    0  501 -0.00000000000E+00 -0.00000000000E+00 -0.55711378839E+03  0.55711378840E+03  0.25500000000E-02 0.  1.
    8880023    1    1    2    0    0  0.16996271862E+03 -0.31635461675E+03 -0.17868415139E+03  0.77117170687E+03  0.65864270000E+03 0.  1.
    8880022    1    1    2    0    0 -0.16996271862E+03  0.31635461675E+03  0.38127349868E+03  0.54564521721E+03  0.15294330000E+03 0.  0.
<mgrwt>
<rscale>  0 0.63714011E+03</rscale>
<asrwt>0</asrwt>
<pdfrwt beam="1">  1        2 0.11687740E+00 0.75018516E+03</pdfrwt>
<pdfrwt beam="2">  1       -2 0.85709814E-01 0.75018516E+03</pdfrwt>
<totfact> 0.44185403E+01</totfact>
</mgrwt>
</event>
<event>
 4    1  0.3565372E-007  0.1115921E+04  0.7818608E-02  0.9243534E-01
          2   -1    0    0  501    0  0.00000000000E+00  0.00000000000E+00  0.16532873295E+04  0.16532873295E+04  0.25500000000E-02 0. -1.
         -2   -1    0    0    0  501 -0.00000000000E+00 -0.00000000000E+00 -0.82048310121E+03  0.82048310122E+03  0.25500000000E-02 0.  1.
    8880023    1    1    2    0    0 -0.98527855780E+02 -0.89541153348E+03  0.10525662403E+04  0.15340063393E+04  0.65864270000E+03 0. -1.
    8880022    1    1    2    0    0  0.98527855780E+02  0.89541153348E+03 -0.21976201194E+03  0.93976409144E+03  0.15294330000E+03 0.  0.
<mgrwt>
<rscale>  0 0.10615168E+04</rscale>
<asrwt>0</asrwt>
<pdfrwt beam="1">  1        2 0.25435189E+00 0.11159210E+04</pdfrwt>
<pdfrwt beam="2">  1       -2 0.12622817E+00 0.11159210E+04</pdfrwt>
<totfact> 0.47859076E+00</totfact>
</mgrwt>
</event>
<event>
 4    1  0.3565372E-007  0.8121789E+03  0.7818608E-02  0.9685056E-01
          2   -1    0    0  501    0  0.00000000000E+00  0.00000000000E+00  0.28074189814E+04  0.28074189814E+04  0.25500000000E-02 0. -1.
         -2   -1    0    0    0  501 -0.00000000000E+00 -0.00000000000E+00 -0.16701589900E+03  0.16701589902E+03  0.25500000000E-02 0.  1.
    8880023    1    1    2    0    0  0.27188962234E+03  0.38974402087E+03  0.11918252451E+04  0.14422489347E+04  0.65864270000E+03 0.  0.
    8880022    1    1    2    0    0 -0.27188962234E+03 -0.38974402087E+03  0.14485778373E+04  0.15321859457E+04  0.15294330000E+03 0.  0.
<mgrwt>
<rscale>  0 0.71913558E+03</rscale>
<asrwt>0</asrwt>
<pdfrwt beam="1">  1        2 0.43191062E+00 0.81217891E+03</pdfrwt>
<pdfrwt beam="2">  1       -2 0.25694753E-01 0.81217891E+03</pdfrwt>
<totfact> 0.32515103E+01</totfact>
</mgrwt>
</event>
<event>
 4    1  0.3565372E-007  0.7324211E+03  0.7818608E-02  0.9882600E-01
         -2   -1    0    0    0  501 -0.00000000000E+00  0.00000000000E+00  0.63837942902E+03  0.63837942903E+03  0.25500000000E-02 0.  1.
          2   -1    0    0  501    0  0.00000000000E+00 -0.00000000000E+00 -0.24135240244E+04  0.24135240244E+04  0.25500000000E-02 0. -1.
    8880023    1    1    2    0    0  0.10109413009E+03 -0.30399096574E+03 -0.23025056597E+04  0.24161897793E+04  0.65864270000E+03 0. -1.
    8880022    1    1    2    0    0 -0.10109413009E+03  0.30399096574E+03  0.52736106428E+03  0.63571367417E+03  0.15294330000E+03 0.  0.
<mgrwt>
<rscale>  0 0.61112005E+03</rscale>
<asrwt>0</asrwt>
<pdfrwt beam="1">  1        2 0.37131138E+00 0.73242115E+03</pdfrwt>
<pdfrwt beam="2">  1       -2 0.98212221E-01 0.73242115E+03</pdfrwt>
<totfact> 0.35378314E+00</totfact>
</mgrwt>
</event>
<event>
 4    1  0.3565372E-007  0.1014194E+04  0.7818608E-02  0.9363218E-01
         -2   -1    0    0    0  501 -0.00000000000E+00  0.00000000000E+00  0.40120276647E+03  0.40120276648E+03  0.25500000000E-02 0.  1.
          2   -1    0    0  501    0  0.00000000000E+00 -0.00000000000E+00 -0.30373600030E+04  0.30373600030E+04  0.25500000000E-02 0. -1.
    8880023    1    1    2    0    0 -0.63908114521E+03 -0.43168862963E+03 -0.24188196969E+04  0.26228379125E+04  0.65864270000E+03 0. -1.
    8880022    1    1    2    0    0  0.63908114521E+03  0.43168862963E+03 -0.21733753967E+03  0.81572485697E+03  0.15294330000E+03 0.  0.
<mgrwt>
<rscale>  0 0.95165488E+03</rscale>
<asrwt>0</asrwt>
<pdfrwt beam="1">  1        2 0.46728614E+00 0.10141943E+04</pdfrwt>
<pdfrwt beam="2">  1       -2 0.61723505E-01 0.10141943E+04</pdfrwt>
<totfact> 0.41087648E+00</totfact>
</mgrwt>
</event>
<event>
 4    1  0.3565372E-007  0.6771856E+03  0.7818608E-02  0.1010963E+00
         -2   -1    0    0    0  501 -0.00000000000E+00  0.00000000000E+00  0.24095467239E+03  0.24095467241E+03  0.25500000000E-02 0.  1.
          2   -1    0    0  501    0  0.00000000000E+00 -0.00000000000E+00 -0.15902622823E+04  0.15902622823E+04  0.25500000000E-02 0. -1.
    8880023    1    1    2    0    0  0.13168188557E+03  0.86197134173E+02 -0.14419182014E+04  0.15930186348E+04  0.65864270000E+03 0. -1.
    8880022    1    1    2    0    0 -0.13168188557E+03 -0.86197134173E+02  0.92610591531E+02  0.23819831991E+03  0.15294330000E+03 0.  0.
<mgrwt>
<rscale>  0 0.51093836E+03</rscale>
<asrwt>0</asrwt>
<pdfrwt beam="1">  1        2 0.24465573E+00 0.67718555E+03</pdfrwt>
<pdfrwt beam="2">  1       -2 0.37069951E-01 0.67718555E+03</pdfrwt>
<totfact> 0.79655568E+01</totfact>
</mgrwt>
</event>
<event>
 4    1  0.3565372E-007  0.1373593E+04  0.7818608E-02  0.9004478E-01
         -2   -1    0    0    0  501 -0.00000000000E+00  0.00000000000E+00  0.69476906648E+03  0.69476906648E+03  0.25500000000E-02 0.  1.
          2   -1    0    0  501    0  0.00000000000E+00 -0.00000000000E+00 -0.29948410155E+04  0.29948410155E+04  0.25500000000E-02 0. -1.
    8880023    1    1    2    0    0 -0.11563694240E+04  0.34023096631E+03 -0.39361670660E+03  0.14288777671E+04  0.65864270000E+03 0.  1.
    8880022    1    1    2    0    0  0.11563694240E+04 -0.34023096631E+03 -0.19064552424E+04  0.22607323149E+04  0.15294330000E+03 0.  0.
<mgrwt>
<rscale>  0 0.13321152E+04</rscale>
<asrwt>0</asrwt>
<pdfrwt beam="1">  1        2 0.46074477E+00 0.13735929E+04</pdfrwt>
<pdfrwt beam="2">  1       -2 0.10688755E+00 0.13735929E+04</pdfrwt>
<totfact> 0.11964784E+00</totfact>
</mgrwt>
</event>
<event>
 4    1  0.3565372E-007  0.7234739E+03  0.7818608E-02  0.9911002E-01
          2   -1    0    0  501    0  0.00000000000E+00  0.00000000000E+00  0.71639618837E+03  0.71639618838E+03  0.25500000000E-02 0. -1.
         -2   -1    0    0    0  501 -0.00000000000E+00 -0.00000000000E+00 -0.12862475843E+04  0.12862475843E+04  0.25500000000E-02 0.  1.
    8880023    1    1    2    0    0  0.20604830206E+03 -0.21713677753E+03  0.50117268797E+03  0.88010712551E+03  0.65864270000E+03 0. -1.
    8880022    1    1    2    0    0 -0.20604830206E+03  0.21713677753E+03 -0.10710240839E+04  0.11225366472E+04  0.15294330000E+03 0.  0.
<mgrwt>
<rscale>  0 0.59731030E+03</rscale>
<asrwt>0</asrwt>
<pdfrwt beam="1">  1        2 0.11021480E+00 0.72347390E+03</pdfrwt>
<pdfrwt beam="2">  1       -2 0.19788424E+00 0.72347390E+03</pdfrwt>
<totfact> 0.55963122E+00</totfact>
</mgrwt>
</event>
<event>
 4    1  0.3565372E-007  0.7960036E+03  0.7818608E-02  0.9719505E-01
         -2   -1    0    0    0  501 -0.00000000000E+00  0.00000000000E+00  0.16501882293E+04  0.16501882293E+04  0.25500000000E-02 0.  1.
          2   -1    0    0  501    0  0.00000000000E+00 -0.00000000000E+00 -0.30807940084E+03  0.30807940085E+03  0.25500000000E-02 0. -1.
    8880023    1    1    2    0    0  0.43322981286E+03 -0.11010627762E+03  0.37075063780E+03  0.87811030333E+03  0.65864270000E+03 0.  0.
    8880022    1    1    2    0    0 -0.43322981286E+03  0.11010627762E+03  0.97135819069E+03  0.10801573269E+04  0.15294330000E+03 0.  0.
<mgrwt>
<rscale>  0 0.69867273E+03</rscale>
<asrwt>0</asrwt>
<pdfrwt beam="1">  1        2 0.47396831E-01 0.79600356E+03</pdfrwt>
<pdfrwt beam="2">  1       -2 0.25387511E+00 0.79600356E+03</pdfrwt>
<totfact> 0.66323102E+00</totfact>
</mgrwt>
</event>
<event>
 4    1  0.3565372E-007  0.6870400E+03  0.7818608E-02  0.1005592E+00
         -2   -1    0    0    0  501 -0.00000000000E+00  0.00000000000E+00  0.23090601065E+03  0.23090601066E+03  0.25500000000E-02 0.  1.
          2   -1    0    0  501    0  0.00000000000E+00 -0.00000000000E+00 -0.21380609643E+04  0.21380609643E+04  0.25500000000E-02 0. -1.
    8880023    1    1    2    0    0  0.89772520545E+02  0.17365091596E+03 -0.19916136348E+04  0.21067863733E+04  0.65864270000E+03 0.  0.
    8880022    1    1    2    0    0 -0.89772520545E+02 -0.17365091596E+03  0.84458681156E+02  0.26218060168E+03  0.15294330000E+03 0.  0.
<mgrwt>
<rscale>  0 0.53264623E+03</rscale>
<asrwt>0</asrwt>
<pdfrwt beam="1">  1        2 0.32893244E+00 0.68703999E+03</pdfrwt>
<pdfrwt beam="2">  1       -2 0.35524003E-01 0.68703999E+03</pdfrwt>
<totfact> 0.43405355E+01</totfact>
</mgrwt>
</event>
<event>
 4    1  0.3565372E-007  0.7227255E+03  0.7818608E-02  0.9913469E-01
         -2   -1    0    0    0  501 -0.00000000000E+00  0.00000000000E+00  0.65787804169E+03  0.65787804170E+03  0.25500000000E-02 0.  1.
          2   -1    0    0  501    0  0.00000000000E+00 -0.00000000000E+00 -0.55059063845E+03  0.55059063846E+03  0.25500000000E-02 0. -1.
    8880023    1    1    2    0    0 -0.27903797681E+03 -0.10324624941E+03 -0.20456914417E+03  0.75111964528E+03  0.65864270000E+03 0. -1.
    8880022    1    1    2    0    0  0.27903797681E+03  0.10324624941E+03  0.31185654741E+03  0.45734903487E+03  0.15294330000E+03 0.  0.
<mgrwt>
<rscale>  0 0.59612923E+03</rscale>
<asrwt>0</asrwt>
<pdfrwt beam="1">  1        2 0.84706252E-01 0.72272553E+03</pdfrwt>
<pdfrwt beam="2">  1       -2 0.10121201E+00 0.72272553E+03</pdfrwt>
<totfact> 0.44753739E+01</totfact>
</mgrwt>
</event>
<event>
 4    1  0.3565372E-007  0.8463036E+03  0.7818608E-02  0.9618407E-01
          2   -1    0    0  501    0  0.00000000000E+00  0.00000000000E+00  0.76555741423E+03  0.76555741424E+03  0.25500000000E-02 0. -1.
         -2   -1    0    0    0  501 -0.00000000000E+00 -0.00000000000E+00 -0.71941762171E+03  0.71941762172E+03  0.25500000000E-02 0.  1.
    8880023    1    1    2    0    0 -0.43195014389E+03 -0.30957829022E+03  0.27007505744E+03  0.88835262565E+03  0.65864270000E+03 0. -1.
    8880022    1    1    2    0    0  0.43195014389E+03  0.30957829022E+03 -0.22393526492E+03  0.59662241030E+03  0.15294330000E+03 0.  0.
<mgrwt>
<rscale>  0 0.76089783E+03</rscale>
<asrwt>0</asrwt>
<pdfrwt beam="1">  1        2 0.11777806E+00 0.84630364E+03</pdfrwt>
<pdfrwt beam="2">  1       -2 0.11067963E+00 0.84630364E+03</pdfrwt>
<totfact> 0.23765331E+01</totfact>
</mgrwt>
</event>
<event>
 4    1  0.3565372E-007  0.6637935E+03  0.7818608E-02  0.1020568E+00
          2   -1    0    0  501    0  0.00000000000E+00  0.00000000000E+00  0.10412696960E+04  0.10412696960E+04  0.25500000000E-02 0. -1.
         -2   -1    0    0    0  501 -0.00000000000E+00 -0.00000000000E+00 -0.35320152664E+03  0.35320152665E+03  0.25500000000E-02 0.  1.
    8880023    1    1    2    0    0 -0.10592937069E+02  0.81850086584E+02  0.90131825627E+03  0.11193732409E+04  0.65864270000E+03 0. -1.
    8880022    1    1    2    0    0  0.10592937069E+02 -0.81850086584E+02 -0.21325008693E+03  0.27509798178E+03  0.15294330000E+03 0.  0.
<mgrwt>
<rscale>  0 0.47482280E+03</rscale>
<asrwt>0</asrwt>
<pdfrwt beam="1">  1        2 0.16019533E+00 0.66379353E+03</pdfrwt>
<pdfrwt beam="2">  1       -2 0.54338698E-01 0.66379353E+03</pdfrwt>
<totfact> 0.77266335E+01</totfact>
</mgrwt>
</event>
<event>
 4    1  0.3565372E-007  0.6850429E+03  0.7818608E-02  0.1006604E+00
         -2   -1    0    0    0  501 -0.00000000000E+00  0.00000000000E+00  0.38163748158E+03  0.38163748159E+03  0.25500000000E-02 0.  1.
          2   -1    0    0  501    0  0.00000000000E+00 -0.00000000000E+00 -0.18870831717E+04  0.18870831717E+04  0.25500000000E-02 0. -1.
    8880023    1    1    2    0    0  0.76987814518E+02  0.17189084614E+03 -0.17770574498E+04  0.19045253931E+04  0.65864270000E+03 0. -1.
    8880022    1    1    2    0    0 -0.76987814518E+02 -0.17189084614E+03  0.27161175969E+03  0.36419526025E+03  0.15294330000E+03 0.  0.
<mgrwt>
<rscale>  0 0.52847044E+03</rscale>
<asrwt>0</asrwt>
<pdfrwt beam="1">  1        2 0.29032048E+00 0.68504291E+03</pdfrwt>
<pdfrwt beam="2">  1       -2 0.58713460E-01 0.68504291E+03</pdfrwt>
<totfact> 0.21784735E+01</totfact>
</mgrwt>
</event>
<event>
 4    1  0.3565372E-007  0.6734031E+03  0.7818608E-02  0.1013332E+00
          2   -1    0    0  501    0  0.00000000000E+00  0.00000000000E+00  0.22760007663E+04  0.22760007663E+04  0.25500000000E-02 0. -1.
         -2   -1    0    0    0  501 -0.00000000000E+00 -0.00000000000E+00 -0.12211062839E+03  0.12211062842E+03  0.25500000000E-02 0.  1.
    8880023    1    1    2    0    0 -0.74217553091E+01  0.14002326050E+03  0.20656341372E+04  0.21726288663E+04  0.65864270000E+03 0.  0.
    8880022    1    1    2    0    0  0.74217553091E+01 -0.14002326050E+03  0.88256000774E+02  0.22548252841E+03  0.15294330000E+03 0.  1.
<mgrwt>
<rscale>  0 0.50171502E+03</rscale>
<asrwt>0</asrwt>
<pdfrwt beam="1">  1        2 0.35015397E+00 0.67340315E+03</pdfrwt>
<pdfrwt beam="2">  1       -2 0.18786250E-01 0.67340315E+03</pdfrwt>
<totfact> 0.11595048E+02</totfact>
</mgrwt>
</event>
<event>
 4    1  0.3565372E-007  0.9411170E+03  0.7818608E-02  0.9463012E-01
          2   -1    0    0  501    0  0.00000000000E+00  0.00000000000E+00  0.22314110812E+04  0.22314110812E+04  0.25500000000E-02 0. -1.
         -2   -1    0    0    0  501 -0.00000000000E+00 -0.00000000000E+00 -0.92494601384E+03  0.92494601384E+03  0.25500000000E-02 0.  1.
    8880023    1    1    2    0    0  0.53824380036E+02 -0.67007011468E+03  0.19801646170E+04  0.21924308744E+04  0.65864270000E+03 0.  0.
    8880022    1    1    2    0    0 -0.53824380036E+02  0.67007011468E+03 -0.67369954968E+03  0.96392622058E+03  0.15294330000E+03 0.  0.
<mgrwt>
<rscale>  0 0.87066626E+03</rscale>
<asrwt>0</asrwt>
<pdfrwt beam="1">  1        2 0.34329401E+00 0.94111701E+03</pdfrwt>
<pdfrwt beam="2">  1       -2 0.14229939E+00 0.94111701E+03</pdfrwt>
<totfact> 0.17237114E+00</totfact>
</mgrwt>
</event>
<event>
 4    1  0.3565372E-007  0.8771800E+03  0.7818608E-02  0.9563705E-01
          2   -1    0    0  501    0  0.00000000000E+00  0.00000000000E+00  0.48939321107E+03  0.48939321108E+03  0.25500000000E-02 0. -1.
         -2   -1    0    0    0  501 -0.00000000000E+00 -0.00000000000E+00 -0.11636604252E+04  0.11636604252E+04  0.25500000000E-02 0.  1.
    8880023    1    1    2    0    0  0.23808304597E+02 -0.57885039446E+03 -0.56662326234E+03  0.10442733082E+04  0.65864270000E+03 0.  0.
    8880022    1    1    2    0    0 -0.23808304597E+02  0.57885039446E+03 -0.10764395184E+03  0.60878032812E+03  0.15294330000E+03 0.  0.
<mgrwt>
<rscale>  0 0.79745711E+03</rscale>
<asrwt>0</asrwt>
<pdfrwt beam="1">  1        2 0.75291264E-01 0.87718004E+03</pdfrwt>
<pdfrwt beam="2">  1       -2 0.17902468E+00 0.87718004E+03</pdfrwt>
<totfact> 0.11679462E+01</totfact>
</mgrwt>
</event>
<event>
 4    1  0.3565372E-007  0.6992103E+03  0.7818608E-02  0.1000049E+00
          2   -1    0    0  501    0  0.00000000000E+00  0.00000000000E+00  0.21704299112E+04  0.21704299112E+04  0.25500000000E-02 0. -1.
         -2   -1    0    0    0  501 -0.00000000000E+00 -0.00000000000E+00 -0.26072988429E+03  0.26072988430E+03  0.25500000000E-02 0.  1.
    8880023    1    1    2    0    0  0.38457664576E+02 -0.23152949835E+03  0.20142432336E+04  0.21321517092E+04  0.65864270000E+03 0.  0.
    8880022    1    1    2    0    0 -0.38457664576E+02  0.23152949835E+03 -0.10454320674E+03  0.29900808628E+03  0.15294330000E+03 0.  0.
<mgrwt>
<rscale>  0 0.55628631E+03</rscale>
<asrwt>0</asrwt>
<pdfrwt beam="1">  1        2 0.33391230E+00 0.69921035E+03</pdfrwt>
<pdfrwt beam="2">  1       -2 0.40112289E-01 0.69921035E+03</pdfrwt>
<totfact> 0.32912085E+01</totfact>
</mgrwt>
</event>
<event>
 4    1  0.3565372E-007  0.8632123E+03  0.7818608E-02  0.9587875E-01
         -2   -1    0    0    0  501 -0.00000000000E+00  0.00000000000E+00  0.56006363657E+03  0.56006363658E+03  0.25500000000E-02 0.  1.
          2   -1    0    0  501    0  0.00000000000E+00 -0.00000000000E+00 -0.14320080865E+04  0.14320080865E+04  0.25500000000E-02 0. -1.
    8880023    1    1    2    0    0  0.50115161846E+03  0.24530062596E+03 -0.10752201081E+04  0.13788523593E+04  0.65864270000E+03 0. -1.
    8880022    1    1    2    0    0 -0.50115161846E+03 -0.24530062596E+03  0.20327565819E+03  0.61321936370E+03  0.15294330000E+03 0.  0.
<mgrwt>
<rscale>  0 0.78103942E+03</rscale>
<asrwt>0</asrwt>
<pdfrwt beam="1">  1        2 0.22030894E+00 0.86321234E+03</pdfrwt>
<pdfrwt beam="2">  1       -2 0.86163637E-01 0.86321234E+03</pdfrwt>
<totfact> 0.16363398E+01</totfact>
</mgrwt>
</event>
<event>
 4    1  0.3565372E-007  0.6895148E+03  0.7818608E-02  0.1004384E+00
          2   -1    0    0  501    0  0.00000000000E+00  0.00000000000E+00  0.67833459393E+03  0.67833459394E+03  0.25500000000E-02 0. -1.
         -2   -1    0    0    0  501 -0.00000000000E+00 -0.00000000000E+00 -0.48590328445E+03  0.48590328446E+03  0.25500000000E-02 0.  1.
    8880023    1    1    2    0    0  0.11187783056E+03  0.17059834898E+03  0.43258028643E+03  0.81397564836E+03  0.65864270000E+03 0. -1.
    8880022    1    1    2    0    0 -0.11187783056E+03 -0.17059834898E+03 -0.24014897695E+03  0.35026223004E+03  0.15294330000E+03 0.  0.
<mgrwt>
<rscale>  0 0.53769001E+03</rscale>
<asrwt>0</asrwt>
<pdfrwt beam="1">  1        2 0.10435917E+00 0.68951479E+03</pdfrwt>
<pdfrwt beam="2">  1       -2 0.74754352E-01 0.68951479E+03</pdfrwt>
<totfact> 0.69719849E+01</totfact>
</mgrwt>
</event>
<event>
 4    1  0.3565372E-007  0.7157662E+03  0.7818608E-02  0.9937181E-01
         -2   -1    0    0    0  501 -0.00000000000E+00  0.00000000000E+00  0.42004588690E+03  0.42004588691E+03  0.25500000000E-02 0.  1.
          2   -1    0    0  501    0  0.00000000000E+00 -0.00000000000E+00 -0.10007241976E+04  0.10007241976E+04  0.25500000000E-02 0. -1.
    8880023    1    1    2    0    0  0.20838051741E+03  0.18731953389E+03 -0.76865772536E+03  0.10503123120E+04  0.65864270000E+03 0.  1.
    8880022    1    1    2    0    0 -0.20838051741E+03 -0.18731953389E+03  0.18797941468E+03  0.37045777245E+03  0.15294330000E+03 0.  0.
<mgrwt>
<rscale>  0 0.58492691E+03</rscale>
<asrwt>0</asrwt>
<pdfrwt beam="1">  1        2 0.15395757E+00 0.71576620E+03</pdfrwt>
<pdfrwt beam="2">  1       -2 0.64622445E-01 0.71576620E+03</pdfrwt>
<totfact> 0.56639041E+01</totfact>
</mgrwt>
</event>
<event>
 4    1  0.3565372E-007  0.1043990E+04  0.7818608E-02  0.9326141E-01
         -2   -1    0    0    0  501 -0.00000000000E+00  0.00000000000E+00  0.69063098407E+03  0.69063098408E+03  0.25500000000E-02 0.  1.
          2   -1    0    0  501    0  0.00000000000E+00 -0.00000000000E+00 -0.16930081040E+04  0.16930081040E+04  0.25500000000E-02 0. -1.
    8880023    1    1    2    0    0 -0.75625997798E+03 -0.29013188383E+03 -0.11423317186E+04  0.15475262925E+04  0.65864270000E+03 0.  0.
    8880022    1    1    2    0    0  0.75625997798E+03  0.29013188383E+03  0.13995459866E+03  0.83611279563E+03  0.15294330000E+03 0.  0.
<mgrwt>
<rscale>  0 0.98411496E+03</rscale>
<asrwt>0</asrwt>
<pdfrwt beam="1">  1        2 0.26046278E+00 0.10439904E+04</pdfrwt>
<pdfrwt beam="2">  1       -2 0.10625092E+00 0.10439904E+04</pdfrwt>
<totfact> 0.70117159E+00</totfact>
</mgrwt>
</event>
<event>
 4    1  0.3565372E-007  0.9109209E+03  0.7818608E-02  0.9508723E-01
         -2   -1    0    0    0  501 -0.00000000000E+00  0.00000000000E+00  0.16386886721E+04  0.16386886721E+04  0.25500000000E-02 0.  1.
          2   -1    0    0  501    0  0.00000000000E+00 -0.00000000000E+00 -0.81348532573E+03  0.81348532574E+03  0.25500000000E-02 0. -1.
    8880023    1    1    2    0    0  0.46214888999E+03  0.42706575337E+03  0.13431731323E+04  0.16229266847E+04  0.65864270000E+03 0.  1.
    8880022    1    1    2    0    0 -0.46214888999E+03 -0.42706575337E+03 -0.51796978594E+03  0.82924731316E+03  0.15294330000E+03 0.  0.
<mgrwt>
<rscale>  0 0.83643786E+03</rscale>
<asrwt>0</asrwt>
<pdfrwt beam="1">  1        2 0.12515159E+00 0.91092094E+03</pdfrwt>
<pdfrwt beam="2">  1       -2 0.25210595E+00 0.91092094E+03</pdfrwt>
<totfact> 0.21194023E+00</totfact>
</mgrwt>
</event>
<event>
 4    1  0.3565372E-007  0.9419655E+03  0.7818608E-02  0.9461769E-01
          2   -1    0    0  501    0  0.00000000000E+00  0.00000000000E+00  0.14672315095E+04  0.14672315095E+04  0.25500000000E-02 0. -1.
         -2   -1    0    0    0  501 -0.00000000000E+00 -0.00000000000E+00 -0.16131760098E+04  0.16131760098E+04  0.25500000000E-02 0.  1.
    8880023    1    1    2    0    0  0.47743532205E+02  0.67172124332E+03  0.12250412636E+04  0.15453236481E+04  0.65864270000E+03 0.  0.
    8880022    1    1    2    0    0 -0.47743532205E+02 -0.67172124332E+03 -0.13709857639E+04  0.15350838712E+04  0.15294330000E+03 0.  0.
<mgrwt>
<rscale>  0 0.87162055E+03</rscale>
<asrwt>0</asrwt>
<pdfrwt beam="1">  1        2 0.22572792E+00 0.94196554E+03</pdfrwt>
<pdfrwt beam="2">  1       -2 0.24818093E+00 0.94196554E+03</pdfrwt>
<totfact> 0.87940744E-01</totfact>
</mgrwt>
</event>
<event>
 4    1  0.3565372E-007  0.8810992E+03  0.7818608E-02  0.9557081E-01
         -2   -1    0    0    0  501 -0.00000000000E+00  0.00000000000E+00  0.34478324803E+03  0.34478324804E+03  0.25500000000E-02 0.  1.
          2   -1    0    0  501    0  0.00000000000E+00 -0.00000000000E+00 -0.23650676472E+04  0.23650676472E+04  0.25500000000E-02 0. -1.
    8880023    1    1    2    0    0 -0.47368743441E+03 -0.34372352309E+03 -0.37626745283E+03  0.95807778816E+03  0.65864270000E+03 0.  1.
    8880022    1    1    2    0    0  0.47368743441E+03  0.34372352309E+03 -0.16440169464E+04  0.17517731071E+04  0.15294330000E+03 0.  0.
<mgrwt>
<rscale>  0 0.80203161E+03</rscale>
<asrwt>0</asrwt>
<pdfrwt beam="1">  1        2 0.36385655E+00 0.88109923E+03</pdfrwt>
<pdfrwt beam="2">  1       -2 0.53043578E-01 0.88109923E+03</pdfrwt>
<totfact> 0.14292045E+01</totfact>
</mgrwt>
</event>
<event>
 4    1  0.3565372E-007  0.1134246E+04  0.7818608E-02  0.9223852E-01
         -2   -1    0    0    0  501 -0.00000000000E+00  0.00000000000E+00  0.16257165648E+04  0.16257165648E+04  0.25500000000E-02 0.  1.
          2   -1    0    0  501    0  0.00000000000E+00 -0.00000000000E+00 -0.10472788737E+04  0.10472788737E+04  0.25500000000E-02 0. -1.
    8880023    1    1    2    0    0  0.83032623946E+03  0.40405657461E+03  0.11179958268E+04  0.15926167946E+04  0.65864270000E+03 0.  0.
    8880022    1    1    2    0    0 -0.83032623946E+03 -0.40405657461E+03 -0.53955813575E+03  0.10803786439E+04  0.15294330000E+03 0.  0.
<mgrwt>
<rscale>  0 0.10810587E+04</rscale>
<asrwt>0</asrwt>
<pdfrwt beam="1">  1        2 0.16111983E+00 0.11342458E+04</pdfrwt>
<pdfrwt beam="2">  1       -2 0.25011024E+00 0.11342458E+04</pdfrwt>
<totfact> 0.14789699E+00</totfact>
</mgrwt>
</event>
<event>
 4    1  0.3565372E-007  0.7237594E+03  0.7818608E-02  0.9910065E-01
          2   -1    0    0  501    0  0.00000000000E+00  0.00000000000E+00  0.12633364463E+04  0.12633364463E+04  0.25500000000E-02 0. -1.
         -2   -1    0    0    0  501 -0.00000000000E+00 -0.00000000000E+00 -0.75508007981E+03  0.75508007982E+03  0.25500000000E-02 0.  1.
    8880023    1    1    2    0    0 -0.24043582989E+03 -0.17946603637E+03  0.11121824349E+04  0.13269428855E+04  0.65864270000E+03 0. -1.
    8880022    1    1    2    0    0  0.24043582989E+03  0.17946603637E+03 -0.60392606845E+03  0.69147364063E+03  0.15294330000E+03 0.  0.
<mgrwt>
<rscale>  0 0.59775972E+03</rscale>
<asrwt>0</asrwt>
<pdfrwt beam="1">  1        2 0.19435945E+00 0.72375939E+03</pdfrwt>
<pdfrwt beam="2">  1       -2 0.11616617E+00 0.72375939E+03</pdfrwt>
<totfact> 0.10234216E+01</totfact>
</mgrwt>
</event>
<event>
 4    1  0.3565372E-007  0.7128137E+03  0.7818608E-02  0.9947697E-01
          2   -1    0    0  501    0  0.00000000000E+00  0.00000000000E+00  0.32262906780E+03  0.32262906781E+03  0.25500000000E-02 0. -1.
         -2   -1    0    0    0  501 -0.00000000000E+00 -0.00000000000E+00 -0.14941259518E+04  0.14941259518E+04  0.25500000000E-02 0.  1.
    8880023    1    1    2    0    0 -0.23638390001E+03  0.13570498981E+03 -0.12386577424E+03  0.72349576967E+03  0.65864270000E+03 0. -1.
    8880022    1    1    2    0    0  0.23638390001E+03 -0.13570498981E+03 -0.10476311098E+04  0.10932592499E+04  0.15294330000E+03 0.  0.
<mgrwt>
<rscale>  0 0.58004333E+03</rscale>
<asrwt>0</asrwt>
<pdfrwt beam="1">  1        2 0.49635242E-01 0.71281372E+03</pdfrwt>
<pdfrwt beam="2">  1       -2 0.22986553E+00 0.71281372E+03</pdfrwt>
<totfact> 0.89087690E+00</totfact>
</mgrwt>
</event>
<event>
 4    1  0.3565372E-007  0.6660723E+03  0.7818608E-02  0.1018650E+00
         -2   -1    0    0    0  501 -0.00000000000E+00  0.00000000000E+00  0.76447047121E+02  0.76447047164E+02  0.25500000000E-02 0.  1.
          2   -1    0    0  501    0  0.00000000000E+00 -0.00000000000E+00 -0.24617267272E+04  0.24617267272E+04  0.25500000000E-02 0. -1.
    8880023    1    1    2    0    0  0.97964743465E+02 -0.15650893279E+02 -0.20635584397E+04  0.21683924188E+04  0.65864270000E+03 0. -1.
    8880022    1    1    2    0    0 -0.97964743465E+02  0.15650893279E+02 -0.32172124034E+03  0.36978135556E+03  0.15294330000E+03 0. -1.
<mgrwt>
<rscale>  0 0.48176843E+03</rscale>
<asrwt>0</asrwt>
<pdfrwt beam="1">  1        2 0.37872713E+00 0.66607225E+03</pdfrwt>
<pdfrwt beam="2">  1       -2 0.11761086E-01 0.66607225E+03</pdfrwt>
<totfact> 0.20157963E+02</totfact>
</mgrwt>
</event>
<event>
 4    1  0.3565372E-007  0.7436192E+03  0.7818608E-02  0.9849527E-01
         -2   -1    0    0    0  501 -0.00000000000E+00  0.00000000000E+00  0.20899637262E+03  0.20899637264E+03  0.25500000000E-02 0.  1.
          2   -1    0    0  501    0  0.00000000000E+00 -0.00000000000E+00 -0.44223993420E+04  0.44223993420E+04  0.25500000000E-02 0. -1.
    8880023    1    1    2    0    0  0.26060872736E+03  0.22636780959E+03 -0.41874293504E+04  0.42529441644E+04  0.65864270000E+03 0. -1.
    8880022    1    1    2    0    0 -0.26060872736E+03 -0.22636780959E+03 -0.25973618913E+02  0.37845155025E+03  0.15294330000E+03 0.  0.
<mgrwt>
<rscale>  0 0.62771023E+03</rscale>
<asrwt>0</asrwt>
<pdfrwt beam="1">  1        2 0.68036906E+00 0.74361919E+03</pdfrwt>
<pdfrwt beam="2">  1       -2 0.32153291E-01 0.74361919E+03</pdfrwt>
<totfact> 0.14918793E+00</totfact>
</mgrwt>
</event>
<event>
 4    1  0.3565372E-007  0.9857619E+03  0.7818608E-02  0.9400427E-01
          2   -1    0    0  501    0  0.00000000000E+00  0.00000000000E+00  0.20179254226E+04  0.20179254226E+04  0.25500000000E-02 0. -1.
         -2   -1    0    0    0  501 -0.00000000000E+00 -0.00000000000E+00 -0.10763541706E+04  0.10763541706E+04  0.25500000000E-02 0.  1.
    8880023    1    1    2    0    0 -0.65313006459E+03 -0.33367276481E+03  0.17397200433E+04  0.19995880653E+04  0.65864270000E+03 0. -1.
    8880022    1    1    2    0    0  0.65313006459E+03  0.33367276481E+03 -0.79814879132E+03  0.10946915279E+04  0.15294330000E+03 0.  0.
<mgrwt>
<rscale>  0 0.92040547E+03</rscale>
<asrwt>0</asrwt>
<pdfrwt beam="1">  1        2 0.31045006E+00 0.98576194E+03</pdfrwt>
<pdfrwt beam="2">  1       -2 0.16559295E+00 0.98576194E+03</pdfrwt>
<totfact> 0.14965938E+00</totfact>
</mgrwt>
</event>
<event>
 4    1  0.3565372E-007  0.8446867E+03  0.7818608E-02  0.9621406E-01
          2   -1    0    0  501    0  0.00000000000E+00  0.00000000000E+00  0.23564150499E+04  0.23564150499E+04  0.25500000000E-02 0. -1.
         -2   -1    0    0    0  501 -0.00000000000E+00 -0.00000000000E+00 -0.44719193021E+03  0.44719193022E+03  0.25500000000E-02 0.  1.
    8880023    1    1    2    0    0 -0.42516942955E+03 -0.31450962048E+03  0.20653230538E+04  0.22313795885E+04  0.65864270000E+03 0. -1.
    8880022    1    1    2    0    0  0.42516942955E+03  0.31450962048E+03 -0.15609993416E+03  0.57222739157E+03  0.15294330000E+03 0.  0.
<mgrwt>
<rscale>  0 0.75895469E+03</rscale>
<asrwt>0</asrwt>
<pdfrwt beam="1">  1        2 0.36252540E+00 0.84468666E+03</pdfrwt>
<pdfrwt beam="2">  1       -2 0.68798758E-01 0.84468666E+03</pdfrwt>
<totfact> 0.83691202E+00</totfact>
</mgrwt>
</event>
<event>
 4    1  0.3565372E-007  0.8455254E+03  0.7818608E-02  0.9619848E-01
         -2   -1    0    0    0  501 -0.00000000000E+00  0.00000000000E+00  0.30075807444E+03  0.30075807445E+03  0.25500000000E-02 0.  1.
          2   -1    0    0  501    0  0.00000000000E+00 -0.00000000000E+00 -0.18718971099E+04  0.18718971099E+04  0.25500000000E-02 0. -1.
    8880023    1    1    2    0    0 -0.29478883634E+03  0.44068411707E+03 -0.13171842780E+04  0.15652116718E+04  0.65864270000E+03 0.  0.
    8880022    1    1    2    0    0  0.29478883634E+03 -0.44068411707E+03 -0.25395475744E+03  0.60744351253E+03  0.15294330000E+03 0.  0.
<mgrwt>
<rscale>  0 0.75996297E+03</rscale>
<asrwt>0</asrwt>
<pdfrwt beam="1">  1        2 0.28798416E+00 0.84552537E+03</pdfrwt>
<pdfrwt beam="2">  1       -2 0.46270474E-01 0.84552537E+03</pdfrwt>
<totfact> 0.35484254E+01</totfact>
</mgrwt>
</event>
<event>
 4    1  0.3565372E-007  0.6953339E+03  0.7818608E-02  0.1001714E+00
         -2   -1    0    0    0  501 -0.00000000000E+00  0.00000000000E+00  0.44273815073E+03  0.44273815074E+03  0.25500000000E-02 0.  1.
          2   -1    0    0  501    0  0.00000000000E+00 -0.00000000000E+00 -0.85271284591E+03  0.85271284591E+03  0.25500000000E-02 0. -1.
    8880023    1    1    2    0    0 -0.12184860557E+02 -0.22255467724E+03 -0.63657741904E+03  0.94271950860E+03  0.65864270000E+03 0. -1.
    8880022    1    1    2    0    0  0.12184860557E+02  0.22255467724E+03  0.22660272386E+03  0.35273148806E+03  0.15294330000E+03 0.  0.
<mgrwt>
<rscale>  0 0.54905137E+03</rscale>
<asrwt>0</asrwt>
<pdfrwt beam="1">  1        2 0.13118659E+00 0.69533392E+03</pdfrwt>
<pdfrwt beam="2">  1       -2 0.68113562E-01 0.69533392E+03</pdfrwt>
<totfact> 0.63479874E+01</totfact>
</mgrwt>
</event>
<event>
 4    1  0.3565372E-007  0.1108859E+04  0.7818608E-02  0.9251257E-01
          2   -1    0    0  501    0  0.00000000000E+00  0.00000000000E+00  0.17466993746E+04  0.17466993746E+04  0.25500000000E-02 0. -1.
         -2   -1    0    0    0  501 -0.00000000000E+00 -0.00000000000E+00 -0.63628226306E+03  0.63628226307E+03  0.25500000000E-02 0.  1.
    8880023    1    1    2    0    0 -0.80341551751E+03 -0.38766106934E+03  0.25535999889E+03  0.11378824780E+04  0.65864270000E+03 0.  1.
    8880022    1    1    2    0    0  0.80341551751E+03  0.38766106934E+03  0.85505711263E+03  0.12450991596E+04  0.15294330000E+03 0.  0.
<mgrwt>
<rscale>  0 0.10539683E+04</rscale>
<asrwt>0</asrwt>
<pdfrwt beam="1">  1        2 0.26872298E+00 0.11088588E+04</pdfrwt>
<pdfrwt beam="2">  1       -2 0.97889579E-01 0.11088588E+04</pdfrwt>
<totfact> 0.79167853E+00</totfact>
</mgrwt>
</event>
<event>
 4    1  0.3565372E-007  0.1153218E+04  0.7818608E-02  0.9203996E-01
          2   -1    0    0  501    0  0.00000000000E+00  0.00000000000E+00  0.47810673373E+04  0.47810673373E+04  0.25500000000E-02 0. -1.
         -2   -1    0    0    0  501 -0.00000000000E+00 -0.00000000000E+00 -0.41562083057E+03  0.41562083058E+03  0.25500000000E-02 0.  1.
    8880023    1    1    2    0    0  0.92913081305E+03  0.18115778577E+03  0.57842204024E+03  0.12901490123E+04  0.65864270000E+03 0.  0.
    8880022    1    1    2    0    0 -0.92913081305E+03 -0.18115778577E+03  0.37870244665E+04  0.39065391555E+04  0.15294330000E+03 0.  0.
<mgrwt>
<rscale>  0 0.11012280E+04</rscale>
<asrwt>0</asrwt>
<pdfrwt beam="1">  1        2 0.73554880E+00 0.11532183E+04</pdfrwt>
<pdfrwt beam="2">  1       -2 0.63941668E-01 0.11532183E+04</pdfrwt>
<totfact> 0.14936480E-01</totfact>
</mgrwt>
</event>
<event>
 4    1  0.3565372E-007  0.7041221E+03  0.7818608E-02  0.9980513E-01
          2   -1    0    0  501    0  0.00000000000E+00  0.00000000000E+00  0.39062002597E+04  0.39062002597E+04  0.25500000000E-02 0. -1.
         -2   -1    0    0    0  501 -0.00000000000E+00 -0.00000000000E+00 -0.12071229761E+03  0.12071229763E+03  0.25500000000E-02 0.  1.
    8880023    1    1    2    0    0 -0.16144690918E+03  0.18950612408E+03  0.36266051596E+04  0.36943271194E+04  0.65864270000E+03 0.  0.
    8880022    1    1    2    0    0  0.16144690918E+03 -0.18950612408E+03  0.15888280249E+03  0.33258543788E+03  0.15294330000E+03 0.  0.
<mgrwt>
<rscale>  0 0.56513044E+03</rscale>
<asrwt>0</asrwt>
<pdfrwt beam="1">  1        2 0.60095374E+00 0.70412206E+03</pdfrwt>
<pdfrwt beam="2">  1       -2 0.18571127E-01 0.70412206E+03</pdfrwt>
<totfact> 0.10931081E+01</totfact>
</mgrwt>
</event>
<event>
 4    1  0.3565372E-007  0.6757608E+03  0.7818608E-02  0.1011831E+00
         -2   -1    0    0    0  501 -0.00000000000E+00  0.00000000000E+00  0.17165122481E+03  0.17165122483E+03  0.25500000000E-02 0.  1.
          2   -1    0    0  501    0  0.00000000000E+00 -0.00000000000E+00 -0.19499714742E+04  0.19499714742E+04  0.25500000000E-02 0. -1.
    8880023    1    1    2    0    0  0.71328392421E+02 -0.13324672957E+03 -0.17827789201E+04  0.19065553532E+04  0.65864270000E+03 0.  0.
    8880022    1    1    2    0    0 -0.71328392421E+02  0.13324672957E+03  0.44586706908E+01  0.21506734588E+03  0.15294330000E+03 0.  0.
<mgrwt>
<rscale>  0 0.50753386E+03</rscale>
<asrwt>0</asrwt>
<pdfrwt beam="1">  1        2 0.29999560E+00 0.67576078E+03</pdfrwt>
<pdfrwt beam="2">  1       -2 0.26407882E-01 0.67576078E+03</pdfrwt>
<totfact> 0.95556771E+01</totfact>
</mgrwt>
</event>
<event>
 4    1  0.3565372E-007  0.6822350E+03  0.7818608E-02  0.1008087E+00
          2   -1    0    0  501    0  0.00000000000E+00  0.00000000000E+00  0.22733829039E+04  0.22733829039E+04  0.25500000000E-02 0. -1.
         -2   -1    0    0    0  501 -0.00000000000E+00 -0.00000000000E+00 -0.32995484595E+03  0.32995484596E+03  0.25500000000E-02 0.  1.
    8880023    1    1    2    0    0 -0.54330539353E+02 -0.16935949875E+03  0.21715085043E+04  0.22761576918E+04  0.65864270000E+03 0.  0.
    8880022    1    1    2    0    0  0.54330539353E+02  0.16935949875E+03 -0.22808044641E+03  0.32718005803E+03  0.15294330000E+03 0.  1.
<mgrwt>
<rscale>  0 0.52242218E+03</rscale>
<asrwt>0</asrwt>
<pdfrwt beam="1">  1        2 0.34975121E+00 0.68223504E+03</pdfrwt>
<pdfrwt beam="2">  1       -2 0.50762285E-01 0.68223504E+03</pdfrwt>
<totfact> 0.18113009E+01</totfact>
</mgrwt>
</event>
<event>
 4    1  0.3565372E-007  0.1054746E+04  0.7818608E-02  0.9313197E-01
          2   -1    0    0  501    0  0.00000000000E+00  0.00000000000E+00  0.91385772217E+03  0.91385772217E+03  0.25500000000E-02 0. -1.
         -2   -1    0    0    0  501 -0.00000000000E+00 -0.00000000000E+00 -0.12449421235E+04  0.12449421235E+04  0.25500000000E-02 0.  1.
    8880023    1    1    2    0    0  0.12310646950E+03 -0.81457023610E+03 -0.67589662583E+03  0.12527275552E+04  0.65864270000E+03 0.  0.
    8880022    1    1    2    0    0 -0.12310646950E+03  0.81457023610E+03  0.34481222453E+03  0.90607229048E+03  0.15294330000E+03 0.  0.
<mgrwt>
<rscale>  0 0.99576928E+03</rscale>
<asrwt>0</asrwt>
<pdfrwt beam="1">  1        2 0.14059350E+00 0.10547465E+04</pdfrwt>
<pdfrwt beam="2">  1       -2 0.19152956E+00 0.10547465E+04</pdfrwt>
<totfact> 0.42856420E+00</totfact>
</mgrwt>
</event>
<event>
 4    1  0.3941862E-007  0.8365082E+03  0.7818608E-02  0.9636800E-01
         -2   -1    0    0    0  501 -0.00000000000E+00  0.00000000000E+00  0.63458590548E+03  0.63458590549E+03  0.25500000000E-02 0.  1.
          2   -1    0    0  501    0  0.00000000000E+00 -0.00000000000E+00 -0.28444494537E+04  0.28444494537E+04  0.25500000000E-02 0. -1.
    8880023    1    1    2    0    0 -0.30741756693E+02  0.51477250428E+03 -0.26532274138E+04  0.27819708306E+04  0.65864270000E+03 0. -1.
    8880022    1    1    2    0    0  0.30741756693E+02 -0.51477250428E+03  0.44336386555E+03  0.69706452862E+03  0.15294330000E+03 0.  0.
<mgrwt>
<rscale>  0 0.74907682E+03</rscale>
<asrwt>0</asrwt>
<pdfrwt beam="1">  1        2 0.43760760E+00 0.83650821E+03</pdfrwt>
<pdfrwt beam="2">  1       -2 0.97628603E-01 0.83650821E+03</pdfrwt>
<totfact> 0.19834881E+00</totfact>
</mgrwt>
</event>
<event>
 4    1  0.3565372E-007  0.7291970E+03  0.7818608E-02  0.9892613E-01
          2   -1    0    0  501    0  0.00000000000E+00  0.00000000000E+00  0.86461116411E+03  0.86461116412E+03  0.25500000000E-02 0. -1.
         -2   -1    0    0    0  501 -0.00000000000E+00 -0.00000000000E+00 -0.13732744986E+04  0.13732744986E+04  0.25500000000E-02 0.  1.
    8880023    1    1    2    0    0  0.29513612685E+03 -0.10398403421E+03  0.68133090221E+03  0.99796794403E+03  0.65864270000E+03 0. -1.
    8880022    1    1    2    0    0 -0.29513612685E+03  0.10398403421E+03 -0.11899942367E+04  0.12399177187E+04  0.15294330000E+03 0.  0.
<mgrwt>
<rscale>  0 0.60620647E+03</rscale>
<asrwt>0</asrwt>
<pdfrwt beam="1">  1        2 0.13301710E+00 0.72919697E+03</pdfrwt>
<pdfrwt beam="2">  1       -2 0.21127300E+00 0.72919697E+03</pdfrwt>
<totfact> 0.35799481E+00</totfact>
</mgrwt>
</event>
<event>
 4    1  0.3565372E-007  0.6850492E+03  0.7818608E-02  0.1006601E+00
          2   -1    0    0  501    0  0.00000000000E+00  0.00000000000E+00  0.24760446012E+04  0.24760446012E+04  0.25500000000E-02 0. -1.
         -2   -1    0    0    0  501 -0.00000000000E+00 -0.00000000000E+00 -0.29211815288E+03  0.29211815289E+03  0.25500000000E-02 0.  1.
    8880023    1    1    2    0    0 -0.12395725318E+03 -0.14183364515E+03  0.23670427629E+04  0.24641801540E+04  0.65864270000E+03 0. -1.
    8880022    1    1    2    0    0  0.12395725318E+03  0.14183364515E+03 -0.18311631457E+03  0.30398260015E+03  0.15294330000E+03 0.  0.
<mgrwt>
<rscale>  0 0.52848371E+03</rscale>
<asrwt>0</asrwt>
<pdfrwt beam="1">  1        2 0.38092995E+00 0.68504919E+03</pdfrwt>
<pdfrwt beam="2">  1       -2 0.44941253E-01 0.68504919E+03</pdfrwt>
<totfact> 0.17835305E+01</totfact>
</mgrwt>
</event>
<event>
 4    1  0.3565372E-007  0.6723668E+03  0.7818608E-02  0.1014020E+00
         -2   -1    0    0    0  501 -0.00000000000E+00  0.00000000000E+00  0.11369068873E+03  0.11369068876E+03  0.25500000000E-02 0.  1.
          2   -1    0    0  501    0  0.00000000000E+00 -0.00000000000E+00 -0.26099892296E+04  0.26099892296E+04  0.25500000000E-02 0. -1.
    8880023    1    1    2    0    0  0.13290823286E+03  0.24541168418E+02 -0.24100813483E+04  0.25021129429E+04  0.65864270000E+03 0. -1.
    8880022    1    1    2    0    0 -0.13290823286E+03 -0.24541168418E+02 -0.86217192571E+02  0.22156697547E+03  0.15294330000E+03 0.  0.
<mgrwt>
<rscale>  0 0.49907712E+03</rscale>
<asrwt>0</asrwt>
<pdfrwt beam="1">  1        2 0.40153676E+00 0.67236677E+03</pdfrwt>
<pdfrwt beam="2">  1       -2 0.17490877E-01 0.67236677E+03</pdfrwt>
<totfact> 0.85153591E+01</totfact>
</mgrwt>
</event>
<event>
 4    1  0.3565372E-007  0.6900148E+03  0.7818608E-02  0.1004146E+00
         -2   -1    0    0    0  501 -0.00000000000E+00  0.00000000000E+00  0.12729723517E+03  0.12729723519E+03  0.25500000000E-02 0.  1.
          2   -1    0    0  501    0  0.00000000000E+00 -0.00000000000E+00 -0.30588823024E+04  0.30588823024E+04  0.25500000000E-02 0. -1.
    8880023    1    1    2    0    0 -0.78308348346E+02  0.19020505833E+03 -0.28259006572E+04  0.29089233218E+04  0.65864270000E+03 0. -1.
    8880022    1    1    2    0    0  0.78308348346E+02 -0.19020505833E+03 -0.10568441000E+03  0.27725621574E+03  0.15294330000E+03 0.  0.
<mgrwt>
<rscale>  0 0.53869253E+03</rscale>
<asrwt>0</asrwt>
<pdfrwt beam="1">  1        2 0.47059722E+00 0.69001476E+03</pdfrwt>
<pdfrwt beam="2">  1       -2 0.19584192E-01 0.69001476E+03</pdfrwt>
<totfact> 0.37816669E+01</totfact>
</mgrwt>
</event>
<event>
 4    1  0.3565372E-007  0.1250407E+04  0.7818608E-02  0.9109616E-01
          2   -1    0    0  501    0  0.00000000000E+00  0.00000000000E+00  0.15833978140E+04  0.15833978140E+04  0.25500000000E-02 0. -1.
         -2   -1    0    0    0  501 -0.00000000000E+00 -0.00000000000E+00 -0.11348923721E+04  0.11348923721E+04  0.25500000000E-02 0.  1.
    8880023    1    1    2    0    0 -0.85994584903E+03  0.62465971564E+03  0.91305833545E+03  0.15482869094E+04  0.65864270000E+03 0.  0.
    8880022    1    1    2    0    0  0.85994584903E+03 -0.62465971564E+03 -0.46455289359E+03  0.11700032767E+04  0.15294330000E+03 0.  0.
<mgrwt>
<rscale>  0 0.12037097E+04</rscale>
<asrwt>0</asrwt>
<pdfrwt beam="1">  1        2 0.24359966E+00 0.12504067E+04</pdfrwt>
<pdfrwt beam="2">  1       -2 0.17459883E+00 0.12504067E+04</pdfrwt>
<totfact> 0.21754560E+00</totfact>
</mgrwt>
</event>
<event>
 4    1  0.3565372E-007  0.1072071E+04  0.7818608E-02  0.9292807E-01
          2   -1    0    0  501    0  0.00000000000E+00  0.00000000000E+00  0.44105420951E+04  0.44105420951E+04  0.25500000000E-02 0. -1.
         -2   -1    0    0    0  501 -0.00000000000E+00 -0.00000000000E+00 -0.38084701919E+03  0.38084701920E+03  0.25500000000E-02 0.  1.
    8880023    1    1    2    0    0  0.43050062496E+03  0.72814556679E+03  0.37300477824E+04  0.38810557094E+04  0.65864270000E+03 0. -1.
    8880022    1    1    2    0    0 -0.43050062496E+03 -0.72814556679E+03  0.29964729353E+03  0.91033340489E+03  0.15294330000E+03 0.  0.
<mgrwt>
<rscale>  0 0.10144773E+04</rscale>
<asrwt>0</asrwt>
<pdfrwt beam="1">  1        2 0.67854499E+00 0.10720713E+04</pdfrwt>
<pdfrwt beam="2">  1       -2 0.58591844E-01 0.10720713E+04</pdfrwt>
<totfact> 0.43167890E-01</totfact>
</mgrwt>
</event>
<event>
 4    1  0.3565372E-007  0.8104577E+03  0.7818608E-02  0.9688624E-01
         -2   -1    0    0    0  501 -0.00000000000E+00  0.00000000000E+00  0.40229462948E+03  0.40229462949E+03  0.25500000000E-02 0.  1.
          2   -1    0    0  501    0  0.00000000000E+00 -0.00000000000E+00 -0.16636364454E+04  0.16636364454E+04  0.25500000000E-02 0. -1.
    8880023    1    1    2    0    0 -0.37795156576E+03  0.28316805633E+03 -0.13373251710E+04  0.15637392217E+04  0.65864270000E+03 0. -1.
    8880022    1    1    2    0    0  0.37795156576E+03 -0.28316805633E+03  0.75983355057E+02  0.50219185322E+03  0.15294330000E+03 0.  0.
<mgrwt>
<rscale>  0 0.71698154E+03</rscale>
<asrwt>0</asrwt>
<pdfrwt beam="1">  1        2 0.25594406E+00 0.81045774E+03</pdfrwt>
<pdfrwt beam="2">  1       -2 0.61891483E-01 0.81045774E+03</pdfrwt>
<totfact> 0.25393707E+01</totfact>
</mgrwt>
</event>
<event>
 4    1  0.3565372E-007  0.9474309E+03  0.7818608E-02  0.9453820E-01
          2   -1    0    0  501    0  0.00000000000E+00  0.00000000000E+00  0.28205974565E+04  0.28205974565E+04  0.25500000000E-02 0. -1.
         -2   -1    0    0    0  501 -0.00000000000E+00 -0.00000000000E+00 -0.24257838581E+03  0.24257838582E+03  0.25500000000E-02 0.  1.
    8880023    1    1    2    0    0 -0.29406916638E+03 -0.61427876458E+03  0.16392741795E+04  0.18933687219E+04  0.65864270000E+03 0.  0.
    8880022    1    1    2    0    0  0.29406916638E+03  0.61427876458E+03  0.93874489118E+03  0.11698071204E+04  0.15294330000E+03 0. -1.
<mgrwt>
<rscale>  0 0.87775803E+03</rscale>
<asrwt>0</asrwt>
<pdfrwt beam="1">  1        2 0.43393807E+00 0.94743088E+03</pdfrwt>
<pdfrwt beam="2">  1       -2 0.37319752E-01 0.94743088E+03</pdfrwt>
<totfact> 0.15597636E+01</totfact>
</mgrwt>
</event>
<event>
 4    1  0.3565372E-007  0.6912683E+03  0.7818608E-02  0.1003556E+00
         -2   -1    0    0    0  501 -0.00000000000E+00  0.00000000000E+00  0.48851102525E+03  0.48851102526E+03  0.25500000000E-02 0.  1.
          2   -1    0    0  501    0  0.00000000000E+00 -0.00000000000E+00 -0.16422278228E+04  0.16422278228E+04  0.25500000000E-02 0. -1.
    8880023    1    1    2    0    0  0.17506139896E+03  0.11573729817E+03 -0.15269045823E+04  0.16760935014E+04  0.65864270000E+03 0.  0.
    8880022    1    1    2    0    0 -0.17506139896E+03 -0.11573729817E+03  0.37318778474E+03  0.45464534671E+03  0.15294330000E+03 0.  1.
<mgrwt>
<rscale>  0 0.54118312E+03</rscale>
<asrwt>0</asrwt>
<pdfrwt beam="1">  1        2 0.25265043E+00 0.69126827E+03</pdfrwt>
<pdfrwt beam="2">  1       -2 0.75155543E-01 0.69126827E+03</pdfrwt>
<totfact> 0.17376089E+01</totfact>
</mgrwt>
</event>
<event>
 4    1  0.3565372E-007  0.8798054E+03  0.7818608E-02  0.9559261E-01
          2   -1    0    0  501    0  0.00000000000E+00  0.00000000000E+00  0.24144029099E+04  0.24144029099E+04  0.25500000000E-02 0. -1.
         -2   -1    0    0    0  501 -0.00000000000E+00 -0.00000000000E+00 -0.49764371511E+03  0.49764371512E+03  0.25500000000E-02 0.  1.
    8880023    1    1    2    0    0  0.57224010718E+03 -0.11308645666E+03  0.21040646655E+04  0.22806020279E+04  0.65864270000E+03 0.  0.
    8880022    1    1    2    0    0 -0.57224010718E+03  0.11308645666E+03 -0.18730547063E+03  0.63144459716E+03  0.15294330000E+03 0.  0.
<mgrwt>
<rscale>  0 0.80052289E+03</rscale>
<asrwt>0</asrwt>
<pdfrwt beam="1">  1        2 0.37144660E+00 0.87980537E+03</pdfrwt>
<pdfrwt beam="2">  1       -2 0.76560572E-01 0.87980537E+03</pdfrwt>
<totfact> 0.61019393E+00</totfact>
</mgrwt>
</event>
<event>
 4    1  0.3565372E-007  0.6940269E+03  0.7818608E-02  0.1002294E+00
         -2   -1    0    0    0  501 -0.00000000000E+00  0.00000000000E+00  0.95994295355E+02  0.95994295389E+02  0.25500000000E-02 0.  1.
          2   -1    0    0  501    0  0.00000000000E+00 -0.00000000000E+00 -0.30276491676E+04  0.30276491676E+04  0.25500000000E-02 0. -1.
    8880023    1    1    2    0    0 -0.17687166893E+03  0.12876147591E+03 -0.26336733590E+04  0.27235837921E+04  0.65864270000E+03 0.  1.
    8880022    1    1    2    0    0  0.17687166893E+03 -0.12876147591E+03 -0.29798151328E+03  0.40005967083E+03  0.15294330000E+03 0.  0.
<mgrwt>
<rscale>  0 0.54655510E+03</rscale>
<asrwt>0</asrwt>
<pdfrwt beam="1">  1        2 0.46579211E+00 0.69402688E+03</pdfrwt>
<pdfrwt beam="2">  1       -2 0.14768355E-01 0.69402688E+03</pdfrwt>
<totfact> 0.64070518E+01</totfact>
</mgrwt>
</event>
<event>
 4    1  0.3565372E-007  0.6667124E+03  0.7818608E-02  0.1018138E+00
         -2   -1    0    0    0  501 -0.00000000000E+00  0.00000000000E+00  0.47204474243E+03  0.47204474243E+03  0.25500000000E-02 0.  1.
          2   -1    0    0  501    0  0.00000000000E+00 -0.00000000000E+00 -0.78563866271E+03  0.78563866271E+03  0.25500000000E-02 0. -1.
    8880023    1    1    2    0    0 -0.59558290344E+02  0.84545639299E+02 -0.61315673482E+03  0.90579608235E+03  0.65864270000E+03 0. -1.
    8880022    1    1    2    0    0  0.59558290344E+02 -0.84545639299E+02  0.29956281454E+03  0.35188732280E+03  0.15294330000E+03 0.  0.
<mgrwt>
<rscale>  0 0.48364552E+03</rscale>
<asrwt>0</asrwt>
<pdfrwt beam="1">  1        2 0.12086749E+00 0.66671235E+03</pdfrwt>
<pdfrwt beam="2">  1       -2 0.72622268E-01 0.66671235E+03</pdfrwt>
<totfact> 0.61713069E+01</totfact>
</mgrwt>
</event>
<event>
 4    1  0.3565372E-007  0.7786091E+03  0.7818608E-02  0.9759114E-01
         -2   -1    0    0    0  501 -0.00000000000E+00  0.00000000000E+00  0.12561705125E+04  0.12561705125E+04  0.25500000000E-02 0.  1.
          2   -1    0    0  501    0  0.00000000000E+00 -0.00000000000E+00 -0.66312060766E+03  0.66312060766E+03  0.25500000000E-02 0. -1.
    8880023    1    1    2    0    0  0.40331217080E+03 -0.98798686026E+02 -0.36804876817E+03  0.86121541410E+03  0.65864270000E+03 0. -1.
    8880022    1    1    2    0    0 -0.40331217080E+03  0.98798686026E+02  0.96109867301E+03  0.10580757061E+04  0.15294330000E+03 0.  0.
<mgrwt>
<rscale>  0 0.67603618E+03</rscale>
<asrwt>0</asrwt>
<pdfrwt beam="1">  1        2 0.10201856E+00 0.77860908E+03</pdfrwt>
<pdfrwt beam="2">  1       -2 0.19325700E+00 0.77860908E+03</pdfrwt>
<totfact> 0.65698297E+00</totfact>
</mgrwt>
</event>
<event>
 4    1  0.3565372E-007  0.7447280E+03  0.7818608E-02  0.9846383E-01
          2   -1    0    0  501    0  0.00000000000E+00  0.00000000000E+00  0.32523845444E+04  0.32523845444E+04  0.25500000000E-02 0. -1.
         -2   -1    0    0    0  501 -0.00000000000E+00 -0.00000000000E+00 -0.18683036622E+03  0.18683036624E+03  0.25500000000E-02 0.  1.
    8880023    1    1    2    0    0 -0.19594663144E+03 -0.28707933803E+03  0.29496055916E+04  0.30421691243E+04  0.65864270000E+03 0. -1.
    8880022    1    1    2    0    0  0.19594663144E+03  0.28707933803E+03  0.11594858658E+03  0.39704578633E+03  0.15294330000E+03 0.  0.
<mgrwt>
<rscale>  0 0.62931693E+03</rscale>
<asrwt>0</asrwt>
<pdfrwt beam="1">  1        2 0.50036686E+00 0.74472803E+03</pdfrwt>
<pdfrwt beam="2">  1       -2 0.28743133E-01 0.74472803E+03</pdfrwt>
<totfact> 0.14231564E+01</totfact>
</mgrwt>
</event>
<event>
 4    1  0.3565372E-007  0.7000410E+03  0.7818608E-02  0.9997031E-01
          2   -1    0    0  501    0  0.00000000000E+00  0.00000000000E+00  0.63782356840E+03  0.63782356841E+03  0.25500000000E-02 0. -1.
         -2   -1    0    0    0  501 -0.00000000000E+00 -0.00000000000E+00 -0.72494897547E+03  0.72494897547E+03  0.25500000000E-02 0.  1.
    8880023    1    1    2    0    0  0.17734026745E+03 -0.15747253768E+03  0.39524767011E+03  0.80391423521E+03  0.65864270000E+03 0.  0.
    8880022    1    1    2    0    0 -0.17734026745E+03  0.15747253768E+03 -0.48237307717E+03  0.55885830868E+03  0.15294330000E+03 0.  1.
<mgrwt>
<rscale>  0 0.55780603E+03</rscale>
<asrwt>0</asrwt>
<pdfrwt beam="1">  1        2 0.98126703E-01 0.70004098E+03</pdfrwt>
<pdfrwt beam="2">  1       -2 0.11153061E+00 0.70004098E+03</pdfrwt>
<totfact> 0.29750846E+01</totfact>
</mgrwt>
</event>
<event>
 4    1  0.3565372E-007  0.7012584E+03  0.7818608E-02  0.9992020E-01
         -2   -1    0    0    0  501 -0.00000000000E+00  0.00000000000E+00  0.93408816955E+02  0.93408816990E+02  0.25500000000E-02 0.  1.
          2   -1    0    0  501    0  0.00000000000E+00 -0.00000000000E+00 -0.29337664806E+04  0.29337664806E+04  0.25500000000E-02 0. -1.
    8880023    1    1    2    0    0 -0.11134710499E+03  0.21343614990E+03 -0.24172551682E+04  0.25169199277E+04  0.65864270000E+03 0.  0.
    8880022    1    1    2    0    0  0.11134710499E+03 -0.21343614990E+03 -0.42310249552E+03  0.51025536999E+03  0.15294330000E+03 0.  0.
<mgrwt>
<rscale>  0 0.56001519E+03</rscale>
<asrwt>0</asrwt>
<pdfrwt beam="1">  1        2 0.45134862E+00 0.70125842E+03</pdfrwt>
<pdfrwt beam="2">  1       -2 0.14370589E-01 0.70125842E+03</pdfrwt>
<totfact> 0.76433061E+01</totfact>
</mgrwt>
</event>
<event>
 4    1  0.3565372E-007  0.1197420E+04  0.7818608E-02  0.9159634E-01
          2   -1    0    0  501    0  0.00000000000E+00  0.00000000000E+00  0.24596485421E+04  0.24596485421E+04  0.25500000000E-02 0. -1.
         -2   -1    0    0    0  501 -0.00000000000E+00 -0.00000000000E+00 -0.54186761747E+03  0.54186761748E+03  0.25500000000E-02 0.  1.
    8880023    1    1    2    0    0  0.95153355367E+03 -0.30755326066E+03  0.59747442198E+03  0.13382043951E+04  0.65864270000E+03 0.  0.
    8880022    1    1    2    0    0 -0.95153355367E+03  0.30755326066E+03  0.13203065026E+04  0.16633117645E+04  0.15294330000E+03 0.  0.
<mgrwt>
<rscale>  0 0.11479962E+04</rscale>
<asrwt>0</asrwt>
<pdfrwt beam="1">  1        2 0.37840747E+00 0.11974203E+04</pdfrwt>
<pdfrwt beam="2">  1       -2 0.83364249E-01 0.11974203E+04</pdfrwt>
<totfact> 0.45595540E+00</totfact>
</mgrwt>
</event>
<event>
 4    1  0.3565372E-007  0.2577893E+04  0.7818608E-02  0.8382806E-01
         -2   -1    0    0    0  501 -0.00000000000E+00  0.00000000000E+00  0.42719059413E+04  0.42719059413E+04  0.25500000000E-02 0.  1.
          2   -1    0    0  501    0  0.00000000000E+00 -0.00000000000E+00 -0.24753155497E+04  0.24753155497E+04  0.25500000000E-02 0. -1.
    8880023    1    1    2    0    0 -0.21447126196E+04  0.12696172823E+04  0.30166403805E+04  0.39680788369E+04  0.65864270000E+03 0.  0.
    8880022    1    1    2    0    0  0.21447126196E+04 -0.12696172823E+04 -0.12200499888E+04  0.27791426542E+04  0.15294330000E+03 0.  0.
<mgrwt>
<rscale>  0 0.25574323E+04</rscale>
<asrwt>0</asrwt>
<pdfrwt beam="1">  1        2 0.38081778E+00 0.25778926E+04</pdfrwt>
<pdfrwt beam="2">  1       -2 0.65721629E+00 0.25778926E+04</pdfrwt>
<totfact> 0.92414856E-04</totfact>
</mgrwt>
</event>
<event>
 4    1  0.3565372E-007  0.1086147E+04  0.7818608E-02  0.9276639E-01
          2   -1    0    0  501    0  0.00000000000E+00  0.00000000000E+00  0.13885378434E+04  0.13885378434E+04  0.25500000000E-02 0. -1.
         -2   -1    0    0    0  501 -0.00000000000E+00 -0.00000000000E+00 -0.14660974326E+04  0.14660974326E+04  0.25500000000E-02 0.  1.
    8880023    1    1    2    0    0 -0.44650955195E+03  0.73927954904E+03  0.99231212548E+03  0.14711895161E+04  0.65864270000E+03 0. -1.
    8880022    1    1    2    0    0  0.44650955195E+03 -0.73927954904E+03 -0.10698717148E+04  0.13834457599E+04  0.15294330000E+03 0.  0.
<mgrwt>
<rscale>  0 0.10296229E+04</rscale>
<asrwt>0</asrwt>
<pdfrwt beam="1">  1        2 0.21362121E+00 0.10861470E+04</pdfrwt>
<pdfrwt beam="2">  1       -2 0.22555345E+00 0.10861470E+04</pdfrwt>
<totfact> 0.13177604E+00</totfact>
</mgrwt>
</event>
<event>
 4    1  0.3565372E-007  0.7202961E+03  0.7818608E-02  0.9921585E-01
         -2   -1    0    0    0  501 -0.00000000000E+00  0.00000000000E+00  0.17830619148E+03  0.17830619150E+03  0.25500000000E-02 0.  1.
          2   -1    0    0  501    0  0.00000000000E+00 -0.00000000000E+00 -0.16604555258E+04  0.16604555258E+04  0.25500000000E-02 0. -1.
    8880023    1    1    2    0    0  0.54447993624E+02 -0.28644670793E+03 -0.12246559986E+04  0.14207775413E+04  0.65864270000E+03 0.  1.
    8880022    1    1    2    0    0 -0.54447993624E+02  0.28644670793E+03 -0.25749333572E+03  0.41798417607E+03  0.15294330000E+03 0.  0.
<mgrwt>
<rscale>  0 0.59226484E+03</rscale>
<asrwt>0</asrwt>
<pdfrwt beam="1">  1        2 0.25545469E+00 0.72029612E+03</pdfrwt>
<pdfrwt beam="2">  1       -2 0.27431723E-01 0.72029612E+03</pdfrwt>
<totfact> 0.12757777E+02</totfact>
</mgrwt>
</event>
<event>
 4    1  0.3565372E-007  0.7352293E+03  0.7818608E-02  0.9874068E-01
          2   -1    0    0  501    0  0.00000000000E+00  0.00000000000E+00  0.24482056282E+04  0.24482056282E+04  0.25500000000E-02 0. -1.
         -2   -1    0    0    0  501 -0.00000000000E+00 -0.00000000000E+00 -0.23014476477E+03  0.23014476479E+03  0.25500000000E-02 0.  1.
    8880023    1    1    2    0    0 -0.21009778554E+03 -0.25022150406E+03  0.42472646409E+03  0.84909048761E+03  0.65864270000E+03 0.  1.
    8880022    1    1    2    0    0  0.21009778554E+03  0.25022150406E+03  0.17933343993E+04  0.18292599054E+04  0.15294330000E+03 0.  0.
<mgrwt>
<rscale>  0 0.61534676E+03</rscale>
<asrwt>0</asrwt>
<pdfrwt beam="1">  1        2 0.37664701E+00 0.73522928E+03</pdfrwt>
<pdfrwt beam="2">  1       -2 0.35406888E-01 0.73522928E+03</pdfrwt>
<totfact> 0.29191828E+01</totfact>
</mgrwt>
</event>
<event>
 4    1  0.3565372E-007  0.7066411E+03  0.7818608E-02  0.9970692E-01
          2   -1    0    0  501    0  0.00000000000E+00  0.00000000000E+00  0.26894945139E+04  0.26894945139E+04  0.25500000000E-02 0. -1.
         -2   -1    0    0    0  501 -0.00000000000E+00 -0.00000000000E+00 -0.26628819248E+03  0.26628819249E+03  0.25500000000E-02 0.  1.
    8880023    1    1    2    0    0 -0.20243134054E+03  0.15669408722E+03  0.25392938560E+04  0.26357835605E+04  0.65864270000E+03 0. -1.
    8880022    1    1    2    0    0  0.20243134054E+03 -0.15669408722E+03 -0.11608753464E+03  0.31999914580E+03  0.15294330000E+03 0.  0.
<mgrwt>
<rscale>  0 0.56954236E+03</rscale>
<asrwt>0</asrwt>
<pdfrwt beam="1">  1        2 0.41376837E+00 0.70664113E+03</pdfrwt>
<pdfrwt beam="2">  1       -2 0.40967416E-01 0.70664113E+03</pdfrwt>
<totfact> 0.16106249E+01</totfact>
</mgrwt>
</event>
<event>
 4    1  0.3565372E-007  0.6724888E+03  0.7818608E-02  0.1013938E+00
          2   -1    0    0  501    0  0.00000000000E+00  0.00000000000E+00  0.12643630862E+04  0.12643630862E+04  0.25500000000E-02 0. -1.
         -2   -1    0    0    0  501 -0.00000000000E+00 -0.00000000000E+00 -0.31931423151E+03  0.31931423152E+03  0.25500000000E-02 0.  1.
    8880023    1    1    2    0    0 -0.12961168686E+03 -0.40396020755E+02  0.11253930766E+04  0.13110113695E+04  0.65864270000E+03 0. -1.
    8880022    1    1    2    0    0  0.12961168686E+03  0.40396020755E+02 -0.18034422198E+03  0.27266594815E+03  0.15294330000E+03 0.  0.
<mgrwt>
<rscale>  0 0.49939052E+03</rscale>
<asrwt>0</asrwt>
<pdfrwt beam="1">  1        2 0.19451740E+00 0.67248884E+03</pdfrwt>
<pdfrwt beam="2">  1       -2 0.49125267E-01 0.67248884E+03</pdfrwt>
<totfact> 0.69744963E+01</totfact>
</mgrwt>
</event>
<event>
 4    1  0.3565372E-007  0.7880891E+03  0.7818608E-02  0.9737167E-01
         -2   -1    0    0    0  501 -0.00000000000E+00  0.00000000000E+00  0.39292290911E+03  0.39292290912E+03  0.25500000000E-02 0.  1.
          2   -1    0    0  501    0  0.00000000000E+00 -0.00000000000E+00 -0.99273618850E+03  0.99273618850E+03  0.25500000000E-02 0. -1.
    8880023    1    1    2    0    0 -0.43248411650E+03 -0.15223983729E+02 -0.34064085317E+03  0.85855732355E+03  0.65864270000E+03 0.  0.
    8880022    1    1    2    0    0  0.43248411650E+03  0.15223983729E+02 -0.25917242622E+03  0.52710177407E+03  0.15294330000E+03 0.  0.
<mgrwt>
<rscale>  0 0.68846330E+03</rscale>
<asrwt>0</asrwt>
<pdfrwt beam="1">  1        2 0.15272864E+00 0.78808914E+03</pdfrwt>
<pdfrwt beam="2">  1       -2 0.60449679E-01 0.78808914E+03</pdfrwt>
<totfact> 0.65671848E+01</totfact>
</mgrwt>
</event>
<event>
 4    1  0.3565372E-007  0.7285276E+03  0.7818608E-02  0.9894722E-01
         -2   -1    0    0    0  501 -0.00000000000E+00  0.00000000000E+00  0.43252000492E+03  0.43252000493E+03  0.25500000000E-02 0.  1.
          2   -1    0    0  501    0  0.00000000000E+00 -0.00000000000E+00 -0.11416176466E+04  0.11416176466E+04  0.25500000000E-02 0. -1.
    8880023    1    1    2    0    0 -0.18165577372E+02  0.31082518320E+03 -0.91587675087E+03  0.11702917208E+04  0.65864270000E+03 0. -1.
    8880022    1    1    2    0    0  0.18165577372E+02 -0.31082518320E+03  0.20677910923E+03  0.40384593070E+03  0.15294330000E+03 0.  0.
<mgrwt>
<rscale>  0 0.60517786E+03</rscale>
<asrwt>0</asrwt>
<pdfrwt beam="1">  1        2 0.17563348E+00 0.72852762E+03</pdfrwt>
<pdfrwt beam="2">  1       -2 0.66541540E-01 0.72852762E+03</pdfrwt>
<totfact> 0.43462785E+01</totfact>
</mgrwt>
</event>
<event>
 4    1  0.3565372E-007  0.2186506E+04  0.7818608E-02  0.8534366E-01
          2   -1    0    0  501    0  0.00000000000E+00  0.00000000000E+00  0.33849644443E+04  0.33849644443E+04  0.25500000000E-02 0. -1.
         -2   -1    0    0    0  501 -0.00000000000E+00 -0.00000000000E+00 -0.22679522152E+04  0.22679522152E+04  0.25500000000E-02 0.  1.
    8880023    1    1    2    0    0 -0.18085004711E+04 -0.10374608551E+04  0.23628508551E+04  0.32192970272E+04  0.65864270000E+03 0.  0.
    8880022    1    1    2    0    0  0.18085004711E+04  0.10374608551E+04 -0.12458386260E+04  0.24336196323E+04  0.15294330000E+03 0.  0.
<mgrwt>
<rscale>  0 0.21621114E+04</rscale>
<asrwt>0</asrwt>
<pdfrwt beam="1">  1        2 0.52076376E+00 0.21865062E+04</pdfrwt>
<pdfrwt beam="2">  1       -2 0.34891573E+00 0.21865062E+04</pdfrwt>
<totfact> 0.13321255E-02</totfact>
</mgrwt>
</event>
<event>
 4    1  0.3565372E-007  0.9195720E+03  0.7818608E-02  0.9495316E-01
          2   -1    0    0  501    0  0.00000000000E+00  0.00000000000E+00  0.68597863944E+03  0.68597863945E+03  0.25500000000E-02 0. -1.
         -2   -1    0    0    0  501 -0.00000000000E+00 -0.00000000000E+00 -0.19480491920E+04  0.19480491920E+04  0.25500000000E-02 0.  1.
    8880023    1    1    2    0    0 -0.26772027643E+03 -0.58320526697E+03  0.27629334001E+03  0.96018266274E+03  0.65864270000E+03 0.  0.
    8880022    1    1    2    0    0  0.26772027643E+03  0.58320526697E+03 -0.15383638926E+04  0.16738451687E+04  0.15294330000E+03 0.  0.
<mgrwt>
<rscale>  0 0.84630071E+03</rscale>
<asrwt>0</asrwt>
<pdfrwt beam="1">  1        2 0.10553518E+00 0.91957204E+03</pdfrwt>
<pdfrwt beam="2">  1       -2 0.29969987E+00 0.91957204E+03</pdfrwt>
<totfact> 0.13632224E+00</totfact>
</mgrwt>
</event>
<event>
 4    1  0.3565372E-007  0.7974967E+03  0.7818608E-02  0.9716235E-01
          2   -1    0    0  501    0  0.00000000000E+00  0.00000000000E+00  0.21636888706E+04  0.21636888706E+04  0.25500000000E-02 0. -1.
         -2   -1    0    0    0  501 -0.00000000000E+00 -0.00000000000E+00 -0.65109061958E+03  0.65109061959E+03  0.25500000000E-02 0.  1.
    8880023    1    1    2    0    0 -0.44352639097E+03  0.73993684234E+02  0.19884768929E+04  0.21424381635E+04  0.65864270000E+03 0. -1.
    8880022    1    1    2    0    0  0.44352639097E+03 -0.73993684234E+02 -0.47587864183E+03  0.67234132668E+03  0.15294330000E+03 0.  0.
<mgrwt>
<rscale>  0 0.70058334E+03</rscale>
<asrwt>0</asrwt>
<pdfrwt beam="1">  1        2 0.33287520E+00 0.79749667E+03</pdfrwt>
<pdfrwt beam="2">  1       -2 0.10016779E+00 0.79749667E+03</pdfrwt>
<totfact> 0.45962167E+00</totfact>
</mgrwt>
</event>
<event>
 4    1  0.5227854E-007  0.7839151E+03  0.7818608E-02  0.9746719E-01
         -2   -1    0    0    0  501 -0.00000000000E+00  0.00000000000E+00  0.12806307194E+04  0.12806307194E+04  0.25500000000E-02 0.  1.
          2   -1    0    0  501    0  0.00000000000E+00 -0.00000000000E+00 -0.13923389600E+04  0.13923389600E+04  0.25500000000E-02 0. -1.
    8880023    1    1    2    0    0  0.36786840811E+03  0.21303889927E+03 -0.12346856745E+04  0.14625223620E+04  0.65864270000E+03 0. -1.
    8880022    1    1    2    0    0 -0.36786840811E+03 -0.21303889927E+03  0.11229774338E+04  0.12104473174E+04  0.15294330000E+03 0.  0.
<mgrwt>
<rscale>  0 0.68301986E+03</rscale>
<asrwt>0</asrwt>
<pdfrwt beam="1">  1        2 0.21420599E+00 0.78391514E+03</pdfrwt>
<pdfrwt beam="2">  1       -2 0.19702011E+00 0.78391514E+03</pdfrwt>
<totfact> 0.20831166E+00</totfact>
</mgrwt>
</event>
<event>
 4    1  0.3565372E-007  0.1003552E+04  0.7818608E-02  0.9376926E-01
         -2   -1    0    0    0  501 -0.00000000000E+00  0.00000000000E+00  0.30363013016E+03  0.30363013017E+03  0.25500000000E-02 0.  1.
          2   -1    0    0  501    0  0.00000000000E+00 -0.00000000000E+00 -0.26645398220E+04  0.26645398220E+04  0.25500000000E-02 0. -1.
    8880023    1    1    2    0    0  0.17050140631E+03  0.73772286828E+03 -0.15643234474E+04  0.18585542269E+04  0.65864270000E+03 0.  0.
    8880022    1    1    2    0    0 -0.17050140631E+03 -0.73772286828E+03 -0.79658624442E+03  0.11096157253E+04  0.15294330000E+03 0.  0.
<mgrwt>
<rscale>  0 0.93999182E+03</rscale>
<asrwt>0</asrwt>
<pdfrwt beam="1">  1        2 0.40992919E+00 0.10035517E+04</pdfrwt>
<pdfrwt beam="2">  1       -2 0.46712330E-01 0.10035517E+04</pdfrwt>
<totfact> 0.12293178E+01</totfact>
</mgrwt>
</event>
<event>
 4    1  0.3565372E-007  0.7007534E+03  0.7818608E-02  0.9994090E-01
          2   -1    0    0  501    0  0.00000000000E+00  0.00000000000E+00  0.10689476958E+04  0.10689476958E+04  0.25500000000E-02 0. -1.
         -2   -1    0    0    0  501 -0.00000000000E+00 -0.00000000000E+00 -0.23770780449E+03  0.23770780450E+03  0.25500000000E-02 0.  1.
    8880023    1    1    2    0    0 -0.75709094966E+02 -0.22696527704E+03  0.71098458589E+03  0.99827570925E+03  0.65864270000E+03 0. -1.
    8880022    1    1    2    0    0  0.75709094966E+02  0.22696527704E+03  0.12025530543E+03  0.30837979107E+03  0.15294330000E+03 0.  1.
<mgrwt>
<rscale>  0 0.55910134E+03</rscale>
<asrwt>0</asrwt>
<pdfrwt beam="1">  1        2 0.16445349E+00 0.70075339E+03</pdfrwt>
<pdfrwt beam="2">  1       -2 0.36570431E-01 0.70075339E+03</pdfrwt>
<totfact> 0.16276524E+02</totfact>
</mgrwt>
</event>
<event>
 4    1  0.3565372E-007  0.6747716E+03  0.7818608E-02  0.1012451E+00
         -2   -1    0    0    0  501 -0.00000000000E+00  0.00000000000E+00  0.25237742605E+03  0.25237742606E+03  0.25500000000E-02 0.  1.
          2   -1    0    0  501    0  0.00000000000E+00 -0.00000000000E+00 -0.15234555351E+04  0.15234555351E+04  0.25500000000E-02 0. -1.
    8880023    1    1    2    0    0  0.36406654957E+02  0.14206017790E+03 -0.13810666799E+04  0.15370952863E+04  0.65864270000E+03 0. -1.
    8880022    1    1    2    0    0 -0.36406654957E+02 -0.14206017790E+03  0.10998857082E+03  0.23873767485E+03  0.15294330000E+03 0.  0.
<mgrwt>
<rscale>  0 0.50512192E+03</rscale>
<asrwt>0</asrwt>
<pdfrwt beam="1">  1        2 0.23437777E+00 0.67477162E+03</pdfrwt>
<pdfrwt beam="2">  1       -2 0.38827297E-01 0.67477162E+03</pdfrwt>
<totfact> 0.79319447E+01</totfact>
</mgrwt>
</event>
<event>
 4    1  0.3565372E-007  0.8519711E+03  0.7818608E-02  0.9608008E-01
          2   -1    0    0  501    0  0.00000000000E+00  0.00000000000E+00  0.16475569700E+04  0.16475569700E+04  0.25500000000E-02 0. -1.
         -2   -1    0    0    0  501 -0.00000000000E+00 -0.00000000000E+00 -0.40971602973E+03  0.40971602974E+03  0.25500000000E-02 0.  1.
    8880023    1    1    2    0    0 -0.37247240790E+03 -0.39154673893E+03  0.12291753891E+04  0.14955690846E+04  0.65864270000E+03 0.  0.
    8880022    1    1    2    0    0  0.37247240790E+03  0.39154673893E+03  0.86655510939E+01  0.56170391507E+03  0.15294330000E+03 0.  0.
<mgrwt>
<rscale>  0 0.76768417E+03</rscale>
<asrwt>0</asrwt>
<pdfrwt beam="1">  1        2 0.25347030E+00 0.85197110E+03</pdfrwt>
<pdfrwt beam="2">  1       -2 0.63033236E-01 0.85197110E+03</pdfrwt>
<totfact> 0.24811003E+01</totfact>
</mgrwt>
</event>
<event>
 4    1  0.3565372E-007  0.7898550E+03  0.7818608E-02  0.9733177E-01
          2   -1    0    0  501    0  0.00000000000E+00  0.00000000000E+00  0.76529691418E+03  0.76529691418E+03  0.25500000000E-02 0. -1.
         -2   -1    0    0    0  501 -0.00000000000E+00 -0.00000000000E+00 -0.18167546373E+04  0.18167546373E+04  0.25500000000E-02 0.  1.
    8880023    1    1    2    0    0  0.43552540850E+03  0.19449631389E+02  0.51895740852E+03  0.94508606366E+03  0.65864270000E+03 0.  0.
    8880022    1    1    2    0    0 -0.43552540850E+03 -0.19449631389E+02 -0.15704151316E+04  0.16369654878E+04  0.15294330000E+03 0.  1.
<mgrwt>
<rscale>  0 0.69075355E+03</rscale>
<asrwt>0</asrwt>
<pdfrwt beam="1">  1        2 0.11773799E+00 0.78985497E+03</pdfrwt>
<pdfrwt beam="2">  1       -2 0.27950071E+00 0.78985497E+03</pdfrwt>
<totfact> 0.15981864E+00</totfact>
</mgrwt>
</event>
<event>
 4    1  0.3565372E-007  0.7841221E+03  0.7818608E-02  0.9746242E-01
         -2   -1    0    0    0  501 -0.00000000000E+00  0.00000000000E+00  0.23393422376E+04  0.23393422376E+04  0.25500000000E-02 0.  1.
          2   -1    0    0  501    0  0.00000000000E+00 -0.00000000000E+00 -0.22056749822E+03  0.22056749824E+03  0.25500000000E-02 0. -1.
    8880023    1    1    2    0    0 -0.28854768342E+03  0.31269399805E+03  0.63567267170E+03  0.10094192656E+04  0.65864270000E+03 0.  0.
    8880022    1    1    2    0    0  0.28854768342E+03 -0.31269399805E+03  0.14831020677E+04  0.15504904702E+04  0.15294330000E+03 0.  0.
<mgrwt>
<rscale>  0 0.68329081E+03</rscale>
<asrwt>0</asrwt>
<pdfrwt beam="1">  1        2 0.33933461E-01 0.78412213E+03</pdfrwt>
<pdfrwt beam="2">  1       -2 0.35989880E+00 0.78412213E+03</pdfrwt>
<totfact> 0.21861847E+00</totfact>
</mgrwt>
</event>
<event>
 4    1  0.3565372E-007  0.8315376E+03  0.7818608E-02  0.9646348E-01
         -2   -1    0    0    0  501 -0.00000000000E+00  0.00000000000E+00  0.50336534162E+03  0.50336534162E+03  0.25500000000E-02 0.  1.
          2   -1    0    0  501    0  0.00000000000E+00 -0.00000000000E+00 -0.13843919254E+04  0.13843919254E+04  0.25500000000E-02 0. -1.
    8880023    1    1    2    0    0 -0.41418744572E+03  0.29341663573E+03 -0.10425631536E+04  0.13335639084E+04  0.65864270000E+03 0.  0.
    8880022    1    1    2    0    0  0.41418744572E+03 -0.29341663573E+03  0.16153656984E+03  0.55419335860E+03  0.15294330000E+03 0.  0.
<mgrwt>
<rscale>  0 0.74303060E+03</rscale>
<asrwt>0</asrwt>
<pdfrwt beam="1">  1        2 0.21298337E+00 0.83153759E+03</pdfrwt>
<pdfrwt beam="2">  1       -2 0.77440822E-01 0.83153759E+03</pdfrwt>
<totfact> 0.22243385E+01</totfact>
</mgrwt>
</event>
<event>
 4    1  0.3565372E-007  0.1089210E+04  0.7818608E-02  0.9273165E-01
         -2   -1    0    0    0  501 -0.00000000000E+00  0.00000000000E+00  0.98824340000E+03  0.98824340000E+03  0.25500000000E-02 0.  1.
          2   -1    0    0  501    0  0.00000000000E+00 -0.00000000000E+00 -0.19014032591E+04  0.19014032591E+04  0.25500000000E-02 0. -1.
    8880023    1    1    2    0    0  0.37898495994E+03 -0.78034586768E+03 -0.14833673723E+04  0.18403147124E+04  0.65864270000E+03 0.  0.
    8880022    1    1    2    0    0 -0.37898495994E+03  0.78034586768E+03  0.57020751329E+03  0.10493319467E+04  0.15294330000E+03 0.  0.
<mgrwt>
<rscale>  0 0.10329132E+04</rscale>
<asrwt>0</asrwt>
<pdfrwt beam="1">  1        2 0.29252358E+00 0.10892105E+04</pdfrwt>
<pdfrwt beam="2">  1       -2 0.15203745E+00 0.10892105E+04</pdfrwt>
<totfact> 0.21585729E+00</totfact>
</mgrwt>
</event>
<event>
 4    1  0.3565372E-007  0.6675117E+03  0.7818608E-02  0.1017513E+00
         -2   -1    0    0    0  501 -0.00000000000E+00  0.00000000000E+00  0.14460609992E+03  0.14460609994E+03  0.25500000000E-02 0.  1.
          2   -1    0    0  501    0  0.00000000000E+00 -0.00000000000E+00 -0.13216203314E+04  0.13216203314E+04  0.25500000000E-02 0. -1.
    8880023    1    1    2    0    0 -0.10830563064E+03 -0.56180985196E+01 -0.10325904428E+04  0.12295588239E+04  0.65864270000E+03 0. -1.
    8880022    1    1    2    0    0  0.10830563064E+03  0.56180985196E+01 -0.14442378871E+03  0.23666760746E+03  0.15294330000E+03 0.  0.
<mgrwt>
<rscale>  0 0.48594819E+03</rscale>
<asrwt>0</asrwt>
<pdfrwt beam="1">  1        2 0.20332620E+00 0.66751171E+03</pdfrwt>
<pdfrwt beam="2">  1       -2 0.22247093E-01 0.66751171E+03</pdfrwt>
<totfact> 0.28853090E+02</totfact>
</mgrwt>
</event>
<event>
 4    1  0.3565372E-007  0.6668506E+03  0.7818608E-02  0.1018029E+00
         -2   -1    0    0    0  501 -0.00000000000E+00  0.00000000000E+00  0.22487665127E+03  0.22487665128E+03  0.25500000000E-02 0.  1.
          2   -1    0    0  501    0  0.00000000000E+00 -0.00000000000E+00 -0.15127108106E+04  0.15127108106E+04  0.25500000000E-02 0. -1.
    8880023    1    1    2    0    0 -0.48953727991E+02  0.92103221868E+02 -0.13785965560E+04  0.15314105072E+04  0.65864270000E+03 0. -1.
    8880022    1    1    2    0    0  0.48953727991E+02 -0.92103221868E+02  0.90762396725E+02  0.20617695467E+03  0.15294330000E+03 0.  0.
<mgrwt>
<rscale>  0 0.48404689E+03</rscale>
<asrwt>0</asrwt>
<pdfrwt beam="1">  1        2 0.23272473E+00 0.66685057E+03</pdfrwt>
<pdfrwt beam="2">  1       -2 0.34596409E-01 0.66685057E+03</pdfrwt>
<totfact> 0.10039564E+02</totfact>
</mgrwt>
</event>
<event>
 4    1  0.3565372E-007  0.1209459E+04  0.7818608E-02  0.9147982E-01
          2   -1    0    0  501    0  0.00000000000E+00  0.00000000000E+00  0.21446990656E+04  0.21446990656E+04  0.25500000000E-02 0. -1.
         -2   -1    0    0    0  501 -0.00000000000E+00 -0.00000000000E+00 -0.14097538168E+04  0.14097538168E+04  0.25500000000E-02 0.  1.
    8880023    1    1    2    0    0  0.80765407455E+03  0.61373889299E+03  0.17395104579E+04  0.21186522538E+04  0.65864270000E+03 0. -1.
    8880022    1    1    2    0    0 -0.80765407455E+03 -0.61373889299E+03 -0.10045652091E+04  0.14358006286E+04  0.15294330000E+03 0.  0.
<mgrwt>
<rscale>  0 0.11606853E+04</rscale>
<asrwt>0</asrwt>
<pdfrwt beam="1">  1        2 0.32995370E+00 0.12094589E+04</pdfrwt>
<pdfrwt beam="2">  1       -2 0.21688520E+00 0.12094589E+04</pdfrwt>
<totfact> 0.55731992E-01</totfact>
</mgrwt>
</event>
<event>
 4    1  0.3565372E-007  0.7235036E+03  0.7818608E-02  0.9910904E-01
          2   -1    0    0  501    0  0.00000000000E+00  0.00000000000E+00  0.81251386762E+03  0.81251386762E+03  0.25500000000E-02 0. -1.
         -2   -1    0    0    0  501 -0.00000000000E+00 -0.00000000000E+00 -0.19034423750E+04  0.19034423750E+04  0.25500000000E-02 0.  1.
    8880023    1    1    2    0    0 -0.14354224931E+03 -0.26276010640E+03  0.63191626768E+03  0.96061211031E+03  0.65864270000E+03 0. -1.
    8880022    1    1    2    0    0  0.14354224931E+03  0.26276010640E+03 -0.17228447750E+04  0.17553441323E+04  0.15294330000E+03 0.  0.
<mgrwt>
<rscale>  0 0.59735708E+03</rscale>
<asrwt>0</asrwt>
<pdfrwt beam="1">  1        2 0.12500213E+00 0.72350360E+03</pdfrwt>
<pdfrwt beam="2">  1       -2 0.29283729E+00 0.72350360E+03</pdfrwt>
<totfact> 0.12423270E+00</totfact>
</mgrwt>
</event>
<event>
 4    1  0.3565372E-007  0.1642727E+04  0.7818608E-02  0.8814918E-01
          2   -1    0    0  501    0  0.00000000000E+00  0.00000000000E+00  0.18829094297E+04  0.18829094297E+04  0.25500000000E-02 0. -1.
         -2   -1    0    0    0  501 -0.00000000000E+00 -0.00000000000E+00 -0.15302566719E+04  0.15302566719E+04  0.25500000000E-02 0.  1.
    8880023    1    1    2    0    0  0.47770701134E+03 -0.14270727533E+04  0.81178975484E+03  0.18323628036E+04  0.65864270000E+03 0.  0.
    8880022    1    1    2    0    0 -0.47770701134E+03  0.14270727533E+04 -0.45913699704E+03  0.15808032980E+04  0.15294330000E+03 0.  0.
<mgrwt>
<rscale>  0 0.16091966E+04</rscale>
<asrwt>0</asrwt>
<pdfrwt beam="1">  1        2 0.28967837E+00 0.16427266E+04</pdfrwt>
<pdfrwt beam="2">  1       -2 0.23542411E+00 0.16427266E+04</pdfrwt>
<totfact> 0.56780597E-01</totfact>
</mgrwt>
</event>
<event>
 4    1  0.3565372E-007  0.7564656E+03  0.7818608E-02  0.9814345E-01
          2   -1    0    0  501    0  0.00000000000E+00  0.00000000000E+00  0.21568101841E+03  0.21568101842E+03  0.25500000000E-02 0. -1.
         -2   -1    0    0    0  501 -0.00000000000E+00 -0.00000000000E+00 -0.22426144214E+04  0.22426144214E+04  0.25500000000E-02 0.  1.
    8880023    1    1    2    0    0 -0.33102591579E+03 -0.16985809288E+03 -0.57090615806E+03  0.94772041036E+03  0.65864270000E+03 0. -1.
    8880022    1    1    2    0    0  0.33102591579E+03  0.16985809288E+03 -0.14560272449E+04  0.15105750295E+04  0.15294330000E+03 0.  0.
<mgrwt>
<rscale>  0 0.64598350E+03</rscale>
<asrwt>0</asrwt>
<pdfrwt beam="1">  1        2 0.33181697E-01 0.75646555E+03</pdfrwt>
<pdfrwt beam="2">  1       -2 0.34501759E+00 0.75646555E+03</pdfrwt>
<totfact> 0.27862548E+00</totfact>
</mgrwt>
</event>
<event>
 4    1  0.3565372E-007  0.7665872E+03  0.7818608E-02  0.9788343E-01
         -2   -1    0    0    0  501 -0.00000000000E+00  0.00000000000E+00  0.21879032481E+03  0.21879032483E+03  0.25500000000E-02 0.  1.
          2   -1    0    0  501    0  0.00000000000E+00 -0.00000000000E+00 -0.23191366318E+04  0.23191366318E+04  0.25500000000E-02 0. -1.
    8880023    1    1    2    0    0 -0.92717374230E+02  0.38111572696E+03 -0.19425365940E+04  0.20883257251E+04  0.65864270000E+03 0.  0.
    8880022    1    1    2    0    0  0.92717374230E+02 -0.38111572696E+03 -0.15780971291E+03  0.44960123146E+03  0.15294330000E+03 0.  0.
<mgrwt>
<rscale>  0 0.65991892E+03</rscale>
<asrwt>0</asrwt>
<pdfrwt beam="1">  1        2 0.35679023E+00 0.76658719E+03</pdfrwt>
<pdfrwt beam="2">  1       -2 0.33660052E-01 0.76658719E+03</pdfrwt>
<totfact> 0.37792350E+01</totfact>
</mgrwt>
</event>
<event>
 4    1  0.3565372E-007  0.7535486E+03  0.7818608E-02  0.9822105E-01
          2   -1    0    0  501    0  0.00000000000E+00  0.00000000000E+00  0.13410385165E+04  0.13410385165E+04  0.25500000000E-02 0. -1.
         -2   -1    0    0    0  501 -0.00000000000E+00 -0.00000000000E+00 -0.54283792097E+03  0.54283792098E+03  0.25500000000E-02 0.  1.
    8880023    1    1    2    0    0  0.33829889572E+03 -0.13992571560E+03  0.11357226002E+04  0.13629751941E+04  0.65864270000E+03 0. -1.
    8880022    1    1    2    0    0 -0.33829889572E+03  0.13992571560E+03 -0.33752200469E+03  0.52090124342E+03  0.15294330000E+03 0.  0.
<mgrwt>
<rscale>  0 0.64189637E+03</rscale>
<asrwt>0</asrwt>
<pdfrwt beam="1">  1        2 0.20631361E+00 0.75354864E+03</pdfrwt>
<pdfrwt beam="2">  1       -2 0.83513528E-01 0.75354864E+03</pdfrwt>
<totfact> 0.20034971E+01</totfact>
</mgrwt>
</event>
<event>
 4    1  0.3565372E-007  0.7119761E+03  0.7818608E-02  0.9950735E-01
          2   -1    0    0  501    0  0.00000000000E+00  0.00000000000E+00  0.12789780566E+04  0.12789780566E+04  0.25500000000E-02 0. -1.
         -2   -1    0    0    0  501 -0.00000000000E+00 -0.00000000000E+00 -0.49958620296E+03  0.49958620297E+03  0.25500000000E-02 0.  1.
    8880023    1    1    2    0    0 -0.27036385565E+03  0.17672375635E+01  0.11139445799E+04  0.13220372426E+04  0.65864270000E+03 0. -1.
    8880022    1    1    2    0    0  0.27036385565E+03 -0.17672375635E+01 -0.33455272623E+03  0.45652701696E+03  0.15294330000E+03 0.  0.
<mgrwt>
<rscale>  0 0.57864223E+03</rscale>
<asrwt>0</asrwt>
<pdfrwt beam="1">  1        2 0.19676585E+00 0.71197608E+03</pdfrwt>
<pdfrwt beam="2">  1       -2 0.76859417E-01 0.71197608E+03</pdfrwt>
<totfact> 0.26341489E+01</totfact>
</mgrwt>
</event>
<event>
 4    1  0.3565372E-007  0.6872483E+03  0.7818608E-02  0.1005489E+00
          2   -1    0    0  501    0  0.00000000000E+00  0.00000000000E+00  0.91836368807E+03  0.91836368807E+03  0.25500000000E-02 0. -1.
         -2   -1    0    0    0  501 -0.00000000000E+00 -0.00000000000E+00 -0.34657565005E+03  0.34657565006E+03  0.25500000000E-02 0.  1.
    8880023    1    1    2    0    0 -0.69304662619E+02  0.18356715976E+03  0.70347388846E+03  0.98345602668E+03  0.65864270000E+03 0.  0.
    8880022    1    1    2    0    0  0.69304662619E+02 -0.18356715976E+03 -0.13168585044E+03  0.28148331145E+03  0.15294330000E+03 0.  0.
<mgrwt>
<rscale>  0 0.53307622E+03</rscale>
<asrwt>0</asrwt>
<pdfrwt beam="1">  1        2 0.14128672E+00 0.68724831E+03</pdfrwt>
<pdfrwt beam="2">  1       -2 0.53319331E-01 0.68724831E+03</pdfrwt>
<totfact> 0.96181132E+01</totfact>
</mgrwt>
</event>
<event>
 4    1  0.3565372E-007  0.7384071E+03  0.7818608E-02  0.9864612E-01
          2   -1    0    0  501    0  0.00000000000E+00  0.00000000000E+00  0.39637846736E+04  0.39637846736E+04  0.25500000000E-02 0. -1.
         -2   -1    0    0    0  501 -0.00000000000E+00 -0.00000000000E+00 -0.48309256257E+03  0.48309256257E+03  0.25500000000E-02 0.  1.
    8880023    1    1    2    0    0  0.13795274888E+03 -0.30398003993E+03  0.38534985828E+04  0.39236075696E+04  0.65864270000E+03 0. -1.
    8880022    1    1    2    0    0 -0.13795274888E+03  0.30398003993E+03 -0.37280647180E+03  0.52326966664E+03  0.15294330000E+03 0.  0.
<mgrwt>
<rscale>  0 0.62007439E+03</rscale>
<asrwt>0</asrwt>
<pdfrwt beam="1">  1        2 0.60981302E+00 0.73840709E+03</pdfrwt>
<pdfrwt beam="2">  1       -2 0.74321934E-01 0.73840709E+03</pdfrwt>
<totfact> 0.66460098E-01</totfact>
</mgrwt>
</event>
<event>
 4    1  0.3565372E-007  0.7257229E+03  0.7818608E-02  0.9903677E-01
          2   -1    0    0  501    0  0.00000000000E+00  0.00000000000E+00  0.13201212246E+04  0.13201212246E+04  0.25500000000E-02 0. -1.
         -2   -1    0    0    0  501 -0.00000000000E+00 -0.00000000000E+00 -0.77385247164E+03  0.77385247165E+03  0.25500000000E-02 0.  1.
    8880023    1    1    2    0    0 -0.82801357110E+02 -0.29327029056E+03  0.11736648775E+04  0.13799141201E+04  0.65864270000E+03 0. -1.
    8880022    1    1    2    0    0  0.82801357110E+02  0.29327029056E+03 -0.62739612456E+03  0.71405957608E+03  0.15294330000E+03 0.  0.
<mgrwt>
<rscale>  0 0.60083422E+03</rscale>
<asrwt>0</asrwt>
<pdfrwt beam="1">  1        2 0.20309557E+00 0.72572290E+03</pdfrwt>
<pdfrwt beam="2">  1       -2 0.11905423E+00 0.72572290E+03</pdfrwt>
<totfact> 0.89324705E+00</totfact>
</mgrwt>
</event>
<event>
 4    1  0.3565372E-007  0.1051903E+04  0.7818608E-02  0.9316597E-01
         -2   -1    0    0    0  501 -0.00000000000E+00  0.00000000000E+00  0.84899493431E+03  0.84899493431E+03  0.25500000000E-02 0.  1.
          2   -1    0    0  501    0  0.00000000000E+00 -0.00000000000E+00 -0.19456160859E+04  0.19456160859E+04  0.25500000000E-02 0. -1.
    8880023    1    1    2    0    0 -0.32431050679E+03  0.75333435537E+03 -0.15282357388E+04  0.18552640339E+04  0.65864270000E+03 0.  0.
    8880022    1    1    2    0    0  0.32431050679E+03 -0.75333435537E+03  0.43161458722E+03  0.93934698632E+03  0.15294330000E+03 0.  0.
<mgrwt>
<rscale>  0 0.99269155E+03</rscale>
<asrwt>0</asrwt>
<pdfrwt beam="1">  1        2 0.29932555E+00 0.10519031E+04</pdfrwt>
<pdfrwt beam="2">  1       -2 0.13061461E+00 0.10519031E+04</pdfrwt>
<totfact> 0.30470785E+00</totfact>
</mgrwt>
</event>
<event>
 4    1  0.3565372E-007  0.7009661E+03  0.7818608E-02  0.9993217E-01
          2   -1    0    0  501    0  0.00000000000E+00  0.00000000000E+00  0.10605204614E+04  0.10605204614E+04  0.25500000000E-02 0. -1.
         -2   -1    0    0    0  501 -0.00000000000E+00 -0.00000000000E+00 -0.25665563152E+03  0.25665563154E+03  0.25500000000E-02 0.  1.
    8880023    1    1    2    0    0 -0.23595213755E+03  0.43241367172E+02  0.35496207860E+03  0.78571719503E+03  0.65864270000E+03 0.  1.
    8880022    1    1    2    0    0  0.23595213755E+03 -0.43241367172E+02  0.44890275126E+03  0.53145889790E+03  0.15294330000E+03 0. -1.
<mgrwt>
<rscale>  0 0.55948663E+03</rscale>
<asrwt>0</asrwt>
<pdfrwt beam="1">  1        2 0.16315699E+00 0.70096607E+03</pdfrwt>
<pdfrwt beam="2">  1       -2 0.39485483E-01 0.70096607E+03</pdfrwt>
<totfact> 0.14206408E+02</totfact>
</mgrwt>
</event>
<event>
 4    1  0.3565372E-007  0.7587611E+03  0.7818608E-02  0.9808325E-01
         -2   -1    0    0    0  501 -0.00000000000E+00  0.00000000000E+00  0.54760548474E+03  0.54760548474E+03  0.25500000000E-02 0.  1.
          2   -1    0    0  501    0  0.00000000000E+00 -0.00000000000E+00 -0.12901769753E+04  0.12901769753E+04  0.25500000000E-02 0. -1.
    8880023    1    1    2    0    0 -0.17610964878E+03 -0.33300690451E+03 -0.10727923908E+04  0.13140022553E+04  0.65864270000E+03 0.  0.
    8880022    1    1    2    0    0  0.17610964878E+03  0.33300690451E+03  0.33022090029E+03  0.52378020472E+03  0.15294330000E+03 0.  0.
<mgrwt>
<rscale>  0 0.64917660E+03</rscale>
<asrwt>0</asrwt>
<pdfrwt beam="1">  1        2 0.19848876E+00 0.75876110E+03</pdfrwt>
<pdfrwt beam="2">  1       -2 0.84246998E-01 0.75876110E+03</pdfrwt>
<totfact> 0.20996576E+01</totfact>
</mgrwt>
</event>
<event>
 4    1  0.3565372E-007  0.9348447E+03  0.7818608E-02  0.9472263E-01
          2   -1    0    0  501    0  0.00000000000E+00  0.00000000000E+00  0.31053925144E+04  0.31053925144E+04  0.25500000000E-02 0. -1.
         -2   -1    0    0    0  501 -0.00000000000E+00 -0.00000000000E+00 -0.24143086854E+03  0.24143086855E+03  0.25500000000E-02 0.  1.
    8880023    1    1    2    0    0 -0.27381541481E+03  0.60427610361E+03  0.22237984502E+04  0.24123047578E+04  0.65864270000E+03 0.  1.
    8880022    1    1    2    0    0  0.27381541481E+03 -0.60427610361E+03  0.64016319562E+03  0.93451862519E+03  0.15294330000E+03 0.  0.
<mgrwt>
<rscale>  0 0.86360018E+03</rscale>
<asrwt>0</asrwt>
<pdfrwt beam="1">  1        2 0.47775273E+00 0.93484474E+03</pdfrwt>
<pdfrwt beam="2">  1       -2 0.37143208E-01 0.93484474E+03</pdfrwt>
<totfact> 0.10556069E+01</totfact>
</mgrwt>
</event>
<event>
 4    1  0.3565372E-007  0.8713126E+03  0.7818608E-02  0.9573749E-01
         -2   -1    0    0    0  501 -0.00000000000E+00  0.00000000000E+00  0.59750489795E+03  0.59750489796E+03  0.25500000000E-02 0.  1.
          2   -1    0    0  501    0  0.00000000000E+00 -0.00000000000E+00 -0.11039639837E+04  0.11039639837E+04  0.25500000000E-02 0. -1.
    8880023    1    1    2    0    0 -0.45427416194E+03  0.34497886992E+03 -0.65789984393E+03  0.10917956978E+04  0.65864270000E+03 0. -1.
    8880022    1    1    2    0    0  0.45427416194E+03 -0.34497886992E+03  0.15144075814E+03  0.60967318387E+03  0.15294330000E+03 0.  0.
<mgrwt>
<rscale>  0 0.79058293E+03</rscale>
<asrwt>0</asrwt>
<pdfrwt beam="1">  1        2 0.16984061E+00 0.87131260E+03</pdfrwt>
<pdfrwt beam="2">  1       -2 0.91923831E-01 0.87131260E+03</pdfrwt>
<totfact> 0.21922352E+01</totfact>
</mgrwt>
</event>
<event>
 4    1  0.3565372E-007  0.8810356E+03  0.7818608E-02  0.9557188E-01
          2   -1    0    0  501    0  0.00000000000E+00  0.00000000000E+00  0.12454648563E+04  0.12454648563E+04  0.25500000000E-02 0. -1.
         -2   -1    0    0    0  501 -0.00000000000E+00 -0.00000000000E+00 -0.52833115569E+03  0.52833115570E+03  0.25500000000E-02 0.  1.
    8880023    1    1    2    0    0  0.58196496695E+03  0.61076020599E+02  0.76537450601E+03  0.11670569154E+04  0.65864270000E+03 0.  0.
    8880022    1    1    2    0    0 -0.58196496695E+03 -0.61076020599E+02 -0.48240805379E+02  0.60673909662E+03  0.15294330000E+03 0.  0.
<mgrwt>
<rscale>  0 0.80195743E+03</rscale>
<asrwt>0</asrwt>
<pdfrwt beam="1">  1        2 0.19160998E+00 0.88103559E+03</pdfrwt>
<pdfrwt beam="2">  1       -2 0.81281716E-01 0.88103559E+03</pdfrwt>
<totfact> 0.23881109E+01</totfact>
</mgrwt>
</event>
<event>
 4    1  0.3565372E-007  0.1273877E+04  0.7818608E-02  0.9088453E-01
          2   -1    0    0  501    0  0.00000000000E+00  0.00000000000E+00  0.19806311008E+04  0.19806311008E+04  0.25500000000E-02 0. -1.
         -2   -1    0    0    0  501 -0.00000000000E+00 -0.00000000000E+00 -0.11902523754E+04  0.11902523754E+04  0.25500000000E-02 0.  1.
    8880023    1    1    2    0    0  0.10791433467E+04 -0.15621466415E+03  0.14158452761E+04  0.19045685695E+04  0.65864270000E+03 0.  0.
    8880022    1    1    2    0    0 -0.10791433467E+04  0.15621466415E+03 -0.62546655061E+03  0.12663149067E+04  0.15294330000E+03 0.  0.
<mgrwt>
<rscale>  0 0.12282846E+04</rscale>
<asrwt>0</asrwt>
<pdfrwt beam="1">  1        2 0.30471247E+00 0.12738774E+04</pdfrwt>
<pdfrwt beam="2">  1       -2 0.18311575E+00 0.12738774E+04</pdfrwt>
<totfact> 0.11384904E+00</totfact>
</mgrwt>
</event>
<event>
 4    1  0.3565372E-007  0.1111933E+04  0.7818608E-02  0.9247885E-01
          2   -1    0    0  501    0  0.00000000000E+00  0.00000000000E+00  0.33306857286E+04  0.33306857286E+04  0.25500000000E-02 0. -1.
         -2   -1    0    0    0  501 -0.00000000000E+00 -0.00000000000E+00 -0.85728025752E+03  0.85728025752E+03  0.25500000000E-02 0.  1.
    8880023    1    1    2    0    0  0.89100146920E+03  0.93281112490E+02 -0.39423612135E+03  0.11797530715E+04  0.65864270000E+03 0.  0.
    8880022    1    1    2    0    0 -0.89100146920E+03 -0.93281112490E+02  0.28676415925E+04  0.30082129146E+04  0.15294330000E+03 0.  0.
<mgrwt>
<rscale>  0 0.10572555E+04</rscale>
<asrwt>0</asrwt>
<pdfrwt beam="1">  1        2 0.51241318E+00 0.11119331E+04</pdfrwt>
<pdfrwt beam="2">  1       -2 0.13188927E+00 0.11119331E+04</pdfrwt>
<totfact> 0.44771843E-01</totfact>
</mgrwt>
</event>
<event>
 4    1  0.3565372E-007  0.7542249E+03  0.7818608E-02  0.9820295E-01
          2   -1    0    0  501    0  0.00000000000E+00  0.00000000000E+00  0.13575004237E+04  0.13575004237E+04  0.25500000000E-02 0. -1.
         -2   -1    0    0    0  501 -0.00000000000E+00 -0.00000000000E+00 -0.46146354083E+03  0.46146354083E+03  0.25500000000E-02 0.  1.
    8880023    1    1    2    0    0 -0.33492069049E+03 -0.15123841822E+03  0.11290050003E+04  0.13577582351E+04  0.65864270000E+03 0. -1.
    8880022    1    1    2    0    0  0.33492069049E+03  0.15123841822E+03 -0.23296811745E+03  0.46120572940E+03  0.15294330000E+03 0.  0.
<mgrwt>
<rscale>  0 0.64284691E+03</rscale>
<asrwt>0</asrwt>
<pdfrwt beam="1">  1        2 0.20884622E+00 0.75422486E+03</pdfrwt>
<pdfrwt beam="2">  1       -2 0.70994392E-01 0.75422486E+03</pdfrwt>
<totfact> 0.28160113E+01</totfact>
</mgrwt>
</event>
<event>
 4    1  0.3565372E-007  0.8328510E+03  0.7818608E-02  0.9643811E-01
          2   -1    0    0  501    0  0.00000000000E+00  0.00000000000E+00  0.16140982232E+04  0.16140982232E+04  0.25500000000E-02 0. -1.
         -2   -1    0    0    0  501 -0.00000000000E+00 -0.00000000000E+00 -0.31985526754E+03  0.31985526755E+03  0.25500000000E-02 0.  1.
    8880023    1    1    2    0    0 -0.38003332221E+03  0.33971343063E+03  0.10713054564E+04  0.13569584106E+04  0.65864270000E+03 0.  0.
    8880022    1    1    2    0    0  0.38003332221E+03 -0.33971343063E+03  0.22293749929E+03  0.57699508017E+03  0.15294330000E+03 0.  0.
<mgrwt>
<rscale>  0 0.74463147E+03</rscale>
<asrwt>0</asrwt>
<pdfrwt beam="1">  1        2 0.24832280E+00 0.83285098E+03</pdfrwt>
<pdfrwt beam="2">  1       -2 0.49208503E-01 0.83285098E+03</pdfrwt>
<totfact> 0.43459493E+01</totfact>
</mgrwt>
</event>
<event>
 4    1  0.3565372E-007  0.6768768E+03  0.7818608E-02  0.1011148E+00
          2   -1    0    0  501    0  0.00000000000E+00  0.00000000000E+00  0.46495279222E+03  0.46495279222E+03  0.25500000000E-02 0. -1.
         -2   -1    0    0    0  501 -0.00000000000E+00 -0.00000000000E+00 -0.13572666269E+04  0.13572666269E+04  0.25500000000E-02 0.  1.
    8880023    1    1    2    0    0  0.12296352571E+03 -0.96083128669E+02  0.20194391378E+03  0.70635936098E+03  0.65864270000E+03 0. -1.
    8880022    1    1    2    0    0 -0.12296352571E+03  0.96083128669E+02 -0.10942577485E+04  0.11158600582E+04  0.15294330000E+03 0.  0.
<mgrwt>
<rscale>  0 0.51020731E+03</rscale>
<asrwt>0</asrwt>
<pdfrwt beam="1">  1        2 0.71531199E-01 0.67687680E+03</pdfrwt>
<pdfrwt beam="2">  1       -2 0.20881025E+00 0.67687680E+03</pdfrwt>
<totfact> 0.80363651E+00</totfact>
</mgrwt>
</event>
<event>
 4    1  0.3565372E-007  0.9225778E+03  0.7818608E-02  0.9490718E-01
         -2   -1    0    0    0  501 -0.00000000000E+00  0.00000000000E+00  0.17506600374E+04  0.17506600374E+04  0.25500000000E-02 0.  1.
          2   -1    0    0  501    0  0.00000000000E+00 -0.00000000000E+00 -0.55622149300E+03  0.55622149301E+03  0.25500000000E-02 0. -1.
    8880023    1    1    2    0    0 -0.53844926937E+03  0.35694810615E+03 -0.20042019537E+02  0.92279545674E+03  0.65864270000E+03 0. -1.
    8880022    1    1    2    0    0  0.53844926937E+03 -0.35694810615E+03  0.12144805640E+04  0.13840860737E+04  0.15294330000E+03 0.  0.
<mgrwt>
<rscale>  0 0.84971634E+03</rscale>
<asrwt>0</asrwt>
<pdfrwt beam="1">  1        2 0.85572539E-01 0.92257779E+03</pdfrwt>
<pdfrwt beam="2">  1       -2 0.26933231E+00 0.92257779E+03</pdfrwt>
<totfact> 0.26864652E+00</totfact>
</mgrwt>
</event>
<event>
 4    1  0.3565372E-007  0.8627271E+03  0.7818608E-02  0.9588731E-01
         -2   -1    0    0    0  501 -0.00000000000E+00  0.00000000000E+00  0.54192938014E+03  0.54192938015E+03  0.25500000000E-02 0.  1.
          2   -1    0    0  501    0  0.00000000000E+00 -0.00000000000E+00 -0.20212696498E+04  0.20212696498E+04  0.25500000000E-02 0. -1.
    8880023    1    1    2    0    0 -0.50040621922E+03  0.24511528215E+03 -0.17301288214E+04  0.19332986915E+04  0.65864270000E+03 0. -1.
    8880022    1    1    2    0    0  0.50040621922E+03 -0.24511528215E+03  0.25078855166E+03  0.62990033850E+03  0.15294330000E+03 0.  0.
<mgrwt>
<rscale>  0 0.78046569E+03</rscale>
<asrwt>0</asrwt>
<pdfrwt beam="1">  1        2 0.31096456E+00 0.86272712E+03</pdfrwt>
<pdfrwt beam="2">  1       -2 0.83373752E-01 0.86272712E+03</pdfrwt>
<totfact> 0.83438786E+00</totfact>
</mgrwt>
</event>
<event>
 4    1  0.3565372E-007  0.1010305E+04  0.7818608E-02  0.9368198E-01
          2   -1    0    0  501    0  0.00000000000E+00  0.00000000000E+00  0.14020564749E+04  0.14020564749E+04  0.25500000000E-02 0. -1.
         -2   -1    0    0    0  501 -0.00000000000E+00 -0.00000000000E+00 -0.79019278585E+03  0.79019278585E+03  0.25500000000E-02 0.  1.
    8880023    1    1    2    0    0 -0.30918794577E+03 -0.70093434214E+03  0.90644824275E+03  0.13573373792E+04  0.65864270000E+03 0. -1.
    8880022    1    1    2    0    0  0.30918794577E+03  0.70093434214E+03 -0.29458455367E+03  0.83491188162E+03  0.15294330000E+03 0.  0.
<mgrwt>
<rscale>  0 0.94739726E+03</rscale>
<asrwt>0</asrwt>
<pdfrwt beam="1">  1        2 0.21570100E+00 0.10103051E+04</pdfrwt>
<pdfrwt beam="2">  1       -2 0.12156812E+00 0.10103051E+04</pdfrwt>
<totfact> 0.73619467E+00</totfact>
</mgrwt>
</event>
<event>
 4    1  0.3565372E-007  0.7268007E+03  0.7818608E-02  0.9900212E-01
          2   -1    0    0  501    0  0.00000000000E+00  0.00000000000E+00  0.95133669781E+03  0.95133669781E+03  0.25500000000E-02 0. -1.
         -2   -1    0    0    0  501 -0.00000000000E+00 -0.00000000000E+00 -0.52824200875E+03  0.52824200876E+03  0.25500000000E-02 0.  1.
    8880023    1    1    2    0    0  0.30187796259E+03 -0.57434868246E+02  0.72197233651E+03  0.10244429361E+04  0.65864270000E+03 0. -1.
    8880022    1    1    2    0    0 -0.30187796259E+03  0.57434868246E+02 -0.29887764745E+03  0.45513577046E+03  0.15294330000E+03 0.  0.
<mgrwt>
<rscale>  0 0.60250994E+03</rscale>
<asrwt>0</asrwt>
<pdfrwt beam="1">  1        2 0.14635949E+00 0.72680071E+03</pdfrwt>
<pdfrwt beam="2">  1       -2 0.81268002E-01 0.72680071E+03</pdfrwt>
<totfact> 0.36783406E+01</totfact>
</mgrwt>
</event>
<event>
 4    1  0.3565372E-007  0.9513638E+03  0.7818608E-02  0.9448155E-01
          2   -1    0    0  501    0  0.00000000000E+00  0.00000000000E+00  0.10556211875E+04  0.10556211875E+04  0.25500000000E-02 0. -1.
         -2   -1    0    0    0  501 -0.00000000000E+00 -0.00000000000E+00 -0.17202839721E+04  0.17202839721E+04  0.25500000000E-02 0.  1.
    8880023    1    1    2    0    0 -0.64916077768E+03  0.22332307406E+03 -0.14420313996E+04  0.17275843465E+04  0.65864270000E+03 0.  0.
    8880022    1    1    2    0    0  0.64916077768E+03 -0.22332307406E+03  0.77736861493E+03  0.10483208131E+04  0.15294330000E+03 0.  0.
<mgrwt>
<rscale>  0 0.88216520E+03</rscale>
<asrwt>0</asrwt>
<pdfrwt beam="1">  1        2 0.16240326E+00 0.95136382E+03</pdfrwt>
<pdfrwt beam="2">  1       -2 0.26465907E+00 0.95136382E+03</pdfrwt>
<totfact> 0.12197260E+00</totfact>
</mgrwt>
</event>
<event>
 4    1  0.3565372E-007  0.7612880E+03  0.7818608E-02  0.9801784E-01
          2   -1    0    0  501    0  0.00000000000E+00  0.00000000000E+00  0.10152278339E+04  0.10152278339E+04  0.25500000000E-02 0. -1.
         -2   -1    0    0    0  501 -0.00000000000E+00 -0.00000000000E+00 -0.76088682042E+03  0.76088682043E+03  0.25500000000E-02 0.  1.
    8880023    1    1    2    0    0 -0.37614055647E+03  0.65325811129E+02  0.79242330510E+03  0.10988603553E+04  0.65864270000E+03 0. -1.
    8880022    1    1    2    0    0  0.37614055647E+03 -0.65325811129E+02 -0.53808229166E+03  0.67725429895E+03  0.15294330000E+03 0.  0.
<mgrwt>
<rscale>  0 0.65266870E+03</rscale>
<asrwt>0</asrwt>
<pdfrwt beam="1">  1        2 0.15618890E+00 0.76128798E+03</pdfrwt>
<pdfrwt beam="2">  1       -2 0.11705951E+00 0.76128798E+03</pdfrwt>
<totfact> 0.14123844E+01</totfact>
</mgrwt>
</event>
<event>
 4    1  0.3565372E-007  0.1008539E+04  0.7818608E-02  0.9370471E-01
          2   -1    0    0  501    0  0.00000000000E+00  0.00000000000E+00  0.22320913186E+04  0.22320913186E+04  0.25500000000E-02 0. -1.
         -2   -1    0    0    0  501 -0.00000000000E+00 -0.00000000000E+00 -0.42477803062E+03  0.42477803063E+03  0.25500000000E-02 0.  1.
    8880023    1    1    2    0    0  0.69484054310E+03  0.31707478603E+03  0.15250639317E+04  0.18283790642E+04  0.65864270000E+03 0.  0.
    8880022    1    1    2    0    0 -0.69484054310E+03 -0.31707478603E+03  0.28224935625E+03  0.82849028503E+03  0.15294330000E+03 0.  0.
<mgrwt>
<rscale>  0 0.94546170E+03</rscale>
<asrwt>0</asrwt>
<pdfrwt beam="1">  1        2 0.34339866E+00 0.10085385E+04</pdfrwt>
<pdfrwt beam="2">  1       -2 0.65350467E-01 0.10085385E+04</pdfrwt>
<totfact> 0.10749920E+01</totfact>
</mgrwt>
</event>
<event>
 4    1  0.3565372E-007  0.6775324E+03  0.7818608E-02  0.1010755E+00
          2   -1    0    0  501    0  0.00000000000E+00  0.00000000000E+00  0.15353706828E+04  0.15353706828E+04  0.25500000000E-02 0. -1.
         -2   -1    0    0    0  501 -0.00000000000E+00 -0.00000000000E+00 -0.14657738695E+03  0.14657738697E+03  0.25500000000E-02 0.  1.
    8880023    1    1    2    0    0  0.18087363832E+02  0.15783779664E+03  0.12487490449E+04  0.14207126051E+04  0.65864270000E+03 0. -1.
    8880022    1    1    2    0    0 -0.18087363832E+02 -0.15783779664E+03  0.14004425094E+03  0.26123546469E+03  0.15294330000E+03 0.  0.
<mgrwt>
<rscale>  0 0.51175528E+03</rscale>
<asrwt>0</asrwt>
<pdfrwt beam="1">  1        2 0.23621088E+00 0.67753238E+03</pdfrwt>
<pdfrwt beam="2">  1       -2 0.22550367E-01 0.67753238E+03</pdfrwt>
<totfact> 0.21355146E+02</totfact>
</mgrwt>
</event>
<event>
 4    1  0.3565372E-007  0.7341482E+03  0.7818608E-02  0.9877333E-01
          2   -1    0    0  501    0  0.00000000000E+00  0.00000000000E+00  0.25305322851E+04  0.25305322851E+04  0.25500000000E-02 0. -1.
         -2   -1    0    0    0  501 -0.00000000000E+00 -0.00000000000E+00 -0.21627448064E+03  0.21627448065E+03  0.25500000000E-02 0.  1.
    8880023    1    1    2    0    0  0.17512502864E+03 -0.27293691870E+03  0.22697286192E+04  0.23855065601E+04  0.65864270000E+03 0. -1.
    8880022    1    1    2    0    0 -0.17512502864E+03  0.27293691870E+03  0.44529185270E+02  0.36130020565E+03  0.15294330000E+03 0.  0.
<mgrwt>
<rscale>  0 0.61372514E+03</rscale>
<asrwt>0</asrwt>
<pdfrwt beam="1">  1        2 0.38931265E+00 0.73414818E+03</pdfrwt>
<pdfrwt beam="2">  1       -2 0.33272998E-01 0.73414818E+03</pdfrwt>
<totfact> 0.29509432E+01</totfact>
</mgrwt>
</event>
<event>
 4    1  0.3565372E-007  0.6816162E+03  0.7818608E-02  0.1008424E+00
          2   -1    0    0  501    0  0.00000000000E+00  0.00000000000E+00  0.37202069271E+03  0.37202069272E+03  0.25500000000E-02 0. -1.
         -2   -1    0    0    0  501 -0.00000000000E+00 -0.00000000000E+00 -0.21119583727E+04  0.21119583727E+04  0.25500000000E-02 0.  1.
    8880023    1    1    2    0    0  0.14791839918E+03 -0.94395901193E+02  0.45782341055E+02  0.68315200943E+03  0.65864270000E+03 0. -1.
    8880022    1    1    2    0    0 -0.14791839918E+03  0.94395901193E+02 -0.17857200211E+04  0.18008270560E+04  0.15294330000E+03 0.  0.
<mgrwt>
<rscale>  0 0.52105900E+03</rscale>
<asrwt>0</asrwt>
<pdfrwt beam="1">  1        2 0.57233954E-01 0.68161620E+03</pdfrwt>
<pdfrwt beam="2">  1       -2 0.32491667E+00 0.68161620E+03</pdfrwt>
<totfact> 0.20391097E+00</totfact>
</mgrwt>
</event>
<event>
 4    1  0.3565372E-007  0.6918098E+03  0.7818608E-02  0.1003304E+00
         -2   -1    0    0    0  501 -0.00000000000E+00  0.00000000000E+00  0.23444692510E+03  0.23444692511E+03  0.25500000000E-02 0.  1.
          2   -1    0    0  501    0  0.00000000000E+00 -0.00000000000E+00 -0.25318912389E+04  0.25318912389E+04  0.25500000000E-02 0. -1.
    8880023    1    1    2    0    0 -0.11993091676E+03 -0.17437646553E+03 -0.23909185407E+04  0.24889942247E+04  0.65864270000E+03 0. -1.
    8880022    1    1    2    0    0  0.11993091676E+03  0.17437646553E+03  0.93474226880E+02  0.27734393924E+03  0.15294330000E+03 0.  0.
<mgrwt>
<rscale>  0 0.54224921E+03</rscale>
<asrwt>0</asrwt>
<pdfrwt beam="1">  1        2 0.38952171E+00 0.69180979E+03</pdfrwt>
<pdfrwt beam="2">  1       -2 0.36068760E-01 0.69180979E+03</pdfrwt>
<totfact> 0.25438353E+01</totfact>
</mgrwt>
</event>
<event>
 4    1  0.3565372E-007  0.8373775E+03  0.7818608E-02  0.9635145E-01
         -2   -1    0    0    0  501 -0.00000000000E+00  0.00000000000E+00  0.44440244177E+03  0.44440244178E+03  0.25500000000E-02 0.  1.
          2   -1    0    0  501    0  0.00000000000E+00 -0.00000000000E+00 -0.22571521157E+04  0.22571521157E+04  0.25500000000E-02 0. -1.
    8880023    1    1    2    0    0  0.31679178617E+03 -0.40869781786E+03 -0.19693892480E+04  0.21400222332E+04  0.65864270000E+03 0. -1.
    8880022    1    1    2    0    0 -0.31679178617E+03  0.40869781786E+03  0.15663957403E+03  0.56153232434E+03  0.15294330000E+03 0.  0.
<mgrwt>
<rscale>  0 0.75013086E+03</rscale>
<asrwt>0</asrwt>
<pdfrwt beam="1">  1        2 0.34725416E+00 0.83737754E+03</pdfrwt>
<pdfrwt beam="2">  1       -2 0.68369608E-01 0.83737754E+03</pdfrwt>
<totfact> 0.96479133E+00</totfact>
</mgrwt>
</event>
<event>
 4    1  0.3565372E-007  0.9347877E+03  0.7818608E-02  0.9472348E-01
          2   -1    0    0  501    0  0.00000000000E+00  0.00000000000E+00  0.24328577804E+04  0.24328577804E+04  0.25500000000E-02 0. -1.
         -2   -1    0    0    0  501 -0.00000000000E+00 -0.00000000000E+00 -0.31595305516E+03  0.31595305517E+03  0.25500000000E-02 0.  1.
    8880023    1    1    2    0    0 -0.44025820492E+03  0.49617586071E+03  0.17284435802E+04  0.19650305819E+04  0.65864270000E+03 0.  0.
    8880022    1    1    2    0    0  0.44025820492E+03 -0.49617586071E+03  0.38846114504E+03  0.78378025363E+03  0.15294330000E+03 0.  0.
<mgrwt>
<rscale>  0 0.86353578E+03</rscale>
<asrwt>0</asrwt>
<pdfrwt beam="1">  1        2 0.37428581E+00 0.93478766E+03</pdfrwt>
<pdfrwt beam="2">  1       -2 0.48608163E-01 0.93478766E+03</pdfrwt>
<totfact> 0.15544239E+01</totfact>
</mgrwt>
</event>
<event>
 4    1  0.3565372E-007  0.7864528E+03  0.7818608E-02  0.9740892E-01
          2   -1    0    0  501    0  0.00000000000E+00  0.00000000000E+00  0.73723823976E+03  0.73723823976E+03  0.25500000000E-02 0. -1.
         -2   -1    0    0    0  501 -0.00000000000E+00 -0.00000000000E+00 -0.83110681282E+03  0.83110681283E+03  0.25500000000E-02 0.  1.
    8880023    1    1    2    0    0  0.27120857632E+03  0.33338222633E+03  0.41145249028E+03  0.88758163496E+03  0.65864270000E+03 0. -1.
    8880022    1    1    2    0    0 -0.27120857632E+03 -0.33338222633E+03 -0.50532106334E+03  0.68076341763E+03  0.15294330000E+03 0.  0.
<mgrwt>
<rscale>  0 0.68633438E+03</rscale>
<asrwt>0</asrwt>
<pdfrwt beam="1">  1        2 0.11342127E+00 0.78645280E+03</pdfrwt>
<pdfrwt beam="2">  1       -2 0.12786259E+00 0.78645280E+03</pdfrwt>
<totfact> 0.17554105E+01</totfact>
</mgrwt>
</event>
<event>
 4    1  0.3565372E-007  0.7747398E+03  0.7818608E-02  0.9768341E-01
          2   -1    0    0  501    0  0.00000000000E+00  0.00000000000E+00  0.32361471656E+04  0.32361471656E+04  0.25500000000E-02 0. -1.
         -2   -1    0    0    0  501 -0.00000000000E+00 -0.00000000000E+00 -0.18663250945E+03  0.18663250946E+03  0.25500000000E-02 0.  1.
    8880023    1    1    2    0    0  0.29279834266E+03  0.28404355911E+03  0.28315645063E+04  0.29356395168E+04  0.65864270000E+03 0.  0.
    8880022    1    1    2    0    0 -0.29279834266E+03 -0.28404355911E+03  0.21795014979E+03  0.48714015822E+03  0.15294330000E+03 0.  0.
<mgrwt>
<rscale>  0 0.67089550E+03</rscale>
<asrwt>0</asrwt>
<pdfrwt beam="1">  1        2 0.49786879E+00 0.77473984E+03</pdfrwt>
<pdfrwt beam="2">  1       -2 0.28712694E-01 0.77473984E+03</pdfrwt>
<totfact> 0.14530165E+01</totfact>
</mgrwt>
</event>
<event>
 4    1  0.3565372E-007  0.1038680E+04  0.7818608E-02  0.9332616E-01
         -2   -1    0    0    0  501 -0.00000000000E+00  0.00000000000E+00  0.46584090091E+03  0.46584090092E+03  0.25500000000E-02 0.  1.
          2   -1    0    0  501    0  0.00000000000E+00 -0.00000000000E+00 -0.34575745117E+04  0.34575745117E+04  0.25500000000E-02 0. -1.
    8880023    1    1    2    0    0 -0.71836904638E+03  0.35915291290E+03 -0.29240362992E+04  0.31030377675E+04  0.65864270000E+03 0. -1.
    8880022    1    1    2    0    0  0.71836904638E+03 -0.35915291290E+03 -0.67697311680E+02  0.82037764515E+03  0.15294330000E+03 0.  0.
<mgrwt>
<rscale>  0 0.97834875E+03</rscale>
<asrwt>0</asrwt>
<pdfrwt beam="1">  1        2 0.53193453E+00 0.10386795E+04</pdfrwt>
<pdfrwt beam="2">  1       -2 0.71667833E-01 0.10386795E+04</pdfrwt>
<totfact> 0.15793561E+00</totfact>
</mgrwt>
</event>
<event>
 4    1  0.3565372E-007  0.7437349E+03  0.7818608E-02  0.9849198E-01
          2   -1    0    0  501    0  0.00000000000E+00  0.00000000000E+00  0.67111300240E+03  0.67111300241E+03  0.25500000000E-02 0. -1.
         -2   -1    0    0    0  501 -0.00000000000E+00 -0.00000000000E+00 -0.66301529028E+03  0.66301529028E+03  0.25500000000E-02 0.  1.
    8880023    1    1    2    0    0  0.33051388068E+03  0.10045872501E+03  0.35238762239E+03  0.82299369586E+03  0.65864270000E+03 0. -1.
    8880022    1    1    2    0    0 -0.33051388068E+03 -0.10045872501E+03 -0.34428991026E+03  0.51113459683E+03  0.15294330000E+03 0.  0.
<mgrwt>
<rscale>  0 0.62787816E+03</rscale>
<asrwt>0</asrwt>
<pdfrwt beam="1">  1        2 0.10324815E+00 0.74373489E+03</pdfrwt>
<pdfrwt beam="2">  1       -2 0.10200235E+00 0.74373489E+03</pdfrwt>
<totfact> 0.34505987E+01</totfact>
</mgrwt>
</event>
<event>
 4    1  0.3565372E-007  0.1407325E+04  0.7818608E-02  0.8978012E-01
         -2   -1    0    0    0  501 -0.00000000000E+00  0.00000000000E+00  0.12987106545E+04  0.12987106545E+04  0.25500000000E-02 0.  1.
          2   -1    0    0  501    0  0.00000000000E+00 -0.00000000000E+00 -0.27652852891E+04  0.27652852891E+04  0.25500000000E-02 0. -1.
    8880023    1    1    2    0    0  0.33499865157E+03 -0.11977183325E+04 -0.22003412599E+04  0.26119083381E+04  0.65864270000E+03 0.  0.
    8880022    1    1    2    0    0 -0.33499865157E+03  0.11977183325E+04  0.73376662533E+03  0.14520876055E+04  0.15294330000E+03 0.  0.
<mgrwt>
<rscale>  0 0.13670621E+04</rscale>
<asrwt>0</asrwt>
<pdfrwt beam="1">  1        2 0.42542851E+00 0.14073249E+04</pdfrwt>
<pdfrwt beam="2">  1       -2 0.19980164E+00 0.14073249E+04</pdfrwt>
<totfact> 0.30809956E-01</totfact>
</mgrwt>
</event>
<event>
 4    1  0.3565372E-007  0.9185564E+03  0.7818608E-02  0.9496876E-01
         -2   -1    0    0    0  501 -0.00000000000E+00  0.00000000000E+00  0.11761635666E+04  0.11761635666E+04  0.25500000000E-02 0.  1.
          2   -1    0    0  501    0  0.00000000000E+00 -0.00000000000E+00 -0.10085334765E+04  0.10085334765E+04  0.25500000000E-02 0. -1.
    8880023    1    1    2    0    0 -0.32170439608E+03 -0.55357193580E+03 -0.65715623432E+03  0.11294246894E+04  0.65864270000E+03 0. -1.
    8880022    1    1    2    0    0  0.32170439608E+03  0.55357193580E+03  0.82478632436E+03  0.10552723537E+04  0.15294330000E+03 0.  0.
<mgrwt>
<rscale>  0 0.84514527E+03</rscale>
<asrwt>0</asrwt>
<pdfrwt beam="1">  1        2 0.15515900E+00 0.91855637E+03</pdfrwt>
<pdfrwt beam="2">  1       -2 0.18094824E+00 0.91855637E+03</pdfrwt>
<totfact> 0.44433553E+00</totfact>
</mgrwt>
</event>
<event>
 4    1  0.3565372E-007  0.8946377E+03  0.7818608E-02  0.9534695E-01
          2   -1    0    0  501    0  0.00000000000E+00  0.00000000000E+00  0.15033974038E+04  0.15033974038E+04  0.25500000000E-02 0. -1.
         -2   -1    0    0    0  501 -0.00000000000E+00 -0.00000000000E+00 -0.63403474148E+03  0.63403474148E+03  0.25500000000E-02 0.  1.
    8880023    1    1    2    0    0  0.26811884681E+03  0.54284320934E+03  0.11464856362E+04  0.14542372524E+04  0.65864270000E+03 0.  0.
    8880022    1    1    2    0    0 -0.26811884681E+03 -0.54284320934E+03 -0.27712297391E+03  0.68319489286E+03  0.15294330000E+03 0.  0.
<mgrwt>
<rscale>  0 0.81773513E+03</rscale>
<asrwt>0</asrwt>
<pdfrwt beam="1">  1        2 0.23129191E+00 0.89463773E+03</pdfrwt>
<pdfrwt beam="2">  1       -2 0.97543806E-01 0.89463773E+03</pdfrwt>
<totfact> 0.11145040E+01</totfact>
</mgrwt>
</event>
<event>
 4    1  0.3565372E-007  0.7748938E+03  0.7818608E-02  0.9767971E-01
         -2   -1    0    0    0  501 -0.00000000000E+00  0.00000000000E+00  0.31758320551E+03  0.31758320552E+03  0.25500000000E-02 0.  1.
          2   -1    0    0  501    0  0.00000000000E+00 -0.00000000000E+00 -0.11616218814E+04  0.11616218814E+04  0.25500000000E-02 0. -1.
    8880023    1    1    2    0    0  0.28814508378E+03  0.28917564458E+03 -0.59648028787E+03  0.97787989181E+03  0.65864270000E+03 0. -1.
    8880022    1    1    2    0    0 -0.28814508378E+03 -0.28917564458E+03 -0.24755838797E+03  0.50132519506E+03  0.15294330000E+03 0.  1.
<mgrwt>
<rscale>  0 0.67110081E+03</rscale>
<asrwt>0</asrwt>
<pdfrwt beam="1">  1        2 0.17871106E+00 0.77489377E+03</pdfrwt>
<pdfrwt beam="2">  1       -2 0.48858955E-01 0.77489377E+03</pdfrwt>
<totfact> 0.80318156E+01</totfact>
</mgrwt>
</event>
<event>
 4    1  0.3565372E-007  0.8003869E+03  0.7818608E-02  0.9709960E-01
         -2   -1    0    0    0  501 -0.00000000000E+00  0.00000000000E+00  0.33318420693E+03  0.33318420694E+03  0.25500000000E-02 0.  1.
          2   -1    0    0  501    0  0.00000000000E+00 -0.00000000000E+00 -0.21395007659E+04  0.21395007659E+04  0.25500000000E-02 0. -1.
    8880023    1    1    2    0    0 -0.38789953044E+02 -0.45310525185E+03 -0.18247180572E+04  0.19925398928E+04  0.65864270000E+03 0. -1.
    8880022    1    1    2    0    0  0.38789953044E+02  0.45310525185E+03  0.18401498289E+02  0.48014508002E+03  0.15294330000E+03 0.  0.
<mgrwt>
<rscale>  0 0.70426859E+03</rscale>
<asrwt>0</asrwt>
<pdfrwt beam="1">  1        2 0.32915396E+00 0.80038693E+03</pdfrwt>
<pdfrwt beam="2">  1       -2 0.51259110E-01 0.80038693E+03</pdfrwt>
<totfact> 0.20682523E+01</totfact>
</mgrwt>
</event>
<event>
 4    1  0.3565372E-007  0.7444043E+03  0.7818608E-02  0.9847299E-01
          2   -1    0    0  501    0  0.00000000000E+00  0.00000000000E+00  0.14724686651E+04  0.14724686651E+04  0.25500000000E-02 0. -1.
         -2   -1    0    0    0  501 -0.00000000000E+00 -0.00000000000E+00 -0.36540750371E+03  0.36540750372E+03  0.25500000000E-02 0.  1.
    8880023    1    1    2    0    0 -0.12334820930E+03  0.32421098432E+03  0.12313878031E+04  0.14389071100E+04  0.65864270000E+03 0. -1.
    8880022    1    1    2    0    0  0.12334820930E+03 -0.32421098432E+03 -0.12432664173E+03  0.39896905889E+03  0.15294330000E+03 0.  0.
<mgrwt>
<rscale>  0 0.62884846E+03</rscale>
<asrwt>0</asrwt>
<pdfrwt beam="1">  1        2 0.22653364E+00 0.74440429E+03</pdfrwt>
<pdfrwt beam="2">  1       -2 0.56216539E-01 0.74440429E+03</pdfrwt>
<totfact> 0.39968860E+01</totfact>
</mgrwt>
</event>
<event>
 4    1  0.3565372E-007  0.1028322E+04  0.7818608E-02  0.9345407E-01
          2   -1    0    0  501    0  0.00000000000E+00  0.00000000000E+00  0.22888100539E+04  0.22888100539E+04  0.25500000000E-02 0. -1.
         -2   -1    0    0    0  501 -0.00000000000E+00 -0.00000000000E+00 -0.50330052532E+03  0.50330052532E+03  0.25500000000E-02 0.  1.
    8880023    1    1    2    0    0 -0.78739838178E+03 -0.60324835566E+02  0.16951523170E+04  0.19826716525E+04  0.65864270000E+03 0.  0.
    8880022    1    1    2    0    0  0.78739838178E+03  0.60324835566E+02  0.90357211563E+02  0.80943892673E+03  0.15294330000E+03 0.  0.
<mgrwt>
<rscale>  0 0.96707920E+03</rscale>
<asrwt>0</asrwt>
<pdfrwt beam="1">  1        2 0.35212463E+00 0.10283217E+04</pdfrwt>
<pdfrwt beam="2">  1       -2 0.77430849E-01 0.10283217E+04</pdfrwt>
<totfact> 0.68641364E+00</totfact>
</mgrwt>
</event>
<event>
 4    1  0.3782472E-007  0.9048223E+03  0.7818608E-02  0.9518334E-01
          2   -1    0    0  501    0  0.00000000000E+00  0.00000000000E+00  0.23320735285E+04  0.23320735285E+04  0.25500000000E-02 0. -1.
         -2   -1    0    0    0  501 -0.00000000000E+00 -0.00000000000E+00 -0.94754168930E+03  0.94754168930E+03  0.25500000000E-02 0.  1.
    8880023    1    1    2    0    0  0.44726266678E+03  0.42994103930E+03  0.21201971420E+04  0.23051983250E+04  0.65864270000E+03 0.  0.
    8880022    1    1    2    0    0 -0.44726266678E+03 -0.42994103930E+03 -0.73566530276E+03  0.97441689285E+03  0.15294330000E+03 0.  0.
<mgrwt>
<rscale>  0 0.82945510E+03</rscale>
<asrwt>0</asrwt>
<pdfrwt beam="1">  1        2 0.35878054E+00 0.90482230E+03</pdfrwt>
<pdfrwt beam="2">  1       -2 0.14577565E+00 0.90482230E+03</pdfrwt>
<totfact> 0.14297407E+00</totfact>
</mgrwt>
</event>
<event>
 4    1  0.3565372E-007  0.6595658E+03  0.7818608E-02  0.1024606E+00
          2   -1    0    0  501    0  0.00000000000E+00  0.00000000000E+00  0.11613335345E+04  0.11613335345E+04  0.25500000000E-02 0. -1.
         -2   -1    0    0    0  501 -0.00000000000E+00 -0.00000000000E+00 -0.24168769765E+03  0.24168769766E+03  0.25500000000E-02 0.  1.
    8880023    1    1    2    0    0  0.24737415385E+01 -0.34794766493E+02  0.10215383616E+04  0.12159636613E+04  0.65864270000E+03 0. -1.
    8880022    1    1    2    0    0 -0.24737415385E+01  0.34794766493E+02 -0.10189252479E+03  0.18705757081E+03  0.15294330000E+03 0.  0.
<mgrwt>
<rscale>  0 0.46060549E+03</rscale>
<asrwt>0</asrwt>
<pdfrwt beam="1">  1        2 0.17866670E+00 0.65956577E+03</pdfrwt>
<pdfrwt beam="2">  1       -2 0.37182722E-01 0.65956577E+03</pdfrwt>
<totfact> 0.13900788E+02</totfact>
</mgrwt>
</event>
<event>
 4    1  0.3565372E-007  0.7109480E+03  0.7818608E-02  0.9954498E-01
         -2   -1    0    0    0  501 -0.00000000000E+00  0.00000000000E+00  0.43932170434E+03  0.43932170435E+03  0.25500000000E-02 0.  1.
          2   -1    0    0  501    0  0.00000000000E+00 -0.00000000000E+00 -0.63328437873E+03  0.63328437874E+03  0.25500000000E-02 0. -1.
    8880023    1    1    2    0    0  0.12894798721E+02 -0.26733971651E+03 -0.26062533165E+03  0.75721368821E+03  0.65864270000E+03 0. -1.
    8880022    1    1    2    0    0 -0.12894798721E+02  0.26733971651E+03  0.66662657262E+02  0.31539239487E+03  0.15294330000E+03 0.  0.
<mgrwt>
<rscale>  0 0.57691266E+03</rscale>
<asrwt>0</asrwt>
<pdfrwt beam="1">  1        2 0.97428367E-01 0.71094796E+03</pdfrwt>
<pdfrwt beam="2">  1       -2 0.67587954E-01 0.71094796E+03</pdfrwt>
<totfact> 0.94481664E+01</totfact>
</mgrwt>
</event>
<event>
 4    1  0.3565372E-007  0.7824626E+03  0.7818608E-02  0.9750084E-01
         -2   -1    0    0    0  501 -0.00000000000E+00  0.00000000000E+00  0.48414195439E+03  0.48414195440E+03  0.25500000000E-02 0.  1.
          2   -1    0    0  501    0  0.00000000000E+00 -0.00000000000E+00 -0.13465661727E+04  0.13465661727E+04  0.25500000000E-02 0. -1.
    8880023    1    1    2    0    0 -0.30612693318E+03  0.29107358853E+03 -0.10782966329E+04  0.13322805139E+04  0.65864270000E+03 0. -1.
    8880022    1    1    2    0    0  0.30612693318E+03 -0.29107358853E+03  0.21587241456E+03  0.49842761314E+03  0.15294330000E+03 0.  0.
<mgrwt>
<rscale>  0 0.68111539E+03</rscale>
<asrwt>0</asrwt>
<pdfrwt beam="1">  1        2 0.20716403E+00 0.78246261E+03</pdfrwt>
<pdfrwt beam="2">  1       -2 0.74483378E-01 0.78246261E+03</pdfrwt>
<totfact> 0.25624849E+01</totfact>
</mgrwt>
</event>
<event>
 4    1  0.3565372E-007  0.7449763E+03  0.7818608E-02  0.9845682E-01
          2   -1    0    0  501    0  0.00000000000E+00  0.00000000000E+00  0.47220432249E+03  0.47220432249E+03  0.25500000000E-02 0. -1.
         -2   -1    0    0    0  501 -0.00000000000E+00 -0.00000000000E+00 -0.12341132241E+04  0.12341132241E+04  0.25500000000E-02 0.  1.
    8880023    1    1    2    0    0 -0.34104588905E+03 -0.69765067275E+02  0.11193229530E+03  0.75333824279E+03  0.65864270000E+03 0. -1.
    8880022    1    1    2    0    0  0.34104588905E+03  0.69765067275E+02 -0.87384119692E+03  0.95297930381E+03  0.15294330000E+03 0.  0.
<mgrwt>
<rscale>  0 0.62967584E+03</rscale>
<asrwt>0</asrwt>
<pdfrwt beam="1">  1        2 0.72646819E-01 0.74497629E+03</pdfrwt>
<pdfrwt beam="2">  1       -2 0.18986357E+00 0.74497629E+03</pdfrwt>
<totfact> 0.10406729E+01</totfact>
</mgrwt>
</event>
<event>
 4    1  0.3565372E-007  0.6743024E+03  0.7818608E-02  0.1012750E+00
         -2   -1    0    0    0  501 -0.00000000000E+00  0.00000000000E+00  0.13309845020E+03  0.13309845022E+03  0.25500000000E-02 0.  1.
          2   -1    0    0  501    0  0.00000000000E+00 -0.00000000000E+00 -0.20809099799E+04  0.20809099799E+04  0.25500000000E-02 0. -1.
    8880023    1    1    2    0    0 -0.68096373785E+02 -0.12742214865E+03 -0.18730480052E+04  0.19907266402E+04  0.65864270000E+03 0. -1.
    8880022    1    1    2    0    0  0.68096373785E+02  0.12742214865E+03 -0.74763524521E+02  0.22328178991E+03  0.15294330000E+03 0.  0.
<mgrwt>
<rscale>  0 0.50396317E+03</rscale>
<asrwt>0</asrwt>
<pdfrwt beam="1">  1        2 0.32013997E+00 0.67430240E+03</pdfrwt>
<pdfrwt beam="2">  1       -2 0.20476686E-01 0.67430240E+03</pdfrwt>
<totfact> 0.12766043E+02</totfact>
</mgrwt>
</event>
<event>
 4    1  0.3565372E-007  0.7295562E+03  0.7818608E-02  0.9891485E-01
         -2   -1    0    0    0  501 -0.00000000000E+00  0.00000000000E+00  0.14566672650E+03  0.14566672652E+03  0.25500000000E-02 0.  1.
          2   -1    0    0  501    0  0.00000000000E+00 -0.00000000000E+00 -0.26063839171E+04  0.26063839171E+04  0.25500000000E-02 0. -1.
    8880023    1    1    2    0    0  0.18873444945E+02  0.31318669646E+03 -0.21958864630E+04  0.23139078803E+04  0.65864270000E+03 0. -1.
    8880022    1    1    2    0    0 -0.18873444945E+02 -0.31318669646E+03 -0.26483072754E+03  0.43814276329E+03  0.15294330000E+03 0.  0.
<mgrwt>
<rscale>  0 0.60675735E+03</rscale>
<asrwt>0</asrwt>
<pdfrwt beam="1">  1        2 0.40098211E+00 0.72955625E+03</pdfrwt>
<pdfrwt beam="2">  1       -2 0.22410267E-01 0.72955625E+03</pdfrwt>
<totfact> 0.55064574E+01</totfact>
</mgrwt>
</event>
<event>
 4    1  0.3565372E-007  0.8273566E+03  0.7818608E-02  0.9654498E-01
         -2   -1    0    0    0  501 -0.00000000000E+00  0.00000000000E+00  0.53250731752E+03  0.53250731752E+03  0.25500000000E-02 0.  1.
          2   -1    0    0  501    0  0.00000000000E+00 -0.00000000000E+00 -0.92970514408E+03  0.92970514408E+03  0.25500000000E-02 0. -1.
    8880023    1    1    2    0    0 -0.50069507476E+03  0.36407343245E+01 -0.39808609410E+02  0.82831379590E+03  0.65864270000E+03 0.  0.
    8880022    1    1    2    0    0  0.50069507476E+03 -0.36407343245E+01 -0.35738921715E+03  0.63389866571E+03  0.15294330000E+03 0.  0.
<mgrwt>
<rscale>  0 0.73791832E+03</rscale>
<asrwt>0</asrwt>
<pdfrwt beam="1">  1        2 0.14303156E+00 0.82735665E+03</pdfrwt>
<pdfrwt beam="2">  1       -2 0.81924203E-01 0.82735665E+03</pdfrwt>
<totfact> 0.36998944E+01</totfact>
</mgrwt>
</event>
<event>
 4    1  0.3565372E-007  0.7222251E+03  0.7818608E-02  0.9915128E-01
          2   -1    0    0  501    0  0.00000000000E+00  0.00000000000E+00  0.83286630622E+03  0.83286630622E+03  0.25500000000E-02 0. -1.
         -2   -1    0    0    0  501 -0.00000000000E+00 -0.00000000000E+00 -0.62125292673E+03  0.62125292674E+03  0.25500000000E-02 0.  1.
    8880023    1    1    2    0    0  0.83399766970E+02 -0.28432960204E+03  0.60234779772E+03  0.94044240622E+03  0.65864270000E+03 0. -1.
    8880022    1    1    2    0    0 -0.83399766970E+02  0.28432960204E+03 -0.39073441824E+03  0.51367682675E+03  0.15294330000E+03 0.  0.
<mgrwt>
<rscale>  0 0.59533700E+03</rscale>
<asrwt>0</asrwt>
<pdfrwt beam="1">  1        2 0.12813328E+00 0.72222507E+03</pdfrwt>
<pdfrwt beam="2">  1       -2 0.95577373E-01 0.72222507E+03</pdfrwt>
<totfact> 0.30494508E+01</totfact>
</mgrwt>
</event>
<event>
 4    1  0.3565372E-007  0.8620553E+03  0.7818608E-02  0.9589918E-01
         -2   -1    0    0    0  501 -0.00000000000E+00  0.00000000000E+00  0.21556237368E+03  0.21556237370E+03  0.25500000000E-02 0.  1.
          2   -1    0    0  501    0  0.00000000000E+00 -0.00000000000E+00 -0.26274719030E+04  0.26274719030E+04  0.25500000000E-02 0. -1.
    8880023    1    1    2    0    0  0.39848219837E+03 -0.38799612889E+03 -0.18340959304E+04  0.20265850949E+04  0.65864270000E+03 0. -1.
    8880022    1    1    2    0    0 -0.39848219837E+03  0.38799612889E+03 -0.57781359893E+03  0.81644918187E+03  0.15294330000E+03 0.  1.
<mgrwt>
<rscale>  0 0.77967087E+03</rscale>
<asrwt>0</asrwt>
<pdfrwt beam="1">  1        2 0.40422643E+00 0.86205526E+03</pdfrwt>
<pdfrwt beam="2">  1       -2 0.33163444E-01 0.86205526E+03</pdfrwt>
<totfact> 0.25665168E+01</totfact>
</mgrwt>
</event>
<event>
 4    1  0.3565372E-007  0.6592756E+03  0.7818608E-02  0.1024911E+00
          2   -1    0    0  501    0  0.00000000000E+00  0.00000000000E+00  0.25786020477E+04  0.25786020477E+04  0.25500000000E-02 0. -1.
         -2   -1    0    0    0  501 -0.00000000000E+00 -0.00000000000E+00 -0.20818670082E+03  0.20818670084E+03  0.25500000000E-02 0.  1.
    8880023    1    1    2    0    0  0.28785821711E+02  0.23323018863E+01  0.24992477193E+04  0.25847404960E+04  0.65864270000E+03 0. -1.
    8880022    1    1    2    0    0 -0.28785821711E+02 -0.23323018863E+01 -0.12883237239E+03  0.20204825254E+03  0.15294330000E+03 0.  0.
<mgrwt>
<rscale>  0 0.45955216E+03</rscale>
<asrwt>0</asrwt>
<pdfrwt beam="1">  1        2 0.39670800E+00 0.65927556E+03</pdfrwt>
<pdfrwt beam="2">  1       -2 0.32028723E-01 0.65927556E+03</pdfrwt>
<totfact> 0.30119590E+01</totfact>
</mgrwt>
</event>
<event>
 4    1  0.3565372E-007  0.6978267E+03  0.7818608E-02  0.1000634E+00
          2   -1    0    0  501    0  0.00000000000E+00  0.00000000000E+00  0.87227251688E+03  0.87227251689E+03  0.25500000000E-02 0. -1.
         -2   -1    0    0    0  501 -0.00000000000E+00 -0.00000000000E+00 -0.34410300966E+03  0.34410300967E+03  0.25500000000E-02 0.  1.
    8880023    1    1    2    0    0  0.11404114898E+03 -0.20036585599E+03  0.97653931770E+02  0.70462639502E+03  0.65864270000E+03 0.  1.
    8880022    1    1    2    0    0 -0.11404114898E+03  0.20036585599E+03  0.43051557545E+03  0.51174913154E+03  0.15294330000E+03 0.  0.
<mgrwt>
<rscale>  0 0.55373149E+03</rscale>
<asrwt>0</asrwt>
<pdfrwt beam="1">  1        2 0.13419577E+00 0.69782667E+03</pdfrwt>
<pdfrwt beam="2">  1       -2 0.52938925E-01 0.69782667E+03</pdfrwt>
<totfact> 0.10475338E+02</totfact>
</mgrwt>
</event>
<event>
 4    1  0.3565372E-007  0.6720361E+03  0.7818608E-02  0.1014243E+00
         -2   -1    0    0    0  501 -0.00000000000E+00  0.00000000000E+00  0.40824028941E+03  0.40824028942E+03  0.25500000000E-02 0.  1.
          2   -1    0    0  501    0  0.00000000000E+00 -0.00000000000E+00 -0.36836075650E+04  0.36836075650E+04  0.25500000000E-02 0. -1.
    8880023    1    1    2    0    0 -0.12720627395E+03 -0.40506952934E+02 -0.36254230557E+04  0.36871838561E+04  0.65864270000E+03 0. -1.
    8880022    1    1    2    0    0  0.12720627395E+03  0.40506952934E+02  0.35005578011E+03  0.40466399836E+03  0.15294330000E+03 0.  0.
<mgrwt>
<rscale>  0 0.49822429E+03</rscale>
<asrwt>0</asrwt>
<pdfrwt beam="1">  1        2 0.56670883E+00 0.67203605E+03</pdfrwt>
<pdfrwt beam="2">  1       -2 0.62806201E-01 0.67203605E+03</pdfrwt>
<totfact> 0.15762142E+00</totfact>
</mgrwt>
</event>
<event>
 4    1  0.4899355E-007  0.7102048E+03  0.7818608E-02  0.9957241E-01
         -2   -1    0    0    0  501 -0.00000000000E+00  0.00000000000E+00  0.11534840339E+04  0.11534840339E+04  0.25500000000E-02 0.  1.
          2   -1    0    0  501    0  0.00000000000E+00 -0.00000000000E+00 -0.25352930986E+04  0.25352930986E+04  0.25500000000E-02 0. -1.
    8880023    1    1    2    0    0 -0.18687228944E+03 -0.18883682567E+03 -0.24638419559E+04  0.25641583393E+04  0.65864270000E+03 0. -1.
    8880022    1    1    2    0    0  0.18687228944E+03  0.18883682567E+03  0.10820328912E+04  0.11246187932E+04  0.15294330000E+03 0.  0.
<mgrwt>
<rscale>  0 0.57565548E+03</rscale>
<asrwt>0</asrwt>
<pdfrwt beam="1">  1        2 0.39004509E+00 0.71020476E+03</pdfrwt>
<pdfrwt beam="2">  1       -2 0.17745908E+00 0.71020476E+03</pdfrwt>
<totfact> 0.66843574E-01</totfact>
</mgrwt>
</event>
<event>
 4    1  0.3565372E-007  0.9551472E+03  0.7818608E-02  0.9442747E-01
          2   -1    0    0  501    0  0.00000000000E+00  0.00000000000E+00  0.23417711932E+04  0.23417711932E+04  0.25500000000E-02 0. -1.
         -2   -1    0    0    0  501 -0.00000000000E+00 -0.00000000000E+00 -0.36812557631E+03  0.36812557631E+03  0.25500000000E-02 0.  1.
    8880023    1    1    2    0    0 -0.38442487289E+03  0.57507691113E+03  0.17009627765E+04  0.19507897145E+04  0.65864270000E+03 0.  0.
    8880022    1    1    2    0    0  0.38442487289E+03 -0.57507691113E+03  0.27268284038E+03  0.75910705508E+03  0.15294330000E+03 0.  0.
<mgrwt>
<rscale>  0 0.88639752E+03</rscale>
<asrwt>0</asrwt>
<pdfrwt beam="1">  1        2 0.36027248E+00 0.95514718E+03</pdfrwt>
<pdfrwt beam="2">  1       -2 0.56634706E-01 0.95514718E+03</pdfrwt>
<totfact> 0.12734210E+01</totfact>
</mgrwt>
</event>
<event>
 4    1  0.3565372E-007  0.6715619E+03  0.7818608E-02  0.1014567E+00
         -2   -1    0    0    0  501 -0.00000000000E+00  0.00000000000E+00  0.86983336971E+02  0.86983337008E+02  0.25500000000E-02 0.  1.
          2   -1    0    0  501    0  0.00000000000E+00 -0.00000000000E+00 -0.23128509355E+04  0.23128509355E+04  0.25500000000E-02 0. -1.
    8880023    1    1    2    0    0 -0.52956810192E+02  0.11991984214E+03 -0.14454424813E+04  0.15938316615E+04  0.65864270000E+03 0. -1.
    8880022    1    1    2    0    0  0.52956810192E+02 -0.11991984214E+03 -0.78042511731E+03  0.80600261106E+03  0.15294330000E+03 0.  1.
<mgrwt>
<rscale>  0 0.49699192E+03</rscale>
<asrwt>0</asrwt>
<pdfrwt beam="1">  1        2 0.35582317E+00 0.67156191E+03</pdfrwt>
<pdfrwt beam="2">  1       -2 0.13382054E-01 0.67156191E+03</pdfrwt>
<totfact> 0.19692767E+02</totfact>
</mgrwt>
</event>
<event>
 4    1  0.3565372E-007  0.1232606E+04  0.7818608E-02  0.9126061E-01
         -2   -1    0    0    0  501 -0.00000000000E+00  0.00000000000E+00  0.10329843303E+04  0.10329843303E+04  0.25500000000E-02 0.  1.
          2   -1    0    0  501    0  0.00000000000E+00 -0.00000000000E+00 -0.20203582318E+04  0.20203582318E+04  0.25500000000E-02 0. -1.
    8880023    1    1    2    0    0 -0.67573770870E+03 -0.79302275145E+03 -0.14500449800E+04  0.19031413992E+04  0.65864270000E+03 0.  0.
    8880022    1    1    2    0    0  0.67573770870E+03  0.79302275145E+03  0.46267107838E+03  0.11502011629E+04  0.15294330000E+03 0.  0.
<mgrwt>
<rscale>  0 0.11850306E+04</rscale>
<asrwt>0</asrwt>
<pdfrwt beam="1">  1        2 0.31082434E+00 0.12326057E+04</pdfrwt>
<pdfrwt beam="2">  1       -2 0.15892067E+00 0.12326057E+04</pdfrwt>
<totfact> 0.16186508E+00</totfact>
</mgrwt>
</event>
<event>
 4    1  0.3565372E-007  0.7773883E+03  0.7818608E-02  0.9762008E-01
         -2   -1    0    0    0  501 -0.00000000000E+00  0.00000000000E+00  0.68380195955E+03  0.68380195956E+03  0.25500000000E-02 0.  1.
          2   -1    0    0  501    0  0.00000000000E+00 -0.00000000000E+00 -0.79274905986E+03  0.79274905986E+03  0.25500000000E-02 0. -1.
    8880023    1    1    2    0    0  0.30562692697E+03  0.27769493917E+03 -0.46885084538E+03  0.90782906938E+03  0.65864270000E+03 0.  0.
    8880022    1    1    2    0    0 -0.30562692697E+03 -0.27769493917E+03  0.35990374507E+03  0.56872195004E+03  0.15294330000E+03 0.  0.
<mgrwt>
<rscale>  0 0.67441872E+03</rscale>
<asrwt>0</asrwt>
<pdfrwt beam="1">  1        2 0.12196139E+00 0.77738826E+03</pdfrwt>
<pdfrwt beam="2">  1       -2 0.10520030E+00 0.77738826E+03</pdfrwt>
<totfact> 0.25812312E+01</totfact>
</mgrwt>
</event>
<event>
 4    1  0.3565372E-007  0.8760649E+03  0.7818608E-02  0.9565602E-01
          2   -1    0    0  501    0  0.00000000000E+00  0.00000000000E+00  0.15754839769E+04  0.15754839769E+04  0.25500000000E-02 0. -1.
         -2   -1    0    0    0  501 -0.00000000000E+00 -0.00000000000E+00 -0.48915498376E+03  0.48915498377E+03  0.25500000000E-02 0.  1.
    8880023    1    1    2    0    0 -0.37239495064E+03 -0.44158981931E+03  0.61371521188E+02  0.87821195486E+03  0.65864270000E+03 0.  1.
    8880022    1    1    2    0    0  0.37239495064E+03  0.44158981931E+03  0.10249574719E+04  0.11864270058E+04  0.15294330000E+03 0.  0.
<mgrwt>
<rscale>  0 0.79615308E+03</rscale>
<asrwt>0</asrwt>
<pdfrwt beam="1">  1        2 0.24238215E+00 0.87606494E+03</pdfrwt>
<pdfrwt beam="2">  1       -2 0.75254613E-01 0.87606494E+03</pdfrwt>
<totfact> 0.18433760E+01</totfact>
</mgrwt>
</event>
<event>
 4    1  0.3565372E-007  0.8708738E+03  0.7818608E-02  0.9574506E-01
          2   -1    0    0  501    0  0.00000000000E+00  0.00000000000E+00  0.16755808682E+04  0.16755808682E+04  0.25500000000E-02 0. -1.
         -2   -1    0    0    0  501 -0.00000000000E+00 -0.00000000000E+00 -0.55874174752E+03  0.55874174753E+03  0.25500000000E-02 0.  1.
    8880023    1    1    2    0    0 -0.12642618284E+03  0.55554249128E+03  0.13445785364E+04  0.16019714998E+04  0.65864270000E+03 0.  0.
    8880022    1    1    2    0    0  0.12642618284E+03 -0.55554249128E+03 -0.22773941573E+03  0.63235111593E+03  0.15294330000E+03 0.  0.
<mgrwt>
<rscale>  0 0.79006761E+03</rscale>
<asrwt>0</asrwt>
<pdfrwt beam="1">  1        2 0.25778167E+00 0.87087384E+03</pdfrwt>
<pdfrwt beam="2">  1       -2 0.85960270E-01 0.87087384E+03</pdfrwt>
<totfact> 0.12028682E+01</totfact>
</mgrwt>
</event>
<event>
 4    1  0.3565372E-007  0.7193613E+03  0.7818608E-02  0.9924753E-01
         -2   -1    0    0    0  501 -0.00000000000E+00  0.00000000000E+00  0.11192572122E+03  0.11192572125E+03  0.25500000000E-02 0.  1.
          2   -1    0    0  501    0  0.00000000000E+00 -0.00000000000E+00 -0.28603433447E+04  0.28603433447E+04  0.25500000000E-02 0. -1.
    8880023    1    1    2    0    0 -0.26086375258E+03  0.12498257861E+03 -0.23448995323E+04  0.24527606009E+04  0.65864270000E+03 0.  0.
    8880022    1    1    2    0    0  0.26086375258E+03 -0.12498257861E+03 -0.40351809123E+03  0.51950846512E+03  0.15294330000E+03 0.  0.
<mgrwt>
<rscale>  0 0.59076512E+03</rscale>
<asrwt>0</asrwt>
<pdfrwt beam="1">  1        2 0.44005277E+00 0.71936135E+03</pdfrwt>
<pdfrwt beam="2">  1       -2 0.17219344E-01 0.71936135E+03</pdfrwt>
<totfact> 0.62049084E+01</totfact>
</mgrwt>
</event>
<event>
 4    1  0.3565372E-007  0.1064804E+04  0.7818608E-02  0.9301293E-01
          2   -1    0    0  501    0  0.00000000000E+00  0.00000000000E+00  0.32384480590E+04  0.32384480590E+04  0.25500000000E-02 0. -1.
         -2   -1    0    0    0  501 -0.00000000000E+00 -0.00000000000E+00 -0.33649865305E+03  0.33649865306E+03  0.25500000000E-02 0.  1.
    8880023    1    1    2    0    0 -0.15269886094E+03  0.82260607240E+03  0.22952410944E+04  0.25302054423E+04  0.65864270000E+03 0.  0.
    8880022    1    1    2    0    0  0.15269886094E+03 -0.82260607240E+03  0.60670831159E+03  0.10447412698E+04  0.15294330000E+03 0. -1.
<mgrwt>
<rscale>  0 0.10066392E+04</rscale>
<asrwt>0</asrwt>
<pdfrwt beam="1">  1        2 0.49822277E+00 0.10648042E+04</pdfrwt>
<pdfrwt beam="2">  1       -2 0.51769025E-01 0.10648042E+04</pdfrwt>
<totfact> 0.43972879E+00</totfact>
</mgrwt>
</event>
<event>
 4    1  0.3565372E-007  0.1065753E+04  0.7818608E-02  0.9300179E-01
          2   -1    0    0  501    0  0.00000000000E+00  0.00000000000E+00  0.40703152987E+04  0.40703152987E+04  0.25500000000E-02 0. -1.
         -2   -1    0    0    0  501 -0.00000000000E+00 -0.00000000000E+00 -0.22831395233E+03  0.22831395235E+03  0.25500000000E-02 0.  1.
    8880023    1    1    2    0    0  0.76454964185E+03  0.34275908096E+03  0.23562479276E+04  0.25860654371E+04  0.65864270000E+03 0.  1.
    8880022    1    1    2    0    0 -0.76454964185E+03 -0.34275908096E+03  0.14857534188E+04  0.17125638140E+04  0.15294330000E+03 0.  0.
<mgrwt>
<rscale>  0 0.10076636E+04</rscale>
<asrwt>0</asrwt>
<pdfrwt beam="1">  1        2 0.62620232E+00 0.10657533E+04</pdfrwt>
<pdfrwt beam="2">  1       -2 0.35125225E-01 0.10657533E+04</pdfrwt>
<totfact> 0.23834455E+00</totfact>
</mgrwt>
</event>
<event>
 4    1  0.3565372E-007  0.1276992E+04  0.7818608E-02  0.9085688E-01
         -2   -1    0    0    0  501 -0.00000000000E+00  0.00000000000E+00  0.13548118539E+04  0.13548118539E+04  0.25500000000E-02 0.  1.
          2   -1    0    0  501    0  0.00000000000E+00 -0.00000000000E+00 -0.11762918777E+04  0.11762918777E+04  0.25500000000E-02 0. -1.
    8880023    1    1    2    0    0 -0.10917508149E+04  0.70553271378E+02  0.51409557536E+03  0.13765907426E+04  0.65864270000E+03 0.  0.
    8880022    1    1    2    0    0  0.10917508149E+04 -0.70553271378E+02 -0.33557559914E+03  0.11545129889E+04  0.15294330000E+03 0.  0.
<mgrwt>
<rscale>  0 0.12315411E+04</rscale>
<asrwt>0</asrwt>
<pdfrwt beam="1">  1        2 0.18096798E+00 0.12769917E+04</pdfrwt>
<pdfrwt beam="2">  1       -2 0.20843259E+00 0.12769917E+04</pdfrwt>
<totfact> 0.22114470E+00</totfact>
</mgrwt>
</event>
<event>
 4    1  0.3565372E-007  0.6705434E+03  0.7818608E-02  0.1015276E+00
          2   -1    0    0  501    0  0.00000000000E+00  0.00000000000E+00  0.45592763370E+03  0.45592763370E+03  0.25500000000E-02 0. -1.
         -2   -1    0    0    0  501 -0.00000000000E+00 -0.00000000000E+00 -0.44165960515E+03  0.44165960516E+03  0.25500000000E-02 0.  1.
    8880023    1    1    2    0    0  0.93979589892E+02 -0.83583034488E+02  0.10684054147E+03  0.67900176328E+03  0.65864270000E+03 0. -1.
    8880022    1    1    2    0    0 -0.93979589892E+02  0.83583034488E+02 -0.92572512923E+02  0.21858547558E+03  0.15294330000E+03 0. -1.
<mgrwt>
<rscale>  0 0.49430466E+03</rscale>
<asrwt>0</asrwt>
<pdfrwt beam="1">  1        2 0.70142713E-01 0.67054343E+03</pdfrwt>
<pdfrwt beam="2">  1       -2 0.67947631E-01 0.67054343E+03</pdfrwt>
<totfact> 0.13781861E+02</totfact>
</mgrwt>
</event>
<event>
 4    1  0.3565372E-007  0.6602692E+03  0.7818608E-02  0.1023882E+00
          2   -1    0    0  501    0  0.00000000000E+00  0.00000000000E+00  0.22859595525E+04  0.22859595525E+04  0.25500000000E-02 0. -1.
         -2   -1    0    0    0  501 -0.00000000000E+00 -0.00000000000E+00 -0.80498762115E+02  0.80498762156E+02  0.25500000000E-02 0.  1.
    8880023    1    1    2    0    0  0.45532261299E+02  0.84852337604E+01  0.14352039950E+04  0.15797993226E+04  0.65864270000E+03 0.  1.
    8880022    1    1    2    0    0 -0.45532261299E+02 -0.84852337604E+01  0.77025679532E+03  0.78665899204E+03  0.15294330000E+03 0.  0.
<mgrwt>
<rscale>  0 0.46311267E+03</rscale>
<asrwt>0</asrwt>
<pdfrwt beam="1">  1        2 0.35168613E+00 0.66026918E+03</pdfrwt>
<pdfrwt beam="2">  1       -2 0.12384423E-01 0.66026918E+03</pdfrwt>
<totfact> 0.23207705E+02</totfact>
</mgrwt>
</event>
<event>
 4    1  0.3565372E-007  0.7800359E+03  0.7818608E-02  0.9755753E-01
         -2   -1    0    0    0  501 -0.00000000000E+00  0.00000000000E+00  0.10064921501E+04  0.10064921501E+04  0.25500000000E-02 0.  1.
          2   -1    0    0  501    0  0.00000000000E+00 -0.00000000000E+00 -0.10059663644E+04  0.10059663644E+04  0.25500000000E-02 0. -1.
    8880023    1    1    2    0    0 -0.40173871105E+03  0.11511682120E+03 -0.78688786384E+03  0.11079930465E+04  0.65864270000E+03 0.  0.
    8880022    1    1    2    0    0  0.40173871105E+03 -0.11511682120E+03  0.78741364953E+03  0.90446546809E+03  0.15294330000E+03 0.  0.
<mgrwt>
<rscale>  0 0.67792149E+03</rscale>
<asrwt>0</asrwt>
<pdfrwt beam="1">  1        2 0.15476406E+00 0.78003595E+03</pdfrwt>
<pdfrwt beam="2">  1       -2 0.15484495E+00 0.78003595E+03</pdfrwt>
<totfact> 0.69759387E+00</totfact>
</mgrwt>
</event>
<event>
 4    1  0.3565372E-007  0.7663494E+03  0.7818608E-02  0.9788938E-01
          2   -1    0    0  501    0  0.00000000000E+00  0.00000000000E+00  0.18051914464E+03  0.18051914465E+03  0.25500000000E-02 0. -1.
         -2   -1    0    0    0  501 -0.00000000000E+00 -0.00000000000E+00 -0.20770580539E+04  0.20770580539E+04  0.25500000000E-02 0.  1.
    8880023    1    1    2    0    0  0.33850199511E+03 -0.19722479172E+03 -0.94097909923E+03  0.12135621495E+04  0.65864270000E+03 0.  0.
    8880022    1    1    2    0    0 -0.33850199511E+03  0.19722479172E+03 -0.95555981005E+03  0.10440150491E+04  0.15294330000E+03 0.  0.
<mgrwt>
<rscale>  0 0.65959564E+03</rscale>
<asrwt>0</asrwt>
<pdfrwt beam="1">  1        2 0.27772178E-01 0.76634941E+03</pdfrwt>
<pdfrwt beam="2">  1       -2 0.31954738E+00 0.76634941E+03</pdfrwt>
<totfact> 0.48755454E+00</totfact>
</mgrwt>
</event>
<event>
 4    1  0.3565372E-007  0.8123457E+03  0.7818608E-02  0.9684711E-01
          2   -1    0    0  501    0  0.00000000000E+00  0.00000000000E+00  0.29538918656E+04  0.29538918656E+04  0.25500000000E-02 0. -1.
         -2   -1    0    0    0  501 -0.00000000000E+00 -0.00000000000E+00 -0.23034492161E+03  0.23034492162E+03  0.25500000000E-02 0.  1.
    8880023    1    1    2    0    0 -0.10359099132E+03 -0.46407357437E+03  0.25150385149E+04  0.26429764119E+04  0.65864270000E+03 0. -1.
    8880022    1    1    2    0    0  0.10359099132E+03  0.46407357437E+03  0.20850842905E+03  0.54126037534E+03  0.15294330000E+03 0.  0.
<mgrwt>
<rscale>  0 0.71934408E+03</rscale>
<asrwt>0</asrwt>
<pdfrwt beam="1">  1        2 0.45444487E+00 0.81234573E+03</pdfrwt>
<pdfrwt beam="2">  1       -2 0.35437682E-01 0.81234573E+03</pdfrwt>
<totfact> 0.14597931E+01</totfact>
</mgrwt>
</event>
<event>
 4    1  0.3565372E-007  0.6717976E+03  0.7818608E-02  0.1014406E+00
          2   -1    0    0  501    0  0.00000000000E+00  0.00000000000E+00  0.21499171452E+04  0.21499171452E+04  0.25500000000E-02 0. -1.
         -2   -1    0    0    0  501 -0.00000000000E+00 -0.00000000000E+00 -0.25657135889E+03  0.25657135890E+03  0.25500000000E-02 0.  1.
    8880023    1    1    2    0    0 -0.20580532948E+02  0.13068376960E+03  0.20457737939E+04  0.21532539163E+04  0.65864270000E+03 0. -1.
    8880022    1    1    2    0    0  0.20580532948E+02 -0.13068376960E+03 -0.15242800756E+03  0.25323458783E+03  0.15294330000E+03 0.  0.
<mgrwt>
<rscale>  0 0.49760595E+03</rscale>
<asrwt>0</asrwt>
<pdfrwt beam="1">  1        2 0.33075648E+00 0.67179760E+03</pdfrwt>
<pdfrwt beam="2">  1       -2 0.39472517E-01 0.67179760E+03</pdfrwt>
<totfact> 0.34988944E+01</totfact>
</mgrwt>
</event>
<event>
 4    1  0.3565372E-007  0.1147047E+04  0.7818608E-02  0.9210399E-01
          2   -1    0    0  501    0  0.00000000000E+00  0.00000000000E+00  0.17550118022E+04  0.17550118022E+04  0.25500000000E-02 0. -1.
         -2   -1    0    0    0  501 -0.00000000000E+00 -0.00000000000E+00 -0.12785924675E+04  0.12785924675E+04  0.25500000000E-02 0.  1.
    8880023    1    1    2    0    0 -0.93744542083E+03 -0.55694355532E+02  0.13293380439E+04  0.17558062591E+04  0.65864270000E+03 0.  0.
    8880022    1    1    2    0    0  0.93744542083E+03  0.55694355532E+02 -0.85291870928E+03  0.12777980106E+04  0.15294330000E+03 0.  0.
<mgrwt>
<rscale>  0 0.10946738E+04</rscale>
<asrwt>0</asrwt>
<pdfrwt beam="1">  1        2 0.27000181E+00 0.11470466E+04</pdfrwt>
<pdfrwt beam="2">  1       -2 0.19670653E+00 0.11470466E+04</pdfrwt>
<totfact> 0.12479533E+00</totfact>
</mgrwt>
</event>
<event>
 4    1  0.3565372E-007  0.6711817E+03  0.7818608E-02  0.1014830E+00
          2   -1    0    0  501    0  0.00000000000E+00  0.00000000000E+00  0.27260759499E+04  0.27260759499E+04  0.25500000000E-02 0. -1.
         -2   -1    0    0    0  501 -0.00000000000E+00 -0.00000000000E+00 -0.30512852355E+03  0.30512852356E+03  0.25500000000E-02 0.  1.
    8880023    1    1    2    0    0  0.98324860552E+02  0.83706812133E+02  0.26461261884E+04  0.27299209915E+04  0.65864270000E+03 0.  0.
    8880022    1    1    2    0    0 -0.98324860552E+02 -0.83706812133E+02 -0.22517876207E+03  0.30128348196E+03  0.15294330000E+03 0.  1.
<mgrwt>
<rscale>  0 0.49599513E+03</rscale>
<asrwt>0</asrwt>
<pdfrwt beam="1">  1        2 0.41939630E+00 0.67118166E+03</pdfrwt>
<pdfrwt beam="2">  1       -2 0.46942850E-01 0.67118166E+03</pdfrwt>
<totfact> 0.11785995E+01</totfact>
</mgrwt>
</event>
<event>
 4    1  0.3565372E-007  0.9097788E+03  0.7818608E-02  0.9510512E-01
          2   -1    0    0  501    0  0.00000000000E+00  0.00000000000E+00  0.16119177006E+04  0.16119177006E+04  0.25500000000E-02 0. -1.
         -2   -1    0    0    0  501 -0.00000000000E+00 -0.00000000000E+00 -0.10800468197E+04  0.10800468197E+04  0.25500000000E-02 0.  1.
    8880023    1    1    2    0    0 -0.48017030329E+03  0.40413320711E+03  0.13633599422E+04  0.16390386534E+04  0.65864270000E+03 0.  0.
    8880022    1    1    2    0    0  0.48017030329E+03 -0.40413320711E+03 -0.83148906121E+03  0.10529258669E+04  0.15294330000E+03 0.  0.
<mgrwt>
<rscale>  0 0.83513202E+03</rscale>
<asrwt>0</asrwt>
<pdfrwt beam="1">  1        2 0.24798734E+00 0.90977875E+03</pdfrwt>
<pdfrwt beam="2">  1       -2 0.16616105E+00 0.90977875E+03</pdfrwt>
<totfact> 0.25070475E+00</totfact>
</mgrwt>
</event>
<event>
 4    1  0.3565372E-007  0.8088547E+03  0.7818608E-02  0.9691967E-01
          2   -1    0    0  501    0  0.00000000000E+00  0.00000000000E+00  0.34452809289E+04  0.34452809289E+04  0.25500000000E-02 0. -1.
         -2   -1    0    0    0  501 -0.00000000000E+00 -0.00000000000E+00 -0.13436346556E+03  0.13436346558E+03  0.25500000000E-02 0.  1.
    8880023    1    1    2    0    0  0.46915630205E+03  0.18113599374E+02  0.25258246770E+04  0.26521757565E+04  0.65864270000E+03 0.  0.
    8880022    1    1    2    0    0 -0.46915630205E+03 -0.18113599374E+02  0.78509278637E+03  0.92746863799E+03  0.15294330000E+03 0.  0.
<mgrwt>
<rscale>  0 0.71497063E+03</rscale>
<asrwt>0</asrwt>
<pdfrwt beam="1">  1        2 0.53004319E+00 0.80885471E+03</pdfrwt>
<pdfrwt beam="2">  1       -2 0.20671304E-01 0.80885471E+03</pdfrwt>
<totfact> 0.19016431E+01</totfact>
</mgrwt>
</event>
<event>
 4    1  0.3565372E-007  0.8381190E+03  0.7818608E-02  0.9633737E-01
         -2   -1    0    0    0  501 -0.00000000000E+00  0.00000000000E+00  0.17994920192E+03  0.17994920194E+03  0.25500000000E-02 0.  1.
          2   -1    0    0  501    0  0.00000000000E+00 -0.00000000000E+00 -0.33695753906E+04  0.33695753906E+04  0.25500000000E-02 0. -1.
    8880023    1    1    2    0    0 -0.20976576863E+03 -0.47395314066E+03 -0.26752494884E+04  0.28034627318E+04  0.65864270000E+03 0. -1.
    8880022    1    1    2    0    0  0.20976576863E+03  0.47395314066E+03 -0.51437670027E+03  0.74606186072E+03  0.15294330000E+03 0.  0.
<mgrwt>
<rscale>  0 0.75102908E+03</rscale>
<asrwt>0</asrwt>
<pdfrwt beam="1">  1        2 0.51839617E+00 0.83811900E+03</pdfrwt>
<pdfrwt beam="2">  1       -2 0.27684495E-01 0.83811900E+03</pdfrwt>
<totfact> 0.12582153E+01</totfact>
</mgrwt>
</event>
<event>
 4    1  0.3565372E-007  0.7396440E+03  0.7818608E-02  0.9860985E-01
         -2   -1    0    0    0  501 -0.00000000000E+00  0.00000000000E+00  0.30106342401E+03  0.30106342402E+03  0.25500000000E-02 0.  1.
          2   -1    0    0  501    0  0.00000000000E+00 -0.00000000000E+00 -0.13139228963E+04  0.13139228963E+04  0.25500000000E-02 0. -1.
    8880023    1    1    2    0    0 -0.32847548735E+03  0.73259411863E+02 -0.10016590745E+04  0.12451482623E+04  0.65864270000E+03 0. -1.
    8880022    1    1    2    0    0  0.32847548735E+03 -0.73259411863E+02 -0.11200397716E+02  0.36983805800E+03  0.15294330000E+03 0.  0.
<mgrwt>
<rscale>  0 0.62189943E+03</rscale>
<asrwt>0</asrwt>
<pdfrwt beam="1">  1        2 0.20214198E+00 0.73964403E+03</pdfrwt>
<pdfrwt beam="2">  1       -2 0.46317451E-01 0.73964403E+03</pdfrwt>
<totfact> 0.73048428E+01</totfact>
</mgrwt>
</event>
<event>
 4    1  0.3565372E-007  0.1232702E+04  0.7818608E-02  0.9125971E-01
          2   -1    0    0  501    0  0.00000000000E+00  0.00000000000E+00  0.24103849356E+04  0.24103849356E+04  0.25500000000E-02 0. -1.
         -2   -1    0    0    0  501 -0.00000000000E+00 -0.00000000000E+00 -0.98486139998E+03  0.98486139998E+03  0.25500000000E-02 0.  1.
    8880023    1    1    2    0    0  0.90864182299E+03  0.51001306087E+03 -0.39295469612E+03  0.12938187215E+04  0.65864270000E+03 0.  0.
    8880022    1    1    2    0    0 -0.90864182299E+03 -0.51001306087E+03  0.18184782317E+04  0.21014276140E+04  0.15294330000E+03 0.  0.
<mgrwt>
<rscale>  0 0.11851315E+04</rscale>
<asrwt>0</asrwt>
<pdfrwt beam="1">  1        2 0.37082845E+00 0.12327017E+04</pdfrwt>
<pdfrwt beam="2">  1       -2 0.15151714E+00 0.12327017E+04</pdfrwt>
<totfact> 0.11126073E+00</totfact>
</mgrwt>
</event>
<event>
 4    1  0.3565372E-007  0.6609654E+03  0.7818608E-02  0.1023188E+00
         -2   -1    0    0    0  501 -0.00000000000E+00  0.00000000000E+00  0.20415543971E+03  0.20415543973E+03  0.25500000000E-02 0.  1.
          2   -1    0    0  501    0  0.00000000000E+00 -0.00000000000E+00 -0.40337038941E+04  0.40337038941E+04  0.25500000000E-02 0. -1.
    8880023    1    1    2    0    0 -0.80567668023E+01  0.54773849309E+02 -0.39689687354E+04  0.40236287248E+04  0.65864270000E+03 0. -1.
    8880022    1    1    2    0    0  0.80567668023E+01 -0.54773849309E+02  0.13942028104E+03  0.21423060902E+03  0.15294330000E+03 0.  0.
<mgrwt>
<rscale>  0 0.46553367E+03</rscale>
<asrwt>0</asrwt>
<pdfrwt beam="1">  1        2 0.62056977E+00 0.66096542E+03</pdfrwt>
<pdfrwt beam="2">  1       -2 0.31408532E-01 0.66096542E+03</pdfrwt>
<totfact> 0.34213972E+00</totfact>
</mgrwt>
</event>
<event>
 4    1  0.3565372E-007  0.8092982E+03  0.7818608E-02  0.9691041E-01
          2   -1    0    0  501    0  0.00000000000E+00  0.00000000000E+00  0.11377704107E+04  0.11377704108E+04  0.25500000000E-02 0. -1.
         -2   -1    0    0    0  501 -0.00000000000E+00 -0.00000000000E+00 -0.69234606718E+03  0.69234606718E+03  0.25500000000E-02 0.  1.
    8880023    1    1    2    0    0  0.12283067333E+03 -0.45394493222E+03  0.86283813575E+03  0.11829848818E+04  0.65864270000E+03 0. -1.
    8880022    1    1    2    0    0 -0.12283067333E+03  0.45394493222E+03 -0.41741379218E+03  0.64713159613E+03  0.15294330000E+03 0.  0.
<mgrwt>
<rscale>  0 0.71552743E+03</rscale>
<asrwt>0</asrwt>
<pdfrwt beam="1">  1        2 0.17504160E+00 0.80929820E+03</pdfrwt>
<pdfrwt beam="2">  1       -2 0.10651478E+00 0.80929820E+03</pdfrwt>
<totfact> 0.14841527E+01</totfact>
</mgrwt>
</event>
<event>
 4    1  0.3565372E-007  0.6621970E+03  0.7818608E-02  0.1022010E+00
         -2   -1    0    0    0  501 -0.00000000000E+00  0.00000000000E+00  0.60672338819E+03  0.60672338820E+03  0.25500000000E-02 0.  1.
          2   -1    0    0  501    0  0.00000000000E+00 -0.00000000000E+00 -0.54434130015E+03  0.54434130015E+03  0.25500000000E-02 0. -1.
    8880023    1    1    2    0    0  0.12889664490E+02 -0.67294574798E+02 -0.31859765264E+03  0.73485330086E+03  0.65864270000E+03 0. -1.
    8880022    1    1    2    0    0 -0.12889664490E+02  0.67294574798E+02  0.38097974069E+03  0.41621138749E+03  0.15294330000E+03 0.  0.
<mgrwt>
<rscale>  0 0.46968030E+03</rscale>
<asrwt>0</asrwt>
<pdfrwt beam="1">  1        2 0.83744815E-01 0.66219703E+03</pdfrwt>
<pdfrwt beam="2">  1       -2 0.93342060E-01 0.66219703E+03</pdfrwt>
<totfact> 0.55105625E+01</totfact>
</mgrwt>
</event>
<event>
 4    1  0.3565372E-007  0.8929843E+03  0.7818608E-02  0.9537389E-01
         -2   -1    0    0    0  501 -0.00000000000E+00  0.00000000000E+00  0.73242015523E+03  0.73242015523E+03  0.25500000000E-02 0.  1.
          2   -1    0    0  501    0  0.00000000000E+00 -0.00000000000E+00 -0.16986652019E+04  0.16986652019E+04  0.25500000000E-02 0. -1.
    8880023    1    1    2    0    0  0.44490824683E+03  0.40702265108E+03 -0.14085613168E+04  0.16677727591E+04  0.65864270000E+03 0. -1.
    8880022    1    1    2    0    0 -0.44490824683E+03 -0.40702265108E+03  0.44231627007E+03  0.76331259807E+03  0.15294330000E+03 0.  0.
<mgrwt>
<rscale>  0 0.81582515E+03</rscale>
<asrwt>0</asrwt>
<pdfrwt beam="1">  1        2 0.26133311E+00 0.89298432E+03</pdfrwt>
<pdfrwt beam="2">  1       -2 0.11268002E+00 0.89298432E+03</pdfrwt>
<totfact> 0.61419002E+00</totfact>
</mgrwt>
</event>
<event>
 4    1  0.3565372E-007  0.9813990E+03  0.7818608E-02  0.9406308E-01
          2   -1    0    0  501    0  0.00000000000E+00  0.00000000000E+00  0.21531384417E+04  0.21531384417E+04  0.25500000000E-02 0. -1.
         -2   -1    0    0    0  501 -0.00000000000E+00 -0.00000000000E+00 -0.60374170581E+03  0.60374170582E+03  0.25500000000E-02 0.  1.
    8880023    1    1    2    0    0  0.67782907448E+03  0.26435124572E+03 -0.60857106682E+02  0.98328410392E+03  0.65864270000E+03 0.  1.
    8880022    1    1    2    0    0 -0.67782907448E+03 -0.26435124572E+03  0.16102538425E+04  0.17735960436E+04  0.15294330000E+03 0.  0.
<mgrwt>
<rscale>  0 0.91558338E+03</rscale>
<asrwt>0</asrwt>
<pdfrwt beam="1">  1        2 0.33125207E+00 0.98139902E+03</pdfrwt>
<pdfrwt beam="2">  1       -2 0.92883339E-01 0.98139902E+03</pdfrwt>
<totfact> 0.54197691E+00</totfact>
</mgrwt>
</event>
<event>
 4    1  0.3565372E-007  0.7317555E+03  0.7818608E-02  0.9884648E-01
         -2   -1    0    0    0  501 -0.00000000000E+00  0.00000000000E+00  0.44552296151E+03  0.44552296152E+03  0.25500000000E-02 0.  1.
          2   -1    0    0  501    0  0.00000000000E+00 -0.00000000000E+00 -0.83876811958E+03  0.83876811958E+03  0.25500000000E-02 0. -1.
    8880023    1    1    2    0    0  0.27657771821E+03 -0.15862133616E+03 -0.53170355764E+03  0.90453017748E+03  0.65864270000E+03 0. -1.
    8880022    1    1    2    0    0 -0.27657771821E+03  0.15862133616E+03  0.13845839958E+03  0.37976090363E+03  0.15294330000E+03 0.  0.
<mgrwt>
<rscale>  0 0.61011112E+03</rscale>
<asrwt>0</asrwt>
<pdfrwt beam="1">  1        2 0.12904125E+00 0.73175554E+03</pdfrwt>
<pdfrwt beam="2">  1       -2 0.68541994E-01 0.73175554E+03</pdfrwt>
<totfact> 0.63848863E+01</totfact>
</mgrwt>
</event>
<event>
 4    1  0.3565372E-007  0.7884525E+03  0.7818608E-02  0.9736344E-01
          2   -1    0    0  501    0  0.00000000000E+00  0.00000000000E+00  0.70993742310E+03  0.70993742310E+03  0.25500000000E-02 0. -1.
         -2   -1    0    0    0  501 -0.00000000000E+00 -0.00000000000E+00 -0.11584850972E+04  0.11584850972E+04  0.25500000000E-02 0.  1.
    8880023    1    1    2    0    0 -0.18728600450E+03 -0.39085936802E+03  0.41439316853E+03  0.89071824807E+03  0.65864270000E+03 0. -1.
    8880022    1    1    2    0    0  0.18728600450E+03  0.39085936802E+03 -0.86294084262E+03  0.97770427223E+03  0.15294330000E+03 0.  0.
<mgrwt>
<rscale>  0 0.68893514E+03</rscale>
<asrwt>0</asrwt>
<pdfrwt beam="1">  1        2 0.10922114E+00 0.78845247E+03</pdfrwt>
<pdfrwt beam="2">  1       -2 0.17822848E+00 0.78845247E+03</pdfrwt>
<totfact> 0.76087003E+00</totfact>
</mgrwt>
</event>
<event>
 4    1  0.3565372E-007  0.6936592E+03  0.7818608E-02  0.1002460E+00
          2   -1    0    0  501    0  0.00000000000E+00  0.00000000000E+00  0.14674086604E+04  0.14674086605E+04  0.25500000000E-02 0. -1.
         -2   -1    0    0    0  501 -0.00000000000E+00 -0.00000000000E+00 -0.35173963263E+03  0.35173963264E+03  0.25500000000E-02 0.  1.
    8880023    1    1    2    0    0  0.14336834897E+03 -0.16370228958E+03  0.13150198460E+04  0.14867549646E+04  0.65864270000E+03 0. -1.
    8880022    1    1    2    0    0 -0.14336834897E+03  0.16370228958E+03 -0.19935081819E+03  0.33239332850E+03  0.15294330000E+03 0.  0.
<mgrwt>
<rscale>  0 0.54584743E+03</rscale>
<asrwt>0</asrwt>
<pdfrwt beam="1">  1        2 0.22575518E+00 0.69365923E+03</pdfrwt>
<pdfrwt beam="2">  1       -2 0.54113789E-01 0.69365923E+03</pdfrwt>
<totfact> 0.43789459E+01</totfact>
</mgrwt>
</event>
<event>
 4    1  0.3565372E-007  0.8368706E+03  0.7818608E-02  0.9636109E-01
         -2   -1    0    0    0  501 -0.00000000000E+00  0.00000000000E+00  0.61861447217E+03  0.61861447218E+03  0.25500000000E-02 0.  1.
          2   -1    0    0  501    0  0.00000000000E+00 -0.00000000000E+00 -0.22697867804E+04  0.22697867804E+04  0.25500000000E-02 0. -1.
    8880023    1    1    2    0    0  0.41967907380E+03 -0.30068537228E+03 -0.20526865427E+04  0.22167260694E+04  0.65864270000E+03 0.  0.
    8880022    1    1    2    0    0 -0.41967907380E+03  0.30068537228E+03  0.40151423450E+03  0.67167518311E+03  0.15294330000E+03 0.  0.
<mgrwt>
<rscale>  0 0.74951634E+03</rscale>
<asrwt>0</asrwt>
<pdfrwt beam="1">  1        2 0.34919796E+00 0.83687061E+03</pdfrwt>
<pdfrwt beam="2">  1       -2 0.95171459E-01 0.83687061E+03</pdfrwt>
<totfact> 0.45010734E+00</totfact>
</mgrwt>
</event>
<event>
 4    1  0.3565372E-007  0.1024460E+04  0.7818608E-02  0.9350233E-01
          2   -1    0    0  501    0  0.00000000000E+00  0.00000000000E+00  0.12295842091E+04  0.12295842091E+04  0.25500000000E-02 0. -1.
         -2   -1    0    0    0  501 -0.00000000000E+00 -0.00000000000E+00 -0.11039472029E+04  0.11039472029E+04  0.25500000000E-02 0.  1.
    8880023    1    1    2    0    0 -0.69197861182E+03 -0.36996508199E+03 -0.65517546579E+03  0.12160483783E+04  0.65864270000E+03 0.  1.
    8880022    1    1    2    0    0  0.69197861182E+03  0.36996508199E+03  0.78081247200E+03  0.11174830337E+04  0.15294330000E+03 0.  0.
<mgrwt>
<rscale>  0 0.96286954E+03</rscale>
<asrwt>0</asrwt>
<pdfrwt beam="1">  1        2 0.18916680E+00 0.10244602E+04</pdfrwt>
<pdfrwt beam="2">  1       -2 0.16983803E+00 0.10244602E+04</pdfrwt>
<totfact> 0.38425507E+00</totfact>
</mgrwt>
</event>
<event>
 4    1  0.3565372E-007  0.6606440E+03  0.7818608E-02  0.1023506E+00
          2   -1    0    0  501    0  0.00000000000E+00  0.00000000000E+00  0.26470317518E+04  0.26470317518E+04  0.25500000000E-02 0. -1.
         -2   -1    0    0    0  501 -0.00000000000E+00 -0.00000000000E+00 -0.77462515099E+02  0.77462515141E+02  0.25500000000E-02 0.  1.
    8880023    1    1    2    0    0 -0.36545887456E+02  0.36119887645E+02  0.24047575120E+04  0.24938542752E+04  0.65864270000E+03 0. -1.
    8880022    1    1    2    0    0  0.36545887456E+02 -0.36119887645E+02  0.16481172469E+03  0.23063999173E+03  0.15294330000E+03 0.  0.
<mgrwt>
<rscale>  0 0.46442313E+03</rscale>
<asrwt>0</asrwt>
<pdfrwt beam="1">  1        2 0.40723568E+00 0.66064397E+03</pdfrwt>
<pdfrwt beam="2">  1       -2 0.11917309E-01 0.66064397E+03</pdfrwt>
<totfact> 0.15484487E+02</totfact>
</mgrwt>
</event>
<event>
 4    1  0.3565372E-007  0.7021273E+03  0.7818608E-02  0.9988488E-01
         -2   -1    0    0    0  501 -0.00000000000E+00  0.00000000000E+00  0.59088246747E+03  0.59088246747E+03  0.25500000000E-02 0.  1.
          2   -1    0    0  501    0  0.00000000000E+00 -0.00000000000E+00 -0.87939610816E+03  0.87939610817E+03  0.25500000000E-02 0. -1.
    8880023    1    1    2    0    0  0.21571596051E+03  0.11242404700E+03 -0.68479972637E+03  0.98078204177E+03  0.65864270000E+03 0. -1.
    8880022    1    1    2    0    0 -0.21571596051E+03 -0.11242404700E+03  0.39628608567E+03  0.48949653387E+03  0.15294330000E+03 0.  0.
<mgrwt>
<rscale>  0 0.56157901E+03</rscale>
<asrwt>0</asrwt>
<pdfrwt beam="1">  1        2 0.13529171E+00 0.70212730E+03</pdfrwt>
<pdfrwt beam="2">  1       -2 0.90904994E-01 0.70212730E+03</pdfrwt>
<totfact> 0.31880961E+01</totfact>
</mgrwt>
</event>
<event>
 4    1  0.3565372E-007  0.9354330E+03  0.7818608E-02  0.9471390E-01
          2   -1    0    0  501    0  0.00000000000E+00  0.00000000000E+00  0.10041774524E+04  0.10041774524E+04  0.25500000000E-02 0. -1.
         -2   -1    0    0    0  501 -0.00000000000E+00 -0.00000000000E+00 -0.83500051036E+03  0.83500051036E+03  0.25500000000E-02 0.  1.
    8880023    1    1    2    0    0 -0.65749912465E+03 -0.94443826971E+02  0.52244969840E+03  0.10714423125E+04  0.65864270000E+03 0. -1.
    8880022    1    1    2    0    0  0.65749912465E+03  0.94443826971E+02 -0.35327275634E+03  0.76773565030E+03  0.15294330000E+03 0.  0.
<mgrwt>
<rscale>  0 0.86426383E+03</rscale>
<asrwt>0</asrwt>
<pdfrwt beam="1">  1        2 0.15448884E+00 0.93543302E+03</pdfrwt>
<pdfrwt beam="2">  1       -2 0.12846162E+00 0.93543302E+03</pdfrwt>
<totfact> 0.11180877E+01</totfact>
</mgrwt>
</event>
<event>
 4    1  0.3565372E-007  0.6743630E+03  0.7818608E-02  0.1012711E+00
         -2   -1    0    0    0  501 -0.00000000000E+00  0.00000000000E+00  0.57062341987E+03  0.57062341988E+03  0.25500000000E-02 0.  1.
          2   -1    0    0  501    0  0.00000000000E+00 -0.00000000000E+00 -0.10521205364E+04  0.10521205364E+04  0.25500000000E-02 0. -1.
    8880023    1    1    2    0    0 -0.13946176367E+03 -0.38803483032E+02 -0.91742804263E+03  0.11386130657E+04  0.65864270000E+03 0. -1.
    8880022    1    1    2    0    0  0.13946176367E+03  0.38803483032E+02  0.43593092610E+03  0.48413089053E+03  0.15294330000E+03 0.  1.
<mgrwt>
<rscale>  0 0.50411345E+03</rscale>
<asrwt>0</asrwt>
<pdfrwt beam="1">  1        2 0.16186470E+00 0.67436303E+03</pdfrwt>
<pdfrwt beam="2">  1       -2 0.87788219E-01 0.67436303E+03</pdfrwt>
<totfact> 0.26772425E+01</totfact>
</mgrwt>
</event>
<event>
 4    1  0.3565372E-007  0.7381061E+03  0.7818608E-02  0.9865499E-01
         -2   -1    0    0    0  501 -0.00000000000E+00  0.00000000000E+00  0.24064379688E+03  0.24064379689E+03  0.25500000000E-02 0.  1.
          2   -1    0    0  501    0  0.00000000000E+00 -0.00000000000E+00 -0.37557771184E+04  0.37557771184E+04  0.25500000000E-02 0. -1.
    8880023    1    1    2    0    0  0.29762698414E+03  0.14969483606E+03 -0.35521032451E+04  0.36279798836E+04  0.65864270000E+03 0. -1.
    8880022    1    1    2    0    0 -0.29762698414E+03 -0.14969483606E+03  0.36969923505E+02  0.36844103177E+03  0.15294330000E+03 0.  0.
<mgrwt>
<rscale>  0 0.61962899E+03</rscale>
<asrwt>0</asrwt>
<pdfrwt beam="1">  1        2 0.57781182E+00 0.73810607E+03</pdfrwt>
<pdfrwt beam="2">  1       -2 0.37022125E-01 0.73810607E+03</pdfrwt>
<totfact> 0.40040632E+00</totfact>
</mgrwt>
</event>
<event>
 4    1  0.3565372E-007  0.6734093E+03  0.7818608E-02  0.1013328E+00
         -2   -1    0    0    0  501 -0.00000000000E+00  0.00000000000E+00  0.22347254895E+03  0.22347254896E+03  0.25500000000E-02 0.  1.
          2   -1    0    0  501    0  0.00000000000E+00 -0.00000000000E+00 -0.15014040487E+04  0.15014040487E+04  0.25500000000E-02 0. -1.
    8880023    1    1    2    0    0  0.18637174477E+02 -0.13900535518E+03 -0.13471819177E+04  0.15061139262E+04  0.65864270000E+03 0. -1.
    8880022    1    1    2    0    0 -0.18637174477E+02  0.13900535518E+03  0.69250417926E+02  0.21876267149E+03  0.15294330000E+03 0.  0.
<mgrwt>
<rscale>  0 0.50173043E+03</rscale>
<asrwt>0</asrwt>
<pdfrwt beam="1">  1        2 0.23098523E+00 0.67340927E+03</pdfrwt>
<pdfrwt beam="2">  1       -2 0.34380393E-01 0.67340927E+03</pdfrwt>
<totfact> 0.10300344E+02</totfact>
</mgrwt>
</event>
<event>
 4    1  0.3565372E-007  0.6823966E+03  0.7818608E-02  0.1007999E+00
         -2   -1    0    0    0  501 -0.00000000000E+00  0.00000000000E+00  0.74026751888E+03  0.74026751888E+03  0.25500000000E-02 0.  1.
          2   -1    0    0  501    0  0.00000000000E+00 -0.00000000000E+00 -0.10028911109E+04  0.10028911109E+04  0.25500000000E-02 0. -1.
    8880023    1    1    2    0    0  0.67889706174E+02 -0.16506338254E+03 -0.86195908790E+03  0.10993810113E+04  0.65864270000E+03 0. -1.
    8880022    1    1    2    0    0 -0.67889706174E+02  0.16506338254E+03  0.59933549588E+03  0.64377761851E+03  0.15294330000E+03 0.  0.
<mgrwt>
<rscale>  0 0.52277622E+03</rscale>
<asrwt>0</asrwt>
<pdfrwt beam="1">  1        2 0.15429094E+00 0.68239661E+03</pdfrwt>
<pdfrwt beam="2">  1       -2 0.11388731E+00 0.68239661E+03</pdfrwt>
<totfact> 0.15519774E+01</totfact>
</mgrwt>
</event>
<event>
 4    1  0.3565372E-007  0.8193769E+03  0.7818608E-02  0.9670366E-01
         -2   -1    0    0    0  501 -0.00000000000E+00  0.00000000000E+00  0.27516448556E+03  0.27516448557E+03  0.25500000000E-02 0.  1.
          2   -1    0    0  501    0  0.00000000000E+00 -0.00000000000E+00 -0.24868829075E+04  0.24868829075E+04  0.25500000000E-02 0. -1.
    8880023    1    1    2    0    0  0.44503314621E+03  0.19878057558E+03 -0.20784183988E+04  0.22340996990E+04  0.65864270000E+03 0. -1.
    8880022    1    1    2    0    0 -0.44503314621E+03 -0.19878057558E+03 -0.13330002311E+03  0.52794769403E+03  0.15294330000E+03 0.  0.
<mgrwt>
<rscale>  0 0.72808902E+03</rscale>
<asrwt>0</asrwt>
<pdfrwt beam="1">  1        2 0.38259736E+00 0.81937685E+03</pdfrwt>
<pdfrwt beam="2">  1       -2 0.42332999E-01 0.81937685E+03</pdfrwt>
<totfact> 0.19393795E+01</totfact>
</mgrwt>
</event>
<event>
 4    1  0.3565372E-007  0.6768294E+03  0.7818608E-02  0.1011177E+00
         -2   -1    0    0    0  501 -0.00000000000E+00  0.00000000000E+00  0.26096894625E+03  0.26096894626E+03  0.25500000000E-02 0.  1.
          2   -1    0    0  501    0  0.00000000000E+00 -0.00000000000E+00 -0.94510448849E+03  0.94510448849E+03  0.25500000000E-02 0. -1.
    8880023    1    1    2    0    0 -0.14137518661E+03 -0.65580767611E+02 -0.71615607672E+03  0.98538191223E+03  0.65864270000E+03 0. -1.
    8880022    1    1    2    0    0  0.14137518661E+03  0.65580767611E+02  0.32020534483E+02  0.22069152252E+03  0.15294330000E+03 0.  0.
<mgrwt>
<rscale>  0 0.51009466E+03</rscale>
<asrwt>0</asrwt>
<pdfrwt beam="1">  1        2 0.14540069E+00 0.67682936E+03</pdfrwt>
<pdfrwt beam="2">  1       -2 0.40149069E-01 0.67682936E+03</pdfrwt>
<totfact> 0.16313010E+02</totfact>
</mgrwt>
</event>
<event>
 4    1  0.3565372E-007  0.7074184E+03  0.7818608E-02  0.9967715E-01
          2   -1    0    0  501    0  0.00000000000E+00  0.00000000000E+00  0.45525021110E+03  0.45525021110E+03  0.25500000000E-02 0. -1.
         -2   -1    0    0    0  501 -0.00000000000E+00 -0.00000000000E+00 -0.17618577136E+04  0.17618577136E+04  0.25500000000E-02 0.  1.
    8880023    1    1    2    0    0  0.89395800734E+02 -0.24215481256E+03  0.15568880684E+03  0.72434782617E+03  0.65864270000E+03 0. -1.
    8880022    1    1    2    0    0 -0.89395800734E+02  0.24215481256E+03 -0.14622963093E+04  0.14927600985E+04  0.15294330000E+03 0.  0.
<mgrwt>
<rscale>  0 0.57088807E+03</rscale>
<asrwt>0</asrwt>
<pdfrwt beam="1">  1        2 0.70038495E-01 0.70741838E+03</pdfrwt>
<pdfrwt beam="2">  1       -2 0.27105503E+00 0.70741838E+03</pdfrwt>
<totfact> 0.34088837E+00</totfact>
</mgrwt>
</event>
<event>
 4    1  0.3565372E-007  0.8941696E+03  0.7818608E-02  0.9535457E-01
          2   -1    0    0  501    0  0.00000000000E+00  0.00000000000E+00  0.30882441464E+04  0.30882441464E+04  0.25500000000E-02 0. -1.
         -2   -1    0    0    0  501 -0.00000000000E+00 -0.00000000000E+00 -0.23231729364E+03  0.23231729365E+03  0.25500000000E-02 0.  1.
    8880023    1    1    2    0    0 -0.26559010550E+03 -0.54331475234E+03  0.23597984654E+04  0.25235269025E+04  0.65864270000E+03 0.  0.
    8880022    1    1    2    0    0  0.26559010550E+03  0.54331475234E+03  0.49612838739E+03  0.79703453755E+03  0.15294330000E+03 0.  0.
<mgrwt>
<rscale>  0 0.81719454E+03</rscale>
<asrwt>0</asrwt>
<pdfrwt beam="1">  1        2 0.47511451E+00 0.89416958E+03</pdfrwt>
<pdfrwt beam="2">  1       -2 0.35741120E-01 0.89416958E+03</pdfrwt>
<totfact> 0.11720475E+01</totfact>
</mgrwt>
</event>
<event>
 4    1  0.3565372E-007  0.7557463E+03  0.7818608E-02  0.9816247E-01
          2   -1    0    0  501    0  0.00000000000E+00  0.00000000000E+00  0.16073502875E+04  0.16073502875E+04  0.25500000000E-02 0. -1.
         -2   -1    0    0    0  501 -0.00000000000E+00 -0.00000000000E+00 -0.23732324955E+03  0.23732324957E+03  0.25500000000E-02 0.  1.
    8880023    1    1    2    0    0 -0.37057505730E+03 -0.40566270009E+01  0.11793561566E+04  0.14007260545E+04  0.65864270000E+03 0.  0.
    8880022    1    1    2    0    0  0.37057505730E+03  0.40566270009E+01  0.19067088141E+03  0.44394748265E+03  0.15294330000E+03 0.  0.
<mgrwt>
<rscale>  0 0.64497890E+03</rscale>
<asrwt>0</asrwt>
<pdfrwt beam="1">  1        2 0.24728466E+00 0.75574634E+03</pdfrwt>
<pdfrwt beam="2">  1       -2 0.36511269E-01 0.75574634E+03</pdfrwt>
<totfact> 0.79607995E+01</totfact>
</mgrwt>
</event>
<event>
 4    1  0.3565372E-007  0.7740336E+03  0.7818608E-02  0.9770043E-01
         -2   -1    0    0    0  501 -0.00000000000E+00  0.00000000000E+00  0.28962940893E+03  0.28962940895E+03  0.25500000000E-02 0.  1.
          2   -1    0    0  501    0  0.00000000000E+00 -0.00000000000E+00 -0.21475158986E+04  0.21475158986E+04  0.25500000000E-02 0. -1.
    8880023    1    1    2    0    0  0.15002534819E+03  0.37790236199E+03 -0.18469658775E+04  0.20026010485E+04  0.65864270000E+03 0. -1.
    8880022    1    1    2    0    0 -0.15002534819E+03 -0.37790236199E+03 -0.10920612114E+02  0.43454425906E+03  0.15294330000E+03 0.  0.
<mgrwt>
<rscale>  0 0.66995258E+03</rscale>
<asrwt>0</asrwt>
<pdfrwt beam="1">  1        2 0.33038705E+00 0.77403360E+03</pdfrwt>
<pdfrwt beam="2">  1       -2 0.44558372E-01 0.77403360E+03</pdfrwt>
<totfact> 0.27261457E+01</totfact>
</mgrwt>
</event>
<event>
 4    1  0.3565372E-007  0.6680903E+03  0.7818608E-02  0.1017070E+00
         -2   -1    0    0    0  501 -0.00000000000E+00  0.00000000000E+00  0.16207962747E+03  0.16207962749E+03  0.25500000000E-02 0.  1.
          2   -1    0    0  501    0  0.00000000000E+00 -0.00000000000E+00 -0.28410663395E+04  0.28410663395E+04  0.25500000000E-02 0. -1.
    8880023    1    1    2    0    0 -0.79137882038E+02  0.79193754393E+02 -0.27269769234E+04  0.28076231588E+04  0.65864270000E+03 0. -1.
    8880022    1    1    2    0    0  0.79137882038E+02 -0.79193754393E+02  0.47990211354E+02  0.19552280816E+03  0.15294330000E+03 0.  0.
<mgrwt>
<rscale>  0 0.48758760E+03</rscale>
<asrwt>0</asrwt>
<pdfrwt beam="1">  1        2 0.43708709E+00 0.66809031E+03</pdfrwt>
<pdfrwt beam="2">  1       -2 0.24935329E-01 0.66809031E+03</pdfrwt>
<totfact> 0.33514150E+01</totfact>
</mgrwt>
</event>
<event>
 4    1  0.3565372E-007  0.1289379E+04  0.7818608E-02  0.9074787E-01
          2   -1    0    0  501    0  0.00000000000E+00  0.00000000000E+00  0.24300389245E+04  0.24300389246E+04  0.25500000000E-02 0. -1.
         -2   -1    0    0    0  501 -0.00000000000E+00 -0.00000000000E+00 -0.76738773403E+03  0.76738773404E+03  0.25500000000E-02 0.  1.
    8880023    1    1    2    0    0 -0.95708904333E+03 -0.55916746792E+03  0.16295638356E+04  0.20779740602E+04  0.65864270000E+03 0.  0.
    8880022    1    1    2    0    0  0.95708904333E+03  0.55916746792E+03  0.33087354872E+02  0.11194525984E+04  0.15294330000E+03 0.  0.
<mgrwt>
<rscale>  0 0.12444842E+04</rscale>
<asrwt>0</asrwt>
<pdfrwt beam="1">  1        2 0.37385214E+00 0.12893789E+04</pdfrwt>
<pdfrwt beam="2">  1       -2 0.11805965E+00 0.12893789E+04</pdfrwt>
<totfact> 0.20496215E+00</totfact>
</mgrwt>
</event>
<event>
 4    1  0.3565372E-007  0.6631031E+03  0.7818608E-02  0.1021181E+00
         -2   -1    0    0    0  501 -0.00000000000E+00  0.00000000000E+00  0.63106934128E+02  0.63106934180E+02  0.25500000000E-02 0.  1.
          2   -1    0    0  501    0  0.00000000000E+00 -0.00000000000E+00 -0.27635458534E+04  0.27635458535E+04  0.25500000000E-02 0. -1.
    8880023    1    1    2    0    0 -0.35422665641E+02 -0.68122892849E+02 -0.20891758320E+04  0.21918853431E+04  0.65864270000E+03 0.  1.
    8880022    1    1    2    0    0  0.35422665641E+02  0.68122892849E+02 -0.61126308729E+03  0.63476744456E+03  0.15294330000E+03 0. -1.
<mgrwt>
<rscale>  0 0.47262906E+03</rscale>
<asrwt>0</asrwt>
<pdfrwt beam="1">  1        2 0.42516081E+00 0.66310308E+03</pdfrwt>
<pdfrwt beam="2">  1       -2 0.97087612E-02 0.66310308E+03</pdfrwt>
<totfact> 0.18520990E+02</totfact>
</mgrwt>
</event>
<event>
 4    1  0.3565372E-007  0.7220830E+03  0.7818608E-02  0.9915600E-01
         -2   -1    0    0    0  501 -0.00000000000E+00  0.00000000000E+00  0.96443597482E+02  0.96443597516E+02  0.25500000000E-02 0.  1.
          2   -1    0    0  501    0  0.00000000000E+00 -0.00000000000E+00 -0.33138589048E+04  0.33138589048E+04  0.25500000000E-02 0. -1.
    8880023    1    1    2    0    0 -0.22445020739E+03 -0.19291392622E+03 -0.15501409049E+04  0.17100703815E+04  0.65864270000E+03 0.  0.
    8880022    1    1    2    0    0  0.22445020739E+03  0.19291392622E+03 -0.16672744025E+04  0.17002321209E+04  0.15294330000E+03 0.  0.
<mgrwt>
<rscale>  0 0.59511178E+03</rscale>
<asrwt>0</asrwt>
<pdfrwt beam="1">  1        2 0.50982436E+00 0.72208302E+03</pdfrwt>
<pdfrwt beam="2">  1       -2 0.14837479E-01 0.72208302E+03</pdfrwt>
<totfact> 0.41726760E+01</totfact>
</mgrwt>
</event>
<event>
 4    1  0.3565372E-007  0.7292561E+03  0.7818608E-02  0.9892427E-01
          2   -1    0    0  501    0  0.00000000000E+00  0.00000000000E+00  0.21951231133E+04  0.21951231133E+04  0.25500000000E-02 0. -1.
         -2   -1    0    0    0  501 -0.00000000000E+00 -0.00000000000E+00 -0.17992593179E+03  0.17992593181E+03  0.25500000000E-02 0.  1.
    8880023    1    1    2    0    0  0.77526780994E+02  0.30330499107E+03  0.18517958217E+04  0.19902166442E+04  0.65864270000E+03 0. -1.
    8880022    1    1    2    0    0 -0.77526780994E+02 -0.30330499107E+03  0.16340135982E+03  0.38483240091E+03  0.15294330000E+03 0.  0.
<mgrwt>
<rscale>  0 0.60629726E+03</rscale>
<asrwt>0</asrwt>
<pdfrwt beam="1">  1        2 0.33771124E+00 0.72925615E+03</pdfrwt>
<pdfrwt beam="2">  1       -2 0.27680913E-01 0.72925615E+03</pdfrwt>
<totfact> 0.64006122E+01</totfact>
</mgrwt>
</event>
<event>
 4    1  0.3565372E-007  0.6735154E+03  0.7818608E-02  0.1013259E+00
         -2   -1    0    0    0  501 -0.00000000000E+00  0.00000000000E+00  0.38567743313E+03  0.38567743314E+03  0.25500000000E-02 0.  1.
          2   -1    0    0  501    0  0.00000000000E+00 -0.00000000000E+00 -0.50803258577E+03  0.50803258578E+03  0.25500000000E-02 0. -1.
    8880023    1    1    2    0    0 -0.13152106428E+03 -0.50149132651E+02 -0.12895124246E+03  0.68574875505E+03  0.65864270000E+03 0. -1.
    8880022    1    1    2    0    0  0.13152106428E+03  0.50149132651E+02  0.65960898191E+01  0.20796126387E+03  0.15294330000E+03 0. -1.
<mgrwt>
<rscale>  0 0.50199755E+03</rscale>
<asrwt>0</asrwt>
<pdfrwt beam="1">  1        2 0.78158860E-01 0.67351535E+03</pdfrwt>
<pdfrwt beam="2">  1       -2 0.59334989E-01 0.67351535E+03</pdfrwt>
<totfact> 0.16247920E+02</totfact>
</mgrwt>
</event>
<event>
 4    1  0.3565372E-007  0.1167485E+04  0.7818608E-02  0.9189396E-01
         -2   -1    0    0    0  501 -0.00000000000E+00  0.00000000000E+00  0.10945755926E+04  0.10945755926E+04  0.25500000000E-02 0.  1.
          2   -1    0    0  501    0  0.00000000000E+00 -0.00000000000E+00 -0.14986836742E+04  0.14986836742E+04  0.25500000000E-02 0. -1.
    8880023    1    1    2    0    0  0.76052464907E+03  0.59229420791E+03 -0.92264672220E+03  0.14880515283E+04  0.65864270000E+03 0.  0.
    8880022    1    1    2    0    0 -0.76052464907E+03 -0.59229420791E+03  0.51853864056E+03  0.11052077385E+04  0.15294330000E+03 0.  0.
<mgrwt>
<rscale>  0 0.11163550E+04</rscale>
<asrwt>0</asrwt>
<pdfrwt beam="1">  1        2 0.23056672E+00 0.11674846E+04</pdfrwt>
<pdfrwt beam="2">  1       -2 0.16839624E+00 0.11674846E+04</pdfrwt>
<totfact> 0.27105122E+00</totfact>
</mgrwt>
</event>
<event>
 4    1  0.3565372E-007  0.6764492E+03  0.7818608E-02  0.1011408E+00
          2   -1    0    0  501    0  0.00000000000E+00  0.00000000000E+00  0.12183672776E+04  0.12183672776E+04  0.25500000000E-02 0. -1.
         -2   -1    0    0    0  501 -0.00000000000E+00 -0.00000000000E+00 -0.18974905104E+03  0.18974905106E+03  0.25500000000E-02 0.  1.
    8880023    1    1    2    0    0  0.13588334376E+03  0.72862843877E+02  0.97105813781E+03  0.11834430237E+04  0.65864270000E+03 0. -1.
    8880022    1    1    2    0    0 -0.13588334376E+03 -0.72862843877E+02  0.57560088774E+02  0.22467330496E+03  0.15294330000E+03 0.  0.
<mgrwt>
<rscale>  0 0.50918872E+03</rscale>
<asrwt>0</asrwt>
<pdfrwt beam="1">  1        2 0.18744112E+00 0.67644917E+03</pdfrwt>
<pdfrwt beam="2">  1       -2 0.29192161E-01 0.67644917E+03</pdfrwt>
<totfact> 0.20252701E+02</totfact>
</mgrwt>
</event>
<event>
 4    1  0.3565372E-007  0.8075230E+03  0.7818608E-02  0.9694760E-01
          2   -1    0    0  501    0  0.00000000000E+00  0.00000000000E+00  0.11976401770E+04  0.11976401770E+04  0.25500000000E-02 0. -1.
         -2   -1    0    0    0  501 -0.00000000000E+00 -0.00000000000E+00 -0.50010967142E+03  0.50010967142E+03  0.25500000000E-02 0.  1.
    8880023    1    1    2    0    0 -0.16878250872E+03 -0.43565543012E+03  0.86028126757E+03  0.11799056126E+04  0.65864270000E+03 0.  0.
    8880022    1    1    2    0    0  0.16878250872E+03  0.43565543012E+03 -0.16275076199E+03  0.51784423583E+03  0.15294330000E+03 0.  0.
<mgrwt>
<rscale>  0 0.71329652E+03</rscale>
<asrwt>0</asrwt>
<pdfrwt beam="1">  1        2 0.18425233E+00 0.80752300E+03</pdfrwt>
<pdfrwt beam="2">  1       -2 0.76939949E-01 0.80752300E+03</pdfrwt>
<totfact> 0.29033864E+01</totfact>
</mgrwt>
</event>
<event>
 4    1  0.3565372E-007  0.7669860E+03  0.7818608E-02  0.9787346E-01
         -2   -1    0    0    0  501 -0.00000000000E+00  0.00000000000E+00  0.42978768624E+03  0.42978768624E+03  0.25500000000E-02 0.  1.
          2   -1    0    0  501    0  0.00000000000E+00 -0.00000000000E+00 -0.11004258884E+04  0.11004258884E+04  0.25500000000E-02 0. -1.
    8880023    1    1    2    0    0 -0.35155283446E+03 -0.17569254262E+03 -0.78064250717E+03  0.10943811928E+04  0.65864270000E+03 0.  0.
    8880022    1    1    2    0    0  0.35155283446E+03  0.17569254262E+03  0.11000430497E+03  0.43583238186E+03  0.15294330000E+03 0.  0.
<mgrwt>
<rscale>  0 0.66046068E+03</rscale>
<asrwt>0</asrwt>
<pdfrwt beam="1">  1        2 0.16929629E+00 0.76698597E+03</pdfrwt>
<pdfrwt beam="2">  1       -2 0.66121183E-01 0.76698597E+03</pdfrwt>
<totfact> 0.46505662E+01</totfact>
</mgrwt>
</event>
<event>
 4    1  0.3565372E-007  0.7804815E+03  0.7818608E-02  0.9754707E-01
          2   -1    0    0  501    0  0.00000000000E+00  0.00000000000E+00  0.50716017664E+03  0.50716017664E+03  0.25500000000E-02 0. -1.
         -2   -1    0    0    0  501 -0.00000000000E+00 -0.00000000000E+00 -0.16366817678E+04  0.16366817678E+04  0.25500000000E-02 0.  1.
    8880023    1    1    2    0    0  0.26329033743E+03 -0.32560613228E+03  0.14479506488E+03  0.79379907548E+03  0.65864270000E+03 0. -1.
    8880022    1    1    2    0    0 -0.26329033743E+03  0.32560613228E+03 -0.12743166560E+04  0.13500428689E+04  0.15294330000E+03 0.  0.
<mgrwt>
<rscale>  0 0.67850906E+03</rscale>
<asrwt>0</asrwt>
<pdfrwt beam="1">  1        2 0.78024644E-01 0.78048149E+03</pdfrwt>
<pdfrwt beam="2">  1       -2 0.25179719E+00 0.78048149E+03</pdfrwt>
<totfact> 0.38910778E+00</totfact>
</mgrwt>
</event>
<event>
 4    1  0.3565372E-007  0.6626739E+03  0.7818608E-02  0.1021570E+00
          2   -1    0    0  501    0  0.00000000000E+00  0.00000000000E+00  0.18844471031E+04  0.18844471031E+04  0.25500000000E-02 0. -1.
         -2   -1    0    0    0  501 -0.00000000000E+00 -0.00000000000E+00 -0.18711122253E+03  0.18711122255E+03  0.25500000000E-02 0.  1.
    8880023    1    1    2    0    0 -0.33007950591E+02 -0.65091862020E+02  0.17678795855E+04  0.18879975928E+04  0.65864270000E+03 0.  0.
    8880022    1    1    2    0    0  0.33007950591E+02  0.65091862020E+02 -0.70543704979E+02  0.18356073281E+03  0.15294330000E+03 0.  1.
<mgrwt>
<rscale>  0 0.47124246E+03</rscale>
<asrwt>0</asrwt>
<pdfrwt beam="1">  1        2 0.28991494E+00 0.66267389E+03</pdfrwt>
<pdfrwt beam="2">  1       -2 0.28786342E-01 0.66267389E+03</pdfrwt>
<totfact> 0.88723926E+01</totfact>
</mgrwt>
</event>
<event>
 4    1  0.3565372E-007  0.1006277E+04  0.7818608E-02  0.9373391E-01
          2   -1    0    0  501    0  0.00000000000E+00  0.00000000000E+00  0.17420857066E+04  0.17420857066E+04  0.25500000000E-02 0. -1.
         -2   -1    0    0    0  501 -0.00000000000E+00 -0.00000000000E+00 -0.85580415404E+03  0.85580415405E+03  0.25500000000E-02 0.  1.
    8880023    1    1    2    0    0  0.76048128389E+03 -0.21238831876E+02  0.13576745212E+04  0.16899328930E+04  0.65864270000E+03 0.  0.
    8880022    1    1    2    0    0 -0.76048128389E+03  0.21238831876E+02 -0.47139296866E+03  0.90795696761E+03  0.15294330000E+03 0.  0.
<mgrwt>
<rscale>  0 0.94298200E+03</rscale>
<asrwt>0</asrwt>
<pdfrwt beam="1">  1        2 0.26801318E+00 0.10062768E+04</pdfrwt>
<pdfrwt beam="2">  1       -2 0.13166218E+00 0.10062768E+04</pdfrwt>
<totfact> 0.38866252E+00</totfact>
</mgrwt>
</event>
<event>
 4    1  0.3565372E-007  0.6656707E+03  0.7818608E-02  0.1018977E+00
         -2   -1    0    0    0  501 -0.00000000000E+00  0.00000000000E+00  0.21876555929E+03  0.21876555931E+03  0.25500000000E-02 0.  1.
          2   -1    0    0  501    0  0.00000000000E+00 -0.00000000000E+00 -0.14711529858E+04  0.14711529858E+04  0.25500000000E-02 0. -1.
    8880023    1    1    2    0    0 -0.43934618464E+02  0.85889842274E+02 -0.13345069472E+04  0.14913169730E+04  0.65864270000E+03 0. -1.
    8880022    1    1    2    0    0  0.43934618464E+02 -0.85889842274E+02  0.82119520742E+02  0.19860157202E+03  0.15294330000E+03 0.  0.
<mgrwt>
<rscale>  0 0.48057520E+03</rscale>
<asrwt>0</asrwt>
<pdfrwt beam="1">  1        2 0.22633122E+00 0.66567073E+03</pdfrwt>
<pdfrwt beam="2">  1       -2 0.33656241E-01 0.66567073E+03</pdfrwt>
<totfact> 0.11155466E+02</totfact>
</mgrwt>
</event>
<event>
 4    1  0.3565372E-007  0.1220009E+04  0.7818608E-02  0.9137913E-01
          2   -1    0    0  501    0  0.00000000000E+00  0.00000000000E+00  0.22906354364E+04  0.22906354364E+04  0.25500000000E-02 0. -1.
         -2   -1    0    0    0  501 -0.00000000000E+00 -0.00000000000E+00 -0.67154197642E+03  0.67154197643E+03  0.25500000000E-02 0.  1.
    8880023    1    1    2    0    0  0.11949378786E+02 -0.10268736510E+04  0.14746625471E+04  0.19139101642E+04  0.65864270000E+03 0.  0.
    8880022    1    1    2    0    0 -0.11949378786E+02  0.10268736510E+04  0.14443091289E+03  0.10482672486E+04  0.15294330000E+03 0.  0.
<mgrwt>
<rscale>  0 0.11717902E+04</rscale>
<asrwt>0</asrwt>
<pdfrwt beam="1">  1        2 0.35240545E+00 0.12200092E+04</pdfrwt>
<pdfrwt beam="2">  1       -2 0.10331415E+00 0.12200092E+04</pdfrwt>
<totfact> 0.34319761E+00</totfact>
</mgrwt>
</event>
<event>
 4    1  0.3565372E-007  0.1041111E+04  0.7818608E-02  0.9329644E-01
          2   -1    0    0  501    0  0.00000000000E+00  0.00000000000E+00  0.84749948442E+03  0.84749948443E+03  0.25500000000E-02 0. -1.
         -2   -1    0    0    0  501 -0.00000000000E+00 -0.00000000000E+00 -0.14890214802E+04  0.14890214802E+04  0.25500000000E-02 0.  1.
    8880023    1    1    2    0    0 -0.80052456199E+03 -0.96241649951E+02 -0.99761802254E+03  0.14419271669E+04  0.65864270000E+03 0.  0.
    8880022    1    1    2    0    0  0.80052456199E+03  0.96241649951E+02  0.35609602679E+03  0.89459379768E+03  0.15294330000E+03 0.  0.
<mgrwt>
<rscale>  0 0.98098979E+03</rscale>
<asrwt>0</asrwt>
<pdfrwt beam="1">  1        2 0.13038454E+00 0.10411111E+04</pdfrwt>
<pdfrwt beam="2">  1       -2 0.22908023E+00 0.10411111E+04</pdfrwt>
<totfact> 0.27345804E+00</totfact>
</mgrwt>
</event>
<event>
 4    1  0.3565372E-007  0.6888273E+03  0.7818608E-02  0.1004715E+00
         -2   -1    0    0    0  501 -0.00000000000E+00  0.00000000000E+00  0.58216603364E+03  0.58216603365E+03  0.25500000000E-02 0.  1.
          2   -1    0    0  501    0  0.00000000000E+00 -0.00000000000E+00 -0.41052455737E+03  0.41052455738E+03  0.25500000000E-02 0. -1.
    8880023    1    1    2    0    0 -0.19069078826E+03 -0.65649248528E+02  0.24180507411E+03  0.73003609547E+03  0.65864270000E+03 0.  0.
    8880022    1    1    2    0    0  0.19069078826E+03  0.65649248528E+02 -0.70163597839E+02  0.26265449556E+03  0.15294330000E+03 0.  1.
<mgrwt>
<rscale>  0 0.53630258E+03</rscale>
<asrwt>0</asrwt>
<pdfrwt beam="1">  1        2 0.63157624E-01 0.68882727E+03</pdfrwt>
<pdfrwt beam="2">  1       -2 0.89564005E-01 0.68882727E+03</pdfrwt>
<totfact> 0.83690354E+01</totfact>
</mgrwt>
</event>
<event>
 4    1  0.3565372E-007  0.7143966E+03  0.7818608E-02  0.9942023E-01
         -2   -1    0    0    0  501 -0.00000000000E+00  0.00000000000E+00  0.15961936068E+03  0.15961936070E+03  0.25500000000E-02 0.  1.
          2   -1    0    0  501    0  0.00000000000E+00 -0.00000000000E+00 -0.18581903457E+04  0.18581903457E+04  0.25500000000E-02 0. -1.
    8880023    1    1    2    0    0  0.27513118249E+03  0.29243713772E+02 -0.14471654460E+04  0.16138929323E+04  0.65864270000E+03 0.  0.
    8880022    1    1    2    0    0 -0.27513118249E+03 -0.29243713772E+02 -0.25140553898E+03  0.40391677412E+03  0.15294330000E+03 0.  0.
<mgrwt>
<rscale>  0 0.58267201E+03</rscale>
<asrwt>0</asrwt>
<pdfrwt beam="1">  1        2 0.28587542E+00 0.71439665E+03</pdfrwt>
<pdfrwt beam="2">  1       -2 0.24556826E-01 0.71439665E+03</pdfrwt>
<totfact> 0.12171530E+02</totfact>
</mgrwt>
</event>
<event>
 4    1  0.3565372E-007  0.7543642E+03  0.7818608E-02  0.9819923E-01
         -2   -1    0    0    0  501 -0.00000000000E+00  0.00000000000E+00  0.40745589687E+03  0.40745589687E+03  0.25500000000E-02 0.  1.
          2   -1    0    0  501    0  0.00000000000E+00 -0.00000000000E+00 -0.11025240573E+04  0.11025240573E+04  0.25500000000E-02 0. -1.
    8880023    1    1    2    0    0 -0.35274056310E+03 -0.10406388198E+03 -0.79847977593E+03  0.10984695513E+04  0.65864270000E+03 0.  1.
    8880022    1    1    2    0    0  0.35274056310E+03  0.10406388198E+03  0.10341161552E+03  0.41151040282E+03  0.15294330000E+03 0.  0.
<mgrwt>
<rscale>  0 0.64304261E+03</rscale>
<asrwt>0</asrwt>
<pdfrwt beam="1">  1        2 0.16961908E+00 0.75436424E+03</pdfrwt>
<pdfrwt beam="2">  1       -2 0.62685523E-01 0.75436424E+03</pdfrwt>
<totfact> 0.52047535E+01</totfact>
</mgrwt>
</event>
<event>
 4    1  0.3565372E-007  0.9940078E+03  0.7818608E-02  0.9389440E-01
         -2   -1    0    0    0  501 -0.00000000000E+00  0.00000000000E+00  0.92367727533E+03  0.92367727533E+03  0.25500000000E-02 0.  1.
          2   -1    0    0  501    0  0.00000000000E+00 -0.00000000000E+00 -0.21450501968E+04  0.21450501968E+04  0.25500000000E-02 0. -1.
    8880023    1    1    2    0    0  0.86654581698E+02  0.73941343718E+03 -0.18383014087E+04  0.20898333721E+04  0.65864270000E+03 0.  0.
    8880022    1    1    2    0    0 -0.86654581698E+02 -0.73941343718E+03  0.61692848726E+03  0.97889410000E+03  0.15294330000E+03 0.  0.
<mgrwt>
<rscale>  0 0.92949878E+03</rscale>
<asrwt>0</asrwt>
<pdfrwt beam="1">  1        2 0.33000772E+00 0.99400777E+03</pdfrwt>
<pdfrwt beam="2">  1       -2 0.14210420E+00 0.99400777E+03</pdfrwt>
<totfact> 0.19169243E+00</totfact>
</mgrwt>
</event>
<event>
 4    1  0.3565372E-007  0.7540593E+03  0.7818608E-02  0.9820737E-01
         -2   -1    0    0    0  501 -0.00000000000E+00  0.00000000000E+00  0.68090344813E+03  0.68090344813E+03  0.25500000000E-02 0.  1.
          2   -1    0    0  501    0  0.00000000000E+00 -0.00000000000E+00 -0.66366224261E+03  0.66366224261E+03  0.25500000000E-02 0. -1.
    8880023    1    1    2    0    0  0.35837495509E+03 -0.79766241228E+02 -0.32380082051E+03  0.82064148037E+03  0.65864270000E+03 0. -1.
    8880022    1    1    2    0    0 -0.35837495509E+03  0.79766241228E+02  0.34104202603E+03  0.52392421037E+03  0.15294330000E+03 0.  1.
<mgrwt>
<rscale>  0 0.64261440E+03</rscale>
<asrwt>0</asrwt>
<pdfrwt beam="1">  1        2 0.10210188E+00 0.75405933E+03</pdfrwt>
<pdfrwt beam="2">  1       -2 0.10475438E+00 0.75405933E+03</pdfrwt>
<totfact> 0.32801883E+01</totfact>
</mgrwt>
</event>
<event>
 4    1  0.3565372E-007  0.7729389E+03  0.7818608E-02  0.9772693E-01
         -2   -1    0    0    0  501 -0.00000000000E+00  0.00000000000E+00  0.31248186349E+03  0.31248186350E+03  0.25500000000E-02 0.  1.
          2   -1    0    0  501    0  0.00000000000E+00 -0.00000000000E+00 -0.29210749422E+04  0.29210749422E+04  0.25500000000E-02 0. -1.
    8880023    1    1    2    0    0  0.26474425965E+03 -0.30583469444E+03 -0.26853217394E+04  0.27943491968E+04  0.65864270000E+03 0. -1.
    8880022    1    1    2    0    0 -0.26474425965E+03  0.30583469444E+03  0.76728660663E+02  0.43920760891E+03  0.15294330000E+03 0.  0.
<mgrwt>
<rscale>  0 0.66848819E+03</rscale>
<asrwt>0</asrwt>
<pdfrwt beam="1">  1        2 0.44939613E+00 0.77293893E+03</pdfrwt>
<pdfrwt beam="2">  1       -2 0.48074135E-01 0.77293893E+03</pdfrwt>
<totfact> 0.84503471E+00</totfact>
</mgrwt>
</event>
<event>
 4    1  0.3565372E-007  0.7057189E+03  0.7818608E-02  0.9974256E-01
          2   -1    0    0  501    0  0.00000000000E+00  0.00000000000E+00  0.10073062738E+04  0.10073062738E+04  0.25500000000E-02 0. -1.
         -2   -1    0    0    0  501 -0.00000000000E+00 -0.00000000000E+00 -0.55087514341E+03  0.55087514342E+03  0.25500000000E-02 0.  1.
    8880023    1    1    2    0    0  0.15180910004E+03  0.20293571546E+03  0.82486950086E+03  0.10855638199E+04  0.65864270000E+03 0.  0.
    8880022    1    1    2    0    0 -0.15180910004E+03 -0.20293571546E+03 -0.36843837043E+03  0.47261759731E+03  0.15294330000E+03 0.  0.
<mgrwt>
<rscale>  0 0.56793620E+03</rscale>
<asrwt>0</asrwt>
<pdfrwt beam="1">  1        2 0.15497019E+00 0.70571886E+03</pdfrwt>
<pdfrwt beam="2">  1       -2 0.84750023E-01 0.70571886E+03</pdfrwt>
<totfact> 0.30850691E+01</totfact>
</mgrwt>
</event>
<event>
 4    1  0.3565372E-007  0.6996527E+03  0.7818608E-02  0.9998645E-01
         -2   -1    0    0    0  501 -0.00000000000E+00  0.00000000000E+00  0.36476498932E+03  0.36476498933E+03  0.25500000000E-02 0.  1.
          2   -1    0    0  501    0  0.00000000000E+00 -0.00000000000E+00 -0.90362546221E+03  0.90362546221E+03  0.25500000000E-02 0. -1.
    8880023    1    1    2    0    0  0.22781799904E+02 -0.23491426950E+03 -0.66031680209E+03  0.96204584600E+03  0.65864270000E+03 0. -1.
    8880022    1    1    2    0    0 -0.22781799904E+02  0.23491426950E+03  0.12145632920E+03  0.30634460554E+03  0.15294330000E+03 0.  0.
<mgrwt>
<rscale>  0 0.55709695E+03</rscale>
<asrwt>0</asrwt>
<pdfrwt beam="1">  1        2 0.13901930E+00 0.69965272E+03</pdfrwt>
<pdfrwt beam="2">  1       -2 0.56117691E-01 0.69965272E+03</pdfrwt>
<totfact> 0.88410443E+01</totfact>
</mgrwt>
</event>
<event>
 4    1  0.3565372E-007  0.7167004E+03  0.7818608E-02  0.9933913E-01
          2   -1    0    0  501    0  0.00000000000E+00  0.00000000000E+00  0.66605421188E+03  0.66605421188E+03  0.25500000000E-02 0. -1.
         -2   -1    0    0    0  501 -0.00000000000E+00 -0.00000000000E+00 -0.73201287173E+03  0.73201287173E+03  0.25500000000E-02 0.  1.
    8880023    1    1    2    0    0  0.71744628061E+02  0.27331666355E+03  0.40857826666E+03  0.82498224010E+03  0.65864270000E+03 0.  0.
    8880022    1    1    2    0    0 -0.71744628061E+02 -0.27331666355E+03 -0.47453692651E+03  0.57308484351E+03  0.15294330000E+03 0.  0.
<mgrwt>
<rscale>  0 0.58645506E+03</rscale>
<asrwt>0</asrwt>
<pdfrwt beam="1">  1        2 0.10246988E+00 0.71670042E+03</pdfrwt>
<pdfrwt beam="2">  1       -2 0.11261737E+00 0.71670042E+03</pdfrwt>
<totfact> 0.27506495E+01</totfact>
</mgrwt>
</event>
<event>
 4    1  0.3565372E-007  0.6880283E+03  0.7818608E-02  0.1005104E+00
          2   -1    0    0  501    0  0.00000000000E+00  0.00000000000E+00  0.26388846318E+04  0.26388846318E+04  0.25500000000E-02 0. -1.
         -2   -1    0    0    0  501 -0.00000000000E+00 -0.00000000000E+00 -0.96282598825E+02  0.96282598859E+02  0.25500000000E-02 0.  1.
    8880023    1    1    2    0    0  0.11846527177E+03  0.15980835990E+03  0.22332996869E+04  0.23368804912E+04  0.65864270000E+03 0. -1.
    8880022    1    1    2    0    0 -0.11846527177E+03 -0.15980835990E+03  0.30930234609E+03  0.39828673945E+03  0.15294330000E+03 0.  0.
<mgrwt>
<rscale>  0 0.53467712E+03</rscale>
<asrwt>0</asrwt>
<pdfrwt beam="1">  1        2 0.40598225E+00 0.68802830E+03</pdfrwt>
<pdfrwt beam="2">  1       -2 0.14812708E-01 0.68802830E+03</pdfrwt>
<totfact> 0.10852520E+02</totfact>
</mgrwt>
</event>
<event>
 4    1  0.3565372E-007  0.7193160E+03  0.7818608E-02  0.9924907E-01
          2   -1    0    0  501    0  0.00000000000E+00  0.00000000000E+00  0.19746723227E+04  0.19746723227E+04  0.25500000000E-02 0. -1.
         -2   -1    0    0    0  501 -0.00000000000E+00 -0.00000000000E+00 -0.14489879740E+03  0.14489879742E+03  0.25500000000E-02 0.  1.
    8880023    1    1    2    0    0 -0.18569501274E+03 -0.22163628652E+03  0.10378758208E+04  0.12627753984E+04  0.65864270000E+03 0.  0.
    8880022    1    1    2    0    0  0.18569501274E+03  0.22163628652E+03  0.79189770456E+03  0.85679572173E+03  0.15294330000E+03 0.  1.
<mgrwt>
<rscale>  0 0.59069215E+03</rscale>
<asrwt>0</asrwt>
<pdfrwt beam="1">  1        2 0.30379575E+00 0.71931599E+03</pdfrwt>
<pdfrwt beam="2">  1       -2 0.22292122E-01 0.71931599E+03</pdfrwt>
<totfact> 0.12496247E+02</totfact>
</mgrwt>
</event>
<event>
 4    1  0.3565372E-007  0.7324297E+03  0.7818608E-02  0.9882574E-01
         -2   -1    0    0    0  501 -0.00000000000E+00  0.00000000000E+00  0.36392415148E+03  0.36392415149E+03  0.25500000000E-02 0.  1.
          2   -1    0    0  501    0  0.00000000000E+00 -0.00000000000E+00 -0.84811592328E+03  0.84811592328E+03  0.25500000000E-02 0. -1.
    8880023    1    1    2    0    0  0.27850222475E+03  0.15836525865E+03 -0.20552302066E+03  0.76071871452E+03  0.65864270000E+03 0.  0.
    8880022    1    1    2    0    0 -0.27850222475E+03 -0.15836525865E+03 -0.27866875115E+03  0.45132136025E+03  0.15294330000E+03 0.  0.
<mgrwt>
<rscale>  0 0.61113298E+03</rscale>
<asrwt>0</asrwt>
<pdfrwt beam="1">  1        2 0.13047937E+00 0.73242969E+03</pdfrwt>
<pdfrwt beam="2">  1       -2 0.55988331E-01 0.73242969E+03</pdfrwt>
<totfact> 0.96693999E+01</totfact>
</mgrwt>
</event>
<event>
 4    1  0.3565372E-007  0.7185404E+03  0.7818608E-02  0.9927556E-01
          2   -1    0    0  501    0  0.00000000000E+00  0.00000000000E+00  0.12557130905E+04  0.12557130905E+04  0.25500000000E-02 0. -1.
         -2   -1    0    0    0  501 -0.00000000000E+00 -0.00000000000E+00 -0.49492171212E+03  0.49492171212E+03  0.25500000000E-02 0.  1.
    8880023    1    1    2    0    0  0.73297484313E+02  0.27770042710E+03  0.10784469794E+04  0.12958966556E+04  0.65864270000E+03 0.  0.
    8880022    1    1    2    0    0 -0.73297484313E+02 -0.27770042710E+03 -0.31765560104E+03  0.45473814697E+03  0.15294330000E+03 0.  0.
<mgrwt>
<rscale>  0 0.58944188E+03</rscale>
<asrwt>0</asrwt>
<pdfrwt beam="1">  1        2 0.19318662E+00 0.71854036E+03</pdfrwt>
<pdfrwt beam="2">  1       -2 0.76141804E-01 0.71854036E+03</pdfrwt>
<totfact> 0.27725360E+01</totfact>
</mgrwt>
</event>
<event>
 4    1  0.3565372E-007  0.8741302E+03  0.7818608E-02  0.9568906E-01
          2   -1    0    0  501    0  0.00000000000E+00  0.00000000000E+00  0.39104127404E+03  0.39104127404E+03  0.25500000000E-02 0. -1.
         -2   -1    0    0    0  501 -0.00000000000E+00 -0.00000000000E+00 -0.28960082252E+04  0.28960082252E+04  0.25500000000E-02 0.  1.
    8880023    1    1    2    0    0 -0.57470912159E+03  0.17034922767E+01 -0.18687147990E+03  0.89388177775E+03  0.65864270000E+03 0. -1.
    8880022    1    1    2    0    0  0.57470912159E+03 -0.17034922767E+01 -0.23180954713E+04  0.23931677215E+04  0.15294330000E+03 0.  0.
<mgrwt>
<rscale>  0 0.79388795E+03</rscale>
<asrwt>0</asrwt>
<pdfrwt beam="1">  1        2 0.60160198E-01 0.87413024E+03</pdfrwt>
<pdfrwt beam="2">  1       -2 0.44553971E+00 0.87413024E+03</pdfrwt>
<totfact> 0.31588531E-01</totfact>
</mgrwt>
</event>
<event>
 4    1  0.3565372E-007  0.1462118E+04  0.7818608E-02  0.8936859E-01
          2   -1    0    0  501    0  0.00000000000E+00  0.00000000000E+00  0.42473101489E+04  0.42473101489E+04  0.25500000000E-02 0. -1.
         -2   -1    0    0    0  501 -0.00000000000E+00 -0.00000000000E+00 -0.63089899665E+03  0.63089899666E+03  0.25500000000E-02 0.  1.
    8880023    1    1    2    0    0  0.12358530436E+04  0.42029305180E+03  0.58620721795E+03  0.15752549328E+04  0.65864270000E+03 0.  0.
    8880022    1    1    2    0    0 -0.12358530436E+04 -0.42029305180E+03  0.30302039343E+04  0.33029542127E+04  0.15294330000E+03 0.  0.
<mgrwt>
<rscale>  0 0.14236723E+04</rscale>
<asrwt>0</asrwt>
<pdfrwt beam="1">  1        2 0.65343234E+00 0.14621181E+04</pdfrwt>
<pdfrwt beam="2">  1       -2 0.97061383E-01 0.14621181E+04</pdfrwt>
<totfact> 0.18370470E-01</totfact>
</mgrwt>
</event>
<event>
 4    1  0.3565372E-007  0.8162081E+03  0.7818608E-02  0.9676788E-01
          2   -1    0    0  501    0  0.00000000000E+00  0.00000000000E+00  0.95629255133E+03  0.95629255133E+03  0.25500000000E-02 0. -1.
         -2   -1    0    0    0  501 -0.00000000000E+00 -0.00000000000E+00 -0.10914924493E+04  0.10914924493E+04  0.25500000000E-02 0.  1.
    8880023    1    1    2    0    0 -0.30385991020E+03 -0.37423870761E+03  0.69742941260E+03  0.10735937067E+04  0.65864270000E+03 0.  0.
    8880022    1    1    2    0    0  0.30385991020E+03  0.37423870761E+03 -0.83262931062E+03  0.97419129395E+03  0.15294330000E+03 0.  0.
<mgrwt>
<rscale>  0 0.72415809E+03</rscale>
<asrwt>0</asrwt>
<pdfrwt beam="1">  1        2 0.14712193E+00 0.81620810E+03</pdfrwt>
<pdfrwt beam="2">  1       -2 0.16792191E+00 0.81620810E+03</pdfrwt>
<totfact> 0.59966378E+00</totfact>
</mgrwt>
</event>
<event>
 4    1  0.3565372E-007  0.7572130E+03  0.7818608E-02  0.9812377E-01
         -2   -1    0    0    0  501 -0.00000000000E+00  0.00000000000E+00  0.50899184440E+03  0.50899184441E+03  0.25500000000E-02 0.  1.
          2   -1    0    0  501    0  0.00000000000E+00 -0.00000000000E+00 -0.13835844866E+04  0.13835844866E+04  0.25500000000E-02 0. -1.
    8880023    1    1    2    0    0  0.19867849124E+03  0.31636718043E+03 -0.11690932196E+04  0.13928928524E+04  0.65864270000E+03 0.  0.
    8880022    1    1    2    0    0 -0.19867849124E+03 -0.31636718043E+03  0.29450057741E+03  0.49968347866E+03  0.15294330000E+03 0.  0.
<mgrwt>
<rscale>  0 0.64702542E+03</rscale>
<asrwt>0</asrwt>
<pdfrwt beam="1">  1        2 0.21285915E+00 0.75721301E+03</pdfrwt>
<pdfrwt beam="2">  1       -2 0.78306438E-01 0.75721301E+03</pdfrwt>
<totfact> 0.21897973E+01</totfact>
</mgrwt>
</event>
<event>
 4    1  0.3565372E-007  0.1192519E+04  0.7818608E-02  0.9164429E-01
          2   -1    0    0  501    0  0.00000000000E+00  0.00000000000E+00  0.93631334061E+03  0.93631334061E+03  0.25500000000E-02 0. -1.
         -2   -1    0    0    0  501 -0.00000000000E+00 -0.00000000000E+00 -0.22331226598E+04  0.22331226598E+04  0.25500000000E-02 0.  1.
    8880023    1    1    2    0    0 -0.91234874677E+03  0.39485655971E+03  0.34729754573E+03  0.12420618865E+04  0.65864270000E+03 0.  0.
    8880022    1    1    2    0    0  0.91234874677E+03 -0.39485655971E+03 -0.16441068649E+04  0.19273741138E+04  0.15294330000E+03 0.  0.
<mgrwt>
<rscale>  0 0.11428247E+04</rscale>
<asrwt>0</asrwt>
<pdfrwt beam="1">  1        2 0.14404821E+00 0.11925192E+04</pdfrwt>
<pdfrwt beam="2">  1       -2 0.34355733E+00 0.11925192E+04</pdfrwt>
<totfact> 0.46585122E-01</totfact>
</mgrwt>
</event>
<event>
 4    1  0.3565372E-007  0.6673732E+03  0.7818608E-02  0.1017620E+00
          2   -1    0    0  501    0  0.00000000000E+00  0.00000000000E+00  0.93869539143E+03  0.93869539144E+03  0.25500000000E-02 0. -1.
         -2   -1    0    0    0  501 -0.00000000000E+00 -0.00000000000E+00 -0.41073385565E+03  0.41073385566E+03  0.25500000000E-02 0.  1.
    8880023    1    1    2    0    0 -0.33269704760E+02  0.10232265036E+03  0.78577661474E+03  0.10309373854E+04  0.65864270000E+03 0. -1.
    8880022    1    1    2    0    0  0.33269704760E+02 -0.10232265036E+03 -0.25781507896E+03  0.31849186172E+03  0.15294330000E+03 0.  0.
<mgrwt>
<rscale>  0 0.48555242E+03</rscale>
<asrwt>0</asrwt>
<pdfrwt beam="1">  1        2 0.14441467E+00 0.66737321E+03</pdfrwt>
<pdfrwt beam="2">  1       -2 0.63189825E-01 0.66737321E+03</pdfrwt>
<totfact> 0.65444547E+01</totfact>
</mgrwt>
</event>
<event>
 4    1  0.3565372E-007  0.7605367E+03  0.7818608E-02  0.9803720E-01
          2   -1    0    0  501    0  0.00000000000E+00  0.00000000000E+00  0.14983254968E+04  0.14983254968E+04  0.25500000000E-02 0. -1.
         -2   -1    0    0    0  501 -0.00000000000E+00 -0.00000000000E+00 -0.34378208040E+03  0.34378208041E+03  0.25500000000E-02 0.  1.
    8880023    1    1    2    0    0  0.30312095437E+03 -0.22961613533E+03  0.17520431447E+03  0.78045668724E+03  0.65864270000E+03 0.  1.
    8880022    1    1    2    0    0 -0.30312095437E+03  0.22961613533E+03  0.97933910195E+03  0.10616508900E+04  0.15294330000E+03 0.  0.
<mgrwt>
<rscale>  0 0.65163290E+03</rscale>
<asrwt>0</asrwt>
<pdfrwt beam="1">  1        2 0.23051162E+00 0.76053671E+03</pdfrwt>
<pdfrwt beam="2">  1       -2 0.52889550E-01 0.76053671E+03</pdfrwt>
<totfact> 0.43795652E+01</totfact>
</mgrwt>
</event>
<event>
 4    1  0.3565372E-007  0.7285067E+03  0.7818608E-02  0.9894788E-01
         -2   -1    0    0    0  501 -0.00000000000E+00  0.00000000000E+00  0.41382403529E+03  0.41382403530E+03  0.25500000000E-02 0.  1.
          2   -1    0    0  501    0  0.00000000000E+00 -0.00000000000E+00 -0.19385556161E+04  0.19385556161E+04  0.25500000000E-02 0. -1.
    8880023    1    1    2    0    0  0.10414389771E+03 -0.29336976434E+03 -0.17789538452E+04  0.19223419986E+04  0.65864270000E+03 0. -1.
    8880022    1    1    2    0    0 -0.10414389771E+03  0.29336976434E+03  0.25422226441E+03  0.43003765277E+03  0.15294330000E+03 0.  0.
<mgrwt>
<rscale>  0 0.60514563E+03</rscale>
<asrwt>0</asrwt>
<pdfrwt beam="1">  1        2 0.29823932E+00 0.72850668E+03</pdfrwt>
<pdfrwt beam="2">  1       -2 0.63665237E-01 0.72850668E+03</pdfrwt>
<totfact> 0.17096506E+01</totfact>
</mgrwt>
</event>
<event>
 4    1  0.3565372E-007  0.9085839E+03  0.7818608E-02  0.9512390E-01
         -2   -1    0    0    0  501 -0.00000000000E+00  0.00000000000E+00  0.51772387609E+03  0.51772387610E+03  0.25500000000E-02 0.  1.
          2   -1    0    0  501    0  0.00000000000E+00 -0.00000000000E+00 -0.33166008754E+04  0.33166008754E+04  0.25500000000E-02 0. -1.
    8880023    1    1    2    0    0 -0.18257636718E+03 -0.59864879186E+03 -0.30195570325E+04  0.31532918331E+04  0.65864270000E+03 0. -1.
    8880022    1    1    2    0    0  0.18257636718E+03  0.59864879186E+03  0.22068003321E+03  0.68103291839E+03  0.15294330000E+03 0.  0.
<mgrwt>
<rscale>  0 0.83376503E+03</rscale>
<asrwt>0</asrwt>
<pdfrwt beam="1">  1        2 0.51024627E+00 0.90858390E+03</pdfrwt>
<pdfrwt beam="2">  1       -2 0.79649829E-01 0.90858390E+03</pdfrwt>
<totfact> 0.15856197E+00</totfact>
</mgrwt>
</event>
<event>
 4    1  0.3565372E-007  0.8223264E+03  0.7818608E-02  0.9664451E-01
         -2   -1    0    0    0  501 -0.00000000000E+00  0.00000000000E+00  0.21023445374E+03  0.21023445376E+03  0.25500000000E-02 0.  1.
          2   -1    0    0  501    0  0.00000000000E+00 -0.00000000000E+00 -0.38063203349E+04  0.38063203349E+04  0.25500000000E-02 0. -1.
    8880023    1    1    2    0    0  0.81371105238E+02  0.48558142573E+03 -0.33421894206E+04  0.34418673576E+04  0.65864270000E+03 0. -1.
    8880022    1    1    2    0    0 -0.81371105238E+02 -0.48558142573E+03 -0.25389646062E+03  0.57468743114E+03  0.15294330000E+03 0.  0.
<mgrwt>
<rscale>  0 0.73173364E+03</rscale>
<asrwt>0</asrwt>
<pdfrwt beam="1">  1        2 0.58558769E+00 0.82232645E+03</pdfrwt>
<pdfrwt beam="2">  1       -2 0.32343765E-01 0.82232645E+03</pdfrwt>
<totfact> 0.46695806E+00</totfact>
</mgrwt>
</event>
<event>
 4    1  0.3565372E-007  0.7092979E+03  0.7818608E-02  0.9960617E-01
         -2   -1    0    0    0  501 -0.00000000000E+00  0.00000000000E+00  0.45152325704E+03  0.45152325704E+03  0.25500000000E-02 0.  1.
          2   -1    0    0  501    0  0.00000000000E+00 -0.00000000000E+00 -0.13866393256E+04  0.13866393256E+04  0.25500000000E-02 0. -1.
    8880023    1    1    2    0    0 -0.22542279573E+03  0.13593345705E+03 -0.12264481691E+04  0.14167846200E+04  0.65864270000E+03 0. -1.
    8880022    1    1    2    0    0  0.22542279573E+03 -0.13593345705E+03  0.29133210057E+03  0.42137796266E+03  0.15294330000E+03 0.  0.
<mgrwt>
<rscale>  0 0.57411342E+03</rscale>
<asrwt>0</asrwt>
<pdfrwt beam="1">  1        2 0.21332913E+00 0.70929793E+03</pdfrwt>
<pdfrwt beam="2">  1       -2 0.69465117E-01 0.70929793E+03</pdfrwt>
<totfact> 0.28573723E+01</totfact>
</mgrwt>
</event>
<event>
 4    1  0.3565372E-007  0.6647739E+03  0.7818608E-02  0.1019724E+00
         -2   -1    0    0    0  501 -0.00000000000E+00  0.00000000000E+00  0.52114102473E+03  0.52114102474E+03  0.25500000000E-02 0.  1.
          2   -1    0    0  501    0  0.00000000000E+00 -0.00000000000E+00 -0.79206623429E+03  0.79206623429E+03  0.25500000000E-02 0. -1.
    8880023    1    1    2    0    0 -0.16625425914E+02  0.88531107753E+02 -0.62796835921E+03  0.91447724316E+03  0.65864270000E+03 0. -1.
    8880022    1    1    2    0    0  0.16625425914E+02 -0.88531107753E+02  0.35704314965E+03  0.39873001587E+03  0.15294330000E+03 0.  0.
<mgrwt>
<rscale>  0 0.47786401E+03</rscale>
<asrwt>0</asrwt>
<pdfrwt beam="1">  1        2 0.12185634E+00 0.66477392E+03</pdfrwt>
<pdfrwt beam="2">  1       -2 0.80175542E-01 0.66477392E+03</pdfrwt>
<totfact> 0.49017325E+01</totfact>
</mgrwt>
</event>
<event>
 4    1  0.3565372E-007  0.8204694E+03  0.7818608E-02  0.9668169E-01
          2   -1    0    0  501    0  0.00000000000E+00  0.00000000000E+00  0.24857631982E+04  0.24857631982E+04  0.25500000000E-02 0. -1.
         -2   -1    0    0    0  501 -0.00000000000E+00 -0.00000000000E+00 -0.96841094782E+03  0.96841094783E+03  0.25500000000E-02 0.  1.
    8880023    1    1    2    0    0 -0.90598398243E+02  0.48078236060E+03  0.23429139461E+04  0.24824213408E+04  0.65864270000E+03 0. -1.
    8880022    1    1    2    0    0  0.90598398243E+02 -0.48078236060E+03 -0.82556169573E+03  0.97175280525E+03  0.15294330000E+03 0.  0.
<mgrwt>
<rscale>  0 0.72944055E+03</rscale>
<asrwt>0</asrwt>
<pdfrwt beam="1">  1        2 0.38242510E+00 0.82046935E+03</pdfrwt>
<pdfrwt beam="2">  1       -2 0.14898630E+00 0.82046935E+03</pdfrwt>
<totfact> 0.11224688E+00</totfact>
</mgrwt>
</event>
<event>
 4    1  0.3565372E-007  0.1126850E+04  0.7818608E-02  0.9231735E-01
          2   -1    0    0  501    0  0.00000000000E+00  0.00000000000E+00  0.59608943753E+03  0.59608943754E+03  0.25500000000E-02 0. -1.
         -2   -1    0    0    0  501 -0.00000000000E+00 -0.00000000000E+00 -0.21390988375E+04  0.21390988375E+04  0.25500000000E-02 0.  1.
    8880023    1    1    2    0    0  0.65575435263E+03 -0.63715513208E+03 -0.26711329841E+03  0.11580760570E+04  0.65864270000E+03 0. -1.
    8880022    1    1    2    0    0 -0.65575435263E+03  0.63715513208E+03 -0.12758961016E+04  0.15771122181E+04  0.15294330000E+03 0.  0.
<mgrwt>
<rscale>  0 0.10731791E+04</rscale>
<asrwt>0</asrwt>
<pdfrwt beam="1">  1        2 0.91706069E-01 0.11268499E+04</pdfrwt>
<pdfrwt beam="2">  1       -2 0.32909212E+00 0.11268499E+04</pdfrwt>
<totfact> 0.10459944E+00</totfact>
</mgrwt>
</event>
<event>
 4    1  0.3565372E-007  0.8151973E+03  0.7818608E-02  0.9678851E-01
         -2   -1    0    0    0  501 -0.00000000000E+00  0.00000000000E+00  0.26241769005E+04  0.26241769005E+04  0.25500000000E-02 0.  1.
          2   -1    0    0  501    0  0.00000000000E+00 -0.00000000000E+00 -0.49053444522E+03  0.49053444522E+03  0.25500000000E-02 0. -1.
    8880023    1    1    2    0    0 -0.24731219244E+02  0.47971322798E+03 -0.10325784966E+03  0.82171090055E+03  0.65864270000E+03 0. -1.
    8880022    1    1    2    0    0  0.24731219244E+02 -0.47971322798E+03  0.22369003049E+04  0.22930004452E+04  0.15294330000E+03 0.  0.
<mgrwt>
<rscale>  0 0.72290067E+03</rscale>
<asrwt>0</asrwt>
<pdfrwt beam="1">  1        2 0.75466838E-01 0.81519729E+03</pdfrwt>
<pdfrwt beam="2">  1       -2 0.40371952E+00 0.81519729E+03</pdfrwt>
<totfact> 0.46452807E-01</totfact>
</mgrwt>
</event>
<event>
 4    1  0.3565372E-007  0.7492832E+03  0.7818608E-02  0.9833687E-01
          2   -1    0    0  501    0  0.00000000000E+00  0.00000000000E+00  0.11881973071E+04  0.11881973071E+04  0.25500000000E-02 0. -1.
         -2   -1    0    0    0  501 -0.00000000000E+00 -0.00000000000E+00 -0.44746201039E+03  0.44746201040E+03  0.25500000000E-02 0.  1.
    8880023    1    1    2    0    0 -0.29647292241E+03  0.19929597310E+03  0.93745867822E+03  0.12001058529E+04  0.65864270000E+03 0. -1.
    8880022    1    1    2    0    0  0.29647292241E+03 -0.19929597310E+03 -0.19672338153E+03  0.43555346454E+03  0.15294330000E+03 0.  0.
<mgrwt>
<rscale>  0 0.63585637E+03</rscale>
<asrwt>0</asrwt>
<pdfrwt beam="1">  1        2 0.18279959E+00 0.74928318E+03</pdfrwt>
<pdfrwt beam="2">  1       -2 0.68840309E-01 0.74928318E+03</pdfrwt>
<totfact> 0.37793744E+01</totfact>
</mgrwt>
</event>
<event>
 4    1  0.3565372E-007  0.8776083E+03  0.7818608E-02  0.9562978E-01
         -2   -1    0    0    0  501 -0.00000000000E+00  0.00000000000E+00  0.17957605054E+04  0.17957605054E+04  0.25500000000E-02 0.  1.
          2   -1    0    0  501    0  0.00000000000E+00 -0.00000000000E+00 -0.58155189304E+03  0.58155189305E+03  0.25500000000E-02 0. -1.
    8880023    1    1    2    0    0  0.46510021796E+03 -0.34650810222E+03 -0.14697639502E+03  0.88983051454E+03  0.65864270000E+03 0. -1.
    8880022    1    1    2    0    0 -0.46510021796E+03  0.34650810222E+03  0.13611850074E+04  0.14874818839E+04  0.15294330000E+03 0.  0.
<mgrwt>
<rscale>  0 0.79795760E+03</rscale>
<asrwt>0</asrwt>
<pdfrwt beam="1">  1        2 0.89469524E-01 0.87760827E+03</pdfrwt>
<pdfrwt beam="2">  1       -2 0.27627084E+00 0.87760827E+03</pdfrwt>
<totfact> 0.23258476E+00</totfact>
</mgrwt>
</event>
<event>
 4    1  0.3565372E-007  0.9781100E+03  0.7818608E-02  0.9410774E-01
         -2   -1    0    0    0  501 -0.00000000000E+00  0.00000000000E+00  0.77668886751E+03  0.77668886752E+03  0.25500000000E-02 0.  1.
          2   -1    0    0  501    0  0.00000000000E+00 -0.00000000000E+00 -0.14500312678E+04  0.14500312678E+04  0.25500000000E-02 0. -1.
    8880023    1    1    2    0    0  0.33611599107E+03 -0.64024601944E+03 -0.10175255611E+04  0.14114026352E+04  0.65864270000E+03 0. -1.
    8880022    1    1    2    0    0 -0.33611599107E+03  0.64024601944E+03  0.34418316079E+03  0.81531750014E+03  0.15294330000E+03 0.  0.
<mgrwt>
<rscale>  0 0.91194309E+03</rscale>
<asrwt>0</asrwt>
<pdfrwt beam="1">  1        2 0.22308173E+00 0.97810998E+03</pdfrwt>
<pdfrwt beam="2">  1       -2 0.11949059E+00 0.97810998E+03</pdfrwt>
<totfact> 0.72424949E+00</totfact>
</mgrwt>
</event>
<event>
 4    1  0.3565372E-007  0.7347250E+03  0.7818608E-02  0.9875588E-01
         -2   -1    0    0    0  501 -0.00000000000E+00  0.00000000000E+00  0.10985181950E+04  0.10985181950E+04  0.25500000000E-02 0.  1.
          2   -1    0    0  501    0  0.00000000000E+00 -0.00000000000E+00 -0.36682275465E+03  0.36682275466E+03  0.25500000000E-02 0. -1.
    8880023    1    1    2    0    0  0.16428817474E+03 -0.28110502086E+03  0.10424019888E+03  0.74208278678E+03  0.65864270000E+03 0. -1.
    8880022    1    1    2    0    0 -0.16428817474E+03  0.28110502086E+03  0.62745524149E+03  0.72325816290E+03  0.15294330000E+03 0.  0.
<mgrwt>
<rscale>  0 0.61459124E+03</rscale>
<asrwt>0</asrwt>
<pdfrwt beam="1">  1        2 0.56434271E-01 0.73472501E+03</pdfrwt>
<pdfrwt beam="2">  1       -2 0.16900280E+00 0.73472501E+03</pdfrwt>
<totfact> 0.19287891E+01</totfact>
</mgrwt>
</event>
<event>
 4    1  0.3565372E-007  0.6873237E+03  0.7818608E-02  0.1005451E+00
         -2   -1    0    0    0  501 -0.00000000000E+00  0.00000000000E+00  0.30749427800E+03  0.30749427801E+03  0.25500000000E-02 0.  1.
          2   -1    0    0  501    0  0.00000000000E+00 -0.00000000000E+00 -0.11174782720E+04  0.11174782720E+04  0.25500000000E-02 0. -1.
    8880023    1    1    2    0    0  0.14543356099E+03  0.13210875716E+03 -0.92360373389E+03  0.11512852418E+04  0.65864270000E+03 0. -1.
    8880022    1    1    2    0    0 -0.14543356099E+03 -0.13210875716E+03  0.11361973991E+03  0.27368730824E+03  0.15294330000E+03 0.  0.
<mgrwt>
<rscale>  0 0.53323154E+03</rscale>
<asrwt>0</asrwt>
<pdfrwt beam="1">  1        2 0.17191973E+00 0.68732369E+03</pdfrwt>
<pdfrwt beam="2">  1       -2 0.47306812E-01 0.68732369E+03</pdfrwt>
<totfact> 0.91814171E+01</totfact>
</mgrwt>
</event>
<event>
 4    1  0.3565372E-007  0.8954510E+03  0.7818608E-02  0.9533374E-01
         -2   -1    0    0    0  501 -0.00000000000E+00  0.00000000000E+00  0.78577205303E+03  0.78577205303E+03  0.25500000000E-02 0.  1.
          2   -1    0    0  501    0  0.00000000000E+00 -0.00000000000E+00 -0.19758969984E+04  0.19758969984E+04  0.25500000000E-02 0. -1.
    8880023    1    1    2    0    0  0.45938431411E+03 -0.39621758917E+03 -0.17217407802E+04  0.19406761313E+04  0.65864270000E+03 0. -1.
    8880022    1    1    2    0    0 -0.45938431411E+03  0.39621758917E+03  0.53161583486E+03  0.82099292013E+03  0.15294330000E+03 0.  0.
<mgrwt>
<rscale>  0 0.81867385E+03</rscale>
<asrwt>0</asrwt>
<pdfrwt beam="1">  1        2 0.30398415E+00 0.89545102E+03</pdfrwt>
<pdfrwt beam="2">  1       -2 0.12088801E+00 0.89545102E+03</pdfrwt>
<totfact> 0.36380677E+00</totfact>
</mgrwt>
</event>
<event>
 4    1  0.3565372E-007  0.9321012E+03  0.7818608E-02  0.9476348E-01
         -2   -1    0    0    0  501 -0.00000000000E+00  0.00000000000E+00  0.35516595285E+03  0.35516595286E+03  0.25500000000E-02 0.  1.
          2   -1    0    0  501    0  0.00000000000E+00 -0.00000000000E+00 -0.20810419160E+04  0.20810419160E+04  0.25500000000E-02 0. -1.
    8880023    1    1    2    0    0 -0.35759475954E+03 -0.55419160963E+03 -0.14072136260E+04  0.16879166887E+04  0.65864270000E+03 0.  0.
    8880022    1    1    2    0    0  0.35759475954E+03  0.55419160963E+03 -0.31866233706E+03  0.74829118017E+03  0.15294330000E+03 0.  0.
<mgrwt>
<rscale>  0 0.86050253E+03</rscale>
<asrwt>0</asrwt>
<pdfrwt beam="1">  1        2 0.32016029E+00 0.93210115E+03</pdfrwt>
<pdfrwt beam="2">  1       -2 0.54640917E-01 0.93210115E+03</pdfrwt>
<totfact> 0.19212059E+01</totfact>
</mgrwt>
</event>
<event>
 4    1  0.3565372E-007  0.6681606E+03  0.7818608E-02  0.1017017E+00
         -2   -1    0    0    0  501 -0.00000000000E+00  0.00000000000E+00  0.16072606043E+03  0.16072606045E+03  0.25500000000E-02 0.  1.
          2   -1    0    0  501    0  0.00000000000E+00 -0.00000000000E+00 -0.12977732797E+04  0.12977732797E+04  0.25500000000E-02 0. -1.
    8880023    1    1    2    0    0  0.11196460131E+03  0.96064713132E+01 -0.10613855757E+04  0.12541841582E+04  0.65864270000E+03 0. -1.
    8880022    1    1    2    0    0 -0.11196460131E+03 -0.96064713132E+01 -0.75661643605E+02  0.20431518193E+03  0.15294330000E+03 0.  0.
<mgrwt>
<rscale>  0 0.48778520E+03</rscale>
<asrwt>0</asrwt>
<pdfrwt beam="1">  1        2 0.19965742E+00 0.66816058E+03</pdfrwt>
<pdfrwt beam="2">  1       -2 0.24727087E-01 0.66816058E+03</pdfrwt>
<totfact> 0.24656423E+02</totfact>
</mgrwt>
</event>
<event>
 4    1  0.3565372E-007  0.6867692E+03  0.7818608E-02  0.1005728E+00
          2   -1    0    0  501    0  0.00000000000E+00  0.00000000000E+00  0.28125516399E+04  0.28125516399E+04  0.25500000000E-02 0. -1.
         -2   -1    0    0    0  501 -0.00000000000E+00 -0.00000000000E+00 -0.97139649915E+02  0.97139649948E+02  0.25500000000E-02 0.  1.
    8880023    1    1    2    0    0  0.19173486638E+03 -0.32856181454E+02  0.12751856245E+04  0.14483612709E+04  0.65864270000E+03 0.  1.
    8880022    1    1    2    0    0 -0.19173486638E+03  0.32856181454E+02  0.14402263654E+04  0.14613300190E+04  0.15294330000E+03 0.  0.
<mgrwt>
<rscale>  0 0.53208585E+03</rscale>
<asrwt>0</asrwt>
<pdfrwt beam="1">  1        2 0.43270020E+00 0.68676924E+03</pdfrwt>
<pdfrwt beam="2">  1       -2 0.14944563E-01 0.68676924E+03</pdfrwt>
<totfact> 0.84698079E+01</totfact>
</mgrwt>
</event>
<event>
 4    1  0.3565372E-007  0.9146782E+03  0.7818608E-02  0.9502868E-01
          2   -1    0    0  501    0  0.00000000000E+00  0.00000000000E+00  0.28939289525E+04  0.28939289525E+04  0.25500000000E-02 0. -1.
         -2   -1    0    0    0  501 -0.00000000000E+00 -0.00000000000E+00 -0.32942153239E+03  0.32942153240E+03  0.25500000000E-02 0.  1.
    8880023    1    1    2    0    0 -0.20939129259E+03 -0.59915047332E+03  0.23727054484E+04  0.25429052979E+04  0.65864270000E+03 0. -1.
    8880022    1    1    2    0    0  0.20939129259E+03  0.59915047332E+03  0.19180197171E+03  0.68044518696E+03  0.15294330000E+03 0.  1.
<mgrwt>
<rscale>  0 0.84072735E+03</rscale>
<asrwt>0</asrwt>
<pdfrwt beam="1">  1        2 0.44521982E+00 0.91467820E+03</pdfrwt>
<pdfrwt beam="2">  1       -2 0.50680238E-01 0.91467820E+03</pdfrwt>
<totfact> 0.77045747E+00</totfact>
</mgrwt>
</event>
<event>
 4    1  0.3565372E-007  0.1149831E+04  0.7818608E-02  0.9207503E-01
          2   -1    0    0  501    0  0.00000000000E+00  0.00000000000E+00  0.29844181129E+04  0.29844181129E+04  0.25500000000E-02 0. -1.
         -2   -1    0    0    0  501 -0.00000000000E+00 -0.00000000000E+00 -0.62083747469E+03  0.62083747470E+03  0.25500000000E-02 0.  1.
    8880023    1    1    2    0    0  0.25784849479E+02  0.94214471579E+03  0.23876874033E+04  0.26501250661E+04  0.65864270000E+03 0.  0.
    8880022    1    1    2    0    0 -0.25784849479E+02 -0.94214471579E+03 -0.24106765077E+02  0.95513052149E+03  0.15294330000E+03 0.  0.
<mgrwt>
<rscale>  0 0.10976317E+04</rscale>
<asrwt>0</asrwt>
<pdfrwt beam="1">  1        2 0.45914124E+00 0.11498312E+04</pdfrwt>
<pdfrwt beam="2">  1       -2 0.95513459E-01 0.11498312E+04</pdfrwt>
<totfact> 0.16348352E+00</totfact>
</mgrwt>
</event>
<event>
 4    1  0.3565372E-007  0.7137978E+03  0.7818608E-02  0.9944160E-01
          2   -1    0    0  501    0  0.00000000000E+00  0.00000000000E+00  0.13363657027E+04  0.13363657027E+04  0.25500000000E-02 0. -1.
         -2   -1    0    0    0  501 -0.00000000000E+00 -0.00000000000E+00 -0.27598102845E+03  0.27598102846E+03  0.25500000000E-02 0.  1.
    8880023    1    1    2    0    0  0.26689794680E+03 -0.66802137544E+02  0.10826464105E+04  0.12967769647E+04  0.65864270000E+03 0. -1.
    8880022    1    1    2    0    0 -0.26689794680E+03  0.66802137544E+02 -0.22261736320E+02  0.31556976647E+03  0.15294330000E+03 0.  0.
<mgrwt>
<rscale>  0 0.58168036E+03</rscale>
<asrwt>0</asrwt>
<pdfrwt beam="1">  1        2 0.20559472E+00 0.71379776E+03</pdfrwt>
<pdfrwt beam="2">  1       -2 0.42458621E-01 0.71379776E+03</pdfrwt>
<totfact> 0.84503401E+01</totfact>
</mgrwt>
</event>
<event>
 4    1  0.3565372E-007  0.7276030E+03  0.7818608E-02  0.9897652E-01
         -2   -1    0    0    0  501 -0.00000000000E+00  0.00000000000E+00  0.43308087422E+03  0.43308087423E+03  0.25500000000E-02 0.  1.
          2   -1    0    0  501    0  0.00000000000E+00 -0.00000000000E+00 -0.10432801638E+04  0.10432801638E+04  0.25500000000E-02 0. -1.
    8880023    1    1    2    0    0 -0.30629648109E+03 -0.42171674114E+02 -0.80102578370E+03  0.10821499419E+04  0.65864270000E+03 0. -1.
    8880022    1    1    2    0    0  0.30629648109E+03  0.42171674114E+02  0.19082649411E+03  0.39421109611E+03  0.15294330000E+03 0.  0.
<mgrwt>
<rscale>  0 0.60375204E+03</rscale>
<asrwt>0</asrwt>
<pdfrwt beam="1">  1        2 0.16050464E+00 0.72760304E+03</pdfrwt>
<pdfrwt beam="2">  1       -2 0.66627827E-01 0.72760304E+03</pdfrwt>
<totfact> 0.49802245E+01</totfact>
</mgrwt>
</event>
<event>
 4    1  0.3565372E-007  0.1272535E+04  0.7818608E-02  0.9089648E-01
          2   -1    0    0  501    0  0.00000000000E+00  0.00000000000E+00  0.14494281082E+04  0.14494281082E+04  0.25500000000E-02 0. -1.
         -2   -1    0    0    0  501 -0.00000000000E+00 -0.00000000000E+00 -0.20633906213E+04  0.20633906213E+04  0.25500000000E-02 0.  1.
    8880023    1    1    2    0    0  0.28891291544E+03  0.10497927666E+04  0.95916599154E+03  0.15935322811E+04  0.65864270000E+03 0.  0.
    8880022    1    1    2    0    0 -0.28891291544E+03 -0.10497927666E+04 -0.15731285047E+04  0.19192864483E+04  0.15294330000E+03 0.  0.
<mgrwt>
<rscale>  0 0.12268808E+04</rscale>
<asrwt>0</asrwt>
<pdfrwt beam="1">  1        2 0.22298894E+00 0.12725352E+04</pdfrwt>
<pdfrwt beam="2">  1       -2 0.31744471E+00 0.12725352E+04</pdfrwt>
<totfact> 0.32583941E-01</totfact>
</mgrwt>
</event>
<event>
 4    1  0.3565372E-007  0.8821295E+03  0.7818608E-02  0.9555351E-01
         -2   -1    0    0    0  501 -0.00000000000E+00  0.00000000000E+00  0.14137067966E+04  0.14137067966E+04  0.25500000000E-02 0.  1.
          2   -1    0    0  501    0  0.00000000000E+00 -0.00000000000E+00 -0.67998739532E+03  0.67998739532E+03  0.25500000000E-02 0. -1.
    8880023    1    1    2    0    0  0.45539052160E+03  0.37008332399E+03 -0.26868070010E+03  0.92213975011E+03  0.65864270000E+03 0. -1.
    8880022    1    1    2    0    0 -0.45539052160E+03 -0.37008332399E+03  0.10024001013E+04  0.11715544418E+04  0.15294330000E+03 0.  0.
<mgrwt>
<rscale>  0 0.80323190E+03</rscale>
<asrwt>0</asrwt>
<pdfrwt beam="1">  1        2 0.10461345E+00 0.88212947E+03</pdfrwt>
<pdfrwt beam="2">  1       -2 0.21749335E+00 0.88212947E+03</pdfrwt>
<totfact> 0.43895786E+00</totfact>
</mgrwt>
</event>
<event>
 4    1  0.3565372E-007  0.7176756E+03  0.7818608E-02  0.9930531E-01
         -2   -1    0    0    0  501 -0.00000000000E+00  0.00000000000E+00  0.54485926254E+03  0.54485926255E+03  0.25500000000E-02 0.  1.
          2   -1    0    0  501    0  0.00000000000E+00 -0.00000000000E+00 -0.74708868797E+03  0.74708868797E+03  0.25500000000E-02 0. -1.
    8880023    1    1    2    0    0  0.28394366651E+03 -0.24981757669E+02 -0.48179683173E+03  0.86439949520E+03  0.65864270000E+03 0. -1.
    8880022    1    1    2    0    0 -0.28394366651E+03  0.24981757669E+02  0.27956740631E+03  0.42754845532E+03  0.15294330000E+03 0.  0.
<mgrwt>
<rscale>  0 0.58804184E+03</rscale>
<asrwt>0</asrwt>
<pdfrwt beam="1">  1        2 0.11493672E+00 0.71767562E+03</pdfrwt>
<pdfrwt beam="2">  1       -2 0.83824502E-01 0.71767562E+03</pdfrwt>
<totfact> 0.47621400E+01</totfact>
</mgrwt>
</event>
<event>
 4    1  0.3565372E-007  0.7080986E+03  0.7818608E-02  0.9965131E-01
         -2   -1    0    0    0  501 -0.00000000000E+00  0.00000000000E+00  0.47352322622E+03  0.47352322623E+03  0.25500000000E-02 0.  1.
          2   -1    0    0  501    0  0.00000000000E+00 -0.00000000000E+00 -0.55090781055E+03  0.55090781055E+03  0.25500000000E-02 0. -1.
    8880023    1    1    2    0    0  0.25925468114E+03 -0.19503669435E+02 -0.12503547123E+03  0.71905316782E+03  0.65864270000E+03 0.  0.
    8880022    1    1    2    0    0 -0.25925468114E+03  0.19503669435E+02  0.47650886901E+02  0.30537786897E+03  0.15294330000E+03 0. -1.
<mgrwt>
<rscale>  0 0.57205994E+03</rscale>
<asrwt>0</asrwt>
<pdfrwt beam="1">  1        2 0.84755048E-01 0.70809857E+03</pdfrwt>
<pdfrwt beam="2">  1       -2 0.72849727E-01 0.70809857E+03</pdfrwt>
<totfact> 0.94856015E+01</totfact>
</mgrwt>
</event>
<event>
 4    1  0.3565372E-007  0.7876692E+03  0.7818608E-02  0.9738121E-01
         -2   -1    0    0    0  501 -0.00000000000E+00  0.00000000000E+00  0.80465556362E+03  0.80465556362E+03  0.25500000000E-02 0.  1.
          2   -1    0    0  501    0  0.00000000000E+00 -0.00000000000E+00 -0.97769000026E+03  0.97769000026E+03  0.25500000000E-02 0. -1.
    8880023    1    1    2    0    0 -0.21288023423E+02  0.43146186002E+03 -0.72112624417E+03  0.10679165618E+04  0.65864270000E+03 0.  0.
    8880022    1    1    2    0    0  0.21288023423E+02 -0.43146186002E+03  0.54809180752E+03  0.71442900213E+03  0.15294330000E+03 0.  0.
<mgrwt>
<rscale>  0 0.68791753E+03</rscale>
<asrwt>0</asrwt>
<pdfrwt beam="1">  1        2 0.15041385E+00 0.78766917E+03</pdfrwt>
<pdfrwt beam="2">  1       -2 0.12379316E+00 0.78766917E+03</pdfrwt>
<totfact> 0.12954324E+01</totfact>
</mgrwt>
</event>
<event>
 4    1  0.3565372E-007  0.1362039E+04  0.7818608E-02  0.9013755E-01
          2   -1    0    0  501    0  0.00000000000E+00  0.00000000000E+00  0.29760477194E+04  0.29760477194E+04  0.25500000000E-02 0. -1.
         -2   -1    0    0    0  501 -0.00000000000E+00 -0.00000000000E+00 -0.78837049066E+03  0.78837049066E+03  0.25500000000E-02 0.  1.
    8880023    1    1    2    0    0  0.10390556719E+04 -0.58455320899E+03  0.21703346861E+04  0.25623235548E+04  0.65864270000E+03 0.  0.
    8880022    1    1    2    0    0 -0.10390556719E+04  0.58455320899E+03  0.17342542629E+02  0.12020946553E+04  0.15294330000E+03 0.  0.
<mgrwt>
<rscale>  0 0.13201262E+04</rscale>
<asrwt>0</asrwt>
<pdfrwt beam="1">  1        2 0.45785349E+00 0.13620387E+04</pdfrwt>
<pdfrwt beam="2">  1       -2 0.12128777E+00 0.13620387E+04</pdfrwt>
<totfact> 0.90138258E-01</totfact>
</mgrwt>
</event>
<event>
 4    1  0.3565372E-007  0.7079729E+03  0.7818608E-02  0.9965607E-01
         -2   -1    0    0    0  501 -0.00000000000E+00  0.00000000000E+00  0.18795143472E+03  0.18795143474E+03  0.25500000000E-02 0.  1.
          2   -1    0    0  501    0  0.00000000000E+00 -0.00000000000E+00 -0.20176037045E+04  0.20176037045E+04  0.25500000000E-02 0. -1.
    8880023    1    1    2    0    0 -0.25083508806E+03 -0.67061358623E+02 -0.17588739037E+04  0.18960124163E+04  0.65864270000E+03 0.  0.
    8880022    1    1    2    0    0  0.25083508806E+03  0.67061358623E+02 -0.70778366067E+02  0.30954272297E+03  0.15294330000E+03 0.  0.
<mgrwt>
<rscale>  0 0.57184388E+03</rscale>
<asrwt>0</asrwt>
<pdfrwt beam="1">  1        2 0.31040055E+00 0.70797293E+03</pdfrwt>
<pdfrwt beam="2">  1       -2 0.28915607E-01 0.70797293E+03</pdfrwt>
<totfact> 0.74082017E+01</totfact>
</mgrwt>
</event>
<event>
 4    1  0.3565372E-007  0.7221937E+03  0.7818608E-02  0.9915232E-01
         -2   -1    0    0    0  501 -0.00000000000E+00  0.00000000000E+00  0.43319781659E+03  0.43319781660E+03  0.25500000000E-02 0.  1.
          2   -1    0    0  501    0  0.00000000000E+00 -0.00000000000E+00 -0.17162103095E+04  0.17162103095E+04  0.25500000000E-02 0. -1.
    8880023    1    1    2    0    0 -0.33169253280E+02  0.29436926378E+03 -0.15580018045E+04  0.17172458449E+04  0.65864270000E+03 0. -1.
    8880022    1    1    2    0    0  0.33169253280E+02 -0.29436926378E+03  0.27498931155E+03  0.43216228121E+03  0.15294330000E+03 0.  0.
<mgrwt>
<rscale>  0 0.59528720E+03</rscale>
<asrwt>0</asrwt>
<pdfrwt beam="1">  1        2 0.26403235E+00 0.72219365E+03</pdfrwt>
<pdfrwt beam="2">  1       -2 0.66645819E-01 0.72219365E+03</pdfrwt>
<totfact> 0.20499292E+01</totfact>
</mgrwt>
</event>
<event>
 4    1  0.3565372E-007  0.6705805E+03  0.7818608E-02  0.1015250E+00
         -2   -1    0    0    0  501 -0.00000000000E+00  0.00000000000E+00  0.20800665375E+03  0.20800665376E+03  0.25500000000E-02 0.  1.
          2   -1    0    0  501    0  0.00000000000E+00 -0.00000000000E+00 -0.97706960848E+03  0.97706960849E+03  0.25500000000E-02 0. -1.
    8880023    1    1    2    0    0 -0.68557997975E+02  0.10567790104E+03 -0.71378180849E+03  0.97936851810E+03  0.65864270000E+03 0. -1.
    8880022    1    1    2    0    0  0.68557997975E+02 -0.10567790104E+03 -0.55281146245E+02  0.20570774414E+03  0.15294330000E+03 0.  0.
<mgrwt>
<rscale>  0 0.49440349E+03</rscale>
<asrwt>0</asrwt>
<pdfrwt beam="1">  1        2 0.15031840E+00 0.67058051E+03</pdfrwt>
<pdfrwt beam="2">  1       -2 0.32001024E-01 0.67058051E+03</pdfrwt>
<totfact> 0.23993620E+02</totfact>
</mgrwt>
</event>
<event>
 4    1  0.3565372E-007  0.6947362E+03  0.7818608E-02  0.1001978E+00
          2   -1    0    0  501    0  0.00000000000E+00  0.00000000000E+00  0.15088206611E+04  0.15088206611E+04  0.25500000000E-02 0. -1.
         -2   -1    0    0    0  501 -0.00000000000E+00 -0.00000000000E+00 -0.21239011394E+03  0.21239011396E+03  0.25500000000E-02 0.  1.
    8880023    1    1    2    0    0  0.21380124010E+03 -0.56011235632E+02  0.12744860518E+04  0.14515416395E+04  0.65864270000E+03 0.  0.
    8880022    1    1    2    0    0 -0.21380124010E+03  0.56011235632E+02  0.21944495388E+02  0.26966913556E+03  0.15294330000E+03 0.  0.
<mgrwt>
<rscale>  0 0.54791361E+03</rscale>
<asrwt>0</asrwt>
<pdfrwt beam="1">  1        2 0.23212626E+00 0.69473623E+03</pdfrwt>
<pdfrwt beam="2">  1       -2 0.32675401E-01 0.69473623E+03</pdfrwt>
<totfact> 0.11207966E+02</totfact>
</mgrwt>
</event>
<event>
 4    1  0.3565372E-007  0.9009365E+03  0.7818608E-02  0.9524530E-01
          2   -1    0    0  501    0  0.00000000000E+00  0.00000000000E+00  0.11005416788E+04  0.11005416788E+04  0.25500000000E-02 0. -1.
         -2   -1    0    0    0  501 -0.00000000000E+00 -0.00000000000E+00 -0.75037883057E+03  0.75037883058E+03  0.25500000000E-02 0.  1.
    8880023    1    1    2    0    0  0.45833461525E+03 -0.40964091932E+03  0.68745562939E+03  0.11332615545E+04  0.65864270000E+03 0. -1.
    8880022    1    1    2    0    0 -0.45833461525E+03  0.40964091932E+03 -0.33729278113E+03  0.71765895489E+03  0.15294330000E+03 0.  0.
<mgrwt>
<rscale>  0 0.82499237E+03</rscale>
<asrwt>0</asrwt>
<pdfrwt beam="1">  1        2 0.16931410E+00 0.90093646E+03</pdfrwt>
<pdfrwt beam="2">  1       -2 0.11544290E+00 0.90093646E+03</pdfrwt>
<totfact> 0.12740992E+01</totfact>
</mgrwt>
</event>
<event>
 4    1  0.3565372E-007  0.7736816E+03  0.7818608E-02  0.9770894E-01
         -2   -1    0    0    0  501 -0.00000000000E+00  0.00000000000E+00  0.76458438107E+03  0.76458438107E+03  0.25500000000E-02 0.  1.
          2   -1    0    0  501    0  0.00000000000E+00 -0.00000000000E+00 -0.75252223306E+03  0.75252223306E+03  0.25500000000E-02 0. -1.
    8880023    1    1    2    0    0  0.39677051257E+03  0.85709480483E+02 -0.44044554895E+03  0.89026706248E+03  0.65864270000E+03 0.  0.
    8880022    1    1    2    0    0 -0.39677051257E+03 -0.85709480483E+02  0.45250769696E+03  0.62683955165E+03  0.15294330000E+03 0.  0.
<mgrwt>
<rscale>  0 0.66948204E+03</rscale>
<asrwt>0</asrwt>
<pdfrwt beam="1">  1        2 0.11577265E+00 0.77368156E+03</pdfrwt>
<pdfrwt beam="2">  1       -2 0.11762837E+00 0.77368156E+03</pdfrwt>
<totfact> 0.21078230E+01</totfact>
</mgrwt>
</event>
<event>
 4    1  0.3565372E-007  0.9635435E+03  0.7818608E-02  0.9430890E-01
          2   -1    0    0  501    0  0.00000000000E+00  0.00000000000E+00  0.10952041267E+04  0.10952041267E+04  0.25500000000E-02 0. -1.
         -2   -1    0    0    0  501 -0.00000000000E+00 -0.00000000000E+00 -0.70964714638E+03  0.70964714638E+03  0.25500000000E-02 0.  1.
    8880023    1    1    2    0    0  0.70027762204E+03  0.64939377203E+02  0.48426818722E+03  0.10783931352E+04  0.65864270000E+03 0.  0.
    8880022    1    1    2    0    0 -0.70027762204E+03 -0.64939377203E+02 -0.98711206933E+02  0.72645813784E+03  0.15294330000E+03 0.  0.
<mgrwt>
<rscale>  0 0.89576575E+03</rscale>
<asrwt>0</asrwt>
<pdfrwt beam="1">  1        2 0.16849294E+00 0.96354350E+03</pdfrwt>
<pdfrwt beam="2">  1       -2 0.10917648E+00 0.96354350E+03</pdfrwt>
<totfact> 0.14624911E+01</totfact>
</mgrwt>
</event>
<event>
 4    1  0.3565372E-007  0.6686726E+03  0.7818608E-02  0.1016633E+00
          2   -1    0    0  501    0  0.00000000000E+00  0.00000000000E+00  0.14012417052E+04  0.14012417052E+04  0.25500000000E-02 0. -1.
         -2   -1    0    0    0  501 -0.00000000000E+00 -0.00000000000E+00 -0.29596772737E+03  0.29596772738E+03  0.25500000000E-02 0.  1.
    8880023    1    1    2    0    0 -0.11412012123E+03  0.17014680000E+02  0.12760021136E+04  0.14405917193E+04  0.65864270000E+03 0. -1.
    8880022    1    1    2    0    0  0.11412012123E+03 -0.17014680000E+02 -0.17072813581E+03  0.25661771329E+03  0.15294330000E+03 0.  0.
<mgrwt>
<rscale>  0 0.48921545E+03</rscale>
<asrwt>0</asrwt>
<pdfrwt beam="1">  1        2 0.21557565E+00 0.66867265E+03</pdfrwt>
<pdfrwt beam="2">  1       -2 0.45533496E-01 0.66867265E+03</pdfrwt>
<totfact> 0.67896925E+01</totfact>
</mgrwt>
</event>
<event>
 4    1  0.3565372E-007  0.1046510E+04  0.7818608E-02  0.9323089E-01
          2   -1    0    0  501    0  0.00000000000E+00  0.00000000000E+00  0.26200729923E+04  0.26200729923E+04  0.25500000000E-02 0. -1.
         -2   -1    0    0    0  501 -0.00000000000E+00 -0.00000000000E+00 -0.55211368667E+03  0.55211368668E+03  0.25500000000E-02 0.  1.
    8880023    1    1    2    0    0  0.21347515519E+03  0.78472973766E+03  0.20975855238E+04  0.23441517952E+04  0.65864270000E+03 0.  0.
    8880022    1    1    2    0    0 -0.21347515519E+03 -0.78472973766E+03 -0.29626218102E+02  0.82803488384E+03  0.15294330000E+03 0.  0.
<mgrwt>
<rscale>  0 0.98684756E+03</rscale>
<asrwt>0</asrwt>
<pdfrwt beam="1">  1        2 0.40308815E+00 0.10465097E+04</pdfrwt>
<pdfrwt beam="2">  1       -2 0.84940567E-01 0.10465097E+04</pdfrwt>
<totfact> 0.35948304E+00</totfact>
</mgrwt>
</event>
<event>
 4    1  0.3565372E-007  0.6894336E+03  0.7818608E-02  0.1004423E+00
         -2   -1    0    0    0  501 -0.00000000000E+00  0.00000000000E+00  0.62275482674E+03  0.62275482674E+03  0.25500000000E-02 0.  1.
          2   -1    0    0  501    0  0.00000000000E+00 -0.00000000000E+00 -0.16957748345E+04  0.16957748345E+04  0.25500000000E-02 0. -1.
    8880023    1    1    2    0    0 -0.14057283568E+03 -0.14747104554E+03 -0.15950407630E+04  0.17376632796E+04  0.65864270000E+03 0. -1.
    8880022    1    1    2    0    0  0.14057283568E+03  0.14747104554E+03  0.52202075523E+03  0.58086638163E+03  0.15294330000E+03 0.  0.
<mgrwt>
<rscale>  0 0.53752662E+03</rscale>
<asrwt>0</asrwt>
<pdfrwt beam="1">  1        2 0.26088843E+00 0.68943356E+03</pdfrwt>
<pdfrwt beam="2">  1       -2 0.95808436E-01 0.68943356E+03</pdfrwt>
<totfact> 0.93514099E+00</totfact>
</mgrwt>
</event>
<event>
 4    1  0.3565372E-007  0.7519575E+03  0.7818608E-02  0.9826392E-01
         -2   -1    0    0    0  501 -0.00000000000E+00  0.00000000000E+00  0.68631057220E+03  0.68631057221E+03  0.25500000000E-02 0.  1.
          2   -1    0    0  501    0  0.00000000000E+00 -0.00000000000E+00 -0.48255812188E+03  0.48255812189E+03  0.25500000000E-02 0. -1.
    8880023    1    1    2    0    0  0.22925611822E+02  0.36208323767E+03  0.18661677755E+03  0.77476827672E+03  0.65864270000E+03 0.  1.
    8880022    1    1    2    0    0 -0.22925611822E+02 -0.36208323767E+03  0.17135672771E+02  0.39410041738E+03  0.15294330000E+03 0. -1.
<mgrwt>
<rscale>  0 0.63965229E+03</rscale>
<asrwt>0</asrwt>
<pdfrwt beam="1">  1        2 0.74239711E-01 0.75195749E+03</pdfrwt>
<pdfrwt beam="2">  1       -2 0.10558624E+00 0.75195749E+03</pdfrwt>
<totfact> 0.47083245E+01</totfact>
</mgrwt>
</event>
<event>
 4    1  0.3565372E-007  0.8701686E+03  0.7818608E-02  0.9575725E-01
         -2   -1    0    0    0  501 -0.00000000000E+00  0.00000000000E+00  0.59272438402E+03  0.59272438403E+03  0.25500000000E-02 0.  1.
          2   -1    0    0  501    0  0.00000000000E+00 -0.00000000000E+00 -0.13631483175E+04  0.13631483175E+04  0.25500000000E-02 0. -1.
    8880023    1    1    2    0    0  0.54024505358E+03  0.17753420964E+03  0.13015999232E+03  0.87984938676E+03  0.65864270000E+03 0. -1.
    8880022    1    1    2    0    0 -0.54024505358E+03 -0.17753420964E+03 -0.90058392580E+03  0.10760233148E+04  0.15294330000E+03 0.  0.
<mgrwt>
<rscale>  0 0.78923889E+03</rscale>
<asrwt>0</asrwt>
<pdfrwt beam="1">  1        2 0.20971512E+00 0.87016856E+03</pdfrwt>
<pdfrwt beam="2">  1       -2 0.91188367E-01 0.87016856E+03</pdfrwt>
<totfact> 0.15702675E+01</totfact>
</mgrwt>
</event>
<event>
 4    1  0.3565372E-007  0.7472162E+03  0.7818608E-02  0.9839404E-01
          2   -1    0    0  501    0  0.00000000000E+00  0.00000000000E+00  0.42092706708E+04  0.42092706708E+04  0.25500000000E-02 0. -1.
         -2   -1    0    0    0  501 -0.00000000000E+00 -0.00000000000E+00 -0.10229961673E+03  0.10229961676E+03  0.25500000000E-02 0.  1.
    8880023    1    1    2    0    0  0.22569272366E+03 -0.27126486903E+03  0.35916580626E+04  0.36685609822E+04  0.65864270000E+03 0. -1.
    8880022    1    1    2    0    0 -0.22569272366E+03  0.27126486903E+03  0.51531299146E+03  0.64300930542E+03  0.15294330000E+03 0.  0.
<mgrwt>
<rscale>  0 0.63290085E+03</rscale>
<asrwt>0</asrwt>
<pdfrwt beam="1">  1        2 0.64758000E+00 0.74721619E+03</pdfrwt>
<pdfrwt beam="2">  1       -2 0.15738405E-01 0.74721619E+03</pdfrwt>
<totfact> 0.82098344E+00</totfact>
</mgrwt>
</event>
<event>
 4    1  0.3565372E-007  0.8734667E+03  0.7818608E-02  0.9570044E-01
          2   -1    0    0  501    0  0.00000000000E+00  0.00000000000E+00  0.12190871175E+04  0.12190871175E+04  0.25500000000E-02 0. -1.
         -2   -1    0    0    0  501 -0.00000000000E+00 -0.00000000000E+00 -0.52859145321E+03  0.52859145322E+03  0.25500000000E-02 0.  1.
    8880023    1    1    2    0    0  0.27823237045E+03  0.50171759397E+03  0.50857733505E+02  0.87494600484E+03  0.65864270000E+03 0.  1.
    8880022    1    1    2    0    0 -0.27823237045E+03 -0.50171759397E+03  0.63963793083E+03  0.87273256593E+03  0.15294330000E+03 0.  0.
<mgrwt>
<rscale>  0 0.79311024E+03</rscale>
<asrwt>0</asrwt>
<pdfrwt beam="1">  1        2 0.18755186E+00 0.87346666E+03</pdfrwt>
<pdfrwt beam="2">  1       -2 0.81321763E-01 0.87346666E+03</pdfrwt>
<totfact> 0.24741658E+01</totfact>
</mgrwt>
</event>
<event>
 4    1  0.3565372E-007  0.7124787E+03  0.7818608E-02  0.9948909E-01
          2   -1    0    0  501    0  0.00000000000E+00  0.00000000000E+00  0.30665623478E+03  0.30665623479E+03  0.25500000000E-02 0. -1.
         -2   -1    0    0    0  501 -0.00000000000E+00 -0.00000000000E+00 -0.10182276054E+04  0.10182276054E+04  0.25500000000E-02 0.  1.
    8880023    1    1    2    0    0 -0.25411319969E+03 -0.96136584010E+02 -0.22531459163E+03  0.74725673801E+03  0.65864270000E+03 0. -1.
    8880022    1    1    2    0    0  0.25411319969E+03  0.96136584010E+02 -0.48625677904E+03  0.57762710222E+03  0.15294330000E+03 0.  0.
<mgrwt>
<rscale>  0 0.57948388E+03</rscale>
<asrwt>0</asrwt>
<pdfrwt beam="1">  1        2 0.47177883E-01 0.71247875E+03</pdfrwt>
<pdfrwt beam="2">  1       -2 0.15665040E+00 0.71247875E+03</pdfrwt>
<totfact> 0.29015650E+01</totfact>
</mgrwt>
</event>
<event>
 4    1  0.3565372E-007  0.7342785E+03  0.7818608E-02  0.9876938E-01
          2   -1    0    0  501    0  0.00000000000E+00  0.00000000000E+00  0.10399267934E+04  0.10399267934E+04  0.25500000000E-02 0. -1.
         -2   -1    0    0    0  501 -0.00000000000E+00 -0.00000000000E+00 -0.78736153428E+03  0.78736153428E+03  0.25500000000E-02 0.  1.
    8880023    1    1    2    0    0  0.32341206546E+03 -0.27555584621E+02  0.85442300097E+03  0.11265893419E+04  0.65864270000E+03 0. -1.
    8880022    1    1    2    0    0 -0.32341206546E+03  0.27555584621E+02 -0.60185774184E+03  0.70069898584E+03  0.15294330000E+03 0.  0.
<mgrwt>
<rscale>  0 0.61392095E+03</rscale>
<asrwt>0</asrwt>
<pdfrwt beam="1">  1        2 0.15998874E+00 0.73427848E+03</pdfrwt>
<pdfrwt beam="2">  1       -2 0.12113254E+00 0.73427848E+03</pdfrwt>
<totfact> 0.12560151E+01</totfact>
</mgrwt>
</event>
<event>
 4    1  0.3565372E-007  0.8081600E+03  0.7818608E-02  0.9693422E-01
          2   -1    0    0  501    0  0.00000000000E+00  0.00000000000E+00  0.19194666118E+04  0.19194666118E+04  0.25500000000E-02 0. -1.
         -2   -1    0    0    0  501 -0.00000000000E+00 -0.00000000000E+00 -0.27382955290E+03  0.27382955291E+03  0.25500000000E-02 0.  1.
    8880023    1    1    2    0    0  0.73838539454E+02 -0.46245025349E+03  0.14563053941E+04  0.16655173292E+04  0.65864270000E+03 0.  0.
    8880022    1    1    2    0    0 -0.73838539454E+02  0.46245025349E+03  0.18933166481E+03  0.52777883547E+03  0.15294330000E+03 0.  0.
<mgrwt>
<rscale>  0 0.71409770E+03</rscale>
<asrwt>0</asrwt>
<pdfrwt beam="1">  1        2 0.29530255E+00 0.80815999E+03</pdfrwt>
<pdfrwt beam="2">  1       -2 0.42127624E-01 0.80815999E+03</pdfrwt>
<totfact> 0.40447274E+01</totfact>
</mgrwt>
</event>
<event>
 4    1  0.3565372E-007  0.6704632E+03  0.7818608E-02  0.1015333E+00
          2   -1    0    0  501    0  0.00000000000E+00  0.00000000000E+00  0.29025130429E+04  0.29025130429E+04  0.25500000000E-02 0. -1.
         -2   -1    0    0    0  501 -0.00000000000E+00 -0.00000000000E+00 -0.45885199596E+03  0.45885199597E+03  0.25500000000E-02 0.  1.
    8880023    1    1    2    0    0  0.82910161086E+02 -0.94002922469E+02  0.28401965504E+04  0.29182592920E+04  0.65864270000E+03 0. -1.
    8880022    1    1    2    0    0 -0.82910161086E+02  0.94002922469E+02 -0.39653550354E+03  0.44310574678E+03  0.15294330000E+03 0.  0.
<mgrwt>
<rscale>  0 0.49409047E+03</rscale>
<asrwt>0</asrwt>
<pdfrwt beam="1">  1        2 0.44654045E+00 0.67046316E+03</pdfrwt>
<pdfrwt beam="2">  1       -2 0.70592617E-01 0.67046316E+03</pdfrwt>
<totfact> 0.39491465E+00</totfact>
</mgrwt>
</event>
<event>
 4    1  0.3565372E-007  0.9775249E+03  0.7818608E-02  0.9411571E-01
          2   -1    0    0  501    0  0.00000000000E+00  0.00000000000E+00  0.34002259361E+04  0.34002259361E+04  0.25500000000E-02 0. -1.
         -2   -1    0    0    0  501 -0.00000000000E+00 -0.00000000000E+00 -0.30968690239E+03  0.30968690240E+03  0.25500000000E-02 0.  1.
    8880023    1    1    2    0    0 -0.71937627112E+03 -0.65134715283E+02  0.27066114516E+04  0.28777248838E+04  0.65864270000E+03 0.  0.
    8880022    1    1    2    0    0  0.71937627112E+03  0.65134715283E+02  0.38392758206E+03  0.83218795465E+03  0.15294330000E+03 0.  0.
<mgrwt>
<rscale>  0 0.91129508E+03</rscale>
<asrwt>0</asrwt>
<pdfrwt beam="1">  1        2 0.52311172E+00 0.97752491E+03</pdfrwt>
<pdfrwt beam="2">  1       -2 0.47644136E-01 0.97752491E+03</pdfrwt>
<totfact> 0.41287374E+00</totfact>
</mgrwt>
</event>
<event>
 4    1  0.3565372E-007  0.7270658E+03  0.7818608E-02  0.9899365E-01
         -2   -1    0    0    0  501 -0.00000000000E+00  0.00000000000E+00  0.51605908455E+03  0.51605908456E+03  0.25500000000E-02 0.  1.
          2   -1    0    0  501    0  0.00000000000E+00 -0.00000000000E+00 -0.64147277190E+03  0.64147277190E+03  0.25500000000E-02 0. -1.
    8880023    1    1    2    0    0 -0.29579513559E+03 -0.85555183652E+02 -0.28187480826E+03  0.77979360441E+03  0.65864270000E+03 0. -1.
    8880022    1    1    2    0    0  0.29579513559E+03  0.85555183652E+02  0.15646112091E+03  0.37773825205E+03  0.15294330000E+03 0.  0.
<mgrwt>
<rscale>  0 0.60292080E+03</rscale>
<asrwt>0</asrwt>
<pdfrwt beam="1">  1        2 0.98688120E-01 0.72706579E+03</pdfrwt>
<pdfrwt beam="2">  1       -2 0.79393705E-01 0.72706579E+03</pdfrwt>
<totfact> 0.65156207E+01</totfact>
</mgrwt>
</event>
<event>
 4    1  0.3565372E-007  0.9780838E+03  0.7818608E-02  0.9410810E-01
          2   -1    0    0  501    0  0.00000000000E+00  0.00000000000E+00  0.30334892466E+04  0.30334892466E+04  0.25500000000E-02 0. -1.
         -2   -1    0    0    0  501 -0.00000000000E+00 -0.00000000000E+00 -0.52514619382E+03  0.52514619383E+03  0.25500000000E-02 0.  1.
    8880023    1    1    2    0    0  0.29852993586E+03 -0.65857238104E+03  0.26332960152E+04  0.28090738356E+04  0.65864270000E+03 0.  0.
    8880022    1    1    2    0    0 -0.29852993586E+03  0.65857238104E+03 -0.12495296242E+03  0.74956160488E+03  0.15294330000E+03 0.  0.
<mgrwt>
<rscale>  0 0.91191409E+03</rscale>
<asrwt>0</asrwt>
<pdfrwt beam="1">  1        2 0.46669066E+00 0.97808379E+03</pdfrwt>
<pdfrwt beam="2">  1       -2 0.80791720E-01 0.97808379E+03</pdfrwt>
<totfact> 0.22996598E+00</totfact>
</mgrwt>
</event>
<event>
 4    1  0.3565372E-007  0.1009724E+04  0.7818608E-02  0.9368945E-01
         -2   -1    0    0    0  501 -0.00000000000E+00  0.00000000000E+00  0.35832564552E+03  0.35832564553E+03  0.25500000000E-02 0.  1.
          2   -1    0    0  501    0  0.00000000000E+00 -0.00000000000E+00 -0.25563779465E+04  0.25563779465E+04  0.25500000000E-02 0. -1.
    8880023    1    1    2    0    0  0.41220941804E+02 -0.76422070670E+03 -0.17343881934E+04  0.20068993663E+04  0.65864270000E+03 0.  0.
    8880022    1    1    2    0    0 -0.41220941804E+02  0.76422070670E+03 -0.46366410749E+03  0.90780422569E+03  0.15294330000E+03 0.  0.
<mgrwt>
<rscale>  0 0.94676076E+03</rscale>
<asrwt>0</asrwt>
<pdfrwt beam="1">  1        2 0.39328890E+00 0.10097241E+04</pdfrwt>
<pdfrwt beam="2">  1       -2 0.55127024E-01 0.10097241E+04</pdfrwt>
<totfact> 0.10105509E+01</totfact>
</mgrwt>
</event>
<event>
 4    1  0.3565372E-007  0.1090479E+04  0.7818608E-02  0.9271731E-01
         -2   -1    0    0    0  501 -0.00000000000E+00  0.00000000000E+00  0.83051987648E+03  0.83051987649E+03  0.25500000000E-02 0.  1.
          2   -1    0    0  501    0  0.00000000000E+00 -0.00000000000E+00 -0.27675388041E+04  0.27675388041E+04  0.25500000000E-02 0. -1.
    8880023    1    1    2    0    0  0.51642525026E+03 -0.69902778736E+03 -0.23746370285E+04  0.26130530248E+04  0.65864270000E+03 0.  0.
    8880022    1    1    2    0    0 -0.51642525026E+03  0.69902778736E+03  0.43761810097E+03  0.98500565578E+03  0.15294330000E+03 0.  0.
<mgrwt>
<rscale>  0 0.10342754E+04</rscale>
<asrwt>0</asrwt>
<pdfrwt beam="1">  1        2 0.42577520E+00 0.10904793E+04</pdfrwt>
<pdfrwt beam="2">  1       -2 0.12777229E+00 0.10904793E+04</pdfrwt>
<totfact> 0.10957868E+00</totfact>
</mgrwt>
</event>
<event>
 4    1  0.3565372E-007  0.9396133E+03  0.7818608E-02  0.9465218E-01
         -2   -1    0    0    0  501 -0.00000000000E+00  0.00000000000E+00  0.40692497243E+03  0.40692497244E+03  0.25500000000E-02 0.  1.
          2   -1    0    0  501    0  0.00000000000E+00 -0.00000000000E+00 -0.26688594706E+04  0.26688594706E+04  0.25500000000E-02 0. -1.
    8880023    1    1    2    0    0  0.54838409012E+03  0.38514659005E+03 -0.21919813725E+04  0.23848806155E+04  0.65864270000E+03 0. -1.
    8880022    1    1    2    0    0 -0.54838409012E+03 -0.38514659005E+03 -0.69953125580E+02  0.69090382754E+03  0.15294330000E+03 0.  0.
<mgrwt>
<rscale>  0 0.86897422E+03</rscale>
<asrwt>0</asrwt>
<pdfrwt beam="1">  1        2 0.41059375E+00 0.93961333E+03</pdfrwt>
<pdfrwt beam="2">  1       -2 0.62603844E-01 0.93961333E+03</pdfrwt>
<totfact> 0.67106783E+00</totfact>
</mgrwt>
</event>
<event>
 4    1  0.3565372E-007  0.6980373E+03  0.7818608E-02  0.1000544E+00
          2   -1    0    0  501    0  0.00000000000E+00  0.00000000000E+00  0.26306930101E+04  0.26306930101E+04  0.25500000000E-02 0. -1.
         -2   -1    0    0    0  501 -0.00000000000E+00 -0.00000000000E+00 -0.28086716823E+03  0.28086716824E+03  0.25500000000E-02 0.  1.
    8880023    1    1    2    0    0  0.14457857472E+03  0.18039658983E+03  0.25004695349E+04  0.25960747283E+04  0.65864270000E+03 0. -1.
    8880022    1    1    2    0    0 -0.14457857472E+03 -0.18039658983E+03 -0.15064369304E+03  0.31548544999E+03  0.15294330000E+03 0.  0.
<mgrwt>
<rscale>  0 0.55412235E+03</rscale>
<asrwt>0</asrwt>
<pdfrwt beam="1">  1        2 0.40472199E+00 0.69803732E+03</pdfrwt>
<pdfrwt beam="2">  1       -2 0.43210335E-01 0.69803732E+03</pdfrwt>
<totfact> 0.15706892E+01</totfact>
</mgrwt>
</event>
<event>
 4    1  0.3565372E-007  0.6655564E+03  0.7818608E-02  0.1019071E+00
         -2   -1    0    0    0  501 -0.00000000000E+00  0.00000000000E+00  0.55082685595E+03  0.55082685596E+03  0.25500000000E-02 0.  1.
          2   -1    0    0  501    0  0.00000000000E+00 -0.00000000000E+00 -0.93011941712E+03  0.93011941713E+03  0.25500000000E-02 0. -1.
    8880023    1    1    2    0    0 -0.24100231732E+02 -0.92597292048E+02 -0.78962745651E+03  0.10327036390E+04  0.65864270000E+03 0. -1.
    8880022    1    1    2    0    0  0.24100231732E+02  0.92597292048E+02  0.41033489534E+03  0.44824263408E+03  0.15294330000E+03 0.  0.
<mgrwt>
<rscale>  0 0.48023307E+03</rscale>
<asrwt>0</asrwt>
<pdfrwt beam="1">  1        2 0.14309529E+00 0.66555637E+03</pdfrwt>
<pdfrwt beam="2">  1       -2 0.84742593E-01 0.66555637E+03</pdfrwt>
<totfact> 0.34755983E+01</totfact>
</mgrwt>
</event>
<event>
 4    1  0.3565372E-007  0.8312964E+03  0.7818608E-02  0.9646815E-01
         -2   -1    0    0    0  501 -0.00000000000E+00  0.00000000000E+00  0.53326877931E+03  0.53326877932E+03  0.25500000000E-02 0.  1.
          2   -1    0    0  501    0  0.00000000000E+00 -0.00000000000E+00 -0.27700228022E+04  0.27700228022E+04  0.25500000000E-02 0. -1.
    8880023    1    1    2    0    0  0.39453316850E+03  0.31872728075E+03 -0.25539517233E+04  0.26858375066E+04  0.65864270000E+03 0. -1.
    8880022    1    1    2    0    0 -0.39453316850E+03 -0.31872728075E+03  0.31719770039E+03  0.61745407496E+03  0.15294330000E+03 0.  0.
<mgrwt>
<rscale>  0 0.74273636E+03</rscale>
<asrwt>0</asrwt>
<pdfrwt beam="1">  1        2 0.42615734E+00 0.83129640E+03</pdfrwt>
<pdfrwt beam="2">  1       -2 0.82041352E-01 0.83129640E+03</pdfrwt>
<totfact> 0.32841430E+00</totfact>
</mgrwt>
</event>
<event>
 4    1  0.3565372E-007  0.6699026E+03  0.7818608E-02  0.1015733E+00
         -2   -1    0    0    0  501 -0.00000000000E+00  0.00000000000E+00  0.50119048631E+03  0.50119048631E+03  0.25500000000E-02 0.  1.
          2   -1    0    0  501    0  0.00000000000E+00 -0.00000000000E+00 -0.77625969499E+03  0.77625969499E+03  0.25500000000E-02 0. -1.
    8880023    1    1    2    0    0  0.44741199269E+02  0.11383079752E+03 -0.59918051154E+03  0.89876955725E+03  0.65864270000E+03 0. -1.
    8880022    1    1    2    0    0 -0.44741199269E+02 -0.11383079752E+03  0.32411130286E+03  0.37868062405E+03  0.15294330000E+03 0.  0.
<mgrwt>
<rscale>  0 0.49258438E+03</rscale>
<asrwt>0</asrwt>
<pdfrwt beam="1">  1        2 0.11942457E+00 0.66990255E+03</pdfrwt>
<pdfrwt beam="2">  1       -2 0.77106229E-01 0.66990255E+03</pdfrwt>
<totfact> 0.54894977E+01</totfact>
</mgrwt>
</event>
<event>
 4    1  0.3565372E-007  0.9542550E+03  0.7818608E-02  0.9444018E-01
         -2   -1    0    0    0  501 -0.00000000000E+00  0.00000000000E+00  0.80285046174E+03  0.80285046174E+03  0.25500000000E-02 0.  1.
          2   -1    0    0  501    0  0.00000000000E+00 -0.00000000000E+00 -0.21178593233E+04  0.21178593233E+04  0.25500000000E-02 0. -1.
    8880023    1    1    2    0    0 -0.10578467438E+03 -0.68235038679E+03  0.42338167806E+03  0.10439610621E+04  0.65864270000E+03 0.  1.
    8880022    1    1    2    0    0  0.10578467438E+03  0.68235038679E+03 -0.17383905396E+04  0.18767487229E+04  0.15294330000E+03 0.  0.
<mgrwt>
<rscale>  0 0.88540012E+03</rscale>
<asrwt>0</asrwt>
<pdfrwt beam="1">  1        2 0.32582451E+00 0.95425503E+03</pdfrwt>
<pdfrwt beam="2">  1       -2 0.12351546E+00 0.95425503E+03</pdfrwt>
<totfact> 0.28561356E+00</totfact>
</mgrwt>
</event>
<event>
 4    1  0.3565372E-007  0.8353211E+03  0.7818608E-02  0.9639067E-01
         -2   -1    0    0    0  501 -0.00000000000E+00  0.00000000000E+00  0.41277515226E+03  0.41277515227E+03  0.25500000000E-02 0.  1.
          2   -1    0    0  501    0  0.00000000000E+00 -0.00000000000E+00 -0.13418478279E+04  0.13418478279E+04  0.25500000000E-02 0. -1.
    8880023    1    1    2    0    0  0.19039096562E+02  0.51340887044E+03 -0.88470966250E+03  0.12167467068E+04  0.65864270000E+03 0. -1.
    8880022    1    1    2    0    0 -0.19039096562E+02 -0.51340887044E+03 -0.44363013134E+02  0.53787627332E+03  0.15294330000E+03 0.  0.
<mgrwt>
<rscale>  0 0.74763588E+03</rscale>
<asrwt>0</asrwt>
<pdfrwt beam="1">  1        2 0.20643812E+00 0.83532111E+03</pdfrwt>
<pdfrwt beam="2">  1       -2 0.63503870E-01 0.83532111E+03</pdfrwt>
<totfact> 0.36294169E+01</totfact>
</mgrwt>
</event>
<event>
 4    1  0.3565372E-007  0.7274752E+03  0.7818608E-02  0.9898059E-01
         -2   -1    0    0    0  501 -0.00000000000E+00  0.00000000000E+00  0.18553664305E+03  0.18553664306E+03  0.25500000000E-02 0.  1.
          2   -1    0    0  501    0  0.00000000000E+00 -0.00000000000E+00 -0.15509410634E+04  0.15509410634E+04  0.25500000000E-02 0. -1.
    8880023    1    1    2    0    0  0.24790568030E+03  0.18426277972E+03 -0.89668609037E+03  0.11546714465E+04  0.65864270000E+03 0.  1.
    8880022    1    1    2    0    0 -0.24790568030E+03 -0.18426277972E+03 -0.46871832997E+03  0.58180626001E+03  0.15294330000E+03 0. -1.
<mgrwt>
<rscale>  0 0.60355446E+03</rscale>
<asrwt>0</asrwt>
<pdfrwt beam="1">  1        2 0.23860631E+00 0.72747523E+03</pdfrwt>
<pdfrwt beam="2">  1       -2 0.28544100E-01 0.72747523E+03</pdfrwt>
<totfact> 0.13617089E+02</totfact>
</mgrwt>
</event>
<event>
 4    1  0.3565372E-007  0.6819905E+03  0.7818608E-02  0.1008219E+00
          2   -1    0    0  501    0  0.00000000000E+00  0.00000000000E+00  0.66606053812E+03  0.66606053812E+03  0.25500000000E-02 0. -1.
         -2   -1    0    0    0  501 -0.00000000000E+00 -0.00000000000E+00 -0.42421473307E+03  0.42421473308E+03  0.25500000000E-02 0.  1.
    8880023    1    1    2    0    0  0.15486243927E+03  0.85547625595E+02  0.41585348202E+03  0.79877725062E+03  0.65864270000E+03 0. -1.
    8880022    1    1    2    0    0 -0.15486243927E+03 -0.85547625595E+02 -0.17400767698E+03  0.29149802058E+03  0.15294330000E+03 0.  0.
<mgrwt>
<rscale>  0 0.52188476E+03</rscale>
<asrwt>0</asrwt>
<pdfrwt beam="1">  1        2 0.10247085E+00 0.68199045E+03</pdfrwt>
<pdfrwt beam="2">  1       -2 0.65263805E-01 0.68199045E+03</pdfrwt>
<totfact> 0.95928327E+01</totfact>
</mgrwt>
</event>
<event>
 4    1  0.3565372E-007  0.7317722E+03  0.7818608E-02  0.9884596E-01
         -2   -1    0    0    0  501 -0.00000000000E+00  0.00000000000E+00  0.19301823225E+03  0.19301823227E+03  0.25500000000E-02 0.  1.
          2   -1    0    0  501    0  0.00000000000E+00 -0.00000000000E+00 -0.18320263063E+04  0.18320263063E+04  0.25500000000E-02 0. -1.
    8880023    1    1    2    0    0 -0.64316629268E+02  0.31232001302E+03 -0.14496708270E+04  0.16238953575E+04  0.65864270000E+03 0.  0.
    8880022    1    1    2    0    0  0.64316629268E+02 -0.31232001302E+03 -0.18933724712E+03  0.40114918110E+03  0.15294330000E+03 0.  0.
<mgrwt>
<rscale>  0 0.61013648E+03</rscale>
<asrwt>0</asrwt>
<pdfrwt beam="1">  1        2 0.28185019E+00 0.73177225E+03</pdfrwt>
<pdfrwt beam="2">  1       -2 0.29695114E-01 0.73177225E+03</pdfrwt>
<totfact> 0.88766610E+01</totfact>
</mgrwt>
</event>
<event>
 4    1  0.3565372E-007  0.9386046E+03  0.7818608E-02  0.9466703E-01
         -2   -1    0    0    0  501 -0.00000000000E+00  0.00000000000E+00  0.91931061528E+03  0.91931061529E+03  0.25500000000E-02 0.  1.
          2   -1    0    0  501    0  0.00000000000E+00 -0.00000000000E+00 -0.72447667795E+03  0.72447667795E+03  0.25500000000E-02 0. -1.
    8880023    1    1    2    0    0 -0.22416866868E+03  0.63001335406E+03  0.19080183230E+03  0.95780163071E+03  0.65864270000E+03 0. -1.
    8880022    1    1    2    0    0  0.22416866868E+03 -0.63001335406E+03  0.40321050301E+01  0.68598566253E+03  0.15294330000E+03 0.  1.
<mgrwt>
<rscale>  0 0.86783847E+03</rscale>
<asrwt>0</asrwt>
<pdfrwt beam="1">  1        2 0.11145795E+00 0.93860462E+03</pdfrwt>
<pdfrwt beam="2">  1       -2 0.14143240E+00 0.93860462E+03</pdfrwt>
<totfact> 0.13681981E+01</totfact>
</mgrwt>
</event>
<event>
 4    1  0.3565372E-007  0.8647153E+03  0.7818608E-02  0.9585230E-01
          2   -1    0    0  501    0  0.00000000000E+00  0.00000000000E+00  0.21553691595E+04  0.21553691595E+04  0.25500000000E-02 0. -1.
         -2   -1    0    0    0  501 -0.00000000000E+00 -0.00000000000E+00 -0.30730276934E+03  0.30730276936E+03  0.25500000000E-02 0.  1.
    8880023    1    1    2    0    0  0.48633191828E+03 -0.27821506629E+03  0.16245631660E+04  0.18403635631E+04  0.65864270000E+03 0.  1.
    8880022    1    1    2    0    0 -0.48633191828E+03  0.27821506629E+03  0.22350322414E+03  0.62230836574E+03  0.15294330000E+03 0. -1.
<mgrwt>
<rscale>  0 0.78281503E+03</rscale>
<asrwt>0</asrwt>
<pdfrwt beam="1">  1        2 0.33159525E+00 0.86471531E+03</pdfrwt>
<pdfrwt beam="2">  1       -2 0.47277350E-01 0.86471531E+03</pdfrwt>
<totfact> 0.23696603E+01</totfact>
</mgrwt>
</event>
<event>
 4    1  0.3565372E-007  0.1555009E+04  0.7818608E-02  0.8871738E-01
          2   -1    0    0  501    0  0.00000000000E+00  0.00000000000E+00  0.19739859792E+04  0.19739859792E+04  0.25500000000E-02 0. -1.
         -2   -1    0    0    0  501 -0.00000000000E+00 -0.00000000000E+00 -0.12759873850E+04  0.12759873850E+04  0.25500000000E-02 0.  1.
    8880023    1    1    2    0    0 -0.12626093962E+04  0.62454885387E+03  0.93340241932E+03  0.18136411004E+04  0.65864270000E+03 0.  1.
    8880022    1    1    2    0    0  0.12626093962E+04 -0.62454885387E+03 -0.23540382509E+03  0.14363322639E+04  0.15294330000E+03 0. -1.
<mgrwt>
<rscale>  0 0.15192714E+04</rscale>
<asrwt>0</asrwt>
<pdfrwt beam="1">  1        2 0.30369015E+00 0.15550093E+04</pdfrwt>
<pdfrwt beam="2">  1       -2 0.19630575E+00 0.15550093E+04</pdfrwt>
<totfact> 0.90840047E-01</totfact>
</mgrwt>
</event>
<event>
 4    1  0.3565372E-007  0.7097761E+03  0.7818608E-02  0.9958833E-01
          2   -1    0    0  501    0  0.00000000000E+00  0.00000000000E+00  0.15324087908E+04  0.15324087908E+04  0.25500000000E-02 0. -1.
         -2   -1    0    0    0  501 -0.00000000000E+00 -0.00000000000E+00 -0.25486237903E+03  0.25486237904E+03  0.25500000000E-02 0.  1.
    8880023    1    1    2    0    0  0.19940390005E+03  0.17381032814E+03  0.12997375490E+04  0.14809118299E+04  0.65864270000E+03 0.  0.
    8880022    1    1    2    0    0 -0.19940390005E+03 -0.17381032814E+03 -0.22191137280E+02  0.30635933985E+03  0.15294330000E+03 0.  0.
<mgrwt>
<rscale>  0 0.57492771E+03</rscale>
<asrwt>0</asrwt>
<pdfrwt beam="1">  1        2 0.23575520E+00 0.70977613E+03</pdfrwt>
<pdfrwt beam="2">  1       -2 0.39209596E-01 0.70977613E+03</pdfrwt>
<totfact> 0.76661159E+01</totfact>
</mgrwt>
</event>
<event>
 4    1  0.3565372E-007  0.9263962E+03  0.7818608E-02  0.9484921E-01
         -2   -1    0    0    0  501 -0.00000000000E+00  0.00000000000E+00  0.34108376377E+03  0.34108376378E+03  0.25500000000E-02 0.  1.
          2   -1    0    0  501    0  0.00000000000E+00 -0.00000000000E+00 -0.29782220549E+04  0.29782220549E+04  0.25500000000E-02 0. -1.
    8880023    1    1    2    0    0  0.57742779722E+03  0.30162371757E+03 -0.44581548782E+03  0.10280862724E+04  0.65864270000E+03 0.  0.
    8880022    1    1    2    0    0 -0.57742779722E+03 -0.30162371757E+03 -0.21913228033E+04  0.22912195463E+04  0.15294330000E+03 0.  0.
<mgrwt>
<rscale>  0 0.85404753E+03</rscale>
<asrwt>0</asrwt>
<pdfrwt beam="1">  1        2 0.45818799E+00 0.92639621E+03</pdfrwt>
<pdfrwt beam="2">  1       -2 0.52474427E-01 0.92639621E+03</pdfrwt>
<totfact> 0.63632563E+00</totfact>
</mgrwt>
</event>
<event>
 4    1  0.3565372E-007  0.6779624E+03  0.7818608E-02  0.1010501E+00
         -2   -1    0    0    0  501 -0.00000000000E+00  0.00000000000E+00  0.36990786174E+03  0.36990786175E+03  0.25500000000E-02 0.  1.
          2   -1    0    0  501    0  0.00000000000E+00 -0.00000000000E+00 -0.14301065521E+04  0.14301065521E+04  0.25500000000E-02 0. -1.
    8880023    1    1    2    0    0 -0.11365924406E+03  0.11359728559E+03 -0.13044164256E+04  0.14700799926E+04  0.65864270000E+03 0.  0.
    8880022    1    1    2    0    0  0.11365924406E+03 -0.11359728559E+03  0.24421773528E+03  0.32993442120E+03  0.15294330000E+03 0.  1.
<mgrwt>
<rscale>  0 0.51276189E+03</rscale>
<asrwt>0</asrwt>
<pdfrwt beam="1">  1        2 0.22001639E+00 0.67796237E+03</pdfrwt>
<pdfrwt beam="2">  1       -2 0.56908903E-01 0.67796237E+03</pdfrwt>
<totfact> 0.41458192E+01</totfact>
</mgrwt>
</event>
<event>
 4    1  0.3565372E-007  0.7640295E+03  0.7818608E-02  0.9794785E-01
          2   -1    0    0  501    0  0.00000000000E+00  0.00000000000E+00  0.16723228802E+04  0.16723228802E+04  0.25500000000E-02 0. -1.
         -2   -1    0    0    0  501 -0.00000000000E+00 -0.00000000000E+00 -0.37727893848E+03  0.37727893849E+03  0.25500000000E-02 0.  1.
    8880023    1    1    2    0    0 -0.38520488323E+03 -0.39345499255E+02  0.14220831645E+04  0.16143300788E+04  0.65864270000E+03 0. -1.
    8880022    1    1    2    0    0  0.38520488323E+03  0.39345499255E+02 -0.12703922279E+03  0.43527173986E+03  0.15294330000E+03 0.  0.
<mgrwt>
<rscale>  0 0.65643159E+03</rscale>
<asrwt>0</asrwt>
<pdfrwt beam="1">  1        2 0.25728044E+00 0.76402950E+03</pdfrwt>
<pdfrwt beam="2">  1       -2 0.58042914E-01 0.76402950E+03</pdfrwt>
<totfact> 0.28920398E+01</totfact>
</mgrwt>
</event>
<event>
 4    1  0.3565372E-007  0.6916319E+03  0.7818608E-02  0.1003386E+00
         -2   -1    0    0    0  501 -0.00000000000E+00  0.00000000000E+00  0.25018556907E+03  0.25018556909E+03  0.25500000000E-02 0.  1.
          2   -1    0    0  501    0  0.00000000000E+00 -0.00000000000E+00 -0.13615763530E+04  0.13615763530E+04  0.25500000000E-02 0. -1.
    8880023    1    1    2    0    0  0.14566648399E+03  0.15272755624E+03 -0.11562161219E+04  0.13472900051E+04  0.65864270000E+03 0. -1.
    8880022    1    1    2    0    0 -0.14566648399E+03 -0.15272755624E+03  0.44825337893E+02  0.26447191708E+03  0.15294330000E+03 0. -1.
<mgrwt>
<rscale>  0 0.54189957E+03</rscale>
<asrwt>0</asrwt>
<pdfrwt beam="1">  1        2 0.20947328E+00 0.69163187E+03</pdfrwt>
<pdfrwt beam="2">  1       -2 0.38490088E-01 0.69163187E+03</pdfrwt>
<totfact> 0.99223900E+01</totfact>
</mgrwt>
</event>
<event>
 4    1  0.3565372E-007  0.7237887E+03  0.7818608E-02  0.9909969E-01
          2   -1    0    0  501    0  0.00000000000E+00  0.00000000000E+00  0.24579125558E+04  0.24579125558E+04  0.25500000000E-02 0. -1.
         -2   -1    0    0    0  501 -0.00000000000E+00 -0.00000000000E+00 -0.21446135630E+03  0.21446135632E+03  0.25500000000E-02 0.  1.
    8880023    1    1    2    0    0  0.26794520190E+03 -0.13514908076E+03  0.22196856854E+04  0.23347108286E+04  0.65864270000E+03 0. -1.
    8880022    1    1    2    0    0 -0.26794520190E+03  0.13514908076E+03  0.23765514103E+02  0.33766308345E+03  0.15294330000E+03 0.  0.
<mgrwt>
<rscale>  0 0.59780586E+03</rscale>
<asrwt>0</asrwt>
<pdfrwt beam="1">  1        2 0.37814038E+00 0.72378872E+03</pdfrwt>
<pdfrwt beam="2">  1       -2 0.32994056E-01 0.72378872E+03</pdfrwt>
<totfact> 0.33008313E+01</totfact>
</mgrwt>
</event>
<event>
 4    1  0.3565372E-007  0.6642746E+03  0.7818608E-02  0.1020150E+00
          2   -1    0    0  501    0  0.00000000000E+00  0.00000000000E+00  0.63388910409E+03  0.63388910409E+03  0.25500000000E-02 0. -1.
         -2   -1    0    0    0  501 -0.00000000000E+00 -0.00000000000E+00 -0.45603643658E+03  0.45603643659E+03  0.25500000000E-02 0.  1.
    8880023    1    1    2    0    0 -0.42271170752E+02 -0.75257297348E+02  0.42362392054E+03  0.78785655103E+03  0.65864270000E+03 0. -1.
    8880022    1    1    2    0    0  0.42271170752E+02  0.75257297348E+02 -0.24577125303E+03  0.30206898965E+03  0.15294330000E+03 0.  0.
<mgrwt>
<rscale>  0 0.47632550E+03</rscale>
<asrwt>0</asrwt>
<pdfrwt beam="1">  1        2 0.97521400E-01 0.66427458E+03</pdfrwt>
<pdfrwt beam="2">  1       -2 0.70159453E-01 0.66427458E+03</pdfrwt>
<totfact> 0.87287323E+01</totfact>
</mgrwt>
</event>
<event>
 4    1  0.3565372E-007  0.6674636E+03  0.7818608E-02  0.1017550E+00
         -2   -1    0    0    0  501 -0.00000000000E+00  0.00000000000E+00  0.10217810976E+03  0.10217810979E+03  0.25500000000E-02 0.  1.
          2   -1    0    0  501    0  0.00000000000E+00 -0.00000000000E+00 -0.18714745141E+04  0.18714745141E+04  0.25500000000E-02 0. -1.
    8880023    1    1    2    0    0  0.81186753707E+02  0.71457807456E+02 -0.15338284621E+04  0.16727634216E+04  0.65864270000E+03 0. -1.
    8880022    1    1    2    0    0 -0.81186753707E+02 -0.71457807456E+02 -0.23546794224E+03  0.30088920230E+03  0.15294330000E+03 0.  1.
<mgrwt>
<rscale>  0 0.48581099E+03</rscale>
<asrwt>0</asrwt>
<pdfrwt beam="1">  1        2 0.28791913E+00 0.66746364E+03</pdfrwt>
<pdfrwt beam="2">  1       -2 0.15719711E-01 0.66746364E+03</pdfrwt>
<totfact> 0.26188849E+02</totfact>
</mgrwt>
</event>
<event>
 4    1  0.3565372E-007  0.6751324E+03  0.7818608E-02  0.1012223E+00
          2   -1    0    0  501    0  0.00000000000E+00  0.00000000000E+00  0.30154160687E+04  0.30154160687E+04  0.25500000000E-02 0. -1.
         -2   -1    0    0    0  501 -0.00000000000E+00 -0.00000000000E+00 -0.71181689495E+02  0.71181689541E+02  0.25500000000E-02 0.  1.
    8880023    1    1    2    0    0 -0.83470970014E+02  0.12258129414E+03  0.25570289476E+04  0.26446551423E+04  0.65864270000E+03 0.  0.
    8880022    1    1    2    0    0  0.83470970014E+02 -0.12258129414E+03  0.38720543152E+03  0.44194261587E+03  0.15294330000E+03 0.  0.
<mgrwt>
<rscale>  0 0.50600643E+03</rscale>
<asrwt>0</asrwt>
<pdfrwt beam="1">  1        2 0.46391002E+00 0.67513242E+03</pdfrwt>
<pdfrwt beam="2">  1       -2 0.10951033E-01 0.67513242E+03</pdfrwt>
<totfact> 0.10742906E+02</totfact>
</mgrwt>
</event>
<event>
 4    1  0.3565372E-007  0.7549749E+03  0.7818608E-02  0.9818295E-01
         -2   -1    0    0    0  501 -0.00000000000E+00  0.00000000000E+00  0.42413409706E+03  0.42413409707E+03  0.25500000000E-02 0.  1.
          2   -1    0    0  501    0  0.00000000000E+00 -0.00000000000E+00 -0.12630541998E+04  0.12630541998E+04  0.25500000000E-02 0. -1.
    8880023    1    1    2    0    0  0.23173733765E+03 -0.28718415745E+03 -0.10029623727E+04  0.12553567865E+04  0.65864270000E+03 0. -1.
    8880022    1    1    2    0    0 -0.23173733765E+03  0.28718415745E+03  0.16404227005E+03  0.43183151035E+03  0.15294330000E+03 0.  0.
<mgrwt>
<rscale>  0 0.64389911E+03</rscale>
<asrwt>0</asrwt>
<pdfrwt beam="1">  1        2 0.19431603E+00 0.75497493E+03</pdfrwt>
<pdfrwt beam="2">  1       -2 0.65251400E-01 0.75497493E+03</pdfrwt>
<totfact> 0.38323057E+01</totfact>
</mgrwt>
</event>
<event>
 4    1  0.3565372E-007  0.7987341E+03  0.7818608E-02  0.9713540E-01
         -2   -1    0    0    0  501 -0.00000000000E+00  0.00000000000E+00  0.35032747621E+03  0.35032747622E+03  0.25500000000E-02 0.  1.
          2   -1    0    0  501    0  0.00000000000E+00 -0.00000000000E+00 -0.21954618690E+04  0.21954618690E+04  0.25500000000E-02 0. -1.
    8880023    1    1    2    0    0  0.35037924974E+03  0.28530747122E+03 -0.19043742938E+04  0.20650950654E+04  0.65864270000E+03 0.  0.
    8880022    1    1    2    0    0 -0.35037924974E+03 -0.28530747122E+03  0.59239901032E+02  0.48069427984E+03  0.15294330000E+03 0.  0.
<mgrwt>
<rscale>  0 0.70216325E+03</rscale>
<asrwt>0</asrwt>
<pdfrwt beam="1">  1        2 0.33776336E+00 0.79873411E+03</pdfrwt>
<pdfrwt beam="2">  1       -2 0.53896536E-01 0.79873411E+03</pdfrwt>
<totfact> 0.17378428E+01</totfact>
</mgrwt>
</event>
<event>
 4    1  0.3565372E-007  0.7183666E+03  0.7818608E-02  0.9928152E-01
         -2   -1    0    0    0  501 -0.00000000000E+00  0.00000000000E+00  0.16026185837E+04  0.16026185837E+04  0.25500000000E-02 0.  1.
          2   -1    0    0  501    0  0.00000000000E+00 -0.00000000000E+00 -0.53690494432E+03  0.53690494432E+03  0.25500000000E-02 0. -1.
    8880023    1    1    2    0    0 -0.19451976640E+03 -0.21071866341E+03 -0.26803825342E+03  0.76674311617E+03  0.65864270000E+03 0.  0.
    8880022    1    1    2    0    0  0.19451976640E+03  0.21071866341E+03  0.13337518928E+04  0.13727804119E+04  0.15294330000E+03 0.  1.
<mgrwt>
<rscale>  0 0.58916100E+03</rscale>
<asrwt>0</asrwt>
<pdfrwt beam="1">  1        2 0.82600760E-01 0.71836655E+03</pdfrwt>
<pdfrwt beam="2">  1       -2 0.24655671E+00 0.71836655E+03</pdfrwt>
<totfact> 0.39490933E+00</totfact>
</mgrwt>
</event>
<event>
 4    1  0.3565372E-007  0.9794719E+03  0.7818608E-02  0.9408922E-01
          2   -1    0    0  501    0  0.00000000000E+00  0.00000000000E+00  0.74189000705E+03  0.74189000705E+03  0.25500000000E-02 0. -1.
         -2   -1    0    0    0  501 -0.00000000000E+00 -0.00000000000E+00 -0.15419203741E+04  0.15419203741E+04  0.25500000000E-02 0.  1.
    8880023    1    1    2    0    0 -0.24024223586E+03 -0.68398728380E+03  0.23848810657E+03  0.10080881507E+04  0.65864270000E+03 0. -1.
    8880022    1    1    2    0    0  0.24024223586E+03  0.68398728380E+03 -0.10385184736E+04  0.12757222305E+04  0.15294330000E+03 0.  0.
<mgrwt>
<rscale>  0 0.91345096E+03</rscale>
<asrwt>0</asrwt>
<pdfrwt beam="1">  1        2 0.11413692E+00 0.97947187E+03</pdfrwt>
<pdfrwt beam="2">  1       -2 0.23721852E+00 0.97947187E+03</pdfrwt>
<totfact> 0.29275040E+00</totfact>
</mgrwt>
</event>
<event>
 4    1  0.3565372E-007  0.6614507E+03  0.7818608E-02  0.1022717E+00
          2   -1    0    0  501    0  0.00000000000E+00  0.00000000000E+00  0.10529306010E+04  0.10529306010E+04  0.25500000000E-02 0. -1.
         -2   -1    0    0    0  501 -0.00000000000E+00 -0.00000000000E+00 -0.16355931958E+03  0.16355931960E+03  0.25500000000E-02 0.  1.
    8880023    1    1    2    0    0  0.44099507279E+02 -0.41976824000E+02  0.75687979598E+03  0.10051786170E+04  0.65864270000E+03 0.  0.
    8880022    1    1    2    0    0 -0.44099507279E+02  0.41976824000E+02  0.13249148548E+03  0.21131130362E+03  0.15294330000E+03 0.  1.
<mgrwt>
<rscale>  0 0.46718750E+03</rscale>
<asrwt>0</asrwt>
<pdfrwt beam="1">  1        2 0.16198932E+00 0.66145070E+03</pdfrwt>
<pdfrwt beam="2">  1       -2 0.25162973E-01 0.66145070E+03</pdfrwt>
<totfact> 0.33432416E+02</totfact>
</mgrwt>
</event>
<event>
 4    1  0.3565372E-007  0.7672881E+03  0.7818608E-02  0.9786592E-01
          2   -1    0    0  501    0  0.00000000000E+00  0.00000000000E+00  0.19799919712E+04  0.19799919712E+04  0.25500000000E-02 0. -1.
         -2   -1    0    0    0  501 -0.00000000000E+00 -0.00000000000E+00 -0.46346856920E+03  0.46346856921E+03  0.25500000000E-02 0.  1.
    8880023    1    1    2    0    0  0.38348100549E+03 -0.88674016331E+02  0.17850989489E+04  0.19430154983E+04  0.65864270000E+03 0. -1.
    8880022    1    1    2    0    0 -0.38348100549E+03  0.88674016331E+02 -0.26857554696E+03  0.50044504212E+03  0.15294330000E+03 0.  1.
<mgrwt>
<rscale>  0 0.66087075E+03</rscale>
<asrwt>0</asrwt>
<pdfrwt beam="1">  1        2 0.30461415E+00 0.76728806E+03</pdfrwt>
<pdfrwt beam="2">  1       -2 0.71302857E-01 0.76728806E+03</pdfrwt>
<totfact> 0.12629583E+01</totfact>
</mgrwt>
</event>
<event>
 4    1  0.3565372E-007  0.1195573E+04  0.7818608E-02  0.9161438E-01
         -2   -1    0    0    0  501 -0.00000000000E+00  0.00000000000E+00  0.58421215734E+03  0.58421215734E+03  0.25500000000E-02 0.  1.
          2   -1    0    0  501    0  0.00000000000E+00 -0.00000000000E+00 -0.21660601665E+04  0.21660601665E+04  0.25500000000E-02 0. -1.
    8880023    1    1    2    0    0  0.88250870014E+03  0.46557846572E+03 -0.11272265739E+04  0.16431782827E+04  0.65864270000E+03 0.  0.
    8880022    1    1    2    0    0 -0.88250870014E+03 -0.46557846572E+03 -0.45462143530E+03  0.11070940412E+04  0.15294330000E+03 0.  0.
<mgrwt>
<rscale>  0 0.11460475E+04</rscale>
<asrwt>0</asrwt>
<pdfrwt beam="1">  1        2 0.33324002E+00 0.11955731E+04</pdfrwt>
<pdfrwt beam="2">  1       -2 0.89878795E-01 0.11955731E+04</pdfrwt>
<totfact> 0.56169400E+00</totfact>
</mgrwt>
</event>
<event>
 4    1  0.3565372E-007  0.9014502E+03  0.7818608E-02  0.9523708E-01
         -2   -1    0    0    0  501 -0.00000000000E+00  0.00000000000E+00  0.51016351753E+03  0.51016351754E+03  0.25500000000E-02 0.  1.
          2   -1    0    0  501    0  0.00000000000E+00 -0.00000000000E+00 -0.17139202762E+04  0.17139202763E+04  0.25500000000E-02 0. -1.
    8880023    1    1    2    0    0 -0.41964718968E+03  0.45022041107E+03 -0.13006892676E+04  0.15825311875E+04  0.65864270000E+03 0. -1.
    8880022    1    1    2    0    0  0.41964718968E+03 -0.45022041107E+03  0.96932508851E+02  0.64155260629E+03  0.15294330000E+03 0.  0.
<mgrwt>
<rscale>  0 0.82558295E+03</rscale>
<asrwt>0</asrwt>
<pdfrwt beam="1">  1        2 0.26368004E+00 0.90145016E+03</pdfrwt>
<pdfrwt beam="2">  1       -2 0.78486696E-01 0.90145016E+03</pdfrwt>
<totfact> 0.14032225E+01</totfact>
</mgrwt>
</event>
<event>
 4    1  0.3565372E-007  0.9899367E+03  0.7818608E-02  0.9394844E-01
         -2   -1    0    0    0  501 -0.00000000000E+00  0.00000000000E+00  0.16043863709E+04  0.16043863709E+04  0.25500000000E-02 0.  1.
          2   -1    0    0  501    0  0.00000000000E+00 -0.00000000000E+00 -0.80087347290E+03  0.80087347290E+03  0.25500000000E-02 0. -1.
    8880023    1    1    2    0    0  0.23302247678E+03 -0.70133084874E+03 -0.33000168646E+03  0.10434920955E+04  0.65864270000E+03 0.  0.
    8880022    1    1    2    0    0 -0.23302247678E+03  0.70133084874E+03  0.11335145845E+04  0.13617677483E+04  0.15294330000E+03 0.  0.
<mgrwt>
<rscale>  0 0.92501255E+03</rscale>
<asrwt>0</asrwt>
<pdfrwt beam="1">  1        2 0.12321130E+00 0.98993669E+03</pdfrwt>
<pdfrwt beam="2">  1       -2 0.24682867E+00 0.98993669E+03</pdfrwt>
<totfact> 0.23081296E+00</totfact>
</mgrwt>
</event>
<event>
 4    1  0.3565372E-007  0.1124220E+04  0.7818608E-02  0.9234557E-01
          2   -1    0    0  501    0  0.00000000000E+00  0.00000000000E+00  0.24120827479E+04  0.24120827479E+04  0.25500000000E-02 0. -1.
         -2   -1    0    0    0  501 -0.00000000000E+00 -0.00000000000E+00 -0.72454419245E+03  0.72454419246E+03  0.25500000000E-02 0.  1.
    8880023    1    1    2    0    0 -0.47722876200E+03  0.77608875207E+03  0.18823237142E+04  0.21924903224E+04  0.65864270000E+03 0.  0.
    8880022    1    1    2    0    0  0.47722876200E+03 -0.77608875207E+03 -0.19478515875E+03  0.94413661800E+03  0.15294330000E+03 0.  0.
<mgrwt>
<rscale>  0 0.10703751E+04</rscale>
<asrwt>0</asrwt>
<pdfrwt beam="1">  1        2 0.37108966E+00 0.11242203E+04</pdfrwt>
<pdfrwt beam="2">  1       -2 0.11146834E+00 0.11242203E+04</pdfrwt>
<totfact> 0.24637816E+00</totfact>
</mgrwt>
</event>
<event>
 4    1  0.3565372E-007  0.9046159E+03  0.7818608E-02  0.9518662E-01
          2   -1    0    0  501    0  0.00000000000E+00  0.00000000000E+00  0.23540395174E+04  0.23540395174E+04  0.25500000000E-02 0. -1.
         -2   -1    0    0    0  501 -0.00000000000E+00 -0.00000000000E+00 -0.34060729031E+03  0.34060729032E+03  0.25500000000E-02 0.  1.
    8880023    1    1    2    0    0 -0.55645914680E+03  0.27362913994E+03  0.45959696739E+03  0.10146719997E+04  0.65864270000E+03 0.  0.
    8880022    1    1    2    0    0  0.55645914680E+03 -0.27362913994E+03  0.15538352596E+04  0.16799748080E+04  0.15294330000E+03 0.  0.
<mgrwt>
<rscale>  0 0.82921830E+03</rscale>
<asrwt>0</asrwt>
<pdfrwt beam="1">  1        2 0.36215992E+00 0.90461588E+03</pdfrwt>
<pdfrwt beam="2">  1       -2 0.52401123E-01 0.90461588E+03</pdfrwt>
<totfact> 0.14821748E+01</totfact>
</mgrwt>
</event>
<event>
 4    1  0.3565372E-007  0.7001875E+03  0.7818608E-02  0.9996424E-01
          2   -1    0    0  501    0  0.00000000000E+00  0.00000000000E+00  0.77284163527E+03  0.77284163527E+03  0.25500000000E-02 0. -1.
         -2   -1    0    0    0  501 -0.00000000000E+00 -0.00000000000E+00 -0.13760337653E+04  0.13760337653E+04  0.25500000000E-02 0.  1.
    8880023    1    1    2    0    0 -0.19308463445E+03  0.13845815035E+03  0.59436095167E+03  0.91843752242E+03  0.65864270000E+03 0. -1.
    8880022    1    1    2    0    0  0.19308463445E+03 -0.13845815035E+03 -0.11975530817E+04  0.12304378781E+04  0.15294330000E+03 0.  0.
<mgrwt>
<rscale>  0 0.55807304E+03</rscale>
<asrwt>0</asrwt>
<pdfrwt beam="1">  1        2 0.11889871E+00 0.70018750E+03</pdfrwt>
<pdfrwt beam="2">  1       -2 0.21169750E+00 0.70018750E+03</pdfrwt>
<totfact> 0.41507249E+00</totfact>
</mgrwt>
</event>
<event>
 4    1  0.3565372E-007  0.6587058E+03  0.7818608E-02  0.1025523E+00
         -2   -1    0    0    0  501 -0.00000000000E+00  0.00000000000E+00  0.15690457888E+03  0.15690457890E+03  0.25500000000E-02 0.  1.
          2   -1    0    0  501    0  0.00000000000E+00 -0.00000000000E+00 -0.19464223816E+04  0.19464223816E+04  0.25500000000E-02 0. -1.
    8880023    1    1    2    0    0  0.60824892198E+01  0.67943083294E+01 -0.18299278780E+04  0.19448725933E+04  0.65864270000E+03 0.  0.
    8880022    1    1    2    0    0 -0.60824892198E+01 -0.67943083294E+01  0.40410075229E+02  0.15845436723E+03  0.15294330000E+03 0.  1.
<mgrwt>
<rscale>  0 0.45745028E+03</rscale>
<asrwt>0</asrwt>
<pdfrwt beam="1">  1        2 0.29944958E+00 0.65870583E+03</pdfrwt>
<pdfrwt beam="2">  1       -2 0.24139167E-01 0.65870583E+03</pdfrwt>
<totfact> 0.11308381E+02</totfact>
</mgrwt>
</event>
<event>
 4    1  0.3565372E-007  0.7286047E+03  0.7818608E-02  0.9894478E-01
         -2   -1    0    0    0  501 -0.00000000000E+00  0.00000000000E+00  0.67763606195E+03  0.67763606196E+03  0.25500000000E-02 0.  1.
          2   -1    0    0  501    0  0.00000000000E+00 -0.00000000000E+00 -0.12934802591E+04  0.12934802591E+04  0.25500000000E-02 0. -1.
    8880023    1    1    2    0    0  0.26799177339E+03 -0.15885531593E+03 -0.11337473107E+04  0.13476823709E+04  0.65864270000E+03 0. -1.
    8880022    1    1    2    0    0 -0.26799177339E+03  0.15885531593E+03  0.51790311364E+03  0.62343395010E+03  0.15294330000E+03 0.  0.
<mgrwt>
<rscale>  0 0.60529647E+03</rscale>
<asrwt>0</asrwt>
<pdfrwt beam="1">  1        2 0.19899696E+00 0.72860470E+03</pdfrwt>
<pdfrwt beam="2">  1       -2 0.10425170E+00 0.72860470E+03</pdfrwt>
<totfact> 0.12766720E+01</totfact>
</mgrwt>
</event>
<event>
 4    1  0.3565372E-007  0.6899424E+03  0.7818608E-02  0.1004180E+00
         -2   -1    0    0    0  501 -0.00000000000E+00  0.00000000000E+00  0.62698850369E+03  0.62698850369E+03  0.25500000000E-02 0.  1.
          2   -1    0    0  501    0  0.00000000000E+00 -0.00000000000E+00 -0.17476327671E+04  0.17476327671E+04  0.25500000000E-02 0. -1.
    8880023    1    1    2    0    0 -0.20137758163E+03 -0.40710161559E+02 -0.16489664871E+04  0.17874873229E+04  0.65864270000E+03 0. -1.
    8880022    1    1    2    0    0  0.20137758163E+03  0.40710161559E+02  0.52832222373E+03  0.58713394787E+03  0.15294330000E+03 0.  0.
<mgrwt>
<rscale>  0 0.53854768E+03</rscale>
<asrwt>0</asrwt>
<pdfrwt beam="1">  1        2 0.26886658E+00 0.68994236E+03</pdfrwt>
<pdfrwt beam="2">  1       -2 0.96459771E-01 0.68994236E+03</pdfrwt>
<totfact> 0.86233832E+00</totfact>
</mgrwt>
</event>
<event>
 4    1  0.3565372E-007  0.9409232E+03  0.7818608E-02  0.9463296E-01
         -2   -1    0    0    0  501 -0.00000000000E+00  0.00000000000E+00  0.16742970758E+04  0.16742970758E+04  0.25500000000E-02 0.  1.
          2   -1    0    0  501    0  0.00000000000E+00 -0.00000000000E+00 -0.93152500690E+03  0.93152500690E+03  0.25500000000E-02 0. -1.
    8880023    1    1    2    0    0 -0.67188864306E+03  0.95876982490E+01 -0.58634753830E+03  0.11086658264E+04  0.65864270000E+03 0.  0.
    8880022    1    1    2    0    0  0.67188864306E+03 -0.95876982490E+01  0.13291196072E+04  0.14971562563E+04  0.15294330000E+03 0.  0.
<mgrwt>
<rscale>  0 0.87044825E+03</rscale>
<asrwt>0</asrwt>
<pdfrwt beam="1">  1        2 0.14331154E+00 0.94092321E+03</pdfrwt>
<pdfrwt beam="2">  1       -2 0.25758417E+00 0.94092321E+03</pdfrwt>
<totfact> 0.16211470E+00</totfact>
</mgrwt>
</event>
<event>
 4    1  0.3565372E-007  0.7578834E+03  0.7818608E-02  0.9810618E-01
          2   -1    0    0  501    0  0.00000000000E+00  0.00000000000E+00  0.73252312706E+03  0.73252312706E+03  0.25500000000E-02 0. -1.
         -2   -1    0    0    0  501 -0.00000000000E+00 -0.00000000000E+00 -0.12842382461E+04  0.12842382461E+04  0.25500000000E-02 0.  1.
    8880023    1    1    2    0    0 -0.22055150668E+02 -0.37428674705E+03  0.48770893343E+03  0.90124758457E+03  0.65864270000E+03 0. -1.
    8880022    1    1    2    0    0  0.22055150668E+02  0.37428674705E+03 -0.10394240525E+04  0.11155137886E+04  0.15294330000E+03 0.  0.
<mgrwt>
<rscale>  0 0.64795805E+03</rscale>
<asrwt>0</asrwt>
<pdfrwt beam="1">  1        2 0.11269587E+00 0.75788337E+03</pdfrwt>
<pdfrwt beam="2">  1       -2 0.19757512E+00 0.75788337E+03</pdfrwt>
<totfact> 0.54407268E+00</totfact>
</mgrwt>
</event>
<event>
 4    1  0.3565372E-007  0.9158249E+03  0.7818608E-02  0.9501091E-01
         -2   -1    0    0    0  501 -0.00000000000E+00  0.00000000000E+00  0.62753156403E+03  0.62753156404E+03  0.25500000000E-02 0.  1.
          2   -1    0    0  501    0  0.00000000000E+00 -0.00000000000E+00 -0.11997603700E+04  0.11997603700E+04  0.25500000000E-02 0. -1.
    8880023    1    1    2    0    0 -0.12915450959E+03 -0.62309245823E+03 -0.70961026491E+03  0.11585689592E+04  0.65864270000E+03 0.  0.
    8880022    1    1    2    0    0  0.12915450959E+03  0.62309245823E+03  0.13738145893E+03  0.66872297488E+03  0.15294330000E+03 0.  0.
<mgrwt>
<rscale>  0 0.84203468E+03</rscale>
<asrwt>0</asrwt>
<pdfrwt beam="1">  1        2 0.18457852E+00 0.91582493E+03</pdfrwt>
<pdfrwt beam="2">  1       -2 0.96543318E-01 0.91582493E+03</pdfrwt>
<totfact> 0.17037026E+01</totfact>
</mgrwt>
</event>
<event>
 4    1  0.3565372E-007  0.7973407E+03  0.7818608E-02  0.9716576E-01
          2   -1    0    0  501    0  0.00000000000E+00  0.00000000000E+00  0.13556617807E+04  0.13556617807E+04  0.25500000000E-02 0. -1.
         -2   -1    0    0    0  501 -0.00000000000E+00 -0.00000000000E+00 -0.61578963979E+03  0.61578963979E+03  0.25500000000E-02 0.  1.
    8880023    1    1    2    0    0  0.29575769003E+03  0.33833315708E+03  0.11119746666E+04  0.13682981407E+04  0.65864270000E+03 0.  0.
    8880022    1    1    2    0    0 -0.29575769003E+03 -0.33833315708E+03 -0.37210252564E+03  0.60315327985E+03  0.15294330000E+03 0.  0.
<mgrwt>
<rscale>  0 0.70038394E+03</rscale>
<asrwt>0</asrwt>
<pdfrwt beam="1">  1        2 0.20856335E+00 0.79734067E+03</pdfrwt>
<pdfrwt beam="2">  1       -2 0.94736869E-01 0.79734067E+03</pdfrwt>
<totfact> 0.14626496E+01</totfact>
</mgrwt>
</event>
<event>
 4    1  0.3565372E-007  0.7810866E+03  0.7818608E-02  0.9753291E-01
          2   -1    0    0  501    0  0.00000000000E+00  0.00000000000E+00  0.23559305319E+04  0.23559305319E+04  0.25500000000E-02 0. -1.
         -2   -1    0    0    0  501 -0.00000000000E+00 -0.00000000000E+00 -0.29010736655E+03  0.29010736656E+03  0.25500000000E-02 0.  1.
    8880023    1    1    2    0    0  0.13548607428E+03 -0.39740363513E+03  0.20556776316E+04  0.21990695435E+04  0.65864270000E+03 0. -1.
    8880022    1    1    2    0    0 -0.13548607428E+03  0.39740363513E+03  0.10145533768E+02  0.44696835504E+03  0.15294330000E+03 0.  0.
<mgrwt>
<rscale>  0 0.67930627E+03</rscale>
<asrwt>0</asrwt>
<pdfrwt beam="1">  1        2 0.36245084E+00 0.78108664E+03</pdfrwt>
<pdfrwt beam="2">  1       -2 0.44631904E-01 0.78108664E+03</pdfrwt>
<totfact> 0.20807357E+01</totfact>
</mgrwt>
</event>
<event>
 4    1  0.3565372E-007  0.7173374E+03  0.7818608E-02  0.9931700E-01
          2   -1    0    0  501    0  0.00000000000E+00  0.00000000000E+00  0.17745722787E+04  0.17745722787E+04  0.25500000000E-02 0. -1.
         -2   -1    0    0    0  501 -0.00000000000E+00 -0.00000000000E+00 -0.17193391595E+03  0.17193391597E+03  0.25500000000E-02 0.  1.
    8880023    1    1    2    0    0 -0.14150862741E+03  0.24645100524E+03  0.76434165534E+03  0.10482323988E+04  0.65864270000E+03 0.  0.
    8880022    1    1    2    0    0  0.14150862741E+03 -0.24645100524E+03  0.83829670744E+03  0.89827379586E+03  0.15294330000E+03 0.  0.
<mgrwt>
<rscale>  0 0.58749253E+03</rscale>
<asrwt>0</asrwt>
<pdfrwt beam="1">  1        2 0.27301113E+00 0.71733744E+03</pdfrwt>
<pdfrwt beam="2">  1       -2 0.26451371E-01 0.71733744E+03</pdfrwt>
<totfact> 0.11813641E+02</totfact>
</mgrwt>
</event>
<event>
 4    1  0.3565372E-007  0.7040123E+03  0.7818608E-02  0.9980947E-01
         -2   -1    0    0    0  501 -0.00000000000E+00  0.00000000000E+00  0.11029868230E+04  0.11029868230E+04  0.25500000000E-02 0.  1.
          2   -1    0    0  501    0  0.00000000000E+00 -0.00000000000E+00 -0.13882415207E+04  0.13882415207E+04  0.25500000000E-02 0. -1.
    8880023    1    1    2    0    0 -0.86689835371E+02 -0.23304079198E+03 -0.12765684580E+04  0.14578272780E+04  0.65864270000E+03 0. -1.
    8880022    1    1    2    0    0  0.86689835371E+02  0.23304079198E+03  0.99131376024E+03  0.10334010657E+04  0.15294330000E+03 0.  0.
<mgrwt>
<rscale>  0 0.56493641E+03</rscale>
<asrwt>0</asrwt>
<pdfrwt beam="1">  1        2 0.21357562E+00 0.70401232E+03</pdfrwt>
<pdfrwt beam="2">  1       -2 0.16969028E+00 0.70401232E+03</pdfrwt>
<totfact> 0.32554454E+00</totfact>
</mgrwt>
</event>
<event>
 4    1  0.3565372E-007  0.1286278E+04  0.7818608E-02  0.9077501E-01
         -2   -1    0    0    0  501 -0.00000000000E+00  0.00000000000E+00  0.10564938412E+04  0.10564938412E+04  0.25500000000E-02 0.  1.
          2   -1    0    0  501    0  0.00000000000E+00 -0.00000000000E+00 -0.20549334119E+04  0.20549334119E+04  0.25500000000E-02 0. -1.
    8880023    1    1    2    0    0  0.45759790598E+03  0.10056366435E+04  0.37717433261E+03  0.13404370876E+04  0.65864270000E+03 0.  0.
    8880022    1    1    2    0    0 -0.45759790598E+03 -0.10056366435E+04 -0.13756139033E+04  0.17709901655E+04  0.15294330000E+03 0.  0.
<mgrwt>
<rscale>  0 0.12412456E+04</rscale>
<asrwt>0</asrwt>
<pdfrwt beam="1">  1        2 0.31614360E+00 0.12862780E+04</pdfrwt>
<pdfrwt beam="2">  1       -2 0.16253751E+00 0.12862780E+04</pdfrwt>
<totfact> 0.14472924E+00</totfact>
</mgrwt>
</event>
<event>
 4    1  0.3565372E-007  0.9229446E+03  0.7818608E-02  0.9490159E-01
         -2   -1    0    0    0  501 -0.00000000000E+00  0.00000000000E+00  0.66708076658E+03  0.66708076658E+03  0.25500000000E-02 0.  1.
          2   -1    0    0  501    0  0.00000000000E+00 -0.00000000000E+00 -0.12424154647E+04  0.12424154647E+04  0.25500000000E-02 0. -1.
    8880023    1    1    2    0    0  0.64654161556E+03  0.69963136839E+00 -0.78624321941E+03  0.12124376918E+04  0.65864270000E+03 0. -1.
    8880022    1    1    2    0    0 -0.64654161556E+03 -0.69963136839E+00  0.21090852128E+03  0.69705853951E+03  0.15294330000E+03 0.  0.
<mgrwt>
<rscale>  0 0.85013281E+03</rscale>
<asrwt>0</asrwt>
<pdfrwt beam="1">  1        2 0.19114084E+00 0.92294461E+03</pdfrwt>
<pdfrwt beam="2">  1       -2 0.10262781E+00 0.92294461E+03</pdfrwt>
<totfact> 0.13893381E+01</totfact>
</mgrwt>
</event>
<event>
 4    1  0.3565372E-007  0.7346270E+03  0.7818608E-02  0.9875884E-01
         -2   -1    0    0    0  501 -0.00000000000E+00  0.00000000000E+00  0.29212551240E+03  0.29212551241E+03  0.25500000000E-02 0.  1.
          2   -1    0    0  501    0  0.00000000000E+00 -0.00000000000E+00 -0.14505481552E+04  0.14505481552E+04  0.25500000000E-02 0. -1.
    8880023    1    1    2    0    0  0.26067514060E+03 -0.19471816292E+03 -0.11716444108E+04  0.13829054644E+04  0.65864270000E+03 0. -1.
    8880022    1    1    2    0    0 -0.26067514060E+03  0.19471816292E+03  0.13221767955E+02  0.35976820323E+03  0.15294330000E+03 0.  0.
<mgrwt>
<rscale>  0 0.61444429E+03</rscale>
<asrwt>0</asrwt>
<pdfrwt beam="1">  1        2 0.22316125E+00 0.73462705E+03</pdfrwt>
<pdfrwt beam="2">  1       -2 0.44942387E-01 0.73462705E+03</pdfrwt>
<totfact> 0.64939821E+01</totfact>
</mgrwt>
</event>
<event>
 4    1  0.3565372E-007  0.8041394E+03  0.7818608E-02  0.9701916E-01
         -2   -1    0    0    0  501 -0.00000000000E+00  0.00000000000E+00  0.35725714232E+03  0.35725714233E+03  0.25500000000E-02 0.  1.
          2   -1    0    0  501    0  0.00000000000E+00 -0.00000000000E+00 -0.19825604549E+04  0.19825604549E+04  0.25500000000E-02 0. -1.
    8880023    1    1    2    0    0 -0.43609018731E+02 -0.45926920864E+03 -0.16682025216E+04  0.18519016745E+04  0.65864270000E+03 0. -1.
    8880022    1    1    2    0    0  0.43609018731E+02  0.45926920864E+03  0.42899209050E+02  0.48791592275E+03  0.15294330000E+03 0.  0.
<mgrwt>
<rscale>  0 0.70902811E+03</rscale>
<asrwt>0</asrwt>
<pdfrwt beam="1">  1        2 0.30500929E+00 0.80413939E+03</pdfrwt>
<pdfrwt beam="2">  1       -2 0.54962638E-01 0.80413939E+03</pdfrwt>
<totfact> 0.21825482E+01</totfact>
</mgrwt>
</event>
<event>
 4    1  0.3565372E-007  0.7378153E+03  0.7818608E-02  0.9866357E-01
          2   -1    0    0  501    0  0.00000000000E+00  0.00000000000E+00  0.24548905768E+04  0.24548905768E+04  0.25500000000E-02 0. -1.
         -2   -1    0    0    0  501 -0.00000000000E+00 -0.00000000000E+00 -0.41343708360E+03  0.41343708360E+03  0.25500000000E-02 0.  1.
    8880023    1    1    2    0    0  0.22796630567E+02  0.33172515405E+03  0.23031190832E+04  0.24184145596E+04  0.65864270000E+03 0. -1.
    8880022    1    1    2    0    0 -0.22796630567E+02 -0.33172515405E+03 -0.26166559008E+03  0.44991310077E+03  0.15294330000E+03 0.  0.
<mgrwt>
<rscale>  0 0.61919834E+03</rscale>
<asrwt>0</asrwt>
<pdfrwt beam="1">  1        2 0.37767547E+00 0.73781534E+03</pdfrwt>
<pdfrwt beam="2">  1       -2 0.63605706E-01 0.73781534E+03</pdfrwt>
<totfact> 0.88755952E+00</totfact>
</mgrwt>
</event>
<event>
 4    1  0.3565372E-007  0.7476031E+03  0.7818608E-02  0.9838329E-01
         -2   -1    0    0    0  501 -0.00000000000E+00  0.00000000000E+00  0.82082123444E+03  0.82082123444E+03  0.25500000000E-02 0.  1.
          2   -1    0    0  501    0  0.00000000000E+00 -0.00000000000E+00 -0.11779779410E+04  0.11779779410E+04  0.25500000000E-02 0. -1.
    8880023    1    1    2    0    0  0.28682807392E+01  0.35368338691E+03 -0.10004480103E+04  0.12489221724E+04  0.65864270000E+03 0. -1.
    8880022    1    1    2    0    0 -0.28682807392E+01 -0.35368338691E+03  0.64329130372E+03  0.74987700302E+03  0.15294330000E+03 0.  0.
<mgrwt>
<rscale>  0 0.63345553E+03</rscale>
<asrwt>0</asrwt>
<pdfrwt beam="1">  1        2 0.18122737E+00 0.74760308E+03</pdfrwt>
<pdfrwt beam="2">  1       -2 0.12628019E+00 0.74760308E+03</pdfrwt>
<totfact> 0.93081046E+00</totfact>
</mgrwt>
</event>
<event>
 4    1  0.3565372E-007  0.7381316E+03  0.7818608E-02  0.9865423E-01
         -2   -1    0    0    0  501 -0.00000000000E+00  0.00000000000E+00  0.11198125198E+04  0.11198125198E+04  0.25500000000E-02 0.  1.
          2   -1    0    0  501    0  0.00000000000E+00 -0.00000000000E+00 -0.87519945213E+03  0.87519945213E+03  0.25500000000E-02 0. -1.
    8880023    1    1    2    0    0 -0.23011177803E+03 -0.24099094948E+03 -0.67797637967E+03  0.10022426082E+04  0.65864270000E+03 0. -1.
    8880022    1    1    2    0    0  0.23011177803E+03  0.24099094948E+03  0.92258944730E+03  0.99276936365E+03  0.15294330000E+03 0.  0.
<mgrwt>
<rscale>  0 0.61966680E+03</rscale>
<asrwt>0</asrwt>
<pdfrwt beam="1">  1        2 0.13464607E+00 0.73813161E+03</pdfrwt>
<pdfrwt beam="2">  1       -2 0.17227885E+00 0.73813161E+03</pdfrwt>
<totfact> 0.63889691E+00</totfact>
</mgrwt>
</event>
<event>
 4    1  0.3565372E-007  0.6771249E+03  0.7818608E-02  0.1010999E+00
         -2   -1    0    0    0  501 -0.00000000000E+00  0.00000000000E+00  0.45079788848E+03  0.45079788849E+03  0.25500000000E-02 0.  1.
          2   -1    0    0  501    0  0.00000000000E+00 -0.00000000000E+00 -0.87588751481E+03  0.87588751482E+03  0.25500000000E-02 0. -1.
    8880023    1    1    2    0    0  0.12103070287E+03  0.10019720211E+03 -0.70075289704E+03  0.97444996758E+03  0.65864270000E+03 0. -1.
    8880022    1    1    2    0    0 -0.12103070287E+03 -0.10019720211E+03  0.27566327071E+03  0.35223543573E+03  0.15294330000E+03 0.  0.
<mgrwt>
<rscale>  0 0.51079501E+03</rscale>
<asrwt>0</asrwt>
<pdfrwt beam="1">  1        2 0.13475192E+00 0.67712489E+03</pdfrwt>
<pdfrwt beam="2">  1       -2 0.69353522E-01 0.67712489E+03</pdfrwt>
<totfact> 0.58938572E+01</totfact>
</mgrwt>
</event>
<event>
 4    1  0.3565372E-007  0.8392948E+03  0.7818608E-02  0.9631511E-01
          2   -1    0    0  501    0  0.00000000000E+00  0.00000000000E+00  0.63992585188E+03  0.63992585188E+03  0.25500000000E-02 0. -1.
         -2   -1    0    0    0  501 -0.00000000000E+00 -0.00000000000E+00 -0.85127337712E+03  0.85127337712E+03  0.25500000000E-02 0.  1.
    8880023    1    1    2    0    0  0.35405800357E+03 -0.38111488105E+03  0.13171760508E+03  0.84956774668E+03  0.65864270000E+03 0. -1.
    8880022    1    1    2    0    0 -0.35405800357E+03  0.38111488105E+03 -0.34306513032E+03  0.64163148232E+03  0.15294330000E+03 0.  1.
<mgrwt>
<rscale>  0 0.75245205E+03</rscale>
<asrwt>0</asrwt>
<pdfrwt beam="1">  1        2 0.98450131E-01 0.83929484E+03</pdfrwt>
<pdfrwt beam="2">  1       -2 0.13096514E+00 0.83929484E+03</pdfrwt>
<totfact> 0.19652165E+01</totfact>
</mgrwt>
</event>
<event>
 4    1  0.3565372E-007  0.9215429E+03  0.7818608E-02  0.9492297E-01
         -2   -1    0    0    0  501 -0.00000000000E+00  0.00000000000E+00  0.22117402568E+04  0.22117402568E+04  0.25500000000E-02 0.  1.
          2   -1    0    0  501    0  0.00000000000E+00 -0.00000000000E+00 -0.40672845317E+03  0.40672845318E+03  0.25500000000E-02 0. -1.
    8880023    1    1    2    0    0 -0.39141792091E+03  0.51207718053E+03  0.29184288262E+03  0.96665066184E+03  0.65864270000E+03 0.  0.
    8880022    1    1    2    0    0  0.39141792091E+03 -0.51207718053E+03  0.15131689210E+04  0.16518180481E+04  0.15294330000E+03 0.  0.
<mgrwt>
<rscale>  0 0.84854091E+03</rscale>
<asrwt>0</asrwt>
<pdfrwt beam="1">  1        2 0.62573608E-01 0.92154286E+03</pdfrwt>
<pdfrwt beam="2">  1       -2 0.34026773E+00 0.92154286E+03</pdfrwt>
<totfact> 0.14320480E+00</totfact>
</mgrwt>
</event>
<event>
 4    1  0.3565372E-007  0.7049455E+03  0.7818608E-02  0.9977272E-01
          2   -1    0    0  501    0  0.00000000000E+00  0.00000000000E+00  0.34127964450E+04  0.34127964450E+04  0.25500000000E-02 0. -1.
         -2   -1    0    0    0  501 -0.00000000000E+00 -0.00000000000E+00 -0.50467223116E+03  0.50467223117E+03  0.25500000000E-02 0.  1.
    8880023    1    1    2    0    0  0.20208053544E+03  0.14933677683E+03  0.33296471221E+04  0.34034538604E+04  0.65864270000E+03 0. -1.
    8880022    1    1    2    0    0 -0.20208053544E+03 -0.14933677683E+03 -0.42152290823E+03  0.51401481583E+03  0.15294330000E+03 0.  0.
<mgrwt>
<rscale>  0 0.56658139E+03</rscale>
<asrwt>0</asrwt>
<pdfrwt beam="1">  1        2 0.52504561E+00 0.70494555E+03</pdfrwt>
<pdfrwt beam="2">  1       -2 0.77641881E-01 0.70494555E+03</pdfrwt>
<totfact> 0.15134594E+00</totfact>
</mgrwt>
</event>
<event>
 4    1  0.3565372E-007  0.7019953E+03  0.7818608E-02  0.9989022E-01
         -2   -1    0    0    0  501 -0.00000000000E+00  0.00000000000E+00  0.25588856824E+03  0.25588856825E+03  0.25500000000E-02 0.  1.
          2   -1    0    0  501    0  0.00000000000E+00 -0.00000000000E+00 -0.14727974051E+04  0.14727974051E+04  0.25500000000E-02 0. -1.
    8880023    1    1    2    0    0  0.18933231048E+03  0.15212004357E+03 -0.12561523481E+04  0.14389983181E+04  0.65864270000E+03 0. -1.
    8880022    1    1    2    0    0 -0.18933231048E+03 -0.15212004357E+03  0.39243511238E+02  0.28968765531E+03  0.15294330000E+03 0.  0.
<mgrwt>
<rscale>  0 0.56134215E+03</rscale>
<asrwt>0</asrwt>
<pdfrwt beam="1">  1        2 0.22658421E+00 0.70199533E+03</pdfrwt>
<pdfrwt beam="2">  1       -2 0.39367473E-01 0.70199533E+03</pdfrwt>
<totfact> 0.82158945E+01</totfact>
</mgrwt>
</event>
<event>
 4    1  0.3565372E-007  0.8474832E+03  0.7818608E-02  0.9616228E-01
          2   -1    0    0  501    0  0.00000000000E+00  0.00000000000E+00  0.12622381750E+04  0.12622381750E+04  0.25500000000E-02 0. -1.
         -2   -1    0    0    0  501 -0.00000000000E+00 -0.00000000000E+00 -0.88307486364E+03  0.88307486364E+03  0.25500000000E-02 0.  1.
    8880023    1    1    2    0    0 -0.53256331251E+03 -0.28176661292E+02  0.10012499922E+04  0.13117657409E+04  0.65864270000E+03 0.  0.
    8880022    1    1    2    0    0  0.53256331251E+03  0.28176661292E+02 -0.62208668079E+03  0.83354729770E+03  0.15294330000E+03 0.  0.
<mgrwt>
<rscale>  0 0.76231338E+03</rscale>
<asrwt>0</asrwt>
<pdfrwt beam="1">  1        2 0.19419049E+00 0.84748322E+03</pdfrwt>
<pdfrwt beam="2">  1       -2 0.13585767E+00 0.84748322E+03</pdfrwt>
<totfact> 0.68118958E+00</totfact>
</mgrwt>
</event>
<event>
 4    1  0.3565372E-007  0.1096562E+04  0.7818608E-02  0.9264894E-01
          2   -1    0    0  501    0  0.00000000000E+00  0.00000000000E+00  0.19134921964E+04  0.19134921964E+04  0.25500000000E-02 0. -1.
         -2   -1    0    0    0  501 -0.00000000000E+00 -0.00000000000E+00 -0.90726473771E+03  0.90726473771E+03  0.25500000000E-02 0.  1.
    8880023    1    1    2    0    0 -0.84106786782E+03 -0.24747312041E+03  0.14566859299E+04  0.18232888439E+04  0.65864270000E+03 0. -1.
    8880022    1    1    2    0    0  0.84106786782E+03  0.24747312041E+03 -0.45045847124E+03  0.99746809019E+03  0.15294330000E+03 0.  0.
<mgrwt>
<rscale>  0 0.10408007E+04</rscale>
<asrwt>0</asrwt>
<pdfrwt beam="1">  1        2 0.29438341E+00 0.10965620E+04</pdfrwt>
<pdfrwt beam="2">  1       -2 0.13957919E+00 0.10965620E+04</pdfrwt>
<totfact> 0.26614955E+00</totfact>
</mgrwt>
</event>
<event>
 4    1  0.3565372E-007  0.6852361E+03  0.7818608E-02  0.1006504E+00
          2   -1    0    0  501    0  0.00000000000E+00  0.00000000000E+00  0.65752755616E+03  0.65752755617E+03  0.25500000000E-02 0. -1.
         -2   -1    0    0    0  501 -0.00000000000E+00 -0.00000000000E+00 -0.53472219198E+03  0.53472219198E+03  0.25500000000E-02 0.  1.
    8880023    1    1    2    0    0 -0.18312164029E+03  0.46954818382E+02  0.42349436059E+03  0.80554079340E+03  0.65864270000E+03 0. -1.
    8880022    1    1    2    0    0  0.18312164029E+03 -0.46954818382E+02 -0.30068899641E+03  0.38670895475E+03  0.15294330000E+03 0.  0.
<mgrwt>
<rscale>  0 0.52887873E+03</rscale>
<asrwt>0</asrwt>
<pdfrwt beam="1">  1        2 0.10115808E+00 0.68523609E+03</pdfrwt>
<pdfrwt beam="2">  1       -2 0.82264953E-01 0.68523609E+03</pdfrwt>
<totfact> 0.58522053E+01</totfact>
</mgrwt>
</event>
<event>
 4    1  0.3565372E-007  0.9091874E+03  0.7818608E-02  0.9511441E-01
         -2   -1    0    0    0  501 -0.00000000000E+00  0.00000000000E+00  0.19833709623E+04  0.19833709623E+04  0.25500000000E-02 0.  1.
          2   -1    0    0  501    0  0.00000000000E+00 -0.00000000000E+00 -0.11144009159E+04  0.11144009159E+04  0.25500000000E-02 0. -1.
    8880023    1    1    2    0    0 -0.51761894758E+03  0.35338663530E+03 -0.86053774228E+03  0.12518573805E+04  0.65864270000E+03 0. -1.
    8880022    1    1    2    0    0  0.51761894758E+03 -0.35338663530E+03  0.17295077887E+04  0.18459144977E+04  0.15294330000E+03 0.  0.
<mgrwt>
<rscale>  0 0.83445557E+03</rscale>
<asrwt>0</asrwt>
<pdfrwt beam="1">  1        2 0.17144630E+00 0.90918738E+03</pdfrwt>
<pdfrwt beam="2">  1       -2 0.30513399E+00 0.90918738E+03</pdfrwt>
<totfact> 0.64307254E-01</totfact>
</mgrwt>
</event>
<event>
 4    1  0.3565372E-007  0.7364725E+03  0.7818608E-02  0.9870344E-01
         -2   -1    0    0    0  501 -0.00000000000E+00  0.00000000000E+00  0.38808090738E+03  0.38808090739E+03  0.25500000000E-02 0.  1.
          2   -1    0    0  501    0  0.00000000000E+00 -0.00000000000E+00 -0.21353700849E+04  0.21353700849E+04  0.25500000000E-02 0. -1.
    8880023    1    1    2    0    0 -0.31883044926E+03  0.83238462426E+02 -0.19659984314E+04  0.20994145697E+04  0.65864270000E+03 0. -1.
    8880022    1    1    2    0    0  0.31883044926E+03 -0.83238462426E+02  0.21870925381E+03  0.42403642264E+03  0.15294330000E+03 0.  0.
<mgrwt>
<rscale>  0 0.61720308E+03</rscale>
<asrwt>0</asrwt>
<pdfrwt beam="1">  1        2 0.32851847E+00 0.73647247E+03</pdfrwt>
<pdfrwt beam="2">  1       -2 0.59704756E-01 0.73647247E+03</pdfrwt>
<totfact> 0.15279725E+01</totfact>
</mgrwt>
</event>
<event>
 4    1  0.3565372E-007  0.9659192E+03  0.7818608E-02  0.9427570E-01
          2   -1    0    0  501    0  0.00000000000E+00  0.00000000000E+00  0.37419727494E+04  0.37419727494E+04  0.25500000000E-02 0. -1.
         -2   -1    0    0    0  501 -0.00000000000E+00 -0.00000000000E+00 -0.68057051120E+03  0.68057051120E+03  0.25500000000E-02 0.  1.
    8880023    1    1    2    0    0 -0.22961532849E+03 -0.66818149691E+03  0.34632738333E+04  0.35954506759E+04  0.65864270000E+03 0. -1.
    8880022    1    1    2    0    0  0.22961532849E+03  0.66818149691E+03 -0.40187159504E+03  0.82709258479E+03  0.15294330000E+03 0.  0.
<mgrwt>
<rscale>  0 0.89841055E+03</rscale>
<asrwt>0</asrwt>
<pdfrwt beam="1">  1        2 0.57568813E+00 0.96591921E+03</pdfrwt>
<pdfrwt beam="2">  1       -2 0.10470315E+00 0.96591921E+03</pdfrwt>
<totfact> 0.42138557E-01</totfact>
</mgrwt>
</event>
<event>
 4    1  0.3565372E-007  0.7180009E+03  0.7818608E-02  0.9929409E-01
          2   -1    0    0  501    0  0.00000000000E+00  0.00000000000E+00  0.16418359754E+04  0.16418359754E+04  0.25500000000E-02 0. -1.
         -2   -1    0    0    0  501 -0.00000000000E+00 -0.00000000000E+00 -0.45939583086E+03  0.45939583087E+03  0.25500000000E-02 0.  1.
    8880023    1    1    2    0    0  0.31718020687E+02 -0.28409330459E+03  0.14902400208E+04  0.16541887934E+04  0.65864270000E+03 0. -1.
    8880022    1    1    2    0    0 -0.31718020687E+02  0.28409330459E+03 -0.30779987620E+03  0.44704301287E+03  0.15294330000E+03 0.  0.
<mgrwt>
<rscale>  0 0.58856919E+03</rscale>
<asrwt>0</asrwt>
<pdfrwt beam="1">  1        2 0.25259014E+00 0.71800087E+03</pdfrwt>
<pdfrwt beam="2">  1       -2 0.70676283E-01 0.71800087E+03</pdfrwt>
<totfact> 0.19828509E+01</totfact>
</mgrwt>
</event>
<event>
 4    1  0.3565372E-007  0.6707853E+03  0.7818608E-02  0.1015106E+00
          2   -1    0    0  501    0  0.00000000000E+00  0.00000000000E+00  0.37060016863E+04  0.37060016863E+04  0.25500000000E-02 0. -1.
         -2   -1    0    0    0  501 -0.00000000000E+00 -0.00000000000E+00 -0.28033320731E+03  0.28033320732E+03  0.25500000000E-02 0.  1.
    8880023    1    1    2    0    0 -0.44568859308E+02  0.11898053435E+03  0.36357315085E+04  0.36970929876E+04  0.65864270000E+03 0. -1.
    8880022    1    1    2    0    0  0.44568859308E+02 -0.11898053435E+03 -0.21006302955E+03  0.28924190598E+03  0.15294330000E+03 0.  0.
<mgrwt>
<rscale>  0 0.49494799E+03</rscale>
<asrwt>0</asrwt>
<pdfrwt beam="1">  1        2 0.57015403E+00 0.67078533E+03</pdfrwt>
<pdfrwt beam="2">  1       -2 0.43128191E-01 0.67078533E+03</pdfrwt>
<totfact> 0.32830921E+00</totfact>
</mgrwt>
</event>
<event>
 4    1  0.3565372E-007  0.7728034E+03  0.7818608E-02  0.9773022E-01
          2   -1    0    0  501    0  0.00000000000E+00  0.00000000000E+00  0.72525444883E+03  0.72525444883E+03  0.25500000000E-02 0. -1.
         -2   -1    0    0    0  501 -0.00000000000E+00 -0.00000000000E+00 -0.66260136161E+03  0.66260136162E+03  0.25500000000E-02 0.  1.
    8880023    1    1    2    0    0  0.26850521489E+03 -0.30219173367E+03  0.37068877230E+03  0.85710866668E+03  0.65864270000E+03 0. -1.
    8880022    1    1    2    0    0 -0.26850521489E+03  0.30219173367E+03 -0.30803568508E+03  0.53074714377E+03  0.15294330000E+03 0.  1.
<mgrwt>
<rscale>  0 0.66830665E+03</rscale>
<asrwt>0</asrwt>
<pdfrwt beam="1">  1        2 0.11157761E+00 0.77280340E+03</pdfrwt>
<pdfrwt beam="2">  1       -2 0.10193867E+00 0.77280340E+03</pdfrwt>
<totfact> 0.31259535E+01</totfact>
</mgrwt>
</event>
<event>
 4    1  0.3565372E-007  0.1470469E+04  0.7818608E-02  0.8930775E-01
          2   -1    0    0  501    0  0.00000000000E+00  0.00000000000E+00  0.20578910602E+04  0.20578910602E+04  0.25500000000E-02 0. -1.
         -2   -1    0    0    0  501 -0.00000000000E+00 -0.00000000000E+00 -0.13434910089E+04  0.13434910089E+04  0.25500000000E-02 0.  1.
    8880023    1    1    2    0    0 -0.70845828921E+03 -0.11074996447E+04 -0.55092661767E+03  0.15702862653E+04  0.65864270000E+03 0.  0.
    8880022    1    1    2    0    0  0.70845828921E+03  0.11074996447E+04  0.12653266689E+04  0.18310958038E+04  0.15294330000E+03 0.  0.
<mgrwt>
<rscale>  0 0.14322846E+04</rscale>
<asrwt>0</asrwt>
<pdfrwt beam="1">  1        2 0.31659862E+00 0.14704689E+04</pdfrwt>
<pdfrwt beam="2">  1       -2 0.20669093E+00 0.14704689E+04</pdfrwt>
<totfact> 0.70263715E-01</totfact>
</mgrwt>
</event>
<event>
 4    1  0.3565372E-007  0.7322922E+03  0.7818608E-02  0.9882996E-01
         -2   -1    0    0    0  501 -0.00000000000E+00  0.00000000000E+00  0.23392622027E+03  0.23392622029E+03  0.25500000000E-02 0.  1.
          2   -1    0    0  501    0  0.00000000000E+00 -0.00000000000E+00 -0.12630500933E+04  0.12630500933E+04  0.25500000000E-02 0. -1.
    8880023    1    1    2    0    0  0.32006509558E+03 -0.18236311955E+00 -0.70293608637E+03  0.10150719415E+04  0.65864270000E+03 0. -1.
    8880022    1    1    2    0    0 -0.32006509558E+03  0.18236311955E+00 -0.32618778670E+03  0.48190437212E+03  0.15294330000E+03 0.  1.
<mgrwt>
<rscale>  0 0.61092485E+03</rscale>
<asrwt>0</asrwt>
<pdfrwt beam="1">  1        2 0.19431539E+00 0.73229223E+03</pdfrwt>
<pdfrwt beam="2">  1       -2 0.35988650E-01 0.73229223E+03</pdfrwt>
<totfact> 0.12817455E+02</totfact>
</mgrwt>
</event>
<event>
 4    1  0.3565372E-007  0.1057091E+04  0.7818608E-02  0.9310405E-01
         -2   -1    0    0    0  501 -0.00000000000E+00  0.00000000000E+00  0.89968191971E+03  0.89968191971E+03  0.25500000000E-02 0.  1.
          2   -1    0    0  501    0  0.00000000000E+00 -0.00000000000E+00 -0.15204502707E+04  0.15204502707E+04  0.25500000000E-02 0. -1.
    8880023    1    1    2    0    0  0.33363510959E+03 -0.75651806195E+03 -0.10379519445E+04  0.14814811540E+04  0.65864270000E+03 0.  0.
    8880022    1    1    2    0    0 -0.33363510959E+03  0.75651806195E+03  0.41718359350E+03  0.93865103638E+03  0.15294330000E+03 0.  0.
<mgrwt>
<rscale>  0 0.99830590E+03</rscale>
<asrwt>0</asrwt>
<pdfrwt beam="1">  1        2 0.23391543E+00 0.10570914E+04</pdfrwt>
<pdfrwt beam="2">  1       -2 0.13841260E+00 0.10570914E+04</pdfrwt>
<totfact> 0.45133081E+00</totfact>
</mgrwt>
</event>
<event>
 4    1  0.3565372E-007  0.6887477E+03  0.7818608E-02  0.1004754E+00
         -2   -1    0    0    0  501 -0.00000000000E+00  0.00000000000E+00  0.15622321958E+04  0.15622321958E+04  0.25500000000E-02 0.  1.
          2   -1    0    0  501    0  0.00000000000E+00 -0.00000000000E+00 -0.58173667533E+03  0.58173667534E+03  0.25500000000E-02 0. -1.
    8880023    1    1    2    0    0  0.18509463480E+03 -0.79392191439E+02 -0.36184523925E+03  0.77801370639E+03  0.65864270000E+03 0. -1.
    8880022    1    1    2    0    0 -0.18509463480E+03  0.79392191439E+02  0.13423407597E+04  0.13659551647E+04  0.15294330000E+03 0.  0.
<mgrwt>
<rscale>  0 0.53614128E+03</rscale>
<asrwt>0</asrwt>
<pdfrwt beam="1">  1        2 0.89497949E-01 0.68874767E+03</pdfrwt>
<pdfrwt beam="2">  1       -2 0.24034342E+00 0.68874767E+03</pdfrwt>
<totfact> 0.39340398E+00</totfact>
</mgrwt>
</event>
<event>
 4    1  0.3565372E-007  0.6990250E+03  0.7818608E-02  0.1000127E+00
         -2   -1    0    0    0  501 -0.00000000000E+00  0.00000000000E+00  0.56121360267E+03  0.56121360268E+03  0.25500000000E-02 0.  1.
          2   -1    0    0  501    0  0.00000000000E+00 -0.00000000000E+00 -0.16460060912E+04  0.16460060912E+04  0.25500000000E-02 0. -1.
    8880023    1    1    2    0    0  0.14005999857E+03  0.18764029908E+03 -0.15296207435E+04  0.16817774854E+04  0.65864270000E+03 0. -1.
    8880022    1    1    2    0    0 -0.14005999857E+03 -0.18764029908E+03  0.44482825498E+03  0.52544220851E+03  0.15294330000E+03 0.  0.
<mgrwt>
<rscale>  0 0.55594572E+03</rscale>
<asrwt>0</asrwt>
<pdfrwt beam="1">  1        2 0.25323170E+00 0.69902496E+03</pdfrwt>
<pdfrwt beam="2">  1       -2 0.86340555E-01 0.69902496E+03</pdfrwt>
<totfact> 0.12643731E+01</totfact>
</mgrwt>
</event>
<event>
 4    1  0.3565372E-007  0.9337642E+03  0.7818608E-02  0.9473869E-01
          2   -1    0    0  501    0  0.00000000000E+00  0.00000000000E+00  0.36410668187E+04  0.36410668187E+04  0.25500000000E-02 0. -1.
         -2   -1    0    0    0  501 -0.00000000000E+00 -0.00000000000E+00 -0.22047719250E+03  0.22047719252E+03  0.25500000000E-02 0.  1.
    8880023    1    1    2    0    0 -0.44733086923E+03  0.48785294386E+03  0.27612123247E+04  0.29148257426E+04  0.65864270000E+03 0.  0.
    8880022    1    1    2    0    0  0.44733086923E+03 -0.48785294386E+03  0.65937730150E+03  0.94671826863E+03  0.15294330000E+03 0.  0.
<mgrwt>
<rscale>  0 0.86238072E+03</rscale>
<asrwt>0</asrwt>
<pdfrwt beam="1">  1        2 0.56016411E+00 0.93376421E+03</pdfrwt>
<pdfrwt beam="2">  1       -2 0.33919569E-01 0.93376421E+03</pdfrwt>
<totfact> 0.55181166E+00</totfact>
</mgrwt>
</event>
<event>
 4    1  0.3565372E-007  0.6680864E+03  0.7818608E-02  0.1017073E+00
         -2   -1    0    0    0  501 -0.00000000000E+00  0.00000000000E+00  0.57421064618E+02  0.57421064675E+02  0.25500000000E-02 0.  1.
          2   -1    0    0  501    0  0.00000000000E+00 -0.00000000000E+00 -0.36723237761E+04  0.36723237761E+04  0.25500000000E-02 0. -1.
    8880023    1    1    2    0    0 -0.10558031371E+03 -0.37175356786E+02 -0.32564031530E+04  0.33242293709E+04  0.65864270000E+03 0. -1.
    8880022    1    1    2    0    0  0.10558031371E+03  0.37175356786E+02 -0.35849955854E+03  0.40551546984E+03  0.15294330000E+03 0.  0.
<mgrwt>
<rscale>  0 0.48757655E+03</rscale>
<asrwt>0</asrwt>
<pdfrwt beam="1">  1        2 0.56497270E+00 0.66808638E+03</pdfrwt>
<pdfrwt beam="2">  1       -2 0.88340128E-02 0.66808638E+03</pdfrwt>
<totfact> 0.56401866E+01</totfact>
</mgrwt>
</event>
<event>
 4    1  0.3565372E-007  0.7483338E+03  0.7818608E-02  0.9836304E-01
          2   -1    0    0  501    0  0.00000000000E+00  0.00000000000E+00  0.14032054376E+04  0.14032054376E+04  0.25500000000E-02 0. -1.
         -2   -1    0    0    0  501 -0.00000000000E+00 -0.00000000000E+00 -0.36573831529E+03  0.36573831530E+03  0.25500000000E-02 0.  1.
    8880023    1    1    2    0    0 -0.34604355277E+03 -0.80294474291E+02  0.11446880807E+04  0.13675943665E+04  0.65864270000E+03 0. -1.
    8880022    1    1    2    0    0  0.34604355277E+03  0.80294474291E+02 -0.10722095837E+03  0.40134938638E+03  0.15294330000E+03 0.  0.
<mgrwt>
<rscale>  0 0.63450134E+03</rscale>
<asrwt>0</asrwt>
<pdfrwt beam="1">  1        2 0.21587775E+00 0.74833385E+03</pdfrwt>
<pdfrwt beam="2">  1       -2 0.56267434E-01 0.74833385E+03</pdfrwt>
<totfact> 0.43614779E+01</totfact>
</mgrwt>
</event>
<event>
 4    1  0.3565372E-007  0.1080951E+04  0.7818608E-02  0.9282567E-01
          2   -1    0    0  501    0  0.00000000000E+00  0.00000000000E+00  0.17920997142E+04  0.17920997142E+04  0.25500000000E-02 0. -1.
         -2   -1    0    0    0  501 -0.00000000000E+00 -0.00000000000E+00 -0.89199849013E+03  0.89199849014E+03  0.25500000000E-02 0.  1.
    8880023    1    1    2    0    0  0.76169782796E+02  0.85372356769E+03  0.13293612569E+04  0.17133760018E+04  0.65864270000E+03 0. -1.
    8880022    1    1    2    0    0 -0.76169782796E+02 -0.85372356769E+03 -0.42926003280E+03  0.97072220260E+03  0.15294330000E+03 0.  0.
<mgrwt>
<rscale>  0 0.10240377E+04</rscale>
<asrwt>0</asrwt>
<pdfrwt beam="1">  1        2 0.27570765E+00 0.10809514E+04</pdfrwt>
<pdfrwt beam="2">  1       -2 0.13723054E+00 0.10809514E+04</pdfrwt>
<totfact> 0.32512146E+00</totfact>
</mgrwt>
</event>
<event>
 4    1  0.3565372E-007  0.7531200E+03  0.7818608E-02  0.9823256E-01
         -2   -1    0    0    0  501 -0.00000000000E+00  0.00000000000E+00  0.24688426133E+03  0.24688426134E+03  0.25500000000E-02 0.  1.
          2   -1    0    0  501    0  0.00000000000E+00 -0.00000000000E+00 -0.17611978655E+04  0.17611978655E+04  0.25500000000E-02 0. -1.
    8880023    1    1    2    0    0 -0.50396661096E+02 -0.36171773805E+03 -0.14101606712E+04  0.15986690934E+04  0.65864270000E+03 0. -1.
    8880022    1    1    2    0    0  0.50396661096E+02  0.36171773805E+03 -0.10415293298E+03  0.40941303342E+03  0.15294330000E+03 0.  0.
<mgrwt>
<rscale>  0 0.64129289E+03</rscale>
<asrwt>0</asrwt>
<pdfrwt beam="1">  1        2 0.27095351E+00 0.75312001E+03</pdfrwt>
<pdfrwt beam="2">  1       -2 0.37982195E-01 0.75312001E+03</pdfrwt>
<totfact> 0.60774562E+01</totfact>
</mgrwt>
</event>
<event>
 4    1  0.3565372E-007  0.7224977E+03  0.7818608E-02  0.9914224E-01
         -2   -1    0    0    0  501 -0.00000000000E+00  0.00000000000E+00  0.51575428775E+03  0.51575428775E+03  0.25500000000E-02 0.  1.
          2   -1    0    0  501    0  0.00000000000E+00 -0.00000000000E+00 -0.11748582938E+04  0.11748582938E+04  0.25500000000E-02 0. -1.
    8880023    1    1    2    0    0  0.24549269795E+03  0.16711075274E+03 -0.98656887061E+03  0.12228331902E+04  0.65864270000E+03 0. -1.
    8880022    1    1    2    0    0 -0.24549269795E+03 -0.16711075274E+03  0.32746486454E+03  0.46777939133E+03  0.15294330000E+03 0.  0.
<mgrwt>
<rscale>  0 0.59576877E+03</rscale>
<asrwt>0</asrwt>
<pdfrwt beam="1">  1        2 0.18074743E+00 0.72249766E+03</pdfrwt>
<pdfrwt beam="2">  1       -2 0.79346814E-01 0.72249766E+03</pdfrwt>
<totfact> 0.28203091E+01</totfact>
</mgrwt>
</event>
<event>
 4    1  0.3565372E-007  0.7803950E+03  0.7818608E-02  0.9754910E-01
         -2   -1    0    0    0  501 -0.00000000000E+00  0.00000000000E+00  0.30104784483E+03  0.30104784484E+03  0.25500000000E-02 0.  1.
          2   -1    0    0  501    0  0.00000000000E+00 -0.00000000000E+00 -0.15538525719E+04  0.15538525719E+04  0.25500000000E-02 0. -1.
    8880023    1    1    2    0    0 -0.21362545297E+03  0.35995886218E+03 -0.11625770470E+04  0.14002149168E+04  0.65864270000E+03 0. -1.
    8880022    1    1    2    0    0  0.21362545297E+03 -0.35995886218E+03 -0.90227680028E+02  0.45468549996E+03  0.15294330000E+03 0.  1.
<mgrwt>
<rscale>  0 0.67839510E+03</rscale>
<asrwt>0</asrwt>
<pdfrwt beam="1">  1        2 0.23905424E+00 0.78039504E+03</pdfrwt>
<pdfrwt beam="2">  1       -2 0.46315054E-01 0.78039504E+03</pdfrwt>
<totfact> 0.53314597E+01</totfact>
</mgrwt>
</event>
<event>
 4    1  0.3565372E-007  0.7532329E+03  0.7818608E-02  0.9822953E-01
          2   -1    0    0  501    0  0.00000000000E+00  0.00000000000E+00  0.12366472440E+04  0.12366472440E+04  0.25500000000E-02 0. -1.
         -2   -1    0    0    0  501 -0.00000000000E+00 -0.00000000000E+00 -0.85554052754E+03  0.85554052755E+03  0.25500000000E-02 0.  1.
    8880023    1    1    2    0    0 -0.32783724173E+03 -0.16146945988E+03  0.10634481092E+04  0.13031813883E+04  0.65864270000E+03 0. -1.
    8880022    1    1    2    0    0  0.32783724173E+03  0.16146945988E+03 -0.68234139275E+03  0.78900638326E+03  0.15294330000E+03 0.  0.
<mgrwt>
<rscale>  0 0.64145195E+03</rscale>
<asrwt>0</asrwt>
<pdfrwt beam="1">  1        2 0.19025342E+00 0.75323293E+03</pdfrwt>
<pdfrwt beam="2">  1       -2 0.13162162E+00 0.75323293E+03</pdfrwt>
<totfact> 0.77350597E+00</totfact>
</mgrwt>
</event>
<event>
 4    1  0.3565372E-007  0.9690728E+03  0.7818608E-02  0.9423188E-01
          2   -1    0    0  501    0  0.00000000000E+00  0.00000000000E+00  0.13489136900E+04  0.13489136900E+04  0.25500000000E-02 0. -1.
         -2   -1    0    0    0  501 -0.00000000000E+00 -0.00000000000E+00 -0.71646918893E+03  0.71646918894E+03  0.25500000000E-02 0.  1.
    8880023    1    1    2    0    0 -0.16810947304E+03  0.69067444092E+03  0.86810402137E+03  0.13010406513E+04  0.65864270000E+03 0.  0.
    8880022    1    1    2    0    0  0.16810947304E+03 -0.69067444092E+03 -0.23565952035E+03  0.76434222755E+03  0.15294330000E+03 0.  0.
<mgrwt>
<rscale>  0 0.90191748E+03</rscale>
<asrwt>0</asrwt>
<pdfrwt beam="1">  1        2 0.20752518E+00 0.96907285E+03</pdfrwt>
<pdfrwt beam="2">  1       -2 0.11022603E+00 0.96907285E+03</pdfrwt>
<totfact> 0.10091594E+01</totfact>
</mgrwt>
</event>
<event>
 4    1  0.3565372E-007  0.9318657E+03  0.7818608E-02  0.9476700E-01
          2   -1    0    0  501    0  0.00000000000E+00  0.00000000000E+00  0.11140502079E+04  0.11140502079E+04  0.25500000000E-02 0. -1.
         -2   -1    0    0    0  501 -0.00000000000E+00 -0.00000000000E+00 -0.96036441566E+03  0.96036441567E+03  0.25500000000E-02 0.  1.
    8880023    1    1    2    0    0 -0.62340479516E+03 -0.21431254744E+03  0.73141306056E+03  0.11846259655E+04  0.65864270000E+03 0. -1.
    8880022    1    1    2    0    0  0.62340479516E+03  0.21431254744E+03 -0.57772726829E+03  0.88978865814E+03  0.15294330000E+03 0.  0.
<mgrwt>
<rscale>  0 0.86023645E+03</rscale>
<asrwt>0</asrwt>
<pdfrwt beam="1">  1        2 0.17139234E+00 0.93186566E+03</pdfrwt>
<pdfrwt beam="2">  1       -2 0.14774837E+00 0.93186566E+03</pdfrwt>
<totfact> 0.66482538E+00</totfact>
</mgrwt>
</event>
<event>
 4    1  0.3565372E-007  0.7069988E+03  0.7818608E-02  0.9969319E-01
         -2   -1    0    0    0  501 -0.00000000000E+00  0.00000000000E+00  0.14925481901E+03  0.14925481903E+03  0.25500000000E-02 0.  1.
          2   -1    0    0  501    0  0.00000000000E+00 -0.00000000000E+00 -0.23006336830E+04  0.23006336830E+04  0.25500000000E-02 0. -1.
    8880023    1    1    2    0    0  0.23936454953E+03 -0.93496776038E+02 -0.19861512861E+04  0.21082324758E+04  0.65864270000E+03 0. -1.
    8880022    1    1    2    0    0 -0.23936454953E+03  0.93496776038E+02 -0.16522757787E+03  0.34165602615E+03  0.15294330000E+03 0.  0.
<mgrwt>
<rscale>  0 0.57016243E+03</rscale>
<asrwt>0</asrwt>
<pdfrwt beam="1">  1        2 0.35394362E+00 0.70699876E+03</pdfrwt>
<pdfrwt beam="2">  1       -2 0.22962282E-01 0.70699876E+03</pdfrwt>
<totfact> 0.78647881E+01</totfact>
</mgrwt>
</event>
<event>
 4    1  0.3565372E-007  0.1014554E+04  0.7818608E-02  0.9362759E-01
         -2   -1    0    0    0  501 -0.00000000000E+00  0.00000000000E+00  0.17757970131E+04  0.17757970131E+04  0.25500000000E-02 0.  1.
          2   -1    0    0  501    0  0.00000000000E+00 -0.00000000000E+00 -0.57356371808E+03  0.57356371809E+03  0.25500000000E-02 0. -1.
    8880023    1    1    2    0    0 -0.49837872377E+03  0.58917660511E+03  0.13498528065E+03  0.10234948249E+04  0.65864270000E+03 0.  0.
    8880022    1    1    2    0    0  0.49837872377E+03 -0.58917660511E+03  0.10672480144E+04  0.13258659063E+04  0.15294330000E+03 0.  0.
<mgrwt>
<rscale>  0 0.95204888E+03</rscale>
<asrwt>0</asrwt>
<pdfrwt beam="1">  1        2 0.88240573E-01 0.10145544E+04</pdfrwt>
<pdfrwt beam="2">  1       -2 0.27319954E+00 0.10145544E+04</pdfrwt>
<totfact> 0.24280474E+00</totfact>
</mgrwt>
</event>
<event>
 4    1  0.3565372E-007  0.7534346E+03  0.7818608E-02  0.9822411E-01
          2   -1    0    0  501    0  0.00000000000E+00  0.00000000000E+00  0.14726993269E+04  0.14726993269E+04  0.25500000000E-02 0. -1.
         -2   -1    0    0    0  501 -0.00000000000E+00 -0.00000000000E+00 -0.47271183243E+03  0.47271183244E+03  0.25500000000E-02 0.  1.
    8880023    1    1    2    0    0  0.92613735759E+02  0.35394380075E+03  0.12622324254E+04  0.14699981021E+04  0.65864270000E+03 0. -1.
    8880022    1    1    2    0    0 -0.92613735759E+02 -0.35394380075E+03 -0.26224493097E+03  0.47541305722E+03  0.15294330000E+03 0.  0.
<mgrwt>
<rscale>  0 0.64173591E+03</rscale>
<asrwt>0</asrwt>
<pdfrwt beam="1">  1        2 0.22656912E+00 0.75343462E+03</pdfrwt>
<pdfrwt beam="2">  1       -2 0.72724899E-01 0.75343462E+03</pdfrwt>
<totfact> 0.22999577E+01</totfact>
</mgrwt>
</event>
<event>
 4    1  0.3565372E-007  0.9195002E+03  0.7818608E-02  0.9495426E-01
          2   -1    0    0  501    0  0.00000000000E+00  0.00000000000E+00  0.22192690085E+04  0.22192690085E+04  0.25500000000E-02 0. -1.
         -2   -1    0    0    0  501 -0.00000000000E+00 -0.00000000000E+00 -0.53877013107E+03  0.53877013108E+03  0.25500000000E-02 0.  1.
    8880023    1    1    2    0    0  0.25167665779E+03 -0.59019424303E+03  0.18596457815E+04  0.20745512825E+04  0.65864270000E+03 0.  0.
    8880022    1    1    2    0    0 -0.25167665779E+03  0.59019424303E+03 -0.17914690409E+03  0.68348785713E+03  0.15294330000E+03 0.  0.
<mgrwt>
<rscale>  0 0.84621898E+03</rscale>
<asrwt>0</asrwt>
<pdfrwt beam="1">  1        2 0.34142600E+00 0.91950019E+03</pdfrwt>
<pdfrwt beam="2">  1       -2 0.82887714E-01 0.91950019E+03</pdfrwt>
<totfact> 0.65253744E+00</totfact>
</mgrwt>
</event>
<event>
 4    1  0.3565372E-007  0.7868648E+03  0.7818608E-02  0.9739952E-01
          2   -1    0    0  501    0  0.00000000000E+00  0.00000000000E+00  0.16128343229E+04  0.16128343229E+04  0.25500000000E-02 0. -1.
         -2   -1    0    0    0  501 -0.00000000000E+00 -0.00000000000E+00 -0.27719241696E+03  0.27719241697E+03  0.25500000000E-02 0.  1.
    8880023    1    1    2    0    0  0.29481191713E+03  0.31373859201E+03  0.11575382526E+04  0.13996610244E+04  0.65864270000E+03 0. -1.
    8880022    1    1    2    0    0 -0.29481191713E+03 -0.31373859201E+03  0.17810365334E+03  0.49036571551E+03  0.15294330000E+03 0.  0.
<mgrwt>
<rscale>  0 0.68687098E+03</rscale>
<asrwt>0</asrwt>
<pdfrwt beam="1">  1        2 0.24812836E+00 0.78686478E+03</pdfrwt>
<pdfrwt beam="2">  1       -2 0.42644988E-01 0.78686478E+03</pdfrwt>
<totfact> 0.58254503E+01</totfact>
</mgrwt>
</event>
<event>
 4    1  0.3565372E-007  0.6857716E+03  0.7818608E-02  0.1006231E+00
         -2   -1    0    0    0  501 -0.00000000000E+00  0.00000000000E+00  0.41905785998E+03  0.41905785999E+03  0.25500000000E-02 0.  1.
          2   -1    0    0  501    0  0.00000000000E+00 -0.00000000000E+00 -0.51925149770E+03  0.51925149770E+03  0.25500000000E-02 0. -1.
    8880023    1    1    2    0    0  0.87330713309E+02  0.16984074888E+03 -0.10397186351E+03  0.69360859866E+03  0.65864270000E+03 0. -1.
    8880022    1    1    2    0    0 -0.87330713309E+02 -0.16984074888E+03  0.37782257908E+01  0.24470075904E+03  0.15294330000E+03 0. -1.
<mgrwt>
<rscale>  0 0.53000568E+03</rscale>
<asrwt>0</asrwt>
<pdfrwt beam="1">  1        2 0.79884846E-01 0.68577164E+03</pdfrwt>
<pdfrwt beam="2">  1       -2 0.64470440E-01 0.68577164E+03</pdfrwt>
<totfact> 0.13273172E+02</totfact>
</mgrwt>
</event>
<event>
 4    1  0.3565372E-007  0.9476000E+03  0.7818608E-02  0.9453576E-01
         -2   -1    0    0    0  501 -0.00000000000E+00  0.00000000000E+00  0.79987768186E+03  0.79987768186E+03  0.25500000000E-02 0.  1.
          2   -1    0    0  501    0  0.00000000000E+00 -0.00000000000E+00 -0.24097489505E+04  0.24097489505E+04  0.25500000000E-02 0. -1.
    8880023    1    1    2    0    0  0.75272061765E+02  0.67710391177E+03 -0.21350783026E+04  0.23359163416E+04  0.65864270000E+03 0. -1.
    8880022    1    1    2    0    0 -0.75272061765E+02 -0.67710391177E+03  0.52520703395E+03  0.87371029074E+03  0.15294330000E+03 0.  0.
<mgrwt>
<rscale>  0 0.87794772E+03</rscale>
<asrwt>0</asrwt>
<pdfrwt beam="1">  1        2 0.37073060E+00 0.94760002E+03</pdfrwt>
<pdfrwt beam="2">  1       -2 0.12305811E+00 0.94760002E+03</pdfrwt>
<totfact> 0.19828065E+00</totfact>
</mgrwt>
</event>
<event>
 4    1  0.3565372E-007  0.9553517E+03  0.7818608E-02  0.9442456E-01
         -2   -1    0    0    0  501 -0.00000000000E+00  0.00000000000E+00  0.40314045620E+03  0.40314045621E+03  0.25500000000E-02 0.  1.
          2   -1    0    0  501    0  0.00000000000E+00 -0.00000000000E+00 -0.28421261908E+04  0.28421261908E+04  0.25500000000E-02 0. -1.
    8880023    1    1    2    0    0  0.16571881053E+03 -0.67188088066E+03 -0.23427404499E+04  0.25300453877E+04  0.65864270000E+03 0.  0.
    8880022    1    1    2    0    0 -0.16571881053E+03  0.67188088066E+03 -0.96245284728E+02  0.71522125933E+03  0.15294330000E+03 0.  0.
<mgrwt>
<rscale>  0 0.88662609E+03</rscale>
<asrwt>0</asrwt>
<pdfrwt beam="1">  1        2 0.43725017E+00 0.95535169E+03</pdfrwt>
<pdfrwt beam="2">  1       -2 0.62021610E-01 0.95535169E+03</pdfrwt>
<totfact> 0.53956173E+00</totfact>
</mgrwt>
</event>
<event>
 4    1  0.3565372E-007  0.7685182E+03  0.7818608E-02  0.9783534E-01
         -2   -1    0    0    0  501 -0.00000000000E+00  0.00000000000E+00  0.13501866439E+04  0.13501866439E+04  0.25500000000E-02 0.  1.
          2   -1    0    0  501    0  0.00000000000E+00 -0.00000000000E+00 -0.35578045066E+03  0.35578045067E+03  0.25500000000E-02 0. -1.
    8880023    1    1    2    0    0 -0.37480002986E+03 -0.12780856580E+03  0.18266377543E+03  0.78992806824E+03  0.65864270000E+03 0.  0.
    8880022    1    1    2    0    0  0.37480002986E+03  0.12780856580E+03  0.81174241779E+03  0.91603902632E+03  0.15294330000E+03 0.  0.
<mgrwt>
<rscale>  0 0.66253757E+03</rscale>
<asrwt>0</asrwt>
<pdfrwt beam="1">  1        2 0.54735454E-01 0.76851825E+03</pdfrwt>
<pdfrwt beam="2">  1       -2 0.20772102E+00 0.76851825E+03</pdfrwt>
<totfact> 0.10935241E+01</totfact>
</mgrwt>
</event>
<event>
 4    1  0.3565372E-007  0.7145861E+03  0.7818608E-02  0.9941349E-01
         -2   -1    0    0    0  501 -0.00000000000E+00  0.00000000000E+00  0.23901529382E+03  0.23901529383E+03  0.25500000000E-02 0.  1.
          2   -1    0    0  501    0  0.00000000000E+00 -0.00000000000E+00 -0.14618985111E+04  0.14618985111E+04  0.25500000000E-02 0. -1.
    8880023    1    1    2    0    0 -0.14199107473E+03  0.23803704842E+03 -0.11826884598E+04  0.13818050879E+04  0.65864270000E+03 0. -1.
    8880022    1    1    2    0    0  0.14199107473E+03 -0.23803704842E+03 -0.40194757436E+02  0.31910871700E+03  0.15294330000E+03 0.  0.
<mgrwt>
<rscale>  0 0.58298501E+03</rscale>
<asrwt>0</asrwt>
<pdfrwt beam="1">  1        2 0.22490746E+00 0.71458611E+03</pdfrwt>
<pdfrwt beam="2">  1       -2 0.36771585E-01 0.71458611E+03</pdfrwt>
<totfact> 0.94930543E+01</totfact>
</mgrwt>
</event>
<event>
 4    1  0.3565372E-007  0.1315359E+04  0.7818608E-02  0.9052409E-01
         -2   -1    0    0    0  501 -0.00000000000E+00  0.00000000000E+00  0.80633600817E+03  0.80633600817E+03  0.25500000000E-02 0.  1.
          2   -1    0    0  501    0  0.00000000000E+00 -0.00000000000E+00 -0.33620152184E+04  0.33620152184E+04  0.25500000000E-02 0. -1.
    8880023    1    1    2    0    0  0.46914905309E+03 -0.10374280919E+04 -0.27069714252E+04  0.30096282798E+04  0.65864270000E+03 0.  0.
    8880022    1    1    2    0    0 -0.46914905309E+03  0.10374280919E+04  0.15129221494E+03  0.11587229467E+04  0.15294330000E+03 0.  0.
<mgrwt>
<rscale>  0 0.12715825E+04</rscale>
<asrwt>0</asrwt>
<pdfrwt beam="1">  1        2 0.51723310E+00 0.13153585E+04</pdfrwt>
<pdfrwt beam="2">  1       -2 0.12405170E+00 0.13153585E+04</pdfrwt>
<totfact> 0.48371168E-01</totfact>
</mgrwt>
</event>
<event>
 4    1  0.3565372E-007  0.8350883E+03  0.7818608E-02  0.9639512E-01
          2   -1    0    0  501    0  0.00000000000E+00  0.00000000000E+00  0.79856645898E+03  0.79856645899E+03  0.25500000000E-02 0. -1.
         -2   -1    0    0    0  501 -0.00000000000E+00 -0.00000000000E+00 -0.20897416001E+04  0.20897416001E+04  0.25500000000E-02 0.  1.
    8880023    1    1    2    0    0  0.46757480795E+03 -0.21198121857E+03  0.53060705692E+03  0.98940198765E+03  0.65864270000E+03 0. -1.
    8880022    1    1    2    0    0 -0.46757480795E+03  0.21198121857E+03 -0.18217821981E+04  0.18989060715E+04  0.15294330000E+03 0.  0.
<mgrwt>
<rscale>  0 0.74735304E+03</rscale>
<asrwt>0</asrwt>
<pdfrwt beam="1">  1        2 0.12285638E+00 0.83508829E+03</pdfrwt>
<pdfrwt beam="2">  1       -2 0.32149871E+00 0.83508829E+03</pdfrwt>
<totfact> 0.83659638E-01</totfact>
</mgrwt>
</event>
<event>
 4    1  0.3565372E-007  0.8036551E+03  0.7818608E-02  0.9702948E-01
          2   -1    0    0  501    0  0.00000000000E+00  0.00000000000E+00  0.16273570171E+04  0.16273570171E+04  0.25500000000E-02 0. -1.
         -2   -1    0    0    0  501 -0.00000000000E+00 -0.00000000000E+00 -0.55416833569E+03  0.55416833570E+03  0.25500000000E-02 0.  1.
    8880023    1    1    2    0    0  0.25585940184E+03 -0.38286711436E+03  0.13874686445E+04  0.16034122073E+04  0.65864270000E+03 0. -1.
    8880022    1    1    2    0    0 -0.25585940184E+03  0.38286711436E+03 -0.31427996310E+03  0.57811314549E+03  0.15294330000E+03 0.  0.
<mgrwt>
<rscale>  0 0.70841536E+03</rscale>
<asrwt>0</asrwt>
<pdfrwt beam="1">  1        2 0.25036262E+00 0.80365507E+03</pdfrwt>
<pdfrwt beam="2">  1       -2 0.85256667E-01 0.80365507E+03</pdfrwt>
<totfact> 0.13137263E+01</totfact>
</mgrwt>
</event>
<event>
 4    1  0.3565372E-007  0.6804492E+03  0.7818608E-02  0.1009071E+00
         -2   -1    0    0    0  501 -0.00000000000E+00  0.00000000000E+00  0.22382705178E+03  0.22382705179E+03  0.25500000000E-02 0.  1.
          2   -1    0    0  501    0  0.00000000000E+00 -0.00000000000E+00 -0.14311520368E+04  0.14311520368E+04  0.25500000000E-02 0. -1.
    8880023    1    1    2    0    0 -0.15875208811E+03 -0.63234944395E+02 -0.12485892571E+04  0.14219656194E+04  0.65864270000E+03 0. -1.
    8880022    1    1    2    0    0  0.15875208811E+03  0.63234944395E+02  0.41264272022E+02  0.23301346921E+03  0.15294330000E+03 0.  0.
<mgrwt>
<rscale>  0 0.51845646E+03</rscale>
<asrwt>0</asrwt>
<pdfrwt beam="1">  1        2 0.22017723E+00 0.68044918E+03</pdfrwt>
<pdfrwt beam="2">  1       -2 0.34434932E-01 0.68044918E+03</pdfrwt>
<totfact> 0.11231005E+02</totfact>
</mgrwt>
</event>
<event>
 4    1  0.3565372E-007  0.9020928E+03  0.7818608E-02  0.9522680E-01
          2   -1    0    0  501    0  0.00000000000E+00  0.00000000000E+00  0.10588627488E+04  0.10588627488E+04  0.25500000000E-02 0. -1.
         -2   -1    0    0    0  501 -0.00000000000E+00 -0.00000000000E+00 -0.10493049513E+04  0.10493049513E+04  0.25500000000E-02 0.  1.
    8880023    1    1    2    0    0  0.48083812576E+02  0.61453163005E+03  0.72075752267E+03  0.11546699919E+04  0.65864270000E+03 0.  0.
    8880022    1    1    2    0    0 -0.48083812576E+02 -0.61453163005E+03 -0.71119972524E+03  0.95349770821E+03  0.15294330000E+03 0.  1.
<mgrwt>
<rscale>  0 0.82632148E+03</rscale>
<asrwt>0</asrwt>
<pdfrwt beam="1">  1        2 0.16290196E+00 0.90209278E+03</pdfrwt>
<pdfrwt beam="2">  1       -2 0.16143153E+00 0.90209278E+03</pdfrwt>
<totfact> 0.56891817E+00</totfact>
</mgrwt>
</event>
<event>
 4    1  0.3565372E-007  0.1186701E+04  0.7818608E-02  0.9170160E-01
         -2   -1    0    0    0  501 -0.00000000000E+00  0.00000000000E+00  0.64687653910E+03  0.64687653910E+03  0.25500000000E-02 0.  1.
          2   -1    0    0  501    0  0.00000000000E+00 -0.00000000000E+00 -0.24787668424E+04  0.24787668424E+04  0.25500000000E-02 0. -1.
    8880023    1    1    2    0    0 -0.75395912349E+03 -0.63717674651E+03 -0.17618979587E+04  0.21242747443E+04  0.65864270000E+03 0.  0.
    8880022    1    1    2    0    0  0.75395912349E+03  0.63717674651E+03 -0.69992344570E+02  0.10013686372E+04  0.15294330000E+03 0.  0.
<mgrwt>
<rscale>  0 0.11366809E+04</rscale>
<asrwt>0</asrwt>
<pdfrwt beam="1">  1        2 0.38134874E+00 0.11867008E+04</pdfrwt>
<pdfrwt beam="2">  1       -2 0.99519469E-01 0.11867008E+04</pdfrwt>
<totfact> 0.29462406E+00</totfact>
</mgrwt>
</event>
<event>
 4    1  0.3565372E-007  0.8463460E+03  0.7818608E-02  0.9618328E-01
          2   -1    0    0  501    0  0.00000000000E+00  0.00000000000E+00  0.46661676637E+04  0.46661676637E+04  0.25500000000E-02 0. -1.
         -2   -1    0    0    0  501 -0.00000000000E+00 -0.00000000000E+00 -0.15215066056E+03  0.15215066058E+03  0.25500000000E-02 0.  1.
    8880023    1    1    2    0    0 -0.52888895409E+03 -0.52609655940E+02  0.39049393659E+04  0.39956042045E+04  0.65864270000E+03 0.  0.
    8880022    1    1    2    0    0  0.52888895409E+03  0.52609655940E+02  0.60907763726E+03  0.82271411978E+03  0.15294330000E+03 0.  0.
<mgrwt>
<rscale>  0 0.76094866E+03</rscale>
<asrwt>0</asrwt>
<pdfrwt beam="1">  1        2 0.71787186E+00 0.84634597E+03</pdfrwt>
<pdfrwt beam="2">  1       -2 0.23407797E-01 0.84634597E+03</pdfrwt>
<totfact> 0.15067287E+00</totfact>
</mgrwt>
</event>
<event>
 4    1  0.3565372E-007  0.8107661E+03  0.7818608E-02  0.9687983E-01
          2   -1    0    0  501    0  0.00000000000E+00  0.00000000000E+00  0.25392854859E+04  0.25392854859E+04  0.25500000000E-02 0. -1.
         -2   -1    0    0    0  501 -0.00000000000E+00 -0.00000000000E+00 -0.49727846499E+03  0.49727846499E+03  0.25500000000E-02 0.  1.
    8880023    1    1    2    0    0  0.69851637549E+02 -0.46760258023E+03  0.23266722921E+04  0.24638883062E+04  0.65864270000E+03 0. -1.
    8880022    1    1    2    0    0 -0.69851637549E+02  0.46760258023E+03 -0.28466527124E+03  0.57267564465E+03  0.15294330000E+03 0.  0.
<mgrwt>
<rscale>  0 0.71736781E+03</rscale>
<asrwt>0</asrwt>
<pdfrwt beam="1">  1        2 0.39065930E+00 0.81076608E+03</pdfrwt>
<pdfrwt beam="2">  1       -2 0.76504381E-01 0.81076608E+03</pdfrwt>
<totfact> 0.52479275E+00</totfact>
</mgrwt>
</event>
<event>
 4    1  0.3565372E-007  0.7494666E+03  0.7818608E-02  0.9833183E-01
         -2   -1    0    0    0  501 -0.00000000000E+00  0.00000000000E+00  0.11159927546E+04  0.11159927546E+04  0.25500000000E-02 0.  1.
          2   -1    0    0  501    0  0.00000000000E+00 -0.00000000000E+00 -0.37224070966E+03  0.37224070967E+03  0.25500000000E-02 0. -1.
    8880023    1    1    2    0    0 -0.16692753278E+03 -0.31626745599E+03  0.79887200650E+03  0.10953979158E+04  0.65864270000E+03 0.  0.
    8880022    1    1    2    0    0  0.16692753278E+03  0.31626745599E+03 -0.55119961600E+02  0.39283554842E+03  0.15294330000E+03 0.  0.
<mgrwt>
<rscale>  0 0.63611764E+03</rscale>
<asrwt>0</asrwt>
<pdfrwt beam="1">  1        2 0.57267802E-01 0.74946655E+03</pdfrwt>
<pdfrwt beam="2">  1       -2 0.17169119E+00 0.74946655E+03</pdfrwt>
<totfact> 0.18138629E+01</totfact>
</mgrwt>
</event>
<event>
 4    1  0.3565372E-007  0.6642355E+03  0.7818608E-02  0.1020184E+00
         -2   -1    0    0    0  501 -0.00000000000E+00  0.00000000000E+00  0.54824567883E+03  0.54824567884E+03  0.25500000000E-02 0.  1.
          2   -1    0    0  501    0  0.00000000000E+00 -0.00000000000E+00 -0.16532174710E+04  0.16532174710E+04  0.25500000000E-02 0. -1.
    8880023    1    1    2    0    0 -0.85941551858E+02 -0.35497973606E+01 -0.15698379953E+04  0.17045820864E+04  0.65864270000E+03 0. -1.
    8880022    1    1    2    0    0  0.85941551858E+02  0.35497973606E+01  0.46486620314E+03  0.49688106347E+03  0.15294330000E+03 0.  0.
<mgrwt>
<rscale>  0 0.47620409E+03</rscale>
<asrwt>0</asrwt>
<pdfrwt beam="1">  1        2 0.25434115E+00 0.66423547E+03</pdfrwt>
<pdfrwt beam="2">  1       -2 0.84345490E-01 0.66423547E+03</pdfrwt>
<totfact> 0.13283519E+01</totfact>
</mgrwt>
</event>
<event>
 4    1  0.3565372E-007  0.8222521E+03  0.7818608E-02  0.9664600E-01
          2   -1    0    0  501    0  0.00000000000E+00  0.00000000000E+00  0.12813393017E+04  0.12813393017E+04  0.25500000000E-02 0. -1.
         -2   -1    0    0    0  501 -0.00000000000E+00 -0.00000000000E+00 -0.46214089373E+03  0.46214089374E+03  0.25500000000E-02 0.  1.
    8880023    1    1    2    0    0 -0.49078147856E+03 -0.37707916289E+02  0.58144990317E+02  0.82430540021E+03  0.65864270000E+03 0.  0.
    8880022    1    1    2    0    0  0.49078147856E+03  0.37707916289E+02  0.76105341761E+03  0.91917479519E+03  0.15294330000E+03 0.  0.
<mgrwt>
<rscale>  0 0.73164197E+03</rscale>
<asrwt>0</asrwt>
<pdfrwt beam="1">  1        2 0.19712912E+00 0.82225212E+03</pdfrwt>
<pdfrwt beam="2">  1       -2 0.71098599E-01 0.82225212E+03</pdfrwt>
<totfact> 0.30832042E+01</totfact>
</mgrwt>
</event>
<event>
 4    1  0.3565372E-007  0.6644089E+03  0.7818608E-02  0.1020035E+00
          2   -1    0    0  501    0  0.00000000000E+00  0.00000000000E+00  0.63924326181E+03  0.63924326182E+03  0.25500000000E-02 0. -1.
         -2   -1    0    0    0  501 -0.00000000000E+00 -0.00000000000E+00 -0.76858393264E+03  0.76858393264E+03  0.25500000000E-02 0.  1.
    8880023    1    1    2    0    0 -0.85431690734E+02  0.18177992128E+02  0.44989948247E+03  0.80240187174E+03  0.65864270000E+03 0. -1.
    8880022    1    1    2    0    0  0.85431690734E+02 -0.18177992128E+02 -0.57924015330E+03  0.60542532272E+03  0.15294330000E+03 0.  0.
<mgrwt>
<rscale>  0 0.47674153E+03</rscale>
<asrwt>0</asrwt>
<pdfrwt beam="1">  1        2 0.98345117E-01 0.66440892E+03</pdfrwt>
<pdfrwt beam="2">  1       -2 0.11824368E+00 0.66440892E+03</pdfrwt>
<totfact> 0.25815704E+01</totfact>
</mgrwt>
</event>
<event>
 4    1  0.3565372E-007  0.7482566E+03  0.7818608E-02  0.9836517E-01
          2   -1    0    0  501    0  0.00000000000E+00  0.00000000000E+00  0.11580963600E+04  0.11580963600E+04  0.25500000000E-02 0. -1.
         -2   -1    0    0    0  501 -0.00000000000E+00 -0.00000000000E+00 -0.63920262364E+03  0.63920262365E+03  0.25500000000E-02 0.  1.
    8880023    1    1    2    0    0  0.19110521955E+03  0.29926005048E+03  0.95582871952E+03  0.12138766536E+04  0.65864270000E+03 0. -1.
    8880022    1    1    2    0    0 -0.19110521955E+03 -0.29926005048E+03 -0.43693498314E+03  0.58342233010E+03  0.15294330000E+03 0.  0.
<mgrwt>
<rscale>  0 0.63439095E+03</rscale>
<asrwt>0</asrwt>
<pdfrwt beam="1">  1        2 0.17816867E+00 0.74825663E+03</pdfrwt>
<pdfrwt beam="2">  1       -2 0.98338867E-01 0.74825663E+03</pdfrwt>
<totfact> 0.17576042E+01</totfact>
</mgrwt>
</event>
<event>
 4    1  0.3565372E-007  0.1083172E+04  0.7818608E-02  0.9280027E-01
          2   -1    0    0  501    0  0.00000000000E+00  0.00000000000E+00  0.18240457232E+04  0.18240457232E+04  0.25500000000E-02 0. -1.
         -2   -1    0    0    0  501 -0.00000000000E+00 -0.00000000000E+00 -0.63675435865E+03  0.63675435866E+03  0.25500000000E-02 0.  1.
    8880023    1    1    2    0    0 -0.15011548053E+03  0.84670942234E+03  0.11598179546E+04  0.15869591669E+04  0.65864270000E+03 0. -1.
    8880022    1    1    2    0    0  0.15011548053E+03 -0.84670942234E+03  0.27473409950E+02  0.87384091495E+03  0.15294330000E+03 0.  0.
<mgrwt>
<rscale>  0 0.10264256E+04</rscale>
<asrwt>0</asrwt>
<pdfrwt beam="1">  1        2 0.28062242E+00 0.10831721E+04</pdfrwt>
<pdfrwt beam="2">  1       -2 0.97962210E-01 0.10831721E+04</pdfrwt>
<totfact> 0.71808892E+00</totfact>
</mgrwt>
</event>
<event>
 4    1  0.3565372E-007  0.7139440E+03  0.7818608E-02  0.9943637E-01
         -2   -1    0    0    0  501 -0.00000000000E+00  0.00000000000E+00  0.20607703983E+03  0.20607703985E+03  0.25500000000E-02 0.  1.
          2   -1    0    0  501    0  0.00000000000E+00 -0.00000000000E+00 -0.17547500617E+04  0.17547500617E+04  0.25500000000E-02 0. -1.
    8880023    1    1    2    0    0 -0.24816229572E+03 -0.11967192718E+03 -0.14727778471E+04  0.16367011604E+04  0.65864270000E+03 0.  1.
    8880022    1    1    2    0    0  0.24816229572E+03  0.11967192718E+03 -0.75895174760E+02  0.32412594117E+03  0.15294330000E+03 0.  1.
<mgrwt>
<rscale>  0 0.58192290E+03</rscale>
<asrwt>0</asrwt>
<pdfrwt beam="1">  1        2 0.26996154E+00 0.71394405E+03</pdfrwt>
<pdfrwt beam="2">  1       -2 0.31704161E-01 0.71394405E+03</pdfrwt>
<totfact> 0.86742869E+01</totfact>
</mgrwt>
</event>
<event>
 4    1  0.3565372E-007  0.9412842E+03  0.7818608E-02  0.9462767E-01
         -2   -1    0    0    0  501 -0.00000000000E+00  0.00000000000E+00  0.84316203991E+03  0.84316203992E+03  0.25500000000E-02 0.  1.
          2   -1    0    0  501    0  0.00000000000E+00 -0.00000000000E+00 -0.12265025377E+04  0.12265025377E+04  0.25500000000E-02 0. -1.
    8880023    1    1    2    0    0 -0.29262539161E+03  0.60545535726E+03  0.40284962291E+03  0.10238670980E+04  0.65864270000E+03 0.  0.
    8880022    1    1    2    0    0  0.29262539161E+03 -0.60545535726E+03 -0.78619012073E+03  0.10457974796E+04  0.15294330000E+03 0.  0.
<mgrwt>
<rscale>  0 0.87085436E+03</rscale>
<asrwt>0</asrwt>
<pdfrwt beam="1">  1        2 0.18869270E+00 0.94128424E+03</pdfrwt>
<pdfrwt beam="2">  1       -2 0.12971724E+00 0.94128424E+03</pdfrwt>
<totfact> 0.79606640E+00</totfact>
</mgrwt>
</event>
<event>
 4    1  0.3565372E-007  0.7580499E+03  0.7818608E-02  0.9810182E-01
         -2   -1    0    0    0  501 -0.00000000000E+00  0.00000000000E+00  0.51349395150E+03  0.51349395150E+03  0.25500000000E-02 0.  1.
          2   -1    0    0  501    0  0.00000000000E+00 -0.00000000000E+00 -0.69020500916E+03  0.69020500916E+03  0.25500000000E-02 0. -1.
    8880023    1    1    2    0    0 -0.18361099801E+02 -0.37482305859E+03  0.85955511580E+01  0.75809863804E+03  0.65864270000E+03 0.  0.
    8880022    1    1    2    0    0  0.18361099801E+02  0.37482305859E+03 -0.18530660882E+03  0.44560032263E+03  0.15294330000E+03 0. -1.
<mgrwt>
<rscale>  0 0.64818947E+03</rscale>
<asrwt>0</asrwt>
<pdfrwt beam="1">  1        2 0.10618539E+00 0.75804991E+03</pdfrwt>
<pdfrwt beam="2">  1       -2 0.78999070E-01 0.75804991E+03</pdfrwt>
<totfact> 0.60027932E+01</totfact>
</mgrwt>
</event>
<event>
 4    1  0.3565372E-007  0.9623104E+03  0.7818608E-02  0.9432619E-01
          2   -1    0    0  501    0  0.00000000000E+00  0.00000000000E+00  0.12542242866E+04  0.12542242866E+04  0.25500000000E-02 0. -1.
         -2   -1    0    0    0  501 -0.00000000000E+00 -0.00000000000E+00 -0.69908859982E+03  0.69908859983E+03  0.25500000000E-02 0.  1.
    8880023    1    1    2    0    0 -0.76408748512E+02  0.69741871934E+03  0.73754079241E+03  0.12124387793E+04  0.65864270000E+03 0.  0.
    8880022    1    1    2    0    0  0.76408748512E+02 -0.69741871934E+03 -0.18240510565E+03  0.74087410706E+03  0.15294330000E+03 0.  0.
<mgrwt>
<rscale>  0 0.89439201E+03</rscale>
<asrwt>0</asrwt>
<pdfrwt beam="1">  1        2 0.19295758E+00 0.96231043E+03</pdfrwt>
<pdfrwt beam="2">  1       -2 0.10755209E+00 0.96231043E+03</pdfrwt>
<totfact> 0.12167202E+01</totfact>
</mgrwt>
</event>
<event>
 4    1  0.3565372E-007  0.7091840E+03  0.7818608E-02  0.9961044E-01
         -2   -1    0    0    0  501 -0.00000000000E+00  0.00000000000E+00  0.59127921508E+03  0.59127921508E+03  0.25500000000E-02 0.  1.
          2   -1    0    0  501    0  0.00000000000E+00 -0.00000000000E+00 -0.14003460647E+04  0.14003460647E+04  0.25500000000E-02 0. -1.
    8880023    1    1    2    0    0  0.12671947304E+03  0.23037764707E+03 -0.12610705051E+04  0.14468036184E+04  0.65864270000E+03 0. -1.
    8880022    1    1    2    0    0 -0.12671947304E+03 -0.23037764707E+03  0.45200365548E+03  0.54482166137E+03  0.15294330000E+03 0.  0.
<mgrwt>
<rscale>  0 0.57391898E+03</rscale>
<asrwt>0</asrwt>
<pdfrwt beam="1">  1        2 0.21543786E+00 0.70918396E+03</pdfrwt>
<pdfrwt beam="2">  1       -2 0.90966033E-01 0.70918396E+03</pdfrwt>
<totfact> 0.15328219E+01</totfact>
</mgrwt>
</event>
<event>
 4    1  0.3565372E-007  0.7044710E+03  0.7818608E-02  0.9979136E-01
          2   -1    0    0  501    0  0.00000000000E+00  0.00000000000E+00  0.64880020523E+03  0.64880020524E+03  0.25500000000E-02 0. -1.
         -2   -1    0    0    0  501 -0.00000000000E+00 -0.00000000000E+00 -0.62343816859E+03  0.62343816860E+03  0.25500000000E-02 0.  1.
    8880023    1    1    2    0    0 -0.16655290789E+03  0.18635796643E+03  0.38939406547E+03  0.80492677136E+03  0.65864270000E+03 0. -1.
    8880022    1    1    2    0    0  0.16655290789E+03 -0.18635796643E+03 -0.36403202883E+03  0.46731160247E+03  0.15294330000E+03 0.  0.
<mgrwt>
<rscale>  0 0.56574628E+03</rscale>
<asrwt>0</asrwt>
<pdfrwt beam="1">  1        2 0.99815416E-01 0.70447099E+03</pdfrwt>
<pdfrwt beam="2">  1       -2 0.95913565E-01 0.70447099E+03</pdfrwt>
<totfact> 0.41744190E+01</totfact>
</mgrwt>
</event>
<event>
 4    1  0.3565372E-007  0.7699902E+03  0.7818608E-02  0.9779898E-01
         -2   -1    0    0    0  501 -0.00000000000E+00  0.00000000000E+00  0.33815212692E+03  0.33815212693E+03  0.25500000000E-02 0.  1.
          2   -1    0    0  501    0  0.00000000000E+00 -0.00000000000E+00 -0.16622384310E+04  0.16622384310E+04  0.25500000000E-02 0. -1.
    8880023    1    1    2    0    0  0.28995794681E+03 -0.27385974567E+03 -0.13691962900E+04  0.15708543720E+04  0.65864270000E+03 0. -1.
    8880022    1    1    2    0    0 -0.28995794681E+03  0.27385974567E+03  0.45109985876E+02  0.42953618597E+03  0.15294330000E+03 0.  0.
<mgrwt>
<rscale>  0 0.66452571E+03</rscale>
<asrwt>0</asrwt>
<pdfrwt beam="1">  1        2 0.25572898E+00 0.76999025E+03</pdfrwt>
<pdfrwt beam="2">  1       -2 0.52023405E-01 0.76999025E+03</pdfrwt>
<totfact> 0.36739205E+01</totfact>
</mgrwt>
</event>
<event>
 4    1  0.3565372E-007  0.7907321E+03  0.7818608E-02  0.9731205E-01
         -2   -1    0    0    0  501 -0.00000000000E+00  0.00000000000E+00  0.32643958629E+03  0.32643958630E+03  0.25500000000E-02 0.  1.
          2   -1    0    0  501    0  0.00000000000E+00 -0.00000000000E+00 -0.18165036567E+04  0.18165036567E+04  0.25500000000E-02 0. -1.
    8880023    1    1    2    0    0  0.43583755424E+03 -0.38636109870E+02 -0.14815484855E+04  0.16793579856E+04  0.65864270000E+03 0.  0.
    8880022    1    1    2    0    0 -0.43583755424E+03  0.38636109870E+02 -0.85155849087E+01  0.46358525740E+03  0.15294330000E+03 0.  0.
<mgrwt>
<rscale>  0 0.69188853E+03</rscale>
<asrwt>0</asrwt>
<pdfrwt beam="1">  1        2 0.27946209E+00 0.79073215E+03</pdfrwt>
<pdfrwt beam="2">  1       -2 0.50221476E-01 0.79073215E+03</pdfrwt>
<totfact> 0.32433341E+01</totfact>
</mgrwt>
</event>
<event>
 4    1  0.3565372E-007  0.9862101E+03  0.7818608E-02  0.9399826E-01
         -2   -1    0    0    0  501 -0.00000000000E+00  0.00000000000E+00  0.64073096010E+03  0.64073096010E+03  0.25500000000E-02 0.  1.
          2   -1    0    0  501    0  0.00000000000E+00 -0.00000000000E+00 -0.19022572918E+04  0.19022572918E+04  0.25500000000E-02 0. -1.
    8880023    1    1    2    0    0 -0.50766903139E+03  0.53016252296E+03 -0.14650486423E+04  0.17660628179E+04  0.65864270000E+03 0.  0.
    8880022    1    1    2    0    0  0.50766903139E+03 -0.53016252296E+03  0.20352231054E+03  0.77692543406E+03  0.15294330000E+03 0.  0.
<mgrwt>
<rscale>  0 0.92090037E+03</rscale>
<asrwt>0</asrwt>
<pdfrwt beam="1">  1        2 0.29265497E+00 0.98621010E+03</pdfrwt>
<pdfrwt beam="2">  1       -2 0.98573995E-01 0.98621010E+03</pdfrwt>
<totfact> 0.64767399E+00</totfact>
</mgrwt>
</event>
<event>
 4    1  0.3565372E-007  0.9741815E+03  0.7818608E-02  0.9416144E-01
         -2   -1    0    0    0  501 -0.00000000000E+00  0.00000000000E+00  0.88262078117E+03  0.88262078118E+03  0.25500000000E-02 0.  1.
          2   -1    0    0  501    0  0.00000000000E+00 -0.00000000000E+00 -0.11345362908E+04  0.11345362908E+04  0.25500000000E-02 0. -1.
    8880023    1    1    2    0    0  0.70274884368E+03 -0.14616261243E+03  0.38296484889E+03  0.10467529452E+04  0.65864270000E+03 0.  0.
    8880022    1    1    2    0    0 -0.70274884368E+03  0.14616261243E+03 -0.63488035848E+03  0.97040412673E+03  0.15294330000E+03 0.  0.
<mgrwt>
<rscale>  0 0.90758922E+03</rscale>
<asrwt>0</asrwt>
<pdfrwt beam="1">  1        2 0.17454405E+00 0.97418153E+03</pdfrwt>
<pdfrwt beam="2">  1       -2 0.13578781E+00 0.97418153E+03</pdfrwt>
<totfact> 0.80175412E+00</totfact>
</mgrwt>
</event>
<event>
 4    1  0.3565372E-007  0.7001354E+03  0.7818608E-02  0.9996640E-01
         -2   -1    0    0    0  501 -0.00000000000E+00  0.00000000000E+00  0.34929199680E+03  0.34929199681E+03  0.25500000000E-02 0.  1.
          2   -1    0    0  501    0  0.00000000000E+00 -0.00000000000E+00 -0.15222065860E+04  0.15222065860E+04  0.25500000000E-02 0. -1.
    8880023    1    1    2    0    0 -0.23338627839E+03 -0.43705627356E+02 -0.13621344654E+04  0.15315351269E+04  0.65864270000E+03 0. -1.
    8880022    1    1    2    0    0  0.23338627839E+03  0.43705627356E+02  0.18921987620E+03  0.33996345593E+03  0.15294330000E+03 0.  0.
<mgrwt>
<rscale>  0 0.55797808E+03</rscale>
<asrwt>0</asrwt>
<pdfrwt beam="1">  1        2 0.23418563E+00 0.70013537E+03</pdfrwt>
<pdfrwt beam="2">  1       -2 0.53737231E-01 0.70013537E+03</pdfrwt>
<totfact> 0.41384455E+01</totfact>
</mgrwt>
</event>
<event>
 4    1  0.3565372E-007  0.6864687E+03  0.7818608E-02  0.1005878E+00
         -2   -1    0    0    0  501 -0.00000000000E+00  0.00000000000E+00  0.18398824377E+03  0.18398824379E+03  0.25500000000E-02 0.  1.
          2   -1    0    0  501    0  0.00000000000E+00 -0.00000000000E+00 -0.15595689330E+04  0.15595689330E+04  0.25500000000E-02 0. -1.
    8880023    1    1    2    0    0  0.71193539291E+02 -0.17989030690E+03 -0.13243246767E+04  0.14916685618E+04  0.65864270000E+03 0.  0.
    8880022    1    1    2    0    0 -0.71193539291E+02  0.17989030690E+03 -0.51256012526E+02  0.25188861504E+03  0.15294330000E+03 0.  0.
<mgrwt>
<rscale>  0 0.53146170E+03</rscale>
<asrwt>0</asrwt>
<pdfrwt beam="1">  1        2 0.23993367E+00 0.68646868E+03</pdfrwt>
<pdfrwt beam="2">  1       -2 0.28305885E-01 0.68646868E+03</pdfrwt>
<totfact> 0.13728670E+02</totfact>
</mgrwt>
</event>
<event>
 4    1  0.3730445E-007  0.9029677E+03  0.7818608E-02  0.9521284E-01
         -2   -1    0    0    0  501 -0.00000000000E+00  0.00000000000E+00  0.14470999979E+04  0.14470999979E+04  0.25500000000E-02 0.  1.
          2   -1    0    0  501    0  0.00000000000E+00 -0.00000000000E+00 -0.16216794231E+04  0.16216794231E+04  0.25500000000E-02 0. -1.
    8880023    1    1    2    0    0  0.54373504322E+03 -0.29307463510E+03 -0.14127453409E+04  0.16766633960E+04  0.65864270000E+03 0. -1.
    8880022    1    1    2    0    0 -0.54373504322E+03  0.29307463510E+03  0.12381659157E+04  0.13921160249E+04  0.15294330000E+03 0.  0.
<mgrwt>
<rscale>  0 0.82732656E+03</rscale>
<asrwt>0</asrwt>
<pdfrwt beam="1">  1        2 0.24948914E+00 0.90296774E+03</pdfrwt>
<pdfrwt beam="2">  1       -2 0.22263077E+00 0.90296774E+03</pdfrwt>
<totfact> 0.10429770E+00</totfact>
</mgrwt>
</event>
<event>
 4    1  0.3565372E-007  0.7213935E+03  0.7818608E-02  0.9917899E-01
         -2   -1    0    0    0  501 -0.00000000000E+00  0.00000000000E+00  0.59039144071E+03  0.59039144072E+03  0.25500000000E-02 0.  1.
          2   -1    0    0  501    0  0.00000000000E+00 -0.00000000000E+00 -0.19887753262E+04  0.19887753262E+04  0.25500000000E-02 0. -1.
    8880023    1    1    2    0    0  0.18229540200E+03  0.23101244467E+03 -0.18690247548E+04  0.20034126144E+04  0.65864270000E+03 0. -1.
    8880022    1    1    2    0    0 -0.18229540200E+03 -0.23101244467E+03  0.47064086936E+03  0.57575415249E+03  0.15294330000E+03 0.  0.
<mgrwt>
<rscale>  0 0.59401625E+03</rscale>
<asrwt>0</asrwt>
<pdfrwt beam="1">  1        2 0.30596543E+00 0.72139349E+03</pdfrwt>
<pdfrwt beam="2">  1       -2 0.90829453E-01 0.72139349E+03</pdfrwt>
<totfact> 0.72946120E+00</totfact>
</mgrwt>
</event>
<event>
 4    1  0.3565372E-007  0.7502113E+03  0.7818608E-02  0.9831142E-01
         -2   -1    0    0    0  501 -0.00000000000E+00  0.00000000000E+00  0.20291050459E+03  0.20291050461E+03  0.25500000000E-02 0.  1.
          2   -1    0    0  501    0  0.00000000000E+00 -0.00000000000E+00 -0.22719619260E+04  0.22719619260E+04  0.25500000000E-02 0. -1.
    8880023    1    1    2    0    0  0.19600937420E+03 -0.30097703718E+03 -0.19123037888E+04  0.20541963973E+04  0.65864270000E+03 0. -1.
    8880022    1    1    2    0    0 -0.19600937420E+03  0.30097703718E+03 -0.15674763263E+03  0.42067603335E+03  0.15294330000E+03 0.  0.
<mgrwt>
<rscale>  0 0.63717732E+03</rscale>
<asrwt>0</asrwt>
<pdfrwt beam="1">  1        2 0.34953259E+00 0.75021134E+03</pdfrwt>
<pdfrwt beam="2">  1       -2 0.31217002E-01 0.75021134E+03</pdfrwt>
<totfact> 0.46350881E+01</totfact>
</mgrwt>
</event>
<event>
 4    1  0.3565372E-007  0.6739997E+03  0.7818608E-02  0.1012944E+00
         -2   -1    0    0    0  501 -0.00000000000E+00  0.00000000000E+00  0.11808847238E+04  0.11808847238E+04  0.25500000000E-02 0.  1.
          2   -1    0    0  501    0  0.00000000000E+00 -0.00000000000E+00 -0.32088710873E+03  0.32088710874E+03  0.25500000000E-02 0. -1.
    8880023    1    1    2    0    0 -0.47754640023E+02  0.13485132404E+03  0.62106245739E+02  0.67685506370E+03  0.65864270000E+03 0. -1.
    8880022    1    1    2    0    0  0.47754640023E+02 -0.13485132404E+03  0.79789136930E+03  0.82491676881E+03  0.15294330000E+03 0.  0.
<mgrwt>
<rscale>  0 0.50321049E+03</rscale>
<asrwt>0</asrwt>
<pdfrwt beam="1">  1        2 0.49367248E-01 0.67399970E+03</pdfrwt>
<pdfrwt beam="2">  1       -2 0.18167457E+00 0.67399970E+03</pdfrwt>
<totfact> 0.18378632E+01</totfact>
</mgrwt>
</event>
<event>
 4    1  0.3565372E-007  0.6596259E+03  0.7818608E-02  0.1024543E+00
          2   -1    0    0  501    0  0.00000000000E+00  0.00000000000E+00  0.45610911288E+03  0.45610911289E+03  0.25500000000E-02 0. -1.
         -2   -1    0    0    0  501 -0.00000000000E+00 -0.00000000000E+00 -0.36941808238E+03  0.36941808239E+03  0.25500000000E-02 0.  1.
    8880023    1    1    2    0    0 -0.27856433418E+02 -0.22807759530E+02  0.10276719073E+03  0.66758331056E+03  0.65864270000E+03 0. -1.
    8880022    1    1    2    0    0  0.27856433418E+02  0.22807759530E+02 -0.16076160234E+02  0.15794388472E+03  0.15294330000E+03 0. -1.
<mgrwt>
<rscale>  0 0.46082248E+03</rscale>
<asrwt>0</asrwt>
<pdfrwt beam="1">  1        2 0.70170632E-01 0.65962594E+03</pdfrwt>
<pdfrwt beam="2">  1       -2 0.56833552E-01 0.65962594E+03</pdfrwt>
<totfact> 0.20141930E+02</totfact>
</mgrwt>
</event>
<event>
 4    1  0.3565372E-007  0.8722323E+03  0.7818608E-02  0.9572164E-01
          2   -1    0    0  501    0  0.00000000000E+00  0.00000000000E+00  0.86750646169E+03  0.86750646169E+03  0.25500000000E-02 0. -1.
         -2   -1    0    0    0  501 -0.00000000000E+00 -0.00000000000E+00 -0.21500161533E+04  0.21500161533E+04  0.25500000000E-02 0.  1.
    8880023    1    1    2    0    0  0.56869558081E+03  0.59702340170E+02  0.59042644978E+03  0.10532770917E+04  0.65864270000E+03 0. -1.
    8880022    1    1    2    0    0 -0.56869558081E+03 -0.59702340170E+02 -0.18729361414E+04  0.19642455233E+04  0.15294330000E+03 0.  0.
<mgrwt>
<rscale>  0 0.79166256E+03</rscale>
<asrwt>0</asrwt>
<pdfrwt beam="1">  1        2 0.13346253E+00 0.87223233E+03</pdfrwt>
<pdfrwt beam="2">  1       -2 0.33077172E+00 0.87223233E+03</pdfrwt>
<totfact> 0.65219849E-01</totfact>
</mgrwt>
</event>
<event>
 4    1  0.3565372E-007  0.8041531E+03  0.7818608E-02  0.9701887E-01
          2   -1    0    0  501    0  0.00000000000E+00  0.00000000000E+00  0.12687373401E+04  0.12687373401E+04  0.25500000000E-02 0. -1.
         -2   -1    0    0    0  501 -0.00000000000E+00 -0.00000000000E+00 -0.21193738605E+04  0.21193738605E+04  0.25500000000E-02 0.  1.
    8880023    1    1    2    0    0 -0.32938924987E+03  0.32303980070E+03  0.11085657983E+04  0.13695182825E+04  0.65864270000E+03 0. -1.
    8880022    1    1    2    0    0  0.32938924987E+03 -0.32303980070E+03 -0.19592023186E+04  0.20185929181E+04  0.15294330000E+03 0.  0.
<mgrwt>
<rscale>  0 0.70904544E+03</rscale>
<asrwt>0</asrwt>
<pdfrwt beam="1">  1        2 0.19519036E+00 0.80415309E+03</pdfrwt>
<pdfrwt beam="2">  1       -2 0.32605752E+00 0.80415309E+03</pdfrwt>
<totfact> 0.39578381E-01</totfact>
</mgrwt>
</event>
<event>
 4    1  0.3565372E-007  0.7594172E+03  0.7818608E-02  0.9806619E-01
         -2   -1    0    0    0  501 -0.00000000000E+00  0.00000000000E+00  0.70644068786E+03  0.70644068786E+03  0.25500000000E-02 0.  1.
          2   -1    0    0  501    0  0.00000000000E+00 -0.00000000000E+00 -0.99069352835E+03  0.99069352835E+03  0.25500000000E-02 0. -1.
    8880023    1    1    2    0    0  0.24810459851E+02  0.37721169291E+03 -0.75736610418E+03  0.10725287139E+04  0.65864270000E+03 0. -1.
    8880022    1    1    2    0    0 -0.24810459851E+02 -0.37721169291E+03  0.47311326369E+03  0.62460550228E+03  0.15294330000E+03 0.  0.
<mgrwt>
<rscale>  0 0.65008552E+03</rscale>
<asrwt>0</asrwt>
<pdfrwt beam="1">  1        2 0.15241439E+00 0.75941716E+03</pdfrwt>
<pdfrwt beam="2">  1       -2 0.10868318E+00 0.75941716E+03</pdfrwt>
<totfact> 0.17544616E+01</totfact>
</mgrwt>
</event>
<event>
 4    1  0.3565372E-007  0.6813298E+03  0.7818608E-02  0.1008581E+00
          2   -1    0    0  501    0  0.00000000000E+00  0.00000000000E+00  0.16900853235E+04  0.16900853235E+04  0.25500000000E-02 0. -1.
         -2   -1    0    0    0  501 -0.00000000000E+00 -0.00000000000E+00 -0.43226240578E+03  0.43226240579E+03  0.25500000000E-02 0.  1.
    8880023    1    1    2    0    0 -0.24187828243E+02 -0.17267046195E+03  0.15827319732E+04  0.17231514282E+04  0.65864270000E+03 0. -1.
    8880022    1    1    2    0    0  0.24187828243E+02  0.17267046195E+03 -0.32490905544E+03  0.39919630107E+03  0.15294330000E+03 0.  0.
<mgrwt>
<rscale>  0 0.52042429E+03</rscale>
<asrwt>0</asrwt>
<pdfrwt beam="1">  1        2 0.26001312E+00 0.68132984E+03</pdfrwt>
<pdfrwt beam="2">  1       -2 0.66501909E-01 0.68132984E+03</pdfrwt>
<totfact> 0.21403448E+01</totfact>
</mgrwt>
</event>
<event>
 4    1  0.3565372E-007  0.8591738E+03  0.7818608E-02  0.9595035E-01
         -2   -1    0    0    0  501 -0.00000000000E+00  0.00000000000E+00  0.78433178589E+03  0.78433178589E+03  0.25500000000E-02 0.  1.
          2   -1    0    0  501    0  0.00000000000E+00 -0.00000000000E+00 -0.21292366289E+04  0.21292366289E+04  0.25500000000E-02 0. -1.
    8880023    1    1    2    0    0  0.33062021745E+03  0.44165557699E+03 -0.19191503821E+04  0.21026929810E+04  0.65864270000E+03 0. -1.
    8880022    1    1    2    0    0 -0.33062021745E+03 -0.44165557699E+03  0.57424553913E+03  0.81087543378E+03  0.15294330000E+03 0.  0.
<mgrwt>
<rscale>  0 0.77625681E+03</rscale>
<asrwt>0</asrwt>
<pdfrwt beam="1">  1        2 0.32757486E+00 0.85917378E+03</pdfrwt>
<pdfrwt beam="2">  1       -2 0.12066643E+00 0.85917378E+03</pdfrwt>
<totfact> 0.30261731E+00</totfact>
</mgrwt>
</event>
<event>
 4    1  0.3565372E-007  0.7168494E+03  0.7818608E-02  0.9933394E-01
          2   -1    0    0  501    0  0.00000000000E+00  0.00000000000E+00  0.11765752068E+04  0.11765752068E+04  0.25500000000E-02 0. -1.
         -2   -1    0    0    0  501 -0.00000000000E+00 -0.00000000000E+00 -0.74569761394E+03  0.74569761395E+03  0.25500000000E-02 0.  1.
    8880023    1    1    2    0    0  0.24322178515E+03 -0.14458900160E+03  0.10225699774E+04  0.12488083844E+04  0.65864270000E+03 0.  0.
    8880022    1    1    2    0    0 -0.24322178515E+03  0.14458900160E+03 -0.59169238448E+03  0.67346443635E+03  0.15294330000E+03 0.  1.
<mgrwt>
<rscale>  0 0.58669797E+03</rscale>
<asrwt>0</asrwt>
<pdfrwt beam="1">  1        2 0.18101157E+00 0.71684937E+03</pdfrwt>
<pdfrwt beam="2">  1       -2 0.11472271E+00 0.71684937E+03</pdfrwt>
<totfact> 0.11877029E+01</totfact>
</mgrwt>
</event>
<event>
 4    1  0.3565372E-007  0.1228073E+04  0.7818608E-02  0.9130305E-01
          2   -1    0    0  501    0  0.00000000000E+00  0.00000000000E+00  0.34398220787E+04  0.34398220787E+04  0.25500000000E-02 0. -1.
         -2   -1    0    0    0  501 -0.00000000000E+00 -0.00000000000E+00 -0.95186489672E+03  0.95186489672E+03  0.25500000000E-02 0.  1.
    8880023    1    1    2    0    0  0.49406213688E+03 -0.91118386493E+03  0.29881599471E+04  0.32306753948E+04  0.65864270000E+03 0. -1.
    8880022    1    1    2    0    0 -0.49406213688E+03  0.91118386493E+03 -0.50020276521E+03  0.11610115805E+04  0.15294330000E+03 0.  0.
<mgrwt>
<rscale>  0 0.11802686E+04</rscale>
<asrwt>0</asrwt>
<pdfrwt beam="1">  1        2 0.52920341E+00 0.12280731E+04</pdfrwt>
<pdfrwt beam="2">  1       -2 0.14644075E+00 0.12280731E+04</pdfrwt>
<totfact> 0.28276399E-01</totfact>
</mgrwt>
</event>
<event>
 4    1  0.3565372E-007  0.1253585E+04  0.7818608E-02  0.9106716E-01
         -2   -1    0    0    0  501 -0.00000000000E+00  0.00000000000E+00  0.65167045589E+03  0.65167045589E+03  0.25500000000E-02 0.  1.
          2   -1    0    0  501    0  0.00000000000E+00 -0.00000000000E+00 -0.20956445298E+04  0.20956445298E+04  0.25500000000E-02 0. -1.
    8880023    1    1    2    0    0 -0.60431659870E+03 -0.87890079405E+03 -0.67709918066E+03  0.14247591600E+04  0.65864270000E+03 0.  0.
    8880022    1    1    2    0    0  0.60431659870E+03  0.87890079405E+03 -0.76687489329E+03  0.13225558257E+04  0.15294330000E+03 0.  1.
<mgrwt>
<rscale>  0 0.12070410E+04</rscale>
<asrwt>0</asrwt>
<pdfrwt beam="1">  1        2 0.32240685E+00 0.12535850E+04</pdfrwt>
<pdfrwt beam="2">  1       -2 0.10025699E+00 0.12535850E+04</pdfrwt>
<totfact> 0.47261590E+00</totfact>
</mgrwt>
</event>
<event>
 4    1  0.3565372E-007  0.1488800E+04  0.7818608E-02  0.8917585E-01
         -2   -1    0    0    0  501 -0.00000000000E+00  0.00000000000E+00  0.12848260797E+04  0.12848260797E+04  0.25500000000E-02 0.  1.
          2   -1    0    0  501    0  0.00000000000E+00 -0.00000000000E+00 -0.19706414802E+04  0.19706414802E+04  0.25500000000E-02 0. -1.
    8880023    1    1    2    0    0  0.10668812563E+04  0.80279484265E+03  0.38423906494E+03  0.15375841569E+04  0.65864270000E+03 0.  0.
    8880022    1    1    2    0    0 -0.10668812563E+04 -0.80279484265E+03 -0.10700544654E+04  0.17178834030E+04  0.15294330000E+03 0.  0.
<mgrwt>
<rscale>  0 0.14511764E+04</rscale>
<asrwt>0</asrwt>
<pdfrwt beam="1">  1        2 0.30317561E+00 0.14888000E+04</pdfrwt>
<pdfrwt beam="2">  1       -2 0.19766555E+00 0.14888000E+04</pdfrwt>
<totfact> 0.89922900E-01</totfact>
</mgrwt>
</event>
<event>
 4    1  0.3565372E-007  0.6608028E+03  0.7818608E-02  0.1023349E+00
         -2   -1    0    0    0  501 -0.00000000000E+00  0.00000000000E+00  0.23533850507E+03  0.23533850508E+03  0.25500000000E-02 0.  1.
          2   -1    0    0  501    0  0.00000000000E+00 -0.00000000000E+00 -0.10154022439E+04  0.10154022439E+04  0.25500000000E-02 0. -1.
    8880023    1    1    2    0    0 -0.81595464252E+01  0.52759263839E+02 -0.84801194199E+03  0.10750742198E+04  0.65864270000E+03 0. -1.
    8880022    1    1    2    0    0  0.81595464252E+01 -0.52759263839E+02  0.67948203196E+02  0.17566652911E+03  0.15294330000E+03 0.  0.
<mgrwt>
<rscale>  0 0.46497333E+03</rscale>
<asrwt>0</asrwt>
<pdfrwt beam="1">  1        2 0.15621573E+00 0.66080279E+03</pdfrwt>
<pdfrwt beam="2">  1       -2 0.36205924E-01 0.66080279E+03</pdfrwt>
<totfact> 0.17969302E+02</totfact>
</mgrwt>
</event>
<event>
 4    1  0.3565372E-007  0.7400102E+03  0.7818608E-02  0.9859917E-01
         -2   -1    0    0    0  501 -0.00000000000E+00  0.00000000000E+00  0.77438519288E+03  0.77438519288E+03  0.25500000000E-02 0.  1.
          2   -1    0    0  501    0  0.00000000000E+00 -0.00000000000E+00 -0.82337804979E+03  0.82337804980E+03  0.25500000000E-02 0. -1.
    8880023    1    1    2    0    0 -0.30546103367E+03 -0.14317296557E+03 -0.58701733582E+03  0.94456577324E+03  0.65864270000E+03 0. -1.
    8880022    1    1    2    0    0  0.30546103367E+03  0.14317296557E+03  0.53802447890E+03  0.65319746943E+03  0.15294330000E+03 0.  1.
<mgrwt>
<rscale>  0 0.62243816E+03</rscale>
<asrwt>0</asrwt>
<pdfrwt beam="1">  1        2 0.12667355E+00 0.74001023E+03</pdfrwt>
<pdfrwt beam="2">  1       -2 0.11913618E+00 0.74001023E+03</pdfrwt>
<totfact> 0.18201557E+01</totfact>
</mgrwt>
</event>
<event>
 4    1  0.3565372E-007  0.6817239E+03  0.7818608E-02  0.1008365E+00
          2   -1    0    0  501    0  0.00000000000E+00  0.00000000000E+00  0.12584220742E+04  0.12584220742E+04  0.25500000000E-02 0. -1.
         -2   -1    0    0    0  501 -0.00000000000E+00 -0.00000000000E+00 -0.45155191818E+03  0.45155191818E+03  0.25500000000E-02 0.  1.
    8880023    1    1    2    0    0 -0.11613645527E+03  0.13209683787E+03  0.11250949941E+04  0.13155174658E+04  0.65864270000E+03 0. -1.
    8880022    1    1    2    0    0  0.11613645527E+03 -0.13209683787E+03 -0.31822483805E+03  0.39445652661E+03  0.15294330000E+03 0.  0.
<mgrwt>
<rscale>  0 0.52129703E+03</rscale>
<asrwt>0</asrwt>
<pdfrwt beam="1">  1        2 0.19360339E+00 0.68172389E+03</pdfrwt>
<pdfrwt beam="2">  1       -2 0.69469526E-01 0.68172389E+03</pdfrwt>
<totfact> 0.33940919E+01</totfact>
</mgrwt>
</event>
<event>
 4    1  0.3565372E-007  0.1171530E+04  0.7818608E-02  0.9185306E-01
         -2   -1    0    0    0  501 -0.00000000000E+00  0.00000000000E+00  0.21418451763E+04  0.21418451763E+04  0.25500000000E-02 0.  1.
          2   -1    0    0  501    0  0.00000000000E+00 -0.00000000000E+00 -0.26711466704E+04  0.26711466704E+04  0.25500000000E-02 0. -1.
    8880023    1    1    2    0    0 -0.92407544341E+03 -0.29113017653E+03  0.18780484514E+04  0.22134923530E+04  0.65864270000E+03 0.  1.
    8880022    1    1    2    0    0  0.92407544341E+03  0.29113017653E+03 -0.24073499454E+04  0.25994994937E+04  0.15294330000E+03 0.  0.
<mgrwt>
<rscale>  0 0.11206385E+04</rscale>
<asrwt>0</asrwt>
<pdfrwt beam="1">  1        2 0.41094564E+00 0.11715299E+04</pdfrwt>
<pdfrwt beam="2">  1       -2 0.32951464E+00 0.11715299E+04</pdfrwt>
<totfact> 0.57257047E-02</totfact>
</mgrwt>
</event>
<event>
 4    1  0.4529203E-007  0.1735903E+04  0.7818608E-02  0.8758847E-01
          2   -1    0    0  501    0  0.00000000000E+00  0.00000000000E+00  0.30948847397E+04  0.30948847397E+04  0.25500000000E-02 0. -1.
         -2   -1    0    0    0  501 -0.00000000000E+00 -0.00000000000E+00 -0.27133270022E+04  0.27133270022E+04  0.25500000000E-02 0.  1.
    8880023    1    1    2    0    0  0.12637755991E+04  0.99117043669E+03  0.25626605630E+04  0.30952523269E+04  0.65864270000E+03 0.  0.
    8880022    1    1    2    0    0 -0.12637755991E+04 -0.99117043669E+03 -0.21811028255E+04  0.27129594151E+04  0.15294330000E+03 0.  0.
<mgrwt>
<rscale>  0 0.17044216E+04</rscale>
<asrwt>0</asrwt>
<pdfrwt beam="1">  1        2 0.47613612E+00 0.17359026E+04</pdfrwt>
<pdfrwt beam="2">  1       -2 0.41743492E+00 0.17359026E+04</pdfrwt>
<totfact> 0.78645331E-03</totfact>
</mgrwt>
</event>
<event>
 4    1  0.3565372E-007  0.8146535E+03  0.7818608E-02  0.9679964E-01
          2   -1    0    0  501    0  0.00000000000E+00  0.00000000000E+00  0.20279810229E+04  0.20279810229E+04  0.25500000000E-02 0. -1.
         -2   -1    0    0    0  501 -0.00000000000E+00 -0.00000000000E+00 -0.26824738834E+03  0.26824738835E+03  0.25500000000E-02 0.  1.
    8880023    1    1    2    0    0 -0.25430747872E+03  0.40642073837E+03  0.15499898373E+04  0.17510364966E+04  0.65864270000E+03 0.  0.
    8880022    1    1    2    0    0  0.25430747872E+03 -0.40642073837E+03  0.20974379722E+03  0.54519191465E+03  0.15294330000E+03 0.  0.
<mgrwt>
<rscale>  0 0.72222349E+03</rscale>
<asrwt>0</asrwt>
<pdfrwt beam="1">  1        2 0.31199707E+00 0.81465349E+03</pdfrwt>
<pdfrwt beam="2">  1       -2 0.41268830E-01 0.81465349E+03</pdfrwt>
<totfact> 0.36712664E+01</totfact>
</mgrwt>
</event>
<event>
 4    1  0.3565372E-007  0.8660707E+03  0.7818608E-02  0.9582855E-01
          2   -1    0    0  501    0  0.00000000000E+00  0.00000000000E+00  0.10512815290E+04  0.10512815291E+04  0.25500000000E-02 0. -1.
         -2   -1    0    0    0  501 -0.00000000000E+00 -0.00000000000E+00 -0.22469494026E+04  0.22469494026E+04  0.25500000000E-02 0.  1.
    8880023    1    1    2    0    0 -0.49960626441E+03  0.25818957905E+03  0.82443965371E+03  0.11957337609E+04  0.65864270000E+03 0.  0.
    8880022    1    1    2    0    0  0.49960626441E+03 -0.25818957905E+03 -0.20201075273E+04  0.21024971707E+04  0.15294330000E+03 0.  0.
<mgrwt>
<rscale>  0 0.78441440E+03</rscale>
<asrwt>0</asrwt>
<pdfrwt beam="1">  1        2 0.16173562E+00 0.86607072E+03</pdfrwt>
<pdfrwt beam="2">  1       -2 0.34568452E+00 0.86607072E+03</pdfrwt>
<totfact> 0.40023849E-01</totfact>
</mgrwt>
</event>
<event>
 4    1  0.3565372E-007  0.9821830E+03  0.7818608E-02  0.9405248E-01
          2   -1    0    0  501    0  0.00000000000E+00  0.00000000000E+00  0.33210093186E+04  0.33210093186E+04  0.25500000000E-02 0. -1.
         -2   -1    0    0    0  501 -0.00000000000E+00 -0.00000000000E+00 -0.33858802434E+03  0.33858802435E+03  0.25500000000E-02 0.  1.
    8880023    1    1    2    0    0  0.42766411284E+02 -0.72735431337E+03  0.26830454133E+04  0.28571692564E+04  0.65864270000E+03 0.  0.
    8880022    1    1    2    0    0 -0.42766411284E+02  0.72735431337E+03  0.29937588094E+03  0.80242808663E+03  0.15294330000E+03 0.  0.
<mgrwt>
<rscale>  0 0.91645045E+03</rscale>
<asrwt>0</asrwt>
<pdfrwt beam="1">  1        2 0.51092451E+00 0.98218301E+03</pdfrwt>
<pdfrwt beam="2">  1       -2 0.52090465E-01 0.98218301E+03</pdfrwt>
<totfact> 0.38815722E+00</totfact>
</mgrwt>
</event>
<event>
 4    1  0.3565372E-007  0.6798314E+03  0.7818608E-02  0.1009419E+00
          2   -1    0    0  501    0  0.00000000000E+00  0.00000000000E+00  0.58506369207E+03  0.58506369208E+03  0.25500000000E-02 0. -1.
         -2   -1    0    0    0  501 -0.00000000000E+00 -0.00000000000E+00 -0.41526452900E+03  0.41526452901E+03  0.25500000000E-02 0.  1.
    8880023    1    1    2    0    0 -0.55929056405E+02 -0.15884746324E+03  0.29452545994E+03  0.74088867500E+03  0.65864270000E+03 0.  0.
    8880022    1    1    2    0    0  0.55929056405E+02  0.15884746324E+03 -0.12472629687E+03  0.25943954608E+03  0.15294330000E+03 0.  0.
<mgrwt>
<rscale>  0 0.51706134E+03</rscale>
<asrwt>0</asrwt>
<pdfrwt beam="1">  1        2 0.90009799E-01 0.67983144E+03</pdfrwt>
<pdfrwt beam="2">  1       -2 0.63886851E-01 0.67983144E+03</pdfrwt>
<totfact> 0.11759151E+02</totfact>
</mgrwt>
</event>
<event>
 4    1  0.3565372E-007  0.7517318E+03  0.7818608E-02  0.9827003E-01
         -2   -1    0    0    0  501 -0.00000000000E+00  0.00000000000E+00  0.35958075032E+03  0.35958075033E+03  0.25500000000E-02 0.  1.
          2   -1    0    0  501    0  0.00000000000E+00 -0.00000000000E+00 -0.98796084289E+03  0.98796084290E+03  0.25500000000E-02 0. -1.
    8880023    1    1    2    0    0  0.82401466709E+02  0.35284636059E+03 -0.58365317385E+03  0.95170992929E+03  0.65864270000E+03 0.  0.
    8880022    1    1    2    0    0 -0.82401466709E+02 -0.35284636059E+03 -0.44726918724E+02  0.39583166393E+03  0.15294330000E+03 0.  0.
<mgrwt>
<rscale>  0 0.63933320E+03</rscale>
<asrwt>0</asrwt>
<pdfrwt beam="1">  1        2 0.15199397E+00 0.75173184E+03</pdfrwt>
<pdfrwt beam="2">  1       -2 0.55320116E-01 0.75173184E+03</pdfrwt>
<totfact> 0.79876497E+01</totfact>
</mgrwt>
</event>
<event>
 4    1  0.3565372E-007  0.7070940E+03  0.7818608E-02  0.9968954E-01
          2   -1    0    0  501    0  0.00000000000E+00  0.00000000000E+00  0.12810801917E+04  0.12810801917E+04  0.25500000000E-02 0. -1.
         -2   -1    0    0    0  501 -0.00000000000E+00 -0.00000000000E+00 -0.56605671552E+03  0.56605671553E+03  0.25500000000E-02 0.  1.
    8880023    1    1    2    0    0 -0.23080456045E+03 -0.11358266134E+03  0.11315101011E+04  0.13342777377E+04  0.65864270000E+03 0. -1.
    8880022    1    1    2    0    0  0.23080456045E+03  0.11358266134E+03 -0.41648662490E+03  0.51285916958E+03  0.15294330000E+03 0.  0.
<mgrwt>
<rscale>  0 0.57032737E+03</rscale>
<asrwt>0</asrwt>
<pdfrwt beam="1">  1        2 0.19708926E+00 0.70709403E+03</pdfrwt>
<pdfrwt beam="2">  1       -2 0.87085650E-01 0.70709403E+03</pdfrwt>
<totfact> 0.19825084E+01</totfact>
</mgrwt>
</event>
<event>
 4    1  0.3565372E-007  0.7587821E+03  0.7818608E-02  0.9808271E-01
          2   -1    0    0  501    0  0.00000000000E+00  0.00000000000E+00  0.11874087620E+04  0.11874087620E+04  0.25500000000E-02 0. -1.
         -2   -1    0    0    0  501 -0.00000000000E+00 -0.00000000000E+00 -0.45068949896E+03  0.45068949897E+03  0.25500000000E-02 0.  1.
    8880023    1    1    2    0    0  0.32648236538E+03  0.18801427797E+03 -0.41649355528E+02  0.75992432433E+03  0.65864270000E+03 0.  1.
    8880022    1    1    2    0    0 -0.32648236538E+03 -0.18801427797E+03  0.77836861856E+03  0.87817393664E+03  0.15294330000E+03 0.  0.
<mgrwt>
<rscale>  0 0.64920574E+03</rscale>
<asrwt>0</asrwt>
<pdfrwt beam="1">  1        2 0.18267827E+00 0.75878212E+03</pdfrwt>
<pdfrwt beam="2">  1       -2 0.69336847E-01 0.75878212E+03</pdfrwt>
<totfact> 0.37212362E+01</totfact>
</mgrwt>
</event>
<event>
 4    1  0.3565372E-007  0.8574786E+03  0.7818608E-02  0.9598064E-01
          2   -1    0    0  501    0  0.00000000000E+00  0.00000000000E+00  0.36279272869E+04  0.36279272869E+04  0.25500000000E-02 0. -1.
         -2   -1    0    0    0  501 -0.00000000000E+00 -0.00000000000E+00 -0.21715093644E+03  0.21715093645E+03  0.25500000000E-02 0.  1.
    8880023    1    1    2    0    0 -0.33353720820E+03  0.43613339953E+03  0.30553155729E+04  0.31733614461E+04  0.65864270000E+03 0.  0.
    8880022    1    1    2    0    0  0.33353720820E+03 -0.43613339953E+03  0.35546077760E+03  0.67171677727E+03  0.15294330000E+03 0.  0.
<mgrwt>
<rscale>  0 0.77424430E+03</rscale>
<asrwt>0</asrwt>
<pdfrwt beam="1">  1        2 0.55814268E+00 0.85747864E+03</pdfrwt>
<pdfrwt beam="2">  1       -2 0.33407835E-01 0.85747864E+03</pdfrwt>
<totfact> 0.58784168E+00</totfact>
</mgrwt>
</event>
<event>
 4    1  0.3565372E-007  0.7658329E+03  0.7818608E-02  0.9790234E-01
          2   -1    0    0  501    0  0.00000000000E+00  0.00000000000E+00  0.26061423490E+04  0.26061423490E+04  0.25500000000E-02 0. -1.
         -2   -1    0    0    0  501 -0.00000000000E+00 -0.00000000000E+00 -0.17793780826E+03  0.17793780828E+03  0.25500000000E-02 0.  1.
    8880023    1    1    2    0    0 -0.80366567307E+02 -0.38240166828E+03  0.21455721901E+04  0.22781527715E+04  0.65864270000E+03 0.  0.
    8880022    1    1    2    0    0  0.80366567307E+02  0.38240166828E+03  0.28263235062E+03  0.50592738577E+03  0.15294330000E+03 0.  0.
<mgrwt>
<rscale>  0 0.65889274E+03</rscale>
<asrwt>0</asrwt>
<pdfrwt beam="1">  1        2 0.40094497E+00 0.76583290E+03</pdfrwt>
<pdfrwt beam="2">  1       -2 0.27375048E-01 0.76583290E+03</pdfrwt>
<totfact> 0.38215573E+01</totfact>
</mgrwt>
</event>
<event>
 4    1  0.3565372E-007  0.7254062E+03  0.7818608E-02  0.9904700E-01
          2   -1    0    0  501    0  0.00000000000E+00  0.00000000000E+00  0.18734487436E+04  0.18734487436E+04  0.25500000000E-02 0. -1.
         -2   -1    0    0    0  501 -0.00000000000E+00 -0.00000000000E+00 -0.33647857479E+03  0.33647857480E+03  0.25500000000E-02 0.  1.
    8880023    1    1    2    0    0  0.14599743671E+03  0.26662472222E+03  0.16882719686E+04  0.18375190993E+04  0.65864270000E+03 0. -1.
    8880022    1    1    2    0    0 -0.14599743671E+03 -0.26662472222E+03 -0.15130179979E+03  0.37240821911E+03  0.15294330000E+03 0.  0.
<mgrwt>
<rscale>  0 0.60034029E+03</rscale>
<asrwt>0</asrwt>
<pdfrwt beam="1">  1        2 0.28822288E+00 0.72540623E+03</pdfrwt>
<pdfrwt beam="2">  1       -2 0.51765935E-01 0.72540623E+03</pdfrwt>
<totfact> 0.28612906E+01</totfact>
</mgrwt>
</event>
<event>
 4    1  0.3565372E-007  0.8345723E+03  0.7818608E-02  0.9640501E-01
         -2   -1    0    0    0  501 -0.00000000000E+00  0.00000000000E+00  0.16545865225E+04  0.16545865225E+04  0.25500000000E-02 0.  1.
          2   -1    0    0  501    0  0.00000000000E+00 -0.00000000000E+00 -0.58242648189E+03  0.58242648190E+03  0.25500000000E-02 0. -1.
    8880023    1    1    2    0    0  0.16621670518E+02 -0.51227375925E+03 -0.19894356669E+03  0.85795654513E+03  0.65864270000E+03 0. -1.
    8880022    1    1    2    0    0 -0.16621670518E+02  0.51227375925E+03  0.12711036073E+04  0.13790564593E+04  0.15294330000E+03 0.  0.
<mgrwt>
<rscale>  0 0.74672595E+03</rscale>
<asrwt>0</asrwt>
<pdfrwt beam="1">  1        2 0.89604075E-01 0.83457228E+03</pdfrwt>
<pdfrwt beam="2">  1       -2 0.25455177E+00 0.83457228E+03</pdfrwt>
<totfact> 0.31568261E+00</totfact>
</mgrwt>
</event>
<event>
 4    1  0.3565372E-007  0.6656545E+03  0.7818608E-02  0.1018990E+00
          2   -1    0    0  501    0  0.00000000000E+00  0.00000000000E+00  0.14453811981E+04  0.14453811981E+04  0.25500000000E-02 0. -1.
         -2   -1    0    0    0  501 -0.00000000000E+00 -0.00000000000E+00 -0.15770453924E+03  0.15770453926E+03  0.25500000000E-02 0.  1.
    8880023    1    1    2    0    0  0.73202123794E+02  0.62667309861E+02  0.12532611320E+04  0.14190699115E+04  0.65864270000E+03 0. -1.
    8880022    1    1    2    0    0 -0.73202123794E+02 -0.62667309861E+02  0.34415526898E+02  0.18401582584E+03  0.15294330000E+03 0.  0.
<mgrwt>
<rscale>  0 0.48052678E+03</rscale>
<asrwt>0</asrwt>
<pdfrwt beam="1">  1        2 0.22236633E+00 0.66565453E+03</pdfrwt>
<pdfrwt beam="2">  1       -2 0.24262238E-01 0.66565453E+03</pdfrwt>
<totfact> 0.21049233E+02</totfact>
</mgrwt>
</event>
<event>
 4    1  0.3565372E-007  0.9723533E+03  0.7818608E-02  0.9418657E-01
         -2   -1    0    0    0  501 -0.00000000000E+00  0.00000000000E+00  0.37781094568E+03  0.37781094569E+03  0.25500000000E-02 0.  1.
          2   -1    0    0  501    0  0.00000000000E+00 -0.00000000000E+00 -0.19507549368E+04  0.19507549368E+04  0.25500000000E-02 0. -1.
    8880023    1    1    2    0    0 -0.37482212638E+03 -0.60923644783E+03 -0.10384529767E+04  0.14226227423E+04  0.65864270000E+03 0.  0.
    8880022    1    1    2    0    0  0.37482212638E+03  0.60923644783E+03 -0.53449101447E+03  0.90594314024E+03  0.15294330000E+03 0.  0.
<mgrwt>
<rscale>  0 0.90556075E+03</rscale>
<asrwt>0</asrwt>
<pdfrwt beam="1">  1        2 0.30011614E+00 0.97235327E+03</pdfrwt>
<pdfrwt beam="2">  1       -2 0.58124762E-01 0.97235327E+03</pdfrwt>
<totfact> 0.19825191E+01</totfact>
</mgrwt>
</event>
<event>
 4    1  0.3565372E-007  0.7870506E+03  0.7818608E-02  0.9739528E-01
          2   -1    0    0  501    0  0.00000000000E+00  0.00000000000E+00  0.20921896805E+04  0.20921896805E+04  0.25500000000E-02 0. -1.
         -2   -1    0    0    0  501 -0.00000000000E+00 -0.00000000000E+00 -0.27062034661E+03  0.27062034662E+03  0.25500000000E-02 0.  1.
    8880023    1    1    2    0    0 -0.40150332010E+03 -0.15631204093E+03  0.17242263688E+04  0.18953641200E+04  0.65864270000E+03 0. -1.
    8880022    1    1    2    0    0  0.40150332010E+03  0.15631204093E+03  0.97342965035E+02  0.46744590708E+03  0.15294330000E+03 0.  0.
<mgrwt>
<rscale>  0 0.68711283E+03</rscale>
<asrwt>0</asrwt>
<pdfrwt beam="1">  1        2 0.32187534E+00 0.78705056E+03</pdfrwt>
<pdfrwt beam="2">  1       -2 0.41633899E-01 0.78705056E+03</pdfrwt>
<totfact> 0.33384670E+01</totfact>
</mgrwt>
</event>
<event>
 4    1  0.3565372E-007  0.9743447E+03  0.7818608E-02  0.9415920E-01
          2   -1    0    0  501    0  0.00000000000E+00  0.00000000000E+00  0.14294618039E+04  0.14294618039E+04  0.25500000000E-02 0. -1.
         -2   -1    0    0    0  501 -0.00000000000E+00 -0.00000000000E+00 -0.10703360160E+04  0.10703360160E+04  0.25500000000E-02 0.  1.
    8880023    1    1    2    0    0 -0.10888585813E+03  0.70970504092E+03  0.10913007870E+04  0.14629712879E+04  0.65864270000E+03 0. -1.
    8880022    1    1    2    0    0  0.10888585813E+03 -0.70970504092E+03 -0.73217499913E+03  0.10368265321E+04  0.15294330000E+03 0.  0.
<mgrwt>
<rscale>  0 0.90777019E+03</rscale>
<asrwt>0</asrwt>
<pdfrwt beam="1">  1        2 0.21991720E+00 0.97434469E+03</pdfrwt>
<pdfrwt beam="2">  1       -2 0.16466708E+00 0.97434469E+03</pdfrwt>
<totfact> 0.32251173E+00</totfact>
</mgrwt>
</event>
<event>
 4    1  0.3565372E-007  0.9325679E+03  0.7818608E-02  0.9475652E-01
          2   -1    0    0  501    0  0.00000000000E+00  0.00000000000E+00  0.17195816434E+04  0.17195816434E+04  0.25500000000E-02 0. -1.
         -2   -1    0    0    0  501 -0.00000000000E+00 -0.00000000000E+00 -0.67622261083E+03  0.67622261084E+03  0.25500000000E-02 0.  1.
    8880023    1    1    2    0    0  0.26737228990E+03  0.60364287115E+03  0.13590098209E+04  0.16482082868E+04  0.65864270000E+03 0.  0.
    8880022    1    1    2    0    0 -0.26737228990E+03 -0.60364287115E+03 -0.31565078831E+03  0.74759596740E+03  0.15294330000E+03 0.  0.
<mgrwt>
<rscale>  0 0.86102979E+03</rscale>
<asrwt>0</asrwt>
<pdfrwt beam="1">  1        2 0.26455102E+00 0.93256789E+03</pdfrwt>
<pdfrwt beam="2">  1       -2 0.10403425E+00 0.93256789E+03</pdfrwt>
<totfact> 0.72217395E+00</totfact>
</mgrwt>
</event>
<event>
 4    1  0.3565372E-007  0.7739728E+03  0.7818608E-02  0.9770190E-01
         -2   -1    0    0    0  501 -0.00000000000E+00  0.00000000000E+00  0.51828438490E+03  0.51828438491E+03  0.25500000000E-02 0.  1.
          2   -1    0    0  501    0  0.00000000000E+00 -0.00000000000E+00 -0.26855540187E+04  0.26855540187E+04  0.25500000000E-02 0. -1.
    8880023    1    1    2    0    0 -0.31392655412E+03 -0.25821265425E+03 -0.25251384566E+04  0.26410903217E+04  0.65864270000E+03 0.  0.
    8880022    1    1    2    0    0  0.31392655412E+03  0.25821265425E+03  0.35786882288E+03  0.56274808182E+03  0.15294330000E+03 0.  0.
<mgrwt>
<rscale>  0 0.66987132E+03</rscale>
<asrwt>0</asrwt>
<pdfrwt beam="1">  1        2 0.41316215E+00 0.77397278E+03</pdfrwt>
<pdfrwt beam="2">  1       -2 0.79736061E-01 0.77397278E+03</pdfrwt>
<totfact> 0.39654151E+00</totfact>
</mgrwt>
</event>
<event>
 4    1  0.3565372E-007  0.8044901E+03  0.7818608E-02  0.9701170E-01
         -2   -1    0    0    0  501 -0.00000000000E+00  0.00000000000E+00  0.82714075476E+03  0.82714075477E+03  0.25500000000E-02 0.  1.
          2   -1    0    0  501    0  0.00000000000E+00 -0.00000000000E+00 -0.83822235355E+03  0.83822235355E+03  0.25500000000E-02 0. -1.
    8880023    1    1    2    0    0 -0.82826669026E+02  0.45445991051E+03  0.50990368651E+03  0.95247364433E+03  0.65864270000E+03 0.  1.
    8880022    1    1    2    0    0  0.82826669026E+02 -0.45445991051E+03 -0.52098528529E+03  0.71288946399E+03  0.15294330000E+03 0.  0.
<mgrwt>
<rscale>  0 0.70947150E+03</rscale>
<asrwt>0</asrwt>
<pdfrwt beam="1">  1        2 0.12895729E+00 0.80449007E+03</pdfrwt>
<pdfrwt beam="2">  1       -2 0.12725242E+00 0.80449007E+03</pdfrwt>
<totfact> 0.14973270E+01</totfact>
</mgrwt>
</event>
<event>
 4    1  0.3565372E-007  0.6778590E+03  0.7818608E-02  0.1010562E+00
          2   -1    0    0  501    0  0.00000000000E+00  0.00000000000E+00  0.19584240027E+04  0.19584240027E+04  0.25500000000E-02 0. -1.
         -2   -1    0    0    0  501 -0.00000000000E+00 -0.00000000000E+00 -0.15295379378E+03  0.15295379380E+03  0.25500000000E-02 0.  1.
    8880023    1    1    2    0    0 -0.18807055812E+02 -0.15915057521E+03  0.17589128000E+04  0.18850111552E+04  0.65864270000E+03 0. -1.
    8880022    1    1    2    0    0  0.18807055812E+02  0.15915057521E+03  0.46557408864E+02  0.22636664125E+03  0.15294330000E+03 0.  0.
<mgrwt>
<rscale>  0 0.51252051E+03</rscale>
<asrwt>0</asrwt>
<pdfrwt beam="1">  1        2 0.30129599E+00 0.67785900E+03</pdfrwt>
<pdfrwt beam="2">  1       -2 0.23531354E-01 0.67785900E+03</pdfrwt>
<totfact> 0.11634466E+02</totfact>
</mgrwt>
</event>
<event>
 4    1  0.3565372E-007  0.1244178E+04  0.7818608E-02  0.9115331E-01
          2   -1    0    0  501    0  0.00000000000E+00  0.00000000000E+00  0.17765104191E+04  0.17765104191E+04  0.25500000000E-02 0. -1.
         -2   -1    0    0    0  501 -0.00000000000E+00 -0.00000000000E+00 -0.85355554210E+03  0.85355554211E+03  0.25500000000E-02 0.  1.
    8880023    1    1    2    0    0 -0.12535818071E+03 -0.10480710981E+04  0.94644131286E+03  0.15632431241E+04  0.65864270000E+03 0.  1.
    8880022    1    1    2    0    0  0.12535818071E+03  0.10480710981E+04 -0.23486435890E+02  0.10668228371E+04  0.15294330000E+03 0.  0.
<mgrwt>
<rscale>  0 0.11971775E+04</rscale>
<asrwt>0</asrwt>
<pdfrwt beam="1">  1        2 0.27330929E+00 0.12441776E+04</pdfrwt>
<pdfrwt beam="2">  1       -2 0.13131624E+00 0.12441776E+04</pdfrwt>
<totfact> 0.36506112E+00</totfact>
</mgrwt>
</event>
<event>
 4    1  0.3565372E-007  0.6668776E+03  0.7818608E-02  0.1018008E+00
          2   -1    0    0  501    0  0.00000000000E+00  0.00000000000E+00  0.52517218865E+03  0.52517218865E+03  0.25500000000E-02 0. -1.
         -2   -1    0    0    0  501 -0.00000000000E+00 -0.00000000000E+00 -0.43582845220E+03  0.43582845221E+03  0.25500000000E-02 0.  1.
    8880023    1    1    2    0    0 -0.20090779610E+02 -0.10252717305E+03  0.25356920732E+03  0.71345848499E+03  0.65864270000E+03 0. -1.
    8880022    1    1    2    0    0  0.20090779610E+02  0.10252717305E+03 -0.16422547087E+03  0.24754215588E+03  0.15294330000E+03 0.  0.
<mgrwt>
<rscale>  0 0.48412510E+03</rscale>
<asrwt>0</asrwt>
<pdfrwt beam="1">  1        2 0.80795721E-01 0.66687755E+03</pdfrwt>
<pdfrwt beam="2">  1       -2 0.67050531E-01 0.66687755E+03</pdfrwt>
<totfact> 0.12051259E+02</totfact>
</mgrwt>
</event>
<event>
 4    1  0.3565372E-007  0.8216149E+03  0.7818608E-02  0.9665873E-01
         -2   -1    0    0    0  501 -0.00000000000E+00  0.00000000000E+00  0.27128796687E+03  0.27128796688E+03  0.25500000000E-02 0.  1.
          2   -1    0    0  501    0  0.00000000000E+00 -0.00000000000E+00 -0.28825629342E+04  0.28825629342E+04  0.25500000000E-02 0. -1.
    8880023    1    1    2    0    0  0.47009506360E+03  0.14230790236E+03 -0.24945194550E+04  0.26263431660E+04  0.65864270000E+03 0.  0.
    8880022    1    1    2    0    0 -0.47009506360E+03 -0.14230790236E+03 -0.11675551232E+03  0.52750773508E+03  0.15294330000E+03 0.  0.
<mgrwt>
<rscale>  0 0.73085573E+03</rscale>
<asrwt>0</asrwt>
<pdfrwt beam="1">  1        2 0.44347120E+00 0.82161494E+03</pdfrwt>
<pdfrwt beam="2">  1       -2 0.41736612E-01 0.82161494E+03</pdfrwt>
<totfact> 0.11721529E+01</totfact>
</mgrwt>
</event>
<event>
 4    1  0.3565372E-007  0.6680683E+03  0.7818608E-02  0.1017087E+00
         -2   -1    0    0    0  501 -0.00000000000E+00  0.00000000000E+00  0.42125176481E+03  0.42125176482E+03  0.25500000000E-02 0.  1.
          2   -1    0    0  501    0  0.00000000000E+00 -0.00000000000E+00 -0.80475519182E+03  0.80475519183E+03  0.25500000000E-02 0. -1.
    8880023    1    1    2    0    0 -0.29341228047E+02 -0.10790813160E+03 -0.62786183157E+03  0.91680191881E+03  0.65864270000E+03 0. -1.
    8880022    1    1    2    0    0  0.29341228047E+02  0.10790813160E+03  0.24435840456E+03  0.30920503784E+03  0.15294330000E+03 0.  0.
<mgrwt>
<rscale>  0 0.48752570E+03</rscale>
<asrwt>0</asrwt>
<pdfrwt beam="1">  1        2 0.12380849E+00 0.66806832E+03</pdfrwt>
<pdfrwt beam="2">  1       -2 0.64807964E-01 0.66806832E+03</pdfrwt>
<totfact> 0.76534557E+01</totfact>
</mgrwt>
</event>
<event>
 4    1  0.3565372E-007  0.7319713E+03  0.7818608E-02  0.9883983E-01
         -2   -1    0    0    0  501 -0.00000000000E+00  0.00000000000E+00  0.37910517251E+03  0.37910517252E+03  0.25500000000E-02 0.  1.
          2   -1    0    0  501    0  0.00000000000E+00 -0.00000000000E+00 -0.26426377766E+04  0.26426377766E+04  0.25500000000E-02 0. -1.
    8880023    1    1    2    0    0  0.29644016344E+03  0.11872236064E+03 -0.24940531401E+04  0.25992466296E+04  0.65864270000E+03 0. -1.
    8880022    1    1    2    0    0 -0.29644016344E+03 -0.11872236064E+03  0.23052053607E+03  0.42249631949E+03  0.15294330000E+03 0.  0.
<mgrwt>
<rscale>  0 0.61043847E+03</rscale>
<asrwt>0</asrwt>
<pdfrwt beam="1">  1        2 0.40655965E+00 0.73197129E+03</pdfrwt>
<pdfrwt beam="2">  1       -2 0.58323874E-01 0.73197129E+03</pdfrwt>
<totfact> 0.83433026E+00</totfact>
</mgrwt>
</event>
<event>
 4    1  0.3565372E-007  0.1481067E+04  0.7818608E-02  0.8923122E-01
          2   -1    0    0  501    0  0.00000000000E+00  0.00000000000E+00  0.10250307994E+04  0.10250307994E+04  0.25500000000E-02 0. -1.
         -2   -1    0    0    0  501 -0.00000000000E+00 -0.00000000000E+00 -0.20139276692E+04  0.20139276692E+04  0.25500000000E-02 0.  1.
    8880023    1    1    2    0    0  0.22688805316E+03 -0.13070086765E+04 -0.21787640517E+03  0.14970070819E+04  0.65864270000E+03 0.  0.
    8880022    1    1    2    0    0 -0.22688805316E+03  0.13070086765E+04 -0.77102046460E+03  0.15419513867E+04  0.15294330000E+03 0.  0.
<mgrwt>
<rscale>  0 0.14432092E+04</rscale>
<asrwt>0</asrwt>
<pdfrwt beam="1">  1        2 0.15769705E+00 0.14810672E+04</pdfrwt>
<pdfrwt beam="2">  1       -2 0.30983503E+00 0.14810672E+04</pdfrwt>
<totfact> 0.63754361E-01</totfact>
</mgrwt>
</event>
<event>
 4    1  0.3565372E-007  0.7331269E+03  0.7818608E-02  0.9880440E-01
          2   -1    0    0  501    0  0.00000000000E+00  0.00000000000E+00  0.28811462409E+03  0.28811462410E+03  0.25500000000E-02 0. -1.
         -2   -1    0    0    0  501 -0.00000000000E+00 -0.00000000000E+00 -0.11500128279E+04  0.11500128279E+04  0.25500000000E-02 0.  1.
    8880023    1    1    2    0    0 -0.29451349617E+03 -0.13010268251E+03 -0.34501279129E+03  0.81025239268E+03  0.65864270000E+03 0. -1.
    8880022    1    1    2    0    0  0.29451349617E+03  0.13010268251E+03 -0.51688541249E+03  0.62787505930E+03  0.15294330000E+03 0.  0.
<mgrwt>
<rscale>  0 0.61218689E+03</rscale>
<asrwt>0</asrwt>
<pdfrwt beam="1">  1        2 0.44325327E-01 0.73312694E+03</pdfrwt>
<pdfrwt beam="2">  1       -2 0.17692505E+00 0.73312694E+03</pdfrwt>
<totfact> 0.22216345E+01</totfact>
</mgrwt>
</event>
<event>
 4    1  0.3565372E-007  0.8252442E+03  0.7818608E-02  0.9658658E-01
          2   -1    0    0  501    0  0.00000000000E+00  0.00000000000E+00  0.11472055393E+04  0.11472055393E+04  0.25500000000E-02 0. -1.
         -2   -1    0    0    0  501 -0.00000000000E+00 -0.00000000000E+00 -0.41786883631E+03  0.41786883632E+03  0.25500000000E-02 0.  1.
    8880023    1    1    2    0    0  0.37656383417E+03 -0.32468049248E+03  0.62328677436E+03  0.10341732702E+04  0.65864270000E+03 0.  0.
    8880022    1    1    2    0    0 -0.37656383417E+03  0.32468049248E+03  0.10604992866E+03  0.53090110546E+03  0.15294330000E+03 0.  0.
<mgrwt>
<rscale>  0 0.73532564E+03</rscale>
<asrwt>0</asrwt>
<pdfrwt beam="1">  1        2 0.17649316E+00 0.82524418E+03</pdfrwt>
<pdfrwt beam="2">  1       -2 0.64287513E-01 0.82524418E+03</pdfrwt>
<totfact> 0.46039512E+01</totfact>
</mgrwt>
</event>
<event>
 4    1  0.3565372E-007  0.7751071E+03  0.7818608E-02  0.9767459E-01
         -2   -1    0    0    0  501 -0.00000000000E+00  0.00000000000E+00  0.68451321048E+03  0.68451321048E+03  0.25500000000E-02 0.  1.
          2   -1    0    0  501    0  0.00000000000E+00 -0.00000000000E+00 -0.18104858777E+04  0.18104858777E+04  0.25500000000E-02 0. -1.
    8880023    1    1    2    0    0  0.35956479221E+03  0.19414943991E+03 -0.16440875043E+04  0.18176398909E+04  0.65864270000E+03 0. -1.
    8880022    1    1    2    0    0 -0.35956479221E+03 -0.19414943991E+03  0.51811483706E+03  0.67735919733E+03  0.15294330000E+03 0.  0.
<mgrwt>
<rscale>  0 0.67138529E+03</rscale>
<asrwt>0</asrwt>
<pdfrwt beam="1">  1        2 0.27853629E+00 0.77510712E+03</pdfrwt>
<pdfrwt beam="2">  1       -2 0.10530973E+00 0.77510712E+03</pdfrwt>
<totfact> 0.63852825E+00</totfact>
</mgrwt>
</event>
<event>
 4    1  0.3565372E-007  0.7226929E+03  0.7818608E-02  0.9913577E-01
         -2   -1    0    0    0  501 -0.00000000000E+00  0.00000000000E+00  0.65825748055E+03  0.65825748055E+03  0.25500000000E-02 0.  1.
          2   -1    0    0  501    0  0.00000000000E+00 -0.00000000000E+00 -0.14688371096E+04  0.14688371096E+04  0.25500000000E-02 0. -1.
    8880023    1    1    2    0    0 -0.18415095044E+03  0.23358768666E+03 -0.13274624934E+04  0.15114369512E+04  0.65864270000E+03 0. -1.
    8880022    1    1    2    0    0  0.18415095044E+03 -0.23358768666E+03  0.51688286434E+03  0.61565763893E+03  0.15294330000E+03 0.  0.
<mgrwt>
<rscale>  0 0.59607760E+03</rscale>
<asrwt>0</asrwt>
<pdfrwt beam="1">  1        2 0.22597494E+00 0.72269287E+03</pdfrwt>
<pdfrwt beam="2">  1       -2 0.10127038E+00 0.72269287E+03</pdfrwt>
<totfact> 0.10891483E+01</totfact>
</mgrwt>
</event>
<event>
 4    1  0.3565372E-007  0.9089497E+03  0.7818608E-02  0.9511814E-01
          2   -1    0    0  501    0  0.00000000000E+00  0.00000000000E+00  0.30990145049E+04  0.30990145049E+04  0.25500000000E-02 0. -1.
         -2   -1    0    0    0  501 -0.00000000000E+00 -0.00000000000E+00 -0.43275922388E+03  0.43275922388E+03  0.25500000000E-02 0.  1.
    8880023    1    1    2    0    0 -0.61835674023E+03  0.10007156808E+03  0.27361661482E+04  0.28831917684E+04  0.65864270000E+03 0. -1.
    8880022    1    1    2    0    0  0.61835674023E+03 -0.10007156808E+03 -0.69910867151E+02  0.64858196034E+03  0.15294330000E+03 0.  0.
<mgrwt>
<rscale>  0 0.83418365E+03</rscale>
<asrwt>0</asrwt>
<pdfrwt beam="1">  1        2 0.47677143E+00 0.90894971E+03</pdfrwt>
<pdfrwt beam="2">  1       -2 0.66578346E-01 0.90894971E+03</pdfrwt>
<totfact> 0.32480076E+00</totfact>
</mgrwt>
</event>
<event>
 4    1  0.7245856E-007  0.1066208E+04  0.7818608E-02  0.9299647E-01
         -2   -1    0    0    0  501 -0.00000000000E+00  0.00000000000E+00  0.16388165774E+04  0.16388165774E+04  0.25500000000E-02 0.  1.
          2   -1    0    0  501    0  0.00000000000E+00 -0.00000000000E+00 -0.19752713808E+04  0.19752713808E+04  0.25500000000E-02 0. -1.
    8880023    1    1    2    0    0  0.48741559536E+03  0.68221293497E+03 -0.16996509372E+04  0.20063927746E+04  0.65864270000E+03 0.  0.
    8880022    1    1    2    0    0 -0.48741559536E+03 -0.68221293497E+03  0.13631961338E+04  0.16076951836E+04  0.15294330000E+03 0.  0.
<mgrwt>
<rscale>  0 0.10081539E+04</rscale>
<asrwt>0</asrwt>
<pdfrwt beam="1">  1        2 0.30388790E+00 0.10662076E+04</pdfrwt>
<pdfrwt beam="2">  1       -2 0.25212563E+00 0.10662076E+04</pdfrwt>
<totfact> 0.42675578E-01</totfact>
</mgrwt>
</event>
<event>
 4    1  0.3565372E-007  0.7144273E+03  0.7818608E-02  0.9941914E-01
         -2   -1    0    0    0  501 -0.00000000000E+00  0.00000000000E+00  0.19275468116E+04  0.19275468116E+04  0.25500000000E-02 0.  1.
          2   -1    0    0  501    0  0.00000000000E+00 -0.00000000000E+00 -0.10371272812E+04  0.10371272812E+04  0.25500000000E-02 0. -1.
    8880023    1    1    2    0    0 -0.19146959177E+02 -0.27609692795E+03 -0.89856122314E+03  0.11479628033E+04  0.65864270000E+03 0. -1.
    8880022    1    1    2    0    0  0.19146959177E+02  0.27609692795E+03  0.17889807536E+04  0.18167112895E+04  0.15294330000E+03 0.  0.
<mgrwt>
<rscale>  0 0.58272262E+03</rscale>
<asrwt>0</asrwt>
<pdfrwt beam="1">  1        2 0.15955804E+00 0.71442727E+03</pdfrwt>
<pdfrwt beam="2">  1       -2 0.29654566E+00 0.71442727E+03</pdfrwt>
<totfact> 0.83841227E-01</totfact>
</mgrwt>
</event>
<event>
 4    1  0.3565372E-007  0.6802668E+03  0.7818608E-02  0.1009173E+00
          2   -1    0    0  501    0  0.00000000000E+00  0.00000000000E+00  0.12047098509E+04  0.12047098509E+04  0.25500000000E-02 0. -1.
         -2   -1    0    0    0  501 -0.00000000000E+00 -0.00000000000E+00 -0.45476983688E+03  0.45476983689E+03  0.25500000000E-02 0.  1.
    8880023    1    1    2    0    0 -0.16723199330E+03 -0.31402907541E+02  0.10688645893E+04  0.12669784523E+04  0.65864270000E+03 0.  0.
    8880022    1    1    2    0    0  0.16723199330E+03  0.31402907541E+02 -0.31892457521E+03  0.39250123551E+03  0.15294330000E+03 0.  0.
<mgrwt>
<rscale>  0 0.51804580E+03</rscale>
<asrwt>0</asrwt>
<pdfrwt beam="1">  1        2 0.18533997E+00 0.68026678E+03</pdfrwt>
<pdfrwt beam="2">  1       -2 0.69964592E-01 0.68026678E+03</pdfrwt>
<totfact> 0.35932412E+01</totfact>
</mgrwt>
</event>
<event>
 4    1  0.3565372E-007  0.9285066E+03  0.7818608E-02  0.9481737E-01
          2   -1    0    0  501    0  0.00000000000E+00  0.00000000000E+00  0.10977798445E+04  0.10977798445E+04  0.25500000000E-02 0. -1.
         -2   -1    0    0    0  501 -0.00000000000E+00 -0.00000000000E+00 -0.94052870670E+03  0.94052870671E+03  0.25500000000E-02 0.  1.
    8880023    1    1    2    0    0  0.61326358252E+03  0.22852157479E+03  0.70940322636E+03  0.11684936780E+04  0.65864270000E+03 0. -1.
    8880022    1    1    2    0    0 -0.61326358252E+03 -0.22852157479E+03 -0.55215208852E+03  0.86981487321E+03  0.15294330000E+03 0.  0.
<mgrwt>
<rscale>  0 0.85643761E+03</rscale>
<asrwt>0</asrwt>
<pdfrwt beam="1">  1        2 0.16888921E+00 0.92850662E+03</pdfrwt>
<pdfrwt beam="2">  1       -2 0.14469672E+00 0.92850662E+03</pdfrwt>
<totfact> 0.71902862E+00</totfact>
</mgrwt>
</event>
<event>
 4    1  0.3565372E-007  0.6731455E+03  0.7818608E-02  0.1013502E+00
         -2   -1    0    0    0  501 -0.00000000000E+00  0.00000000000E+00  0.23972286629E+03  0.23972286631E+03  0.25500000000E-02 0.  1.
          2   -1    0    0  501    0  0.00000000000E+00 -0.00000000000E+00 -0.13225627863E+04  0.13225627863E+04  0.25500000000E-02 0. -1.
    8880023    1    1    2    0    0  0.13872320921E+03 -0.84015185738E+01 -0.11604359305E+04  0.13415425708E+04  0.65864270000E+03 0.  0.
    8880022    1    1    2    0    0 -0.13872320921E+03  0.84015185738E+01  0.77596010505E+02  0.22074308177E+03  0.15294330000E+03 0.  0.
<mgrwt>
<rscale>  0 0.50106412E+03</rscale>
<asrwt>0</asrwt>
<pdfrwt beam="1">  1        2 0.20347119E+00 0.67314554E+03</pdfrwt>
<pdfrwt beam="2">  1       -2 0.36880442E-01 0.67314554E+03</pdfrwt>
<totfact> 0.11358549E+02</totfact>
</mgrwt>
</event>
<event>
 4    1  0.3565372E-007  0.1051841E+04  0.7818608E-02  0.9316671E-01
          2   -1    0    0  501    0  0.00000000000E+00  0.00000000000E+00  0.10914150507E+04  0.10914150507E+04  0.25500000000E-02 0. -1.
         -2   -1    0    0    0  501 -0.00000000000E+00 -0.00000000000E+00 -0.83006420308E+03  0.83006420309E+03  0.25500000000E-02 0.  1.
    8880023    1    1    2    0    0 -0.28223561723E+03 -0.77000156528E+03  0.27475874472E+03  0.10871347332E+04  0.65864270000E+03 0.  0.
    8880022    1    1    2    0    0  0.28223561723E+03  0.77000156528E+03 -0.13407897138E+02  0.83434452050E+03  0.15294330000E+03 0.  0.
<mgrwt>
<rscale>  0 0.99262433E+03</rscale>
<asrwt>0</asrwt>
<pdfrwt beam="1">  1        2 0.16791001E+00 0.10518410E+04</pdfrwt>
<pdfrwt beam="2">  1       -2 0.12770219E+00 0.10518410E+04</pdfrwt>
<totfact> 0.98954847E+00</totfact>
</mgrwt>
</event>
<event>
 4    1  0.3565372E-007  0.9384428E+03  0.7818608E-02  0.9466941E-01
          2   -1    0    0  501    0  0.00000000000E+00  0.00000000000E+00  0.18461567823E+04  0.18461567823E+04  0.25500000000E-02 0. -1.
         -2   -1    0    0    0  501 -0.00000000000E+00 -0.00000000000E+00 -0.51079391147E+03  0.51079391148E+03  0.25500000000E-02 0.  1.
    8880023    1    1    2    0    0 -0.26737931885E+03 -0.61267695287E+03  0.13809999529E+04  0.16696813543E+04  0.65864270000E+03 0. -1.
    8880022    1    1    2    0    0  0.26737931885E+03  0.61267695287E+03 -0.45637082073E+02  0.68726933948E+03  0.15294330000E+03 0.  0.
<mgrwt>
<rscale>  0 0.86765626E+03</rscale>
<asrwt>0</asrwt>
<pdfrwt beam="1">  1        2 0.28402412E+00 0.93844284E+03</pdfrwt>
<pdfrwt beam="2">  1       -2 0.78583679E-01 0.93844284E+03</pdfrwt>
<totfact> 0.11788554E+01</totfact>
</mgrwt>
</event>
<event>
 4    1  0.3565372E-007  0.7827117E+03  0.7818608E-02  0.9749505E-01
          2   -1    0    0  501    0  0.00000000000E+00  0.00000000000E+00  0.12699529179E+04  0.12699529179E+04  0.25500000000E-02 0. -1.
         -2   -1    0    0    0  501 -0.00000000000E+00 -0.00000000000E+00 -0.63201201884E+03  0.63201201884E+03  0.25500000000E-02 0.  1.
    8880023    1    1    2    0    0  0.86480823152E+02 -0.41394257853E+03  0.10380327444E+04  0.13000575279E+04  0.65864270000E+03 0. -1.
    8880022    1    1    2    0    0 -0.86480823152E+02  0.41394257853E+03 -0.40009184536E+03  0.60190740885E+03  0.15294330000E+03 0.  0.
<mgrwt>
<rscale>  0 0.68144236E+03</rscale>
<asrwt>0</asrwt>
<pdfrwt beam="1">  1        2 0.19537737E+00 0.78271169E+03</pdfrwt>
<pdfrwt beam="2">  1       -2 0.97232619E-01 0.78271169E+03</pdfrwt>
<totfact> 0.15444617E+01</totfact>
</mgrwt>
</event>
<event>
 4    1  0.3565372E-007  0.9030103E+03  0.7818608E-02  0.9521216E-01
         -2   -1    0    0    0  501 -0.00000000000E+00  0.00000000000E+00  0.60862209734E+03  0.60862209735E+03  0.25500000000E-02 0.  1.
          2   -1    0    0  501    0  0.00000000000E+00 -0.00000000000E+00 -0.15545728521E+04  0.15545728521E+04  0.25500000000E-02 0. -1.
    8880023    1    1    2    0    0  0.53223366829E+03 -0.31359968335E+03 -0.11793344724E+04  0.14853475833E+04  0.65864270000E+03 0.  0.
    8880022    1    1    2    0    0 -0.53223366829E+03  0.31359968335E+03  0.23338371771E+03  0.67784736612E+03  0.15294330000E+03 0.  0.
<mgrwt>
<rscale>  0 0.82737546E+03</rscale>
<asrwt>0</asrwt>
<pdfrwt beam="1">  1        2 0.23916505E+00 0.90301032E+03</pdfrwt>
<pdfrwt beam="2">  1       -2 0.93634169E-01 0.90301032E+03</pdfrwt>
<totfact> 0.11476029E+01</totfact>
</mgrwt>
</event>
<event>
 4    1  0.3565372E-007  0.7021192E+03  0.7818608E-02  0.9988521E-01
          2   -1    0    0  501    0  0.00000000000E+00  0.00000000000E+00  0.82419950620E+03  0.82419950621E+03  0.25500000000E-02 0. -1.
         -2   -1    0    0    0  501 -0.00000000000E+00 -0.00000000000E+00 -0.52689631069E+03  0.52689631070E+03  0.25500000000E-02 0.  1.
    8880023    1    1    2    0    0 -0.24310594437E+03 -0.77854326847E+01  0.60737296836E+03  0.92837128462E+03  0.65864270000E+03 0. -1.
    8880022    1    1    2    0    0  0.24310594437E+03  0.77854326847E+01 -0.31006977284E+03  0.42272453229E+03  0.15294330000E+03 0.  0.
<mgrwt>
<rscale>  0 0.56156441E+03</rscale>
<asrwt>0</asrwt>
<pdfrwt beam="1">  1        2 0.12679992E+00 0.70211916E+03</pdfrwt>
<pdfrwt beam="2">  1       -2 0.81060970E-01 0.70211916E+03</pdfrwt>
<totfact> 0.45213802E+01</totfact>
</mgrwt>
</event>
<event>
 4    1  0.3565372E-007  0.7918736E+03  0.7818608E-02  0.9728650E-01
         -2   -1    0    0    0  501 -0.00000000000E+00  0.00000000000E+00  0.12570108456E+04  0.12570108456E+04  0.25500000000E-02 0.  1.
          2   -1    0    0  501    0  0.00000000000E+00 -0.00000000000E+00 -0.16383150919E+04  0.16383150919E+04  0.25500000000E-02 0. -1.
    8880023    1    1    2    0    0  0.31855057413E+03 -0.30295069318E+03  0.10927643465E+04  0.13495175857E+04  0.65864270000E+03 0.  1.
    8880022    1    1    2    0    0 -0.31855057413E+03  0.30295069318E+03 -0.14740685929E+04  0.15458083517E+04  0.15294330000E+03 0.  0.
<mgrwt>
<rscale>  0 0.69336281E+03</rscale>
<asrwt>0</asrwt>
<pdfrwt beam="1">  1        2 0.25204848E+00 0.79187360E+03</pdfrwt>
<pdfrwt beam="2">  1       -2 0.19338628E+00 0.79187360E+03</pdfrwt>
<totfact> 0.16030923E+00</totfact>
</mgrwt>
</event>
<event>
 4    1  0.3565372E-007  0.7215142E+03  0.7818608E-02  0.9917495E-01
         -2   -1    0    0    0  501 -0.00000000000E+00  0.00000000000E+00  0.11799363776E+03  0.11799363779E+03  0.25500000000E-02 0.  1.
          2   -1    0    0  501    0  0.00000000000E+00 -0.00000000000E+00 -0.28963224483E+04  0.28963224483E+04  0.25500000000E-02 0. -1.
    8880023    1    1    2    0    0 -0.22406631550E+03 -0.19122447748E+03 -0.24227316542E+04  0.25278867437E+04  0.65864270000E+03 0. -1.
    8880022    1    1    2    0    0  0.22406631550E+03  0.19122447748E+03 -0.35559715640E+03  0.48642934244E+03  0.15294330000E+03 0.  0.
<mgrwt>
<rscale>  0 0.59420828E+03</rscale>
<asrwt>0</asrwt>
<pdfrwt beam="1">  1        2 0.44558802E+00 0.72151419E+03</pdfrwt>
<pdfrwt beam="2">  1       -2 0.18152870E-01 0.72151419E+03</pdfrwt>
<totfact> 0.53901890E+01</totfact>
</mgrwt>
</event>
<event>
 4    1  0.3565372E-007  0.8273575E+03  0.7818608E-02  0.9654496E-01
          2   -1    0    0  501    0  0.00000000000E+00  0.00000000000E+00  0.12754368721E+04  0.12754368721E+04  0.25500000000E-02 0. -1.
         -2   -1    0    0    0  501 -0.00000000000E+00 -0.00000000000E+00 -0.59679827402E+03  0.59679827403E+03  0.25500000000E-02 0.  1.
    8880023    1    1    2    0    0 -0.10506921986E+03 -0.48956174089E+03 -0.19840193350E+03  0.85081359450E+03  0.65864270000E+03 0.  1.
    8880022    1    1    2    0    0  0.10506921986E+03  0.48956174089E+03  0.87704053161E+03  0.10214215517E+04  0.15294330000E+03 0.  0.
<mgrwt>
<rscale>  0 0.73791937E+03</rscale>
<asrwt>0</asrwt>
<pdfrwt beam="1">  1        2 0.19622106E+00 0.82735751E+03</pdfrwt>
<pdfrwt beam="2">  1       -2 0.91815119E-01 0.82735751E+03</pdfrwt>
<totfact> 0.17443275E+01</totfact>
</mgrwt>
</event>
<event>
 4    1  0.3565372E-007  0.6818098E+03  0.7818608E-02  0.1008318E+00
          2   -1    0    0  501    0  0.00000000000E+00  0.00000000000E+00  0.13576639099E+03  0.13576639102E+03  0.25500000000E-02 0. -1.
         -2   -1    0    0    0  501 -0.00000000000E+00 -0.00000000000E+00 -0.17255049176E+04  0.17255049176E+04  0.25500000000E-02 0.  1.
    8880023    1    1    2    0    0  0.52176434774E+02 -0.16832130091E+03 -0.87417040752E+03  0.11086201100E+04  0.65864270000E+03 0. -1.
    8880022    1    1    2    0    0 -0.52176434774E+02  0.16832130091E+03 -0.71556811905E+03  0.75265119857E+03  0.15294330000E+03 0.  0.
<mgrwt>
<rscale>  0 0.52148676E+03</rscale>
<asrwt>0</asrwt>
<pdfrwt beam="1">  1        2 0.20887138E-01 0.68180983E+03</pdfrwt>
<pdfrwt beam="2">  1       -2 0.26546228E+00 0.68180983E+03</pdfrwt>
<totfact> 0.14466503E+01</totfact>
</mgrwt>
</event>
<event>
 4    1  0.3565372E-007  0.1033791E+04  0.7818608E-02  0.9338626E-01
          2   -1    0    0  501    0  0.00000000000E+00  0.00000000000E+00  0.29611056012E+04  0.29611056012E+04  0.25500000000E-02 0. -1.
         -2   -1    0    0    0  501 -0.00000000000E+00 -0.00000000000E+00 -0.85301155448E+03  0.85301155449E+03  0.25500000000E-02 0.  1.
    8880023    1    1    2    0    0 -0.48589093741E+03 -0.63152437865E+03  0.26459082321E+04  0.28406959751E+04  0.65864270000E+03 0.  0.
    8880022    1    1    2    0    0  0.48589093741E+03  0.63152437865E+03 -0.53781418537E+03  0.97342118062E+03  0.15294330000E+03 0.  0.
<mgrwt>
<rscale>  0 0.97303361E+03</rscale>
<asrwt>0</asrwt>
<pdfrwt beam="1">  1        2 0.45555471E+00 0.10337907E+04</pdfrwt>
<pdfrwt beam="2">  1       -2 0.13123254E+00 0.10337907E+04</pdfrwt>
<totfact> 0.78919429E-01</totfact>
</mgrwt>
</event>
<event>
 4    1  0.3565372E-007  0.6913386E+03  0.7818608E-02  0.1003523E+00
          2   -1    0    0  501    0  0.00000000000E+00  0.00000000000E+00  0.63842222312E+03  0.63842222312E+03  0.25500000000E-02 0. -1.
         -2   -1    0    0    0  501 -0.00000000000E+00 -0.00000000000E+00 -0.45834585626E+03  0.45834585627E+03  0.25500000000E-02 0.  1.
    8880023    1    1    2    0    0 -0.21008633071E+03  0.15957316742E+01  0.36119985975E+03  0.78000920357E+03  0.65864270000E+03 0. -1.
    8880022    1    1    2    0    0  0.21008633071E+03 -0.15957316742E+01 -0.18112349290E+03  0.31675887581E+03  0.15294330000E+03 0.  0.
<mgrwt>
<rscale>  0 0.54132185E+03</rscale>
<asrwt>0</asrwt>
<pdfrwt beam="1">  1        2 0.98218803E-01 0.69133857E+03</pdfrwt>
<pdfrwt beam="2">  1       -2 0.70514748E-01 0.69133857E+03</pdfrwt>
<totfact> 0.85423504E+01</totfact>
</mgrwt>
</event>
<event>
 4    1  0.3565372E-007  0.7034613E+03  0.7818608E-02  0.9983134E-01
         -2   -1    0    0    0  501 -0.00000000000E+00  0.00000000000E+00  0.16942069800E+03  0.16942069802E+03  0.25500000000E-02 0.  1.
          2   -1    0    0  501    0  0.00000000000E+00 -0.00000000000E+00 -0.18016739807E+04  0.18016739807E+04  0.25500000000E-02 0. -1.
    8880023    1    1    2    0    0 -0.21568489090E+02 -0.24613491817E+03 -0.14896687316E+04  0.16474133464E+04  0.65864270000E+03 0. -1.
    8880022    1    1    2    0    0  0.21568489090E+02  0.24613491817E+03 -0.14258455107E+03  0.32368133231E+03  0.15294330000E+03 0.  0.
<mgrwt>
<rscale>  0 0.56395987E+03</rscale>
<asrwt>0</asrwt>
<pdfrwt beam="1">  1        2 0.27718060E+00 0.70346130E+03</pdfrwt>
<pdfrwt beam="2">  1       -2 0.26064724E-01 0.70346130E+03</pdfrwt>
<totfact> 0.11744906E+02</totfact>
</mgrwt>
</event>
<event>
 4    1  0.3565372E-007  0.9050449E+03  0.7818608E-02  0.9517981E-01
          2   -1    0    0  501    0  0.00000000000E+00  0.00000000000E+00  0.79636407515E+03  0.79636407516E+03  0.25500000000E-02 0. -1.
         -2   -1    0    0    0  501 -0.00000000000E+00 -0.00000000000E+00 -0.11184629444E+04  0.11184629444E+04  0.25500000000E-02 0.  1.
    8880023    1    1    2    0    0  0.57149500987E+03 -0.24225921981E+03 -0.72460696240E+03  0.11593798049E+04  0.65864270000E+03 0.  1.
    8880022    1    1    2    0    0 -0.57149500987E+03  0.24225921981E+03  0.40250809320E+03  0.75544721457E+03  0.15294330000E+03 0.  0.
<mgrwt>
<rscale>  0 0.82971042E+03</rscale>
<asrwt>0</asrwt>
<pdfrwt beam="1">  1        2 0.12251755E+00 0.90504491E+03</pdfrwt>
<pdfrwt beam="2">  1       -2 0.17207122E+00 0.90504491E+03</pdfrwt>
<totfact> 0.71469108E+00</totfact>
</mgrwt>
</event>
<event>
 4    1  0.3565372E-007  0.7261292E+03  0.7818608E-02  0.9902367E-01
         -2   -1    0    0    0  501 -0.00000000000E+00  0.00000000000E+00  0.24950783927E+03  0.24950783928E+03  0.25500000000E-02 0.  1.
          2   -1    0    0  501    0  0.00000000000E+00 -0.00000000000E+00 -0.25698868937E+04  0.25698868937E+04  0.25500000000E-02 0. -1.
    8880023    1    1    2    0    0  0.29858512045E+03 -0.65576893511E+02 -0.23656503562E+04  0.24745838472E+04  0.65864270000E+03 0. -1.
    8880022    1    1    2    0    0 -0.29858512045E+03  0.65576893511E+02  0.45271301780E+02  0.34481088570E+03  0.15294330000E+03 0.  0.
<mgrwt>
<rscale>  0 0.60146688E+03</rscale>
<asrwt>0</asrwt>
<pdfrwt beam="1">  1        2 0.39536720E+00 0.72612920E+03</pdfrwt>
<pdfrwt beam="2">  1       -2 0.38385823E-01 0.72612920E+03</pdfrwt>
<totfact> 0.21352291E+01</totfact>
</mgrwt>
</event>
<event>
 4    1  0.3565372E-007  0.7883990E+03  0.7818608E-02  0.9736465E-01
          2   -1    0    0  501    0  0.00000000000E+00  0.00000000000E+00  0.29309147590E+04  0.29309147590E+04  0.25500000000E-02 0. -1.
         -2   -1    0    0    0  501 -0.00000000000E+00 -0.00000000000E+00 -0.23681602568E+03  0.23681602570E+03  0.25500000000E-02 0.  1.
    8880023    1    1    2    0    0 -0.33558899800E+03 -0.27412194386E+03  0.25750587252E+04  0.26930466874E+04  0.65864270000E+03 0. -1.
    8880022    1    1    2    0    0  0.33558899800E+03  0.27412194386E+03  0.11904000804E+03  0.47468409728E+03  0.15294330000E+03 0.  0.
<mgrwt>
<rscale>  0 0.68886575E+03</rscale>
<asrwt>0</asrwt>
<pdfrwt beam="1">  1        2 0.45090991E+00 0.78839902E+03</pdfrwt>
<pdfrwt beam="2">  1       -2 0.36433239E-01 0.78839902E+03</pdfrwt>
<totfact> 0.14349744E+01</totfact>
</mgrwt>
</event>
<event>
 4    1  0.3565372E-007  0.7123022E+03  0.7818608E-02  0.9949549E-01
         -2   -1    0    0    0  501 -0.00000000000E+00  0.00000000000E+00  0.13655864849E+03  0.13655864852E+03  0.25500000000E-02 0.  1.
          2   -1    0    0  501    0  0.00000000000E+00 -0.00000000000E+00 -0.21606552091E+04  0.21606552091E+04  0.25500000000E-02 0. -1.
    8880023    1    1    2    0    0 -0.27008357154E+03 -0.24880378911E+02 -0.17214092469E+04  0.18629611296E+04  0.65864270000E+03 0.  0.
    8880022    1    1    2    0    0  0.27008357154E+03  0.24880378911E+02 -0.30268731363E+03  0.43425272794E+03  0.15294330000E+03 0.  0.
<mgrwt>
<rscale>  0 0.57918851E+03</rscale>
<asrwt>0</asrwt>
<pdfrwt beam="1">  1        2 0.33240847E+00 0.71230217E+03</pdfrwt>
<pdfrwt beam="2">  1       -2 0.21009024E-01 0.71230217E+03</pdfrwt>
<totfact> 0.10989226E+02</totfact>
</mgrwt>
</event>
<event>
 4    1  0.4841545E-007  0.8097797E+03  0.7818608E-02  0.9690036E-01
         -2   -1    0    0    0  501 -0.00000000000E+00  0.00000000000E+00  0.11367994127E+04  0.11367994127E+04  0.25500000000E-02 0.  1.
          2   -1    0    0  501    0  0.00000000000E+00 -0.00000000000E+00 -0.23872065452E+04  0.23872065452E+04  0.25500000000E-02 0. -1.
    8880023    1    1    2    0    0 -0.17399386693E+03 -0.43778893079E+03 -0.22593279992E+04  0.24000637966E+04  0.65864270000E+03 0.  0.
    8880022    1    1    2    0    0  0.17399386693E+03  0.43778893079E+03  0.10089208667E+04  0.11239421613E+04  0.15294330000E+03 0.  0.
<mgrwt>
<rscale>  0 0.71613159E+03</rscale>
<asrwt>0</asrwt>
<pdfrwt beam="1">  1        2 0.36726254E+00 0.80977974E+03</pdfrwt>
<pdfrwt beam="2">  1       -2 0.17489222E+00 0.80977974E+03</pdfrwt>
<totfact> 0.82626157E-01</totfact>
</mgrwt>
</event>
<event>
 4    1  0.3565372E-007  0.6880123E+03  0.7818608E-02  0.1005112E+00
         -2   -1    0    0    0  501 -0.00000000000E+00  0.00000000000E+00  0.20576713806E+03  0.20576713808E+03  0.25500000000E-02 0.  1.
          2   -1    0    0  501    0  0.00000000000E+00 -0.00000000000E+00 -0.23733419184E+04  0.23733419184E+04  0.25500000000E-02 0. -1.
    8880023    1    1    2    0    0 -0.72276411581E+02  0.18527520740E+03 -0.22188232702E+04  0.23230449183E+04  0.65864270000E+03 0. -1.
    8880022    1    1    2    0    0  0.72276411581E+02 -0.18527520740E+03  0.51248489776E+02  0.25606413819E+03  0.15294330000E+03 0.  0.
<mgrwt>
<rscale>  0 0.53464452E+03</rscale>
<asrwt>0</asrwt>
<pdfrwt beam="1">  1        2 0.36512951E+00 0.68801235E+03</pdfrwt>
<pdfrwt beam="2">  1       -2 0.31656485E-01 0.68801235E+03</pdfrwt>
<totfact> 0.40001620E+01</totfact>
</mgrwt>
</event>
<event>
 4    1  0.3565372E-007  0.8660964E+03  0.7818608E-02  0.9582810E-01
          2   -1    0    0  501    0  0.00000000000E+00  0.00000000000E+00  0.14180944607E+04  0.14180944607E+04  0.25500000000E-02 0. -1.
         -2   -1    0    0    0  501 -0.00000000000E+00 -0.00000000000E+00 -0.90866172483E+03  0.90866172483E+03  0.25500000000E-02 0.  1.
    8880023    1    1    2    0    0  0.47272441455E+03 -0.30470382862E+03  0.11636377495E+04  0.14505777516E+04  0.65864270000E+03 0.  0.
    8880022    1    1    2    0    0 -0.47272441455E+03  0.30470382862E+03 -0.65420501357E+03  0.87617843393E+03  0.15294330000E+03 0.  0.
<mgrwt>
<rscale>  0 0.78444470E+03</rscale>
<asrwt>0</asrwt>
<pdfrwt beam="1">  1        2 0.21816838E+00 0.86609642E+03</pdfrwt>
<pdfrwt beam="2">  1       -2 0.13979411E+00 0.86609642E+03</pdfrwt>
<totfact> 0.51362061E+00</totfact>
</mgrwt>
</event>
<event>
 4    1  0.3565372E-007  0.8062885E+03  0.7818608E-02  0.9697360E-01
         -2   -1    0    0    0  501 -0.00000000000E+00  0.00000000000E+00  0.11315342859E+04  0.11315342859E+04  0.25500000000E-02 0.  1.
          2   -1    0    0  501    0  0.00000000000E+00 -0.00000000000E+00 -0.91909623506E+03  0.91909623506E+03  0.25500000000E-02 0. -1.
    8880023    1    1    2    0    0  0.46371804154E+03 -0.35447655994E+02 -0.66546881142E+03  0.10454424439E+04  0.65864270000E+03 0. -1.
    8880022    1    1    2    0    0 -0.46371804154E+03  0.35447655994E+02  0.87790686223E+03  0.10051880770E+04  0.15294330000E+03 0.  0.
<mgrwt>
<rscale>  0 0.71174171E+03</rscale>
<asrwt>0</asrwt>
<pdfrwt beam="1">  1        2 0.14139942E+00 0.80628851E+03</pdfrwt>
<pdfrwt beam="2">  1       -2 0.17408220E+00 0.80628851E+03</pdfrwt>
<totfact> 0.57474014E+00</totfact>
</mgrwt>
</event>
<event>
 4    1  0.3565372E-007  0.9382296E+03  0.7818608E-02  0.9467255E-01
         -2   -1    0    0    0  501 -0.00000000000E+00  0.00000000000E+00  0.92533151867E+03  0.92533151868E+03  0.25500000000E-02 0.  1.
          2   -1    0    0  501    0  0.00000000000E+00 -0.00000000000E+00 -0.13245607412E+04  0.13245607412E+04  0.25500000000E-02 0. -1.
    8880023    1    1    2    0    0 -0.59148200352E+03  0.31082720004E+03 -0.97616771012E+03  0.13539490808E+04  0.65864270000E+03 0.  0.
    8880022    1    1    2    0    0  0.59148200352E+03 -0.31082720004E+03  0.57693848757E+03  0.89594317913E+03  0.15294330000E+03 0.  0.
<mgrwt>
<rscale>  0 0.86741604E+03</rscale>
<asrwt>0</asrwt>
<pdfrwt beam="1">  1        2 0.20377858E+00 0.93822956E+03</pdfrwt>
<pdfrwt beam="2">  1       -2 0.14235869E+00 0.93822956E+03</pdfrwt>
<totfact> 0.54931132E+00</totfact>
</mgrwt>
</event>
<event>
 4    1  0.3565372E-007  0.1007896E+04  0.7818608E-02  0.9371299E-01
         -2   -1    0    0    0  501 -0.00000000000E+00  0.00000000000E+00  0.11533190928E+04  0.11533190928E+04  0.25500000000E-02 0.  1.
          2   -1    0    0  501    0  0.00000000000E+00 -0.00000000000E+00 -0.12297738870E+04  0.12297738870E+04  0.25500000000E-02 0. -1.
    8880023    1    1    2    0    0 -0.44662586683E+03  0.61852196191E+03 -0.82567947923E+03  0.13029201399E+04  0.65864270000E+03 0. -1.
    8880022    1    1    2    0    0  0.44662586683E+03 -0.61852196191E+03  0.74922468504E+03  0.10801728399E+04  0.15294330000E+03 0.  0.
<mgrwt>
<rscale>  0 0.94475737E+03</rscale>
<asrwt>0</asrwt>
<pdfrwt beam="1">  1        2 0.18919598E+00 0.10078960E+04</pdfrwt>
<pdfrwt beam="2">  1       -2 0.17743371E+00 0.10078960E+04</pdfrwt>
<totfact> 0.34026298E+00</totfact>
</mgrwt>
</event>
<event>
 4    1  0.3565372E-007  0.6745247E+03  0.7818608E-02  0.1012608E+00
          2   -1    0    0  501    0  0.00000000000E+00  0.00000000000E+00  0.73670867294E+03  0.73670867294E+03  0.25500000000E-02 0. -1.
         -2   -1    0    0    0  501 -0.00000000000E+00 -0.00000000000E+00 -0.29268866088E+03  0.29268866089E+03  0.25500000000E-02 0.  1.
    8880023    1    1    2    0    0 -0.91517229433E+02  0.11312819039E+03  0.46192992995E+03  0.81753462140E+03  0.65864270000E+03 0. -1.
    8880022    1    1    2    0    0  0.91517229433E+02 -0.11312819039E+03 -0.17909917891E+02  0.21186271243E+03  0.15294330000E+03 0.  1.
<mgrwt>
<rscale>  0 0.50451339E+03</rscale>
<asrwt>0</asrwt>
<pdfrwt beam="1">  1        2 0.11333980E+00 0.67452472E+03</pdfrwt>
<pdfrwt beam="2">  1       -2 0.45029025E-01 0.67452472E+03</pdfrwt>
<totfact> 0.18202561E+02</totfact>
</mgrwt>
</event>
<event>
 4    1  0.3565372E-007  0.1018649E+04  0.7818608E-02  0.9357556E-01
          2   -1    0    0  501    0  0.00000000000E+00  0.00000000000E+00  0.13025787262E+04  0.13025787262E+04  0.25500000000E-02 0. -1.
         -2   -1    0    0    0  501 -0.00000000000E+00 -0.00000000000E+00 -0.91070005991E+03  0.91070005992E+03  0.25500000000E-02 0.  1.
    8880023    1    1    2    0    0  0.32349379196E+03  0.70653155529E+03  0.82479842412E+03  0.13107012317E+04  0.65864270000E+03 0.  0.
    8880022    1    1    2    0    0 -0.32349379196E+03 -0.70653155529E+03 -0.43291975782E+03  0.90257755444E+03  0.15294330000E+03 0.  0.
<mgrwt>
<rscale>  0 0.95652519E+03</rscale>
<asrwt>0</asrwt>
<pdfrwt beam="1">  1        2 0.20039673E+00 0.10186488E+04</pdfrwt>
<pdfrwt beam="2">  1       -2 0.14010770E+00 0.10186488E+04</pdfrwt>
<totfact> 0.58463165E+00</totfact>
</mgrwt>
</event>
<event>
 4    1  0.3565372E-007  0.1105102E+04  0.7818608E-02  0.9255397E-01
         -2   -1    0    0    0  501 -0.00000000000E+00  0.00000000000E+00  0.20789007155E+04  0.20789007155E+04  0.25500000000E-02 0.  1.
          2   -1    0    0  501    0  0.00000000000E+00 -0.00000000000E+00 -0.70435020049E+03  0.70435020049E+03  0.25500000000E-02 0. -1.
    8880023    1    1    2    0    0  0.88548008323E+03  0.58011199088E+02 -0.40667402383E+02  0.11058500445E+04  0.65864270000E+03 0.  1.
    8880022    1    1    2    0    0 -0.88548008323E+03 -0.58011199088E+02  0.14152179174E+04  0.16774008715E+04  0.15294330000E+03 0.  0.
<mgrwt>
<rscale>  0 0.10499488E+04</rscale>
<asrwt>0</asrwt>
<pdfrwt beam="1">  1        2 0.10836157E+00 0.11051020E+04</pdfrwt>
<pdfrwt beam="2">  1       -2 0.31983087E+00 0.11051020E+04</pdfrwt>
<totfact> 0.97067023E-01</totfact>
</mgrwt>
</event>
<event>
 4    1  0.3565372E-007  0.7978352E+03  0.7818608E-02  0.9715497E-01
          2   -1    0    0  501    0  0.00000000000E+00  0.00000000000E+00  0.18832839101E+04  0.18832839101E+04  0.25500000000E-02 0. -1.
         -2   -1    0    0    0  501 -0.00000000000E+00 -0.00000000000E+00 -0.28732846029E+03  0.28732846030E+03  0.25500000000E-02 0.  1.
    8880023    1    1    2    0    0  0.69498694253E+02  0.44486031730E+03  0.14796959664E+04  0.16810833203E+04  0.65864270000E+03 0.  0.
    8880022    1    1    2    0    0 -0.69498694253E+02 -0.44486031730E+03  0.11625948338E+03  0.48952905011E+03  0.15294330000E+03 0.  0.
<mgrwt>
<rscale>  0 0.70101586E+03</rscale>
<asrwt>0</asrwt>
<pdfrwt beam="1">  1        2 0.28973598E+00 0.79783518E+03</pdfrwt>
<pdfrwt beam="2">  1       -2 0.44204379E-01 0.79783518E+03</pdfrwt>
<totfact> 0.38528126E+01</totfact>
</mgrwt>
</event>
<event>
 4    1  0.3565372E-007  0.7082203E+03  0.7818608E-02  0.9964670E-01
          2   -1    0    0  501    0  0.00000000000E+00  0.00000000000E+00  0.13451425729E+04  0.13451425729E+04  0.25500000000E-02 0. -1.
         -2   -1    0    0    0  501 -0.00000000000E+00 -0.00000000000E+00 -0.29423452098E+03  0.29423452100E+03  0.25500000000E-02 0.  1.
    8880023    1    1    2    0    0  0.20297706972E+03  0.16299120316E+03  0.11242013333E+04  0.13286853154E+04  0.65864270000E+03 0.  0.
    8880022    1    1    2    0    0 -0.20297706972E+03 -0.16299120316E+03 -0.73293281404E+02  0.31069177854E+03  0.15294330000E+03 0.  0.
<mgrwt>
<rscale>  0 0.57226914E+03</rscale>
<asrwt>0</asrwt>
<pdfrwt beam="1">  1        2 0.20694501E+00 0.70822033E+03</pdfrwt>
<pdfrwt beam="2">  1       -2 0.45266849E-01 0.70822033E+03</pdfrwt>
<totfact> 0.73613321E+01</totfact>
</mgrwt>
</event>
<event>
 4    1  0.3565372E-007  0.9599070E+03  0.7818608E-02  0.9436001E-01
         -2   -1    0    0    0  501 -0.00000000000E+00  0.00000000000E+00  0.70682979566E+03  0.70682979566E+03  0.25500000000E-02 0.  1.
          2   -1    0    0  501    0  0.00000000000E+00 -0.00000000000E+00 -0.22657305997E+04  0.22657305997E+04  0.25500000000E-02 0. -1.
    8880023    1    1    2    0    0  0.24256943632E+03 -0.65480638825E+03 -0.19385235008E+04  0.21631677944E+04  0.65864270000E+03 0. -1.
    8880022    1    1    2    0    0 -0.24256943632E+03  0.65480638825E+03  0.37962269674E+03  0.80939260092E+03  0.15294330000E+03 0.  0.
<mgrwt>
<rscale>  0 0.89171242E+03</rscale>
<asrwt>0</asrwt>
<pdfrwt beam="1">  1        2 0.34857393E+00 0.95990705E+03</pdfrwt>
<pdfrwt beam="2">  1       -2 0.10874305E+00 0.95990705E+03</pdfrwt>
<totfact> 0.32326409E+00</totfact>
</mgrwt>
</event>
<event>
 4    1  0.3565372E-007  0.8345187E+03  0.7818608E-02  0.9640604E-01
          2   -1    0    0  501    0  0.00000000000E+00  0.00000000000E+00  0.78938636036E+03  0.78938636036E+03  0.25500000000E-02 0. -1.
         -2   -1    0    0    0  501 -0.00000000000E+00 -0.00000000000E+00 -0.10537606658E+04  0.10537606658E+04  0.25500000000E-02 0.  1.
    8880023    1    1    2    0    0 -0.50998180855E+03 -0.50297775925E+02  0.45208162956E+03  0.94910448180E+03  0.65864270000E+03 0. -1.
    8880022    1    1    2    0    0  0.50998180855E+03  0.50297775925E+02 -0.71645593500E+03  0.89404254436E+03  0.15294330000E+03 0.  0.
<mgrwt>
<rscale>  0 0.74666086E+03</rscale>
<asrwt>0</asrwt>
<pdfrwt beam="1">  1        2 0.12144405E+00 0.83451873E+03</pdfrwt>
<pdfrwt beam="2">  1       -2 0.16211703E+00 0.83451873E+03</pdfrwt>
<totfact> 0.85855587E+00</totfact>
</mgrwt>
</event>
<event>
 4    1  0.3565372E-007  0.7925649E+03  0.7818608E-02  0.9727109E-01
          2   -1    0    0  501    0  0.00000000000E+00  0.00000000000E+00  0.13134233004E+04  0.13134233004E+04  0.25500000000E-02 0. -1.
         -2   -1    0    0    0  501 -0.00000000000E+00 -0.00000000000E+00 -0.34881845978E+03  0.34881845979E+03  0.25500000000E-02 0.  1.
    8880023    1    1    2    0    0 -0.33334081434E+03 -0.28850103549E+03  0.88648051351E+03  0.11891202013E+04  0.65864270000E+03 0.  0.
    8880022    1    1    2    0    0  0.33334081434E+03  0.28850103549E+03  0.78124327065E+02  0.47312155888E+03  0.15294330000E+03 0.  0.
<mgrwt>
<rscale>  0 0.69425427E+03</rscale>
<asrwt>0</asrwt>
<pdfrwt beam="1">  1        2 0.20206513E+00 0.79256492E+03</pdfrwt>
<pdfrwt beam="2">  1       -2 0.53664378E-01 0.79256492E+03</pdfrwt>
<totfact> 0.53908978E+01</totfact>
</mgrwt>
</event>
<event>
 4    1  0.3565372E-007  0.9279234E+03  0.7818608E-02  0.9482615E-01
         -2   -1    0    0    0  501 -0.00000000000E+00  0.00000000000E+00  0.54632492281E+03  0.54632492282E+03  0.25500000000E-02 0.  1.
          2   -1    0    0  501    0  0.00000000000E+00 -0.00000000000E+00 -0.14462626952E+04  0.14462626952E+04  0.25500000000E-02 0. -1.
    8880023    1    1    2    0    0 -0.40157298020E+02 -0.65239477424E+03 -0.93903888254E+03  0.13201650576E+04  0.65864270000E+03 0.  0.
    8880022    1    1    2    0    0  0.40157298020E+02  0.65239477424E+03  0.39101110115E+02  0.67242256049E+03  0.15294330000E+03 0.  0.
<mgrwt>
<rscale>  0 0.85577732E+03</rscale>
<asrwt>0</asrwt>
<pdfrwt beam="1">  1        2 0.22250195E+00 0.92792336E+03</pdfrwt>
<pdfrwt beam="2">  1       -2 0.84049989E-01 0.92792336E+03</pdfrwt>
<totfact> 0.16887755E+01</totfact>
</mgrwt>
</event>
<event>
 4    1  0.3565372E-007  0.9718402E+03  0.7818608E-02  0.9419364E-01
          2   -1    0    0  501    0  0.00000000000E+00  0.00000000000E+00  0.18828970919E+04  0.18828970919E+04  0.25500000000E-02 0. -1.
         -2   -1    0    0    0  501 -0.00000000000E+00 -0.00000000000E+00 -0.78266513134E+03  0.78266513134E+03  0.25500000000E-02 0.  1.
    8880023    1    1    2    0    0 -0.54213924101E+03 -0.46556226204E+03  0.15338490823E+04  0.18158101195E+04  0.65864270000E+03 0. -1.
    8880022    1    1    2    0    0  0.54213924101E+03  0.46556226204E+03 -0.43361712178E+03  0.84975210373E+03  0.15294330000E+03 0.  0.
<mgrwt>
<rscale>  0 0.90499124E+03</rscale>
<asrwt>0</asrwt>
<pdfrwt beam="1">  1        2 0.28967648E+00 0.97184020E+03</pdfrwt>
<pdfrwt beam="2">  1       -2 0.12041002E+00 0.97184020E+03</pdfrwt>
<totfact> 0.40907354E+00</totfact>
</mgrwt>
</event>
<event>
 4    1  0.3565372E-007  0.6645968E+03  0.7818608E-02  0.1019874E+00
          2   -1    0    0  501    0  0.00000000000E+00  0.00000000000E+00  0.67680177959E+03  0.67680177959E+03  0.25500000000E-02 0. -1.
         -2   -1    0    0    0  501 -0.00000000000E+00 -0.00000000000E+00 -0.11199859026E+04  0.11199859026E+04  0.25500000000E-02 0.  1.
    8880023    1    1    2    0    0 -0.83339861048E+02  0.30547773194E+02  0.50346357725E+03  0.83376524200E+03  0.65864270000E+03 0. -1.
    8880022    1    1    2    0    0  0.83339861048E+02 -0.30547773194E+02 -0.94664770026E+03  0.96302244019E+03  0.15294330000E+03 0.  0.
<mgrwt>
<rscale>  0 0.47732071E+03</rscale>
<asrwt>0</asrwt>
<pdfrwt beam="1">  1        2 0.10412335E+00 0.66459680E+03</pdfrwt>
<pdfrwt beam="2">  1       -2 0.17230552E+00 0.66459680E+03</pdfrwt>
<totfact> 0.90170485E+00</totfact>
</mgrwt>
</event>
<event>
 4    1  0.3565372E-007  0.8287001E+03  0.7818608E-02  0.9651867E-01
          2   -1    0    0  501    0  0.00000000000E+00  0.00000000000E+00  0.19678503932E+04  0.19678503932E+04  0.25500000000E-02 0. -1.
         -2   -1    0    0    0  501 -0.00000000000E+00 -0.00000000000E+00 -0.39512350407E+03  0.39512350408E+03  0.25500000000E-02 0.  1.
    8880023    1    1    2    0    0 -0.48653449866E+03 -0.12734923937E+03  0.16356036812E+04  0.18335602677E+04  0.65864270000E+03 0. -1.
    8880022    1    1    2    0    0  0.48653449866E+03  0.12734923937E+03 -0.62876792075E+02  0.52941362955E+03  0.15294330000E+03 0.  0.
<mgrwt>
<rscale>  0 0.73956376E+03</rscale>
<asrwt>0</asrwt>
<pdfrwt beam="1">  1        2 0.30274622E+00 0.82870010E+03</pdfrwt>
<pdfrwt beam="2">  1       -2 0.60788231E-01 0.82870010E+03</pdfrwt>
<totfact> 0.17940863E+01</totfact>
</mgrwt>
</event>
<event>
 4    1  0.3565372E-007  0.7161653E+03  0.7818608E-02  0.9935781E-01
         -2   -1    0    0    0  501 -0.00000000000E+00  0.00000000000E+00  0.81595517880E+03  0.81595517881E+03  0.25500000000E-02 0.  1.
          2   -1    0    0  501    0  0.00000000000E+00 -0.00000000000E+00 -0.64926837332E+03  0.64926837333E+03  0.25500000000E-02 0. -1.
    8880023    1    1    2    0    0 -0.16052299974E+03  0.23090020128E+03 -0.39562605401E+03  0.81817645852E+03  0.65864270000E+03 0. -1.
    8880022    1    1    2    0    0  0.16052299974E+03 -0.23090020128E+03  0.56231285949E+03  0.64704709362E+03  0.15294330000E+03 0.  0.
<mgrwt>
<rscale>  0 0.58558072E+03</rscale>
<asrwt>0</asrwt>
<pdfrwt beam="1">  1        2 0.99887443E-01 0.71616530E+03</pdfrwt>
<pdfrwt beam="2">  1       -2 0.12553156E+00 0.71616530E+03</pdfrwt>
<totfact> 0.21716122E+01</totfact>
</mgrwt>
</event>
<event>
 4    1  0.3565372E-007  0.8027017E+03  0.7818608E-02  0.9704985E-01
         -2   -1    0    0    0  501 -0.00000000000E+00  0.00000000000E+00  0.61815793483E+03  0.61815793484E+03  0.25500000000E-02 0.  1.
          2   -1    0    0  501    0  0.00000000000E+00 -0.00000000000E+00 -0.67575874352E+03  0.67575874353E+03  0.25500000000E-02 0. -1.
    8880023    1    1    2    0    0  0.45707516066E+03  0.40026908656E+02 -0.97639109134E+02  0.80861823984E+03  0.65864270000E+03 0.  0.
    8880022    1    1    2    0    0 -0.45707516066E+03 -0.40026908656E+02  0.40038300443E+02  0.48529843852E+03  0.15294330000E+03 0. -1.
<mgrwt>
<rscale>  0 0.70720789E+03</rscale>
<asrwt>0</asrwt>
<pdfrwt beam="1">  1        2 0.10396288E+00 0.80270173E+03</pdfrwt>
<pdfrwt beam="2">  1       -2 0.95101221E-01 0.80270173E+03</pdfrwt>
<totfact> 0.40179381E+01</totfact>
</mgrwt>
</event>
<event>
 4    1  0.3565372E-007  0.8616419E+03  0.7818608E-02  0.9590649E-01
         -2   -1    0    0    0  501 -0.00000000000E+00  0.00000000000E+00  0.78662098660E+03  0.78662098660E+03  0.25500000000E-02 0.  1.
          2   -1    0    0  501    0  0.00000000000E+00 -0.00000000000E+00 -0.94518699876E+03  0.94518699876E+03  0.25500000000E-02 0. -1.
    8880023    1    1    2    0    0 -0.54569751876E+03 -0.10407111556E+03 -0.56172150103E+03  0.10285707706E+04  0.65864270000E+03 0. -1.
    8880022    1    1    2    0    0  0.54569751876E+03  0.10407111556E+03  0.40315548886E+03  0.70323721480E+03  0.15294330000E+03 0.  0.
<mgrwt>
<rscale>  0 0.77918165E+03</rscale>
<asrwt>0</asrwt>
<pdfrwt beam="1">  1        2 0.14541338E+00 0.86164191E+03</pdfrwt>
<pdfrwt beam="2">  1       -2 0.12101861E+00 0.86164191E+03</pdfrwt>
<totfact> 0.14288066E+01</totfact>
</mgrwt>
</event>
<event>
 4    1  0.3565372E-007  0.6758609E+03  0.7818608E-02  0.1011769E+00
         -2   -1    0    0    0  501 -0.00000000000E+00  0.00000000000E+00  0.65657854805E+03  0.65657854806E+03  0.25500000000E-02 0.  1.
          2   -1    0    0  501    0  0.00000000000E+00 -0.00000000000E+00 -0.25100192506E+04  0.25100192506E+04  0.25500000000E-02 0. -1.
    8880023    1    1    2    0    0  0.69543552553E+02 -0.13469007833E+03 -0.24451951656E+04  0.25368814176E+04  0.65864270000E+03 0. -1.
    8880022    1    1    2    0    0 -0.69543552553E+02  0.13469007833E+03  0.59175446309E+03  0.62971638100E+03  0.15294330000E+03 0.  0.
<mgrwt>
<rscale>  0 0.50777567E+03</rscale>
<asrwt>0</asrwt>
<pdfrwt beam="1">  1        2 0.38615680E+00 0.67586088E+03</pdfrwt>
<pdfrwt beam="2">  1       -2 0.10101209E+00 0.67586088E+03</pdfrwt>
<totfact> 0.29542495E+00</totfact>
</mgrwt>
</event>
<event>
 4    1  0.3565372E-007  0.6595061E+03  0.7818608E-02  0.1024668E+00
         -2   -1    0    0    0  501 -0.00000000000E+00  0.00000000000E+00  0.29832316682E+03  0.29832316683E+03  0.25500000000E-02 0.  1.
          2   -1    0    0  501    0  0.00000000000E+00 -0.00000000000E+00 -0.15073249079E+04  0.15073249079E+04  0.25500000000E-02 0. -1.
    8880023    1    1    2    0    0 -0.20393778310E+02  0.26872385593E+02 -0.14065836993E+04  0.15535204989E+04  0.65864270000E+03 0. -1.
    8880022    1    1    2    0    0  0.20393778310E+02 -0.26872385593E+02  0.19758195814E+03  0.25212757584E+03  0.15294330000E+03 0.  0.
<mgrwt>
<rscale>  0 0.46038969E+03</rscale>
<asrwt>0</asrwt>
<pdfrwt beam="1">  1        2 0.23189614E+00 0.65950606E+03</pdfrwt>
<pdfrwt beam="2">  1       -2 0.45895873E-01 0.65950606E+03</pdfrwt>
<totfact> 0.58371955E+01</totfact>
</mgrwt>
</event>
<event>
 4    1  0.3565372E-007  0.6693514E+03  0.7818608E-02  0.1016132E+00
          2   -1    0    0  501    0  0.00000000000E+00  0.00000000000E+00  0.82827874446E+03  0.82827874446E+03  0.25500000000E-02 0. -1.
         -2   -1    0    0    0  501 -0.00000000000E+00 -0.00000000000E+00 -0.18632832975E+04  0.18632832975E+04  0.25500000000E-02 0.  1.
    8880023    1    1    2    0    0  0.48152712811E+02 -0.10909823713E+03  0.68671005118E+03  0.95895881546E+03  0.65864270000E+03 0. -1.
    8880022    1    1    2    0    0 -0.48152712811E+02  0.10909823713E+03 -0.17217146042E+04  0.17326032265E+04  0.15294330000E+03 0.  0.
<mgrwt>
<rscale>  0 0.49108599E+03</rscale>
<asrwt>0</asrwt>
<pdfrwt beam="1">  1        2 0.12742750E+00 0.66935141E+03</pdfrwt>
<pdfrwt beam="2">  1       -2 0.28665897E+00 0.66935141E+03</pdfrwt>
<totfact> 0.13324407E+00</totfact>
</mgrwt>
</event>
<event>
 4    1  0.3565372E-007  0.7269521E+03  0.7818608E-02  0.9899728E-01
         -2   -1    0    0    0  501 -0.00000000000E+00  0.00000000000E+00  0.33237339467E+03  0.33237339468E+03  0.25500000000E-02 0.  1.
          2   -1    0    0  501    0  0.00000000000E+00 -0.00000000000E+00 -0.12935932367E+04  0.12935932367E+04  0.25500000000E-02 0. -1.
    8880023    1    1    2    0    0 -0.21830264636E+03 -0.21677881529E+03 -0.10443813474E+04  0.12724746383E+04  0.65864270000E+03 0.  0.
    8880022    1    1    2    0    0  0.21830264636E+03  0.21677881529E+03  0.83161505360E+02  0.35349199305E+03  0.15294330000E+03 0.  0.
<mgrwt>
<rscale>  0 0.60274460E+03</rscale>
<asrwt>0</asrwt>
<pdfrwt beam="1">  1        2 0.19901434E+00 0.72695207E+03</pdfrwt>
<pdfrwt beam="2">  1       -2 0.51134369E-01 0.72695207E+03</pdfrwt>
<totfact> 0.61498430E+01</totfact>
</mgrwt>
</event>
<event>
 4    1  0.3565372E-007  0.1107309E+04  0.7818608E-02  0.9252962E-01
          2   -1    0    0  501    0  0.00000000000E+00  0.00000000000E+00  0.18684242970E+04  0.18684242970E+04  0.25500000000E-02 0. -1.
         -2   -1    0    0    0  501 -0.00000000000E+00 -0.00000000000E+00 -0.90070455890E+03  0.90070455891E+03  0.25500000000E-02 0.  1.
    8880023    1    1    2    0    0  0.56420280983E+03  0.68847519573E+03 -0.35910317947E+03  0.11640825596E+04  0.65864270000E+03 0.  1.
    8880022    1    1    2    0    0 -0.56420280983E+03 -0.68847519573E+03  0.13268229175E+04  0.16050462963E+04  0.15294330000E+03 0.  0.
<mgrwt>
<rscale>  0 0.10523105E+04</rscale>
<asrwt>0</asrwt>
<pdfrwt beam="1">  1        2 0.28744989E+00 0.11073090E+04</pdfrwt>
<pdfrwt beam="2">  1       -2 0.13856993E+00 0.11073090E+04</pdfrwt>
<totfact> 0.28685528E+00</totfact>
</mgrwt>
</event>
<event>
 4    1  0.3565372E-007  0.8765916E+03  0.7818608E-02  0.9564705E-01
         -2   -1    0    0    0  501 -0.00000000000E+00  0.00000000000E+00  0.83543524276E+03  0.83543524277E+03  0.25500000000E-02 0.  1.
          2   -1    0    0  501    0  0.00000000000E+00 -0.00000000000E+00 -0.72086175231E+03  0.72086175231E+03  0.25500000000E-02 0. -1.
    8880023    1    1    2    0    0 -0.29782035846E+03  0.49588878596E+03 -0.17132003971E+03  0.89317602757E+03  0.65864270000E+03 0.  0.
    8880022    1    1    2    0    0  0.29782035846E+03 -0.49588878596E+03  0.28589353017E+03  0.66312096751E+03  0.15294330000E+03 0.  0.
<mgrwt>
<rscale>  0 0.79676913E+03</rscale>
<asrwt>0</asrwt>
<pdfrwt beam="1">  1        2 0.11090181E+00 0.87659162E+03</pdfrwt>
<pdfrwt beam="2">  1       -2 0.12852850E+00 0.87659162E+03</pdfrwt>
<totfact> 0.17691424E+01</totfact>
</mgrwt>
</event>
<event>
 4    1  0.3565372E-007  0.6645250E+03  0.7818608E-02  0.1019935E+00
         -2   -1    0    0    0  501 -0.00000000000E+00  0.00000000000E+00  0.10581989623E+03  0.10581989626E+03  0.25500000000E-02 0.  1.
          2   -1    0    0  501    0  0.00000000000E+00 -0.00000000000E+00 -0.26194471471E+04  0.26194471471E+04  0.25500000000E-02 0. -1.
    8880023    1    1    2    0    0  0.45549261173E+02  0.75555262236E+02 -0.24484999137E+04  0.25370741744E+04  0.65864270000E+03 0. -1.
    8880022    1    1    2    0    0 -0.45549261173E+02 -0.75555262236E+02 -0.65127337114E+02  0.18819286889E+03  0.15294330000E+03 0.  0.
<mgrwt>
<rscale>  0 0.47709987E+03</rscale>
<asrwt>0</asrwt>
<pdfrwt beam="1">  1        2 0.40299182E+00 0.66452505E+03</pdfrwt>
<pdfrwt beam="2">  1       -2 0.16279986E-01 0.66452505E+03</pdfrwt>
<totfact> 0.95179437E+01</totfact>
</mgrwt>
</event>
<event>
 4    1  0.3565372E-007  0.1838819E+04  0.7818608E-02  0.8701362E-01
          2   -1    0    0  501    0  0.00000000000E+00  0.00000000000E+00  0.20022627468E+04  0.20022627468E+04  0.25500000000E-02 0. -1.
         -2   -1    0    0    0  501 -0.00000000000E+00 -0.00000000000E+00 -0.18631831199E+04  0.18631831199E+04  0.25500000000E-02 0.  1.
    8880023    1    1    2    0    0  0.16248782388E+04  0.55427057427E+03  0.81850029693E+03  0.20127588288E+04  0.65864270000E+03 0.  0.
    8880022    1    1    2    0    0 -0.16248782388E+04 -0.55427057427E+03 -0.67942067001E+03  0.18526870379E+04  0.15294330000E+03 0.  0.
<mgrwt>
<rscale>  0 0.18093146E+04</rscale>
<asrwt>0</asrwt>
<pdfrwt beam="1">  1        2 0.30804042E+00 0.18388190E+04</pdfrwt>
<pdfrwt beam="2">  1       -2 0.28664356E+00 0.18388190E+04</pdfrwt>
<totfact> 0.23121560E-01</totfact>
</mgrwt>
</event>
<event>
 4    1  0.3565372E-007  0.8179337E+03  0.7818608E-02  0.9673282E-01
         -2   -1    0    0    0  501 -0.00000000000E+00  0.00000000000E+00  0.39996653822E+03  0.39996653823E+03  0.25500000000E-02 0.  1.
          2   -1    0    0  501    0  0.00000000000E+00 -0.00000000000E+00 -0.11558676401E+04  0.11558676401E+04  0.25500000000E-02 0. -1.
    8880023    1    1    2    0    0  0.13330995663E+03  0.46629801947E+03 -0.62870856489E+03  0.10316443444E+04  0.65864270000E+03 0.  0.
    8880022    1    1    2    0    0 -0.13330995663E+03 -0.46629801947E+03 -0.12719253696E+03  0.52418983391E+03  0.15294330000E+03 0.  0.
<mgrwt>
<rscale>  0 0.72630082E+03</rscale>
<asrwt>0</asrwt>
<pdfrwt beam="1">  1        2 0.17782579E+00 0.81793373E+03</pdfrwt>
<pdfrwt beam="2">  1       -2 0.61533314E-01 0.81793373E+03</pdfrwt>
<totfact> 0.49979939E+01</totfact>
</mgrwt>
</event>
<event>
 4    1  0.3565372E-007  0.7403254E+03  0.7818608E-02  0.9859000E-01
         -2   -1    0    0    0  501 -0.00000000000E+00  0.00000000000E+00  0.13654776655E+04  0.13654776655E+04  0.25500000000E-02 0.  1.
          2   -1    0    0  501    0  0.00000000000E+00 -0.00000000000E+00 -0.72285212102E+03  0.72285212102E+03  0.25500000000E-02 0. -1.
    8880023    1    1    2    0    0 -0.20561969250E+03  0.26831327715E+03 -0.49577178257E+03  0.89099457871E+03  0.65864270000E+03 0.  0.
    8880022    1    1    2    0    0  0.20561969250E+03 -0.26831327715E+03  0.11383973271E+04  0.11973352078E+04  0.15294330000E+03 0.  1.
<mgrwt>
<rscale>  0 0.62290123E+03</rscale>
<asrwt>0</asrwt>
<pdfrwt beam="1">  1        2 0.11120802E+00 0.74032539E+03</pdfrwt>
<pdfrwt beam="2">  1       -2 0.21007349E+00 0.74032539E+03</pdfrwt>
<totfact> 0.46072515E+00</totfact>
</mgrwt>
</event>
<event>
 4    1  0.4116493E-007  0.6999126E+03  0.7818608E-02  0.9997564E-01
          2   -1    0    0  501    0  0.00000000000E+00  0.00000000000E+00  0.10431028409E+04  0.10431028409E+04  0.25500000000E-02 0. -1.
         -2   -1    0    0    0  501 -0.00000000000E+00 -0.00000000000E+00 -0.17522386770E+04  0.17522386770E+04  0.25500000000E-02 0.  1.
    8880023    1    1    2    0    0 -0.23566321177E+03  0.23028538142E+02  0.91214780917E+03  0.11497353152E+04  0.65864270000E+03 0.  0.
    8880022    1    1    2    0    0  0.23566321177E+03 -0.23028538142E+02 -0.16212836452E+04  0.16456062027E+04  0.15294330000E+03 0.  0.
<mgrwt>
<rscale>  0 0.55757184E+03</rscale>
<asrwt>0</asrwt>
<pdfrwt beam="1">  1        2 0.16047736E+00 0.69991262E+03</pdfrwt>
<pdfrwt beam="2">  1       -2 0.26957518E+00 0.69991262E+03</pdfrwt>
<totfact> 0.12095229E+00</totfact>
</mgrwt>
</event>
<event>
 4    1  0.3565372E-007  0.1266830E+04  0.7818608E-02  0.9094747E-01
         -2   -1    0    0    0  501 -0.00000000000E+00  0.00000000000E+00  0.80529593370E+03  0.80529593370E+03  0.25500000000E-02 0.  1.
          2   -1    0    0  501    0  0.00000000000E+00 -0.00000000000E+00 -0.18809357459E+04  0.18809357459E+04  0.25500000000E-02 0. -1.
    8880023    1    1    2    0    0  0.10004841978E+04 -0.41240781092E+03 -0.19305611632E+03  0.12814560869E+04  0.65864270000E+03 0.  0.
    8880022    1    1    2    0    0 -0.10004841978E+04  0.41240781092E+03 -0.88258369588E+03  0.14047755926E+04  0.15294330000E+03 0.  0.
<mgrwt>
<rscale>  0 0.12209121E+04</rscale>
<asrwt>0</asrwt>
<pdfrwt beam="1">  1        2 0.28937473E+00 0.12668303E+04</pdfrwt>
<pdfrwt beam="2">  1       -2 0.12389168E+00 0.12668303E+04</pdfrwt>
<totfact> 0.36959542E+00</totfact>
</mgrwt>
</event>
<event>
 4    1  0.3565372E-007  0.7602774E+03  0.7818608E-02  0.9804390E-01
          2   -1    0    0  501    0  0.00000000000E+00  0.00000000000E+00  0.90905410025E+03  0.90905410026E+03  0.25500000000E-02 0. -1.
         -2   -1    0    0    0  501 -0.00000000000E+00 -0.00000000000E+00 -0.42385243007E+03  0.42385243007E+03  0.25500000000E-02 0.  1.
    8880023    1    1    2    0    0  0.34899760153E+03  0.14970704695E+03  0.52144047595E+03  0.92191209017E+03  0.65864270000E+03 0. -1.
    8880022    1    1    2    0    0 -0.34899760153E+03 -0.14970704695E+03 -0.36238805767E+02  0.41099444016E+03  0.15294330000E+03 0.  1.
<mgrwt>
<rscale>  0 0.65127490E+03</rscale>
<asrwt>0</asrwt>
<pdfrwt beam="1">  1        2 0.13985448E+00 0.76027740E+03</pdfrwt>
<pdfrwt beam="2">  1       -2 0.65208067E-01 0.76027740E+03</pdfrwt>
<totfact> 0.63522002E+01</totfact>
</mgrwt>
</event>
<event>
 4    1  0.3565372E-007  0.9499618E+03  0.7818608E-02  0.9450169E-01
         -2   -1    0    0    0  501 -0.00000000000E+00  0.00000000000E+00  0.22197445752E+04  0.22197445752E+04  0.25500000000E-02 0.  1.
          2   -1    0    0  501    0  0.00000000000E+00 -0.00000000000E+00 -0.56497381003E+03  0.56497381003E+03  0.25500000000E-02 0. -1.
    8880023    1    1    2    0    0 -0.64770629865E+03 -0.22157125921E+03 -0.39713966872E+02  0.95079160579E+03  0.65864270000E+03 0. -1.
    8880022    1    1    2    0    0  0.64770629865E+03  0.22157125921E+03  0.16944847321E+04  0.18339267795E+04  0.15294330000E+03 0.  0.
<mgrwt>
<rscale>  0 0.88059505E+03</rscale>
<asrwt>0</asrwt>
<pdfrwt beam="1">  1        2 0.86919048E-01 0.94996183E+03</pdfrwt>
<pdfrwt beam="2">  1       -2 0.34149916E+00 0.94996183E+03</pdfrwt>
<totfact> 0.95666637E-01</totfact>
</mgrwt>
</event>
<event>
 4    1  0.3565372E-007  0.7212433E+03  0.7818608E-02  0.9918401E-01
          2   -1    0    0  501    0  0.00000000000E+00  0.00000000000E+00  0.42020125775E+04  0.42020125775E+04  0.25500000000E-02 0. -1.
         -2   -1    0    0    0  501 -0.00000000000E+00 -0.00000000000E+00 -0.10385176297E+03  0.10385176300E+03  0.25500000000E-02 0.  1.
    8880023    1    1    2    0    0 -0.27199506317E+03  0.11135712326E+03  0.37741465769E+04  0.38424437945E+04  0.65864270000E+03 0. -1.
    8880022    1    1    2    0    0  0.27199506317E+03 -0.11135712326E+03  0.32401423761E+03  0.46342054603E+03  0.15294330000E+03 0.  0.
<mgrwt>
<rscale>  0 0.59377715E+03</rscale>
<asrwt>0</asrwt>
<pdfrwt beam="1">  1        2 0.64646348E+00 0.72124332E+03</pdfrwt>
<pdfrwt beam="2">  1       -2 0.15977194E-01 0.72124332E+03</pdfrwt>
<totfact> 0.81609249E+00</totfact>
</mgrwt>
</event>
<event>
 4    1  0.3565372E-007  0.8377083E+03  0.7818608E-02  0.9634517E-01
         -2   -1    0    0    0  501 -0.00000000000E+00  0.00000000000E+00  0.47586054041E+03  0.47586054041E+03  0.25500000000E-02 0.  1.
          2   -1    0    0  501    0  0.00000000000E+00 -0.00000000000E+00 -0.40763740633E+04  0.40763740634E+04  0.25500000000E-02 0. -1.
    8880023    1    1    2    0    0  0.42294643263E+03  0.29843133979E+03 -0.38624705996E+04  0.39522695111E+04  0.65864270000E+03 0.  0.
    8880022    1    1    2    0    0 -0.42294643263E+03 -0.29843133979E+03  0.26195707662E+03  0.59996509269E+03  0.15294330000E+03 0.  0.
<mgrwt>
<rscale>  0 0.75053161E+03</rscale>
<asrwt>0</asrwt>
<pdfrwt beam="1">  1        2 0.62713445E+00 0.83770828E+03</pdfrwt>
<pdfrwt beam="2">  1       -2 0.73209317E-01 0.83770828E+03</pdfrwt>
<totfact> 0.54559028E-01</totfact>
</mgrwt>
</event>
<event>
 4    1  0.3565372E-007  0.6893751E+03  0.7818608E-02  0.1004451E+00
          2   -1    0    0  501    0  0.00000000000E+00  0.00000000000E+00  0.16038185290E+04  0.16038185290E+04  0.25500000000E-02 0. -1.
         -2   -1    0    0    0  501 -0.00000000000E+00 -0.00000000000E+00 -0.45649804569E+03  0.45649804569E+03  0.25500000000E-02 0.  1.
    8880023    1    1    2    0    0 -0.16057257278E+03 -0.12507720839E+03  0.14851181840E+04  0.16373191766E+04  0.65864270000E+03 0. -1.
    8880022    1    1    2    0    0  0.16057257278E+03  0.12507720839E+03 -0.33779770072E+03  0.42299739812E+03  0.15294330000E+03 0.  0.
<mgrwt>
<rscale>  0 0.53740899E+03</rscale>
<asrwt>0</asrwt>
<pdfrwt beam="1">  1        2 0.24674131E+00 0.68937513E+03</pdfrwt>
<pdfrwt beam="2">  1       -2 0.70230469E-01 0.68937513E+03</pdfrwt>
<totfact> 0.21176094E+01</totfact>
</mgrwt>
</event>
<event>
 4    1  0.3565372E-007  0.7565610E+03  0.7818608E-02  0.9814093E-01
          2   -1    0    0  501    0  0.00000000000E+00  0.00000000000E+00  0.11796956545E+04  0.11796956545E+04  0.25500000000E-02 0. -1.
         -2   -1    0    0    0  501 -0.00000000000E+00 -0.00000000000E+00 -0.40524481081E+03  0.40524481082E+03  0.25500000000E-02 0.  1.
    8880023    1    1    2    0    0 -0.61876023313E+02  0.36707722685E+03  0.88818405110E+03  0.11667285235E+04  0.65864270000E+03 0. -1.
    8880022    1    1    2    0    0  0.61876023313E+02 -0.36707722685E+03 -0.11373320745E+03  0.41821194175E+03  0.15294330000E+03 0.  0.
<mgrwt>
<rscale>  0 0.64611666E+03</rscale>
<asrwt>0</asrwt>
<pdfrwt beam="1">  1        2 0.18149163E+00 0.75656099E+03</pdfrwt>
<pdfrwt beam="2">  1       -2 0.62345358E-01 0.75656099E+03</pdfrwt>
<totfact> 0.47292357E+01</totfact>
</mgrwt>
</event>
<event>
 4    1  0.3565372E-007  0.8706827E+03  0.7818608E-02  0.9574836E-01
          2   -1    0    0  501    0  0.00000000000E+00  0.00000000000E+00  0.27673402913E+04  0.27673402913E+04  0.25500000000E-02 0. -1.
         -2   -1    0    0    0  501 -0.00000000000E+00 -0.00000000000E+00 -0.24396985429E+03  0.24396985430E+03  0.25500000000E-02 0.  1.
    8880023    1    1    2    0    0 -0.14538127202E+03 -0.55058373569E+03  0.77305371536E+03  0.11643454888E+04  0.65864270000E+03 0.  1.
    8880022    1    1    2    0    0  0.14538127202E+03  0.55058373569E+03  0.17503167217E+04  0.18469646568E+04  0.15294330000E+03 0.  0.
<mgrwt>
<rscale>  0 0.78984307E+03</rscale>
<asrwt>0</asrwt>
<pdfrwt beam="1">  1        2 0.42574464E+00 0.87068270E+03</pdfrwt>
<pdfrwt beam="2">  1       -2 0.37533826E-01 0.87068270E+03</pdfrwt>
<totfact> 0.16761664E+01</totfact>
</mgrwt>
</event>
<event>
 4    1  0.3565372E-007  0.1028105E+04  0.7818608E-02  0.9345677E-01
          2   -1    0    0  501    0  0.00000000000E+00  0.00000000000E+00  0.13555520793E+04  0.13555520793E+04  0.25500000000E-02 0. -1.
         -2   -1    0    0    0  501 -0.00000000000E+00 -0.00000000000E+00 -0.65911371738E+03  0.65911371738E+03  0.25500000000E-02 0.  1.
    8880023    1    1    2    0    0 -0.72665133423E+03 -0.30849279418E+03  0.63460199485E+03  0.12081886706E+04  0.65864270000E+03 0.  1.
    8880022    1    1    2    0    0  0.72665133423E+03  0.30849279418E+03  0.61836367054E+02  0.80647712609E+03  0.15294330000E+03 0.  0.
<mgrwt>
<rscale>  0 0.96684324E+03</rscale>
<asrwt>0</asrwt>
<pdfrwt beam="1">  1        2 0.20854647E+00 0.10281051E+04</pdfrwt>
<pdfrwt beam="2">  1       -2 0.10140211E+00 0.10281051E+04</pdfrwt>
<totfact> 0.12165699E+01</totfact>
</mgrwt>
</event>
<event>
 4    1  0.3565372E-007  0.1526714E+04  0.7818608E-02  0.8890999E-01
          2   -1    0    0  501    0  0.00000000000E+00  0.00000000000E+00  0.10246643278E+04  0.10246643278E+04  0.25500000000E-02 0. -1.
         -2   -1    0    0    0  501 -0.00000000000E+00 -0.00000000000E+00 -0.36218177465E+04  0.36218177465E+04  0.25500000000E-02 0.  1.
    8880023    1    1    2    0    0  0.13750675794E+04  0.78956993505E+02  0.18540891526E+03  0.15379309890E+04  0.65864270000E+03 0.  0.
    8880022    1    1    2    0    0 -0.13750675794E+04 -0.78956993505E+02 -0.27825623339E+04  0.31085510853E+04  0.15294330000E+03 0.  0.
<mgrwt>
<rscale>  0 0.14901955E+04</rscale>
<asrwt>0</asrwt>
<pdfrwt beam="1">  1        2 0.15764067E+00 0.15267139E+04</pdfrwt>
<pdfrwt beam="2">  1       -2 0.55720273E+00 0.15267139E+04</pdfrwt>
<totfact> 0.17592123E-02</totfact>
</mgrwt>
</event>
<event>
 4    1  0.3565372E-007  0.7948571E+03  0.7818608E-02  0.9722028E-01
         -2   -1    0    0    0  501 -0.00000000000E+00  0.00000000000E+00  0.48511636434E+03  0.48511636434E+03  0.25500000000E-02 0.  1.
          2   -1    0    0  501    0  0.00000000000E+00 -0.00000000000E+00 -0.13310272716E+04  0.13310272716E+04  0.25500000000E-02 0. -1.
    8880023    1    1    2    0    0 -0.12377745842E+03 -0.42739522236E+03  0.58143147615E+02  0.79698078219E+03  0.65864270000E+03 0.  0.
    8880022    1    1    2    0    0  0.12377745842E+03  0.42739522236E+03 -0.90405405490E+03  0.10191628538E+04  0.15294330000E+03 0.  0.
<mgrwt>
<rscale>  0 0.69720240E+03</rscale>
<asrwt>0</asrwt>
<pdfrwt beam="1">  1        2 0.20477343E+00 0.79485706E+03</pdfrwt>
<pdfrwt beam="2">  1       -2 0.74633287E-01 0.79485706E+03</pdfrwt>
<totfact> 0.26005041E+01</totfact>
</mgrwt>
</event>
<event>
 4    1  0.3565372E-007  0.8962537E+03  0.7818608E-02  0.9532073E-01
          2   -1    0    0  501    0  0.00000000000E+00  0.00000000000E+00  0.21607243470E+04  0.21607243470E+04  0.25500000000E-02 0. -1.
         -2   -1    0    0    0  501 -0.00000000000E+00 -0.00000000000E+00 -0.44178777718E+03  0.44178777718E+03  0.25500000000E-02 0.  1.
    8880023    1    1    2    0    0 -0.55252806608E+03 -0.25332418141E+03  0.17592960877E+04  0.19744349407E+04  0.65864270000E+03 0.  0.
    8880022    1    1    2    0    0  0.55252806608E+03  0.25332418141E+03 -0.40359517867E+02  0.62807718346E+03  0.15294330000E+03 0.  0.
<mgrwt>
<rscale>  0 0.81959978E+03</rscale>
<asrwt>0</asrwt>
<pdfrwt beam="1">  1        2 0.33241913E+00 0.89625365E+03</pdfrwt>
<pdfrwt beam="2">  1       -2 0.67967350E-01 0.89625365E+03</pdfrwt>
<totfact> 0.10964398E+01</totfact>
</mgrwt>
</event>
<event>
 4    1  0.3565372E-007  0.8025419E+03  0.7818608E-02  0.9705327E-01
         -2   -1    0    0    0  501 -0.00000000000E+00  0.00000000000E+00  0.52048309256E+03  0.52048309257E+03  0.25500000000E-02 0.  1.
          2   -1    0    0  501    0  0.00000000000E+00 -0.00000000000E+00 -0.13960825729E+04  0.13960825729E+04  0.25500000000E-02 0. -1.
    8880023    1    1    2    0    0  0.23720943237E+03  0.39242184808E+03 -0.11176728889E+04  0.13759600701E+04  0.65864270000E+03 0. -1.
    8880022    1    1    2    0    0 -0.23720943237E+03 -0.39242184808E+03  0.24207340852E+03  0.54060559541E+03  0.15294330000E+03 0.  0.
<mgrwt>
<rscale>  0 0.70700523E+03</rscale>
<asrwt>0</asrwt>
<pdfrwt beam="1">  1        2 0.21478193E+00 0.80254185E+03</pdfrwt>
<pdfrwt beam="2">  1       -2 0.80074322E-01 0.80254185E+03</pdfrwt>
<totfact> 0.20386083E+01</totfact>
</mgrwt>
</event>
<event>
 4    1  0.3565372E-007  0.8958932E+03  0.7818608E-02  0.9532657E-01
          2   -1    0    0  501    0  0.00000000000E+00  0.00000000000E+00  0.49151814231E+03  0.49151814232E+03  0.25500000000E-02 0. -1.
         -2   -1    0    0    0  501 -0.00000000000E+00 -0.00000000000E+00 -0.22582462938E+04  0.22582462938E+04  0.25500000000E-02 0.  1.
    8880023    1    1    2    0    0  0.55256982777E+03  0.25195454071E+03 -0.22131079665E+02  0.89616655600E+03  0.65864270000E+03 0.  0.
    8880022    1    1    2    0    0 -0.55256982777E+03 -0.25195454071E+03 -0.17445970718E+04  0.18535978801E+04  0.15294330000E+03 0. -1.
<mgrwt>
<rscale>  0 0.81918407E+03</rscale>
<asrwt>0</asrwt>
<pdfrwt beam="1">  1        2 0.75618177E-01 0.89589325E+03</pdfrwt>
<pdfrwt beam="2">  1       -2 0.34742250E+00 0.89589325E+03</pdfrwt>
<totfact> 0.10440099E+00</totfact>
</mgrwt>
</event>
<event>
 4    1  0.3565372E-007  0.9831152E+03  0.7818608E-02  0.9403989E-01
          2   -1    0    0  501    0  0.00000000000E+00  0.00000000000E+00  0.30232265250E+04  0.30232265250E+04  0.25500000000E-02 0. -1.
         -2   -1    0    0    0  501 -0.00000000000E+00 -0.00000000000E+00 -0.52796727004E+03  0.52796727004E+03  0.25500000000E-02 0.  1.
    8880023    1    1    2    0    0  0.61450660186E+03  0.39381085402E+03  0.26170310065E+04  0.27955977621E+04  0.65864270000E+03 0. -1.
    8880022    1    1    2    0    0 -0.61450660186E+03 -0.39381085402E+03 -0.12177175152E+03  0.75559603292E+03  0.15294330000E+03 0.  0.
<mgrwt>
<rscale>  0 0.91748112E+03</rscale>
<asrwt>0</asrwt>
<pdfrwt beam="1">  1        2 0.46511176E+00 0.98311523E+03</pdfrwt>
<pdfrwt beam="2">  1       -2 0.81225736E-01 0.98311523E+03</pdfrwt>
<totfact> 0.23036322E+00</totfact>
</mgrwt>
</event>
<event>
 4    1  0.3565372E-007  0.7357017E+03  0.7818608E-02  0.9872649E-01
         -2   -1    0    0    0  501 -0.00000000000E+00  0.00000000000E+00  0.87470486228E+03  0.87470486228E+03  0.25500000000E-02 0.  1.
          2   -1    0    0  501    0  0.00000000000E+00 -0.00000000000E+00 -0.63959929373E+03  0.63959929373E+03  0.25500000000E-02 0. -1.
    8880023    1    1    2    0    0 -0.29266048633E+03  0.14763697639E+03 -0.35909846359E+03  0.81866278154E+03  0.65864270000E+03 0. -1.
    8880022    1    1    2    0    0  0.29266048633E+03 -0.14763697639E+03  0.59420403214E+03  0.69564137448E+03  0.15294330000E+03 0.  0.
<mgrwt>
<rscale>  0 0.61605328E+03</rscale>
<asrwt>0</asrwt>
<pdfrwt beam="1">  1        2 0.98399892E-01 0.73570174E+03</pdfrwt>
<pdfrwt beam="2">  1       -2 0.13456998E+00 0.73570174E+03</pdfrwt>
<totfact> 0.18520816E+01</totfact>
</mgrwt>
</event>
<event>
 4    1  0.3565372E-007  0.8813247E+03  0.7818608E-02  0.9556702E-01
         -2   -1    0    0    0  501 -0.00000000000E+00  0.00000000000E+00  0.38220626559E+03  0.38220626560E+03  0.25500000000E-02 0.  1.
          2   -1    0    0  501    0  0.00000000000E+00 -0.00000000000E+00 -0.15646135429E+04  0.15646135429E+04  0.25500000000E-02 0. -1.
    8880023    1    1    2    0    0  0.28758207149E+02 -0.58488970621E+03 -0.95693882386E+03  0.13009477783E+04  0.65864270000E+03 0. -1.
    8880022    1    1    2    0    0 -0.28758207149E+02  0.58488970621E+03 -0.22546845342E+03  0.64587203021E+03  0.15294330000E+03 0.  1.
<mgrwt>
<rscale>  0 0.80229436E+03</rscale>
<asrwt>0</asrwt>
<pdfrwt beam="1">  1        2 0.24070977E+00 0.88132469E+03</pdfrwt>
<pdfrwt beam="2">  1       -2 0.58800964E-01 0.88132469E+03</pdfrwt>
<totfact> 0.31866075E+01</totfact>
</mgrwt>
</event>
<event>
 4    1  0.3565372E-007  0.9180832E+03  0.7818608E-02  0.9497604E-01
         -2   -1    0    0    0  501 -0.00000000000E+00  0.00000000000E+00  0.81649975340E+03  0.81649975341E+03  0.25500000000E-02 0.  1.
          2   -1    0    0  501    0  0.00000000000E+00 -0.00000000000E+00 -0.88724589081E+03  0.88724589082E+03  0.25500000000E-02 0. -1.
    8880023    1    1    2    0    0 -0.11240937751E+03 -0.62962740054E+03 -0.35893582412E+03  0.98575436279E+03  0.65864270000E+03 0.  0.
    8880022    1    1    2    0    0  0.11240937751E+03  0.62962740054E+03  0.28818968671E+03  0.71799128143E+03  0.15294330000E+03 0.  0.
<mgrwt>
<rscale>  0 0.84460674E+03</rscale>
<asrwt>0</asrwt>
<pdfrwt beam="1">  1        2 0.13649937E+00 0.91808319E+03</pdfrwt>
<pdfrwt beam="2">  1       -2 0.12561535E+00 0.91808319E+03</pdfrwt>
<totfact> 0.14158258E+01</totfact>
</mgrwt>
</event>
<event>
 4    1  0.3565372E-007  0.6886276E+03  0.7818608E-02  0.1004812E+00
          2   -1    0    0  501    0  0.00000000000E+00  0.00000000000E+00  0.40046628776E+04  0.40046628776E+04  0.25500000000E-02 0. -1.
         -2   -1    0    0    0  501 -0.00000000000E+00 -0.00000000000E+00 -0.13693810329E+03  0.13693810332E+03  0.25500000000E-02 0.  1.
    8880023    1    1    2    0    0 -0.51557657627E+02  0.19426674346E+03  0.38237157698E+04  0.38852297556E+04  0.65864270000E+03 0. -1.
    8880022    1    1    2    0    0  0.51557657627E+02 -0.19426674346E+03  0.44009004558E+02  0.25637122532E+03  0.15294330000E+03 0.  0.
<mgrwt>
<rscale>  0 0.53589770E+03</rscale>
<asrwt>0</asrwt>
<pdfrwt beam="1">  1        2 0.61610208E+00 0.68862760E+03</pdfrwt>
<pdfrwt beam="2">  1       -2 0.21067397E-01 0.68862760E+03</pdfrwt>
<totfact> 0.73822179E+00</totfact>
</mgrwt>
</event>
<event>
 4    1  0.3565372E-007  0.7959459E+03  0.7818608E-02  0.9719631E-01
         -2   -1    0    0    0  501 -0.00000000000E+00  0.00000000000E+00  0.76216538875E+03  0.76216538875E+03  0.25500000000E-02 0.  1.
          2   -1    0    0  501    0  0.00000000000E+00 -0.00000000000E+00 -0.56829507098E+03  0.56829507099E+03  0.25500000000E-02 0. -1.
    8880023    1    1    2    0    0 -0.26521147089E+03  0.35969792746E+03 -0.52589018770E+02  0.79768134895E+03  0.65864270000E+03 0.  1.
    8880022    1    1    2    0    0  0.26521147089E+03 -0.35969792746E+03  0.24645933653E+03  0.53277911078E+03  0.15294330000E+03 0.  0.
<mgrwt>
<rscale>  0 0.69859889E+03</rscale>
<asrwt>0</asrwt>
<pdfrwt beam="1">  1        2 0.87430011E-01 0.79594593E+03</pdfrwt>
<pdfrwt beam="2">  1       -2 0.11725621E+00 0.79594593E+03</pdfrwt>
<totfact> 0.30037036E+01</totfact>
</mgrwt>
</event>
<event>
 4    1  0.3565372E-007  0.8378758E+03  0.7818608E-02  0.9634199E-01
          2   -1    0    0  501    0  0.00000000000E+00  0.00000000000E+00  0.22274951611E+04  0.22274951611E+04  0.25500000000E-02 0. -1.
         -2   -1    0    0    0  501 -0.00000000000E+00 -0.00000000000E+00 -0.21810884919E+03  0.21810884921E+03  0.25500000000E-02 0.  1.
    8880023    1    1    2    0    0  0.45794326475E+03  0.24189576072E+03  0.13981682820E+04  0.16300031729E+04  0.65864270000E+03 0.  0.
    8880022    1    1    2    0    0 -0.45794326475E+03 -0.24189576072E+03  0.61121802992E+03  0.81560083736E+03  0.15294330000E+03 0.  0.
<mgrwt>
<rscale>  0 0.75073450E+03</rscale>
<asrwt>0</asrwt>
<pdfrwt beam="1">  1        2 0.34269157E+00 0.83787577E+03</pdfrwt>
<pdfrwt beam="2">  1       -2 0.33555207E-01 0.83787577E+03</pdfrwt>
<totfact> 0.42369582E+01</totfact>
</mgrwt>
</event>
<event>
 4    1  0.3565372E-007  0.7337667E+03  0.7818608E-02  0.9878491E-01
         -2   -1    0    0    0  501 -0.00000000000E+00  0.00000000000E+00  0.38192438215E+03  0.38192438216E+03  0.25500000000E-02 0.  1.
          2   -1    0    0  501    0  0.00000000000E+00 -0.00000000000E+00 -0.81015675915E+03  0.81015675916E+03  0.25500000000E-02 0. -1.
    8880023    1    1    2    0    0 -0.21139830700E+03  0.24477353533E+03 -0.17669509276E+03  0.75474147221E+03  0.65864270000E+03 0.  0.
    8880022    1    1    2    0    0  0.21139830700E+03 -0.24477353533E+03 -0.25153728424E+03  0.43733966911E+03  0.15294330000E+03 0.  0.
<mgrwt>
<rscale>  0 0.61315123E+03</rscale>
<asrwt>0</asrwt>
<pdfrwt beam="1">  1        2 0.12463950E+00 0.73376668E+03</pdfrwt>
<pdfrwt beam="2">  1       -2 0.58757598E-01 0.73376668E+03</pdfrwt>
<totfact> 0.92943881E+01</totfact>
</mgrwt>
</event>
<event>
 4    1  0.3565372E-007  0.8869665E+03  0.7818608E-02  0.9547287E-01
          2   -1    0    0  501    0  0.00000000000E+00  0.00000000000E+00  0.31421816028E+04  0.31421816028E+04  0.25500000000E-02 0. -1.
         -2   -1    0    0    0  501 -0.00000000000E+00 -0.00000000000E+00 -0.19980532191E+03  0.19980532193E+03  0.25500000000E-02 0.  1.
    8880023    1    1    2    0    0 -0.59104592531E+03 -0.59699593597E+02  0.22413420527E+04  0.24104613108E+04  0.65864270000E+03 0.  0.
    8880022    1    1    2    0    0  0.59104592531E+03  0.59699593597E+02  0.70103422810E+03  0.93152561386E+03  0.15294330000E+03 0.  0.
<mgrwt>
<rscale>  0 0.80885538E+03</rscale>
<asrwt>0</asrwt>
<pdfrwt beam="1">  1        2 0.48341256E+00 0.88696648E+03</pdfrwt>
<pdfrwt beam="2">  1       -2 0.30739280E-01 0.88696648E+03</pdfrwt>
<totfact> 0.14433912E+01</totfact>
</mgrwt>
</event>
<event>
 4    1  0.3565372E-007  0.7751730E+03  0.7818608E-02  0.9767300E-01
          2   -1    0    0  501    0  0.00000000000E+00  0.00000000000E+00  0.26556539086E+04  0.26556539086E+04  0.25500000000E-02 0. -1.
         -2   -1    0    0    0  501 -0.00000000000E+00 -0.00000000000E+00 -0.44649934758E+03  0.44649934759E+03  0.25500000000E-02 0.  1.
    8880023    1    1    2    0    0  0.35423934931E+03  0.20395437929E+03  0.24733528881E+04  0.25919814082E+04  0.65864270000E+03 0. -1.
    8880022    1    1    2    0    0 -0.35423934931E+03 -0.20395437929E+03 -0.26419832705E+03  0.51017184797E+03  0.15294330000E+03 0.  0.
<mgrwt>
<rscale>  0 0.67147304E+03</rscale>
<asrwt>0</asrwt>
<pdfrwt beam="1">  1        2 0.40856215E+00 0.77517296E+03</pdfrwt>
<pdfrwt beam="2">  1       -2 0.68692206E-01 0.77517296E+03</pdfrwt>
<totfact> 0.57373839E+00</totfact>
</mgrwt>
</event>
<event>
 4    1  0.3565372E-007  0.6650198E+03  0.7818608E-02  0.1019517E+00
         -2   -1    0    0    0  501 -0.00000000000E+00  0.00000000000E+00  0.86194695119E+02  0.86194695156E+02  0.25500000000E-02 0.  1.
          2   -1    0    0  501    0  0.00000000000E+00 -0.00000000000E+00 -0.20918808172E+04  0.20918808172E+04  0.25500000000E-02 0. -1.
    8880023    1    1    2    0    0  0.67156330337E+02 -0.62698556613E+02 -0.14692034186E+04  0.16127026921E+04  0.65864270000E+03 0.  1.
    8880022    1    1    2    0    0 -0.67156330337E+02  0.62698556613E+02 -0.53648270352E+03  0.56537282027E+03  0.15294330000E+03 0. -1.
<mgrwt>
<rscale>  0 0.47861374E+03</rscale>
<asrwt>0</asrwt>
<pdfrwt beam="1">  1        2 0.32182778E+00 0.66501977E+03</pdfrwt>
<pdfrwt beam="2">  1       -2 0.13260724E-01 0.66501977E+03</pdfrwt>
<totfact> 0.26461421E+02</totfact>
</mgrwt>
</event>
<event>
 4    1  0.3565372E-007  0.6983335E+03  0.7818608E-02  0.1000419E+00
         -2   -1    0    0    0  501 -0.00000000000E+00  0.00000000000E+00  0.46890906397E+03  0.46890906397E+03  0.25500000000E-02 0.  1.
          2   -1    0    0  501    0  0.00000000000E+00 -0.00000000000E+00 -0.15308312535E+04  0.15308312535E+04  0.25500000000E-02 0. -1.
    8880023    1    1    2    0    0 -0.22719486094E+03  0.47349188224E+02 -0.13985453039E+04  0.15632014022E+04  0.65864270000E+03 0. -1.
    8880022    1    1    2    0    0  0.22719486094E+03 -0.47349188224E+02  0.33662311434E+03  0.43653891532E+03  0.15294330000E+03 0.  0.
<mgrwt>
<rscale>  0 0.55467071E+03</rscale>
<asrwt>0</asrwt>
<pdfrwt beam="1">  1        2 0.23551250E+00 0.69833349E+03</pdfrwt>
<pdfrwt beam="2">  1       -2 0.72139857E-01 0.69833349E+03</pdfrwt>
<totfact> 0.21881159E+01</totfact>
</mgrwt>
</event>
<event>
 4    1  0.3565372E-007  0.7061146E+03  0.7818608E-02  0.9972722E-01
         -2   -1    0    0    0  501 -0.00000000000E+00  0.00000000000E+00  0.20142929551E+04  0.20142929551E+04  0.25500000000E-02 0.  1.
          2   -1    0    0  501    0  0.00000000000E+00 -0.00000000000E+00 -0.17365702141E+03  0.17365702143E+03  0.25500000000E-02 0. -1.
    8880023    1    1    2    0    0  0.25451976265E+03 -0.27041723973E+01  0.64624728070E+03  0.95720080244E+03  0.65864270000E+03 0.  0.
    8880022    1    1    2    0    0 -0.25451976265E+03  0.27041723973E+01  0.11943886530E+04  0.12307491741E+04  0.15294330000E+03 0.  0.
<mgrwt>
<rscale>  0 0.56862665E+03</rscale>
<asrwt>0</asrwt>
<pdfrwt beam="1">  1        2 0.26716464E-01 0.70611460E+03</pdfrwt>
<pdfrwt beam="2">  1       -2 0.30989124E+00 0.70611460E+03</pdfrwt>
<totfact> 0.58749552E+00</totfact>
</mgrwt>
</event>
<event>
 4    1  0.3565372E-007  0.9565098E+03  0.7818608E-02  0.9440809E-01
         -2   -1    0    0    0  501 -0.00000000000E+00  0.00000000000E+00  0.24208109286E+03  0.24208109287E+03  0.25500000000E-02 0.  1.
          2   -1    0    0  501    0  0.00000000000E+00 -0.00000000000E+00 -0.36281450504E+04  0.36281450504E+04  0.25500000000E-02 0. -1.
    8880023    1    1    2    0    0 -0.13426879884E+03 -0.68049437384E+03 -0.10133474474E+04  0.13934790843E+04  0.65864270000E+03 0.  1.
    8880022    1    1    2    0    0  0.13426879884E+03  0.68049437384E+03 -0.23727165102E+04  0.24767470589E+04  0.15294330000E+03 0.  0.
<mgrwt>
<rscale>  0 0.88792008E+03</rscale>
<asrwt>0</asrwt>
<pdfrwt beam="1">  1        2 0.55817613E+00 0.95650975E+03</pdfrwt>
<pdfrwt beam="2">  1       -2 0.37243247E-01 0.95650975E+03</pdfrwt>
<totfact> 0.46943016E+00</totfact>
</mgrwt>
</event>
<event>
 4    1  0.4261582E-007  0.1206973E+04  0.7818608E-02  0.9150374E-01
         -2   -1    0    0    0  501 -0.00000000000E+00  0.00000000000E+00  0.16229946240E+04  0.16229946240E+04  0.25500000000E-02 0.  1.
          2   -1    0    0  501    0  0.00000000000E+00 -0.00000000000E+00 -0.20110389204E+04  0.20110389204E+04  0.25500000000E-02 0. -1.
    8880023    1    1    2    0    0 -0.68325881076E+03 -0.74574203950E+03 -0.16279879644E+04  0.20266052429E+04  0.65864270000E+03 0.  0.
    8880022    1    1    2    0    0  0.68325881076E+03  0.74574203950E+03  0.12399436679E+04  0.16074283015E+04  0.15294330000E+03 0.  1.
<mgrwt>
<rscale>  0 0.11580668E+04</rscale>
<asrwt>0</asrwt>
<pdfrwt beam="1">  1        2 0.30939060E+00 0.12069731E+04</pdfrwt>
<pdfrwt beam="2">  1       -2 0.24969148E+00 0.12069731E+04</pdfrwt>
<totfact> 0.41330186E-01</totfact>
</mgrwt>
</event>
<event>
 4    1  0.3565372E-007  0.6828985E+03  0.7818608E-02  0.1007729E+00
         -2   -1    0    0    0  501 -0.00000000000E+00  0.00000000000E+00  0.19682891972E+03  0.19682891974E+03  0.25500000000E-02 0.  1.
          2   -1    0    0  501    0  0.00000000000E+00 -0.00000000000E+00 -0.23104198794E+04  0.23104198794E+04  0.25500000000E-02 0. -1.
    8880023    1    1    2    0    0  0.17057901021E+03  0.58677029952E+02 -0.21607479513E+04  0.22660940201E+04  0.65864270000E+03 0. -1.
    8880022    1    1    2    0    0 -0.17057901021E+03 -0.58677029952E+02  0.47156991656E+02  0.24115477902E+03  0.15294330000E+03 0.  0.
<mgrwt>
<rscale>  0 0.52387120E+03</rscale>
<asrwt>0</asrwt>
<pdfrwt beam="1">  1        2 0.35544919E+00 0.68289853E+03</pdfrwt>
<pdfrwt beam="2">  1       -2 0.30281374E-01 0.68289853E+03</pdfrwt>
<totfact> 0.47132481E+01</totfact>
</mgrwt>
</event>
<event>
 4    1  0.3565372E-007  0.9306185E+03  0.7818608E-02  0.9478566E-01
          2   -1    0    0  501    0  0.00000000000E+00  0.00000000000E+00  0.13730334079E+04  0.13730334079E+04  0.25500000000E-02 0. -1.
         -2   -1    0    0    0  501 -0.00000000000E+00 -0.00000000000E+00 -0.10761001779E+04  0.10761001779E+04  0.25500000000E-02 0.  1.
    8880023    1    1    2    0    0 -0.48056321514E+03  0.44866420965E+03  0.10731590754E+04  0.14204651295E+04  0.65864270000E+03 0. -1.
    8880022    1    1    2    0    0  0.48056321514E+03 -0.44866420965E+03 -0.77622584549E+03  0.10286684563E+04  0.15294330000E+03 0.  0.
<mgrwt>
<rscale>  0 0.85882675E+03</rscale>
<asrwt>0</asrwt>
<pdfrwt beam="1">  1        2 0.21123591E+00 0.93061849E+03</pdfrwt>
<pdfrwt beam="2">  1       -2 0.16555387E+00 0.93061849E+03</pdfrwt>
<totfact> 0.34403440E+00</totfact>
</mgrwt>
</event>
<event>
 4    1  0.3565372E-007  0.6839910E+03  0.7818608E-02  0.1007151E+00
         -2   -1    0    0    0  501 -0.00000000000E+00  0.00000000000E+00  0.23057927120E+03  0.23057927121E+03  0.25500000000E-02 0.  1.
          2   -1    0    0  501    0  0.00000000000E+00 -0.00000000000E+00 -0.12257963343E+04  0.12257963343E+04  0.25500000000E-02 0. -1.
    8880023    1    1    2    0    0 -0.18230664144E+03 -0.28244333287E+02 -0.10059939429E+04  0.12164980367E+04  0.65864270000E+03 0.  0.
    8880022    1    1    2    0    0  0.18230664144E+03  0.28244333287E+02  0.10776879780E+02  0.23987756883E+03  0.15294330000E+03 0.  0.
<mgrwt>
<rscale>  0 0.52622988E+03</rscale>
<asrwt>0</asrwt>
<pdfrwt beam="1">  1        2 0.18858405E+00 0.68399098E+03</pdfrwt>
<pdfrwt beam="2">  1       -2 0.35473735E-01 0.68399098E+03</pdfrwt>
<totfact> 0.13905275E+02</totfact>
</mgrwt>
</event>
<event>
 4    1  0.3565372E-007  0.6662394E+03  0.7818608E-02  0.1018516E+00
          2   -1    0    0  501    0  0.00000000000E+00  0.00000000000E+00  0.17394975247E+04  0.17394975247E+04  0.25500000000E-02 0. -1.
         -2   -1    0    0    0  501 -0.00000000000E+00 -0.00000000000E+00 -0.50067390307E+03  0.50067390308E+03  0.25500000000E-02 0.  1.
    8880023    1    1    2    0    0 -0.21261622419E+02 -0.98044044394E+02  0.16558166340E+04  0.17848259363E+04  0.65864270000E+03 0. -1.
    8880022    1    1    2    0    0  0.21261622419E+02  0.98044044394E+02 -0.41699301237E+03  0.45534549148E+03  0.15294330000E+03 0.  0.
<mgrwt>
<rscale>  0 0.48226143E+03</rscale>
<asrwt>0</asrwt>
<pdfrwt beam="1">  1        2 0.26761501E+00 0.66623937E+03</pdfrwt>
<pdfrwt beam="2">  1       -2 0.77026753E-01 0.66623937E+03</pdfrwt>
<totfact> 0.14613485E+01</totfact>
</mgrwt>
</event>
<event>
 4    1  0.3565372E-007  0.6967549E+03  0.7818608E-02  0.1001094E+00
         -2   -1    0    0    0  501 -0.00000000000E+00  0.00000000000E+00  0.47018415358E+03  0.47018415359E+03  0.25500000000E-02 0.  1.
          2   -1    0    0  501    0  0.00000000000E+00 -0.00000000000E+00 -0.66724015156E+03  0.66724015156E+03  0.25500000000E-02 0. -1.
    8880023    1    1    2    0    0 -0.21623329624E+03  0.70002513258E+02 -0.39361801378E+03  0.80025154626E+03  0.65864270000E+03 0.  0.
    8880022    1    1    2    0    0  0.21623329624E+03 -0.70002513258E+02  0.19656201580E+03  0.33717275889E+03  0.15294330000E+03 0.  0.
<mgrwt>
<rscale>  0 0.55173181E+03</rscale>
<asrwt>0</asrwt>
<pdfrwt beam="1">  1        2 0.10265233E+00 0.69675490E+03</pdfrwt>
<pdfrwt beam="2">  1       -2 0.72336024E-01 0.69675490E+03</pdfrwt>
<totfact> 0.76475334E+01</totfact>
</mgrwt>
</event>
<event>
 4    1  0.3565372E-007  0.2329358E+04  0.7818608E-02  0.8475336E-01
          2   -1    0    0  501    0  0.00000000000E+00  0.00000000000E+00  0.21524224130E+04  0.21524224130E+04  0.25500000000E-02 0. -1.
         -2   -1    0    0    0  501 -0.00000000000E+00 -0.00000000000E+00 -0.28186584152E+04  0.28186584152E+04  0.25500000000E-02 0.  1.
    8880023    1    1    2    0    0 -0.21872162588E+04  0.45627138362E+03  0.59048954492E+03  0.24030369633E+04  0.65864270000E+03 0.  0.
    8880022    1    1    2    0    0  0.21872162588E+04 -0.45627138362E+03 -0.12567255471E+04  0.25680438649E+04  0.15294330000E+03 0.  0.
<mgrwt>
<rscale>  0 0.23065685E+04</rscale>
<asrwt>0</asrwt>
<pdfrwt beam="1">  1        2 0.33114191E+00 0.23293580E+04</pdfrwt>
<pdfrwt beam="2">  1       -2 0.43363976E+00 0.23293580E+04</pdfrwt>
<totfact> 0.20898981E-02</totfact>
</mgrwt>
</event>
<event>
 4    1  0.3565372E-007  0.6610577E+03  0.7818608E-02  0.1023098E+00
          2   -1    0    0  501    0  0.00000000000E+00  0.00000000000E+00  0.25614835841E+04  0.25614835841E+04  0.25500000000E-02 0. -1.
         -2   -1    0    0    0  501 -0.00000000000E+00 -0.00000000000E+00 -0.16876804703E+03  0.16876804705E+03  0.25500000000E-02 0.  1.
    8880023    1    1    2    0    0  0.40590553859E+02  0.39235786782E+02  0.24648643747E+04  0.25519705390E+04  0.65864270000E+03 0. -1.
    8880022    1    1    2    0    0 -0.40590553859E+02 -0.39235786782E+02 -0.72148837636E+02  0.17828109214E+03  0.15294330000E+03 0.  0.
<mgrwt>
<rscale>  0 0.46585012E+03</rscale>
<asrwt>0</asrwt>
<pdfrwt beam="1">  1        2 0.39407439E+00 0.66105767E+03</pdfrwt>
<pdfrwt beam="2">  1       -2 0.25964315E-01 0.66105767E+03</pdfrwt>
<totfact> 0.45320499E+01</totfact>
</mgrwt>
</event>
<event>
 4    1  0.3565372E-007  0.6817462E+03  0.7818608E-02  0.1008353E+00
          2   -1    0    0  501    0  0.00000000000E+00  0.00000000000E+00  0.57913322869E+03  0.57913322870E+03  0.25500000000E-02 0. -1.
         -2   -1    0    0    0  501 -0.00000000000E+00 -0.00000000000E+00 -0.57645012326E+03  0.57645012327E+03  0.25500000000E-02 0.  1.
    8880023    1    1    2    0    0 -0.17384882184E+03 -0.27282244424E+02  0.32703589784E+03  0.75612857270E+03  0.65864270000E+03 0. -1.
    8880022    1    1    2    0    0  0.17384882184E+03  0.27282244424E+02 -0.32435279241E+03  0.39945477926E+03  0.15294330000E+03 0.  0.
<mgrwt>
<rscale>  0 0.52134641E+03</rscale>
<asrwt>0</asrwt>
<pdfrwt beam="1">  1        2 0.89097420E-01 0.68174624E+03</pdfrwt>
<pdfrwt beam="2">  1       -2 0.88684634E-01 0.68174624E+03</pdfrwt>
<totfact> 0.57547790E+01</totfact>
</mgrwt>
</event>
<event>
 4    1  0.3565372E-007  0.7849667E+03  0.7818608E-02  0.9744297E-01
         -2   -1    0    0    0  501 -0.00000000000E+00  0.00000000000E+00  0.51990481170E+03  0.51990481171E+03  0.25500000000E-02 0.  1.
          2   -1    0    0  501    0  0.00000000000E+00 -0.00000000000E+00 -0.13792958024E+04  0.13792958024E+04  0.25500000000E-02 0. -1.
    8880023    1    1    2    0    0 -0.36680893735E+03 -0.21866337865E+03 -0.11263340971E+04  0.13728806118E+04  0.65864270000E+03 0. -1.
    8880022    1    1    2    0    0  0.36680893735E+03  0.21866337865E+03  0.26694310646E+03  0.52632000226E+03  0.15294330000E+03 0.  0.
<mgrwt>
<rscale>  0 0.68439524E+03</rscale>
<asrwt>0</asrwt>
<pdfrwt beam="1">  1        2 0.21219935E+00 0.78496667E+03</pdfrwt>
<pdfrwt beam="2">  1       -2 0.79985357E-01 0.78496667E+03</pdfrwt>
<totfact> 0.20931329E+01</totfact>
</mgrwt>
</event>
<event>
 4    1  0.3565372E-007  0.7355810E+03  0.7818608E-02  0.9873011E-01
         -2   -1    0    0    0  501 -0.00000000000E+00  0.00000000000E+00  0.24669392051E+03  0.24669392052E+03  0.25500000000E-02 0.  1.
          2   -1    0    0  501    0  0.00000000000E+00 -0.00000000000E+00 -0.17077486897E+04  0.17077486897E+04  0.25500000000E-02 0. -1.
    8880023    1    1    2    0    0  0.30979098886E+03 -0.10629558981E+03 -0.14087181015E+04  0.15892029779E+04  0.65864270000E+03 0.  0.
    8880022    1    1    2    0    0 -0.30979098886E+03  0.10629558981E+03 -0.52336667646E+02  0.36523963228E+03  0.15294330000E+03 0. -1.
<mgrwt>
<rscale>  0 0.61587286E+03</rscale>
<asrwt>0</asrwt>
<pdfrwt beam="1">  1        2 0.26273056E+00 0.73558101E+03</pdfrwt>
<pdfrwt beam="2">  1       -2 0.37952912E-01 0.73558101E+03</pdfrwt>
<totfact> 0.65221419E+01</totfact>
</mgrwt>
</event>
<event>
 4    1  0.3565372E-007  0.9371330E+03  0.7818608E-02  0.9468874E-01
          2   -1    0    0  501    0  0.00000000000E+00  0.00000000000E+00  0.13035349808E+04  0.13035349808E+04  0.25500000000E-02 0. -1.
         -2   -1    0    0    0  501 -0.00000000000E+00 -0.00000000000E+00 -0.80994051665E+03  0.80994051665E+03  0.25500000000E-02 0.  1.
    8880023    1    1    2    0    0  0.61605603985E+03  0.25472144791E+03 -0.37373829299E+03  0.10089095986E+04  0.65864270000E+03 0.  0.
    8880022    1    1    2    0    0 -0.61605603985E+03 -0.25472144791E+03  0.86733275717E+03  0.11045658989E+04  0.15294330000E+03 0.  0.
<mgrwt>
<rscale>  0 0.86618053E+03</rscale>
<asrwt>0</asrwt>
<pdfrwt beam="1">  1        2 0.20054384E+00 0.93713300E+03</pdfrwt>
<pdfrwt beam="2">  1       -2 0.12460623E+00 0.93713300E+03</pdfrwt>
<totfact> 0.79449937E+00</totfact>
</mgrwt>
</event>
<event>
 4    1  0.3565372E-007  0.8626423E+03  0.7818608E-02  0.9588880E-01
          2   -1    0    0  501    0  0.00000000000E+00  0.00000000000E+00  0.29331139137E+04  0.29331139137E+04  0.25500000000E-02 0. -1.
         -2   -1    0    0    0  501 -0.00000000000E+00 -0.00000000000E+00 -0.79875611616E+03  0.79875611617E+03  0.25500000000E-02 0.  1.
    8880023    1    1    2    0    0 -0.35684837219E+03  0.42778596635E+03  0.27532650249E+04  0.28852417745E+04  0.65864270000E+03 0. -1.
    8880022    1    1    2    0    0  0.35684837219E+03 -0.42778596635E+03 -0.61890722735E+03  0.84662825539E+03  0.15294330000E+03 0.  0.
<mgrwt>
<rscale>  0 0.78036541E+03</rscale>
<asrwt>0</asrwt>
<pdfrwt beam="1">  1        2 0.45124828E+00 0.86264234E+03</pdfrwt>
<pdfrwt beam="2">  1       -2 0.12288556E+00 0.86264234E+03</pdfrwt>
<totfact> 0.99870953E-01</totfact>
</mgrwt>
</event>
<event>
 4    1  0.3565372E-007  0.6676095E+03  0.7818608E-02  0.1017438E+00
         -2   -1    0    0    0  501 -0.00000000000E+00  0.00000000000E+00  0.51363626656E+03  0.51363626657E+03  0.25500000000E-02 0.  1.
          2   -1    0    0  501    0  0.00000000000E+00 -0.00000000000E+00 -0.35685898239E+03  0.35685898240E+03  0.25500000000E-02 0. -1.
    8880023    1    1    2    0    0  0.21921066501E+02  0.10682572496E+03  0.10657896795E+03  0.67606327466E+03  0.65864270000E+03 0. -1.
    8880022    1    1    2    0    0 -0.21921066501E+02 -0.10682572496E+03  0.50198316215E+02  0.19443197431E+03  0.15294330000E+03 0.  1.
<mgrwt>
<rscale>  0 0.48622692E+03</rscale>
<asrwt>0</asrwt>
<pdfrwt beam="1">  1        2 0.54901382E-01 0.66760952E+03</pdfrwt>
<pdfrwt beam="2">  1       -2 0.79020964E-01 0.66760952E+03</pdfrwt>
<totfact> 0.13024277E+02</totfact>
</mgrwt>
</event>
<event>
 4    1  0.3565372E-007  0.6829998E+03  0.7818608E-02  0.1007675E+00
         -2   -1    0    0    0  501 -0.00000000000E+00  0.00000000000E+00  0.81218340125E+03  0.81218340125E+03  0.25500000000E-02 0.  1.
          2   -1    0    0  501    0  0.00000000000E+00 -0.00000000000E+00 -0.94614476734E+03  0.94614476735E+03  0.25500000000E-02 0. -1.
    8880023    1    1    2    0    0 -0.16923161536E+03 -0.63554871906E+02 -0.79973667600E+03  0.10516974463E+04  0.65864270000E+03 0. -1.
    8880022    1    1    2    0    0  0.16923161536E+03  0.63554871906E+02  0.66577530991E+03  0.70663072228E+03  0.15294330000E+03 0.  0.
<mgrwt>
<rscale>  0 0.52409133E+03</rscale>
<asrwt>0</asrwt>
<pdfrwt beam="1">  1        2 0.14556073E+00 0.68299983E+03</pdfrwt>
<pdfrwt beam="2">  1       -2 0.12495129E+00 0.68299983E+03</pdfrwt>
<totfact> 0.13427411E+01</totfact>
</mgrwt>
</event>
<event>
 4    1  0.3565372E-007  0.6772470E+03  0.7818608E-02  0.1010926E+00
         -2   -1    0    0    0  501 -0.00000000000E+00  0.00000000000E+00  0.30539155565E+03  0.30539155566E+03  0.25500000000E-02 0.  1.
          2   -1    0    0  501    0  0.00000000000E+00 -0.00000000000E+00 -0.13343618692E+04  0.13343618692E+04  0.25500000000E-02 0. -1.
    8880023    1    1    2    0    0 -0.12283212012E+03 -0.98821163947E+02 -0.11887533629E+04  0.13681367316E+04  0.65864270000E+03 0. -1.
    8880022    1    1    2    0    0  0.12283212012E+03  0.98821163947E+02  0.15978304938E+03  0.27161669327E+03  0.15294330000E+03 0.  0.
<mgrwt>
<rscale>  0 0.51108353E+03</rscale>
<asrwt>0</asrwt>
<pdfrwt beam="1">  1        2 0.20528644E+00 0.67724704E+03</pdfrwt>
<pdfrwt beam="2">  1       -2 0.46983317E-01 0.67724704E+03</pdfrwt>
<totfact> 0.69519661E+01</totfact>
</mgrwt>
</event>
<event>
 4    1  0.3565372E-007  0.6613749E+03  0.7818608E-02  0.1022790E+00
         -2   -1    0    0    0  501 -0.00000000000E+00  0.00000000000E+00  0.85308162228E+02  0.85308162266E+02  0.25500000000E-02 0.  1.
          2   -1    0    0  501    0  0.00000000000E+00 -0.00000000000E+00 -0.21393441372E+04  0.21393441372E+04  0.25500000000E-02 0. -1.
    8880023    1    1    2    0    0 -0.56778177824E+02  0.19563967036E+02 -0.18370231574E+04  0.19524525083E+04  0.65864270000E+03 0. -1.
    8880022    1    1    2    0    0  0.56778177824E+02 -0.19563967036E+02 -0.21701281763E+03  0.27219979117E+03  0.15294330000E+03 0. -1.
<mgrwt>
<rscale>  0 0.46693082E+03</rscale>
<asrwt>0</asrwt>
<pdfrwt beam="1">  1        2 0.32912983E+00 0.66137487E+03</pdfrwt>
<pdfrwt beam="2">  1       -2 0.13124334E-01 0.66137487E+03</pdfrwt>
<totfact> 0.25370158E+02</totfact>
</mgrwt>
</event>
<event>
 4    1  0.4123266E-007  0.6856393E+03  0.7818608E-02  0.1006298E+00
         -2   -1    0    0    0  501 -0.00000000000E+00  0.00000000000E+00  0.13541845461E+04  0.13541845461E+04  0.25500000000E-02 0.  1.
          2   -1    0    0  501    0  0.00000000000E+00 -0.00000000000E+00 -0.12452754252E+04  0.12452754252E+04  0.25500000000E-02 0. -1.
    8880023    1    1    2    0    0  0.28909183981E+02  0.18829580594E+03 -0.11381394316E+04  0.13287071248E+04  0.65864270000E+03 0. -1.
    8880022    1    1    2    0    0 -0.28909183981E+02 -0.18829580594E+03  0.12470485526E+04  0.12707528465E+04  0.15294330000E+03 0.  0.
<mgrwt>
<rscale>  0 0.52972789E+03</rscale>
<asrwt>0</asrwt>
<pdfrwt beam="1">  1        2 0.19158084E+00 0.68563931E+03</pdfrwt>
<pdfrwt beam="2">  1       -2 0.20833608E+00 0.68563931E+03</pdfrwt>
<totfact> 0.21748030E+00</totfact>
</mgrwt>
</event>
<event>
 4    1  0.3565372E-007  0.8207144E+03  0.7818608E-02  0.9667677E-01
         -2   -1    0    0    0  501 -0.00000000000E+00  0.00000000000E+00  0.17504145958E+04  0.17504145958E+04  0.25500000000E-02 0.  1.
          2   -1    0    0  501    0  0.00000000000E+00 -0.00000000000E+00 -0.72480023089E+03  0.72480023090E+03  0.25500000000E-02 0. -1.
    8880023    1    1    2    0    0  0.14707432363E+03 -0.46704505338E+03 -0.43377222605E+03  0.92829439776E+03  0.65864270000E+03 0.  0.
    8880022    1    1    2    0    0 -0.14707432363E+03  0.46704505338E+03  0.14593865909E+04  0.15469204289E+04  0.15294330000E+03 0.  1.
<mgrwt>
<rscale>  0 0.72974345E+03</rscale>
<asrwt>0</asrwt>
<pdfrwt beam="1">  1        2 0.11150773E+00 0.82071441E+03</pdfrwt>
<pdfrwt beam="2">  1       -2 0.26929455E+00 0.82071441E+03</pdfrwt>
<totfact> 0.19653456E+00</totfact>
</mgrwt>
</event>
<event>
 4    1  0.3565372E-007  0.9322079E+03  0.7818608E-02  0.9476189E-01
          2   -1    0    0  501    0  0.00000000000E+00  0.00000000000E+00  0.19530576195E+04  0.19530576195E+04  0.25500000000E-02 0. -1.
         -2   -1    0    0    0  501 -0.00000000000E+00 -0.00000000000E+00 -0.70378289758E+03  0.70378289758E+03  0.25500000000E-02 0.  1.
    8880023    1    1    2    0    0 -0.61156815024E+03 -0.24735741798E+03  0.16316320888E+04  0.18791579960E+04  0.65864270000E+03 0. -1.
    8880022    1    1    2    0    0  0.61156815024E+03  0.24735741798E+03 -0.38235736683E+03  0.77768252108E+03  0.15294330000E+03 0.  0.
<mgrwt>
<rscale>  0 0.86062309E+03</rscale>
<asrwt>0</asrwt>
<pdfrwt beam="1">  1        2 0.30047041E+00 0.93220786E+03</pdfrwt>
<pdfrwt beam="2">  1       -2 0.10827429E+00 0.93220786E+03</pdfrwt>
<totfact> 0.48814984E+00</totfact>
</mgrwt>
</event>
<event>
 4    1  0.3565372E-007  0.7620503E+03  0.7818608E-02  0.9799828E-01
         -2   -1    0    0    0  501 -0.00000000000E+00  0.00000000000E+00  0.13786998397E+04  0.13786998397E+04  0.25500000000E-02 0.  1.
          2   -1    0    0  501    0  0.00000000000E+00 -0.00000000000E+00 -0.50708883168E+03  0.50708883169E+03  0.25500000000E-02 0. -1.
    8880023    1    1    2    0    0 -0.38280594387E+03  0.19236498351E+02 -0.15649307233E+03  0.77795290441E+03  0.65864270000E+03 0. -1.
    8880022    1    1    2    0    0  0.38280594387E+03 -0.19236498351E+02  0.10281040803E+04  0.11078357669E+04  0.15294330000E+03 0.  0.
<mgrwt>
<rscale>  0 0.65371766E+03</rscale>
<asrwt>0</asrwt>
<pdfrwt beam="1">  1        2 0.78013667E-01 0.76205029E+03</pdfrwt>
<pdfrwt beam="2">  1       -2 0.21210767E+00 0.76205029E+03</pdfrwt>
<totfact> 0.68580437E+00</totfact>
</mgrwt>
</event>
<event>
 4    1  0.3565372E-007  0.9895082E+03  0.7818608E-02  0.9395415E-01
          2   -1    0    0  501    0  0.00000000000E+00  0.00000000000E+00  0.36814449829E+03  0.36814449829E+03  0.25500000000E-02 0. -1.
         -2   -1    0    0    0  501 -0.00000000000E+00 -0.00000000000E+00 -0.22711054152E+04  0.22711054152E+04  0.25500000000E-02 0.  1.
    8880023    1    1    2    0    0  0.48972802629E+03 -0.55270483480E+03 -0.67362004864E+03  0.11970339804E+04  0.65864270000E+03 0. -1.
    8880022    1    1    2    0    0 -0.48972802629E+03  0.55270483480E+03 -0.12293408683E+04  0.14422159331E+04  0.15294330000E+03 0.  1.
<mgrwt>
<rscale>  0 0.92453995E+03</rscale>
<asrwt>0</asrwt>
<pdfrwt beam="1">  1        2 0.56637616E-01 0.98950815E+03</pdfrwt>
<pdfrwt beam="2">  1       -2 0.34940082E+00 0.98950815E+03</pdfrwt>
<totfact> 0.13942507E+00</totfact>
</mgrwt>
</event>
<event>
 4    1  0.3565372E-007  0.8833835E+03  0.7818608E-02  0.9553251E-01
          2   -1    0    0  501    0  0.00000000000E+00  0.00000000000E+00  0.21214288985E+04  0.21214288985E+04  0.25500000000E-02 0. -1.
         -2   -1    0    0    0  501 -0.00000000000E+00 -0.00000000000E+00 -0.26493176983E+03  0.26493176984E+03  0.25500000000E-02 0.  1.
    8880023    1    1    2    0    0  0.54678560746E+03 -0.21813243451E+03  0.12168980308E+04  0.15037311207E+04  0.65864270000E+03 0.  1.
    8880022    1    1    2    0    0 -0.54678560746E+03  0.21813243451E+03  0.63959909785E+03  0.88262954771E+03  0.15294330000E+03 0. -1.
<mgrwt>
<rscale>  0 0.80469175E+03</rscale>
<asrwt>0</asrwt>
<pdfrwt beam="1">  1        2 0.32637366E+00 0.88338353E+03</pdfrwt>
<pdfrwt beam="2">  1       -2 0.40758736E-01 0.88338353E+03</pdfrwt>
<totfact> 0.33163489E+01</totfact>
</mgrwt>
</event>
<event>
 4    1  0.3565372E-007  0.7073153E+03  0.7818608E-02  0.9968109E-01
         -2   -1    0    0    0  501 -0.00000000000E+00  0.00000000000E+00  0.99364319315E+03  0.99364319315E+03  0.25500000000E-02 0.  1.
          2   -1    0    0  501    0  0.00000000000E+00 -0.00000000000E+00 -0.65146717152E+03  0.65146717153E+03  0.25500000000E-02 0. -1.
    8880023    1    1    2    0    0  0.55014388671E+02 -0.25190886686E+03 -0.42241178176E+03  0.82384863889E+03  0.65864270000E+03 0. -1.
    8880022    1    1    2    0    0 -0.55014388671E+02  0.25190886686E+03  0.76458780338E+03  0.82126172580E+03  0.15294330000E+03 0.  0.
<mgrwt>
<rscale>  0 0.57070992E+03</rscale>
<asrwt>0</asrwt>
<pdfrwt beam="1">  1        2 0.10022572E+00 0.70731525E+03</pdfrwt>
<pdfrwt beam="2">  1       -2 0.15286818E+00 0.70731525E+03</pdfrwt>
<totfact> 0.13024103E+01</totfact>
</mgrwt>
</event>
<event>
 4    1  0.3565372E-007  0.7901888E+03  0.7818608E-02  0.9732426E-01
          2   -1    0    0  501    0  0.00000000000E+00  0.00000000000E+00  0.19147998931E+04  0.19147998931E+04  0.25500000000E-02 0. -1.
         -2   -1    0    0    0  501 -0.00000000000E+00 -0.00000000000E+00 -0.30306223208E+03  0.30306223209E+03  0.25500000000E-02 0.  1.
    8880023    1    1    2    0    0 -0.38764387138E+03 -0.20079933569E+03  0.15646871390E+04  0.17528959448E+04  0.65864270000E+03 0. -1.
    8880022    1    1    2    0    0  0.38764387138E+03  0.20079933569E+03  0.47050522016E+02  0.46496618035E+03  0.15294330000E+03 0.  0.
<mgrwt>
<rscale>  0 0.69118571E+03</rscale>
<asrwt>0</asrwt>
<pdfrwt beam="1">  1        2 0.29458460E+00 0.79018881E+03</pdfrwt>
<pdfrwt beam="2">  1       -2 0.46624958E-01 0.79018881E+03</pdfrwt>
<totfact> 0.33317618E+01</totfact>
</mgrwt>
</event>
<event>
 4    1  0.3565372E-007  0.8075431E+03  0.7818608E-02  0.9694717E-01
         -2   -1    0    0    0  501 -0.00000000000E+00  0.00000000000E+00  0.53625833290E+03  0.53625833291E+03  0.25500000000E-02 0.  1.
          2   -1    0    0  501    0  0.00000000000E+00 -0.00000000000E+00 -0.26753012059E+04  0.26753012059E+04  0.25500000000E-02 0. -1.
    8880023    1    1    2    0    0  0.38964131245E+03  0.25786695602E+03 -0.24833476648E+04  0.26113486075E+04  0.65864270000E+03 0. -1.
    8880022    1    1    2    0    0 -0.38964131245E+03 -0.25786695602E+03  0.34430479181E+03  0.60021093130E+03  0.15294330000E+03 0.  0.
<mgrwt>
<rscale>  0 0.71332187E+03</rscale>
<asrwt>0</asrwt>
<pdfrwt beam="1">  1        2 0.41158479E+00 0.80754314E+03</pdfrwt>
<pdfrwt beam="2">  1       -2 0.82501284E-01 0.80754314E+03</pdfrwt>
<totfact> 0.37000949E+00</totfact>
</mgrwt>
</event>
<event>
 4    1  0.3565372E-007  0.1068300E+04  0.7818608E-02  0.9297199E-01
         -2   -1    0    0    0  501 -0.00000000000E+00  0.00000000000E+00  0.36813252278E+03  0.36813252279E+03  0.25500000000E-02 0.  1.
          2   -1    0    0  501    0  0.00000000000E+00 -0.00000000000E+00 -0.36177951578E+04  0.36177951578E+04  0.25500000000E-02 0. -1.
    8880023    1    1    2    0    0  0.30705206319E+03 -0.78305471683E+03 -0.28472244723E+04  0.30410447318E+04  0.65864270000E+03 0. -1.
    8880022    1    1    2    0    0 -0.30705206319E+03  0.78305471683E+03 -0.40243816275E+03  0.94488294879E+03  0.15294330000E+03 0.  0.
<mgrwt>
<rscale>  0 0.10104118E+04</rscale>
<asrwt>0</asrwt>
<pdfrwt beam="1">  1        2 0.55658384E+00 0.10683005E+04</pdfrwt>
<pdfrwt beam="2">  1       -2 0.56635775E-01 0.10683005E+04</pdfrwt>
<totfact> 0.20177184E+00</totfact>
</mgrwt>
</event>
<event>
 4    1  0.3565372E-007  0.7086873E+03  0.7818608E-02  0.9962908E-01
          2   -1    0    0  501    0  0.00000000000E+00  0.00000000000E+00  0.13976162755E+04  0.13976162755E+04  0.25500000000E-02 0. -1.
         -2   -1    0    0    0  501 -0.00000000000E+00 -0.00000000000E+00 -0.31859043854E+03  0.31859043855E+03  0.25500000000E-02 0.  1.
    8880023    1    1    2    0    0 -0.10171870677E+03  0.24099954921E+03  0.11969794362E+04  0.13910418596E+04  0.65864270000E+03 0. -1.
    8880022    1    1    2    0    0  0.10171870677E+03 -0.24099954921E+03 -0.11795359924E+03  0.32516485452E+03  0.15294330000E+03 0.  0.
<mgrwt>
<rscale>  0 0.57306995E+03</rscale>
<asrwt>0</asrwt>
<pdfrwt beam="1">  1        2 0.21501789E+00 0.70868730E+03</pdfrwt>
<pdfrwt beam="2">  1       -2 0.49013914E-01 0.70868730E+03</pdfrwt>
<totfact> 0.58580177E+01</totfact>
</mgrwt>
</event>
<event>
 4    1  0.3565372E-007  0.6780407E+03  0.7818608E-02  0.1010454E+00
          2   -1    0    0  501    0  0.00000000000E+00  0.00000000000E+00  0.16987033486E+04  0.16987033486E+04  0.25500000000E-02 0. -1.
         -2   -1    0    0    0  501 -0.00000000000E+00 -0.00000000000E+00 -0.34786295712E+03  0.34786295712E+03  0.25500000000E-02 0.  1.
    8880023    1    1    2    0    0 -0.12503375916E+03  0.10146670263E+03  0.15849409907E+04  0.17238843009E+04  0.65864270000E+03 0. -1.
    8880022    1    1    2    0    0  0.12503375916E+03 -0.10146670263E+03 -0.23410059920E+03  0.32268200482E+03  0.15294330000E+03 0.  0.
<mgrwt>
<rscale>  0 0.51294445E+03</rscale>
<asrwt>0</asrwt>
<pdfrwt beam="1">  1        2 0.26133898E+00 0.67804066E+03</pdfrwt>
<pdfrwt beam="2">  1       -2 0.53517377E-01 0.67804066E+03</pdfrwt>
<totfact> 0.33477724E+01</totfact>
</mgrwt>
</event>
<event>
 4    1  0.3565372E-007  0.7360320E+03  0.7818608E-02  0.9871660E-01
         -2   -1    0    0    0  501 -0.00000000000E+00  0.00000000000E+00  0.98026965740E+03  0.98026965741E+03  0.25500000000E-02 0.  1.
          2   -1    0    0  501    0  0.00000000000E+00 -0.00000000000E+00 -0.33112446080E+03  0.33112446081E+03  0.25500000000E-02 0. -1.
    8880023    1    1    2    0    0 -0.32540634985E+03 -0.45206752367E+02  0.26242420091E+03  0.78141513325E+03  0.65864270000E+03 0.  0.
    8880022    1    1    2    0    0  0.32540634985E+03  0.45206752367E+02  0.38672099569E+03  0.52997898496E+03  0.15294330000E+03 0.  0.
<mgrwt>
<rscale>  0 0.61654644E+03</rscale>
<asrwt>0</asrwt>
<pdfrwt beam="1">  1        2 0.50942225E-01 0.73603203E+03</pdfrwt>
<pdfrwt beam="2">  1       -2 0.15081071E+00 0.73603203E+03</pdfrwt>
<totfact> 0.29426974E+01</totfact>
</mgrwt>
</event>
<event>
 4    1  0.3565372E-007  0.8186702E+03  0.7818608E-02  0.9671792E-01
         -2   -1    0    0    0  501 -0.00000000000E+00  0.00000000000E+00  0.60187515907E+03  0.60187515907E+03  0.25500000000E-02 0.  1.
          2   -1    0    0  501    0  0.00000000000E+00 -0.00000000000E+00 -0.29919434494E+04  0.29919434494E+04  0.25500000000E-02 0. -1.
    8880023    1    1    2    0    0  0.36871487045E+03 -0.31695438992E+03 -0.28141168033E+04  0.29307804984E+04  0.65864270000E+03 0. -1.
    8880022    1    1    2    0    0 -0.36871487045E+03  0.31695438992E+03  0.42404851299E+03  0.66303811004E+03  0.15294330000E+03 0.  0.
<mgrwt>
<rscale>  0 0.72721385E+03</rscale>
<asrwt>0</asrwt>
<pdfrwt beam="1">  1        2 0.46029898E+00 0.81867023E+03</pdfrwt>
<pdfrwt beam="2">  1       -2 0.92596180E-01 0.81867023E+03</pdfrwt>
<totfact> 0.18345348E+00</totfact>
</mgrwt>
</event>
<event>
 4    1  0.3565372E-007  0.8568611E+03  0.7818608E-02  0.9599171E-01
         -2   -1    0    0    0  501 -0.00000000000E+00  0.00000000000E+00  0.94424904334E+03  0.94424904334E+03  0.25500000000E-02 0.  1.
          2   -1    0    0  501    0  0.00000000000E+00 -0.00000000000E+00 -0.77064461900E+03  0.77064461900E+03  0.25500000000E-02 0. -1.
    8880023    1    1    2    0    0  0.44956986174E+03  0.31350872088E+03 -0.36502011800E+03  0.93137031918E+03  0.65864270000E+03 0.  0.
    8880022    1    1    2    0    0 -0.44956986174E+03 -0.31350872088E+03  0.53862454234E+03  0.78352334316E+03  0.15294330000E+03 0.  0.
<mgrwt>
<rscale>  0 0.77351042E+03</rscale>
<asrwt>0</asrwt>
<pdfrwt beam="1">  1        2 0.11856071E+00 0.85686112E+03</pdfrwt>
<pdfrwt beam="2">  1       -2 0.14526908E+00 0.85686112E+03</pdfrwt>
<totfact> 0.11857292E+01</totfact>
</mgrwt>
</event>
<event>
 4    1  0.3565372E-007  0.6849394E+03  0.7818608E-02  0.1006657E+00
         -2   -1    0    0    0  501 -0.00000000000E+00  0.00000000000E+00  0.40356268800E+03  0.40356268800E+03  0.25500000000E-02 0.  1.
          2   -1    0    0  501    0  0.00000000000E+00 -0.00000000000E+00 -0.11430593384E+04  0.11430593384E+04  0.25500000000E-02 0. -1.
    8880023    1    1    2    0    0  0.12429765488E+03 -0.14100289404E+03 -0.98625763151E+03  0.12007689391E+04  0.65864270000E+03 0. -1.
    8880022    1    1    2    0    0 -0.12429765488E+03  0.14100289404E+03  0.24676098115E+03  0.34585308726E+03  0.15294330000E+03 0.  0.
<mgrwt>
<rscale>  0 0.52825117E+03</rscale>
<asrwt>0</asrwt>
<pdfrwt beam="1">  1        2 0.17585528E+00 0.68493936E+03</pdfrwt>
<pdfrwt beam="2">  1       -2 0.62086568E-01 0.68493936E+03</pdfrwt>
<totfact> 0.50532559E+01</totfact>
</mgrwt>
</event>
<event>
 4    1  0.3565372E-007  0.7456596E+03  0.7818608E-02  0.9843757E-01
         -2   -1    0    0    0  501 -0.00000000000E+00  0.00000000000E+00  0.55023618151E+03  0.55023618151E+03  0.25500000000E-02 0.  1.
          2   -1    0    0  501    0  0.00000000000E+00 -0.00000000000E+00 -0.79900725339E+03  0.79900725339E+03  0.25500000000E-02 0. -1.
    8880023    1    1    2    0    0 -0.34879839599E+03 -0.23188742005E+02 -0.49511510878E+03  0.89506827450E+03  0.65864270000E+03 0.  0.
    8880022    1    1    2    0    0  0.34879839599E+03  0.23188742005E+02  0.24634403690E+03  0.45417516041E+03  0.15294330000E+03 0.  0.
<mgrwt>
<rscale>  0 0.63066218E+03</rscale>
<asrwt>0</asrwt>
<pdfrwt beam="1">  1        2 0.12292419E+00 0.74565960E+03</pdfrwt>
<pdfrwt beam="2">  1       -2 0.84651720E-01 0.74565960E+03</pdfrwt>
<totfact> 0.42559335E+01</totfact>
</mgrwt>
</event>
<event>
 4    1  0.3565372E-007  0.7237851E+03  0.7818608E-02  0.9909980E-01
          2   -1    0    0  501    0  0.00000000000E+00  0.00000000000E+00  0.12357981080E+04  0.12357981080E+04  0.25500000000E-02 0. -1.
         -2   -1    0    0    0  501 -0.00000000000E+00 -0.00000000000E+00 -0.23534493420E+03  0.23534493422E+03  0.25500000000E-02 0.  1.
    8880023    1    1    2    0    0 -0.12865661415E+01 -0.30008840265E+03  0.80156712660E+03  0.10799883191E+04  0.65864270000E+03 0.  0.
    8880022    1    1    2    0    0  0.12865661415E+01  0.30008840265E+03  0.19888604722E+03  0.39115472316E+03  0.15294330000E+03 0.  0.
<mgrwt>
<rscale>  0 0.59780021E+03</rscale>
<asrwt>0</asrwt>
<pdfrwt beam="1">  1        2 0.19012279E+00 0.72378513E+03</pdfrwt>
<pdfrwt beam="2">  1       -2 0.36206913E-01 0.72378513E+03</pdfrwt>
<totfact> 0.13151132E+02</totfact>
</mgrwt>
</event>
<event>
 4    1  0.3565372E-007  0.6619977E+03  0.7818608E-02  0.1022197E+00
          2   -1    0    0  501    0  0.00000000000E+00  0.00000000000E+00  0.17328422372E+04  0.17328422372E+04  0.25500000000E-02 0. -1.
         -2   -1    0    0    0  501 -0.00000000000E+00 -0.00000000000E+00 -0.48165577647E+03  0.48165577648E+03  0.25500000000E-02 0.  1.
    8880023    1    1    2    0    0 -0.60755780074E+02 -0.27194410350E+02  0.16523556574E+04  0.17800337709E+04  0.65864270000E+03 0. -1.
    8880022    1    1    2    0    0  0.60755780074E+02  0.27194410350E+02 -0.40116919674E+03  0.43446424271E+03  0.15294330000E+03 0.  0.
<mgrwt>
<rscale>  0 0.46902048E+03</rscale>
<asrwt>0</asrwt>
<pdfrwt beam="1">  1        2 0.26659112E+00 0.66199774E+03</pdfrwt>
<pdfrwt beam="2">  1       -2 0.74100888E-01 0.66199774E+03</pdfrwt>
<totfact> 0.16066915E+01</totfact>
</mgrwt>
</event>
<event>
 4    1  0.3565372E-007  0.7111026E+03  0.7818608E-02  0.9953929E-01
          2   -1    0    0  501    0  0.00000000000E+00  0.00000000000E+00  0.18429104180E+04  0.18429104180E+04  0.25500000000E-02 0. -1.
         -2   -1    0    0    0  501 -0.00000000000E+00 -0.00000000000E+00 -0.15520020057E+03  0.15520020060E+03  0.25500000000E-02 0.  1.
    8880023    1    1    2    0    0  0.22629792321E+02  0.26710417084E+03  0.14259717658E+04  0.15934435756E+04  0.65864270000E+03 0. -1.
    8880022    1    1    2    0    0 -0.22629792321E+02 -0.26710417084E+03  0.26173845158E+03  0.40466704293E+03  0.15294330000E+03 0.  0.
<mgrwt>
<rscale>  0 0.57717356E+03</rscale>
<asrwt>0</asrwt>
<pdfrwt beam="1">  1        2 0.28352468E+00 0.71110263E+03</pdfrwt>
<pdfrwt beam="2">  1       -2 0.23876954E-01 0.71110263E+03</pdfrwt>
<totfact> 0.13052220E+02</totfact>
</mgrwt>
</event>
<event>
 4    1  0.3565372E-007  0.9300398E+03  0.7818608E-02  0.9479433E-01
         -2   -1    0    0    0  501 -0.00000000000E+00  0.00000000000E+00  0.11789397000E+04  0.11789397000E+04  0.25500000000E-02 0.  1.
          2   -1    0    0  501    0  0.00000000000E+00 -0.00000000000E+00 -0.12950265487E+04  0.12950265487E+04  0.25500000000E-02 0. -1.
    8880023    1    1    2    0    0 -0.15183783194E+03  0.63883418806E+03 -0.99779528782E+03  0.13640269388E+04  0.65864270000E+03 0. -1.
    8880022    1    1    2    0    0  0.15183783194E+03 -0.63883418806E+03  0.88170843914E+03  0.11099393099E+04  0.15294330000E+03 0.  0.
<mgrwt>
<rscale>  0 0.85817235E+03</rscale>
<asrwt>0</asrwt>
<pdfrwt beam="1">  1        2 0.19923485E+00 0.93003981E+03</pdfrwt>
<pdfrwt beam="2">  1       -2 0.18137534E+00 0.93003981E+03</pdfrwt>
<totfact> 0.29531878E+00</totfact>
</mgrwt>
</event>
<event>
 4    1  0.3565372E-007  0.1412201E+04  0.7818608E-02  0.8974260E-01
         -2   -1    0    0    0  501 -0.00000000000E+00  0.00000000000E+00  0.16075181313E+04  0.16075181313E+04  0.25500000000E-02 0.  1.
          2   -1    0    0  501    0  0.00000000000E+00 -0.00000000000E+00 -0.16231561953E+04  0.16231561953E+04  0.25500000000E-02 0. -1.
    8880023    1    1    2    0    0 -0.12456151122E+04 -0.94571965362E+02  0.89973102580E+03  0.16744631944E+04  0.65864270000E+03 0.  0.
    8880022    1    1    2    0    0  0.12456151122E+04  0.94571965362E+02 -0.91536908973E+03  0.15562111322E+04  0.15294330000E+03 0.  0.
<mgrwt>
<rscale>  0 0.13721072E+04</rscale>
<asrwt>0</asrwt>
<pdfrwt beam="1">  1        2 0.24971634E+00 0.14122008E+04</pdfrwt>
<pdfrwt beam="2">  1       -2 0.24731048E+00 0.14122008E+04</pdfrwt>
<totfact> 0.68505992E-01</totfact>
</mgrwt>
</event>
<event>
 4    1  0.3565372E-007  0.6640588E+03  0.7818608E-02  0.1020336E+00
         -2   -1    0    0    0  501 -0.00000000000E+00  0.00000000000E+00  0.26183724952E+03  0.26183724953E+03  0.25500000000E-02 0.  1.
          2   -1    0    0  501    0  0.00000000000E+00 -0.00000000000E+00 -0.27286838373E+04  0.27286838373E+04  0.25500000000E-02 0. -1.
    8880023    1    1    2    0    0  0.70183213507E+01  0.84348151569E+02 -0.26531855168E+04  0.27350260438E+04  0.65864270000E+03 0. -1.
    8880022    1    1    2    0    0 -0.70183213507E+01 -0.84348151569E+02  0.18633892904E+03  0.25549504300E+03  0.15294330000E+03 0.  0.
<mgrwt>
<rscale>  0 0.47565395E+03</rscale>
<asrwt>0</asrwt>
<pdfrwt beam="1">  1        2 0.41979749E+00 0.66405879E+03</pdfrwt>
<pdfrwt beam="2">  1       -2 0.40282656E-01 0.66405879E+03</pdfrwt>
<totfact> 0.15916531E+01</totfact>
</mgrwt>
</event>
<event>
 4    1  0.3565372E-007  0.7953304E+03  0.7818608E-02  0.9720985E-01
         -2   -1    0    0    0  501 -0.00000000000E+00  0.00000000000E+00  0.54933840205E+03  0.54933840205E+03  0.25500000000E-02 0.  1.
          2   -1    0    0  501    0  0.00000000000E+00 -0.00000000000E+00 -0.16727071435E+04  0.16727071435E+04  0.25500000000E-02 0. -1.
    8880023    1    1    2    0    0 -0.42662815691E+03 -0.12933930120E+03 -0.14464117787E+04  0.16506536520E+04  0.65864270000E+03 0.  0.
    8880022    1    1    2    0    0  0.42662815691E+03  0.12933930120E+03  0.32304303723E+03  0.57139189355E+03  0.15294330000E+03 0.  0.
<mgrwt>
<rscale>  0 0.69780978E+03</rscale>
<asrwt>0</asrwt>
<pdfrwt beam="1">  1        2 0.25733956E+00 0.79533040E+03</pdfrwt>
<pdfrwt beam="2">  1       -2 0.84513601E-01 0.79533040E+03</pdfrwt>
<totfact> 0.12667045E+01</totfact>
</mgrwt>
</event>
<event>
 4    1  0.3565372E-007  0.8609490E+03  0.7818608E-02  0.9591877E-01
          2   -1    0    0  501    0  0.00000000000E+00  0.00000000000E+00  0.75275978038E+03  0.75275978039E+03  0.25500000000E-02 0. -1.
         -2   -1    0    0    0  501 -0.00000000000E+00 -0.00000000000E+00 -0.14473226428E+04  0.14473226428E+04  0.25500000000E-02 0.  1.
    8880023    1    1    2    0    0 -0.25402225266E+03  0.49284455120E+03  0.41087440367E+03  0.95396595240E+03  0.65864270000E+03 0.  0.
    8880022    1    1    2    0    0  0.25402225266E+03 -0.49284455120E+03 -0.11054372661E+04  0.12461164708E+04  0.15294330000E+03 0.  0.
<mgrwt>
<rscale>  0 0.77836122E+03</rscale>
<asrwt>0</asrwt>
<pdfrwt beam="1">  1        2 0.11580920E+00 0.86094905E+03</pdfrwt>
<pdfrwt beam="2">  1       -2 0.22266502E+00 0.86094905E+03</pdfrwt>
<totfact> 0.35857700E+00</totfact>
</mgrwt>
</event>
<event>
 4    1  0.3565372E-007  0.8782585E+03  0.7818608E-02  0.9561876E-01
         -2   -1    0    0    0  501 -0.00000000000E+00  0.00000000000E+00  0.61553910928E+03  0.61553910928E+03  0.25500000000E-02 0.  1.
          2   -1    0    0  501    0  0.00000000000E+00 -0.00000000000E+00 -0.26980822789E+04  0.26980822789E+04  0.25500000000E-02 0. -1.
    8880023    1    1    2    0    0  0.54822059655E+03 -0.19230682288E+03 -0.24545911489E+04  0.26069820965E+04  0.65864270000E+03 0.  0.
    8880022    1    1    2    0    0 -0.54822059655E+03  0.19230682288E+03  0.37204797934E+03  0.70663929169E+03  0.15294330000E+03 0.  0.
<mgrwt>
<rscale>  0 0.79871720E+03</rscale>
<asrwt>0</asrwt>
<pdfrwt beam="1">  1        2 0.41508957E+00 0.87825847E+03</pdfrwt>
<pdfrwt beam="2">  1       -2 0.94698326E-01 0.87825847E+03</pdfrwt>
<totfact> 0.25809838E+00</totfact>
</mgrwt>
</event>
<event>
 4    1  0.3565372E-007  0.7558908E+03  0.7818608E-02  0.9815864E-01
         -2   -1    0    0    0  501 -0.00000000000E+00  0.00000000000E+00  0.38814085869E+03  0.38814085869E+03  0.25500000000E-02 0.  1.
          2   -1    0    0  501    0  0.00000000000E+00 -0.00000000000E+00 -0.16593508561E+04  0.16593508561E+04  0.25500000000E-02 0. -1.
    8880023    1    1    2    0    0 -0.50126662493E+02 -0.36748872269E+03 -0.14288267391E+04  0.16164518862E+04  0.65864270000E+03 0.  0.
    8880022    1    1    2    0    0  0.50126662493E+02  0.36748872269E+03  0.15761674169E+03  0.43103982864E+03  0.15294330000E+03 0.  0.
<mgrwt>
<rscale>  0 0.64518079E+03</rscale>
<asrwt>0</asrwt>
<pdfrwt beam="1">  1        2 0.25528474E+00 0.75589077E+03</pdfrwt>
<pdfrwt beam="2">  1       -2 0.59713979E-01 0.75589077E+03</pdfrwt>
<totfact> 0.27720964E+01</totfact>
</mgrwt>
</event>
<event>
 4    1  0.3565372E-007  0.6743189E+03  0.7818608E-02  0.1012739E+00
         -2   -1    0    0    0  501 -0.00000000000E+00  0.00000000000E+00  0.17398165526E+03  0.17398165528E+03  0.25500000000E-02 0.  1.
          2   -1    0    0  501    0  0.00000000000E+00 -0.00000000000E+00 -0.30585160600E+04  0.30585160600E+04  0.25500000000E-02 0. -1.
    8880023    1    1    2    0    0 -0.11517268657E+03 -0.87355994174E+02 -0.29387981478E+04  0.30151684161E+04  0.65864270000E+03 0. -1.
    8880022    1    1    2    0    0  0.11517268657E+03  0.87355994174E+02  0.54263743100E+02  0.21732929918E+03  0.15294330000E+03 0.  0.
<mgrwt>
<rscale>  0 0.50400416E+03</rscale>
<asrwt>0</asrwt>
<pdfrwt beam="1">  1        2 0.47054089E+00 0.67431893E+03</pdfrwt>
<pdfrwt beam="2">  1       -2 0.26766411E-01 0.67431893E+03</pdfrwt>
<totfact> 0.21757801E+01</totfact>
</mgrwt>
</event>
<event>
 4    1  0.3565372E-007  0.8178140E+03  0.7818608E-02  0.9673525E-01
         -2   -1    0    0    0  501 -0.00000000000E+00  0.00000000000E+00  0.60378304661E+03  0.60378304662E+03  0.25500000000E-02 0.  1.
          2   -1    0    0  501    0  0.00000000000E+00 -0.00000000000E+00 -0.94063418301E+03  0.94063418301E+03  0.25500000000E-02 0. -1.
    8880023    1    1    2    0    0 -0.29850051980E+03  0.38197767868E+03 -0.55802211903E+03  0.99005474541E+03  0.65864270000E+03 0. -1.
    8880022    1    1    2    0    0  0.29850051980E+03 -0.38197767868E+03  0.22117098263E+03  0.55436248421E+03  0.15294330000E+03 0.  0.
<mgrwt>
<rscale>  0 0.72615228E+03</rscale>
<asrwt>0</asrwt>
<pdfrwt beam="1">  1        2 0.14471295E+00 0.81781398E+03</pdfrwt>
<pdfrwt beam="2">  1       -2 0.92889699E-01 0.81781398E+03</pdfrwt>
<totfact> 0.27298739E+01</totfact>
</mgrwt>
</event>
<event>
 4    1  0.3565372E-007  0.6601532E+03  0.7818608E-02  0.1024000E+00
         -2   -1    0    0    0  501 -0.00000000000E+00  0.00000000000E+00  0.15037000519E+04  0.15037000520E+04  0.25500000000E-02 0.  1.
          2   -1    0    0  501    0  0.00000000000E+00 -0.00000000000E+00 -0.11202853079E+03  0.11202853082E+03  0.25500000000E-02 0. -1.
    8880023    1    1    2    0    0  0.36371677298E+02  0.25868832607E+02  0.11569584417E+04  0.13320492248E+04  0.65864270000E+03 0.  1.
    8880022    1    1    2    0    0 -0.36371677298E+02 -0.25868832607E+02  0.23471307949E+03  0.28367935792E+03  0.15294330000E+03 0.  1.
<mgrwt>
<rscale>  0 0.46270377E+03</rscale>
<asrwt>0</asrwt>
<pdfrwt beam="1">  1        2 0.17235161E-01 0.66015324E+03</pdfrwt>
<pdfrwt beam="2">  1       -2 0.23133844E+00 0.66015324E+03</pdfrwt>
<totfact> 0.29284999E+01</totfact>
</mgrwt>
</event>
<event>
 4    1  0.3565372E-007  0.6641200E+03  0.7818608E-02  0.1020283E+00
         -2   -1    0    0    0  501 -0.00000000000E+00  0.00000000000E+00  0.16923921593E+03  0.16923921594E+03  0.25500000000E-02 0.  1.
          2   -1    0    0  501    0  0.00000000000E+00 -0.00000000000E+00 -0.13064690978E+04  0.13064690978E+04  0.25500000000E-02 0. -1.
    8880023    1    1    2    0    0  0.38926862850E+01 -0.85029684834E+02 -0.11169896398E+04  0.12995080847E+04  0.65864270000E+03 0. -1.
    8880022    1    1    2    0    0 -0.38926862850E+01  0.85029684834E+02 -0.20240242002E+02  0.17620022906E+03  0.15294330000E+03 0.  0.
<mgrwt>
<rscale>  0 0.47584494E+03</rscale>
<asrwt>0</asrwt>
<pdfrwt beam="1">  1        2 0.20099524E+00 0.66412002E+03</pdfrwt>
<pdfrwt beam="2">  1       -2 0.26036803E-01 0.66412002E+03</pdfrwt>
<totfact> 0.22213543E+02</totfact>
</mgrwt>
</event>
<event>
 4    1  0.3565372E-007  0.6793452E+03  0.7818608E-02  0.1009696E+00
         -2   -1    0    0    0  501 -0.00000000000E+00  0.00000000000E+00  0.56545925794E+03  0.56545925794E+03  0.25500000000E-02 0.  1.
          2   -1    0    0  501    0  0.00000000000E+00 -0.00000000000E+00 -0.73581206017E+03  0.73581206018E+03  0.25500000000E-02 0. -1.
    8880023    1    1    2    0    0  0.14991707647E+03  0.72281552164E+02 -0.54011759521E+03  0.86789226032E+03  0.65864270000E+03 0. -1.
    8880022    1    1    2    0    0 -0.14991707647E+03 -0.72281552164E+02  0.36976479297E+03  0.43337905780E+03  0.15294330000E+03 0.  0.
<mgrwt>
<rscale>  0 0.51595448E+03</rscale>
<asrwt>0</asrwt>
<pdfrwt beam="1">  1        2 0.11320186E+00 0.67934524E+03</pdfrwt>
<pdfrwt beam="2">  1       -2 0.86993732E-01 0.67934524E+03</pdfrwt>
<totfact> 0.44769960E+01</totfact>
</mgrwt>
</event>
<event>
 4    1  0.3565372E-007  0.9010829E+03  0.7818608E-02  0.9524295E-01
         -2   -1    0    0    0  501 -0.00000000000E+00  0.00000000000E+00  0.10966131637E+04  0.10966131637E+04  0.25500000000E-02 0.  1.
          2   -1    0    0  501    0  0.00000000000E+00 -0.00000000000E+00 -0.13925108157E+04  0.13925108157E+04  0.25500000000E-02 0. -1.
    8880023    1    1    2    0    0 -0.61488623208E+03 -0.74210831718E+01 -0.11276780497E+04  0.14434708659E+04  0.65864270000E+03 0. -1.
    8880022    1    1    2    0    0  0.61488623208E+03  0.74210831718E+01  0.83178039767E+03  0.10456531135E+04  0.15294330000E+03 0.  0.
<mgrwt>
<rscale>  0 0.82516072E+03</rscale>
<asrwt>0</asrwt>
<pdfrwt beam="1">  1        2 0.21423243E+00 0.90108288E+03</pdfrwt>
<pdfrwt beam="2">  1       -2 0.16870972E+00 0.90108288E+03</pdfrwt>
<totfact> 0.31948289E+00</totfact>
</mgrwt>
</event>
<event>
 4    1  0.3565372E-007  0.8082023E+03  0.7818608E-02  0.9693334E-01
          2   -1    0    0  501    0  0.00000000000E+00  0.00000000000E+00  0.18661822103E+04  0.18661822103E+04  0.25500000000E-02 0. -1.
         -2   -1    0    0    0  501 -0.00000000000E+00 -0.00000000000E+00 -0.26120548215E+03  0.26120548216E+03  0.25500000000E-02 0.  1.
    8880023    1    1    2    0    0  0.46820223259E+03 -0.12940679109E+02  0.13479093695E+04  0.15716394836E+04  0.65864270000E+03 0.  0.
    8880022    1    1    2    0    0 -0.46820223259E+03  0.12940679109E+02  0.25706735870E+03  0.55574820891E+03  0.15294330000E+03 0.  0.
<mgrwt>
<rscale>  0 0.71415091E+03</rscale>
<asrwt>0</asrwt>
<pdfrwt beam="1">  1        2 0.28710495E+00 0.80820232E+03</pdfrwt>
<pdfrwt beam="2">  1       -2 0.40185459E-01 0.80820232E+03</pdfrwt>
<totfact> 0.47449099E+01</totfact>
</mgrwt>
</event>
<event>
 4    1  0.3565372E-007  0.8921641E+03  0.7818608E-02  0.9538730E-01
          2   -1    0    0  501    0  0.00000000000E+00  0.00000000000E+00  0.64430581240E+03  0.64430581240E+03  0.25500000000E-02 0. -1.
         -2   -1    0    0    0  501 -0.00000000000E+00 -0.00000000000E+00 -0.11011666617E+04  0.11011666617E+04  0.25500000000E-02 0.  1.
    8880023    1    1    2    0    0 -0.56284839048E+03 -0.21295122514E+03 -0.64015191376E+03  0.10980670353E+04  0.65864270000E+03 0.  1.
    8880022    1    1    2    0    0  0.56284839048E+03  0.21295122514E+03  0.18329106444E+03  0.64740543887E+03  0.15294330000E+03 0.  0.
<mgrwt>
<rscale>  0 0.81487684E+03</rscale>
<asrwt>0</asrwt>
<pdfrwt beam="1">  1        2 0.99123972E-01 0.89216408E+03</pdfrwt>
<pdfrwt beam="2">  1       -2 0.16941026E+00 0.89216408E+03</pdfrwt>
<totfact> 0.98036047E+00</totfact>
</mgrwt>
</event>
<event>
 4    1  0.3565372E-007  0.9027279E+03  0.7818608E-02  0.9521667E-01
         -2   -1    0    0    0  501 -0.00000000000E+00  0.00000000000E+00  0.51421511900E+03  0.51421511900E+03  0.25500000000E-02 0.  1.
          2   -1    0    0  501    0  0.00000000000E+00 -0.00000000000E+00 -0.20038674402E+04  0.20038674402E+04  0.25500000000E-02 0. -1.
    8880023    1    1    2    0    0 -0.45414932232E+03 -0.41815766376E+03 -0.47851081303E+01  0.90274057306E+03  0.65864270000E+03 0.  1.
    8880022    1    1    2    0    0  0.45414932232E+03  0.41815766376E+03 -0.14848672130E+04  0.16153419861E+04  0.15294330000E+03 0.  0.
<mgrwt>
<rscale>  0 0.82705109E+03</rscale>
<asrwt>0</asrwt>
<pdfrwt beam="1">  1        2 0.30828729E+00 0.90272789E+03</pdfrwt>
<pdfrwt beam="2">  1       -2 0.79110020E-01 0.90272789E+03</pdfrwt>
<totfact> 0.95550585E+00</totfact>
</mgrwt>
</event>
<event>
 4    1  0.3565372E-007  0.7009453E+03  0.7818608E-02  0.9993302E-01
         -2   -1    0    0    0  501 -0.00000000000E+00  0.00000000000E+00  0.35594895649E+03  0.35594895650E+03  0.25500000000E-02 0.  1.
          2   -1    0    0  501    0  0.00000000000E+00 -0.00000000000E+00 -0.12002007143E+04  0.12002007143E+04  0.25500000000E-02 0. -1.
    8880023    1    1    2    0    0  0.10664356633E+03 -0.21480502013E+03 -0.10081410869E+04  0.12278732444E+04  0.65864270000E+03 0. -1.
    8880022    1    1    2    0    0 -0.10664356633E+03  0.21480502013E+03  0.16388932911E+03  0.32827642639E+03  0.15294330000E+03 0.  0.
<mgrwt>
<rscale>  0 0.55944895E+03</rscale>
<asrwt>0</asrwt>
<pdfrwt beam="1">  1        2 0.18464626E+00 0.70094526E+03</pdfrwt>
<pdfrwt beam="2">  1       -2 0.54761378E-01 0.70094526E+03</pdfrwt>
<totfact> 0.60703281E+01</totfact>
</mgrwt>
</event>
<event>
 4    1  0.3565372E-007  0.7249384E+03  0.7818608E-02  0.9906217E-01
         -2   -1    0    0    0  501 -0.00000000000E+00  0.00000000000E+00  0.19325111810E+03  0.19325111812E+03  0.25500000000E-02 0.  1.
          2   -1    0    0  501    0  0.00000000000E+00 -0.00000000000E+00 -0.20239255962E+04  0.20239255962E+04  0.25500000000E-02 0. -1.
    8880023    1    1    2    0    0  0.30286158465E+03 -0.57302911979E+00 -0.17095673651E+04  0.18569211749E+04  0.65864270000E+03 0.  0.
    8880022    1    1    2    0    0 -0.30286158465E+03  0.57302911979E+00 -0.12110711299E+03  0.36025553938E+03  0.15294330000E+03 0.  0.
<mgrwt>
<rscale>  0 0.59960924E+03</rscale>
<asrwt>0</asrwt>
<pdfrwt beam="1">  1        2 0.31137315E+00 0.72493839E+03</pdfrwt>
<pdfrwt beam="2">  1       -2 0.29730943E-01 0.72493839E+03</pdfrwt>
<totfact> 0.69674322E+01</totfact>
</mgrwt>
</event>
<event>
 4    1  0.3565372E-007  0.9826197E+03  0.7818608E-02  0.9404658E-01
          2   -1    0    0  501    0  0.00000000000E+00  0.00000000000E+00  0.24534897159E+04  0.24534897159E+04  0.25500000000E-02 0. -1.
         -2   -1    0    0    0  501 -0.00000000000E+00 -0.00000000000E+00 -0.51467884531E+03  0.51467884532E+03  0.25500000000E-02 0.  1.
    8880023    1    1    2    0    0  0.62608891691E+03  0.37382349358E+03  0.19920356964E+04  0.22212041235E+04  0.65864270000E+03 0. -1.
    8880022    1    1    2    0    0 -0.62608891691E+03 -0.37382349358E+03 -0.53224825746E+02  0.74696443779E+03  0.15294330000E+03 0.  1.
<mgrwt>
<rscale>  0 0.91693334E+03</rscale>
<asrwt>0</asrwt>
<pdfrwt beam="1">  1        2 0.37745996E+00 0.98261973E+03</pdfrwt>
<pdfrwt beam="2">  1       -2 0.79181359E-01 0.98261973E+03</pdfrwt>
<totfact> 0.53010220E+00</totfact>
</mgrwt>
</event>
<event>
 4    1  0.3565372E-007  0.7280621E+03  0.7818608E-02  0.9896195E-01
          2   -1    0    0  501    0  0.00000000000E+00  0.00000000000E+00  0.91740102242E+03  0.91740102242E+03  0.25500000000E-02 0. -1.
         -2   -1    0    0    0  501 -0.00000000000E+00 -0.00000000000E+00 -0.31447241747E+03  0.31447241748E+03  0.25500000000E-02 0.  1.
    8880023    1    1    2    0    0 -0.55237797685E+02  0.30530803212E+03  0.39592551992E+03  0.82875293807E+03  0.65864270000E+03 0. -1.
    8880022    1    1    2    0    0  0.55237797685E+02 -0.30530803212E+03  0.20700308502E+03  0.40312050183E+03  0.15294330000E+03 0.  1.
<mgrwt>
<rscale>  0 0.60446069E+03</rscale>
<asrwt>0</asrwt>
<pdfrwt beam="1">  1        2 0.14113862E+00 0.72806210E+03</pdfrwt>
<pdfrwt beam="2">  1       -2 0.48380371E-01 0.72806210E+03</pdfrwt>
<totfact> 0.11710111E+02</totfact>
</mgrwt>
</event>
<event>
 4    1  0.3565372E-007  0.6693816E+03  0.7818608E-02  0.1016110E+00
         -2   -1    0    0    0  501 -0.00000000000E+00  0.00000000000E+00  0.22801083380E+04  0.22801083380E+04  0.25500000000E-02 0.  1.
          2   -1    0    0  501    0  0.00000000000E+00 -0.00000000000E+00 -0.51203587746E+03  0.51203587746E+03  0.25500000000E-02 0. -1.
    8880023    1    1    2    0    0  0.11940098006E+03  0.22155240452E+01 -0.28672467858E+03  0.72820515664E+03  0.65864270000E+03 0. -1.
    8880022    1    1    2    0    0 -0.11940098006E+03 -0.22155240452E+01  0.20547971391E+04  0.20639390588E+04  0.15294330000E+03 0.  0.
<mgrwt>
<rscale>  0 0.49116849E+03</rscale>
<asrwt>0</asrwt>
<pdfrwt beam="1">  1        2 0.78774751E-01 0.66938159E+03</pdfrwt>
<pdfrwt beam="2">  1       -2 0.35078589E+00 0.66938159E+03</pdfrwt>
<totfact> 0.98637575E-01</totfact>
</mgrwt>
</event>
<event>
 4    1  0.3565372E-007  0.7381270E+03  0.7818608E-02  0.9865437E-01
         -2   -1    0    0    0  501 -0.00000000000E+00  0.00000000000E+00  0.32026617887E+03  0.32026617888E+03  0.25500000000E-02 0.  1.
          2   -1    0    0  501    0  0.00000000000E+00 -0.00000000000E+00 -0.27772076681E+04  0.27772076681E+04  0.25500000000E-02 0. -1.
    8880023    1    1    2    0    0 -0.28021275473E+03 -0.18028329815E+03 -0.26008913986E+04  0.27036026943E+04  0.65864270000E+03 0. -1.
    8880022    1    1    2    0    0  0.28021275473E+03  0.18028329815E+03  0.14394990930E+03  0.39387115267E+03  0.15294330000E+03 0.  0.
<mgrwt>
<rscale>  0 0.61965997E+03</rscale>
<asrwt>0</asrwt>
<pdfrwt beam="1">  1        2 0.42726270E+00 0.73812700E+03</pdfrwt>
<pdfrwt beam="2">  1       -2 0.49271722E-01 0.73812700E+03</pdfrwt>
<totfact> 0.98543638E+00</totfact>
</mgrwt>
</event>
<event>
 4    1  0.3565372E-007  0.9760536E+03  0.7818608E-02  0.9413580E-01
         -2   -1    0    0    0  501 -0.00000000000E+00  0.00000000000E+00  0.78886238232E+03  0.78886238232E+03  0.25500000000E-02 0.  1.
          2   -1    0    0  501    0  0.00000000000E+00 -0.00000000000E+00 -0.15209737401E+04  0.15209737401E+04  0.25500000000E-02 0. -1.
    8880023    1    1    2    0    0 -0.70428083847E+03  0.15119158875E+03  0.31863100024E+03  0.10267454974E+04  0.65864270000E+03 0.  0.
    8880022    1    1    2    0    0  0.70428083847E+03 -0.15119158875E+03 -0.10507423580E+04  0.12830906250E+04  0.15294330000E+03 0.  0.
<mgrwt>
<rscale>  0 0.90966482E+03</rscale>
<asrwt>0</asrwt>
<pdfrwt beam="1">  1        2 0.23399596E+00 0.97605359E+03</pdfrwt>
<pdfrwt beam="2">  1       -2 0.12136344E+00 0.97605359E+03</pdfrwt>
<totfact> 0.63559491E+00</totfact>
</mgrwt>
</event>
<event>
 4    1  0.3565372E-007  0.8280685E+03  0.7818608E-02  0.9653102E-01
          2   -1    0    0  501    0  0.00000000000E+00  0.00000000000E+00  0.94313582429E+03  0.94313582429E+03  0.25500000000E-02 0. -1.
         -2   -1    0    0    0  501 -0.00000000000E+00 -0.00000000000E+00 -0.14734253332E+04  0.14734253332E+04  0.25500000000E-02 0.  1.
    8880023    1    1    2    0    0  0.16997401950E+03  0.47222454668E+03  0.69665736683E+03  0.10821408794E+04  0.65864270000E+03 0.  0.
    8880022    1    1    2    0    0 -0.16997401950E+03 -0.47222454668E+03 -0.12269468758E+04  0.13344202782E+04  0.15294330000E+03 0.  0.
<mgrwt>
<rscale>  0 0.73879048E+03</rscale>
<asrwt>0</asrwt>
<pdfrwt beam="1">  1        2 0.14509782E+00 0.82806847E+03</pdfrwt>
<pdfrwt beam="2">  1       -2 0.22668082E+00 0.82806847E+03</pdfrwt>
<totfact> 0.25012280E+00</totfact>
</mgrwt>
</event>
<event>
 4    1  0.3565372E-007  0.7861812E+03  0.7818608E-02  0.9741513E-01
          2   -1    0    0  501    0  0.00000000000E+00  0.00000000000E+00  0.13134604264E+04  0.13134604264E+04  0.25500000000E-02 0. -1.
         -2   -1    0    0    0  501 -0.00000000000E+00 -0.00000000000E+00 -0.37602860959E+03  0.37602860960E+03  0.25500000000E-02 0.  1.
    8880023    1    1    2    0    0  0.23316587027E+03 -0.36042239094E+03  0.95062303275E+03  0.12335983867E+04  0.65864270000E+03 0. -1.
    8880022    1    1    2    0    0 -0.23316587027E+03  0.36042239094E+03 -0.13191215942E+02  0.45589064932E+03  0.15294330000E+03 0.  0.
<mgrwt>
<rscale>  0 0.68598036E+03</rscale>
<asrwt>0</asrwt>
<pdfrwt beam="1">  1        2 0.20207084E+00 0.78618117E+03</pdfrwt>
<pdfrwt beam="2">  1       -2 0.57850555E-01 0.78618117E+03</pdfrwt>
<totfact> 0.46128955E+01</totfact>
</mgrwt>
</event>
<event>
 4    1  0.3565372E-007  0.8539848E+03  0.7818608E-02  0.9604354E-01
         -2   -1    0    0    0  501 -0.00000000000E+00  0.00000000000E+00  0.92880906264E+03  0.92880906265E+03  0.25500000000E-02 0.  1.
          2   -1    0    0  501    0  0.00000000000E+00 -0.00000000000E+00 -0.10119933786E+04  0.10119933786E+04  0.25500000000E-02 0. -1.
    8880023    1    1    2    0    0  0.11336035992E+03  0.53162891118E+03 -0.70023793514E+03  0.11043655384E+04  0.65864270000E+03 0.  0.
    8880022    1    1    2    0    0 -0.11336035992E+03 -0.53162891118E+03  0.61705361919E+03  0.83643690281E+03  0.15294330000E+03 0.  0.
<mgrwt>
<rscale>  0 0.77008663E+03</rscale>
<asrwt>0</asrwt>
<pdfrwt beam="1">  1        2 0.15569129E+00 0.85398482E+03</pdfrwt>
<pdfrwt beam="2">  1       -2 0.14289370E+00 0.85398482E+03</pdfrwt>
<totfact> 0.84761500E+00</totfact>
</mgrwt>
</event>
<event>
 4    1  0.3565372E-007  0.7625523E+03  0.7818608E-02  0.9798544E-01
          2   -1    0    0  501    0  0.00000000000E+00  0.00000000000E+00  0.12257019170E+04  0.12257019170E+04  0.25500000000E-02 0. -1.
         -2   -1    0    0    0  501 -0.00000000000E+00 -0.00000000000E+00 -0.41261364149E+03  0.41261364149E+03  0.25500000000E-02 0.  1.
    8880023    1    1    2    0    0 -0.36483895530E+03 -0.12069924476E+03  0.93555858654E+03  0.12069614104E+04  0.65864270000E+03 0. -1.
    8880022    1    1    2    0    0  0.36483895530E+03  0.12069924476E+03 -0.12247031105E+03  0.43135414811E+03  0.15294330000E+03 0.  0.
<mgrwt>
<rscale>  0 0.65440729E+03</rscale>
<asrwt>0</asrwt>
<pdfrwt beam="1">  1        2 0.18856952E+00 0.76255228E+03</pdfrwt>
<pdfrwt beam="2">  1       -2 0.63479023E-01 0.76255228E+03</pdfrwt>
<totfact> 0.42719232E+01</totfact>
</mgrwt>
</event>
<event>
 4    1  0.3565372E-007  0.6880364E+03  0.7818608E-02  0.1005100E+00
          2   -1    0    0  501    0  0.00000000000E+00  0.00000000000E+00  0.28170623081E+04  0.28170623081E+04  0.25500000000E-02 0. -1.
         -2   -1    0    0    0  501 -0.00000000000E+00 -0.00000000000E+00 -0.13333593008E+03  0.13333593011E+03  0.25500000000E-02 0.  1.
    8880023    1    1    2    0    0 -0.27102196921E+02 -0.19710226495E+03  0.25943070050E+04  0.26839938290E+04  0.65864270000E+03 0. -1.
    8880022    1    1    2    0    0  0.27102196921E+02  0.19710226495E+03  0.89419373011E+02  0.26640440915E+03  0.15294330000E+03 0.  0.
<mgrwt>
<rscale>  0 0.53469360E+03</rscale>
<asrwt>0</asrwt>
<pdfrwt beam="1">  1        2 0.43339421E+00 0.68803636E+03</pdfrwt>
<pdfrwt beam="2">  1       -2 0.20513219E-01 0.68803636E+03</pdfrwt>
<totfact> 0.48822492E+01</totfact>
</mgrwt>
</event>
<event>
 4    1  0.3565372E-007  0.7327196E+03  0.7818608E-02  0.9881685E-01
          2   -1    0    0  501    0  0.00000000000E+00  0.00000000000E+00  0.20857872796E+04  0.20857872796E+04  0.25500000000E-02 0. -1.
         -2   -1    0    0    0  501 -0.00000000000E+00 -0.00000000000E+00 -0.14559922099E+03  0.14559922101E+03  0.25500000000E-02 0.  1.
    8880023    1    1    2    0    0 -0.11686726881E+03  0.29901486907E+03  0.11323029251E+04  0.13486986212E+04  0.65864270000E+03 0.  0.
    8880022    1    1    2    0    0  0.11686726881E+03 -0.29901486907E+03  0.80788513348E+03  0.88268787935E+03  0.15294330000E+03 0.  0.
<mgrwt>
<rscale>  0 0.61157159E+03</rscale>
<asrwt>0</asrwt>
<pdfrwt beam="1">  1        2 0.32089033E+00 0.73271963E+03</pdfrwt>
<pdfrwt beam="2">  1       -2 0.22399882E-01 0.73271963E+03</pdfrwt>
<totfact> 0.10759675E+02</totfact>
</mgrwt>
</event>
<event>
 4    1  0.3565372E-007  0.7319256E+03  0.7818608E-02  0.9884124E-01
          2   -1    0    0  501    0  0.00000000000E+00  0.00000000000E+00  0.89911032100E+03  0.89911032101E+03  0.25500000000E-02 0. -1.
         -2   -1    0    0    0  501 -0.00000000000E+00 -0.00000000000E+00 -0.35381338594E+03  0.35381338595E+03  0.25500000000E-02 0.  1.
    8880023    1    1    2    0    0  0.30974286107E+03 -0.77228516137E+02  0.52041149946E+03  0.89807751265E+03  0.65864270000E+03 0.  0.
    8880022    1    1    2    0    0 -0.30974286107E+03  0.77228516137E+02  0.24885435604E+02  0.35484619430E+03  0.15294330000E+03 0.  0.
<mgrwt>
<rscale>  0 0.61036917E+03</rscale>
<asrwt>0</asrwt>
<pdfrwt beam="1">  1        2 0.13832467E+00 0.73192560E+03</pdfrwt>
<pdfrwt beam="2">  1       -2 0.54432829E-01 0.73192560E+03</pdfrwt>
<totfact> 0.94616773E+01</totfact>
</mgrwt>
</event>
<event>
 4    1  0.3565372E-007  0.8489919E+03  0.7818608E-02  0.9613453E-01
          2   -1    0    0  501    0  0.00000000000E+00  0.00000000000E+00  0.81841883441E+03  0.81841883441E+03  0.25500000000E-02 0. -1.
         -2   -1    0    0    0  501 -0.00000000000E+00 -0.00000000000E+00 -0.73443917969E+03  0.73443917970E+03  0.25500000000E-02 0.  1.
    8880023    1    1    2    0    0  0.43991990482E+03 -0.30569175366E+03  0.37058842825E+03  0.92634926477E+03  0.65864270000E+03 0. -1.
    8880022    1    1    2    0    0 -0.43991990482E+03  0.30569175366E+03 -0.28660877354E+03  0.62650874934E+03  0.15294330000E+03 0.  0.
<mgrwt>
<rscale>  0 0.76412141E+03</rscale>
<asrwt>0</asrwt>
<pdfrwt beam="1">  1        2 0.12591059E+00 0.84899186E+03</pdfrwt>
<pdfrwt beam="2">  1       -2 0.11299064E+00 0.84899186E+03</pdfrwt>
<totfact> 0.20681394E+01</totfact>
</mgrwt>
</event>
<event>
 4    1  0.3565372E-007  0.6659107E+03  0.7818608E-02  0.1018781E+00
          2   -1    0    0  501    0  0.00000000000E+00  0.00000000000E+00  0.55486338422E+03  0.55486338423E+03  0.25500000000E-02 0. -1.
         -2   -1    0    0    0  501 -0.00000000000E+00 -0.00000000000E+00 -0.32721162297E+03  0.32721162298E+03  0.25500000000E-02 0.  1.
    8880023    1    1    2    0    0 -0.68267320053E+02 -0.70472793989E+02  0.21569381626E+03  0.69997204967E+03  0.65864270000E+03 0.  1.
    8880022    1    1    2    0    0  0.68267320053E+02  0.70472793989E+02  0.11957944989E+02  0.18210295754E+03  0.15294330000E+03 0. -1.
<mgrwt>
<rscale>  0 0.48128979E+03</rscale>
<asrwt>0</asrwt>
<pdfrwt beam="1">  1        2 0.85363597E-01 0.66591069E+03</pdfrwt>
<pdfrwt beam="2">  1       -2 0.50340250E-01 0.66591069E+03</pdfrwt>
<totfact> 0.20598529E+02</totfact>
</mgrwt>
</event>
<event>
 4    1  0.3565372E-007  0.7316702E+03  0.7818608E-02  0.9884911E-01
         -2   -1    0    0    0  501 -0.00000000000E+00  0.00000000000E+00  0.34513788723E+03  0.34513788724E+03  0.25500000000E-02 0.  1.
          2   -1    0    0  501    0  0.00000000000E+00 -0.00000000000E+00 -0.15311709171E+04  0.15311709171E+04  0.25500000000E-02 0. -1.
    8880023    1    1    2    0    0 -0.15723268497E+03 -0.27714426573E+03 -0.13110575149E+04  0.15014037015E+04  0.65864270000E+03 0. -1.
    8880022    1    1    2    0    0  0.15723268497E+03  0.27714426573E+03  0.12502448505E+03  0.37490510283E+03  0.15294330000E+03 0.  0.
<mgrwt>
<rscale>  0 0.60998155E+03</rscale>
<asrwt>0</asrwt>
<pdfrwt beam="1">  1        2 0.23556475E+00 0.73167019E+03</pdfrwt>
<pdfrwt beam="2">  1       -2 0.53098137E-01 0.73167019E+03</pdfrwt>
<totfact> 0.41783953E+01</totfact>
</mgrwt>
</event>
<event>
 4    1  0.3565372E-007  0.7271844E+03  0.7818608E-02  0.9898986E-01
          2   -1    0    0  501    0  0.00000000000E+00  0.00000000000E+00  0.14380359810E+04  0.14380359810E+04  0.25500000000E-02 0. -1.
         -2   -1    0    0    0  501 -0.00000000000E+00 -0.00000000000E+00 -0.82489878041E+03  0.82489878042E+03  0.25500000000E-02 0.  1.
    8880023    1    1    2    0    0 -0.29111888110E+03  0.10117662620E+03  0.13029160197E+04  0.14921083316E+04  0.65864270000E+03 0.  0.
    8880022    1    1    2    0    0  0.29111888110E+03 -0.10117662620E+03 -0.68977881909E+03  0.77082642982E+03  0.15294330000E+03 0.  1.
<mgrwt>
<rscale>  0 0.60310446E+03</rscale>
<asrwt>0</asrwt>
<pdfrwt beam="1">  1        2 0.22123630E+00 0.72718438E+03</pdfrwt>
<pdfrwt beam="2">  1       -2 0.12690751E+00 0.72718438E+03</pdfrwt>
<totfact> 0.65278071E+00</totfact>
</mgrwt>
</event>
<event>
 4    1  0.3565372E-007  0.7516110E+03  0.7818608E-02  0.9827331E-01
          2   -1    0    0  501    0  0.00000000000E+00  0.00000000000E+00  0.11625153884E+04  0.11625153884E+04  0.25500000000E-02 0. -1.
         -2   -1    0    0    0  501 -0.00000000000E+00 -0.00000000000E+00 -0.45240748310E+03  0.45240748311E+03  0.25500000000E-02 0.  1.
    8880023    1    1    2    0    0 -0.10174768042E+03 -0.34750014231E+03  0.90482022562E+03  0.11762732618E+04  0.65864270000E+03 0. -1.
    8880022    1    1    2    0    0  0.10174768042E+03  0.34750014231E+03 -0.19471232037E+03  0.43864960970E+03  0.15294330000E+03 0.  0.
<mgrwt>
<rscale>  0 0.63916227E+03</rscale>
<asrwt>0</asrwt>
<pdfrwt beam="1">  1        2 0.17884852E+00 0.75161103E+03</pdfrwt>
<pdfrwt beam="2">  1       -2 0.69601152E-01 0.75161103E+03</pdfrwt>
<totfact> 0.38215585E+01</totfact>
</mgrwt>
</event>
<event>
 4    1  0.3565372E-007  0.8636241E+03  0.7818608E-02  0.9587149E-01
         -2   -1    0    0    0  501 -0.00000000000E+00  0.00000000000E+00  0.10470270371E+04  0.10470270371E+04  0.25500000000E-02 0.  1.
          2   -1    0    0  501    0  0.00000000000E+00 -0.00000000000E+00 -0.12651205418E+04  0.12651205418E+04  0.25500000000E-02 0. -1.
    8880023    1    1    2    0    0  0.56598057901E+00 -0.55860188670E+03 -0.10113811045E+04  0.13299392215E+04  0.65864270000E+03 0. -1.
    8880022    1    1    2    0    0 -0.56598057901E+00  0.55860188670E+03  0.79328759982E+03  0.98220835733E+03  0.15294330000E+03 0.  0.
<mgrwt>
<rscale>  0 0.78152610E+03</rscale>
<asrwt>0</asrwt>
<pdfrwt beam="1">  1        2 0.19463393E+00 0.86362410E+03</pdfrwt>
<pdfrwt beam="2">  1       -2 0.16108108E+00 0.86362410E+03</pdfrwt>
<totfact> 0.43172581E+00</totfact>
</mgrwt>
</event>
<event>
 4    1  0.3565372E-007  0.9210654E+03  0.7818608E-02  0.9493027E-01
         -2   -1    0    0    0  501 -0.00000000000E+00  0.00000000000E+00  0.12377503427E+04  0.12377503427E+04  0.25500000000E-02 0.  1.
          2   -1    0    0  501    0  0.00000000000E+00 -0.00000000000E+00 -0.61478560802E+03  0.61478560803E+03  0.25500000000E-02 0. -1.
    8880023    1    1    2    0    0  0.18223684076E+02  0.64359862914E+03  0.73873125182E+03  0.11807139225E+04  0.65864270000E+03 0.  0.
    8880022    1    1    2    0    0 -0.18223684076E+02 -0.64359862914E+03 -0.11576651715E+03  0.67182202822E+03  0.15294330000E+03 0.  0.
<mgrwt>
<rscale>  0 0.84799843E+03</rscale>
<asrwt>0</asrwt>
<pdfrwt beam="1">  1        2 0.94582401E-01 0.92106542E+03</pdfrwt>
<pdfrwt beam="2">  1       -2 0.19042313E+00 0.92106542E+03</pdfrwt>
<totfact> 0.74206934E+00</totfact>
</mgrwt>
</event>
<event>
 4    1  0.3565372E-007  0.1182369E+04  0.7818608E-02  0.9174454E-01
          2   -1    0    0  501    0  0.00000000000E+00  0.00000000000E+00  0.26555954504E+04  0.26555954504E+04  0.25500000000E-02 0. -1.
         -2   -1    0    0    0  501 -0.00000000000E+00 -0.00000000000E+00 -0.64789455323E+03  0.64789455323E+03  0.25500000000E-02 0.  1.
    8880023    1    1    2    0    0 -0.49701010770E+03 -0.84685743017E+03  0.14362449390E+03  0.11910603493E+04  0.65864270000E+03 0.  0.
    8880022    1    1    2    0    0  0.49701010770E+03  0.84685743017E+03  0.18640764033E+04  0.21124296543E+04  0.15294330000E+03 0.  0.
<mgrwt>
<rscale>  0 0.11321038E+04</rscale>
<asrwt>0</asrwt>
<pdfrwt beam="1">  1        2 0.40855314E+00 0.11823691E+04</pdfrwt>
<pdfrwt beam="2">  1       -2 0.99676087E-01 0.11823691E+04</pdfrwt>
<totfact> 0.23194793E+00</totfact>
</mgrwt>
</event>
<event>
 4    1  0.3565372E-007  0.6960017E+03  0.7818608E-02  0.1001421E+00
          2   -1    0    0  501    0  0.00000000000E+00  0.00000000000E+00  0.24124828357E+04  0.24124828357E+04  0.25500000000E-02 0. -1.
         -2   -1    0    0    0  501 -0.00000000000E+00 -0.00000000000E+00 -0.16544093196E+03  0.16544093198E+03  0.25500000000E-02 0.  1.
    8880023    1    1    2    0    0 -0.59393210787E+02 -0.21698068742E+03  0.21927116118E+04  0.23005222431E+04  0.65864270000E+03 0. -1.
    8880022    1    1    2    0    0  0.59393210787E+02  0.21698068742E+03  0.54330291933E+02  0.27740152458E+03  0.15294330000E+03 0.  0.
<mgrwt>
<rscale>  0 0.55031527E+03</rscale>
<asrwt>0</asrwt>
<pdfrwt beam="1">  1        2 0.37115116E+00 0.69600171E+03</pdfrwt>
<pdfrwt beam="2">  1       -2 0.25452454E-01 0.69600171E+03</pdfrwt>
<totfact> 0.56727221E+01</totfact>
</mgrwt>
</event>
<event>
 4    1  0.3565372E-007  0.8713399E+03  0.7818608E-02  0.9573702E-01
         -2   -1    0    0    0  501 -0.00000000000E+00  0.00000000000E+00  0.64893081330E+03  0.64893081331E+03  0.25500000000E-02 0.  1.
          2   -1    0    0  501    0  0.00000000000E+00 -0.00000000000E+00 -0.96668300964E+03  0.96668300964E+03  0.25500000000E-02 0. -1.
    8880023    1    1    2    0    0 -0.47480930879E+03 -0.31619468881E+03 -0.49095540008E+03  0.10001351769E+04  0.65864270000E+03 0.  0.
    8880022    1    1    2    0    0  0.47480930879E+03  0.31619468881E+03  0.17320320374E+03  0.61547864605E+03  0.15294330000E+03 0.  0.
<mgrwt>
<rscale>  0 0.79061495E+03</rscale>
<asrwt>0</asrwt>
<pdfrwt beam="1">  1        2 0.14872046E+00 0.87133987E+03</pdfrwt>
<pdfrwt beam="2">  1       -2 0.99835510E-01 0.87133987E+03</pdfrwt>
<totfact> 0.22052642E+01</totfact>
</mgrwt>
</event>
<event>
 4    1  0.3565372E-007  0.9615943E+03  0.7818608E-02  0.9433625E-01
          2   -1    0    0  501    0  0.00000000000E+00  0.00000000000E+00  0.32506744027E+04  0.32506744027E+04  0.25500000000E-02 0. -1.
         -2   -1    0    0    0  501 -0.00000000000E+00 -0.00000000000E+00 -0.53880523813E+03  0.53880523814E+03  0.25500000000E-02 0.  1.
    8880023    1    1    2    0    0 -0.17241789873E+03  0.67906224587E+03  0.28940249131E+04  0.30495973291E+04  0.65864270000E+03 0.  0.
    8880022    1    1    2    0    0  0.17241789873E+03 -0.67906224587E+03 -0.18215574851E+03  0.73988231179E+03  0.15294330000E+03 0.  0.
<mgrwt>
<rscale>  0 0.89359390E+03</rscale>
<asrwt>0</asrwt>
<pdfrwt beam="1">  1        2 0.50010375E+00 0.96159434E+03</pdfrwt>
<pdfrwt beam="2">  1       -2 0.82893114E-01 0.96159434E+03</pdfrwt>
<totfact> 0.15846125E+00</totfact>
</mgrwt>
</event>
<event>
 4    1  0.5054755E-007  0.7341882E+03  0.7818608E-02  0.9877212E-01
         -2   -1    0    0    0  501 -0.00000000000E+00  0.00000000000E+00  0.11112763280E+04  0.11112763280E+04  0.25500000000E-02 0.  1.
          2   -1    0    0  501    0  0.00000000000E+00 -0.00000000000E+00 -0.16586857735E+04  0.16586857735E+04  0.25500000000E-02 0. -1.
    8880023    1    1    2    0    0 -0.32369848235E+03 -0.21009329455E+02 -0.15446178491E+04  0.17102270626E+04  0.65864270000E+03 0. -1.
    8880022    1    1    2    0    0  0.32369848235E+03  0.21009329455E+02  0.99720840369E+03  0.10597350390E+04  0.15294330000E+03 0.  0.
<mgrwt>
<rscale>  0 0.61378529E+03</rscale>
<asrwt>0</asrwt>
<pdfrwt beam="1">  1        2 0.25518243E+00 0.73418819E+03</pdfrwt>
<pdfrwt beam="2">  1       -2 0.17096559E+00 0.73418819E+03</pdfrwt>
<totfact> 0.22445759E+00</totfact>
</mgrwt>
</event>
<event>
 4    1  0.3565372E-007  0.6763652E+03  0.7818608E-02  0.1011459E+00
          2   -1    0    0  501    0  0.00000000000E+00  0.00000000000E+00  0.44379058247E+04  0.44379058247E+04  0.25500000000E-02 0. -1.
         -2   -1    0    0    0  501 -0.00000000000E+00 -0.00000000000E+00 -0.94779608241E+02  0.94779608275E+02  0.25500000000E-02 0.  1.
    8880023    1    1    2    0    0  0.12916941981E+03 -0.83516022222E+02  0.42380129122E+04  0.42916457584E+04  0.65864270000E+03 0. -1.
    8880022    1    1    2    0    0 -0.12916941981E+03  0.83516022222E+02  0.10511330421E+03  0.24103967457E+03  0.15294330000E+03 0.  0.
<mgrwt>
<rscale>  0 0.50898784E+03</rscale>
<asrwt>0</asrwt>
<pdfrwt beam="1">  1        2 0.68275481E+00 0.67636519E+03</pdfrwt>
<pdfrwt beam="2">  1       -2 0.14581477E-01 0.67636519E+03</pdfrwt>
<totfact> 0.59583254E+00</totfact>
</mgrwt>
</event>
<event>
 4    1  0.3565372E-007  0.6733845E+03  0.7818608E-02  0.1013344E+00
          2   -1    0    0  501    0  0.00000000000E+00  0.00000000000E+00  0.83539049197E+03  0.83539049198E+03  0.25500000000E-02 0. -1.
         -2   -1    0    0    0  501 -0.00000000000E+00 -0.00000000000E+00 -0.34254854802E+03  0.34254854803E+03  0.25500000000E-02 0.  1.
    8880023    1    1    2    0    0  0.13715787908E+03  0.28708789692E+02  0.63572145994E+03  0.92606072117E+03  0.65864270000E+03 0. -1.
    8880022    1    1    2    0    0 -0.13715787908E+03 -0.28708789692E+02 -0.14287951598E+03  0.25187831884E+03  0.15294330000E+03 0.  0.
<mgrwt>
<rscale>  0 0.50166800E+03</rscale>
<asrwt>0</asrwt>
<pdfrwt beam="1">  1        2 0.12852161E+00 0.67338450E+03</pdfrwt>
<pdfrwt beam="2">  1       -2 0.52699777E-01 0.67338450E+03</pdfrwt>
<totfact> 0.11231829E+02</totfact>
</mgrwt>
</event>
<event>
 4    1  0.3565372E-007  0.1201741E+04  0.7818608E-02  0.9155432E-01
         -2   -1    0    0    0  501 -0.00000000000E+00  0.00000000000E+00  0.86592795286E+03  0.86592795287E+03  0.25500000000E-02 0.  1.
          2   -1    0    0  501    0  0.00000000000E+00 -0.00000000000E+00 -0.33058122715E+04  0.33058122715E+04  0.25500000000E-02 0. -1.
    8880023    1    1    2    0    0  0.69475268642E+03  0.72642198691E+03  0.30901472136E+03  0.12408345992E+04  0.65864270000E+03 0.  0.
    8880022    1    1    2    0    0 -0.69475268642E+03 -0.72642198691E+03 -0.27488990400E+04  0.29309056251E+04  0.15294330000E+03 0.  0.
<mgrwt>
<rscale>  0 0.11525522E+04</rscale>
<asrwt>0</asrwt>
<pdfrwt beam="1">  1        2 0.50858650E+00 0.12017406E+04</pdfrwt>
<pdfrwt beam="2">  1       -2 0.13321969E+00 0.12017406E+04</pdfrwt>
<totfact> 0.44687844E-01</totfact>
</mgrwt>
</event>
<event>
 4    1  0.3565372E-007  0.6862418E+03  0.7818608E-02  0.1005993E+00
          2   -1    0    0  501    0  0.00000000000E+00  0.00000000000E+00  0.12250534037E+04  0.12250534037E+04  0.25500000000E-02 0. -1.
         -2   -1    0    0    0  501 -0.00000000000E+00 -0.00000000000E+00 -0.25518052548E+03  0.25518052549E+03  0.25500000000E-02 0.  1.
    8880023    1    1    2    0    0 -0.54445332781E+02 -0.18480618941E+03  0.10198361134E+04  0.12292247664E+04  0.65864270000E+03 0. -1.
    8880022    1    1    2    0    0  0.54445332781E+02  0.18480618941E+03 -0.49963235188E+02  0.25100916277E+03  0.15294330000E+03 0.  0.
<mgrwt>
<rscale>  0 0.53098913E+03</rscale>
<asrwt>0</asrwt>
<pdfrwt beam="1">  1        2 0.18846976E+00 0.68624181E+03</pdfrwt>
<pdfrwt beam="2">  1       -2 0.39258542E-01 0.68624181E+03</pdfrwt>
<totfact> 0.11451406E+02</totfact>
</mgrwt>
</event>
<event>
 4    1  0.3565372E-007  0.1095635E+04  0.7818608E-02  0.9265931E-01
          2   -1    0    0  501    0  0.00000000000E+00  0.00000000000E+00  0.29213057247E+04  0.29213057247E+04  0.25500000000E-02 0. -1.
         -2   -1    0    0    0  501 -0.00000000000E+00 -0.00000000000E+00 -0.90163204559E+03  0.90163204559E+03  0.25500000000E-02 0.  1.
    8880023    1    1    2    0    0  0.68266941415E+03 -0.54824179779E+03  0.25587246286E+04  0.27834310714E+04  0.65864270000E+03 0.  0.
    8880022    1    1    2    0    0 -0.68266941415E+03  0.54824179779E+03 -0.53905094951E+03  0.10395066989E+04  0.15294330000E+03 0.  0.
<mgrwt>
<rscale>  0 0.10398071E+04</rscale>
<asrwt>0</asrwt>
<pdfrwt beam="1">  1        2 0.44943166E+00 0.10956353E+04</pdfrwt>
<pdfrwt beam="2">  1       -2 0.13871262E+00 0.10956353E+04</pdfrwt>
<totfact> 0.71682351E-01</totfact>
</mgrwt>
</event>
<event>
 4    1  0.3565372E-007  0.1287563E+04  0.7818608E-02  0.9076375E-01
          2   -1    0    0  501    0  0.00000000000E+00  0.00000000000E+00  0.32081758698E+04  0.32081758698E+04  0.25500000000E-02 0. -1.
         -2   -1    0    0    0  501 -0.00000000000E+00 -0.00000000000E+00 -0.66025315159E+03  0.66025315159E+03  0.25500000000E-02 0.  1.
    8880023    1    1    2    0    0 -0.49174169051E+03  0.99105967890E+03  0.24738834587E+03  0.13111141740E+04  0.65864270000E+03 0.  0.
    8880022    1    1    2    0    0  0.49174169051E+03 -0.99105967890E+03  0.23005343724E+04  0.25573148474E+04  0.15294330000E+03 0.  0.
<mgrwt>
<rscale>  0 0.12425882E+04</rscale>
<asrwt>0</asrwt>
<pdfrwt beam="1">  1        2 0.49356552E+00 0.12875634E+04</pdfrwt>
<pdfrwt beam="2">  1       -2 0.10157741E+00 0.12875634E+04</pdfrwt>
<totfact> 0.10015333E+00</totfact>
</mgrwt>
</event>
<event>
 4    1  0.3565372E-007  0.8330310E+03  0.7818608E-02  0.9643464E-01
          2   -1    0    0  501    0  0.00000000000E+00  0.00000000000E+00  0.14241364881E+04  0.14241364881E+04  0.25500000000E-02 0. -1.
         -2   -1    0    0    0  501 -0.00000000000E+00 -0.00000000000E+00 -0.66783689925E+03  0.66783689925E+03  0.25500000000E-02 0.  1.
    8880023    1    1    2    0    0 -0.29522282537E+03 -0.41590130867E+03  0.11569212684E+04  0.14256252813E+04  0.65864270000E+03 0. -1.
    8880022    1    1    2    0    0  0.29522282537E+03  0.41590130867E+03 -0.40062167961E+03  0.66634810599E+03  0.15294330000E+03 0.  0.
<mgrwt>
<rscale>  0 0.74485069E+03</rscale>
<asrwt>0</asrwt>
<pdfrwt beam="1">  1        2 0.21909792E+00 0.83303098E+03</pdfrwt>
<pdfrwt beam="2">  1       -2 0.10274414E+00 0.83303098E+03</pdfrwt>
<totfact> 0.10993127E+01</totfact>
</mgrwt>
</event>
<event>
 4    1  0.3565372E-007  0.6876989E+03  0.7818608E-02  0.1005266E+00
         -2   -1    0    0    0  501 -0.00000000000E+00  0.00000000000E+00  0.13705145550E+03  0.13705145552E+03  0.25500000000E-02 0.  1.
          2   -1    0    0  501    0  0.00000000000E+00 -0.00000000000E+00 -0.21840249254E+04  0.21840249254E+04  0.25500000000E-02 0. -1.
    8880023    1    1    2    0    0 -0.45101667063E+01  0.19773518014E+03 -0.19224710933E+04  0.20417700296E+04  0.65864270000E+03 0. -1.
    8880022    1    1    2    0    0  0.45101667063E+01 -0.19773518014E+03 -0.12450237657E+03  0.27930635127E+03  0.15294330000E+03 0.  0.
<mgrwt>
<rscale>  0 0.53400271E+03</rscale>
<asrwt>0</asrwt>
<pdfrwt beam="1">  1        2 0.33600381E+00 0.68769888E+03</pdfrwt>
<pdfrwt beam="2">  1       -2 0.21084841E-01 0.68769888E+03</pdfrwt>
<totfact> 0.10632357E+02</totfact>
</mgrwt>
</event>
<event>
 4    1  0.3565372E-007  0.7199185E+03  0.7818608E-02  0.9922862E-01
          2   -1    0    0  501    0  0.00000000000E+00  0.00000000000E+00  0.19367258324E+04  0.19367258324E+04  0.25500000000E-02 0. -1.
         -2   -1    0    0    0  501 -0.00000000000E+00 -0.00000000000E+00 -0.24034726749E+03  0.24034726750E+03  0.25500000000E-02 0.  1.
    8880023    1    1    2    0    0 -0.22916453584E+03 -0.17876268204E+03  0.17026420116E+04  0.18485866242E+04  0.65864270000E+03 0. -1.
    8880022    1    1    2    0    0  0.22916453584E+03  0.17876268204E+03 -0.62634467019E+01  0.32848647576E+03  0.15294330000E+03 0.  0.
<mgrwt>
<rscale>  0 0.59165991E+03</rscale>
<asrwt>0</asrwt>
<pdfrwt beam="1">  1        2 0.29795781E+00 0.71991853E+03</pdfrwt>
<pdfrwt beam="2">  1       -2 0.36976504E-01 0.71991853E+03</pdfrwt>
<totfact> 0.51545626E+01</totfact>
</mgrwt>
</event>
<event>
 4    1  0.3565372E-007  0.8514642E+03  0.7818608E-02  0.9608931E-01
         -2   -1    0    0    0  501 -0.00000000000E+00  0.00000000000E+00  0.27321741848E+03  0.27321741849E+03  0.25500000000E-02 0.  1.
          2   -1    0    0  501    0  0.00000000000E+00 -0.00000000000E+00 -0.21442135036E+04  0.21442135036E+04  0.25500000000E-02 0. -1.
    8880023    1    1    2    0    0 -0.30844340392E+03 -0.44276823726E+03 -0.15571052794E+04  0.17747022575E+04  0.65864270000E+03 0.  0.
    8880022    1    1    2    0    0  0.30844340392E+03  0.44276823726E+03 -0.31389080569E+03  0.64272866457E+03  0.15294330000E+03 0.  0.
<mgrwt>
<rscale>  0 0.76707869E+03</rscale>
<asrwt>0</asrwt>
<pdfrwt beam="1">  1        2 0.32987899E+00 0.85146418E+03</pdfrwt>
<pdfrwt beam="2">  1       -2 0.42033450E-01 0.85146418E+03</pdfrwt>
<totfact> 0.30434772E+01</totfact>
</mgrwt>
</event>
<event>
 4    1  0.3716007E-007  0.1509823E+04  0.7818608E-02  0.8902730E-01
         -2   -1    0    0    0  501 -0.00000000000E+00  0.00000000000E+00  0.13163031450E+04  0.13163031450E+04  0.25500000000E-02 0.  1.
          2   -1    0    0  501    0  0.00000000000E+00 -0.00000000000E+00 -0.29545608305E+04  0.29545608305E+04  0.25500000000E-02 0. -1.
    8880023    1    1    2    0    0  0.55527673572E+03  0.12399288115E+04 -0.23005361244E+04  0.27517326136E+04  0.65864270000E+03 0.  0.
    8880022    1    1    2    0    0 -0.55527673572E+03 -0.12399288115E+04  0.66227843902E+03  0.15191313619E+04  0.15294330000E+03 0.  0.
<mgrwt>
<rscale>  0 0.14728211E+04</rscale>
<asrwt>0</asrwt>
<pdfrwt beam="1">  1        2 0.45454782E+00 0.15098231E+04</pdfrwt>
<pdfrwt beam="2">  1       -2 0.20250818E+00 0.15098231E+04</pdfrwt>
<totfact> 0.22395496E-01</totfact>
</mgrwt>
</event>
<event>
 4    1  0.3565372E-007  0.1309512E+04  0.7818608E-02  0.9057389E-01
          2   -1    0    0  501    0  0.00000000000E+00  0.00000000000E+00  0.30572697157E+04  0.30572697157E+04  0.25500000000E-02 0. -1.
         -2   -1    0    0    0  501 -0.00000000000E+00 -0.00000000000E+00 -0.77209170572E+03  0.77209170572E+03  0.25500000000E-02 0.  1.
    8880023    1    1    2    0    0  0.92301058970E+03 -0.65502923596E+03  0.23448166659E+04  0.26857005141E+04  0.65864270000E+03 0.  0.
    8880022    1    1    2    0    0 -0.92301058970E+03  0.65502923596E+03 -0.59638655879E+02  0.11436609073E+04  0.15294330000E+03 0.  0.
<mgrwt>
<rscale>  0 0.12654898E+04</rscale>
<asrwt>0</asrwt>
<pdfrwt beam="1">  1        2 0.47034920E+00 0.13095121E+04</pdfrwt>
<pdfrwt beam="2">  1       -2 0.11878334E+00 0.13095121E+04</pdfrwt>
<totfact> 0.85064014E-01</totfact>
</mgrwt>
</event>
<event>
 4    1  0.3565372E-007  0.7977609E+03  0.7818608E-02  0.9715659E-01
          2   -1    0    0  501    0  0.00000000000E+00  0.00000000000E+00  0.38911398757E+04  0.38911398757E+04  0.25500000000E-02 0. -1.
         -2   -1    0    0    0  501 -0.00000000000E+00 -0.00000000000E+00 -0.11664939640E+03  0.11664939642E+03  0.25500000000E-02 0.  1.
    8880023    1    1    2    0    0 -0.32345258529E+03  0.31303461284E+03  0.29509583483E+04  0.30568901883E+04  0.65864270000E+03 0. -1.
    8880022    1    1    2    0    0  0.32345258529E+03 -0.31303461284E+03  0.82353213095E+03  0.95089908375E+03  0.15294330000E+03 0.  0.
<mgrwt>
<rscale>  0 0.70092096E+03</rscale>
<asrwt>0</asrwt>
<pdfrwt beam="1">  1        2 0.59863689E+00 0.79776090E+03</pdfrwt>
<pdfrwt beam="2">  1       -2 0.17946061E-01 0.79776090E+03</pdfrwt>
<totfact> 0.11691900E+01</totfact>
</mgrwt>
</event>
<event>
 4    1  0.3565372E-007  0.6955884E+03  0.7818608E-02  0.1001602E+00
          2   -1    0    0  501    0  0.00000000000E+00  0.00000000000E+00  0.10315530189E+04  0.10315530189E+04  0.25500000000E-02 0. -1.
         -2   -1    0    0    0  501 -0.00000000000E+00 -0.00000000000E+00 -0.27569150909E+03  0.27569150910E+03  0.25500000000E-02 0.  1.
    8880023    1    1    2    0    0  0.57501926827E+02  0.21616325770E+03  0.76777561101E+03  0.10360128477E+04  0.65864270000E+03 0. -1.
    8880022    1    1    2    0    0 -0.57501926827E+02 -0.21616325770E+03 -0.11914101167E+02  0.27123168029E+03  0.15294330000E+03 0.  0.
<mgrwt>
<rscale>  0 0.54953392E+03</rscale>
<asrwt>0</asrwt>
<pdfrwt beam="1">  1        2 0.15870047E+00 0.69558841E+03</pdfrwt>
<pdfrwt beam="2">  1       -2 0.42414078E-01 0.69558841E+03</pdfrwt>
<totfact> 0.12880443E+02</totfact>
</mgrwt>
</event>
<event>
 4    1  0.3565372E-007  0.6641629E+03  0.7818608E-02  0.1020246E+00
          2   -1    0    0  501    0  0.00000000000E+00  0.00000000000E+00  0.16876852301E+04  0.16876852301E+04  0.25500000000E-02 0. -1.
         -2   -1    0    0    0  501 -0.00000000000E+00 -0.00000000000E+00 -0.11964112383E+03  0.11964112386E+03  0.25500000000E-02 0.  1.
    8880023    1    1    2    0    0  0.74078498608E+02 -0.42597425604E+02  0.14533746856E+04  0.15979394067E+04  0.65864270000E+03 0. -1.
    8880022    1    1    2    0    0 -0.74078498608E+02  0.42597425604E+02  0.11466942074E+03  0.20938694728E+03  0.15294330000E+03 0.  0.
<mgrwt>
<rscale>  0 0.47597849E+03</rscale>
<asrwt>0</asrwt>
<pdfrwt beam="1">  1        2 0.25964387E+00 0.66416291E+03</pdfrwt>
<pdfrwt beam="2">  1       -2 0.18406328E-01 0.66416291E+03</pdfrwt>
<totfact> 0.25168635E+02</totfact>
</mgrwt>
</event>
<event>
 4    1  0.3565372E-007  0.7856443E+03  0.7818608E-02  0.9742742E-01
         -2   -1    0    0    0  501 -0.00000000000E+00  0.00000000000E+00  0.15733070870E+03  0.15733070872E+03  0.25500000000E-02 0.  1.
          2   -1    0    0  501    0  0.00000000000E+00 -0.00000000000E+00 -0.27796317051E+04  0.27796317051E+04  0.25500000000E-02 0. -1.
    8880023    1    1    2    0    0 -0.15483749200E+03 -0.39931453506E+03 -0.21121585693E+04  0.22535418290E+04  0.65864270000E+03 0.  1.
    8880022    1    1    2    0    0  0.15483749200E+03  0.39931453506E+03 -0.51014242705E+03  0.68342058480E+03  0.15294330000E+03 0.  0.
<mgrwt>
<rscale>  0 0.68528009E+03</rscale>
<asrwt>0</asrwt>
<pdfrwt beam="1">  1        2 0.42763561E+00 0.78564429E+03</pdfrwt>
<pdfrwt beam="2">  1       -2 0.24204727E-01 0.78564429E+03</pdfrwt>
<totfact> 0.37754108E+01</totfact>
</mgrwt>
</event>
<event>
 4    1  0.4909550E-007  0.7188103E+03  0.7818608E-02  0.9926632E-01
          2   -1    0    0  501    0  0.00000000000E+00  0.00000000000E+00  0.13407926866E+04  0.13407926866E+04  0.25500000000E-02 0. -1.
         -2   -1    0    0    0  501 -0.00000000000E+00 -0.00000000000E+00 -0.13249792853E+04  0.13249792853E+04  0.25500000000E-02 0.  1.
    8880023    1    1    2    0    0 -0.22832817764E+03 -0.17534066322E+03  0.12212200229E+04  0.14170626858E+04  0.65864270000E+03 0.  0.
    8880022    1    1    2    0    0  0.22832817764E+03  0.17534066322E+03 -0.12054066216E+04  0.12487092861E+04  0.15294330000E+03 0.  0.
<mgrwt>
<rscale>  0 0.58987766E+03</rscale>
<asrwt>0</asrwt>
<pdfrwt beam="1">  1        2 0.20627580E+00 0.71881034E+03</pdfrwt>
<pdfrwt beam="2">  1       -2 0.20384297E+00 0.71881034E+03</pdfrwt>
<totfact> 0.20346908E+00</totfact>
</mgrwt>
</event>
<event>
 4    1  0.3565372E-007  0.6733655E+03  0.7818608E-02  0.1013357E+00
         -2   -1    0    0    0  501 -0.00000000000E+00  0.00000000000E+00  0.37140870213E+03  0.37140870214E+03  0.25500000000E-02 0.  1.
          2   -1    0    0  501    0  0.00000000000E+00 -0.00000000000E+00 -0.25515974747E+04  0.25515974747E+04  0.25500000000E-02 0. -1.
    8880023    1    1    2    0    0  0.13681684962E+03 -0.29867021550E+02 -0.24736545637E+04  0.25636669042E+04  0.65864270000E+03 0. -1.
    8880022    1    1    2    0    0 -0.13681684962E+03  0.29867021550E+02  0.29346579106E+03  0.35933927263E+03  0.15294330000E+03 0.  0.
<mgrwt>
<rscale>  0 0.50162008E+03</rscale>
<asrwt>0</asrwt>
<pdfrwt beam="1">  1        2 0.39255345E+00 0.67336550E+03</pdfrwt>
<pdfrwt beam="2">  1       -2 0.57139802E-01 0.67336550E+03</pdfrwt>
<totfact> 0.99269573E+00</totfact>
</mgrwt>
</event>
<event>
 4    1  0.9101823E-007  0.1014914E+04  0.7818608E-02  0.9362301E-01
         -2   -1    0    0    0  501 -0.00000000000E+00  0.00000000000E+00  0.16623483548E+04  0.16623483548E+04  0.25500000000E-02 0.  1.
          2   -1    0    0  501    0  0.00000000000E+00 -0.00000000000E+00 -0.21188655809E+04  0.21188655809E+04  0.25500000000E-02 0. -1.
    8880023    1    1    2    0    0 -0.76649491894E+03 -0.93407830492E+02 -0.18903190176E+04  0.21455432128E+04  0.65864270000E+03 0. -1.
    8880022    1    1    2    0    0  0.76649491894E+03  0.93407830492E+02  0.14338017914E+04  0.16356707229E+04  0.15294330000E+03 0.  0.
<mgrwt>
<rscale>  0 0.95244185E+03</rscale>
<asrwt>0</asrwt>
<pdfrwt beam="1">  1        2 0.32597932E+00 0.10149136E+04</pdfrwt>
<pdfrwt beam="2">  1       -2 0.25574590E+00 0.10149136E+04</pdfrwt>
<totfact> 0.34078841E-01</totfact>
</mgrwt>
</event>
<event>
 4    1  0.3565372E-007  0.7679041E+03  0.7818608E-02  0.9785058E-01
         -2   -1    0    0    0  501 -0.00000000000E+00  0.00000000000E+00  0.65076745291E+03  0.65076745292E+03  0.25500000000E-02 0.  1.
          2   -1    0    0  501    0  0.00000000000E+00 -0.00000000000E+00 -0.74581610711E+03  0.74581610711E+03  0.25500000000E-02 0. -1.
    8880023    1    1    2    0    0  0.38888894070E+03  0.68057991974E+02 -0.40849366142E+03  0.86979524956E+03  0.65864270000E+03 0. -1.
    8880022    1    1    2    0    0 -0.38888894070E+03 -0.68057991974E+02  0.31344500723E+03  0.52678831047E+03  0.15294330000E+03 0. -1.
<mgrwt>
<rscale>  0 0.66170605E+03</rscale>
<asrwt>0</asrwt>
<pdfrwt beam="1">  1        2 0.11474094E+00 0.76790410E+03</pdfrwt>
<pdfrwt beam="2">  1       -2 0.10011807E+00 0.76790410E+03</pdfrwt>
<totfact> 0.31491808E+01</totfact>
</mgrwt>
</event>
<event>
 4    1  0.3565372E-007  0.7267155E+03  0.7818608E-02  0.9900485E-01
          2   -1    0    0  501    0  0.00000000000E+00  0.00000000000E+00  0.98027890315E+03  0.98027890316E+03  0.25500000000E-02 0. -1.
         -2   -1    0    0    0  501 -0.00000000000E+00 -0.00000000000E+00 -0.31179528976E+03  0.31179528977E+03  0.25500000000E-02 0.  1.
    8880023    1    1    2    0    0 -0.64749415027E+02 -0.30018790579E+03  0.59962974743E+03  0.94216309936E+03  0.65864270000E+03 0. -1.
    8880022    1    1    2    0    0  0.64749415027E+02  0.30018790579E+03  0.68853865958E+02  0.34991109357E+03  0.15294330000E+03 0.  1.
<mgrwt>
<rscale>  0 0.60237782E+03</rscale>
<asrwt>0</asrwt>
<pdfrwt beam="1">  1        2 0.15081214E+00 0.72671554E+03</pdfrwt>
<pdfrwt beam="2">  1       -2 0.47968507E-01 0.72671554E+03</pdfrwt>
<totfact> 0.10838460E+02</totfact>
</mgrwt>
</event>
<event>
 4    1  0.3565372E-007  0.8088886E+03  0.7818608E-02  0.9691897E-01
          2   -1    0    0  501    0  0.00000000000E+00  0.00000000000E+00  0.30656461845E+04  0.30656461845E+04  0.25500000000E-02 0. -1.
         -2   -1    0    0    0  501 -0.00000000000E+00 -0.00000000000E+00 -0.13959908170E+03  0.13959908172E+03  0.25500000000E-02 0.  1.
    8880023    1    1    2    0    0 -0.24351707708E+03  0.40148470084E+03  0.19580874369E+04  0.21185861202E+04  0.65864270000E+03 0. -1.
    8880022    1    1    2    0    0  0.24351707708E+03 -0.40148470084E+03  0.96795966588E+03  0.10866591460E+04  0.15294330000E+03 0.  1.
<mgrwt>
<rscale>  0 0.71501317E+03</rscale>
<asrwt>0</asrwt>
<pdfrwt beam="1">  1        2 0.47163782E+00 0.80888858E+03</pdfrwt>
<pdfrwt beam="2">  1       -2 0.21476784E-01 0.80888858E+03</pdfrwt>
<totfact> 0.31272346E+01</totfact>
</mgrwt>
</event>
<event>
 4    1  0.3565372E-007  0.1363450E+04  0.7818608E-02  0.9012616E-01
          2   -1    0    0  501    0  0.00000000000E+00  0.00000000000E+00  0.34460751029E+04  0.34460751029E+04  0.25500000000E-02 0. -1.
         -2   -1    0    0    0  501 -0.00000000000E+00 -0.00000000000E+00 -0.66993274263E+03  0.66993274263E+03  0.25500000000E-02 0.  1.
    8880023    1    1    2    0    0 -0.37958910194E+03  0.11318559477E+04  0.25496457103E+04  0.28913127169E+04  0.65864270000E+03 0.  0.
    8880022    1    1    2    0    0  0.37958910194E+03 -0.11318559477E+04  0.22649665006E+03  0.12246951287E+04  0.15294330000E+03 0.  0.
<mgrwt>
<rscale>  0 0.13215912E+04</rscale>
<asrwt>0</asrwt>
<pdfrwt beam="1">  1        2 0.53016540E+00 0.13634500E+04</pdfrwt>
<pdfrwt beam="2">  1       -2 0.10306658E+00 0.13634500E+04</pdfrwt>
<totfact> 0.66542262E-01</totfact>
</mgrwt>
</event>
<event>
 4    1  0.3565372E-007  0.7695687E+03  0.7818608E-02  0.9780937E-01
          2   -1    0    0  501    0  0.00000000000E+00  0.00000000000E+00  0.18895359890E+04  0.18895359890E+04  0.25500000000E-02 0. -1.
         -2   -1    0    0    0  501 -0.00000000000E+00 -0.00000000000E+00 -0.46735815997E+03  0.46735815998E+03  0.25500000000E-02 0.  1.
    8880023    1    1    2    0    0 -0.34855533594E+03 -0.19218477624E+03  0.16874937784E+04  0.18546889952E+04  0.65864270000E+03 0.  0.
    8880022    1    1    2    0    0  0.34855533594E+03  0.19218477624E+03 -0.26531594942E+03  0.50220515376E+03  0.15294330000E+03 0.  0.
<mgrwt>
<rscale>  0 0.66395708E+03</rscale>
<asrwt>0</asrwt>
<pdfrwt beam="1">  1        2 0.29069785E+00 0.76956872E+03</pdfrwt>
<pdfrwt beam="2">  1       -2 0.71901255E-01 0.76956872E+03</pdfrwt>
<totfact> 0.13887865E+01</totfact>
</mgrwt>
</event>
<event>
 4    1  0.3565372E-007  0.7811169E+03  0.7818608E-02  0.9753220E-01
          2   -1    0    0  501    0  0.00000000000E+00  0.00000000000E+00  0.11678127653E+04  0.11678127653E+04  0.25500000000E-02 0. -1.
         -2   -1    0    0    0  501 -0.00000000000E+00 -0.00000000000E+00 -0.35285463783E+03  0.35285463784E+03  0.25500000000E-02 0.  1.
    8880023    1    1    2    0    0 -0.69612884696E+02 -0.41411034933E+03  0.29481156958E+03  0.83489963646E+03  0.65864270000E+03 0.  0.
    8880022    1    1    2    0    0  0.69612884696E+02  0.41411034933E+03  0.52014655793E+03  0.68576776672E+03  0.15294330000E+03 0.  0.
<mgrwt>
<rscale>  0 0.67934605E+03</rscale>
<asrwt>0</asrwt>
<pdfrwt beam="1">  1        2 0.17966350E+00 0.78111686E+03</pdfrwt>
<pdfrwt beam="2">  1       -2 0.54285330E-01 0.78111686E+03</pdfrwt>
<totfact> 0.64146153E+01</totfact>
</mgrwt>
</event>
<event>
 4    1  0.3565372E-007  0.6589303E+03  0.7818608E-02  0.1025280E+00
         -2   -1    0    0    0  501 -0.00000000000E+00  0.00000000000E+00  0.18193971118E+04  0.18193971118E+04  0.25500000000E-02 0.  1.
          2   -1    0    0  501    0  0.00000000000E+00 -0.00000000000E+00 -0.63573610787E+03  0.63573610787E+03  0.25500000000E-02 0. -1.
    8880023    1    1    2    0    0  0.18567902737E+02 -0.58469255635E+01 -0.46041255573E+03  0.80384630452E+03  0.65864270000E+03 0. -1.
    8880022    1    1    2    0    0 -0.18567902737E+02  0.58469255635E+01  0.16440735597E+04  0.16512869152E+04  0.15294330000E+03 0.  0.
<mgrwt>
<rscale>  0 0.45828395E+03</rscale>
<asrwt>0</asrwt>
<pdfrwt beam="1">  1        2 0.97805555E-01 0.65893031E+03</pdfrwt>
<pdfrwt beam="2">  1       -2 0.27990725E+00 0.65893031E+03</pdfrwt>
<totfact> 0.20532047E+00</totfact>
</mgrwt>
</event>
<event>
 4    1  0.3565372E-007  0.6927891E+03  0.7818608E-02  0.1002854E+00
         -2   -1    0    0    0  501 -0.00000000000E+00  0.00000000000E+00  0.33875932148E+03  0.33875932149E+03  0.25500000000E-02 0.  1.
          2   -1    0    0  501    0  0.00000000000E+00 -0.00000000000E+00 -0.19787394646E+04  0.19787394646E+04  0.25500000000E-02 0. -1.
    8880023    1    1    2    0    0  0.11577866427E+01 -0.21481432497E+03 -0.18531490265E+04  0.19784130144E+04  0.65864270000E+03 0. -1.
    8880022    1    1    2    0    0 -0.11577866427E+01  0.21481432497E+03  0.21316888343E+03  0.33908577168E+03  0.15294330000E+03 0.  0.
<mgrwt>
<rscale>  0 0.54416262E+03</rscale>
<asrwt>0</asrwt>
<pdfrwt beam="1">  1        2 0.30442145E+00 0.69278910E+03</pdfrwt>
<pdfrwt beam="2">  1       -2 0.52116820E-01 0.69278910E+03</pdfrwt>
<totfact> 0.24844613E+01</totfact>
</mgrwt>
</event>
<event>
 4    1  0.3565372E-007  0.6631814E+03  0.7818608E-02  0.1021110E+00
         -2   -1    0    0    0  501 -0.00000000000E+00  0.00000000000E+00  0.44984206728E+03  0.44984206728E+03  0.25500000000E-02 0.  1.
          2   -1    0    0  501    0  0.00000000000E+00 -0.00000000000E+00 -0.42920447475E+03  0.42920447476E+03  0.25500000000E-02 0. -1.
    8880023    1    1    2    0    0  0.49881773326E+02  0.59255013647E+02  0.12985455940E+03  0.67577493355E+03  0.65864270000E+03 0.  0.
    8880022    1    1    2    0    0 -0.49881773326E+02 -0.59255013647E+02 -0.10921696687E+03  0.20327160850E+03  0.15294330000E+03 0.  0.
<mgrwt>
<rscale>  0 0.47288011E+03</rscale>
<asrwt>0</asrwt>
<pdfrwt beam="1">  1        2 0.66031457E-01 0.66318139E+03</pdfrwt>
<pdfrwt beam="2">  1       -2 0.69206472E-01 0.66318139E+03</pdfrwt>
<totfact> 0.14189493E+02</totfact>
</mgrwt>
</event>
<event>
 4    1  0.3565372E-007  0.7064835E+03  0.7818608E-02  0.9971298E-01
         -2   -1    0    0    0  501 -0.00000000000E+00  0.00000000000E+00  0.76721218911E+03  0.76721218912E+03  0.25500000000E-02 0.  1.
          2   -1    0    0  501    0  0.00000000000E+00 -0.00000000000E+00 -0.37956246024E+03  0.37956246025E+03  0.25500000000E-02 0. -1.
    8880023    1    1    2    0    0  0.22018448269E+03  0.12972098592E+03  0.67792217927E+02  0.70972863242E+03  0.65864270000E+03 0. -1.
    8880022    1    1    2    0    0 -0.22018448269E+03 -0.12972098592E+03  0.31985751094E+03  0.43704601695E+03  0.15294330000E+03 0.  0.
<mgrwt>
<rscale>  0 0.56926858E+03</rscale>
<asrwt>0</asrwt>
<pdfrwt beam="1">  1        2 0.58394225E-01 0.70648351E+03</pdfrwt>
<pdfrwt beam="2">  1       -2 0.11803264E+00 0.70648351E+03</pdfrwt>
<totfact> 0.47323131E+01</totfact>
</mgrwt>
</event>
<event>
 4    1  0.3565372E-007  0.1532518E+04  0.7818608E-02  0.8887009E-01
         -2   -1    0    0    0  501 -0.00000000000E+00  0.00000000000E+00  0.81884321905E+03  0.81884321905E+03  0.25500000000E-02 0.  1.
          2   -1    0    0  501    0  0.00000000000E+00 -0.00000000000E+00 -0.34949049222E+04  0.34949049222E+04  0.25500000000E-02 0. -1.
    8880023    1    1    2    0    0 -0.75815124542E+03 -0.11575870278E+04 -0.24694121602E+04  0.29063048122E+04  0.65864270000E+03 0.  0.
    8880022    1    1    2    0    0  0.75815124542E+03  0.11575870278E+04 -0.20664954293E+03  0.14074433291E+04  0.15294330000E+03 0.  0.
<mgrwt>
<rscale>  0 0.14961626E+04</rscale>
<asrwt>0</asrwt>
<pdfrwt beam="1">  1        2 0.53767767E+00 0.15325179E+04</pdfrwt>
<pdfrwt beam="2">  1       -2 0.12597588E+00 0.15325179E+04</pdfrwt>
<totfact> 0.36733791E-01</totfact>
</mgrwt>
</event>
<event>
 4    1  0.3565372E-007  0.9113192E+03  0.7818608E-02  0.9508100E-01
          2   -1    0    0  501    0  0.00000000000E+00  0.00000000000E+00  0.15700086895E+04  0.15700086895E+04  0.25500000000E-02 0. -1.
         -2   -1    0    0    0  501 -0.00000000000E+00 -0.00000000000E+00 -0.70545060762E+03  0.70545060762E+03  0.25500000000E-02 0.  1.
    8880023    1    1    2    0    0  0.37265452933E+03  0.50776080881E+03  0.12304457607E+04  0.15311758271E+04  0.65864270000E+03 0.  0.
    8880022    1    1    2    0    0 -0.37265452933E+03 -0.50776080881E+03 -0.36588767884E+03  0.74428347001E+03  0.15294330000E+03 0.  0.
<mgrwt>
<rscale>  0 0.83689295E+03</rscale>
<asrwt>0</asrwt>
<pdfrwt beam="1">  1        2 0.24153980E+00 0.91131918E+03</pdfrwt>
<pdfrwt beam="2">  1       -2 0.10853086E+00 0.91131918E+03</pdfrwt>
<totfact> 0.79088773E+00</totfact>
</mgrwt>
</event>
<event>
 4    1  0.5523091E-007  0.1458668E+04  0.7818608E-02  0.8939387E-01
         -2   -1    0    0    0  501 -0.00000000000E+00  0.00000000000E+00  0.22679031560E+04  0.22679031560E+04  0.25500000000E-02 0.  1.
          2   -1    0    0  501    0  0.00000000000E+00 -0.00000000000E+00 -0.35980670015E+04  0.35980670015E+04  0.25500000000E-02 0. -1.
    8880023    1    1    2    0    0 -0.12493207518E+04  0.36482861116E+03 -0.32380196650E+04  0.35514058925E+04  0.65864270000E+03 0. -1.
    8880022    1    1    2    0    0  0.12493207518E+04 -0.36482861116E+03  0.19078558194E+04  0.23145642650E+04  0.15294330000E+03 0.  0.
<mgrwt>
<rscale>  0 0.14201131E+04</rscale>
<asrwt>0</asrwt>
<pdfrwt beam="1">  1        2 0.55354877E+00 0.14586680E+04</pdfrwt>
<pdfrwt beam="2">  1       -2 0.34890818E+00 0.14586680E+04</pdfrwt>
<totfact> 0.10465666E-02</totfact>
</mgrwt>
</event>
<event>
 4    1  0.3565372E-007  0.7859444E+03  0.7818608E-02  0.9742054E-01
         -2   -1    0    0    0  501 -0.00000000000E+00  0.00000000000E+00  0.17302551769E+03  0.17302551771E+03  0.25500000000E-02 0.  1.
          2   -1    0    0  501    0  0.00000000000E+00 -0.00000000000E+00 -0.22932236748E+04  0.22932236748E+04  0.25500000000E-02 0. -1.
    8880023    1    1    2    0    0  0.36005180245E+03 -0.23294026858E+03 -0.15378526441E+04  0.17270493422E+04  0.65864270000E+03 0. -1.
    8880022    1    1    2    0    0 -0.36005180245E+03  0.23294026858E+03 -0.58234551308E+03  0.73919985037E+03  0.15294330000E+03 0.  1.
<mgrwt>
<rscale>  0 0.68567168E+03</rscale>
<asrwt>0</asrwt>
<pdfrwt beam="1">  1        2 0.35280362E+00 0.78594445E+03</pdfrwt>
<pdfrwt beam="2">  1       -2 0.26619312E-01 0.78594445E+03</pdfrwt>
<totfact> 0.60260679E+01</totfact>
</mgrwt>
</event>
<event>
 4    1  0.1038294E-006  0.8678808E+03  0.7818608E-02  0.9579696E-01
          2   -1    0    0  501    0  0.00000000000E+00  0.00000000000E+00  0.21395639120E+04  0.21395639120E+04  0.25500000000E-02 0. -1.
         -2   -1    0    0    0  501 -0.00000000000E+00 -0.00000000000E+00 -0.16015968988E+04  0.16015968988E+04  0.25500000000E-02 0.  1.
    8880023    1    1    2    0    0 -0.52249388350E+03 -0.21542270019E+03  0.19924470496E+04  0.21732607414E+04  0.65864270000E+03 0. -1.
    8880022    1    1    2    0    0  0.52249388350E+03  0.21542270019E+03 -0.14544800365E+04  0.15679000694E+04  0.15294330000E+03 0.  0.
<mgrwt>
<rscale>  0 0.78654740E+03</rscale>
<asrwt>0</asrwt>
<pdfrwt beam="1">  1        2 0.32916368E+00 0.86788075E+03</pdfrwt>
<pdfrwt beam="2">  1       -2 0.24639952E+00 0.86788075E+03</pdfrwt>
<totfact> 0.38890796E-01</totfact>
</mgrwt>
</event>
<event>
 4    1  0.3565372E-007  0.7255524E+03  0.7818608E-02  0.9904227E-01
         -2   -1    0    0    0  501 -0.00000000000E+00  0.00000000000E+00  0.12514349292E+04  0.12514349292E+04  0.25500000000E-02 0.  1.
          2   -1    0    0  501    0  0.00000000000E+00 -0.00000000000E+00 -0.92880549300E+03  0.92880549300E+03  0.25500000000E-02 0. -1.
    8880023    1    1    2    0    0 -0.75516140806E+02 -0.29481085357E+03 -0.75676167841E+03  0.10483866515E+04  0.65864270000E+03 0. -1.
    8880022    1    1    2    0    0  0.75516140806E+02  0.29481085357E+03  0.10793911146E+04  0.11318537706E+04  0.15294330000E+03 0.  0.
<mgrwt>
<rscale>  0 0.60056842E+03</rscale>
<asrwt>0</asrwt>
<pdfrwt beam="1">  1        2 0.14289315E+00 0.72555243E+03</pdfrwt>
<pdfrwt beam="2">  1       -2 0.19252845E+00 0.72555243E+03</pdfrwt>
<totfact> 0.42878617E+00</totfact>
</mgrwt>
</event>
<event>
 4    1  0.3565372E-007  0.7667819E+03  0.7818608E-02  0.9787856E-01
         -2   -1    0    0    0  501 -0.00000000000E+00  0.00000000000E+00  0.65093888311E+03  0.65093888312E+03  0.25500000000E-02 0.  1.
          2   -1    0    0  501    0  0.00000000000E+00 -0.00000000000E+00 -0.96781754446E+03  0.96781754447E+03  0.25500000000E-02 0. -1.
    8880023    1    1    2    0    0  0.20556952499E+03  0.33449286485E+03 -0.70814608197E+03  0.10437554244E+04  0.65864270000E+03 0. -1.
    8880022    1    1    2    0    0 -0.20556952499E+03 -0.33449286485E+03  0.39126742062E+03  0.57500100321E+03  0.15294330000E+03 0.  0.
<mgrwt>
<rscale>  0 0.66018354E+03</rscale>
<asrwt>0</asrwt>
<pdfrwt beam="1">  1        2 0.14889501E+00 0.76678192E+03</pdfrwt>
<pdfrwt beam="2">  1       -2 0.10014444E+00 0.76678192E+03</pdfrwt>
<totfact> 0.22067870E+01</totfact>
</mgrwt>
</event>
<event>
 4    1  0.3565372E-007  0.7032019E+03  0.7818608E-02  0.9984169E-01
         -2   -1    0    0    0  501 -0.00000000000E+00  0.00000000000E+00  0.26532979092E+03  0.26532979093E+03  0.25500000000E-02 0.  1.
          2   -1    0    0  501    0  0.00000000000E+00 -0.00000000000E+00 -0.13483191690E+04  0.13483191690E+04  0.25500000000E-02 0. -1.
    8880023    1    1    2    0    0 -0.23402214409E+03  0.76918086090E+02 -0.11188506030E+04  0.13214838758E+04  0.65864270000E+03 0. -1.
    8880022    1    1    2    0    0  0.23402214409E+03 -0.76918086090E+02  0.35861224966E+02  0.29216508410E+03  0.15294330000E+03 0.  0.
<mgrwt>
<rscale>  0 0.56349883E+03</rscale>
<asrwt>0</asrwt>
<pdfrwt beam="1">  1        2 0.20743371E+00 0.70320194E+03</pdfrwt>
<pdfrwt beam="2">  1       -2 0.40819969E-01 0.70320194E+03</pdfrwt>
<totfact> 0.89958760E+01</totfact>
</mgrwt>
</event>
<event>
 4    1  0.3565372E-007  0.8370725E+03  0.7818608E-02  0.9635725E-01
          2   -1    0    0  501    0  0.00000000000E+00  0.00000000000E+00  0.12364530856E+04  0.12364530856E+04  0.25500000000E-02 0. -1.
         -2   -1    0    0    0  501 -0.00000000000E+00 -0.00000000000E+00 -0.52610490759E+03  0.52610490760E+03  0.25500000000E-02 0.  1.
    8880023    1    1    2    0    0  0.29118039434E+03  0.42672492705E+03  0.86331112478E+03  0.12024959417E+04  0.65864270000E+03 0.  0.
    8880022    1    1    2    0    0 -0.29118039434E+03 -0.42672492705E+03 -0.15296294677E+03  0.56006205148E+03  0.15294330000E+03 0.  0.
<mgrwt>
<rscale>  0 0.74976113E+03</rscale>
<asrwt>0</asrwt>
<pdfrwt beam="1">  1        2 0.19022355E+00 0.83707251E+03</pdfrwt>
<pdfrwt beam="2">  1       -2 0.80939218E-01 0.83707251E+03</pdfrwt>
<totfact> 0.24508651E+01</totfact>
</mgrwt>
</event>
<event>
 4    1  0.3565372E-007  0.7906187E+03  0.7818608E-02  0.9731460E-01
          2   -1    0    0  501    0  0.00000000000E+00  0.00000000000E+00  0.26834332519E+04  0.26834332519E+04  0.25500000000E-02 0. -1.
         -2   -1    0    0    0  501 -0.00000000000E+00 -0.00000000000E+00 -0.17730509464E+03  0.17730509466E+03  0.25500000000E-02 0.  1.
    8880023    1    1    2    0    0  0.22855625434E+03  0.37286685784E+03  0.21026048137E+04  0.22463358751E+04  0.65864270000E+03 0. -1.
    8880022    1    1    2    0    0 -0.22855625434E+03 -0.37286685784E+03  0.40352334357E+03  0.61440247143E+03  0.15294330000E+03 0.  0.
<mgrwt>
<rscale>  0 0.69174178E+03</rscale>
<asrwt>0</asrwt>
<pdfrwt beam="1">  1        2 0.41283586E+00 0.79061866E+03</pdfrwt>
<pdfrwt beam="2">  1       -2 0.27277708E-01 0.79061866E+03</pdfrwt>
<totfact> 0.34585687E+01</totfact>
</mgrwt>
</event>
<event>
 4    1  0.3565372E-007  0.1000908E+04  0.7818608E-02  0.9380370E-01
          2   -1    0    0  501    0  0.00000000000E+00  0.00000000000E+00  0.10167756034E+04  0.10167756034E+04  0.25500000000E-02 0. -1.
         -2   -1    0    0    0  501 -0.00000000000E+00 -0.00000000000E+00 -0.77164285848E+03  0.77164285849E+03  0.25500000000E-02 0.  1.
    8880023    1    1    2    0    0  0.69041168567E+03  0.30222308216E+03  0.10085212925E+03  0.10059763642E+04  0.65864270000E+03 0. -1.
    8880022    1    1    2    0    0 -0.69041168567E+03 -0.30222308216E+03  0.14428061562E+03  0.78244209764E+03  0.15294330000E+03 0.  1.
<mgrwt>
<rscale>  0 0.93708880E+03</rscale>
<asrwt>0</asrwt>
<pdfrwt beam="1">  1        2 0.15642702E+00 0.10009082E+04</pdfrwt>
<pdfrwt beam="2">  1       -2 0.11871429E+00 0.10009082E+04</pdfrwt>
<totfact> 0.13302423E+01</totfact>
</mgrwt>
</event>
<event>
 4    1  0.3565372E-007  0.7159179E+03  0.7818608E-02  0.9936648E-01
          2   -1    0    0  501    0  0.00000000000E+00  0.00000000000E+00  0.17411419605E+04  0.17411419605E+04  0.25500000000E-02 0. -1.
         -2   -1    0    0    0  501 -0.00000000000E+00 -0.00000000000E+00 -0.54510803429E+03  0.54510803429E+03  0.25500000000E-02 0.  1.
    8880023    1    1    2    0    0 -0.16088653076E+03 -0.22987785171E+03  0.16107568381E+04  0.17626900182E+04  0.65864270000E+03 0. -1.
    8880022    1    1    2    0    0  0.16088653076E+03  0.22987785171E+03 -0.41472291186E+03  0.52355997663E+03  0.15294330000E+03 0.  0.
<mgrwt>
<rscale>  0 0.58517568E+03</rscale>
<asrwt>0</asrwt>
<pdfrwt beam="1">  1        2 0.26786800E+00 0.71591795E+03</pdfrwt>
<pdfrwt beam="2">  1       -2 0.83862773E-01 0.71591795E+03</pdfrwt>
<totfact> 0.11955620E+01</totfact>
</mgrwt>
</event>
<event>
 4    1  0.3565372E-007  0.8719278E+03  0.7818608E-02  0.9572689E-01
          2   -1    0    0  501    0  0.00000000000E+00  0.00000000000E+00  0.28435330478E+04  0.28435330478E+04  0.25500000000E-02 0. -1.
         -2   -1    0    0    0  501 -0.00000000000E+00 -0.00000000000E+00 -0.50054582749E+03  0.50054582750E+03  0.25500000000E-02 0.  1.
    8880023    1    1    2    0    0 -0.55912186993E+03  0.11760344170E+03  0.25674340707E+04  0.27114527008E+04  0.65864270000E+03 0. -1.
    8880022    1    1    2    0    0  0.55912186993E+03 -0.11760344170E+03 -0.22444685043E+03  0.63262617447E+03  0.15294330000E+03 0.  0.
<mgrwt>
<rscale>  0 0.79130514E+03</rscale>
<asrwt>0</asrwt>
<pdfrwt beam="1">  1        2 0.43746663E+00 0.87192777E+03</pdfrwt>
<pdfrwt beam="2">  1       -2 0.77007049E-01 0.87192777E+03</pdfrwt>
<totfact> 0.34008014E+00</totfact>
</mgrwt>
</event>
<event>
 4    1  0.3565372E-007  0.8575431E+03  0.7818608E-02  0.9597949E-01
         -2   -1    0    0    0  501 -0.00000000000E+00  0.00000000000E+00  0.25278255405E+03  0.25278255406E+03  0.25500000000E-02 0.  1.
          2   -1    0    0  501    0  0.00000000000E+00 -0.00000000000E+00 -0.37591775618E+04  0.37591775618E+04  0.25500000000E-02 0. -1.
    8880023    1    1    2    0    0  0.17830758539E+03 -0.51939999652E+03 -0.32937239385E+04  0.34035272205E+04  0.65864270000E+03 0. -1.
    8880022    1    1    2    0    0 -0.17830758539E+03  0.51939999652E+03 -0.21267106918E+03  0.60843289529E+03  0.15294330000E+03 0. -1.
<mgrwt>
<rscale>  0 0.77432088E+03</rscale>
<asrwt>0</asrwt>
<pdfrwt beam="1">  1        2 0.57833497E+00 0.85754309E+03</pdfrwt>
<pdfrwt beam="2">  1       -2 0.38889626E-01 0.85754309E+03</pdfrwt>
<totfact> 0.35322929E+00</totfact>
</mgrwt>
</event>
<event>
 4    1  0.3565372E-007  0.6693488E+03  0.7818608E-02  0.1016134E+00
         -2   -1    0    0    0  501 -0.00000000000E+00  0.00000000000E+00  0.87574741549E+02  0.87574741586E+02  0.25500000000E-02 0.  1.
          2   -1    0    0  501    0  0.00000000000E+00 -0.00000000000E+00 -0.37071850259E+04  0.37071850259E+04  0.25500000000E-02 0. -1.
    8880023    1    1    2    0    0  0.10051239396E+03  0.64146900014E+02 -0.35074158217E+04  0.35707133067E+04  0.65864270000E+03 0.  0.
    8880022    1    1    2    0    0 -0.10051239396E+03 -0.64146900014E+02 -0.11219446264E+03  0.22404646077E+03  0.15294330000E+03 0.  1.
<mgrwt>
<rscale>  0 0.49107875E+03</rscale>
<asrwt>0</asrwt>
<pdfrwt beam="1">  1        2 0.57033604E+00 0.66934877E+03</pdfrwt>
<pdfrwt beam="2">  1       -2 0.13473040E-01 0.66934877E+03</pdfrwt>
<totfact> 0.26670269E+01</totfact>
</mgrwt>
</event>
<event>
 4    1  0.3565372E-007  0.9326577E+03  0.7818608E-02  0.9475518E-01
          2   -1    0    0  501    0  0.00000000000E+00  0.00000000000E+00  0.12437240574E+04  0.12437240574E+04  0.25500000000E-02 0. -1.
         -2   -1    0    0    0  501 -0.00000000000E+00 -0.00000000000E+00 -0.13851828964E+04  0.13851828964E+04  0.25500000000E-02 0.  1.
    8880023    1    1    2    0    0  0.24802322081E+03  0.61198423993E+03  0.95818221711E+03  0.13371475593E+04  0.65864270000E+03 0.  0.
    8880022    1    1    2    0    0 -0.24802322081E+03 -0.61198423993E+03 -0.10996410561E+04  0.12917593945E+04  0.15294330000E+03 0.  0.
<mgrwt>
<rscale>  0 0.86113127E+03</rscale>
<asrwt>0</asrwt>
<pdfrwt beam="1">  1        2 0.19134216E+00 0.93265773E+03</pdfrwt>
<pdfrwt beam="2">  1       -2 0.21310506E+00 0.93265773E+03</pdfrwt>
<totfact> 0.19549193E+00</totfact>
</mgrwt>
</event>
<event>
 4    1  0.3565372E-007  0.7010757E+03  0.7818608E-02  0.9992768E-01
          2   -1    0    0  501    0  0.00000000000E+00  0.00000000000E+00  0.48821441483E+03  0.48821441484E+03  0.25500000000E-02 0. -1.
         -2   -1    0    0    0  501 -0.00000000000E+00 -0.00000000000E+00 -0.11566196091E+04  0.11566196091E+04  0.25500000000E-02 0.  1.
    8880023    1    1    2    0    0 -0.12183555963E+03 -0.20700966017E+03  0.20153971242E+03  0.72946923509E+03  0.65864270000E+03 0.  0.
    8880022    1    1    2    0    0  0.12183555963E+03  0.20700966017E+03 -0.86994490667E+03  0.91536478884E+03  0.15294330000E+03 0.  1.
<mgrwt>
<rscale>  0 0.55968494E+03</rscale>
<asrwt>0</asrwt>
<pdfrwt beam="1">  1        2 0.75109911E-01 0.70107568E+03</pdfrwt>
<pdfrwt beam="2">  1       -2 0.17794148E+00 0.70107568E+03</pdfrwt>
<totfact> 0.12117494E+01</totfact>
</mgrwt>
</event>
<event>
 4    1  0.3565372E-007  0.7493098E+03  0.7818608E-02  0.9833613E-01
         -2   -1    0    0    0  501 -0.00000000000E+00  0.00000000000E+00  0.61639852496E+03  0.61639852496E+03  0.25500000000E-02 0.  1.
          2   -1    0    0  501    0  0.00000000000E+00 -0.00000000000E+00 -0.82707032591E+03  0.82707032592E+03  0.25500000000E-02 0. -1.
    8880023    1    1    2    0    0 -0.24636231891E+03  0.25876755829E+03 -0.54842562283E+03  0.92856658966E+03  0.65864270000E+03 0. -1.
    8880022    1    1    2    0    0  0.24636231891E+03 -0.25876755829E+03  0.33775382187E+03  0.51490226122E+03  0.15294330000E+03 0.  0.
<mgrwt>
<rscale>  0 0.63589438E+03</rscale>
<asrwt>0</asrwt>
<pdfrwt beam="1">  1        2 0.12724159E+00 0.74930985E+03</pdfrwt>
<pdfrwt beam="2">  1       -2 0.94830542E-01 0.74930985E+03</pdfrwt>
<totfact> 0.31274539E+01</totfact>
</mgrwt>
</event>
<event>
 4    1  0.3565372E-007  0.7828497E+03  0.7818608E-02  0.9749185E-01
          2   -1    0    0  501    0  0.00000000000E+00  0.00000000000E+00  0.45051846482E+03  0.45051846483E+03  0.25500000000E-02 0. -1.
         -2   -1    0    0    0  501 -0.00000000000E+00 -0.00000000000E+00 -0.94695301128E+03  0.94695301128E+03  0.25500000000E-02 0.  1.
    8880023    1    1    2    0    0  0.15584021863E+03 -0.39339199419E+03 -0.84405034685E+02  0.78738672263E+03  0.65864270000E+03 0.  0.
    8880022    1    1    2    0    0 -0.15584021863E+03  0.39339199419E+03 -0.41202951177E+03  0.61008475347E+03  0.15294330000E+03 0.  0.
<mgrwt>
<rscale>  0 0.68162343E+03</rscale>
<asrwt>0</asrwt>
<pdfrwt beam="1">  1        2 0.69310533E-01 0.78284969E+03</pdfrwt>
<pdfrwt beam="2">  1       -2 0.14568508E+00 0.78284969E+03</pdfrwt>
<totfact> 0.22711164E+01</totfact>
</mgrwt>
</event>
<event>
 4    1  0.3565372E-007  0.7732543E+03  0.7818608E-02  0.9771928E-01
         -2   -1    0    0    0  501 -0.00000000000E+00  0.00000000000E+00  0.43637794608E+03  0.43637794609E+03  0.25500000000E-02 0.  1.
          2   -1    0    0  501    0  0.00000000000E+00 -0.00000000000E+00 -0.17899217158E+04  0.17899217158E+04  0.25500000000E-02 0. -1.
    8880023    1    1    2    0    0 -0.39717301989E+03 -0.79784544783E+02 -0.15641025474E+04  0.17448034177E+04  0.65864270000E+03 0. -1.
    8880022    1    1    2    0    0  0.39717301989E+03  0.79784544783E+02  0.21055877767E+03  0.48149624421E+03  0.15294330000E+03 0.  0.
<mgrwt>
<rscale>  0 0.66891042E+03</rscale>
<asrwt>0</asrwt>
<pdfrwt beam="1">  1        2 0.27537257E+00 0.77325428E+03</pdfrwt>
<pdfrwt beam="2">  1       -2 0.67135070E-01 0.77325428E+03</pdfrwt>
<totfact> 0.18269102E+01</totfact>
</mgrwt>
</event>
<event>
 4    1  0.3565372E-007  0.8919534E+03  0.7818608E-02  0.9539074E-01
         -2   -1    0    0    0  501 -0.00000000000E+00  0.00000000000E+00  0.13781813021E+04  0.13781813021E+04  0.25500000000E-02 0.  1.
          2   -1    0    0  501    0  0.00000000000E+00 -0.00000000000E+00 -0.79196385071E+03  0.79196385071E+03  0.25500000000E-02 0. -1.
    8880023    1    1    2    0    0  0.57639466573E+03  0.17187185122E+03 -0.42159443643E+03  0.98657124376E+03  0.65864270000E+03 0. -1.
    8880022    1    1    2    0    0 -0.57639466573E+03 -0.17187185122E+03  0.10078118878E+04  0.11835739090E+04  0.15294330000E+03 0.  0.
<mgrwt>
<rscale>  0 0.81463324E+03</rscale>
<asrwt>0</asrwt>
<pdfrwt beam="1">  1        2 0.12184059E+00 0.89195345E+03</pdfrwt>
<pdfrwt beam="2">  1       -2 0.21202789E+00 0.89195345E+03</pdfrwt>
<totfact> 0.39008534E+00</totfact>
</mgrwt>
</event>
<event>
 4    1  0.3565372E-007  0.6911412E+03  0.7818608E-02  0.1003615E+00
         -2   -1    0    0    0  501 -0.00000000000E+00  0.00000000000E+00  0.61206540637E+03  0.61206540638E+03  0.25500000000E-02 0.  1.
          2   -1    0    0  501    0  0.00000000000E+00 -0.00000000000E+00 -0.11351596835E+04  0.11351596835E+04  0.25500000000E-02 0. -1.
    8880023    1    1    2    0    0 -0.20758400662E+03  0.27835937033E+02 -0.99338869706E+03  0.12101641496E+04  0.65864270000E+03 0.  0.
    8880022    1    1    2    0    0  0.20758400662E+03 -0.27835937033E+02  0.47029441992E+03  0.53706094032E+03  0.15294330000E+03 0.  1.
<mgrwt>
<rscale>  0 0.54093212E+03</rscale>
<asrwt>0</asrwt>
<pdfrwt beam="1">  1        2 0.17463995E+00 0.69114121E+03</pdfrwt>
<pdfrwt beam="2">  1       -2 0.94163909E-01 0.69114121E+03</pdfrwt>
<totfact> 0.20217491E+01</totfact>
</mgrwt>
</event>
<event>
 4    1  0.3565372E-007  0.6777779E+03  0.7818608E-02  0.1010610E+00
          2   -1    0    0  501    0  0.00000000000E+00  0.00000000000E+00  0.39298287932E+03  0.39298287932E+03  0.25500000000E-02 0. -1.
         -2   -1    0    0    0  501 -0.00000000000E+00 -0.00000000000E+00 -0.51826714207E+03  0.51826714208E+03  0.25500000000E-02 0.  1.
    8880023    1    1    2    0    0  0.91877562447E+02  0.13088603640E+03 -0.59423150563E+02  0.68037780541E+03  0.65864270000E+03 0.  0.
    8880022    1    1    2    0    0 -0.91877562447E+02 -0.13088603640E+03 -0.65861112195E+02  0.23087221600E+03  0.15294330000E+03 0.  1.
<mgrwt>
<rscale>  0 0.51233081E+03</rscale>
<asrwt>0</asrwt>
<pdfrwt beam="1">  1        2 0.60458904E-01 0.67777787E+03</pdfrwt>
<pdfrwt beam="2">  1       -2 0.79733407E-01 0.67777787E+03</pdfrwt>
<totfact> 0.11454613E+02</totfact>
</mgrwt>
</event>
<event>
 4    1  0.3565372E-007  0.8695947E+03  0.7818608E-02  0.9576719E-01
          2   -1    0    0  501    0  0.00000000000E+00  0.00000000000E+00  0.66560967398E+03  0.66560967398E+03  0.25500000000E-02 0. -1.
         -2   -1    0    0    0  501 -0.00000000000E+00 -0.00000000000E+00 -0.13441528080E+04  0.13441528080E+04  0.25500000000E-02 0.  1.
    8880023    1    1    2    0    0  0.10690628893E+03  0.55763412784E+03 -0.10115793207E+04  0.13339744014E+04  0.65864270000E+03 0.  0.
    8880022    1    1    2    0    0 -0.10690628893E+03 -0.55763412784E+03  0.33303618674E+03  0.67578808057E+03  0.15294330000E+03 0.  0.
<mgrwt>
<rscale>  0 0.78856427E+03</rscale>
<asrwt>0</asrwt>
<pdfrwt beam="1">  1        2 0.10240149E+00 0.86959472E+03</pdfrwt>
<pdfrwt beam="2">  1       -2 0.20679274E+00 0.86959472E+03</pdfrwt>
<totfact> 0.52819885E+00</totfact>
</mgrwt>
</event>
<event>
 4    1  0.3565372E-007  0.6801812E+03  0.7818608E-02  0.1009221E+00
         -2   -1    0    0    0  501 -0.00000000000E+00  0.00000000000E+00  0.25230768828E+03  0.25230768830E+03  0.25500000000E-02 0.  1.
          2   -1    0    0  501    0  0.00000000000E+00 -0.00000000000E+00 -0.17867423634E+04  0.17867423634E+04  0.25500000000E-02 0. -1.
    8880023    1    1    2    0    0 -0.22887476910E+02  0.16826277013E+03 -0.16487334424E+04  0.17835269459E+04  0.65864270000E+03 0. -1.
    8880022    1    1    2    0    0  0.22887476910E+02 -0.16826277013E+03  0.11429876724E+03  0.25552310584E+03  0.15294330000E+03 0.  0.
<mgrwt>
<rscale>  0 0.51785266E+03</rscale>
<asrwt>0</asrwt>
<pdfrwt beam="1">  1        2 0.27488343E+00 0.68018115E+03</pdfrwt>
<pdfrwt beam="2">  1       -2 0.38816569E-01 0.68018115E+03</pdfrwt>
<totfact> 0.56911723E+01</totfact>
</mgrwt>
</event>
<event>
 4    1  0.3565372E-007  0.7522981E+03  0.7818608E-02  0.9825471E-01
          2   -1    0    0  501    0  0.00000000000E+00  0.00000000000E+00  0.19026264362E+04  0.19026264362E+04  0.25500000000E-02 0. -1.
         -2   -1    0    0    0  501 -0.00000000000E+00 -0.00000000000E+00 -0.20541518085E+03  0.20541518087E+03  0.25500000000E-02 0.  1.
    8880023    1    1    2    0    0 -0.17529580209E+03 -0.31845505455E+03  0.14739947916E+04  0.16548755518E+04  0.65864270000E+03 0. -1.
    8880022    1    1    2    0    0  0.17529580209E+03  0.31845505455E+03  0.22321646373E+03  0.45316606525E+03  0.15294330000E+03 0.  1.
<mgrwt>
<rscale>  0 0.64013358E+03</rscale>
<asrwt>0</asrwt>
<pdfrwt beam="1">  1        2 0.29271176E+00 0.75229811E+03</pdfrwt>
<pdfrwt beam="2">  1       -2 0.31602335E-01 0.75229811E+03</pdfrwt>
<totfact> 0.72193467E+01</totfact>
</mgrwt>
</event>
<event>
 4    1  0.3565372E-007  0.6707471E+03  0.7818608E-02  0.1015133E+00
         -2   -1    0    0    0  501 -0.00000000000E+00  0.00000000000E+00  0.64676017541E+03  0.64676017542E+03  0.25500000000E-02 0.  1.
          2   -1    0    0  501    0  0.00000000000E+00 -0.00000000000E+00 -0.54419727902E+03  0.54419727902E+03  0.25500000000E-02 0. -1.
    8880023    1    1    2    0    0 -0.78031690517E+02  0.10001243661E+03 -0.30553373226E+03  0.73705664641E+03  0.65864270000E+03 0. -1.
    8880022    1    1    2    0    0  0.78031690517E+02 -0.10001243661E+03  0.40809662865E+03  0.45390080803E+03  0.15294330000E+03 0.  0.
<mgrwt>
<rscale>  0 0.49484647E+03</rscale>
<asrwt>0</asrwt>
<pdfrwt beam="1">  1        2 0.83722658E-01 0.67074707E+03</pdfrwt>
<pdfrwt beam="2">  1       -2 0.99501566E-01 0.67074707E+03</pdfrwt>
<totfact> 0.47432441E+01</totfact>
</mgrwt>
</event>
<event>
 4    1  0.3565372E-007  0.6829555E+03  0.7818608E-02  0.1007699E+00
         -2   -1    0    0    0  501 -0.00000000000E+00  0.00000000000E+00  0.13886615433E+03  0.13886615435E+03  0.25500000000E-02 0.  1.
          2   -1    0    0  501    0  0.00000000000E+00 -0.00000000000E+00 -0.24563793531E+04  0.24563793531E+04  0.25500000000E-02 0. -1.
    8880023    1    1    2    0    0 -0.10583442996E+03 -0.14634587744E+03 -0.22467073983E+04  0.23482168516E+04  0.65864270000E+03 0.  0.
    8880022    1    1    2    0    0  0.10583442996E+03  0.14634587744E+03 -0.70805800474E+02  0.24702865584E+03  0.15294330000E+03 0.  0.
<mgrwt>
<rscale>  0 0.52399509E+03</rscale>
<asrwt>0</asrwt>
<pdfrwt beam="1">  1        2 0.37790448E+00 0.68295552E+03</pdfrwt>
<pdfrwt beam="2">  1       -2 0.21364026E-01 0.68295552E+03</pdfrwt>
<totfact> 0.73386918E+01</totfact>
</mgrwt>
</event>
<event>
 4    1  0.3565372E-007  0.6668319E+03  0.7818608E-02  0.1018044E+00
         -2   -1    0    0    0  501 -0.00000000000E+00  0.00000000000E+00  0.13660544100E+04  0.13660544100E+04  0.25500000000E-02 0.  1.
          2   -1    0    0  501    0  0.00000000000E+00 -0.00000000000E+00 -0.70838988017E+03  0.70838988018E+03  0.25500000000E-02 0. -1.
    8880023    1    1    2    0    0  0.95867230092E+02 -0.40793250583E+02 -0.54278526142E+03  0.85981431796E+03  0.65864270000E+03 0. -1.
    8880022    1    1    2    0    0 -0.95867230092E+02  0.40793250583E+02  0.12004497913E+04  0.12146299722E+04  0.15294330000E+03 0.  0.
<mgrwt>
<rscale>  0 0.48399285E+03</rscale>
<asrwt>0</asrwt>
<pdfrwt beam="1">  1        2 0.10898306E+00 0.66683193E+03</pdfrwt>
<pdfrwt beam="2">  1       -2 0.21016221E+00 0.66683193E+03</pdfrwt>
<totfact> 0.47704094E+00</totfact>
</mgrwt>
</event>
<event>
 4    1  0.3565372E-007  0.6901068E+03  0.7818608E-02  0.1004102E+00
          2   -1    0    0  501    0  0.00000000000E+00  0.00000000000E+00  0.12465482474E+04  0.12465482474E+04  0.25500000000E-02 0. -1.
         -2   -1    0    0    0  501 -0.00000000000E+00 -0.00000000000E+00 -0.54900206753E+03  0.54900206753E+03  0.25500000000E-02 0.  1.
    8880023    1    1    2    0    0  0.19243570143E+03 -0.73523265610E+02  0.11116297435E+04  0.13084219742E+04  0.65864270000E+03 0. -1.
    8880022    1    1    2    0    0 -0.19243570143E+03  0.73523265610E+02 -0.41408356354E+03  0.48712834077E+03  0.15294330000E+03 0.  0.
<mgrwt>
<rscale>  0 0.53887649E+03</rscale>
<asrwt>0</asrwt>
<pdfrwt beam="1">  1        2 0.19177665E+00 0.69010679E+03</pdfrwt>
<pdfrwt beam="2">  1       -2 0.84461857E-01 0.69010679E+03</pdfrwt>
<totfact> 0.22307046E+01</totfact>
</mgrwt>
</event>
<event>
 4    1  0.3565372E-007  0.8387774E+03  0.7818608E-02  0.9632490E-01
         -2   -1    0    0    0  501 -0.00000000000E+00  0.00000000000E+00  0.35361545128E+03  0.35361545129E+03  0.25500000000E-02 0.  1.
          2   -1    0    0  501    0  0.00000000000E+00 -0.00000000000E+00 -0.21462149116E+04  0.21462149116E+04  0.25500000000E-02 0. -1.
    8880023    1    1    2    0    0  0.19487476300E+03 -0.48141578081E+03 -0.17691405181E+04  0.19579085030E+04  0.65864270000E+03 0. -1.
    8880022    1    1    2    0    0 -0.19487476300E+03  0.48141578081E+03 -0.23458942283E+02  0.54192185991E+03  0.15294330000E+03 0.  0.
<mgrwt>
<rscale>  0 0.75182608E+03</rscale>
<asrwt>0</asrwt>
<pdfrwt beam="1">  1        2 0.33018690E+00 0.83877740E+03</pdfrwt>
<pdfrwt beam="2">  1       -2 0.54402378E-01 0.83877740E+03</pdfrwt>
<totfact> 0.18049133E+01</totfact>
</mgrwt>
</event>
<event>
 4    1  0.3565372E-007  0.8279535E+03  0.7818608E-02  0.9653327E-01
         -2   -1    0    0    0  501 -0.00000000000E+00  0.00000000000E+00  0.45721540220E+03  0.45721540221E+03  0.25500000000E-02 0.  1.
          2   -1    0    0  501    0  0.00000000000E+00 -0.00000000000E+00 -0.11504162140E+04  0.11504162140E+04  0.25500000000E-02 0. -1.
    8880023    1    1    2    0    0  0.50052302488E+03  0.34257278494E+02 -0.69831035898E+03  0.10831179175E+04  0.65864270000E+03 0.  0.
    8880022    1    1    2    0    0 -0.50052302488E+03 -0.34257278494E+02  0.51095472295E+01  0.52451369863E+03  0.15294330000E+03 0.  0.
<mgrwt>
<rscale>  0 0.73864971E+03</rscale>
<asrwt>0</asrwt>
<pdfrwt beam="1">  1        2 0.17698711E+00 0.82795354E+03</pdfrwt>
<pdfrwt beam="2">  1       -2 0.70340831E-01 0.82795354E+03</pdfrwt>
<totfact> 0.37705132E+01</totfact>
</mgrwt>
</event>
<event>
 4    1  0.3565372E-007  0.1153489E+04  0.7818608E-02  0.9203717E-01
         -2   -1    0    0    0  501 -0.00000000000E+00  0.00000000000E+00  0.93204617832E+03  0.93204617833E+03  0.25500000000E-02 0.  1.
          2   -1    0    0  501    0  0.00000000000E+00 -0.00000000000E+00 -0.23950950902E+04  0.23950950902E+04  0.25500000000E-02 0. -1.
    8880023    1    1    2    0    0  0.48364135781E+03  0.81413551128E+03 -0.19391270179E+04  0.22562689094E+04  0.65864270000E+03 0. -1.
    8880022    1    1    2    0    0 -0.48364135781E+03 -0.81413551128E+03  0.47607810595E+03  0.10708723592E+04  0.15294330000E+03 0.  0.
<mgrwt>
<rscale>  0 0.11015149E+04</rscale>
<asrwt>0</asrwt>
<pdfrwt beam="1">  1        2 0.36847616E+00 0.11534885E+04</pdfrwt>
<pdfrwt beam="2">  1       -2 0.14339172E+00 0.11534885E+04</pdfrwt>
<totfact> 0.13270025E+00</totfact>
</mgrwt>
</event>
<event>
 4    1  0.3565372E-007  0.7805359E+03  0.7818608E-02  0.9754580E-01
          2   -1    0    0  501    0  0.00000000000E+00  0.00000000000E+00  0.17442276135E+04  0.17442276135E+04  0.25500000000E-02 0. -1.
         -2   -1    0    0    0  501 -0.00000000000E+00 -0.00000000000E+00 -0.44269582114E+03  0.44269582114E+03  0.25500000000E-02 0.  1.
    8880023    1    1    2    0    0 -0.42900236380E+02 -0.41663616520E+03  0.15061038887E+04  0.16963446744E+04  0.65864270000E+03 0. -1.
    8880022    1    1    2    0    0  0.42900236380E+02  0.41663616520E+03 -0.20457209632E+03  0.49057876029E+03  0.15294330000E+03 0.  0.
<mgrwt>
<rscale>  0 0.67858081E+03</rscale>
<asrwt>0</asrwt>
<pdfrwt beam="1">  1        2 0.26834271E+00 0.78053593E+03</pdfrwt>
<pdfrwt beam="2">  1       -2 0.68107049E-01 0.78053593E+03</pdfrwt>
<totfact> 0.18739306E+01</totfact>
</mgrwt>
</event>
<event>
 4    1  0.3565372E-007  0.8252598E+03  0.7818608E-02  0.9658627E-01
          2   -1    0    0  501    0  0.00000000000E+00  0.00000000000E+00  0.29859388576E+03  0.29859388577E+03  0.25500000000E-02 0. -1.
         -2   -1    0    0    0  501 -0.00000000000E+00 -0.00000000000E+00 -0.19435704149E+04  0.19435704149E+04  0.25500000000E-02 0.  1.
    8880023    1    1    2    0    0 -0.24709948644E+03  0.43149203907E+03 -0.45255447212E+03  0.94120098410E+03  0.65864270000E+03 0.  0.
    8880022    1    1    2    0    0  0.24709948644E+03 -0.43149203907E+03 -0.11924220570E+04  0.13009633166E+04  0.15294330000E+03 0.  0.
<mgrwt>
<rscale>  0 0.73534484E+03</rscale>
<asrwt>0</asrwt>
<pdfrwt beam="1">  1        2 0.45937522E-01 0.82525980E+03</pdfrwt>
<pdfrwt beam="2">  1       -2 0.29901083E+00 0.82525980E+03</pdfrwt>
<totfact> 0.36611661E+00</totfact>
</mgrwt>
</event>
<event>
 4    1  0.3565372E-007  0.1096435E+04  0.7818608E-02  0.9265035E-01
         -2   -1    0    0    0  501 -0.00000000000E+00  0.00000000000E+00  0.95546377237E+03  0.95546377237E+03  0.25500000000E-02 0.  1.
          2   -1    0    0  501    0  0.00000000000E+00 -0.00000000000E+00 -0.13338859408E+04  0.13338859408E+04  0.25500000000E-02 0. -1.
    8880023    1    1    2    0    0  0.33703826173E+02  0.87591352120E+03 -0.74648302879E+03  0.13264266143E+04  0.65864270000E+03 0. -1.
    8880022    1    1    2    0    0 -0.33703826173E+02 -0.87591352120E+03  0.36806086034E+03  0.96292309892E+03  0.15294330000E+03 0.  0.
<mgrwt>
<rscale>  0 0.10406650E+04</rscale>
<asrwt>0</asrwt>
<pdfrwt beam="1">  1        2 0.20521322E+00 0.10964354E+04</pdfrwt>
<pdfrwt beam="2">  1       -2 0.14699443E+00 0.10964354E+04</pdfrwt>
<totfact> 0.49042942E+00</totfact>
</mgrwt>
</event>
<event>
 4    1  0.3565372E-007  0.8862986E+03  0.7818608E-02  0.9548395E-01
          2   -1    0    0  501    0  0.00000000000E+00  0.00000000000E+00  0.10107237546E+04  0.10107237546E+04  0.25500000000E-02 0. -1.
         -2   -1    0    0    0  501 -0.00000000000E+00 -0.00000000000E+00 -0.65009617603E+03  0.65009617603E+03  0.25500000000E-02 0.  1.
    8880023    1    1    2    0    0 -0.33205065697E+02  0.59212538072E+03  0.52050374349E+03  0.10278372420E+04  0.65864270000E+03 0. -1.
    8880022    1    1    2    0    0  0.33205065697E+02 -0.59212538072E+03 -0.15987616495E+03  0.63298268856E+03  0.15294330000E+03 0.  0.
<mgrwt>
<rscale>  0 0.80808009E+03</rscale>
<asrwt>0</asrwt>
<pdfrwt beam="1">  1        2 0.15549596E+00 0.88629862E+03</pdfrwt>
<pdfrwt beam="2">  1       -2 0.10001480E+00 0.88629862E+03</pdfrwt>
<totfact> 0.20541745E+01</totfact>
</mgrwt>
</event>
<event>
 4    1  0.3565372E-007  0.1022484E+04  0.7818608E-02  0.9352716E-01
          2   -1    0    0  501    0  0.00000000000E+00  0.00000000000E+00  0.60840546660E+03  0.60840546660E+03  0.25500000000E-02 0. -1.
         -2   -1    0    0    0  501 -0.00000000000E+00 -0.00000000000E+00 -0.20325970674E+04  0.20325970674E+04  0.25500000000E-02 0.  1.
    8880023    1    1    2    0    0 -0.66148059463E+03 -0.41726015783E+03 -0.15267693305E+04  0.18375248056E+04  0.65864270000E+03 0.  0.
    8880022    1    1    2    0    0  0.66148059463E+03  0.41726015783E+03  0.10257772970E+03  0.80347772840E+03  0.15294330000E+03 0.  0.
<mgrwt>
<rscale>  0 0.96071293E+03</rscale>
<asrwt>0</asrwt>
<pdfrwt beam="1">  1        2 0.93600842E-01 0.10224837E+04</pdfrwt>
<pdfrwt beam="2">  1       -2 0.31270724E+00 0.10224837E+04</pdfrwt>
<totfact> 0.13016323E+00</totfact>
</mgrwt>
</event>
<event>
 4    1  0.3565372E-007  0.1394645E+04  0.7818608E-02  0.8987855E-01
         -2   -1    0    0    0  501 -0.00000000000E+00  0.00000000000E+00  0.15864058099E+04  0.15864058099E+04  0.25500000000E-02 0.  1.
          2   -1    0    0  501    0  0.00000000000E+00 -0.00000000000E+00 -0.22289363835E+04  0.22289363835E+04  0.25500000000E-02 0. -1.
    8880023    1    1    2    0    0 -0.12118178681E+04 -0.20669366425E+03 -0.16913461486E+04  0.21921876783E+04  0.65864270000E+03 0.  0.
    8880022    1    1    2    0    0  0.12118178681E+04  0.20669366425E+03  0.10488155751E+04  0.16231545151E+04  0.15294330000E+03 0.  0.
<mgrwt>
<rscale>  0 0.13539348E+04</rscale>
<asrwt>0</asrwt>
<pdfrwt beam="1">  1        2 0.34291329E+00 0.13946451E+04</pdfrwt>
<pdfrwt beam="2">  1       -2 0.24406243E+00 0.13946451E+04</pdfrwt>
<totfact> 0.33007020E-01</totfact>
</mgrwt>
</event>
<event>
 4    1  0.3565372E-007  0.7546170E+03  0.7818608E-02  0.9819248E-01
         -2   -1    0    0    0  501 -0.00000000000E+00  0.00000000000E+00  0.25038038332E+03  0.25038038334E+03  0.25500000000E-02 0.  1.
          2   -1    0    0  501    0  0.00000000000E+00 -0.00000000000E+00 -0.15865334784E+04  0.15865334784E+04  0.25500000000E-02 0. -1.
    8880023    1    1    2    0    0 -0.20878696429E+03 -0.30338865101E+03 -0.11961042299E+04  0.14142532323E+04  0.65864270000E+03 0.  0.
    8880022    1    1    2    0    0  0.20878696429E+03  0.30338865101E+03 -0.14004886515E+03  0.42266062943E+03  0.15294330000E+03 0.  0.
<mgrwt>
<rscale>  0 0.64339735E+03</rscale>
<asrwt>0</asrwt>
<pdfrwt beam="1">  1        2 0.24408207E+00 0.75461704E+03</pdfrwt>
<pdfrwt beam="2">  1       -2 0.38520060E-01 0.75461704E+03</pdfrwt>
<totfact> 0.73729830E+01</totfact>
</mgrwt>
</event>
<event>
 4    1  0.3565372E-007  0.7666670E+03  0.7818608E-02  0.9788143E-01
          2   -1    0    0  501    0  0.00000000000E+00  0.00000000000E+00  0.23683590625E+04  0.23683590625E+04  0.25500000000E-02 0. -1.
         -2   -1    0    0    0  501 -0.00000000000E+00 -0.00000000000E+00 -0.26854863758E+03  0.26854863760E+03  0.25500000000E-02 0.  1.
    8880023    1    1    2    0    0 -0.27172941497E+03 -0.28307455544E+03  0.20783204591E+04  0.22152187738E+04  0.65864270000E+03 0. -1.
    8880022    1    1    2    0    0  0.27172941497E+03  0.28307455544E+03  0.21489965817E+02  0.42168892628E+03  0.15294330000E+03 0.  0.
<mgrwt>
<rscale>  0 0.66002738E+03</rscale>
<asrwt>0</asrwt>
<pdfrwt beam="1">  1        2 0.36436294E+00 0.76666700E+03</pdfrwt>
<pdfrwt beam="2">  1       -2 0.41315174E-01 0.76666700E+03</pdfrwt>
<totfact> 0.23903484E+01</totfact>
</mgrwt>
</event>
<event>
 4    1  0.3565372E-007  0.6907271E+03  0.7818608E-02  0.1003809E+00
          2   -1    0    0  501    0  0.00000000000E+00  0.00000000000E+00  0.78347803485E+03  0.78347803485E+03  0.25500000000E-02 0. -1.
         -2   -1    0    0    0  501 -0.00000000000E+00 -0.00000000000E+00 -0.75817732701E+03  0.75817732701E+03  0.25500000000E-02 0.  1.
    8880023    1    1    2    0    0  0.12499871493E+03  0.16634010810E+03  0.59787504708E+03  0.91354172783E+03  0.65864270000E+03 0. -1.
    8880022    1    1    2    0    0 -0.12499871493E+03 -0.16634010810E+03 -0.57257433924E+03  0.62811363404E+03  0.15294330000E+03 0.  0.
<mgrwt>
<rscale>  0 0.54011182E+03</rscale>
<asrwt>0</asrwt>
<pdfrwt beam="1">  1        2 0.12053508E+00 0.69072709E+03</pdfrwt>
<pdfrwt beam="2">  1       -2 0.11664267E+00 0.69072709E+03</pdfrwt>
<totfact> 0.20582152E+01</totfact>
</mgrwt>
</event>
<event>
 4    1  0.3565372E-007  0.9707792E+03  0.7818608E-02  0.9420827E-01
          2   -1    0    0  501    0  0.00000000000E+00  0.00000000000E+00  0.25952205232E+04  0.25952205232E+04  0.25500000000E-02 0. -1.
         -2   -1    0    0    0  501 -0.00000000000E+00 -0.00000000000E+00 -0.31348829507E+03  0.31348829508E+03  0.25500000000E-02 0.  1.
    8880023    1    1    2    0    0 -0.27604359912E+02  0.71262903217E+03  0.80289073984E+03  0.12597800937E+04  0.65864270000E+03 0.  0.
    8880022    1    1    2    0    0  0.27604359912E+02 -0.71262903217E+03  0.14788414883E+04  0.16489287246E+04  0.15294330000E+03 0.  0.
<mgrwt>
<rscale>  0 0.90381321E+03</rscale>
<asrwt>0</asrwt>
<pdfrwt beam="1">  1        2 0.39926470E+00 0.97077925E+03</pdfrwt>
<pdfrwt beam="2">  1       -2 0.48228968E-01 0.97077925E+03</pdfrwt>
<totfact> 0.12695318E+01</totfact>
</mgrwt>
</event>
<event>
 4    1  0.3565372E-007  0.7172618E+03  0.7818608E-02  0.9931962E-01
         -2   -1    0    0    0  501 -0.00000000000E+00  0.00000000000E+00  0.22162210461E+04  0.22162210461E+04  0.25500000000E-02 0.  1.
          2   -1    0    0  501    0  0.00000000000E+00 -0.00000000000E+00 -0.57131123424E+03  0.57131123424E+03  0.25500000000E-02 0. -1.
    8880023    1    1    2    0    0  0.21489239038E+03  0.18567581968E+03 -0.32780554073E+03  0.78861963471E+03  0.65864270000E+03 0. -1.
    8880022    1    1    2    0    0 -0.21489239038E+03 -0.18567581968E+03  0.19727153526E+04  0.19989126456E+04  0.15294330000E+03 0.  0.
<mgrwt>
<rscale>  0 0.58736950E+03</rscale>
<asrwt>0</asrwt>
<pdfrwt beam="1">  1        2 0.87894035E-01 0.71726178E+03</pdfrwt>
<pdfrwt beam="2">  1       -2 0.34095709E+00 0.71726178E+03</pdfrwt>
<totfact> 0.98788494E-01</totfact>
</mgrwt>
</event>
<event>
 4    1  0.3565372E-007  0.6694850E+03  0.7818608E-02  0.1016035E+00
         -2   -1    0    0    0  501 -0.00000000000E+00  0.00000000000E+00  0.15479456031E+03  0.15479456033E+03  0.25500000000E-02 0.  1.
          2   -1    0    0  501    0  0.00000000000E+00 -0.00000000000E+00 -0.28022925330E+04  0.28022925330E+04  0.25500000000E-02 0. -1.
    8880023    1    1    2    0    0 -0.11702689758E+03 -0.26544298546E+02 -0.26779045818E+04  0.27603229975E+04  0.65864270000E+03 0. -1.
    8880022    1    1    2    0    0  0.11702689758E+03  0.26544298546E+02  0.30406609130E+02  0.19676409590E+03  0.15294330000E+03 0.  0.
<mgrwt>
<rscale>  0 0.49145069E+03</rscale>
<asrwt>0</asrwt>
<pdfrwt beam="1">  1        2 0.43112189E+00 0.66948495E+03</pdfrwt>
<pdfrwt beam="2">  1       -2 0.23814550E-01 0.66948495E+03</pdfrwt>
<totfact> 0.38360232E+01</totfact>
</mgrwt>
</event>
<event>
 4    1  0.3565372E-007  0.9564597E+03  0.7818608E-02  0.9440880E-01
         -2   -1    0    0    0  501 -0.00000000000E+00  0.00000000000E+00  0.10285785242E+04  0.10285785242E+04  0.25500000000E-02 0.  1.
          2   -1    0    0  501    0  0.00000000000E+00 -0.00000000000E+00 -0.86506743206E+03  0.86506743206E+03  0.25500000000E-02 0. -1.
    8880023    1    1    2    0    0  0.68544742309E+03  0.10567343242E+03  0.53102152798E+03  0.10939831414E+04  0.65864270000E+03 0.  0.
    8880022    1    1    2    0    0 -0.68544742309E+03 -0.10567343242E+03 -0.36751043581E+03  0.79966281493E+03  0.15294330000E+03 0.  0.
<mgrwt>
<rscale>  0 0.88786422E+03</rscale>
<asrwt>0</asrwt>
<pdfrwt beam="1">  1        2 0.13308730E+00 0.95645975E+03</pdfrwt>
<pdfrwt beam="2">  1       -2 0.15824285E+00 0.95645975E+03</pdfrwt>
<totfact> 0.80059501E+00</totfact>
</mgrwt>
</event>
<event>
 4    1  0.3565372E-007  0.8183870E+03  0.7818608E-02  0.9672365E-01
         -2   -1    0    0    0  501 -0.00000000000E+00  0.00000000000E+00  0.40218678963E+03  0.40218678964E+03  0.25500000000E-02 0.  1.
          2   -1    0    0  501    0  0.00000000000E+00 -0.00000000000E+00 -0.20916905338E+04  0.20916905338E+04  0.25500000000E-02 0. -1.
    8880023    1    1    2    0    0  0.19808979182E+03 -0.44351715897E+03 -0.17959444054E+04  0.19736194034E+04  0.65864270000E+03 0. -1.
    8880022    1    1    2    0    0 -0.19808979182E+03  0.44351715897E+03  0.10644066128E+03  0.52025791999E+03  0.15294330000E+03 0.  0.
<mgrwt>
<rscale>  0 0.72686281E+03</rscale>
<asrwt>0</asrwt>
<pdfrwt beam="1">  1        2 0.32179854E+00 0.81838698E+03</pdfrwt>
<pdfrwt beam="2">  1       -2 0.61874892E-01 0.81838698E+03</pdfrwt>
<totfact> 0.14798063E+01</totfact>
</mgrwt>
</event>
<event>
 4    1  0.3565372E-007  0.7337619E+03  0.7818608E-02  0.9878505E-01
          2   -1    0    0  501    0  0.00000000000E+00  0.00000000000E+00  0.16215307444E+04  0.16215307444E+04  0.25500000000E-02 0. -1.
         -2   -1    0    0    0  501 -0.00000000000E+00 -0.00000000000E+00 -0.29508993530E+03  0.29508993531E+03  0.25500000000E-02 0.  1.
    8880023    1    1    2    0    0  0.17697326698E+03  0.27069688399E+03  0.13720876066E+04  0.15559662421E+04  0.65864270000E+03 0.  0.
    8880022    1    1    2    0    0 -0.17697326698E+03 -0.27069688399E+03 -0.45646797466E+02  0.36065443760E+03  0.15294330000E+03 0.  0.
<mgrwt>
<rscale>  0 0.61314406E+03</rscale>
<asrwt>0</asrwt>
<pdfrwt beam="1">  1        2 0.24946626E+00 0.73376191E+03</pdfrwt>
<pdfrwt beam="2">  1       -2 0.45398452E-01 0.73376191E+03</pdfrwt>
<totfact> 0.51167624E+01</totfact>
</mgrwt>
</event>
<event>
 4    1  0.3565372E-007  0.7588420E+03  0.7818608E-02  0.9808115E-01
          2   -1    0    0  501    0  0.00000000000E+00  0.00000000000E+00  0.18506426625E+04  0.18506426625E+04  0.25500000000E-02 0. -1.
         -2   -1    0    0    0  501 -0.00000000000E+00 -0.00000000000E+00 -0.57674958509E+03  0.57674958509E+03  0.25500000000E-02 0.  1.
    8880023    1    1    2    0    0 -0.34573464814E+03 -0.14999493726E+03  0.16856789727E+04  0.18486088643E+04  0.65864270000E+03 0. -1.
    8880022    1    1    2    0    0  0.34573464814E+03  0.14999493726E+03 -0.41178589529E+03  0.57878338323E+03  0.15294330000E+03 0.  0.
<mgrwt>
<rscale>  0 0.64928872E+03</rscale>
<asrwt>0</asrwt>
<pdfrwt beam="1">  1        2 0.28471425E+00 0.75884197E+03</pdfrwt>
<pdfrwt beam="2">  1       -2 0.88730706E-01 0.75884197E+03</pdfrwt>
<totfact> 0.91026664E+00</totfact>
</mgrwt>
</event>
<event>
 4    1  0.3565372E-007  0.8233356E+03  0.7818608E-02  0.9662441E-01
          2   -1    0    0  501    0  0.00000000000E+00  0.00000000000E+00  0.32575241973E+04  0.32575241973E+04  0.25500000000E-02 0. -1.
         -2   -1    0    0    0  501 -0.00000000000E+00 -0.00000000000E+00 -0.27973240697E+03  0.27973240698E+03  0.25500000000E-02 0.  1.
    8880023    1    1    2    0    0  0.95501014410E+02  0.48471726515E+03  0.28995806655E+04  0.30142079412E+04  0.65864270000E+03 0. -1.
    8880022    1    1    2    0    0 -0.95501014410E+02 -0.48471726515E+03  0.78211124841E+02  0.52304866308E+03  0.15294330000E+03 0.  0.
<mgrwt>
<rscale>  0 0.73297745E+03</rscale>
<asrwt>0</asrwt>
<pdfrwt beam="1">  1        2 0.50115756E+00 0.82333558E+03</pdfrwt>
<pdfrwt beam="2">  1       -2 0.43035756E-01 0.82333558E+03</pdfrwt>
<totfact> 0.64457053E+00</totfact>
</mgrwt>
</event>
<event>
 4    1  0.3565372E-007  0.8379848E+03  0.7818608E-02  0.9633992E-01
         -2   -1    0    0    0  501 -0.00000000000E+00  0.00000000000E+00  0.43130682434E+03  0.43130682434E+03  0.25500000000E-02 0.  1.
          2   -1    0    0  501    0  0.00000000000E+00 -0.00000000000E+00 -0.17957854206E+04  0.17957854206E+04  0.25500000000E-02 0. -1.
    8880023    1    1    2    0    0  0.10324590673E+03 -0.50768940662E+03 -0.14553050506E+04  0.16793246403E+04  0.65864270000E+03 0.  0.
    8880022    1    1    2    0    0 -0.10324590673E+03  0.50768940662E+03  0.90826454388E+02  0.54776760463E+03  0.15294330000E+03 0.  0.
<mgrwt>
<rscale>  0 0.75086651E+03</rscale>
<asrwt>0</asrwt>
<pdfrwt beam="1">  1        2 0.27627468E+00 0.83798476E+03</pdfrwt>
<pdfrwt beam="2">  1       -2 0.66354897E-01 0.83798476E+03</pdfrwt>
<totfact> 0.18450103E+01</totfact>
</mgrwt>
</event>
<event>
 4    1  0.3565372E-007  0.6630612E+03  0.7818608E-02  0.1021218E+00
          2   -1    0    0  501    0  0.00000000000E+00  0.00000000000E+00  0.30443077067E+04  0.30443077067E+04  0.25500000000E-02 0. -1.
         -2   -1    0    0    0  501 -0.00000000000E+00 -0.00000000000E+00 -0.26745827657E+03  0.26745827659E+03  0.25500000000E-02 0.  1.
    8880023    1    1    2    0    0  0.83679222730E+01  0.75960225754E+02  0.29761848396E+04  0.30491517482E+04  0.65864270000E+03 0. -1.
    8880022    1    1    2    0    0 -0.83679222730E+01 -0.75960225754E+02 -0.19933540942E+03  0.26261423511E+03  0.15294330000E+03 0.  0.
<mgrwt>
<rscale>  0 0.47249460E+03</rscale>
<asrwt>0</asrwt>
<pdfrwt beam="1">  1        2 0.46835503E+00 0.66306122E+03</pdfrwt>
<pdfrwt beam="2">  1       -2 0.41147427E-01 0.66306122E+03</pdfrwt>
<totfact> 0.98909422E+00</totfact>
</mgrwt>
</event>
<event>
 4    1  0.3565372E-007  0.8212948E+03  0.7818608E-02  0.9666514E-01
          2   -1    0    0  501    0  0.00000000000E+00  0.00000000000E+00  0.13946762897E+04  0.13946762897E+04  0.25500000000E-02 0. -1.
         -2   -1    0    0    0  501 -0.00000000000E+00 -0.00000000000E+00 -0.10712069865E+04  0.10712069865E+04  0.25500000000E-02 0.  1.
    8880023    1    1    2    0    0  0.49061085310E+03 -0.39866514644E+01  0.11974310956E+04  0.14520214660E+04  0.65864270000E+03 0. -1.
    8880022    1    1    2    0    0 -0.49061085310E+03  0.39866514644E+01 -0.87396179246E+03  0.10138618102E+04  0.15294330000E+03 0.  0.
<mgrwt>
<rscale>  0 0.73046043E+03</rscale>
<asrwt>0</asrwt>
<pdfrwt beam="1">  1        2 0.21456558E+00 0.82129478E+03</pdfrwt>
<pdfrwt beam="2">  1       -2 0.16480108E+00 0.82129478E+03</pdfrwt>
<totfact> 0.34358334E+00</totfact>
</mgrwt>
</event>
<event>
 4    1  0.3565372E-007  0.6714743E+03  0.7818608E-02  0.1014627E+00
         -2   -1    0    0    0  501 -0.00000000000E+00  0.00000000000E+00  0.11586746533E+04  0.11586746533E+04  0.25500000000E-02 0.  1.
          2   -1    0    0  501    0  0.00000000000E+00 -0.00000000000E+00 -0.37089180928E+03  0.37089180929E+03  0.25500000000E-02 0. -1.
    8880023    1    1    2    0    0 -0.69766078257E+02 -0.11045440476E+03 -0.44861330782E+02  0.67297119290E+03  0.65864270000E+03 0. -1.
    8880022    1    1    2    0    0  0.69766078257E+02  0.11045440476E+03  0.83264417478E+03  0.85659526967E+03  0.15294330000E+03 0.  0.
<mgrwt>
<rscale>  0 0.49676284E+03</rscale>
<asrwt>0</asrwt>
<pdfrwt beam="1">  1        2 0.57060279E-01 0.67147426E+03</pdfrwt>
<pdfrwt beam="2">  1       -2 0.17825764E+00 0.67147426E+03</pdfrwt>
<totfact> 0.16510614E+01</totfact>
</mgrwt>
</event>
<event>
 4    1  0.3565372E-007  0.7442556E+03  0.7818608E-02  0.9847720E-01
         -2   -1    0    0    0  501 -0.00000000000E+00  0.00000000000E+00  0.66183891394E+03  0.66183891395E+03  0.25500000000E-02 0.  1.
          2   -1    0    0  501    0  0.00000000000E+00 -0.00000000000E+00 -0.56811013149E+03  0.56811013149E+03  0.25500000000E-02 0. -1.
    8880023    1    1    2    0    0 -0.29189369906E+03 -0.18682696406E+03 -0.17617018814E+03  0.76482180114E+03  0.65864270000E+03 0.  0.
    8880022    1    1    2    0    0  0.29189369906E+03  0.18682696406E+03  0.26989897059E+03  0.46512724430E+03  0.15294330000E+03 0.  0.
<mgrwt>
<rscale>  0 0.62863317E+03</rscale>
<asrwt>0</asrwt>
<pdfrwt beam="1">  1        2 0.87401559E-01 0.74425564E+03</pdfrwt>
<pdfrwt beam="2">  1       -2 0.10182137E+00 0.74425564E+03</pdfrwt>
<totfact> 0.42441175E+01</totfact>
</mgrwt>
</event>
<event>
 4    1  0.3565372E-007  0.7876433E+03  0.7818608E-02  0.9738180E-01
          2   -1    0    0  501    0  0.00000000000E+00  0.00000000000E+00  0.87777817955E+03  0.87777817956E+03  0.25500000000E-02 0. -1.
         -2   -1    0    0    0  501 -0.00000000000E+00 -0.00000000000E+00 -0.12624132319E+04  0.12624132319E+04  0.25500000000E-02 0.  1.
    8880023    1    1    2    0    0  0.41189723985E+03  0.13004749123E+03  0.64186835587E+03  0.10160594858E+04  0.65864270000E+03 0. -1.
    8880022    1    1    2    0    0 -0.41189723985E+03 -0.13004749123E+03 -0.10265034082E+04  0.11241319257E+04  0.15294330000E+03 0.  0.
<mgrwt>
<rscale>  0 0.68788383E+03</rscale>
<asrwt>0</asrwt>
<pdfrwt beam="1">  1        2 0.13504280E+00 0.78764325E+03</pdfrwt>
<pdfrwt beam="2">  1       -2 0.19421742E+00 0.78764325E+03</pdfrwt>
<totfact> 0.44839743E+00</totfact>
</mgrwt>
</event>
<event>
 4    1  0.3565372E-007  0.7574389E+03  0.7818608E-02  0.9811783E-01
          2   -1    0    0  501    0  0.00000000000E+00  0.00000000000E+00  0.16525165843E+04  0.16525165843E+04  0.25500000000E-02 0. -1.
         -2   -1    0    0    0  501 -0.00000000000E+00 -0.00000000000E+00 -0.35958233445E+03  0.35958233446E+03  0.25500000000E-02 0.  1.
    8880023    1    1    2    0    0  0.34945896488E+03  0.13334903427E+03  0.14020153992E+04  0.15935372349E+04  0.65864270000E+03 0. -1.
    8880022    1    1    2    0    0 -0.34945896488E+03 -0.13334903427E+03 -0.10908114933E+03  0.41856168390E+03  0.15294330000E+03 0.  0.
<mgrwt>
<rscale>  0 0.64733992E+03</rscale>
<asrwt>0</asrwt>
<pdfrwt beam="1">  1        2 0.25423333E+00 0.75743893E+03</pdfrwt>
<pdfrwt beam="2">  1       -2 0.55320357E-01 0.75743893E+03</pdfrwt>
<totfact> 0.32807796E+01</totfact>
</mgrwt>
</event>
<event>
 4    1  0.3565372E-007  0.1066896E+04  0.7818608E-02  0.9298841E-01
          2   -1    0    0  501    0  0.00000000000E+00  0.00000000000E+00  0.29238178438E+04  0.29238178438E+04  0.25500000000E-02 0. -1.
         -2   -1    0    0    0  501 -0.00000000000E+00 -0.00000000000E+00 -0.39158728679E+03  0.39158728680E+03  0.25500000000E-02 0.  1.
    8880023    1    1    2    0    0 -0.74835611331E+03  0.38002522992E+03  0.21079971635E+04  0.23626083669E+04  0.65864270000E+03 0.  0.
    8880022    1    1    2    0    0  0.74835611331E+03 -0.38002522992E+03  0.42423339346E+03  0.95279676366E+03  0.15294330000E+03 0.  0.
<mgrwt>
<rscale>  0 0.10088963E+04</rscale>
<asrwt>0</asrwt>
<pdfrwt beam="1">  1        2 0.44981813E+00 0.10668956E+04</pdfrwt>
<pdfrwt beam="2">  1       -2 0.60244198E-01 0.10668956E+04</pdfrwt>
<totfact> 0.50449755E+00</totfact>
</mgrwt>
</event>
<event>
 4    1  0.3565372E-007  0.1060415E+04  0.7818608E-02  0.9306465E-01
         -2   -1    0    0    0  501 -0.00000000000E+00  0.00000000000E+00  0.72191343975E+03  0.72191343976E+03  0.25500000000E-02 0.  1.
          2   -1    0    0  501    0  0.00000000000E+00 -0.00000000000E+00 -0.17451148431E+04  0.17451148431E+04  0.25500000000E-02 0. -1.
    8880023    1    1    2    0    0  0.34451126438E+03  0.75629486446E+03  0.95882096946E+02  0.10647410559E+04  0.65864270000E+03 0.  1.
    8880022    1    1    2    0    0 -0.34451126438E+03 -0.75629486446E+03 -0.11190835003E+04  0.14022872270E+04  0.15294330000E+03 0.  0.
<mgrwt>
<rscale>  0 0.10018989E+04</rscale>
<asrwt>0</asrwt>
<pdfrwt beam="1">  1        2 0.26847921E+00 0.10604151E+04</pdfrwt>
<pdfrwt beam="2">  1       -2 0.11106361E+00 0.10604151E+04</pdfrwt>
<totfact> 0.58821989E+00</totfact>
</mgrwt>
</event>
<event>
 4    1  0.3565372E-007  0.7232863E+03  0.7818608E-02  0.9911619E-01
         -2   -1    0    0    0  501 -0.00000000000E+00  0.00000000000E+00  0.87359339190E+03  0.87359339190E+03  0.25500000000E-02 0.  1.
          2   -1    0    0  501    0  0.00000000000E+00 -0.00000000000E+00 -0.85825207609E+03  0.85825207609E+03  0.25500000000E-02 0. -1.
    8880023    1    1    2    0    0  0.24790350164E+03  0.16696322918E+03 -0.65904148878E+03  0.97850843442E+03  0.65864270000E+03 0. -1.
    8880022    1    1    2    0    0 -0.24790350164E+03 -0.16696322918E+03  0.67438280459E+03  0.75333703358E+03  0.15294330000E+03 0.  0.
<mgrwt>
<rscale>  0 0.59701464E+03</rscale>
<asrwt>0</asrwt>
<pdfrwt beam="1">  1        2 0.13203878E+00 0.72328630E+03</pdfrwt>
<pdfrwt beam="2">  1       -2 0.13439898E+00 0.72328630E+03</pdfrwt>
<totfact> 0.12734031E+01</totfact>
</mgrwt>
</event>
<event>
 4    1  0.3565372E-007  0.8671972E+03  0.7818608E-02  0.9580887E-01
          2   -1    0    0  501    0  0.00000000000E+00  0.00000000000E+00  0.79987262764E+03  0.79987262764E+03  0.25500000000E-02 0. -1.
         -2   -1    0    0    0  501 -0.00000000000E+00 -0.00000000000E+00 -0.87369749214E+03  0.87369749214E+03  0.25500000000E-02 0.  1.
    8880023    1    1    2    0    0  0.56165985678E+03 -0.52526607790E+02  0.36683201254E+03  0.94159267782E+03  0.65864270000E+03 0.  0.
    8880022    1    1    2    0    0 -0.56165985678E+03  0.52526607790E+02 -0.44065687705E+03  0.73197744196E+03  0.15294330000E+03 0.  0.
<mgrwt>
<rscale>  0 0.78574230E+03</rscale>
<asrwt>0</asrwt>
<pdfrwt beam="1">  1        2 0.12305733E+00 0.86719724E+03</pdfrwt>
<pdfrwt beam="2">  1       -2 0.13441500E+00 0.86719724E+03</pdfrwt>
<totfact> 0.13794505E+01</totfact>
</mgrwt>
</event>
<event>
 4    1  0.3565372E-007  0.1211672E+04  0.7818608E-02  0.9145859E-01
         -2   -1    0    0    0  501 -0.00000000000E+00  0.00000000000E+00  0.17387453987E+04  0.17387453987E+04  0.25500000000E-02 0.  1.
          2   -1    0    0  501    0  0.00000000000E+00 -0.00000000000E+00 -0.13353918556E+04  0.13353918556E+04  0.25500000000E-02 0. -1.
    8880023    1    1    2    0    0  0.10482548558E+03  0.10116082760E+04 -0.82966572782E+03  0.14685009747E+04  0.65864270000E+03 0.  0.
    8880022    1    1    2    0    0 -0.10482548558E+03 -0.10116082760E+04  0.12330192709E+04  0.16056362795E+04  0.15294330000E+03 0.  0.
<mgrwt>
<rscale>  0 0.11630164E+04</rscale>
<asrwt>0</asrwt>
<pdfrwt beam="1">  1        2 0.20544490E+00 0.12116724E+04</pdfrwt>
<pdfrwt beam="2">  1       -2 0.26749929E+00 0.12116724E+04</pdfrwt>
<totfact> 0.76921886E-01</totfact>
</mgrwt>
</event>
<event>
 4    1  0.3565372E-007  0.7499360E+03  0.7818608E-02  0.9831895E-01
         -2   -1    0    0    0  501 -0.00000000000E+00  0.00000000000E+00  0.30460486419E+03  0.30460486420E+03  0.25500000000E-02 0.  1.
          2   -1    0    0  501    0  0.00000000000E+00 -0.00000000000E+00 -0.12577410433E+04  0.12577410433E+04  0.25500000000E-02 0. -1.
    8880023    1    1    2    0    0  0.11593023144E+03 -0.33934344504E+03 -0.31256058517E+03  0.81246422562E+03  0.65864270000E+03 0. -1.
    8880022    1    1    2    0    0 -0.11593023144E+03  0.33934344504E+03 -0.64057559393E+03  0.74988168187E+03  0.15294330000E+03 0.  0.
<mgrwt>
<rscale>  0 0.63678584E+03</rscale>
<asrwt>0</asrwt>
<pdfrwt beam="1">  1        2 0.19349862E+00 0.74993600E+03</pdfrwt>
<pdfrwt beam="2">  1       -2 0.46862287E-01 0.74993600E+03</pdfrwt>
<totfact> 0.76827798E+01</totfact>
</mgrwt>
</event>
<event>
 4    1  0.3565372E-007  0.7406294E+03  0.7818608E-02  0.9858118E-01
          2   -1    0    0  501    0  0.00000000000E+00  0.00000000000E+00  0.12810058778E+04  0.12810058778E+04  0.25500000000E-02 0. -1.
         -2   -1    0    0    0  501 -0.00000000000E+00 -0.00000000000E+00 -0.40665378193E+03  0.40665378194E+03  0.25500000000E-02 0.  1.
    8880023    1    1    2    0    0  0.32650948511E+03  0.90073257344E+02  0.10432739337E+04  0.12794343838E+04  0.65864270000E+03 0. -1.
    8880022    1    1    2    0    0 -0.32650948511E+03 -0.90073257344E+02 -0.16892183785E+03  0.40822527588E+03  0.15294330000E+03 0.  1.
<mgrwt>
<rscale>  0 0.62334736E+03</rscale>
<asrwt>0</asrwt>
<pdfrwt beam="1">  1        2 0.19707782E+00 0.74062936E+03</pdfrwt>
<pdfrwt beam="2">  1       -2 0.62562121E-01 0.74062936E+03</pdfrwt>
<totfact> 0.41000444E+01</totfact>
</mgrwt>
</event>
<event>
 4    1  0.3565372E-007  0.7021270E+03  0.7818608E-02  0.9988489E-01
         -2   -1    0    0    0  501 -0.00000000000E+00  0.00000000000E+00  0.64687661200E+03  0.64687661201E+03  0.25500000000E-02 0.  1.
          2   -1    0    0  501    0  0.00000000000E+00 -0.00000000000E+00 -0.13850128723E+04  0.13850128723E+04  0.25500000000E-02 0. -1.
    8880023    1    1    2    0    0  0.24218736716E+03  0.22747433281E+02 -0.12564127242E+04  0.14392898618E+04  0.65864270000E+03 0. -1.
    8880022    1    1    2    0    0 -0.24218736716E+03 -0.22747433281E+02  0.51827646390E+03  0.59259962250E+03  0.15294330000E+03 0.  0.
<mgrwt>
<rscale>  0 0.56157853E+03</rscale>
<asrwt>0</asrwt>
<pdfrwt beam="1">  1        2 0.21307890E+00 0.70212703E+03</pdfrwt>
<pdfrwt beam="2">  1       -2 0.99519479E-01 0.70212703E+03</pdfrwt>
<totfact> 0.12688021E+01</totfact>
</mgrwt>
</event>
<event>
 4    1  0.3565372E-007  0.8148401E+03  0.7818608E-02  0.9679582E-01
         -2   -1    0    0    0  501 -0.00000000000E+00  0.00000000000E+00  0.26989489501E+03  0.26989489502E+03  0.25500000000E-02 0.  1.
          2   -1    0    0  501    0  0.00000000000E+00 -0.00000000000E+00 -0.31224532948E+04  0.31224532948E+04  0.25500000000E-02 0. -1.
    8880023    1    1    2    0    0  0.39998834305E+03  0.26488383192E+03 -0.27633371009E+04  0.28809714088E+04  0.65864270000E+03 0. -1.
    8880022    1    1    2    0    0 -0.39998834305E+03 -0.26488383192E+03 -0.89221298937E+02  0.51137678104E+03  0.15294330000E+03 0.  0.
<mgrwt>
<rscale>  0 0.72245587E+03</rscale>
<asrwt>0</asrwt>
<pdfrwt beam="1">  1        2 0.48037740E+00 0.81484006E+03</pdfrwt>
<pdfrwt beam="2">  1       -2 0.41522294E-01 0.81484006E+03</pdfrwt>
<totfact> 0.84452385E+00</totfact>
</mgrwt>
</event>
<event>
 4    1  0.3565372E-007  0.8259273E+03  0.7818608E-02  0.9657309E-01
         -2   -1    0    0    0  501 -0.00000000000E+00  0.00000000000E+00  0.74371210325E+03  0.74371210326E+03  0.25500000000E-02 0.  1.
          2   -1    0    0  501    0  0.00000000000E+00 -0.00000000000E+00 -0.18094082957E+04  0.18094082957E+04  0.25500000000E-02 0. -1.
    8880023    1    1    2    0    0 -0.33405656016E+03 -0.36979989892E+03 -0.16037683622E+04  0.18039481468E+04  0.65864270000E+03 0. -1.
    8880022    1    1    2    0    0  0.33405656016E+03  0.36979989892E+03  0.53807216969E+03  0.74917225218E+03  0.15294330000E+03 0.  0.
<mgrwt>
<rscale>  0 0.73616481E+03</rscale>
<asrwt>0</asrwt>
<pdfrwt beam="1">  1        2 0.27837051E+00 0.82592733E+03</pdfrwt>
<pdfrwt beam="2">  1       -2 0.11441725E+00 0.82592733E+03</pdfrwt>
<totfact> 0.51910552E+00</totfact>
</mgrwt>
</event>
<event>
 4    1  0.3565372E-007  0.6893182E+03  0.7818608E-02  0.1004478E+00
         -2   -1    0    0    0  501 -0.00000000000E+00  0.00000000000E+00  0.24713738434E+03  0.24713738435E+03  0.25500000000E-02 0.  1.
          2   -1    0    0  501    0  0.00000000000E+00 -0.00000000000E+00 -0.46171465996E+04  0.46171465996E+04  0.25500000000E-02 0. -1.
    8880023    1    1    2    0    0 -0.20324277969E+03  0.64610605603E+01 -0.45177657242E+04  0.45700510630E+04  0.65864270000E+03 0. -1.
    8880022    1    1    2    0    0  0.20324277969E+03 -0.64610605603E+01  0.14775650901E+03  0.29423292095E+03  0.15294330000E+03 0.  0.
<mgrwt>
<rscale>  0 0.53729433E+03</rscale>
<asrwt>0</asrwt>
<pdfrwt beam="1">  1        2 0.71033018E+00 0.68931820E+03</pdfrwt>
<pdfrwt beam="2">  1       -2 0.38021140E-01 0.68931820E+03</pdfrwt>
<totfact> 0.71552720E-01</totfact>
</mgrwt>
</event>
<event>
 4    1  0.3565372E-007  0.7109762E+03  0.7818608E-02  0.9954393E-01
          2   -1    0    0  501    0  0.00000000000E+00  0.00000000000E+00  0.19249590236E+04  0.19249590236E+04  0.25500000000E-02 0. -1.
         -2   -1    0    0    0  501 -0.00000000000E+00 -0.00000000000E+00 -0.29787169682E+03  0.29787169683E+03  0.25500000000E-02 0.  1.
    8880023    1    1    2    0    0  0.60841623097E+02  0.26072076527E+03  0.17515329986E+04  0.18903320004E+04  0.65864270000E+03 0. -1.
    8880022    1    1    2    0    0 -0.60841623097E+02 -0.26072076527E+03 -0.12444567180E+03  0.33249871998E+03  0.15294330000E+03 0.  0.
<mgrwt>
<rscale>  0 0.57696039E+03</rscale>
<asrwt>0</asrwt>
<pdfrwt beam="1">  1        2 0.29614755E+00 0.71097625E+03</pdfrwt>
<pdfrwt beam="2">  1       -2 0.45826414E-01 0.71097625E+03</pdfrwt>
<totfact> 0.34393584E+01</totfact>
</mgrwt>
</event>
<event>
 4    1  0.3565372E-007  0.1092979E+04  0.7818608E-02  0.9268914E-01
          2   -1    0    0  501    0  0.00000000000E+00  0.00000000000E+00  0.14337461629E+04  0.14337461629E+04  0.25500000000E-02 0. -1.
         -2   -1    0    0    0  501 -0.00000000000E+00 -0.00000000000E+00 -0.94228883671E+03  0.94228883671E+03  0.25500000000E-02 0.  1.
    8880023    1    1    2    0    0  0.77202346850E+03 -0.40592129765E+03  0.88560962120E+03  0.14067362735E+04  0.65864270000E+03 0. -1.
    8880022    1    1    2    0    0 -0.77202346850E+03  0.40592129765E+03 -0.39415229499E+03  0.96929872612E+03  0.15294330000E+03 0.  0.
<mgrwt>
<rscale>  0 0.10369577E+04</rscale>
<asrwt>0</asrwt>
<pdfrwt beam="1">  1        2 0.22057633E+00 0.10929787E+04</pdfrwt>
<pdfrwt beam="2">  1       -2 0.14496751E+00 0.10929787E+04</pdfrwt>
<totfact> 0.44596906E+00</totfact>
</mgrwt>
</event>
<event>
 4    1  0.3565372E-007  0.7384626E+03  0.7818608E-02  0.9864448E-01
          2   -1    0    0  501    0  0.00000000000E+00  0.00000000000E+00  0.81573527010E+03  0.81573527010E+03  0.25500000000E-02 0. -1.
         -2   -1    0    0    0  501 -0.00000000000E+00 -0.00000000000E+00 -0.46191307212E+03  0.46191307212E+03  0.25500000000E-02 0.  1.
    8880023    1    1    2    0    0  0.25912054342E+03  0.21064982994E+03  0.48963838291E+03  0.88604331675E+03  0.65864270000E+03 0. -1.
    8880022    1    1    2    0    0 -0.25912054342E+03 -0.21064982994E+03 -0.13581618493E+03  0.39160502548E+03  0.15294330000E+03 0.  0.
<mgrwt>
<rscale>  0 0.62015647E+03</rscale>
<asrwt>0</asrwt>
<pdfrwt beam="1">  1        2 0.12549773E+00 0.73846260E+03</pdfrwt>
<pdfrwt beam="2">  1       -2 0.71063550E-01 0.73846260E+03</pdfrwt>
<totfact> 0.61227165E+01</totfact>
</mgrwt>
</event>
<event>
 4    1  0.3565372E-007  0.8468249E+03  0.7818608E-02  0.9617443E-01
         -2   -1    0    0    0  501 -0.00000000000E+00  0.00000000000E+00  0.28818797752E+03  0.28818797753E+03  0.25500000000E-02 0.  1.
          2   -1    0    0  501    0  0.00000000000E+00 -0.00000000000E+00 -0.29497461407E+04  0.29497461407E+04  0.25500000000E-02 0. -1.
    8880023    1    1    2    0    0 -0.29897564730E+03  0.44035863664E+03 -0.25310620091E+04  0.26689674533E+04  0.65864270000E+03 0. -1.
    8880022    1    1    2    0    0  0.29897564730E+03 -0.44035863664E+03 -0.13049615404E+03  0.56896666490E+03  0.15294330000E+03 0.  0.
<mgrwt>
<rscale>  0 0.76152354E+03</rscale>
<asrwt>0</asrwt>
<pdfrwt beam="1">  1        2 0.45380708E+00 0.84682488E+03</pdfrwt>
<pdfrwt beam="2">  1       -2 0.44336614E-01 0.84682488E+03</pdfrwt>
<totfact> 0.94332297E+00</totfact>
</mgrwt>
</event>
<event>
 4    1  0.3565372E-007  0.7753833E+03  0.7818608E-02  0.9766795E-01
          2   -1    0    0  501    0  0.00000000000E+00  0.00000000000E+00  0.24747229180E+04  0.24747229180E+04  0.25500000000E-02 0. -1.
         -2   -1    0    0    0  501 -0.00000000000E+00 -0.00000000000E+00 -0.20178415623E+03  0.20178415625E+03  0.25500000000E-02 0.  1.
    8880023    1    1    2    0    0  0.22240285660E+03 -0.34343281366E+03  0.70194922866E+03  0.10459216290E+04  0.65864270000E+03 0.  1.
    8880022    1    1    2    0    0 -0.22240285660E+03  0.34343281366E+03  0.15709895331E+04  0.16305854452E+04  0.15294330000E+03 0.  0.
<mgrwt>
<rscale>  0 0.67175340E+03</rscale>
<asrwt>0</asrwt>
<pdfrwt beam="1">  1        2 0.38072661E+00 0.77538335E+03</pdfrwt>
<pdfrwt beam="2">  1       -2 0.31043716E-01 0.77538335E+03</pdfrwt>
<totfact> 0.35945755E+01</totfact>
</mgrwt>
</event>
<event>
 4    1  0.3565372E-007  0.1170075E+04  0.7818608E-02  0.9186775E-01
          2   -1    0    0  501    0  0.00000000000E+00  0.00000000000E+00  0.66476036458E+03  0.66476036458E+03  0.25500000000E-02 0. -1.
         -2   -1    0    0    0  501 -0.00000000000E+00 -0.00000000000E+00 -0.20382858289E+04  0.20382858289E+04  0.25500000000E-02 0.  1.
    8880023    1    1    2    0    0  0.44647942509E+03 -0.85785818799E+03 -0.12565524522E+04  0.17169737386E+04  0.65864270000E+03 0.  0.
    8880022    1    1    2    0    0 -0.44647942509E+03  0.85785818799E+03 -0.11697301217E+03  0.98607245490E+03  0.15294330000E+03 0.  0.
<mgrwt>
<rscale>  0 0.11190978E+04</rscale>
<asrwt>0</asrwt>
<pdfrwt beam="1">  1        2 0.10227083E+00 0.11700747E+04</pdfrwt>
<pdfrwt beam="2">  1       -2 0.31358243E+00 0.11700747E+04</pdfrwt>
<totfact> 0.11322825E+00</totfact>
</mgrwt>
</event>
<event>
 4    1  0.3565372E-007  0.7985979E+03  0.7818608E-02  0.9713836E-01
         -2   -1    0    0    0  501 -0.00000000000E+00  0.00000000000E+00  0.67034816519E+03  0.67034816519E+03  0.25500000000E-02 0.  1.
          2   -1    0    0  501    0  0.00000000000E+00 -0.00000000000E+00 -0.10897771953E+04  0.10897771953E+04  0.25500000000E-02 0. -1.
    8880023    1    1    2    0    0 -0.30335021951E+03 -0.33455489938E+03 -0.81466822532E+03  0.11408079856E+04  0.65864270000E+03 0. -1.
    8880022    1    1    2    0    0  0.30335021951E+03  0.33455489938E+03  0.39523919523E+03  0.61931737489E+03  0.15294330000E+03 0.  0.
<mgrwt>
<rscale>  0 0.70198945E+03</rscale>
<asrwt>0</asrwt>
<pdfrwt beam="1">  1        2 0.16765803E+00 0.79859786E+03</pdfrwt>
<pdfrwt beam="2">  1       -2 0.10313049E+00 0.79859786E+03</pdfrwt>
<totfact> 0.17176639E+01</totfact>
</mgrwt>
</event>
<event>
 4    1  0.3565372E-007  0.8177992E+03  0.7818608E-02  0.9673555E-01
         -2   -1    0    0    0  501 -0.00000000000E+00  0.00000000000E+00  0.24436890437E+03  0.24436890438E+03  0.25500000000E-02 0.  1.
          2   -1    0    0  501    0  0.00000000000E+00 -0.00000000000E+00 -0.28572728753E+04  0.28572728753E+04  0.25500000000E-02 0. -1.
    8880023    1    1    2    0    0 -0.29297858847E+03  0.38619801210E+03 -0.24258829721E+04  0.25600202653E+04  0.65864270000E+03 0.  0.
    8880022    1    1    2    0    0  0.29297858847E+03 -0.38619801210E+03 -0.18702099877E+03  0.54162151439E+03  0.15294330000E+03 0.  0.
<mgrwt>
<rscale>  0 0.72613397E+03</rscale>
<asrwt>0</asrwt>
<pdfrwt beam="1">  1        2 0.43958042E+00 0.81779922E+03</pdfrwt>
<pdfrwt beam="2">  1       -2 0.37595218E-01 0.81779922E+03</pdfrwt>
<totfact> 0.14889570E+01</totfact>
</mgrwt>
</event>
<event>
 4    1  0.3565372E-007  0.7074229E+03  0.7818608E-02  0.9967698E-01
          2   -1    0    0  501    0  0.00000000000E+00  0.00000000000E+00  0.14505557460E+04  0.14505557460E+04  0.25500000000E-02 0. -1.
         -2   -1    0    0    0  501 -0.00000000000E+00 -0.00000000000E+00 -0.30387003821E+03  0.30387003822E+03  0.25500000000E-02 0.  1.
    8880023    1    1    2    0    0 -0.21597733264E+03  0.14138859319E+03  0.12506625550E+04  0.14368729851E+04  0.65864270000E+03 0. -1.
    8880022    1    1    2    0    0  0.21597733264E+03 -0.14138859319E+03 -0.10397684718E+03  0.31755279917E+03  0.15294330000E+03 0.  0.
<mgrwt>
<rscale>  0 0.57089586E+03</rscale>
<asrwt>0</asrwt>
<pdfrwt beam="1">  1        2 0.22316242E+00 0.70742289E+03</pdfrwt>
<pdfrwt beam="2">  1       -2 0.46749237E-01 0.70742289E+03</pdfrwt>
<totfact> 0.60184224E+01</totfact>
</mgrwt>
</event>
<event>
 4    1  0.3565372E-007  0.1010791E+04  0.7818608E-02  0.9367574E-01
         -2   -1    0    0    0  501 -0.00000000000E+00  0.00000000000E+00  0.13818572467E+04  0.13818572467E+04  0.25500000000E-02 0.  1.
          2   -1    0    0  501    0  0.00000000000E+00 -0.00000000000E+00 -0.91924567307E+03  0.91924567307E+03  0.25500000000E-02 0. -1.
    8880023    1    1    2    0    0 -0.65846759300E+03  0.39282103859E+03 -0.44393212730E+03  0.11039809234E+04  0.65864270000E+03 0.  0.
    8880022    1    1    2    0    0  0.65846759300E+03 -0.39282103859E+03  0.90654370090E+03  0.11971219963E+04  0.15294330000E+03 0.  0.
<mgrwt>
<rscale>  0 0.94792934E+03</rscale>
<asrwt>0</asrwt>
<pdfrwt beam="1">  1        2 0.14142241E+00 0.10107909E+04</pdfrwt>
<pdfrwt beam="2">  1       -2 0.21259342E+00 0.10107909E+04</pdfrwt>
<totfact> 0.31110029E+00</totfact>
</mgrwt>
</event>
<event>
 4    1  0.3565372E-007  0.9386014E+03  0.7818608E-02  0.9466707E-01
         -2   -1    0    0    0  501 -0.00000000000E+00  0.00000000000E+00  0.19723781685E+04  0.19723781685E+04  0.25500000000E-02 0.  1.
          2   -1    0    0  501    0  0.00000000000E+00 -0.00000000000E+00 -0.70232392826E+03  0.70232392826E+03  0.25500000000E-02 0. -1.
    8880023    1    1    2    0    0  0.41655920849E+03  0.52310690297E+03 -0.28014015582E+03  0.97951575754E+03  0.65864270000E+03 0.  0.
    8880022    1    1    2    0    0 -0.41655920849E+03 -0.52310690297E+03  0.15501943961E+04  0.16951863392E+04  0.15294330000E+03 0.  0.
<mgrwt>
<rscale>  0 0.86783486E+03</rscale>
<asrwt>0</asrwt>
<pdfrwt beam="1">  1        2 0.10804984E+00 0.93860141E+03</pdfrwt>
<pdfrwt beam="2">  1       -2 0.30344279E+00 0.93860141E+03</pdfrwt>
<totfact> 0.12526121E+00</totfact>
</mgrwt>
</event>
<event>
 4    1  0.3565372E-007  0.9529115E+03  0.7818608E-02  0.9445937E-01
          2   -1    0    0  501    0  0.00000000000E+00  0.00000000000E+00  0.26751154109E+04  0.26751154109E+04  0.25500000000E-02 0. -1.
         -2   -1    0    0    0  501 -0.00000000000E+00 -0.00000000000E+00 -0.28389371917E+03  0.28389371918E+03  0.25500000000E-02 0.  1.
    8880023    1    1    2    0    0  0.64985473642E+03  0.22785740817E+03  0.90643087059E+03  0.13151643648E+04  0.65864270000E+03 0.  1.
    8880022    1    1    2    0    0 -0.64985473642E+03 -0.22785740817E+03  0.14847908211E+04  0.16438447653E+04  0.15294330000E+03 0.  0.
<mgrwt>
<rscale>  0 0.88389742E+03</rscale>
<asrwt>0</asrwt>
<pdfrwt beam="1">  1        2 0.41155623E+00 0.95291153E+03</pdfrwt>
<pdfrwt beam="2">  1       -2 0.43675955E-01 0.95291153E+03</pdfrwt>
<totfact> 0.13954577E+01</totfact>
</mgrwt>
</event>
<event>
 4    1  0.3565372E-007  0.6834171E+03  0.7818608E-02  0.1007453E+00
          2   -1    0    0  501    0  0.00000000000E+00  0.00000000000E+00  0.77101159230E+03  0.77101159230E+03  0.25500000000E-02 0. -1.
         -2   -1    0    0    0  501 -0.00000000000E+00 -0.00000000000E+00 -0.36121539939E+03  0.36121539940E+03  0.25500000000E-02 0.  1.
    8880023    1    1    2    0    0  0.10029483933E+03 -0.15228156742E+03  0.53070889946E+03  0.86528080575E+03  0.65864270000E+03 0. -1.
    8880022    1    1    2    0    0 -0.10029483933E+03  0.15228156742E+03 -0.12091270655E+03  0.26694618594E+03  0.15294330000E+03 0.  0.
<mgrwt>
<rscale>  0 0.52499499E+03</rscale>
<asrwt>0</asrwt>
<pdfrwt beam="1">  1        2 0.11861717E+00 0.68341710E+03</pdfrwt>
<pdfrwt beam="2">  1       -2 0.55571601E-01 0.68341710E+03</pdfrwt>
<totfact> 0.11184820E+02</totfact>
</mgrwt>
</event>
<event>
 4    1  0.3565372E-007  0.7111215E+03  0.7818608E-02  0.9953860E-01
         -2   -1    0    0    0  501 -0.00000000000E+00  0.00000000000E+00  0.42701916329E+03  0.42701916330E+03  0.25500000000E-02 0.  1.
          2   -1    0    0  501    0  0.00000000000E+00 -0.00000000000E+00 -0.10376422927E+04  0.10376422927E+04  0.25500000000E-02 0. -1.
    8880023    1    1    2    0    0  0.21983065773E+03  0.15348658369E+03 -0.82475094310E+03  0.10889940192E+04  0.65864270000E+03 0. -1.
    8880022    1    1    2    0    0 -0.21983065773E+03 -0.15348658369E+03  0.21412781370E+03  0.37566743679E+03  0.15294330000E+03 0.  0.
<mgrwt>
<rscale>  0 0.57720545E+03</rscale>
<asrwt>0</asrwt>
<pdfrwt beam="1">  1        2 0.15963728E+00 0.71112155E+03</pdfrwt>
<pdfrwt beam="2">  1       -2 0.65695256E-01 0.71112155E+03</pdfrwt>
<totfact> 0.51835501E+01</totfact>
</mgrwt>
</event>
<event>
 4    1  0.3565372E-007  0.7539409E+03  0.7818608E-02  0.9821054E-01
         -2   -1    0    0    0  501 -0.00000000000E+00  0.00000000000E+00  0.22852958000E+03  0.22852958001E+03  0.25500000000E-02 0.  1.
          2   -1    0    0  501    0  0.00000000000E+00 -0.00000000000E+00 -0.31586353606E+04  0.31586353606E+04  0.25500000000E-02 0. -1.
    8880023    1    1    2    0    0  0.35006912904E+03  0.10985590125E+03 -0.28910581513E+04  0.29877490114E+04  0.65864270000E+03 0.  0.
    8880022    1    1    2    0    0 -0.35006912904E+03 -0.10985590125E+03 -0.39047629214E+02  0.39941592922E+03  0.15294330000E+03 0.  0.
<mgrwt>
<rscale>  0 0.64244803E+03</rscale>
<asrwt>0</asrwt>
<pdfrwt beam="1">  1        2 0.48594387E+00 0.75394093E+03</pdfrwt>
<pdfrwt beam="2">  1       -2 0.35158399E-01 0.75394093E+03</pdfrwt>
<totfact> 0.11176706E+01</totfact>
</mgrwt>
</event>
<event>
 4    1  0.3565372E-007  0.7145226E+03  0.7818608E-02  0.9941575E-01
         -2   -1    0    0    0  501 -0.00000000000E+00  0.00000000000E+00  0.24571532158E+03  0.24571532159E+03  0.25500000000E-02 0.  1.
          2   -1    0    0  501    0  0.00000000000E+00 -0.00000000000E+00 -0.12018866827E+04  0.12018866827E+04  0.25500000000E-02 0. -1.
    8880023    1    1    2    0    0 -0.22649015898E+03  0.15948224979E+03 -0.85744591723E+03  0.11161344396E+04  0.65864270000E+03 0.  1.
    8880022    1    1    2    0    0  0.22649015898E+03 -0.15948224979E+03 -0.98725443860E+02  0.33146756462E+03  0.15294330000E+03 0.  0.
<mgrwt>
<rscale>  0 0.58288017E+03</rscale>
<asrwt>0</asrwt>
<pdfrwt beam="1">  1        2 0.18490564E+00 0.71452263E+03</pdfrwt>
<pdfrwt beam="2">  1       -2 0.37802358E-01 0.71452263E+03</pdfrwt>
<totfact> 0.12683234E+02</totfact>
</mgrwt>
</event>
<event>
 4    1  0.3565372E-007  0.7183067E+03  0.7818608E-02  0.9928358E-01
         -2   -1    0    0    0  501 -0.00000000000E+00  0.00000000000E+00  0.24202493046E+04  0.24202493046E+04  0.25500000000E-02 0.  1.
          2   -1    0    0  501    0  0.00000000000E+00 -0.00000000000E+00 -0.13194247915E+03  0.13194247917E+03  0.25500000000E-02 0. -1.
    8880023    1    1    2    0    0  0.28272091341E+03  0.47150902013E+02  0.10514949779E+04  0.12734230315E+04  0.65864270000E+03 0. -1.
    8880022    1    1    2    0    0 -0.28272091341E+03 -0.47150902013E+02  0.12368118476E+04  0.12787687523E+04  0.15294330000E+03 0.  0.
<mgrwt>
<rscale>  0 0.58906423E+03</rscale>
<asrwt>0</asrwt>
<pdfrwt beam="1">  1        2 0.20298845E-01 0.71830671E+03</pdfrwt>
<pdfrwt beam="2">  1       -2 0.37234601E+00 0.71830671E+03</pdfrwt>
<totfact> 0.33222733E+00</totfact>
</mgrwt>
</event>
<event>
 4    1  0.3565372E-007  0.6595919E+03  0.7818608E-02  0.1024579E+00
         -2   -1    0    0    0  501 -0.00000000000E+00  0.00000000000E+00  0.91147424184E+02  0.91147424219E+02  0.25500000000E-02 0.  1.
          2   -1    0    0  501    0  0.00000000000E+00 -0.00000000000E+00 -0.18794761194E+04  0.18794761194E+04  0.25500000000E-02 0. -1.
    8880023    1    1    2    0    0 -0.24442231078E+02  0.25569368496E+02 -0.15581732862E+04  0.16920299677E+04  0.65864270000E+03 0. -1.
    8880022    1    1    2    0    0  0.24442231078E+02 -0.25569368496E+02 -0.23015540895E+03  0.27859357593E+03  0.15294330000E+03 0.  1.
<mgrwt>
<rscale>  0 0.46069964E+03</rscale>
<asrwt>0</asrwt>
<pdfrwt beam="1">  1        2 0.28915014E+00 0.65959186E+03</pdfrwt>
<pdfrwt beam="2">  1       -2 0.14022682E-01 0.65959186E+03</pdfrwt>
<totfact> 0.31458416E+02</totfact>
</mgrwt>
</event>
<event>
 4    1  0.3565372E-007  0.8878846E+03  0.7818608E-02  0.9545767E-01
         -2   -1    0    0    0  501 -0.00000000000E+00  0.00000000000E+00  0.17183531055E+03  0.17183531057E+03  0.25500000000E-02 0.  1.
          2   -1    0    0  501    0  0.00000000000E+00 -0.00000000000E+00 -0.34399349301E+04  0.34399349301E+04  0.25500000000E-02 0. -1.
    8880023    1    1    2    0    0  0.24658668199E+03  0.54196295031E+03 -0.22948498986E+04  0.24606249398E+04  0.65864270000E+03 0.  0.
    8880022    1    1    2    0    0 -0.24658668199E+03 -0.54196295031E+03 -0.97324972092E+03  0.11511453008E+04  0.15294330000E+03 0.  0.
<mgrwt>
<rscale>  0 0.80992059E+03</rscale>
<asrwt>0</asrwt>
<pdfrwt beam="1">  1        2 0.52922071E+00 0.88788459E+03</pdfrwt>
<pdfrwt beam="2">  1       -2 0.26436204E-01 0.88788459E+03</pdfrwt>
<totfact> 0.12187080E+01</totfact>
</mgrwt>
</event>
<event>
 4    1  0.3565372E-007  0.7382719E+03  0.7818608E-02  0.9865010E-01
          2   -1    0    0  501    0  0.00000000000E+00  0.00000000000E+00  0.47931648508E+03  0.47931648509E+03  0.25500000000E-02 0. -1.
         -2   -1    0    0    0  501 -0.00000000000E+00 -0.00000000000E+00 -0.16602680728E+04  0.16602680728E+04  0.25500000000E-02 0.  1.
    8880023    1    1    2    0    0  0.33346859826E+03 -0.58210859775E+01  0.15482493613E+03  0.75433159696E+03  0.65864270000E+03 0. -1.
    8880022    1    1    2    0    0 -0.33346859826E+03  0.58210859775E+01 -0.13357765238E+04  0.13852529609E+04  0.15294330000E+03 0.  0.
<mgrwt>
<rscale>  0 0.61987442E+03</rscale>
<asrwt>0</asrwt>
<pdfrwt beam="1">  1        2 0.73740999E-01 0.73827190E+03</pdfrwt>
<pdfrwt beam="2">  1       -2 0.25542585E+00 0.73827190E+03</pdfrwt>
<totfact> 0.39717598E+00</totfact>
</mgrwt>
</event>
<event>
 4    1  0.3565372E-007  0.7483535E+03  0.7818608E-02  0.9836250E-01
          2   -1    0    0  501    0  0.00000000000E+00  0.00000000000E+00  0.10301284572E+04  0.10301284572E+04  0.25500000000E-02 0. -1.
         -2   -1    0    0    0  501 -0.00000000000E+00 -0.00000000000E+00 -0.54280362777E+03  0.54280362777E+03  0.25500000000E-02 0.  1.
    8880023    1    1    2    0    0 -0.20708567154E+03  0.28868378431E+03  0.78522104572E+03  0.10847142940E+04  0.65864270000E+03 0.  0.
    8880022    1    1    2    0    0  0.20708567154E+03 -0.28868378431E+03 -0.29789621633E+03  0.48821779095E+03  0.15294330000E+03 0.  0.
<mgrwt>
<rscale>  0 0.63452948E+03</rscale>
<asrwt>0</asrwt>
<pdfrwt beam="1">  1        2 0.15848130E+00 0.74835353E+03</pdfrwt>
<pdfrwt beam="2">  1       -2 0.83508251E-01 0.74835353E+03</pdfrwt>
<totfact> 0.30728932E+01</totfact>
</mgrwt>
</event>
<event>
 4    1  0.3565372E-007  0.8440967E+03  0.7818608E-02  0.9622503E-01
          2   -1    0    0  501    0  0.00000000000E+00  0.00000000000E+00  0.80512207668E+03  0.80512207668E+03  0.25500000000E-02 0. -1.
         -2   -1    0    0    0  501 -0.00000000000E+00 -0.00000000000E+00 -0.64312365662E+03  0.64312365663E+03  0.25500000000E-02 0.  1.
    8880023    1    1    2    0    0  0.76401934449E+02  0.52235213641E+03 -0.79658160193E+02  0.84784706094E+03  0.65864270000E+03 0.  1.
    8880022    1    1    2    0    0 -0.76401934449E+02 -0.52235213641E+03  0.24165658025E+03  0.60039867237E+03  0.15294330000E+03 0.  0.
<mgrwt>
<rscale>  0 0.75824493E+03</rscale>
<asrwt>0</asrwt>
<pdfrwt beam="1">  1        2 0.12386493E+00 0.84409669E+03</pdfrwt>
<pdfrwt beam="2">  1       -2 0.98942102E-01 0.84409669E+03</pdfrwt>
<totfact> 0.29109460E+01</totfact>
</mgrwt>
</event>
<event>
 4    1  0.3565372E-007  0.6907501E+03  0.7818608E-02  0.1003798E+00
         -2   -1    0    0    0  501 -0.00000000000E+00  0.00000000000E+00  0.14910568188E+03  0.14910568190E+03  0.25500000000E-02 0.  1.
          2   -1    0    0  501    0  0.00000000000E+00 -0.00000000000E+00 -0.31195318398E+04  0.31195318398E+04  0.25500000000E-02 0. -1.
    8880023    1    1    2    0    0  0.15114687054E+03  0.14310894172E+03 -0.29261488308E+04  0.30065732540E+04  0.65864270000E+03 0. -1.
    8880022    1    1    2    0    0 -0.15114687054E+03 -0.14310894172E+03 -0.44277327123E+02  0.26206426766E+03  0.15294330000E+03 0.  0.
<mgrwt>
<rscale>  0 0.54015756E+03</rscale>
<asrwt>0</asrwt>
<pdfrwt beam="1">  1        2 0.47992793E+00 0.69075014E+03</pdfrwt>
<pdfrwt beam="2">  1       -2 0.22939338E-01 0.69075014E+03</pdfrwt>
<totfact> 0.26243324E+01</totfact>
</mgrwt>
</event>
<event>
 4    1  0.3565372E-007  0.7285395E+03  0.7818608E-02  0.9894684E-01
          2   -1    0    0  501    0  0.00000000000E+00  0.00000000000E+00  0.34598028751E+04  0.34598028751E+04  0.25500000000E-02 0. -1.
         -2   -1    0    0    0  501 -0.00000000000E+00 -0.00000000000E+00 -0.19342983879E+03  0.19342983881E+03  0.25500000000E-02 0.  1.
    8880023    1    1    2    0    0  0.30908458184E+03  0.37765981313E+02  0.32221766403E+04  0.33035120789E+04  0.65864270000E+03 0.  0.
    8880022    1    1    2    0    0 -0.30908458184E+03 -0.37765981313E+02  0.44196395980E+02  0.34972063495E+03  0.15294330000E+03 0.  0.
<mgrwt>
<rscale>  0 0.60519609E+03</rscale>
<asrwt>0</asrwt>
<pdfrwt beam="1">  1        2 0.53227737E+00 0.72853947E+03</pdfrwt>
<pdfrwt beam="2">  1       -2 0.29758436E-01 0.72853947E+03</pdfrwt>
<totfact> 0.97732255E+00</totfact>
</mgrwt>
</event>
<event>
 4    1  0.3565372E-007  0.9545585E+03  0.7818608E-02  0.9443585E-01
         -2   -1    0    0    0  501 -0.00000000000E+00  0.00000000000E+00  0.71094626348E+03  0.71094626349E+03  0.25500000000E-02 0.  1.
          2   -1    0    0  501    0  0.00000000000E+00 -0.00000000000E+00 -0.15433774387E+04  0.15433774387E+04  0.25500000000E-02 0. -1.
    8880023    1    1    2    0    0 -0.67835937117E+03 -0.13114992683E+03 -0.11364371568E+04  0.14841399386E+04  0.65864270000E+03 0.  0.
    8880022    1    1    2    0    0  0.67835937117E+03  0.13114992683E+03  0.30400598162E+03  0.77018376355E+03  0.15294330000E+03 0.  0.
<mgrwt>
<rscale>  0 0.88573945E+03</rscale>
<asrwt>0</asrwt>
<pdfrwt beam="1">  1        2 0.23744268E+00 0.95455851E+03</pdfrwt>
<pdfrwt beam="2">  1       -2 0.10937635E+00 0.95455851E+03</pdfrwt>
<totfact> 0.79922489E+00</totfact>
</mgrwt>
</event>
<event>
 4    1  0.3565372E-007  0.6920759E+03  0.7818608E-02  0.1003181E+00
          2   -1    0    0  501    0  0.00000000000E+00  0.00000000000E+00  0.14809605641E+04  0.14809605641E+04  0.25500000000E-02 0. -1.
         -2   -1    0    0    0  501 -0.00000000000E+00 -0.00000000000E+00 -0.25327355280E+03  0.25327355281E+03  0.25500000000E-02 0.  1.
    8880023    1    1    2    0    0 -0.75163811216E+02 -0.19876916976E+03  0.12910561216E+04  0.14648531998E+04  0.65864270000E+03 0. -1.
    8880022    1    1    2    0    0  0.75163811216E+02  0.19876916976E+03 -0.63369110342E+02  0.26938091715E+03  0.15294330000E+03 0.  0.
<mgrwt>
<rscale>  0 0.54277089E+03</rscale>
<asrwt>0</asrwt>
<pdfrwt beam="1">  1        2 0.22784008E+00 0.69207585E+03</pdfrwt>
<pdfrwt beam="2">  1       -2 0.38965163E-01 0.69207585E+03</pdfrwt>
<totfact> 0.83022980E+01</totfact>
</mgrwt>
</event>
<event>
 4    1  0.3565372E-007  0.7796775E+03  0.7818608E-02  0.9756595E-01
          2   -1    0    0  501    0  0.00000000000E+00  0.00000000000E+00  0.20536293922E+04  0.20536293922E+04  0.25500000000E-02 0. -1.
         -2   -1    0    0    0  501 -0.00000000000E+00 -0.00000000000E+00 -0.27726312468E+03  0.27726312469E+03  0.25500000000E-02 0.  1.
    8880023    1    1    2    0    0 -0.41712366817E+03  0.97258403483E+01  0.17128975037E+04  0.18819975587E+04  0.65864270000E+03 0. -1.
    8880022    1    1    2    0    0  0.41712366817E+03 -0.97258403483E+01  0.63468763866E+02  0.44889495823E+03  0.15294330000E+03 0.  0.
<mgrwt>
<rscale>  0 0.67744835E+03</rscale>
<asrwt>0</asrwt>
<pdfrwt beam="1">  1        2 0.31594298E+00 0.77967747E+03</pdfrwt>
<pdfrwt beam="2">  1       -2 0.42655866E-01 0.77967747E+03</pdfrwt>
<totfact> 0.33444500E+01</totfact>
</mgrwt>
</event>
<event>
 4    1  0.3565372E-007  0.7560664E+03  0.7818608E-02  0.9815400E-01
          2   -1    0    0  501    0  0.00000000000E+00  0.00000000000E+00  0.29441056774E+04  0.29441056774E+04  0.25500000000E-02 0. -1.
         -2   -1    0    0    0  501 -0.00000000000E+00 -0.00000000000E+00 -0.14360204783E+03  0.14360204786E+03  0.25500000000E-02 0.  1.
    8880023    1    1    2    0    0 -0.15718293916E+03  0.33633283902E+03  0.10632639819E+04  0.13046711296E+04  0.65864270000E+03 0.  1.
    8880022    1    1    2    0    0  0.15718293916E+03 -0.33633283902E+03  0.17372396477E+04  0.17830365956E+04  0.15294330000E+03 0.  0.
<mgrwt>
<rscale>  0 0.64542626E+03</rscale>
<asrwt>0</asrwt>
<pdfrwt beam="1">  1        2 0.45293933E+00 0.75606644E+03</pdfrwt>
<pdfrwt beam="2">  1       -2 0.22092623E-01 0.75606644E+03</pdfrwt>
<totfact> 0.35587989E+01</totfact>
</mgrwt>
</event>
<event>
 4    1  0.3565372E-007  0.7946013E+03  0.7818608E-02  0.9722593E-01
          2   -1    0    0  501    0  0.00000000000E+00  0.00000000000E+00  0.15839355978E+04  0.15839355978E+04  0.25500000000E-02 0. -1.
         -2   -1    0    0    0  501 -0.00000000000E+00 -0.00000000000E+00 -0.26124566530E+03  0.26124566531E+03  0.25500000000E-02 0.  1.
    8880023    1    1    2    0    0 -0.95063337025E+02 -0.43421650820E+03  0.98921051886E+03  0.12688296461E+04  0.65864270000E+03 0. -1.
    8880022    1    1    2    0    0  0.95063337025E+02  0.43421650820E+03  0.33347941364E+03  0.57635161697E+03  0.15294330000E+03 0.  0.
<mgrwt>
<rscale>  0 0.69687402E+03</rscale>
<asrwt>0</asrwt>
<pdfrwt beam="1">  1        2 0.24368240E+00 0.79460130E+03</pdfrwt>
<pdfrwt beam="2">  1       -2 0.40191641E-01 0.79460130E+03</pdfrwt>
<totfact> 0.67843492E+01</totfact>
</mgrwt>
</event>
<event>
 4    1  0.3565372E-007  0.9309747E+03  0.7818608E-02  0.9478033E-01
         -2   -1    0    0    0  501 -0.00000000000E+00  0.00000000000E+00  0.17838974639E+04  0.17838974639E+04  0.25500000000E-02 0.  1.
          2   -1    0    0  501    0  0.00000000000E+00 -0.00000000000E+00 -0.63428353935E+03  0.63428353936E+03  0.25500000000E-02 0. -1.
    8880023    1    1    2    0    0 -0.59883092513E+03 -0.27258986448E+03 -0.15999588165E+03  0.94462299332E+03  0.65864270000E+03 0.  0.
    8880022    1    1    2    0    0  0.59883092513E+03  0.27258986448E+03  0.13096098062E+04  0.14735580099E+04  0.15294330000E+03 0.  0.
<mgrwt>
<rscale>  0 0.85922948E+03</rscale>
<asrwt>0</asrwt>
<pdfrwt beam="1">  1        2 0.97582085E-01 0.93097471E+03</pdfrwt>
<pdfrwt beam="2">  1       -2 0.27444576E+00 0.93097471E+03</pdfrwt>
<totfact> 0.21317099E+00</totfact>
</mgrwt>
</event>
<event>
 4    1  0.3565372E-007  0.6838191E+03  0.7818608E-02  0.1007241E+00
          2   -1    0    0  501    0  0.00000000000E+00  0.00000000000E+00  0.26733601232E+04  0.26733601232E+04  0.25500000000E-02 0. -1.
         -2   -1    0    0    0  501 -0.00000000000E+00 -0.00000000000E+00 -0.20138313272E+03  0.20138313273E+03  0.25500000000E-02 0.  1.
    8880023    1    1    2    0    0 -0.18300459387E+03 -0.17540091874E+02  0.25364903064E+04  0.26270499837E+04  0.65864270000E+03 0. -1.
    8880022    1    1    2    0    0  0.18300459387E+03  0.17540091874E+02 -0.64513315844E+02  0.24769327229E+03  0.15294330000E+03 0.  0.
<mgrwt>
<rscale>  0 0.52586094E+03</rscale>
<asrwt>0</asrwt>
<pdfrwt beam="1">  1        2 0.41128617E+00 0.68381909E+03</pdfrwt>
<pdfrwt beam="2">  1       -2 0.30982020E-01 0.68381909E+03</pdfrwt>
<totfact> 0.28158492E+01</totfact>
</mgrwt>
</event>
<event>
 4    1  0.3565372E-007  0.7346005E+03  0.7818608E-02  0.9875964E-01
          2   -1    0    0  501    0  0.00000000000E+00  0.00000000000E+00  0.18034816136E+04  0.18034816136E+04  0.25500000000E-02 0. -1.
         -2   -1    0    0    0  501 -0.00000000000E+00 -0.00000000000E+00 -0.33919332352E+03  0.33919332353E+03  0.25500000000E-02 0.  1.
    8880023    1    1    2    0    0  0.32108335811E+03  0.52280305668E+02  0.15983018364E+04  0.17590357358E+04  0.65864270000E+03 0. -1.
    8880022    1    1    2    0    0 -0.32108335811E+03 -0.52280305668E+02 -0.13401354631E+03  0.38363920137E+03  0.15294330000E+03 0.  0.
<mgrwt>
<rscale>  0 0.61440452E+03</rscale>
<asrwt>0</asrwt>
<pdfrwt beam="1">  1        2 0.27745871E+00 0.73460054E+03</pdfrwt>
<pdfrwt beam="2">  1       -2 0.52183588E-01 0.73460054E+03</pdfrwt>
<totfact> 0.30689987E+01</totfact>
</mgrwt>
</event>
<event>
 4    1  0.3565372E-007  0.6977984E+03  0.7818608E-02  0.1000646E+00
          2   -1    0    0  501    0  0.00000000000E+00  0.00000000000E+00  0.93557892877E+03  0.93557892878E+03  0.25500000000E-02 0. -1.
         -2   -1    0    0    0  501 -0.00000000000E+00 -0.00000000000E+00 -0.29173188407E+03  0.29173188408E+03  0.25500000000E-02 0.  1.
    8880023    1    1    2    0    0  0.21354730018E+03 -0.86659886043E+02  0.64570020825E+03  0.95071097104E+03  0.65864270000E+03 0. -1.
    8880022    1    1    2    0    0 -0.21354730018E+03  0.86659886043E+02 -0.18531635385E+01  0.27659984182E+03  0.15294330000E+03 0.  1.
<mgrwt>
<rscale>  0 0.55367896E+03</rscale>
<asrwt>0</asrwt>
<pdfrwt beam="1">  1        2 0.14393522E+00 0.69779839E+03</pdfrwt>
<pdfrwt beam="2">  1       -2 0.44881828E-01 0.69779839E+03</pdfrwt>
<totfact> 0.13269093E+02</totfact>
</mgrwt>
</event>
<event>
 4    1  0.3565372E-007  0.1074425E+04  0.7818608E-02  0.9290079E-01
          2   -1    0    0  501    0  0.00000000000E+00  0.00000000000E+00  0.14475577317E+04  0.14475577317E+04  0.25500000000E-02 0. -1.
         -2   -1    0    0    0  501 -0.00000000000E+00 -0.00000000000E+00 -0.10430392124E+04  0.10430392124E+04  0.25500000000E-02 0.  1.
    8880023    1    1    2    0    0  0.45360846490E+03 -0.71750873618E+03  0.97956937910E+03  0.14539414708E+04  0.65864270000E+03 0. -1.
    8880022    1    1    2    0    0 -0.45360846490E+03  0.71750873618E+03 -0.57505085979E+03  0.10366554733E+04  0.15294330000E+03 0.  0.
<mgrwt>
<rscale>  0 0.10170134E+04</rscale>
<asrwt>0</asrwt>
<pdfrwt beam="1">  1        2 0.22270119E+00 0.10744253E+04</pdfrwt>
<pdfrwt beam="2">  1       -2 0.16046757E+00 0.10744253E+04</pdfrwt>
<totfact> 0.33423953E+00</totfact>
</mgrwt>
</event>
<event>
 4    1  0.3565372E-007  0.9056728E+03  0.7818608E-02  0.9516986E-01
          2   -1    0    0  501    0  0.00000000000E+00  0.00000000000E+00  0.20342427612E+04  0.20342427612E+04  0.25500000000E-02 0. -1.
         -2   -1    0    0    0  501 -0.00000000000E+00 -0.00000000000E+00 -0.61972528518E+03  0.61972528519E+03  0.25500000000E-02 0.  1.
    8880023    1    1    2    0    0 -0.22679275502E+03 -0.57879024746E+03  0.17205837209E+04  0.19443897889E+04  0.65864270000E+03 0.  0.
    8880022    1    1    2    0    0  0.22679275502E+03  0.57879024746E+03 -0.30606624486E+03  0.70957825752E+03  0.15294330000E+03 0.  0.
<mgrwt>
<rscale>  0 0.83043049E+03</rscale>
<asrwt>0</asrwt>
<pdfrwt beam="1">  1        2 0.31296042E+00 0.90567285E+03</pdfrwt>
<pdfrwt beam="2">  1       -2 0.95342354E-01 0.90567285E+03</pdfrwt>
<totfact> 0.59882429E+00</totfact>
</mgrwt>
</event>
<event>
 4    1  0.3565372E-007  0.1532172E+04  0.7818608E-02  0.8887246E-01
          2   -1    0    0  501    0  0.00000000000E+00  0.00000000000E+00  0.27202942555E+04  0.27202942555E+04  0.25500000000E-02 0. -1.
         -2   -1    0    0    0  501 -0.00000000000E+00 -0.00000000000E+00 -0.93315191504E+03  0.93315191504E+03  0.25500000000E-02 0.  1.
    8880023    1    1    2    0    0  0.70001469307E+03 -0.11931976986E+04  0.20432582557E+03  0.15457362542E+04  0.65864270000E+03 0.  0.
    8880022    1    1    2    0    0 -0.70001469307E+03  0.11931976986E+04  0.15828165149E+04  0.21077099163E+04  0.15294330000E+03 0.  0.
<mgrwt>
<rscale>  0 0.14958071E+04</rscale>
<asrwt>0</asrwt>
<pdfrwt beam="1">  1        2 0.41850680E+00 0.15321722E+04</pdfrwt>
<pdfrwt beam="2">  1       -2 0.14356183E+00 0.15321722E+04</pdfrwt>
<totfact> 0.81962085E-01</totfact>
</mgrwt>
</event>
<event>
 4    1  0.3565372E-007  0.7077231E+03  0.7818608E-02  0.9966555E-01
         -2   -1    0    0    0  501 -0.00000000000E+00  0.00000000000E+00  0.31558011519E+03  0.31558011520E+03  0.25500000000E-02 0.  1.
          2   -1    0    0  501    0  0.00000000000E+00 -0.00000000000E+00 -0.30125127394E+04  0.30125127394E+04  0.25500000000E-02 0. -1.
    8880023    1    1    2    0    0 -0.21715823395E+03 -0.14108195420E+03 -0.28868888656E+04  0.29723726794E+04  0.65864270000E+03 0. -1.
    8880022    1    1    2    0    0  0.21715823395E+03  0.14108195420E+03  0.18995624143E+03  0.35572017520E+03  0.15294330000E+03 0.  0.
<mgrwt>
<rscale>  0 0.57141376E+03</rscale>
<asrwt>0</asrwt>
<pdfrwt beam="1">  1        2 0.46346348E+00 0.70772313E+03</pdfrwt>
<pdfrwt beam="2">  1       -2 0.48550789E-01 0.70772313E+03</pdfrwt>
<totfact> 0.73769965E+00</totfact>
</mgrwt>
</event>
<event>
 4    1  0.3565372E-007  0.8328231E+03  0.7818608E-02  0.9643864E-01
          2   -1    0    0  501    0  0.00000000000E+00  0.00000000000E+00  0.10116638497E+04  0.10116638497E+04  0.25500000000E-02 0. -1.
         -2   -1    0    0    0  501 -0.00000000000E+00 -0.00000000000E+00 -0.59177757639E+03  0.59177757640E+03  0.25500000000E-02 0.  1.
    8880023    1    1    2    0    0 -0.46515540101E+03 -0.20836173477E+03 -0.12460859875E+03  0.84209362232E+03  0.65864270000E+03 0.  0.
    8880022    1    1    2    0    0  0.46515540101E+03  0.20836173477E+03  0.54449487203E+03  0.76134780375E+03  0.15294330000E+03 0.  0.
<mgrwt>
<rscale>  0 0.74459755E+03</rscale>
<asrwt>0</asrwt>
<pdfrwt beam="1">  1        2 0.15564059E+00 0.83282313E+03</pdfrwt>
<pdfrwt beam="2">  1       -2 0.91042705E-01 0.83282313E+03</pdfrwt>
<totfact> 0.25692375E+01</totfact>
</mgrwt>
</event>
<event>
 4    1  0.3565372E-007  0.8727745E+03  0.7818608E-02  0.9571232E-01
          2   -1    0    0  501    0  0.00000000000E+00  0.00000000000E+00  0.69481958805E+03  0.69481958806E+03  0.25500000000E-02 0. -1.
         -2   -1    0    0    0  501 -0.00000000000E+00 -0.00000000000E+00 -0.16870344684E+04  0.16870344684E+04  0.25500000000E-02 0.  1.
    8880023    1    1    2    0    0  0.56499234446E+03 -0.93320539942E+02  0.32983155950E+03  0.93301882959E+03  0.65864270000E+03 0. -1.
    8880022    1    1    2    0    0 -0.56499234446E+03  0.93320539942E+02 -0.13220464398E+04  0.14488352268E+04  0.15294330000E+03 0.  0.
<mgrwt>
<rscale>  0 0.79229858E+03</rscale>
<asrwt>0</asrwt>
<pdfrwt beam="1">  1        2 0.10689532E+00 0.87277447E+03</pdfrwt>
<pdfrwt beam="2">  1       -2 0.25954376E+00 0.87277447E+03</pdfrwt>
<totfact> 0.23574693E+00</totfact>
</mgrwt>
</event>
<event>
 4    1  0.3565372E-007  0.8780352E+03  0.7818608E-02  0.9562254E-01
         -2   -1    0    0    0  501 -0.00000000000E+00  0.00000000000E+00  0.15509229396E+03  0.15509229398E+03  0.25500000000E-02 0.  1.
          2   -1    0    0  501    0  0.00000000000E+00 -0.00000000000E+00 -0.47369089649E+04  0.47369089649E+04  0.25500000000E-02 0. -1.
    8880023    1    1    2    0    0  0.56492649929E+03 -0.13414035195E+03 -0.38324886492E+04  0.39317826792E+04  0.65864270000E+03 0.  0.
    8880022    1    1    2    0    0 -0.56492649929E+03  0.13414035195E+03 -0.74932802166E+03  0.96021857964E+03  0.15294330000E+03 0.  0.
<mgrwt>
<rscale>  0 0.79845639E+03</rscale>
<asrwt>0</asrwt>
<pdfrwt beam="1">  1        2 0.72875511E+00 0.87803519E+03</pdfrwt>
<pdfrwt beam="2">  1       -2 0.23860357E-01 0.87803519E+03</pdfrwt>
<totfact> 0.12179857E+00</totfact>
</mgrwt>
</event>
<event>
 4    1  0.3565372E-007  0.6699964E+03  0.7818608E-02  0.1015665E+00
         -2   -1    0    0    0  501 -0.00000000000E+00  0.00000000000E+00  0.39705419066E+03  0.39705419066E+03  0.25500000000E-02 0.  1.
          2   -1    0    0  501    0  0.00000000000E+00 -0.00000000000E+00 -0.62259474322E+03  0.62259474322E+03  0.25500000000E-02 0. -1.
    8880023    1    1    2    0    0  0.95899109733E+02 -0.76735171013E+02 -0.37975171915E+03  0.77013407935E+03  0.65864270000E+03 0. -1.
    8880022    1    1    2    0    0 -0.95899109733E+02  0.76735171013E+02  0.15421116659E+03  0.24951485453E+03  0.15294330000E+03 0.  0.
<mgrwt>
<rscale>  0 0.49283767E+03</rscale>
<asrwt>0</asrwt>
<pdfrwt beam="1">  1        2 0.95783807E-01 0.66999637E+03</pdfrwt>
<pdfrwt beam="2">  1       -2 0.61085260E-01 0.66999637E+03</pdfrwt>
<totfact> 0.12008726E+02</totfact>
</mgrwt>
</event>
<event>
 4    1  0.3565372E-007  0.7095507E+03  0.7818608E-02  0.9959673E-01
          2   -1    0    0  501    0  0.00000000000E+00  0.00000000000E+00  0.36709008522E+03  0.36709008523E+03  0.25500000000E-02 0. -1.
         -2   -1    0    0    0  501 -0.00000000000E+00 -0.00000000000E+00 -0.13369776325E+04  0.13369776325E+04  0.25500000000E-02 0.  1.
    8880023    1    1    2    0    0 -0.88730643410E+02 -0.24855345845E+03 -0.23720382718E+02  0.70994704845E+03  0.65864270000E+03 0. -1.
    8880022    1    1    2    0    0  0.88730643410E+02  0.24855345845E+03 -0.94616716454E+03  0.99412066927E+03  0.15294330000E+03 0.  0.
<mgrwt>
<rscale>  0 0.57454411E+03</rscale>
<asrwt>0</asrwt>
<pdfrwt beam="1">  1        2 0.56475398E-01 0.70955067E+03</pdfrwt>
<pdfrwt beam="2">  1       -2 0.20568887E+00 0.70955067E+03</pdfrwt>
<totfact> 0.10945479E+01</totfact>
</mgrwt>
</event>
<event>
 4    1  0.3565372E-007  0.6772307E+03  0.7818608E-02  0.1010936E+00
          2   -1    0    0  501    0  0.00000000000E+00  0.00000000000E+00  0.12439584133E+04  0.12439584133E+04  0.25500000000E-02 0. -1.
         -2   -1    0    0    0  501 -0.00000000000E+00 -0.00000000000E+00 -0.17552435936E+03  0.17552435938E+03  0.25500000000E-02 0.  1.
    8880023    1    1    2    0    0  0.15981061417E+02  0.15676683755E+03  0.95929287459E+03  0.11742590264E+04  0.65864270000E+03 0.  0.
    8880022    1    1    2    0    0 -0.15981061417E+02 -0.15676683755E+03  0.10914117936E+03  0.24522374625E+03  0.15294330000E+03 0.  0.
<mgrwt>
<rscale>  0 0.51104499E+03</rscale>
<asrwt>0</asrwt>
<pdfrwt beam="1">  1        2 0.19137822E+00 0.67723072E+03</pdfrwt>
<pdfrwt beam="2">  1       -2 0.27003747E-01 0.67723072E+03</pdfrwt>
<totfact> 0.22571238E+02</totfact>
</mgrwt>
</event>
<event>
 4    1  0.3565372E-007  0.7775493E+03  0.7818608E-02  0.9761626E-01
          2   -1    0    0  501    0  0.00000000000E+00  0.00000000000E+00  0.63889317376E+03  0.63889317376E+03  0.25500000000E-02 0. -1.
         -2   -1    0    0    0  501 -0.00000000000E+00 -0.00000000000E+00 -0.71361044554E+03  0.71361044554E+03  0.25500000000E-02 0.  1.
    8880023    1    1    2    0    0 -0.41136014228E+03  0.39440216084E+02 -0.32840038510E+03  0.84405551743E+03  0.65864270000E+03 0.  1.
    8880022    1    1    2    0    0  0.41136014228E+03 -0.39440216084E+02  0.25368311332E+03  0.50844810188E+03  0.15294330000E+03 0.  0.
<mgrwt>
<rscale>  0 0.67463231E+03</rscale>
<asrwt>0</asrwt>
<pdfrwt beam="1">  1        2 0.98291258E-01 0.77754929E+03</pdfrwt>
<pdfrwt beam="2">  1       -2 0.10978622E+00 0.77754929E+03</pdfrwt>
<totfact> 0.30645787E+01</totfact>
</mgrwt>
</event>
<event>
 4    1  0.3565372E-007  0.7340677E+03  0.7818608E-02  0.9877577E-01
         -2   -1    0    0    0  501 -0.00000000000E+00  0.00000000000E+00  0.27834552536E+03  0.27834552537E+03  0.25500000000E-02 0.  1.
          2   -1    0    0  501    0  0.00000000000E+00 -0.00000000000E+00 -0.25679601842E+04  0.25679601842E+04  0.25500000000E-02 0. -1.
    8880023    1    1    2    0    0 -0.27146379790E+03 -0.17706653232E+03 -0.23682426581E+04  0.24794008640E+04  0.65864270000E+03 0. -1.
    8880022    1    1    2    0    0  0.27146379790E+03  0.17706653232E+03  0.78627999246E+02  0.36690484559E+03  0.15294330000E+03 0.  0.
<mgrwt>
<rscale>  0 0.61360411E+03</rscale>
<asrwt>0</asrwt>
<pdfrwt beam="1">  1        2 0.39507078E+00 0.73406768E+03</pdfrwt>
<pdfrwt beam="2">  1       -2 0.42822390E-01 0.73406768E+03</pdfrwt>
<totfact> 0.17264936E+01</totfact>
</mgrwt>
</event>
<event>
 4    1  0.3565372E-007  0.6912428E+03  0.7818608E-02  0.1003567E+00
         -2   -1    0    0    0  501 -0.00000000000E+00  0.00000000000E+00  0.78804214988E+03  0.78804214989E+03  0.25500000000E-02 0.  1.
          2   -1    0    0  501    0  0.00000000000E+00 -0.00000000000E+00 -0.63621758036E+03  0.63621758036E+03  0.25500000000E-02 0. -1.
    8880023    1    1    2    0    0  0.15604645259E+03 -0.14019962773E+03 -0.41117303980E+03  0.80428844695E+03  0.65864270000E+03 0. -1.
    8880022    1    1    2    0    0 -0.15604645259E+03  0.14019962773E+03  0.56299760933E+03  0.61997128329E+03  0.15294330000E+03 0.  0.
<mgrwt>
<rscale>  0 0.54113288E+03</rscale>
<asrwt>0</asrwt>
<pdfrwt beam="1">  1        2 0.97879628E-01 0.69124282E+03</pdfrwt>
<pdfrwt beam="2">  1       -2 0.12123725E+00 0.69124282E+03</pdfrwt>
<totfact> 0.24343640E+01</totfact>
</mgrwt>
</event>
<event>
 4    1  0.3565372E-007  0.6943610E+03  0.7818608E-02  0.1002145E+00
         -2   -1    0    0    0  501 -0.00000000000E+00  0.00000000000E+00  0.17302215476E+03  0.17302215478E+03  0.25500000000E-02 0.  1.
          2   -1    0    0  501    0  0.00000000000E+00 -0.00000000000E+00 -0.22565395947E+04  0.22565395947E+04  0.25500000000E-02 0. -1.
    8880023    1    1    2    0    0  0.19183736283E+03  0.10735671450E+03 -0.20441723581E+04  0.21588834785E+04  0.65864270000E+03 0. -1.
    8880022    1    1    2    0    0 -0.19183736283E+03 -0.10735671450E+03 -0.39345081914E+02  0.27067827104E+03  0.15294330000E+03 0.  0.
<mgrwt>
<rscale>  0 0.54719617E+03</rscale>
<asrwt>0</asrwt>
<pdfrwt beam="1">  1        2 0.34715992E+00 0.69436103E+03</pdfrwt>
<pdfrwt beam="2">  1       -2 0.26618795E-01 0.69436103E+03</pdfrwt>
<totfact> 0.63873126E+01</totfact>
</mgrwt>
</event>
<event>
 4    1  0.3565372E-007  0.7029008E+03  0.7818608E-02  0.9985374E-01
          2   -1    0    0  501    0  0.00000000000E+00  0.00000000000E+00  0.17967549866E+04  0.17967549866E+04  0.25500000000E-02 0. -1.
         -2   -1    0    0    0  501 -0.00000000000E+00 -0.00000000000E+00 -0.62433604308E+03  0.62433604309E+03  0.25500000000E-02 0.  1.
    8880023    1    1    2    0    0 -0.24283315441E+03  0.35935109076E+02  0.16887946523E+04  0.18292339536E+04  0.65864270000E+03 0. -1.
    8880022    1    1    2    0    0  0.24283315441E+03 -0.35935109076E+02 -0.51637570878E+03  0.59185707614E+03  0.15294330000E+03 0.  0.
<mgrwt>
<rscale>  0 0.56296235E+03</rscale>
<asrwt>0</asrwt>
<pdfrwt beam="1">  1        2 0.27642384E+00 0.70290076E+03</pdfrwt>
<pdfrwt beam="2">  1       -2 0.96051701E-01 0.70290076E+03</pdfrwt>
<totfact> 0.81722066E+00</totfact>
</mgrwt>
</event>
<event>
 4    1  0.3565372E-007  0.7666164E+03  0.7818608E-02  0.9788270E-01
          2   -1    0    0  501    0  0.00000000000E+00  0.00000000000E+00  0.75464983925E+03  0.75464983926E+03  0.25500000000E-02 0. -1.
         -2   -1    0    0    0  501 -0.00000000000E+00 -0.00000000000E+00 -0.63811154199E+03  0.63811154200E+03  0.25500000000E-02 0.  1.
    8880023    1    1    2    0    0  0.37040359972E+03  0.12919648433E+03  0.41964590697E+03  0.87395849544E+03  0.65864270000E+03 0. -1.
    8880022    1    1    2    0    0 -0.37040359972E+03 -0.12919648433E+03 -0.30310760972E+03  0.51880288581E+03  0.15294330000E+03 0.  1.
<mgrwt>
<rscale>  0 0.65995867E+03</rscale>
<asrwt>0</asrwt>
<pdfrwt beam="1">  1        2 0.11609998E+00 0.76661644E+03</pdfrwt>
<pdfrwt beam="2">  1       -2 0.98171007E-01 0.76661644E+03</pdfrwt>
<totfact> 0.32492156E+01</totfact>
</mgrwt>
</event>
<event>
 4    1  0.3565372E-007  0.8515355E+03  0.7818608E-02  0.9608801E-01
         -2   -1    0    0    0  501 -0.00000000000E+00  0.00000000000E+00  0.84691632874E+03  0.84691632874E+03  0.25500000000E-02 0.  1.
          2   -1    0    0  501    0  0.00000000000E+00 -0.00000000000E+00 -0.17741515408E+04  0.17741515408E+04  0.25500000000E-02 0. -1.
    8880023    1    1    2    0    0 -0.53907449178E+03 -0.26479302783E+02 -0.15588705478E+04  0.17762854647E+04  0.65864270000E+03 0.  0.
    8880022    1    1    2    0    0  0.53907449178E+03  0.26479302783E+02  0.63163533572E+03  0.84478240483E+03  0.15294330000E+03 0.  0.
<mgrwt>
<rscale>  0 0.76716386E+03</rscale>
<asrwt>0</asrwt>
<pdfrwt beam="1">  1        2 0.27294639E+00 0.85153548E+03</pdfrwt>
<pdfrwt beam="2">  1       -2 0.13029482E+00 0.85153548E+03</pdfrwt>
<totfact> 0.39105797E+00</totfact>
</mgrwt>
</event>
<event>
 4    1  0.3565372E-007  0.1014800E+04  0.7818608E-02  0.9362446E-01
          2   -1    0    0  501    0  0.00000000000E+00  0.00000000000E+00  0.13324637287E+04  0.13324637287E+04  0.25500000000E-02 0. -1.
         -2   -1    0    0    0  501 -0.00000000000E+00 -0.00000000000E+00 -0.10380492716E+04  0.10380492716E+04  0.25500000000E-02 0.  1.
    8880023    1    1    2    0    0  0.75906995846E+03 -0.14078809156E+03  0.91643785589E+03  0.13673613416E+04  0.65864270000E+03 0.  0.
    8880022    1    1    2    0    0 -0.75906995846E+03  0.14078809156E+03 -0.62202339881E+03  0.10031516586E+04  0.15294330000E+03 0.  0.
<mgrwt>
<rscale>  0 0.95231736E+03</rscale>
<asrwt>0</asrwt>
<pdfrwt beam="1">  1        2 0.20499442E+00 0.10147998E+04</pdfrwt>
<pdfrwt beam="2">  1       -2 0.15969989E+00 0.10147998E+04</pdfrwt>
<totfact> 0.39673506E+00</totfact>
</mgrwt>
</event>
<event>
 4    1  0.3565372E-007  0.7410749E+03  0.7818608E-02  0.9856827E-01
         -2   -1    0    0    0  501 -0.00000000000E+00  0.00000000000E+00  0.15372239118E+04  0.15372239118E+04  0.25500000000E-02 0.  1.
          2   -1    0    0  501    0  0.00000000000E+00 -0.00000000000E+00 -0.72840829593E+03  0.72840829594E+03  0.25500000000E-02 0. -1.
    8880023    1    1    2    0    0  0.33275849211E+03  0.68217174957E+02 -0.50712497155E+03  0.89797981050E+03  0.65864270000E+03 0. -1.
    8880022    1    1    2    0    0 -0.33275849211E+03 -0.68217174957E+02  0.13159405875E+04  0.13676523973E+04  0.15294330000E+03 0.  0.
<mgrwt>
<rscale>  0 0.62400041E+03</rscale>
<asrwt>0</asrwt>
<pdfrwt beam="1">  1        2 0.11206282E+00 0.74107490E+03</pdfrwt>
<pdfrwt beam="2">  1       -2 0.23649598E+00 0.74107490E+03</pdfrwt>
<totfact> 0.31220243E+00</totfact>
</mgrwt>
</event>
<event>
 4    1  0.3565372E-007  0.1120818E+04  0.7818608E-02  0.9238225E-01
          2   -1    0    0  501    0  0.00000000000E+00  0.00000000000E+00  0.36438160605E+04  0.36438160605E+04  0.25500000000E-02 0. -1.
         -2   -1    0    0    0  501 -0.00000000000E+00 -0.00000000000E+00 -0.31302968045E+03  0.31302968046E+03  0.25500000000E-02 0.  1.
    8880023    1    1    2    0    0 -0.43164076601E+03  0.79756407017E+03  0.12328444195E+04  0.16661745904E+04  0.65864270000E+03 0.  1.
    8880022    1    1    2    0    0  0.43164076601E+03 -0.79756407017E+03  0.20979419606E+04  0.22906711505E+04  0.15294330000E+03 0. -1.
<mgrwt>
<rscale>  0 0.10667450E+04</rscale>
<asrwt>0</asrwt>
<pdfrwt beam="1">  1        2 0.56058710E+00 0.11208177E+04</pdfrwt>
<pdfrwt beam="2">  1       -2 0.48158411E-01 0.11208177E+04</pdfrwt>
<totfact> 0.26812981E+00</totfact>
</mgrwt>
</event>
<event>
 4    1  0.3565372E-007  0.8664586E+03  0.7818608E-02  0.9582177E-01
         -2   -1    0    0    0  501 -0.00000000000E+00  0.00000000000E+00  0.67684522708E+03  0.67684522709E+03  0.25500000000E-02 0.  1.
          2   -1    0    0  501    0  0.00000000000E+00 -0.00000000000E+00 -0.19690187590E+04  0.19690187590E+04  0.25500000000E-02 0. -1.
    8880023    1    1    2    0    0 -0.51649582085E+03 -0.22399174930E+03 -0.17176451838E+04  0.19238127301E+04  0.65864270000E+03 0. -1.
    8880022    1    1    2    0    0  0.51649582085E+03  0.22399174930E+03  0.42547165189E+03  0.72205125600E+03  0.15294330000E+03 0.  0.
<mgrwt>
<rscale>  0 0.78487172E+03</rscale>
<asrwt>0</asrwt>
<pdfrwt beam="1">  1        2 0.30292596E+00 0.86645856E+03</pdfrwt>
<pdfrwt beam="2">  1       -2 0.10413004E+00 0.86645856E+03</pdfrwt>
<totfact> 0.53028607E+00</totfact>
</mgrwt>
</event>
<event>
 4    1  0.3565372E-007  0.8592177E+03  0.7818608E-02  0.9594957E-01
          2   -1    0    0  501    0  0.00000000000E+00  0.00000000000E+00  0.28571342447E+04  0.28571342447E+04  0.25500000000E-02 0. -1.
         -2   -1    0    0    0  501 -0.00000000000E+00 -0.00000000000E+00 -0.33633127426E+03  0.33633127427E+03  0.25500000000E-02 0.  1.
    8880023    1    1    2    0    0  0.34570912743E+03 -0.43003487123E+03  0.24740344039E+04  0.26189885890E+04  0.65864270000E+03 0. -1.
    8880022    1    1    2    0    0 -0.34570912743E+03  0.43003487123E+03  0.46768566540E+02  0.57447692999E+03  0.15294330000E+03 0.  0.
<mgrwt>
<rscale>  0 0.77630888E+03</rscale>
<asrwt>0</asrwt>
<pdfrwt beam="1">  1        2 0.43955912E+00 0.85921767E+03</pdfrwt>
<pdfrwt beam="2">  1       -2 0.51743272E-01 0.85921767E+03</pdfrwt>
<totfact> 0.78346607E+00</totfact>
</mgrwt>
</event>
<event>
 4    1  0.3565372E-007  0.7112473E+03  0.7818608E-02  0.9953398E-01
         -2   -1    0    0    0  501 -0.00000000000E+00  0.00000000000E+00  0.12151821847E+03  0.12151821850E+03  0.25500000000E-02 0.  1.
          2   -1    0    0  501    0  0.00000000000E+00 -0.00000000000E+00 -0.24807083189E+04  0.24807083189E+04  0.25500000000E-02 0. -1.
    8880023    1    1    2    0    0  0.15356218113E+03  0.22018435688E+03 -0.20289183868E+04  0.21499726791E+04  0.65864270000E+03 0. -1.
    8880022    1    1    2    0    0 -0.15356218113E+03 -0.22018435688E+03 -0.33027171371E+03  0.45225385833E+03  0.15294330000E+03 0. -1.
<mgrwt>
<rscale>  0 0.57741733E+03</rscale>
<asrwt>0</asrwt>
<pdfrwt beam="1">  1        2 0.38164740E+00 0.71124729E+03</pdfrwt>
<pdfrwt beam="2">  1       -2 0.18695112E-01 0.71124729E+03</pdfrwt>
<totfact> 0.89451591E+01</totfact>
</mgrwt>
</event>
<event>
 4    1  0.3565372E-007  0.6832379E+03  0.7818608E-02  0.1007548E+00
         -2   -1    0    0    0  501 -0.00000000000E+00  0.00000000000E+00  0.51164544812E+03  0.51164544813E+03  0.25500000000E-02 0.  1.
          2   -1    0    0  501    0  0.00000000000E+00 -0.00000000000E+00 -0.93045915297E+03  0.93045915298E+03  0.25500000000E-02 0. -1.
    8880023    1    1    2    0    0  0.17919226059E+03 -0.29899987640E+02 -0.76283642502E+03  0.10240768980E+04  0.65864270000E+03 0. -1.
    8880022    1    1    2    0    0 -0.17919226059E+03  0.29899987640E+02  0.34402272017E+03  0.41802770306E+03  0.15294330000E+03 0.  0.
<mgrwt>
<rscale>  0 0.52460758E+03</rscale>
<asrwt>0</asrwt>
<pdfrwt beam="1">  1        2 0.14314756E+00 0.68323794E+03</pdfrwt>
<pdfrwt beam="2">  1       -2 0.78714684E-01 0.68323794E+03</pdfrwt>
<totfact> 0.40954494E+01</totfact>
</mgrwt>
</event>
<event>
 4    1  0.3565372E-007  0.7574584E+03  0.7818608E-02  0.9811732E-01
          2   -1    0    0  501    0  0.00000000000E+00  0.00000000000E+00  0.10159693151E+04  0.10159693151E+04  0.25500000000E-02 0. -1.
         -2   -1    0    0    0  501 -0.00000000000E+00 -0.00000000000E+00 -0.10008804080E+04  0.10008804080E+04  0.25500000000E-02 0.  1.
    8880023    1    1    2    0    0  0.16222861284E+03 -0.33706810837E+03  0.81992126685E+03  0.11162500269E+04  0.65864270000E+03 0. -1.
    8880022    1    1    2    0    0 -0.16222861284E+03  0.33706810837E+03 -0.80483235972E+03  0.90059969618E+03  0.15294330000E+03 0.  0.
<mgrwt>
<rscale>  0 0.64736702E+03</rscale>
<asrwt>0</asrwt>
<pdfrwt beam="1">  1        2 0.15630297E+00 0.75745841E+03</pdfrwt>
<pdfrwt beam="2">  1       -2 0.15398160E+00 0.75745841E+03</pdfrwt>
<totfact> 0.69976167E+00</totfact>
</mgrwt>
</event>
<event>
 4    1  0.3565372E-007  0.6817714E+03  0.7818608E-02  0.1008339E+00
          2   -1    0    0  501    0  0.00000000000E+00  0.00000000000E+00  0.91222979979E+02  0.91222980015E+02  0.25500000000E-02 0. -1.
         -2   -1    0    0    0  501 -0.00000000000E+00 -0.00000000000E+00 -0.35408289156E+04  0.35408289156E+04  0.25500000000E-02 0.  1.
    8880023    1    1    2    0    0 -0.16507829982E+03  0.61247456521E+02 -0.12826830803E+04  0.14526142594E+04  0.65864270000E+03 0. -1.
    8880022    1    1    2    0    0  0.16507829982E+03 -0.61247456521E+02 -0.21669228553E+04  0.21794376362E+04  0.15294330000E+03 0.  0.
<mgrwt>
<rscale>  0 0.52140204E+03</rscale>
<asrwt>0</asrwt>
<pdfrwt beam="1">  1        2 0.14034307E-01 0.68177144E+03</pdfrwt>
<pdfrwt beam="2">  1       -2 0.54474280E+00 0.68177144E+03</pdfrwt>
<totfact> 0.41478908E-01</totfact>
</mgrwt>
</event>
<event>
 4    1  0.3565372E-007  0.8115966E+03  0.7818608E-02  0.9686261E-01
         -2   -1    0    0    0  501 -0.00000000000E+00  0.00000000000E+00  0.29071976712E+04  0.29071976712E+04  0.25500000000E-02 0.  1.
          2   -1    0    0  501    0  0.00000000000E+00 -0.00000000000E+00 -0.22930898335E+03  0.22930898337E+03  0.25500000000E-02 0. -1.
    8880023    1    1    2    0    0  0.45823890597E+03  0.12204894607E+03  0.62595659314E+03  0.10249442438E+04  0.65864270000E+03 0.  0.
    8880022    1    1    2    0    0 -0.45823890597E+03 -0.12204894607E+03  0.20519320947E+04  0.21115624108E+04  0.15294330000E+03 0.  0.
<mgrwt>
<rscale>  0 0.71840741E+03</rscale>
<asrwt>0</asrwt>
<pdfrwt beam="1">  1        2 0.35278306E-01 0.81159660E+03</pdfrwt>
<pdfrwt beam="2">  1       -2 0.44726116E+00 0.81159660E+03</pdfrwt>
<totfact> 0.56492340E-01</totfact>
</mgrwt>
</event>
<event>
 4    1  0.3565372E-007  0.8256697E+03  0.7818608E-02  0.9657817E-01
         -2   -1    0    0    0  501 -0.00000000000E+00  0.00000000000E+00  0.32850556294E+03  0.32850556295E+03  0.25500000000E-02 0.  1.
          2   -1    0    0  501    0  0.00000000000E+00 -0.00000000000E+00 -0.14156754414E+04  0.14156754414E+04  0.25500000000E-02 0. -1.
    8880023    1    1    2    0    0  0.29639864088E+02 -0.49703286398E+03 -0.79869258392E+03  0.11487559529E+04  0.65864270000E+03 0.  1.
    8880022    1    1    2    0    0 -0.29639864088E+02  0.49703286398E+03 -0.28847729454E+03  0.59542505146E+03  0.15294330000E+03 0.  0.
<mgrwt>
<rscale>  0 0.73584838E+03</rscale>
<asrwt>0</asrwt>
<pdfrwt beam="1">  1        2 0.21779622E+00 0.82566966E+03</pdfrwt>
<pdfrwt beam="2">  1       -2 0.50539318E-01 0.82566966E+03</pdfrwt>
<totfact> 0.53154452E+01</totfact>
</mgrwt>
</event>
<event>
 4    1  0.3565372E-007  0.1326361E+04  0.7818608E-02  0.9043124E-01
         -2   -1    0    0    0  501 -0.00000000000E+00  0.00000000000E+00  0.12253839593E+04  0.12253839593E+04  0.25500000000E-02 0.  1.
          2   -1    0    0  501    0  0.00000000000E+00 -0.00000000000E+00 -0.14926982484E+04  0.14926982484E+04  0.25500000000E-02 0. -1.
    8880023    1    1    2    0    0  0.86903012080E+03  0.75512171611E+03 -0.67369947885E+03  0.14876502785E+04  0.65864270000E+03 0.  0.
    8880022    1    1    2    0    0 -0.86903012080E+03 -0.75512171611E+03  0.40638518982E+03  0.12304319292E+04  0.15294330000E+03 0.  0.
<mgrwt>
<rscale>  0 0.12830400E+04</rscale>
<asrwt>0</asrwt>
<pdfrwt beam="1">  1        2 0.22964589E+00 0.13263606E+04</pdfrwt>
<pdfrwt beam="2">  1       -2 0.18852061E+00 0.13263606E+04</pdfrwt>
<totfact> 0.19470353E+00</totfact>
</mgrwt>
</event>
<event>
 4    1  0.3565372E-007  0.6970672E+03  0.7818608E-02  0.1000959E+00
          2   -1    0    0  501    0  0.00000000000E+00  0.00000000000E+00  0.60443173712E+03  0.60443173712E+03  0.25500000000E-02 0. -1.
         -2   -1    0    0    0  501 -0.00000000000E+00 -0.00000000000E+00 -0.39486701947E+03  0.39486701947E+03  0.25500000000E-02 0.  1.
    8880023    1    1    2    0    0 -0.22368224759E+03  0.45372493975E+02  0.10310918248E+03  0.70465177277E+03  0.65864270000E+03 0.  1.
    8880022    1    1    2    0    0  0.22368224759E+03 -0.45372493975E+02  0.10645553517E+03  0.29464698383E+03  0.15294330000E+03 0.  1.
<mgrwt>
<rscale>  0 0.55231632E+03</rscale>
<asrwt>0</asrwt>
<pdfrwt beam="1">  1        2 0.92989498E-01 0.69706715E+03</pdfrwt>
<pdfrwt beam="2">  1       -2 0.60748772E-01 0.69706715E+03</pdfrwt>
<totfact> 0.12573320E+02</totfact>
</mgrwt>
</event>
<event>
 4    1  0.3565372E-007  0.9062321E+03  0.7818608E-02  0.9516100E-01
          2   -1    0    0  501    0  0.00000000000E+00  0.00000000000E+00  0.21172137531E+04  0.21172137531E+04  0.25500000000E-02 0. -1.
         -2   -1    0    0    0  501 -0.00000000000E+00 -0.00000000000E+00 -0.49836393969E+03  0.49836393970E+03  0.25500000000E-02 0.  1.
    8880023    1    1    2    0    0  0.52572553650E+02 -0.62022777574E+03  0.17413150911E+04  0.19630167650E+04  0.65864270000E+03 0.  0.
    8880022    1    1    2    0    0 -0.52572553650E+02  0.62022777574E+03 -0.12246527765E+03  0.65256092777E+03  0.15294330000E+03 0.  0.
<mgrwt>
<rscale>  0 0.83107152E+03</rscale>
<asrwt>0</asrwt>
<pdfrwt beam="1">  1        2 0.32572520E+00 0.90623207E+03</pdfrwt>
<pdfrwt beam="2">  1       -2 0.76671374E-01 0.90623207E+03</pdfrwt>
<totfact> 0.88743645E+00</totfact>
</mgrwt>
</event>
<event>
 4    1  0.3565372E-007  0.8340219E+03  0.7818608E-02  0.9641557E-01
          2   -1    0    0  501    0  0.00000000000E+00  0.00000000000E+00  0.15931419294E+04  0.15931419294E+04  0.25500000000E-02 0. -1.
         -2   -1    0    0    0  501 -0.00000000000E+00 -0.00000000000E+00 -0.49578236706E+03  0.49578236707E+03  0.25500000000E-02 0.  1.
    8880023    1    1    2    0    0 -0.45434964585E+03 -0.23526326075E+03  0.12772365898E+04  0.15254264699E+04  0.65864270000E+03 0. -1.
    8880022    1    1    2    0    0  0.45434964585E+03  0.23526326075E+03 -0.17987702743E+03  0.56349782657E+03  0.15294330000E+03 0.  0.
<mgrwt>
<rscale>  0 0.74605674E+03</rscale>
<asrwt>0</asrwt>
<pdfrwt beam="1">  1        2 0.24509876E+00 0.83402195E+03</pdfrwt>
<pdfrwt beam="2">  1       -2 0.76274211E-01 0.83402195E+03</pdfrwt>
<totfact> 0.17573132E+01</totfact>
</mgrwt>
</event>
<event>
 4    1  0.3565372E-007  0.6624601E+03  0.7818608E-02  0.1021766E+00
          2   -1    0    0  501    0  0.00000000000E+00  0.00000000000E+00  0.10220379440E+04  0.10220379440E+04  0.25500000000E-02 0. -1.
         -2   -1    0    0    0  501 -0.00000000000E+00 -0.00000000000E+00 -0.17422280201E+03  0.17422280202E+03  0.25500000000E-02 0.  1.
    8880023    1    1    2    0    0 -0.24980439854E+02 -0.66477075782E+02  0.75253379845E+03  0.10025769537E+04  0.65864270000E+03 0. -1.
    8880022    1    1    2    0    0  0.24980439854E+02  0.66477075782E+02  0.95281343568E+02  0.19368379237E+03  0.15294330000E+03 0.  0.
<mgrwt>
<rscale>  0 0.47054507E+03</rscale>
<asrwt>0</asrwt>
<pdfrwt beam="1">  1        2 0.15723661E+00 0.66246013E+03</pdfrwt>
<pdfrwt beam="2">  1       -2 0.26803508E-01 0.66246013E+03</pdfrwt>
<totfact> 0.31173108E+02</totfact>
</mgrwt>
</event>
<event>
 4    1  0.3565372E-007  0.6684823E+03  0.7818608E-02  0.1016775E+00
          2   -1    0    0  501    0  0.00000000000E+00  0.00000000000E+00  0.85566851984E+03  0.85566851985E+03  0.25500000000E-02 0. -1.
         -2   -1    0    0    0  501 -0.00000000000E+00 -0.00000000000E+00 -0.21881359391E+03  0.21881359392E+03  0.25500000000E-02 0.  1.
    8880023    1    1    2    0    0  0.10354657267E+03 -0.48336729957E+02  0.54561692124E+03  0.86288258945E+03  0.65864270000E+03 0.  0.
    8880022    1    1    2    0    0 -0.10354657267E+03  0.48336729957E+02  0.91238004695E+02  0.21159952431E+03  0.15294330000E+03 0.  0.
<mgrwt>
<rscale>  0 0.48868565E+03</rscale>
<asrwt>0</asrwt>
<pdfrwt beam="1">  1        2 0.13164131E+00 0.66848226E+03</pdfrwt>
<pdfrwt beam="2">  1       -2 0.33663630E-01 0.66848226E+03</pdfrwt>
<totfact> 0.26270823E+02</totfact>
</mgrwt>
</event>
<event>
 4    1  0.3565372E-007  0.7829837E+03  0.7818608E-02  0.9748874E-01
         -2   -1    0    0    0  501 -0.00000000000E+00  0.00000000000E+00  0.84423621040E+03  0.84423621040E+03  0.25500000000E-02 0.  1.
          2   -1    0    0  501    0  0.00000000000E+00 -0.00000000000E+00 -0.14040107554E+04  0.14040107554E+04  0.25500000000E-02 0. -1.
    8880023    1    1    2    0    0 -0.18064995596E+03  0.38290839922E+03 -0.12197097016E+04  0.14493982238E+04  0.65864270000E+03 0. -1.
    8880022    1    1    2    0    0  0.18064995596E+03 -0.38290839922E+03  0.65993515655E+03  0.79884874203E+03  0.15294330000E+03 0.  0.
<mgrwt>
<rscale>  0 0.68179921E+03</rscale>
<asrwt>0</asrwt>
<pdfrwt beam="1">  1        2 0.21600166E+00 0.78298369E+03</pdfrwt>
<pdfrwt beam="2">  1       -2 0.12988249E+00 0.78298369E+03</pdfrwt>
<totfact> 0.63846480E+00</totfact>
</mgrwt>
</event>
<event>
 4    1  0.3565372E-007  0.1010545E+04  0.7818608E-02  0.9367890E-01
         -2   -1    0    0    0  501 -0.00000000000E+00  0.00000000000E+00  0.74540034070E+03  0.74540034070E+03  0.25500000000E-02 0.  1.
          2   -1    0    0  501    0  0.00000000000E+00 -0.00000000000E+00 -0.19572588037E+04  0.19572588037E+04  0.25500000000E-02 0. -1.
    8880023    1    1    2    0    0 -0.67531722945E+03 -0.36240528953E+03 -0.15506423483E+04  0.18508627320E+04  0.65864270000E+03 0.  0.
    8880022    1    1    2    0    0  0.67531722945E+03  0.36240528953E+03  0.33878388524E+03  0.85179641241E+03  0.15294330000E+03 0.  0.
<mgrwt>
<rscale>  0 0.94766004E+03</rscale>
<asrwt>0</asrwt>
<pdfrwt beam="1">  1        2 0.30111674E+00 0.10105450E+04</pdfrwt>
<pdfrwt beam="2">  1       -2 0.11467698E+00 0.10105450E+04</pdfrwt>
<totfact> 0.41796843E+00</totfact>
</mgrwt>
</event>
<event>
 4    1  0.3565372E-007  0.1011354E+04  0.7818608E-02  0.9366852E-01
          2   -1    0    0  501    0  0.00000000000E+00  0.00000000000E+00  0.32342933481E+04  0.32342933481E+04  0.25500000000E-02 0. -1.
         -2   -1    0    0    0  501 -0.00000000000E+00 -0.00000000000E+00 -0.39626317183E+03  0.39626317184E+03  0.25500000000E-02 0.  1.
    8880023    1    1    2    0    0 -0.70963329645E+03 -0.29231317503E+03  0.43074152483E+03  0.10992610587E+04  0.65864270000E+03 0.  1.
    8880022    1    1    2    0    0  0.70963329645E+03  0.29231317503E+03  0.24072886515E+04  0.25312954613E+04  0.15294330000E+03 0.  0.
<mgrwt>
<rscale>  0 0.94854589E+03</rscale>
<asrwt>0</asrwt>
<pdfrwt beam="1">  1        2 0.49758361E+00 0.10113539E+04</pdfrwt>
<pdfrwt beam="2">  1       -2 0.60963563E-01 0.10113539E+04</pdfrwt>
<totfact> 0.31665686E+00</totfact>
</mgrwt>
</event>
<event>
 4    1  0.3565372E-007  0.8316538E+03  0.7818608E-02  0.9646123E-01
         -2   -1    0    0    0  501 -0.00000000000E+00  0.00000000000E+00  0.31224649879E+03  0.31224649880E+03  0.25500000000E-02 0.  1.
          2   -1    0    0  501    0  0.00000000000E+00 -0.00000000000E+00 -0.15275512301E+04  0.15275512301E+04  0.25500000000E-02 0. -1.
    8880023    1    1    2    0    0  0.49887457416E+03  0.94667740075E+02 -0.88791521285E+03  0.12165695431E+04  0.65864270000E+03 0.  0.
    8880022    1    1    2    0    0 -0.49887457416E+03 -0.94667740075E+02 -0.32738951848E+03  0.62322818580E+03  0.15294330000E+03 0. -1.
<mgrwt>
<rscale>  0 0.74317233E+03</rscale>
<asrwt>0</asrwt>
<pdfrwt beam="1">  1        2 0.23500788E+00 0.83165379E+03</pdfrwt>
<pdfrwt beam="2">  1       -2 0.48037924E-01 0.83165379E+03</pdfrwt>
<totfact> 0.50972310E+01</totfact>
</mgrwt>
</event>
<event>
 4    1  0.3565372E-007  0.7158630E+03  0.7818608E-02  0.9936841E-01
          2   -1    0    0  501    0  0.00000000000E+00  0.00000000000E+00  0.11409500096E+04  0.11409500096E+04  0.25500000000E-02 0. -1.
         -2   -1    0    0    0  501 -0.00000000000E+00 -0.00000000000E+00 -0.99743143611E+03  0.99743143611E+03  0.25500000000E-02 0.  1.
    8880023    1    1    2    0    0  0.27828093744E+03  0.34775474014E+02  0.99682632169E+03  0.12272418407E+04  0.65864270000E+03 0. -1.
    8880022    1    1    2    0    0 -0.27828093744E+03 -0.34775474014E+02 -0.85330774817E+03  0.91113960502E+03  0.15294330000E+03 0.  0.
<mgrwt>
<rscale>  0 0.58508560E+03</rscale>
<asrwt>0</asrwt>
<pdfrwt beam="1">  1        2 0.17553077E+00 0.71586299E+03</pdfrwt>
<pdfrwt beam="2">  1       -2 0.15345099E+00 0.71586299E+03</pdfrwt>
<totfact> 0.59464135E+00</totfact>
</mgrwt>
</event>
<event>
 4    1  0.3565372E-007  0.7188469E+03  0.7818608E-02  0.9926507E-01
         -2   -1    0    0    0  501 -0.00000000000E+00  0.00000000000E+00  0.13391452207E+03  0.13391452210E+03  0.25500000000E-02 0.  1.
          2   -1    0    0  501    0  0.00000000000E+00 -0.00000000000E+00 -0.29239840331E+04  0.29239840331E+04  0.25500000000E-02 0. -1.
    8880023    1    1    2    0    0 -0.10897954086E+02  0.28777057780E+03 -0.25595348055E+04  0.26585633898E+04  0.65864270000E+03 0. -1.
    8880022    1    1    2    0    0  0.10897954086E+02 -0.28777057780E+03 -0.23053470556E+03  0.39933516541E+03  0.15294330000E+03 0.  0.
<mgrwt>
<rscale>  0 0.58993663E+03</rscale>
<asrwt>0</asrwt>
<pdfrwt beam="1">  1        2 0.44984365E+00 0.71884691E+03</pdfrwt>
<pdfrwt beam="2">  1       -2 0.20602236E-01 0.71884691E+03</pdfrwt>
<totfact> 0.41630440E+01</totfact>
</mgrwt>
</event>
<event>
 4    1  0.3565372E-007  0.7881916E+03  0.7818608E-02  0.9736935E-01
          2   -1    0    0  501    0  0.00000000000E+00  0.00000000000E+00  0.28900926011E+04  0.28900926011E+04  0.25500000000E-02 0. -1.
         -2   -1    0    0    0  501 -0.00000000000E+00 -0.00000000000E+00 -0.28585511340E+03  0.28585511341E+03  0.25500000000E-02 0.  1.
    8880023    1    1    2    0    0 -0.43264579754E+03  0.15918589625E+02  0.25999196009E+04  0.27167679188E+04  0.65864270000E+03 0. -1.
    8880022    1    1    2    0    0  0.43264579754E+03 -0.15918589625E+02  0.43178868747E+01  0.45917979570E+03  0.15294330000E+03 0.  0.
<mgrwt>
<rscale>  0 0.68859639E+03</rscale>
<asrwt>0</asrwt>
<pdfrwt beam="1">  1        2 0.44462961E+00 0.78819160E+03</pdfrwt>
<pdfrwt beam="2">  1       -2 0.43977712E-01 0.78819160E+03</pdfrwt>
<totfact> 0.10517146E+01</totfact>
</mgrwt>
</event>
<event>
 4    1  0.3565372E-007  0.7801279E+03  0.7818608E-02  0.9755537E-01
          2   -1    0    0  501    0  0.00000000000E+00  0.00000000000E+00  0.60482713510E+03  0.60482713511E+03  0.25500000000E-02 0. -1.
         -2   -1    0    0    0  501 -0.00000000000E+00 -0.00000000000E+00 -0.73031883008E+03  0.73031883009E+03  0.25500000000E-02 0.  1.
    8880023    1    1    2    0    0 -0.41513836015E+03 -0.49491772624E+02  0.17310697715E+03  0.79910295046E+03  0.65864270000E+03 0.  0.
    8880022    1    1    2    0    0  0.41513836015E+03  0.49491772624E+02 -0.29859867214E+03  0.53604301473E+03  0.15294330000E+03 0. -1.
<mgrwt>
<rscale>  0 0.67804276E+03</rscale>
<asrwt>0</asrwt>
<pdfrwt beam="1">  1        2 0.93050328E-01 0.78012787E+03</pdfrwt>
<pdfrwt beam="2">  1       -2 0.11235674E+00 0.78012787E+03</pdfrwt>
<totfact> 0.30968914E+01</totfact>
</mgrwt>
</event>
<event>
 4    1  0.3565372E-007  0.7105046E+03  0.7818608E-02  0.9956132E-01
          2   -1    0    0  501    0  0.00000000000E+00  0.00000000000E+00  0.12083007178E+04  0.12083007178E+04  0.25500000000E-02 0. -1.
         -2   -1    0    0    0  501 -0.00000000000E+00 -0.00000000000E+00 -0.11824660561E+04  0.11824660561E+04  0.25500000000E-02 0.  1.
    8880023    1    1    2    0    0  0.26151655145E+03 -0.51143397518E+02  0.10799913794E+04  0.12927482894E+04  0.65864270000E+03 0. -1.
    8880022    1    1    2    0    0 -0.26151655145E+03  0.51143397518E+02 -0.10541567177E+04  0.10980184845E+04  0.15294330000E+03 0.  0.
<mgrwt>
<rscale>  0 0.57616335E+03</rscale>
<asrwt>0</asrwt>
<pdfrwt beam="1">  1        2 0.18589242E+00 0.71050458E+03</pdfrwt>
<pdfrwt beam="2">  1       -2 0.18191786E+00 0.71050458E+03</pdfrwt>
<totfact> 0.33956880E+00</totfact>
</mgrwt>
</event>
<event>
 4    1  0.3565372E-007  0.9038745E+03  0.7818608E-02  0.9519840E-01
         -2   -1    0    0    0  501 -0.00000000000E+00  0.00000000000E+00  0.17213529252E+04  0.17213529252E+04  0.25500000000E-02 0.  1.
          2   -1    0    0  501    0  0.00000000000E+00 -0.00000000000E+00 -0.45741964137E+03  0.45741964138E+03  0.25500000000E-02 0. -1.
    8880023    1    1    2    0    0 -0.38181849392E+03  0.48723042816E+03  0.18063089277E+03  0.92174648256E+03  0.65864270000E+03 0. -1.
    8880022    1    1    2    0    0  0.38181849392E+03 -0.48723042816E+03  0.10833023910E+04  0.12570260840E+04  0.15294330000E+03 0.  0.
<mgrwt>
<rscale>  0 0.82836754E+03</rscale>
<asrwt>0</asrwt>
<pdfrwt beam="1">  1        2 0.70372250E-01 0.90387447E+03</pdfrwt>
<pdfrwt beam="2">  1       -2 0.26482354E+00 0.90387447E+03</pdfrwt>
<totfact> 0.36037419E+00</totfact>
</mgrwt>
</event>
<event>
 4    1  0.3565372E-007  0.7115012E+03  0.7818608E-02  0.9952468E-01
          2   -1    0    0  501    0  0.00000000000E+00  0.00000000000E+00  0.10764692421E+04  0.10764692421E+04  0.25500000000E-02 0. -1.
         -2   -1    0    0    0  501 -0.00000000000E+00 -0.00000000000E+00 -0.56306169339E+03  0.56306169340E+03  0.25500000000E-02 0.  1.
    8880023    1    1    2    0    0  0.21757231534E+03 -0.15838579005E+03  0.89808949731E+03  0.11457742894E+04  0.65864270000E+03 0. -1.
    8880022    1    1    2    0    0 -0.21757231534E+03  0.15838579005E+03 -0.38468194862E+03  0.49375664604E+03  0.15294330000E+03 0.  0.
<mgrwt>
<rscale>  0 0.57784474E+03</rscale>
<asrwt>0</asrwt>
<pdfrwt beam="1">  1        2 0.16561065E+00 0.71150121E+03</pdfrwt>
<pdfrwt beam="2">  1       -2 0.86624876E-01 0.71150121E+03</pdfrwt>
<totfact> 0.26551997E+01</totfact>
</mgrwt>
</event>
<event>
 4    1  0.3565372E-007  0.9202523E+03  0.7818608E-02  0.9494272E-01
         -2   -1    0    0    0  501 -0.00000000000E+00  0.00000000000E+00  0.55835721738E+03  0.55835721739E+03  0.25500000000E-02 0.  1.
          2   -1    0    0  501    0  0.00000000000E+00 -0.00000000000E+00 -0.21081993371E+04  0.21081993371E+04  0.25500000000E-02 0. -1.
    8880023    1    1    2    0    0 -0.42483529997E+03  0.48225408441E+03 -0.17491903631E+04  0.19764946665E+04  0.65864270000E+03 0. -1.
    8880022    1    1    2    0    0  0.42483529997E+03 -0.48225408441E+03  0.19934824343E+03  0.69006188796E+03  0.15294330000E+03 0.  0.
<mgrwt>
<rscale>  0 0.84707419E+03</rscale>
<asrwt>0</asrwt>
<pdfrwt beam="1">  1        2 0.32433836E+00 0.92025227E+03</pdfrwt>
<pdfrwt beam="2">  1       -2 0.85901111E-01 0.92025227E+03</pdfrwt>
<totfact> 0.69291669E+00</totfact>
</mgrwt>
</event>
<event>
 4    1  0.3565372E-007  0.1007702E+04  0.7818608E-02  0.9371550E-01
          2   -1    0    0  501    0  0.00000000000E+00  0.00000000000E+00  0.19537001303E+04  0.19537001303E+04  0.25500000000E-02 0. -1.
         -2   -1    0    0    0  501 -0.00000000000E+00 -0.00000000000E+00 -0.50795739416E+03  0.50795739417E+03  0.25500000000E-02 0.  1.
    8880023    1    1    2    0    0  0.73008523793E+03  0.22051756031E+03  0.13400522590E+04  0.16766641620E+04  0.65864270000E+03 0. -1.
    8880022    1    1    2    0    0 -0.73008523793E+03 -0.22051756031E+03  0.10569047706E+03  0.78499336239E+03  0.15294330000E+03 0.  0.
<mgrwt>
<rscale>  0 0.94454437E+03</rscale>
<asrwt>0</asrwt>
<pdfrwt beam="1">  1        2 0.30056925E+00 0.10077017E+04</pdfrwt>
<pdfrwt beam="2">  1       -2 0.78147292E-01 0.10077017E+04</pdfrwt>
<totfact> 0.10337859E+01</totfact>
</mgrwt>
</event>
<event>
 4    1  0.3565372E-007  0.9630716E+03  0.7818608E-02  0.9431551E-01
          2   -1    0    0  501    0  0.00000000000E+00  0.00000000000E+00  0.34891839334E+04  0.34891839334E+04  0.25500000000E-02 0. -1.
         -2   -1    0    0    0  501 -0.00000000000E+00 -0.00000000000E+00 -0.48568491955E+03  0.48568491956E+03  0.25500000000E-02 0.  1.
    8880023    1    1    2    0    0  0.35976017015E+03  0.60354728868E+03  0.31029187042E+04  0.32489400427E+04  0.65864270000E+03 0. -1.
    8880022    1    1    2    0    0 -0.35976017015E+03 -0.60354728868E+03 -0.99419690397E+02  0.72592881025E+03  0.15294330000E+03 0.  0.
<mgrwt>
<rscale>  0 0.89524010E+03</rscale>
<asrwt>0</asrwt>
<pdfrwt beam="1">  1        2 0.53679752E+00 0.96307160E+03</pdfrwt>
<pdfrwt beam="2">  1       -2 0.74720759E-01 0.96307160E+03</pdfrwt>
<totfact> 0.13879005E+00</totfact>
</mgrwt>
</event>
<event>
 4    1  0.3565372E-007  0.7885711E+03  0.7818608E-02  0.9736075E-01
          2   -1    0    0  501    0  0.00000000000E+00  0.00000000000E+00  0.34174904957E+04  0.34174904957E+04  0.25500000000E-02 0. -1.
         -2   -1    0    0    0  501 -0.00000000000E+00 -0.00000000000E+00 -0.15027641276E+03  0.15027641278E+03  0.25500000000E-02 0.  1.
    8880023    1    1    2    0    0 -0.42120214118E+03 -0.10306734617E+03  0.28130056474E+04  0.29214457209E+04  0.65864270000E+03 0.  1.
    8880022    1    1    2    0    0  0.42120214118E+03  0.10306734617E+03  0.45420843549E+03  0.64632118754E+03  0.15294330000E+03 0.  1.
<mgrwt>
<rscale>  0 0.68908908E+03</rscale>
<asrwt>0</asrwt>
<pdfrwt beam="1">  1        2 0.52576770E+00 0.78857107E+03</pdfrwt>
<pdfrwt beam="2">  1       -2 0.23119451E-01 0.78857107E+03</pdfrwt>
<totfact> 0.16334006E+01</totfact>
</mgrwt>
</event>
<event>
 4    1  0.3565372E-007  0.1059036E+04  0.7818608E-02  0.9308098E-01
         -2   -1    0    0    0  501 -0.00000000000E+00  0.00000000000E+00  0.96421525308E+03  0.96421525309E+03  0.25500000000E-02 0.  1.
          2   -1    0    0  501    0  0.00000000000E+00 -0.00000000000E+00 -0.19574523856E+04  0.19574523856E+04  0.25500000000E-02 0. -1.
    8880023    1    1    2    0    0 -0.75544900180E+03 -0.34211519559E+03 -0.15744514660E+04  0.18974861334E+04  0.65864270000E+03 0.  0.
    8880022    1    1    2    0    0  0.75544900180E+03  0.34211519559E+03  0.58121433346E+03  0.10241815053E+04  0.15294330000E+03 0.  0.
<mgrwt>
<rscale>  0 0.10004079E+04</rscale>
<asrwt>0</asrwt>
<pdfrwt beam="1">  1        2 0.30114652E+00 0.10590355E+04</pdfrwt>
<pdfrwt beam="2">  1       -2 0.14834081E+00 0.10590355E+04</pdfrwt>
<totfact> 0.21543847E+00</totfact>
</mgrwt>
</event>
<event>
 4    1  0.3565372E-007  0.7041619E+03  0.7818608E-02  0.9980355E-01
         -2   -1    0    0    0  501 -0.00000000000E+00  0.00000000000E+00  0.16830375100E+03  0.16830375101E+03  0.25500000000E-02 0.  1.
          2   -1    0    0  501    0  0.00000000000E+00 -0.00000000000E+00 -0.24198535482E+04  0.24198535482E+04  0.25500000000E-02 0. -1.
    8880023    1    1    2    0    0 -0.15949792558E+03  0.19129593459E+03 -0.21748217581E+04  0.22859776046E+04  0.65864270000E+03 0. -1.
    8880022    1    1    2    0    0  0.15949792558E+03 -0.19129593459E+03 -0.76728039106E+02  0.30217969464E+03  0.15294330000E+03 0.  0.
<mgrwt>
<rscale>  0 0.56520076E+03</rscale>
<asrwt>0</asrwt>
<pdfrwt beam="1">  1        2 0.37228514E+00 0.70416186E+03</pdfrwt>
<pdfrwt beam="2">  1       -2 0.25892887E-01 0.70416186E+03</pdfrwt>
<totfact> 0.54410763E+01</totfact>
</mgrwt>
</event>
<event>
 4    1  0.3565372E-007  0.6708739E+03  0.7818608E-02  0.1015044E+00
          2   -1    0    0  501    0  0.00000000000E+00  0.00000000000E+00  0.14076046236E+04  0.14076046236E+04  0.25500000000E-02 0. -1.
         -2   -1    0    0    0  501 -0.00000000000E+00 -0.00000000000E+00 -0.59466968839E+03  0.59466968840E+03  0.25500000000E-02 0.  1.
    8880023    1    1    2    0    0  0.12487789266E+03  0.25827250252E+02  0.13072568328E+04  0.14693509343E+04  0.65864270000E+03 0. -1.
    8880022    1    1    2    0    0 -0.12487789266E+03 -0.25827250252E+02 -0.49432189766E+03  0.53292337765E+03  0.15294330000E+03 0.  0.
<mgrwt>
<rscale>  0 0.49518265E+03</rscale>
<asrwt>0</asrwt>
<pdfrwt beam="1">  1        2 0.21655455E+00 0.67087386E+03</pdfrwt>
<pdfrwt beam="2">  1       -2 0.91487646E-01 0.67087386E+03</pdfrwt>
<totfact> 0.15063637E+01</totfact>
</mgrwt>
</event>
<event>
 4    1  0.3565372E-007  0.9033445E+03  0.7818608E-02  0.9520684E-01
          2   -1    0    0  501    0  0.00000000000E+00  0.00000000000E+00  0.23821279829E+04  0.23821279829E+04  0.25500000000E-02 0. -1.
         -2   -1    0    0    0  501 -0.00000000000E+00 -0.00000000000E+00 -0.44324932547E+03  0.44324932548E+03  0.25500000000E-02 0.  1.
    8880023    1    1    2    0    0  0.50096254541E+03  0.36229499228E+03  0.19910241043E+04  0.21863687529E+04  0.65864270000E+03 0. -1.
    8880022    1    1    2    0    0 -0.50096254541E+03 -0.36229499228E+03 -0.52145446896E+02  0.63900855549E+03  0.15294330000E+03 0.  0.
<mgrwt>
<rscale>  0 0.82775920E+03</rscale>
<asrwt>0</asrwt>
<pdfrwt beam="1">  1        2 0.36648123E+00 0.90334453E+03</pdfrwt>
<pdfrwt beam="2">  1       -2 0.68192203E-01 0.90334453E+03</pdfrwt>
<totfact> 0.81849522E+00</totfact>
</mgrwt>
</event>
<event>
 4    1  0.3565372E-007  0.8508355E+03  0.7818608E-02  0.9610078E-01
         -2   -1    0    0    0  501 -0.00000000000E+00  0.00000000000E+00  0.76769259080E+03  0.76769259080E+03  0.25500000000E-02 0.  1.
          2   -1    0    0  501    0  0.00000000000E+00 -0.00000000000E+00 -0.13098227828E+04  0.13098227828E+04  0.25500000000E-02 0. -1.
    8880023    1    1    2    0    0  0.35472935063E+03 -0.40531218594E+03 -0.10292293045E+04  0.13353778671E+04  0.65864270000E+03 0. -1.
    8880022    1    1    2    0    0 -0.35472935063E+03  0.40531218594E+03  0.48709911249E+03  0.74213750658E+03  0.15294330000E+03 0.  1.
<mgrwt>
<rscale>  0 0.76632738E+03</rscale>
<asrwt>0</asrwt>
<pdfrwt beam="1">  1        2 0.20151120E+00 0.85083552E+03</pdfrwt>
<pdfrwt beam="2">  1       -2 0.11810655E+00 0.85083552E+03</pdfrwt>
<totfact> 0.90921786E+00</totfact>
</mgrwt>
</event>
<event>
 4    1  0.3565372E-007  0.1134253E+04  0.7818608E-02  0.9223845E-01
          2   -1    0    0  501    0  0.00000000000E+00  0.00000000000E+00  0.76070870313E+03  0.76070870313E+03  0.25500000000E-02 0. -1.
         -2   -1    0    0    0  501 -0.00000000000E+00 -0.00000000000E+00 -0.37894830749E+04  0.37894830749E+04  0.25500000000E-02 0.  1.
    8880023    1    1    2    0    0  0.14904831727E+03  0.91132009340E+03 -0.33685774759E+04  0.35544119248E+04  0.65864270000E+03 0.  1.
    8880022    1    1    2    0    0 -0.14904831727E+03 -0.91132009340E+03  0.33980310415E+03  0.99577985325E+03  0.15294330000E+03 0.  0.
<mgrwt>
<rscale>  0 0.10810664E+04</rscale>
<asrwt>0</asrwt>
<pdfrwt beam="1">  1        2 0.11703211E+00 0.11342530E+04</pdfrwt>
<pdfrwt beam="2">  1       -2 0.58299739E+00 0.11342530E+04</pdfrwt>
<totfact> 0.21176857E-02</totfact>
</mgrwt>
</event>
<event>
 4    1  0.3565372E-007  0.1279222E+04  0.7818608E-02  0.9083714E-01
         -2   -1    0    0    0  501 -0.00000000000E+00  0.00000000000E+00  0.22341847078E+04  0.22341847078E+04  0.25500000000E-02 0.  1.
          2   -1    0    0  501    0  0.00000000000E+00 -0.00000000000E+00 -0.97897219679E+03  0.97897219680E+03  0.25500000000E-02 0. -1.
    8880023    1    1    2    0    0  0.10861530954E+04 -0.15123102276E+03  0.16045880469E+04  0.20520995043E+04  0.65864270000E+03 0.  0.
    8880022    1    1    2    0    0 -0.10861530954E+04  0.15123102276E+03 -0.34937553586E+03  0.11610574004E+04  0.15294330000E+03 0.  0.
<mgrwt>
<rscale>  0 0.12338729E+04</rscale>
<asrwt>0</asrwt>
<pdfrwt beam="1">  1        2 0.15061111E+00 0.12792223E+04</pdfrwt>
<pdfrwt beam="2">  1       -2 0.34372072E+00 0.12792223E+04</pdfrwt>
<totfact> 0.43082376E-01</totfact>
</mgrwt>
</event>
<event>
 4    1  0.3565372E-007  0.8402885E+03  0.7818608E-02  0.9629636E-01
          2   -1    0    0  501    0  0.00000000000E+00  0.00000000000E+00  0.92401758836E+03  0.92401758836E+03  0.25500000000E-02 0. -1.
         -2   -1    0    0    0  501 -0.00000000000E+00 -0.00000000000E+00 -0.10468884919E+04  0.10468884920E+04  0.25500000000E-02 0.  1.
    8880023    1    1    2    0    0 -0.15927960923E+03  0.49689495091E+03  0.62430064976E+03  0.10468219016E+04  0.65864270000E+03 0.  0.
    8880022    1    1    2    0    0  0.15927960923E+03 -0.49689495091E+03 -0.74717155335E+03  0.92408417869E+03  0.15294330000E+03 0.  0.
<mgrwt>
<rscale>  0 0.75365318E+03</rscale>
<asrwt>0</asrwt>
<pdfrwt beam="1">  1        2 0.14215655E+00 0.84028852E+03</pdfrwt>
<pdfrwt beam="2">  1       -2 0.16105977E+00 0.84028852E+03</pdfrwt>
<totfact> 0.70419492E+00</totfact>
</mgrwt>
</event>
<event>
 4    1  0.3565372E-007  0.7006854E+03  0.7818608E-02  0.9994370E-01
          2   -1    0    0  501    0  0.00000000000E+00  0.00000000000E+00  0.27654644639E+04  0.27654644639E+04  0.25500000000E-02 0. -1.
         -2   -1    0    0    0  501 -0.00000000000E+00 -0.00000000000E+00 -0.16036169090E+03  0.16036169092E+03  0.25500000000E-02 0.  1.
    8880023    1    1    2    0    0 -0.23178699011E+03 -0.58520239793E+02  0.25397061022E+04  0.26345905031E+04  0.65864270000E+03 0. -1.
    8880022    1    1    2    0    0  0.23178699011E+03  0.58520239793E+02  0.65396670771E+02  0.29123565169E+03  0.15294330000E+03 0.  0.
<mgrwt>
<rscale>  0 0.55897805E+03</rscale>
<asrwt>0</asrwt>
<pdfrwt beam="1">  1        2 0.42545606E+00 0.70068540E+03</pdfrwt>
<pdfrwt beam="2">  1       -2 0.24671030E-01 0.70068540E+03</pdfrwt>
<totfact> 0.37654785E+01</totfact>
</mgrwt>
</event>
<event>
 4    1  0.3565372E-007  0.7444858E+03  0.7818608E-02  0.9847068E-01
          2   -1    0    0  501    0  0.00000000000E+00  0.00000000000E+00  0.22143507472E+04  0.22143507472E+04  0.25500000000E-02 0. -1.
         -2   -1    0    0    0  501 -0.00000000000E+00 -0.00000000000E+00 -0.15095682050E+04  0.15095682050E+04  0.25500000000E-02 0.  1.
    8880023    1    1    2    0    0  0.25763987784E+03 -0.23253073371E+03 -0.13997846414E+04  0.15854513859E+04  0.65864270000E+03 0.  1.
    8880022    1    1    2    0    0 -0.25763987784E+03  0.23253073371E+03  0.21045671836E+04  0.21384675663E+04  0.15294330000E+03 0.  0.
<mgrwt>
<rscale>  0 0.62896640E+03</rscale>
<asrwt>0</asrwt>
<pdfrwt beam="1">  1        2 0.34066934E+00 0.74448577E+03</pdfrwt>
<pdfrwt beam="2">  1       -2 0.23224126E+00 0.74448577E+03</pdfrwt>
<totfact> 0.44355812E-01</totfact>
</mgrwt>
</event>
<event>
 4    1  0.3565372E-007  0.8282541E+03  0.7818608E-02  0.9652739E-01
          2   -1    0    0  501    0  0.00000000000E+00  0.00000000000E+00  0.86774740277E+03  0.86774740277E+03  0.25500000000E-02 0. -1.
         -2   -1    0    0    0  501 -0.00000000000E+00 -0.00000000000E+00 -0.92526004267E+03  0.92526004267E+03  0.25500000000E-02 0.  1.
    8880023    1    1    2    0    0  0.40905301822E+03  0.29132496592E+03  0.54683898196E+03  0.99249064778E+03  0.65864270000E+03 0. -1.
    8880022    1    1    2    0    0 -0.40905301822E+03 -0.29132496592E+03 -0.60435162185E+03  0.80051679766E+03  0.15294330000E+03 0.  0.
<mgrwt>
<rscale>  0 0.73901777E+03</rscale>
<asrwt>0</asrwt>
<pdfrwt beam="1">  1        2 0.13349960E+00 0.82825408E+03</pdfrwt>
<pdfrwt beam="2">  1       -2 0.14234770E+00 0.82825408E+03</pdfrwt>
<totfact> 0.10693080E+01</totfact>
</mgrwt>
</event>
<event>
 4    1  0.3565372E-007  0.6591919E+03  0.7818608E-02  0.1025000E+00
          2   -1    0    0  501    0  0.00000000000E+00  0.00000000000E+00  0.11110102945E+04  0.11110102945E+04  0.25500000000E-02 0. -1.
         -2   -1    0    0    0  501 -0.00000000000E+00 -0.00000000000E+00 -0.60679200311E+03  0.60679200311E+03  0.25500000000E-02 0.  1.
    8880023    1    1    2    0    0  0.49939266724E+01 -0.26436088757E+02  0.10003065781E+04  0.11979763197E+04  0.65864270000E+03 0. -1.
    8880022    1    1    2    0    0 -0.49939266724E+01  0.26436088757E+02 -0.49608828671E+03  0.51982597792E+03  0.15294330000E+03 0.  0.
<mgrwt>
<rscale>  0 0.45924650E+03</rscale>
<asrwt>0</asrwt>
<pdfrwt beam="1">  1        2 0.17092466E+00 0.65919194E+03</pdfrwt>
<pdfrwt beam="2">  1       -2 0.93352618E-01 0.65919194E+03</pdfrwt>
<totfact> 0.21416539E+01</totfact>
</mgrwt>
</event>
<event>
 4    1  0.3565372E-007  0.8143952E+03  0.7818608E-02  0.9680494E-01
          2   -1    0    0  501    0  0.00000000000E+00  0.00000000000E+00  0.26953795914E+04  0.26953795914E+04  0.25500000000E-02 0. -1.
         -2   -1    0    0    0  501 -0.00000000000E+00 -0.00000000000E+00 -0.35872526536E+03  0.35872526536E+03  0.25500000000E-02 0.  1.
    8880023    1    1    2    0    0  0.46283975398E+03 -0.12332330922E+03  0.24119090780E+04  0.25456914352E+04  0.65864270000E+03 0. -1.
    8880022    1    1    2    0    0 -0.46283975398E+03  0.12332330922E+03 -0.75254752007E+02  0.50841342151E+03  0.15294330000E+03 0.  0.
<mgrwt>
<rscale>  0 0.72190162E+03</rscale>
<asrwt>0</asrwt>
<pdfrwt beam="1">  1        2 0.41467377E+00 0.81439516E+03</pdfrwt>
<pdfrwt beam="2">  1       -2 0.55188505E-01 0.81439516E+03</pdfrwt>
<totfact> 0.86070652E+00</totfact>
</mgrwt>
</event>
<event>
 4    1  0.3565372E-007  0.6859695E+03  0.7818608E-02  0.1006130E+00
          2   -1    0    0  501    0  0.00000000000E+00  0.00000000000E+00  0.13505088120E+04  0.13505088120E+04  0.25500000000E-02 0. -1.
         -2   -1    0    0    0  501 -0.00000000000E+00 -0.00000000000E+00 -0.82828176607E+03  0.82828176607E+03  0.25500000000E-02 0.  1.
    8880023    1    1    2    0    0 -0.14083069746E+03  0.13004076084E+03  0.12417509914E+04  0.14186259604E+04  0.65864270000E+03 0. -1.
    8880022    1    1    2    0    0  0.14083069746E+03 -0.13004076084E+03 -0.71952394543E+03  0.76016461763E+03  0.15294330000E+03 0.  0.
<mgrwt>
<rscale>  0 0.53042011E+03</rscale>
<asrwt>0</asrwt>
<pdfrwt beam="1">  1        2 0.20777058E+00 0.68596945E+03</pdfrwt>
<pdfrwt beam="2">  1       -2 0.12742797E+00 0.68596945E+03</pdfrwt>
<totfact> 0.72848332E+00</totfact>
</mgrwt>
</event>
<event>
 4    1  0.3565372E-007  0.8677599E+03  0.7818608E-02  0.9579906E-01
          2   -1    0    0  501    0  0.00000000000E+00  0.00000000000E+00  0.14951196370E+04  0.14951196370E+04  0.25500000000E-02 0. -1.
         -2   -1    0    0    0  501 -0.00000000000E+00 -0.00000000000E+00 -0.70044420185E+03  0.70044420186E+03  0.25500000000E-02 0.  1.
    8880023    1    1    2    0    0  0.49970494026E+03  0.26361333036E+03  0.12019775120E+04  0.14824834437E+04  0.65864270000E+03 0. -1.
    8880022    1    1    2    0    0 -0.49970494026E+03 -0.26361333036E+03 -0.40730207679E+03  0.71308039521E+03  0.15294330000E+03 0.  0.
<mgrwt>
<rscale>  0 0.78640507E+03</rscale>
<asrwt>0</asrwt>
<pdfrwt beam="1">  1        2 0.23001841E+00 0.86775989E+03</pdfrwt>
<pdfrwt beam="2">  1       -2 0.10776065E+00 0.86775989E+03</pdfrwt>
<totfact> 0.89042705E+00</totfact>
</mgrwt>
</event>
<event>
 4    1  0.3565372E-007  0.7135329E+03  0.7818608E-02  0.9945108E-01
          2   -1    0    0  501    0  0.00000000000E+00  0.00000000000E+00  0.93030683828E+03  0.93030683828E+03  0.25500000000E-02 0. -1.
         -2   -1    0    0    0  501 -0.00000000000E+00 -0.00000000000E+00 -0.58028195066E+03  0.58028195067E+03  0.25500000000E-02 0.  1.
    8880023    1    1    2    0    0  0.81752699972E+02 -0.26198382529E+03  0.72780855218E+03  0.10192323207E+04  0.65864270000E+03 0. -1.
    8880022    1    1    2    0    0 -0.81752699972E+02  0.26198382529E+03 -0.37778366456E+03  0.49135646825E+03  0.15294330000E+03 0.  0.
<mgrwt>
<rscale>  0 0.58124072E+03</rscale>
<asrwt>0</asrwt>
<pdfrwt beam="1">  1        2 0.14312413E+00 0.71353292E+03</pdfrwt>
<pdfrwt beam="2">  1       -2 0.89274146E-01 0.71353292E+03</pdfrwt>
<totfact> 0.30695548E+01</totfact>
</mgrwt>
</event>
<event>
 4    1  0.3565372E-007  0.1031667E+04  0.7818608E-02  0.9341251E-01
          2   -1    0    0  501    0  0.00000000000E+00  0.00000000000E+00  0.22638704204E+04  0.22638704204E+04  0.25500000000E-02 0. -1.
         -2   -1    0    0    0  501 -0.00000000000E+00 -0.00000000000E+00 -0.59030460157E+03  0.59030460157E+03  0.25500000000E-02 0.  1.
    8880023    1    1    2    0    0 -0.37608514578E+03  0.69934776370E+03  0.17608596700E+04  0.20408244205E+04  0.65864270000E+03 0.  0.
    8880022    1    1    2    0    0  0.37608514578E+03 -0.69934776370E+03 -0.87293851189E+02  0.81335060149E+03  0.15294330000E+03 0.  0.
<mgrwt>
<rscale>  0 0.97072287E+03</rscale>
<asrwt>0</asrwt>
<pdfrwt beam="1">  1        2 0.34828776E+00 0.10316674E+04</pdfrwt>
<pdfrwt beam="2">  1       -2 0.90816092E-01 0.10316674E+04</pdfrwt>
<totfact> 0.49244296E+00</totfact>
</mgrwt>
</event>
<event>
 4    1  0.3565372E-007  0.7070523E+03  0.7818608E-02  0.9969114E-01
          2   -1    0    0  501    0  0.00000000000E+00  0.00000000000E+00  0.19984826936E+04  0.19984826936E+04  0.25500000000E-02 0. -1.
         -2   -1    0    0    0  501 -0.00000000000E+00 -0.00000000000E+00 -0.17007107162E+03  0.17007107164E+03  0.25500000000E-02 0.  1.
    8880023    1    1    2    0    0 -0.22412267391E+03  0.12602309143E+03  0.17033971307E+04  0.18443114661E+04  0.65864270000E+03 0.  0.
    8880022    1    1    2    0    0  0.22412267391E+03 -0.12602309143E+03  0.12501449119E+03  0.32424229915E+03  0.15294330000E+03 0.  0.
<mgrwt>
<rscale>  0 0.57025519E+03</rscale>
<asrwt>0</asrwt>
<pdfrwt beam="1">  1        2 0.30745892E+00 0.70705233E+03</pdfrwt>
<pdfrwt beam="2">  1       -2 0.26164777E-01 0.70705233E+03</pdfrwt>
<totfact> 0.91114762E+01</totfact>
</mgrwt>
</event>
<event>
 4    1  0.3565372E-007  0.7875004E+03  0.7818608E-02  0.9738504E-01
          2   -1    0    0  501    0  0.00000000000E+00  0.00000000000E+00  0.13518465637E+04  0.13518465637E+04  0.25500000000E-02 0. -1.
         -2   -1    0    0    0  501 -0.00000000000E+00 -0.00000000000E+00 -0.39383652048E+03  0.39383652049E+03  0.25500000000E-02 0.  1.
    8880023    1    1    2    0    0  0.23111902004E+03  0.36459656946E+03  0.10144599168E+04  0.12842452215E+04  0.65864270000E+03 0.  0.
    8880022    1    1    2    0    0 -0.23111902004E+03 -0.36459656946E+03 -0.56449873564E+02  0.46143786270E+03  0.15294330000E+03 0.  0.
<mgrwt>
<rscale>  0 0.68769807E+03</rscale>
<asrwt>0</asrwt>
<pdfrwt beam="1">  1        2 0.20797639E+00 0.78750039E+03</pdfrwt>
<pdfrwt beam="2">  1       -2 0.60590235E-01 0.78750039E+03</pdfrwt>
<totfact> 0.39769631E+01</totfact>
</mgrwt>
</event>
<event>
 4    1  0.3565372E-007  0.8398869E+03  0.7818608E-02  0.9630394E-01
         -2   -1    0    0    0  501 -0.00000000000E+00  0.00000000000E+00  0.41740716710E+03  0.41740716711E+03  0.25500000000E-02 0.  1.
          2   -1    0    0  501    0  0.00000000000E+00 -0.00000000000E+00 -0.16833750777E+04  0.16833750777E+04  0.25500000000E-02 0. -1.
    8880023    1    1    2    0    0  0.50632326979E+03  0.12343622327E+03 -0.13097279090E+04  0.15558911133E+04  0.65864270000E+03 0. -1.
    8880022    1    1    2    0    0 -0.50632326979E+03 -0.12343622327E+03  0.43759998320E+02  0.54489113152E+03  0.15294330000E+03 0.  0.
<mgrwt>
<rscale>  0 0.75316784E+03</rscale>
<asrwt>0</asrwt>
<pdfrwt beam="1">  1        2 0.25898078E+00 0.83988687E+03</pdfrwt>
<pdfrwt beam="2">  1       -2 0.64216488E-01 0.83988687E+03</pdfrwt>
<totfact> 0.22813878E+01</totfact>
</mgrwt>
</event>
<event>
 4    1  0.3565372E-007  0.6895404E+03  0.7818608E-02  0.1004372E+00
          2   -1    0    0  501    0  0.00000000000E+00  0.00000000000E+00  0.48329102483E+03  0.48329102484E+03  0.25500000000E-02 0. -1.
         -2   -1    0    0    0  501 -0.00000000000E+00 -0.00000000000E+00 -0.59467637001E+03  0.59467637002E+03  0.25500000000E-02 0.  1.
    8880023    1    1    2    0    0 -0.19651833724E+03  0.55102504183E+02  0.15756851789E+03  0.70731448941E+03  0.65864270000E+03 0.  0.
    8880022    1    1    2    0    0  0.19651833724E+03 -0.55102504183E+02 -0.26895386307E+03  0.37065290544E+03  0.15294330000E+03 0.  0.
<mgrwt>
<rscale>  0 0.53774146E+03</rscale>
<asrwt>0</asrwt>
<pdfrwt beam="1">  1        2 0.74352465E-01 0.68954039E+03</pdfrwt>
<pdfrwt beam="2">  1       -2 0.91488672E-01 0.68954039E+03</pdfrwt>
<totfact> 0.66170557E+01</totfact>
</mgrwt>
</event>
<event>
 4    1  0.3565372E-007  0.8202392E+03  0.7818608E-02  0.9668631E-01
          2   -1    0    0  501    0  0.00000000000E+00  0.00000000000E+00  0.15592805875E+04  0.15592805875E+04  0.25500000000E-02 0. -1.
         -2   -1    0    0    0  501 -0.00000000000E+00 -0.00000000000E+00 -0.35298571255E+03  0.35298571256E+03  0.25500000000E-02 0.  1.
    8880023    1    1    2    0    0 -0.27479454560E+03  0.40431434412E+03  0.11270816541E+04  0.13939531529E+04  0.65864270000E+03 0. -1.
    8880022    1    1    2    0    0  0.27479454560E+03 -0.40431434412E+03  0.79213220826E+02  0.51831314716E+03  0.15294330000E+03 0.  0.
<mgrwt>
<rscale>  0 0.72915598E+03</rscale>
<asrwt>0</asrwt>
<pdfrwt beam="1">  1        2 0.23988932E+00 0.82023920E+03</pdfrwt>
<pdfrwt beam="2">  1       -2 0.54305495E-01 0.82023920E+03</pdfrwt>
<totfact> 0.38119285E+01</totfact>
</mgrwt>
</event>
<event>
 4    1  0.3565372E-007  0.8021156E+03  0.7818608E-02  0.9706240E-01
          2   -1    0    0  501    0  0.00000000000E+00  0.00000000000E+00  0.16402952389E+04  0.16402952389E+04  0.25500000000E-02 0. -1.
         -2   -1    0    0    0  501 -0.00000000000E+00 -0.00000000000E+00 -0.40635964645E+03  0.40635964646E+03  0.25500000000E-02 0.  1.
    8880023    1    1    2    0    0  0.61594763596E+02 -0.45363567225E+03  0.13312943061E+04  0.15542631610E+04  0.65864270000E+03 0.  0.
    8880022    1    1    2    0    0 -0.61594763596E+02  0.45363567225E+03 -0.97358713650E+02  0.49239172432E+03  0.15294330000E+03 0.  0.
<mgrwt>
<rscale>  0 0.70646464E+03</rscale>
<asrwt>0</asrwt>
<pdfrwt beam="1">  1        2 0.25235311E+00 0.80211561E+03</pdfrwt>
<pdfrwt beam="2">  1       -2 0.62516868E-01 0.80211561E+03</pdfrwt>
<totfact> 0.25626042E+01</totfact>
</mgrwt>
</event>
<event>
 4    1  0.3565372E-007  0.8522127E+03  0.7818608E-02  0.9607569E-01
         -2   -1    0    0    0  501 -0.00000000000E+00  0.00000000000E+00  0.85652031235E+03  0.85652031235E+03  0.25500000000E-02 0.  1.
          2   -1    0    0  501    0  0.00000000000E+00 -0.00000000000E+00 -0.97994219911E+03  0.97994219911E+03  0.25500000000E-02 0. -1.
    8880023    1    1    2    0    0  0.41587894052E+03 -0.34568911395E+03 -0.64573291943E+03  0.10692228328E+04  0.65864270000E+03 0.  0.
    8880022    1    1    2    0    0 -0.41587894052E+03  0.34568911395E+03  0.52231103267E+03  0.76723967867E+03  0.15294330000E+03 0.  0.
<mgrwt>
<rscale>  0 0.76797264E+03</rscale>
<asrwt>0</asrwt>
<pdfrwt beam="1">  1        2 0.15076034E+00 0.85221269E+03</pdfrwt>
<pdfrwt beam="2">  1       -2 0.13177236E+00 0.85221269E+03</pdfrwt>
<totfact> 0.10953908E+01</totfact>
</mgrwt>
</event>
<event>
 4    1  0.3565372E-007  0.1298292E+04  0.7818608E-02  0.9067036E-01
          2   -1    0    0  501    0  0.00000000000E+00  0.00000000000E+00  0.13764207196E+04  0.13764207196E+04  0.25500000000E-02 0. -1.
         -2   -1    0    0    0  501 -0.00000000000E+00 -0.00000000000E+00 -0.23845782750E+04  0.23845782750E+04  0.25500000000E-02 0.  1.
    8880023    1    1    2    0    0 -0.10603788395E+04  0.35685919186E+03  0.87471601806E+03  0.15654680082E+04  0.65864270000E+03 0. -1.
    8880022    1    1    2    0    0  0.10603788395E+04 -0.35685919186E+03 -0.18828735734E+04  0.21955309865E+04  0.15294330000E+03 0.  0.
<mgrwt>
<rscale>  0 0.12537881E+04</rscale>
<asrwt>0</asrwt>
<pdfrwt beam="1">  1        2 0.21175703E+00 0.12982919E+04</pdfrwt>
<pdfrwt beam="2">  1       -2 0.36685820E+00 0.12982919E+04</pdfrwt>
<totfact> 0.17574720E-01</totfact>
</mgrwt>
</event>
<event>
 4    1  0.3565372E-007  0.8430480E+03  0.7818608E-02  0.9624460E-01
         -2   -1    0    0    0  501 -0.00000000000E+00  0.00000000000E+00  0.51972872316E+03  0.51972872317E+03  0.25500000000E-02 0.  1.
          2   -1    0    0  501    0  0.00000000000E+00 -0.00000000000E+00 -0.15191752066E+04  0.15191752066E+04  0.25500000000E-02 0. -1.
    8880023    1    1    2    0    0 -0.52451634290E+03  0.42453580195E+02 -0.11903032230E+04  0.14586129265E+04  0.65864270000E+03 0. -1.
    8880022    1    1    2    0    0  0.52451634290E+03 -0.42453580195E+02  0.19085673954E+03  0.58029100328E+03  0.15294330000E+03 0.  0.
<mgrwt>
<rscale>  0 0.75698224E+03</rscale>
<asrwt>0</asrwt>
<pdfrwt beam="1">  1        2 0.23371926E+00 0.84304799E+03</pdfrwt>
<pdfrwt beam="2">  1       -2 0.79958266E-01 0.84304799E+03</pdfrwt>
<totfact> 0.17362262E+01</totfact>
</mgrwt>
</event>
<event>
 4    1  0.3565372E-007  0.1116167E+04  0.7818608E-02  0.9243267E-01
          2   -1    0    0  501    0  0.00000000000E+00  0.00000000000E+00  0.39898815546E+04  0.39898815546E+04  0.25500000000E-02 0. -1.
         -2   -1    0    0    0  501 -0.00000000000E+00 -0.00000000000E+00 -0.52925459248E+03  0.52925459248E+03  0.25500000000E-02 0.  1.
    8880023    1    1    2    0    0 -0.67541818629E+03  0.59651321917E+03  0.20142223335E+03  0.11341952519E+04  0.65864270000E+03 0.  0.
    8880022    1    1    2    0    0  0.67541818629E+03 -0.59651321917E+03  0.32592047288E+04  0.33849408952E+04  0.15294330000E+03 0.  0.
<mgrwt>
<rscale>  0 0.10617792E+04</rscale>
<asrwt>0</asrwt>
<pdfrwt beam="1">  1        2 0.61382794E+00 0.11161666E+04</pdfrwt>
<pdfrwt beam="2">  1       -2 0.81423782E-01 0.11161666E+04</pdfrwt>
<totfact> 0.47714644E-01</totfact>
</mgrwt>
</event>
<event>
 4    1  0.3565372E-007  0.8455392E+03  0.7818608E-02  0.9619823E-01
          2   -1    0    0  501    0  0.00000000000E+00  0.00000000000E+00  0.15890331135E+04  0.15890331135E+04  0.25500000000E-02 0. -1.
         -2   -1    0    0    0  501 -0.00000000000E+00 -0.00000000000E+00 -0.80876688779E+03  0.80876688779E+03  0.25500000000E-02 0.  1.
    8880023    1    1    2    0    0  0.44461603554E+03  0.28886481867E+03  0.13574578963E+04  0.15992587186E+04  0.65864270000E+03 0. -1.
    8880022    1    1    2    0    0 -0.44461603554E+03 -0.28886481867E+03 -0.57719167060E+03  0.79854128268E+03  0.15294330000E+03 0.  0.
<mgrwt>
<rscale>  0 0.75997957E+03</rscale>
<asrwt>0</asrwt>
<pdfrwt beam="1">  1        2 0.24446663E+00 0.84553918E+03</pdfrwt>
<pdfrwt beam="2">  1       -2 0.12442568E+00 0.84553918E+03</pdfrwt>
<totfact> 0.55590629E+00</totfact>
</mgrwt>
</event>
<event>
 4    1  0.3565372E-007  0.9068267E+03  0.7818608E-02  0.9515160E-01
         -2   -1    0    0    0  501 -0.00000000000E+00  0.00000000000E+00  0.75635326593E+03  0.75635326593E+03  0.25500000000E-02 0.  1.
          2   -1    0    0  501    0  0.00000000000E+00 -0.00000000000E+00 -0.99640678791E+03  0.99640678791E+03  0.25500000000E-02 0. -1.
    8880023    1    1    2    0    0 -0.61466584323E+03 -0.10349121191E+03 -0.52797470862E+03  0.10493293234E+04  0.65864270000E+03 0.  0.
    8880022    1    1    2    0    0  0.61466584323E+03  0.10349121191E+03  0.28792118664E+03  0.70343073042E+03  0.15294330000E+03 0.  0.
<mgrwt>
<rscale>  0 0.83175294E+03</rscale>
<asrwt>0</asrwt>
<pdfrwt beam="1">  1        2 0.15329335E+00 0.90682674E+03</pdfrwt>
<pdfrwt beam="2">  1       -2 0.11636204E+00 0.90682674E+03</pdfrwt>
<totfact> 0.14520859E+01</totfact>
</mgrwt>
</event>
<event>
 4    1  0.3565372E-007  0.9157230E+03  0.7818608E-02  0.9501248E-01
         -2   -1    0    0    0  501 -0.00000000000E+00  0.00000000000E+00  0.48890348905E+03  0.48890348906E+03  0.25500000000E-02 0.  1.
          2   -1    0    0  501    0  0.00000000000E+00 -0.00000000000E+00 -0.20891609035E+04  0.20891609035E+04  0.25500000000E-02 0. -1.
    8880023    1    1    2    0    0  0.26801120822E+03  0.57698210863E+03 -0.16855269574E+04  0.19182152360E+04  0.65864270000E+03 0.  0.
    8880022    1    1    2    0    0 -0.26801120822E+03 -0.57698210863E+03  0.85269542922E+02  0.65984915653E+03  0.15294330000E+03 0.  0.
<mgrwt>
<rscale>  0 0.84191848E+03</rscale>
<asrwt>0</asrwt>
<pdfrwt beam="1">  1        2 0.32140937E+00 0.91572298E+03</pdfrwt>
<pdfrwt beam="2">  1       -2 0.75215922E-01 0.91572298E+03</pdfrwt>
<totfact> 0.95860043E+00</totfact>
</mgrwt>
</event>
<event>
 4    1  0.3565372E-007  0.6689404E+03  0.7818608E-02  0.1016434E+00
          2   -1    0    0  501    0  0.00000000000E+00  0.00000000000E+00  0.84439863118E+03  0.84439863118E+03  0.25500000000E-02 0. -1.
         -2   -1    0    0    0  501 -0.00000000000E+00 -0.00000000000E+00 -0.49258838762E+03  0.49258838763E+03  0.25500000000E-02 0.  1.
    8880023    1    1    2    0    0  0.14881001016E+02  0.11597216900E+03  0.68166329185E+03  0.95506336852E+03  0.65864270000E+03 0. -1.
    8880022    1    1    2    0    0 -0.14881001016E+02 -0.11597216900E+03 -0.32985304829E+03  0.38192365029E+03  0.15294330000E+03 0.  0.
<mgrwt>
<rscale>  0 0.48995658E+03</rscale>
<asrwt>0</asrwt>
<pdfrwt beam="1">  1        2 0.12990748E+00 0.66894035E+03</pdfrwt>
<pdfrwt beam="2">  1       -2 0.75782830E-01 0.66894035E+03</pdfrwt>
<totfact> 0.51025426E+01</totfact>
</mgrwt>
</event>
<event>
 4    1  0.3565372E-007  0.1005890E+04  0.7818608E-02  0.9373892E-01
          2   -1    0    0  501    0  0.00000000000E+00  0.00000000000E+00  0.66397405173E+03  0.66397405174E+03  0.25500000000E-02 0. -1.
         -2   -1    0    0    0  501 -0.00000000000E+00 -0.00000000000E+00 -0.16251842385E+04  0.16251842385E+04  0.25500000000E-02 0.  1.
    8880023    1    1    2    0    0 -0.10012756133E+03 -0.75364364936E+03  0.59054282743E+02  0.10076219000E+04  0.65864270000E+03 0.  0.
    8880022    1    1    2    0    0  0.10012756133E+03  0.75364364936E+03 -0.10202644695E+04  0.12815363902E+04  0.15294330000E+03 0.  0.
<mgrwt>
<rscale>  0 0.94255759E+03</rscale>
<asrwt>0</asrwt>
<pdfrwt beam="1">  1        2 0.10214985E+00 0.10058899E+04</pdfrwt>
<pdfrwt beam="2">  1       -2 0.25002834E+00 0.10058899E+04</pdfrwt>
<totfact> 0.28066229E+00</totfact>
</mgrwt>
</event>
<event>
 4    1  0.3565372E-007  0.6612304E+03  0.7818608E-02  0.1022930E+00
          2   -1    0    0  501    0  0.00000000000E+00  0.00000000000E+00  0.12720058880E+04  0.12720058880E+04  0.25500000000E-02 0. -1.
         -2   -1    0    0    0  501 -0.00000000000E+00 -0.00000000000E+00 -0.32824668434E+03  0.32824668435E+03  0.25500000000E-02 0.  1.
    8880023    1    1    2    0    0  0.49179312729E+02  0.31573327992E+02  0.11562690171E+04  0.13319848820E+04  0.65864270000E+03 0. -1.
    8880022    1    1    2    0    0 -0.49179312729E+02 -0.31573327992E+02 -0.21250981344E+03  0.26826769031E+03  0.15294330000E+03 0.  0.
<mgrwt>
<rscale>  0 0.46644014E+03</rscale>
<asrwt>0</asrwt>
<pdfrwt beam="1">  1        2 0.19569321E+00 0.66123043E+03</pdfrwt>
<pdfrwt beam="2">  1       -2 0.50499491E-01 0.66123043E+03</pdfrwt>
<totfact> 0.65352513E+01</totfact>
</mgrwt>
</event>
<event>
 4    1  0.3565372E-007  0.7395847E+03  0.7818608E-02  0.9861158E-01
          2   -1    0    0  501    0  0.00000000000E+00  0.00000000000E+00  0.68347009740E+03  0.68347009740E+03  0.25500000000E-02 0. -1.
         -2   -1    0    0    0  501 -0.00000000000E+00 -0.00000000000E+00 -0.15206351866E+04  0.15206351866E+04  0.25500000000E-02 0.  1.
    8880023    1    1    2    0    0  0.33635562052E+03 -0.63421591371E+01  0.44946829238E+03  0.86545206601E+03  0.65864270000E+03 0. -1.
    8880022    1    1    2    0    0 -0.33635562052E+03  0.63421591371E+01 -0.12866333815E+04  0.13386532180E+04  0.15294330000E+03 0.  0.
<mgrwt>
<rscale>  0 0.62181208E+03</rscale>
<asrwt>0</asrwt>
<pdfrwt beam="1">  1        2 0.10514925E+00 0.73958470E+03</pdfrwt>
<pdfrwt beam="2">  1       -2 0.23394387E+00 0.73958470E+03</pdfrwt>
<totfact> 0.35090262E+00</totfact>
</mgrwt>
</event>
<event>
 4    1  0.3565372E-007  0.7437637E+03  0.7818608E-02  0.9849116E-01
         -2   -1    0    0    0  501 -0.00000000000E+00  0.00000000000E+00  0.20606386518E+04  0.20606386518E+04  0.25500000000E-02 0.  1.
          2   -1    0    0  501    0  0.00000000000E+00 -0.00000000000E+00 -0.50758098462E+03  0.50758098463E+03  0.25500000000E-02 0. -1.
    8880023    1    1    2    0    0 -0.34411101556E+03  0.31014522598E+02 -0.20380803002E+03  0.77118234615E+03  0.65864270000E+03 0. -1.
    8880022    1    1    2    0    0  0.34411101556E+03 -0.31014522598E+02  0.17568656972E+04  0.17970372903E+04  0.15294330000E+03 0.  0.
<mgrwt>
<rscale>  0 0.62792002E+03</rscale>
<asrwt>0</asrwt>
<pdfrwt beam="1">  1        2 0.78089381E-01 0.74376374E+03</pdfrwt>
<pdfrwt beam="2">  1       -2 0.31702134E+00 0.74376374E+03</pdfrwt>
<totfact> 0.15825492E+00</totfact>
</mgrwt>
</event>
<event>
 4    1  0.3565372E-007  0.6679763E+03  0.7818608E-02  0.1017157E+00
          2   -1    0    0  501    0  0.00000000000E+00  0.00000000000E+00  0.30358887807E+04  0.30358887807E+04  0.25500000000E-02 0. -1.
         -2   -1    0    0    0  501 -0.00000000000E+00 -0.00000000000E+00 -0.42602877374E+03  0.42602877375E+03  0.25500000000E-02 0.  1.
    8880023    1    1    2    0    0  0.11111065184E+03  0.60470493157E+01  0.29758747028E+04  0.30499217361E+04  0.65864270000E+03 0. -1.
    8880022    1    1    2    0    0 -0.11111065184E+03 -0.60470493157E+01 -0.36601469580E+03  0.41199581832E+03  0.15294330000E+03 0.  0.
<mgrwt>
<rscale>  0 0.48726635E+03</rscale>
<asrwt>0</asrwt>
<pdfrwt beam="1">  1        2 0.46705980E+00 0.66797631E+03</pdfrwt>
<pdfrwt beam="2">  1       -2 0.65542890E-01 0.66797631E+03</pdfrwt>
<totfact> 0.38519258E+00</totfact>
</mgrwt>
</event>
<event>
 4    1  0.3565372E-007  0.7311652E+03  0.7818608E-02  0.9886472E-01
         -2   -1    0    0    0  501 -0.00000000000E+00  0.00000000000E+00  0.10959655283E+04  0.10959655283E+04  0.25500000000E-02 0.  1.
          2   -1    0    0  501    0  0.00000000000E+00 -0.00000000000E+00 -0.59710028410E+03  0.59710028410E+03  0.25500000000E-02 0. -1.
    8880023    1    1    2    0    0 -0.29090768758E+03  0.12714186227E+03 -0.32262533197E+03  0.79918060971E+03  0.65864270000E+03 0. -1.
    8880022    1    1    2    0    0  0.29090768758E+03 -0.12714186227E+03  0.82149057614E+03  0.89388520266E+03  0.15294330000E+03 0.  0.
<mgrwt>
<rscale>  0 0.60921394E+03</rscale>
<asrwt>0</asrwt>
<pdfrwt beam="1">  1        2 0.91861583E-01 0.73116519E+03</pdfrwt>
<pdfrwt beam="2">  1       -2 0.16861008E+00 0.73116519E+03</pdfrwt>
<totfact> 0.11075037E+01</totfact>
</mgrwt>
</event>
<event>
 4    1  0.3565372E-007  0.7963179E+03  0.7818608E-02  0.9718815E-01
         -2   -1    0    0    0  501 -0.00000000000E+00  0.00000000000E+00  0.32526739553E+03  0.32526739554E+03  0.25500000000E-02 0.  1.
          2   -1    0    0  501    0  0.00000000000E+00 -0.00000000000E+00 -0.12390164842E+04  0.12390164842E+04  0.25500000000E-02 0. -1.
    8880023    1    1    2    0    0 -0.31112237745E+02  0.44647965069E+03 -0.55486496360E+03  0.97056549697E+03  0.65864270000E+03 0.  1.
    8880022    1    1    2    0    0  0.31112237745E+02 -0.44647965069E+03 -0.35888412511E+03  0.59371838281E+03  0.15294330000E+03 0. -1.
<mgrwt>
<rscale>  0 0.69907540E+03</rscale>
<asrwt>0</asrwt>
<pdfrwt beam="1">  1        2 0.19061792E+00 0.79631794E+03</pdfrwt>
<pdfrwt beam="2">  1       -2 0.50041138E-01 0.79631794E+03</pdfrwt>
<totfact> 0.68715826E+01</totfact>
</mgrwt>
</event>
<event>
 4    1  0.3565372E-007  0.8762798E+03  0.7818608E-02  0.9565236E-01
          2   -1    0    0  501    0  0.00000000000E+00  0.00000000000E+00  0.12055850758E+04  0.12055850758E+04  0.25500000000E-02 0. -1.
         -2   -1    0    0    0  501 -0.00000000000E+00 -0.00000000000E+00 -0.60628872177E+03  0.60628872177E+03  0.25500000000E-02 0.  1.
    8880023    1    1    2    0    0  0.57049228743E+03  0.92707070913E+02  0.79461231835E+03  0.11829095459E+04  0.65864270000E+03 0. -1.
    8880022    1    1    2    0    0 -0.57049228743E+03 -0.92707070913E+02 -0.19531596429E+03  0.62896425172E+03  0.15294330000E+03 0.  0.
<mgrwt>
<rscale>  0 0.79640441E+03</rscale>
<asrwt>0</asrwt>
<pdfrwt beam="1">  1        2 0.18547462E+00 0.87627978E+03</pdfrwt>
<pdfrwt beam="2">  1       -2 0.93275189E-01 0.87627978E+03</pdfrwt>
<totfact> 0.18390344E+01</totfact>
</mgrwt>
</event>
<event>
 4    1  0.3565372E-007  0.7580281E+03  0.7818608E-02  0.9810239E-01
         -2   -1    0    0    0  501 -0.00000000000E+00  0.00000000000E+00  0.71954248001E+03  0.71954248001E+03  0.25500000000E-02 0.  1.
          2   -1    0    0  501    0  0.00000000000E+00 -0.00000000000E+00 -0.62770735032E+03  0.62770735032E+03  0.25500000000E-02 0. -1.
    8880023    1    1    2    0    0  0.18726878692E+03  0.32515663117E+03 -0.26932964717E+03  0.80445329165E+03  0.65864270000E+03 0.  1.
    8880022    1    1    2    0    0 -0.18726878692E+03 -0.32515663117E+03  0.36116477685E+03  0.54279653868E+03  0.15294330000E+03 0.  0.
<mgrwt>
<rscale>  0 0.64815921E+03</rscale>
<asrwt>0</asrwt>
<pdfrwt beam="1">  1        2 0.96570362E-01 0.75802813E+03</pdfrwt>
<pdfrwt beam="2">  1       -2 0.11069884E+00 0.75802813E+03</pdfrwt>
<totfact> 0.30742732E+01</totfact>
</mgrwt>
</event>
<event>
 4    1  0.3565372E-007  0.1187934E+04  0.7818608E-02  0.9168942E-01
          2   -1    0    0  501    0  0.00000000000E+00  0.00000000000E+00  0.84878971942E+03  0.84878971943E+03  0.25500000000E-02 0. -1.
         -2   -1    0    0    0  501 -0.00000000000E+00 -0.00000000000E+00 -0.16680494649E+04  0.16680494649E+04  0.25500000000E-02 0.  1.
    8880023    1    1    2    0    0 -0.31372463815E+01  0.98861837237E+03 -0.93229965640E+03  0.15100890650E+04  0.65864270000E+03 0.  0.
    8880022    1    1    2    0    0  0.31372463815E+01 -0.98861837237E+03  0.11303991087E+03  0.10067501194E+04  0.15294330000E+03 0.  0.
<mgrwt>
<rscale>  0 0.11379831E+04</rscale>
<asrwt>0</asrwt>
<pdfrwt beam="1">  1        2 0.13058303E+00 0.11879336E+04</pdfrwt>
<pdfrwt beam="2">  1       -2 0.25662300E+00 0.11879336E+04</pdfrwt>
<totfact> 0.18191058E+00</totfact>
</mgrwt>
</event>
<event>
 4    1  0.3565372E-007  0.7453144E+03  0.7818608E-02  0.9844728E-01
         -2   -1    0    0    0  501 -0.00000000000E+00  0.00000000000E+00  0.56331440035E+03  0.56331440036E+03  0.25500000000E-02 0.  1.
          2   -1    0    0  501    0  0.00000000000E+00 -0.00000000000E+00 -0.74808618084E+03  0.74808618084E+03  0.25500000000E-02 0. -1.
    8880023    1    1    2    0    0  0.34276209091E+03 -0.64788322057E+02 -0.42801290638E+03  0.85946997151E+03  0.65864270000E+03 0. -1.
    8880022    1    1    2    0    0 -0.34276209091E+03  0.64788322057E+02  0.24324112589E+03  0.45193060969E+03  0.15294330000E+03 0.  1.
<mgrwt>
<rscale>  0 0.63016420E+03</rscale>
<asrwt>0</asrwt>
<pdfrwt beam="1">  1        2 0.11509018E+00 0.74531442E+03</pdfrwt>
<pdfrwt beam="2">  1       -2 0.86663754E-01 0.74531442E+03</pdfrwt>
<totfact> 0.43967819E+01</totfact>
</mgrwt>
</event>
<event>
 4    1  0.3565372E-007  0.9385949E+03  0.7818608E-02  0.9466717E-01
          2   -1    0    0  501    0  0.00000000000E+00  0.00000000000E+00  0.28389320448E+04  0.28389320448E+04  0.25500000000E-02 0. -1.
         -2   -1    0    0    0  501 -0.00000000000E+00 -0.00000000000E+00 -0.28468263907E+03  0.28468263908E+03  0.25500000000E-02 0.  1.
    8880023    1    1    2    0    0  0.60826249839E+03  0.27778931942E+03  0.77665577895E+03  0.12182588305E+04  0.65864270000E+03 0.  1.
    8880022    1    1    2    0    0 -0.60826249839E+03 -0.27778931942E+03  0.17775936267E+04  0.19053558533E+04  0.15294330000E+03 0.  0.
<mgrwt>
<rscale>  0 0.86782752E+03</rscale>
<asrwt>0</asrwt>
<pdfrwt beam="1">  1        2 0.43675877E+00 0.93859490E+03</pdfrwt>
<pdfrwt beam="2">  1       -2 0.43797329E-01 0.93859490E+03</pdfrwt>
<totfact> 0.11124711E+01</totfact>
</mgrwt>
</event>
<event>
 4    1  0.3565372E-007  0.6930574E+03  0.7818608E-02  0.1002732E+00
          2   -1    0    0  501    0  0.00000000000E+00  0.00000000000E+00  0.18437938535E+04  0.18437938535E+04  0.25500000000E-02 0. -1.
         -2   -1    0    0    0  501 -0.00000000000E+00 -0.00000000000E+00 -0.17433635458E+03  0.17433635460E+03  0.25500000000E-02 0.  1.
    8880023    1    1    2    0    0  0.14436308284E+03  0.16024239677E+03  0.16016514953E+04  0.17451693454E+04  0.65864270000E+03 0. -1.
    8880022    1    1    2    0    0 -0.14436308284E+03 -0.16024239677E+03  0.67806003564E+02  0.27296086266E+03  0.15294330000E+03 0.  0.
<mgrwt>
<rscale>  0 0.54468359E+03</rscale>
<asrwt>0</asrwt>
<pdfrwt beam="1">  1        2 0.28366060E+00 0.69305738E+03</pdfrwt>
<pdfrwt beam="2">  1       -2 0.26820977E-01 0.69305738E+03</pdfrwt>
<totfact> 0.10588833E+02</totfact>
</mgrwt>
</event>
<event>
 4    1  0.3565372E-007  0.6764757E+03  0.7818608E-02  0.1011392E+00
         -2   -1    0    0    0  501 -0.00000000000E+00  0.00000000000E+00  0.26196569704E+03  0.26196569705E+03  0.25500000000E-02 0.  1.
          2   -1    0    0  501    0  0.00000000000E+00 -0.00000000000E+00 -0.19028650535E+04  0.19028650535E+04  0.25500000000E-02 0. -1.
    8880023    1    1    2    0    0  0.47367505014E+02  0.14685208821E+03 -0.17817928893E+04  0.19058870174E+04  0.65864270000E+03 0.  0.
    8880022    1    1    2    0    0 -0.47367505014E+02 -0.14685208821E+03  0.14089353285E+03  0.25894373319E+03  0.15294330000E+03 0.  0.
<mgrwt>
<rscale>  0 0.50925220E+03</rscale>
<asrwt>0</asrwt>
<pdfrwt beam="1">  1        2 0.29274846E+00 0.67647574E+03</pdfrwt>
<pdfrwt beam="2">  1       -2 0.40302416E-01 0.67647574E+03</pdfrwt>
<totfact> 0.45774465E+01</totfact>
</mgrwt>
</event>
<event>
 4    1  0.4318232E-007  0.6957790E+03  0.7818608E-02  0.1001518E+00
         -2   -1    0    0    0  501 -0.00000000000E+00  0.00000000000E+00  0.13297485236E+04  0.13297485236E+04  0.25500000000E-02 0.  1.
          2   -1    0    0  501    0  0.00000000000E+00 -0.00000000000E+00 -0.15164178368E+04  0.15164178368E+04  0.25500000000E-02 0. -1.
    8880023    1    1    2    0    0  0.20861516388E+03  0.82328425722E+02 -0.14210748459E+04  0.15822648894E+04  0.65864270000E+03 0. -1.
    8880022    1    1    2    0    0 -0.20861516388E+03 -0.82328425722E+02  0.12344055327E+04  0.12639014710E+04  0.15294330000E+03 0.  0.
<mgrwt>
<rscale>  0 0.54989466E+03</rscale>
<asrwt>0</asrwt>
<pdfrwt beam="1">  1        2 0.23329505E+00 0.69577903E+03</pdfrwt>
<pdfrwt beam="2">  1       -2 0.20457670E+00 0.69577903E+03</pdfrwt>
<totfact> 0.16106204E+00</totfact>
</mgrwt>
</event>
<event>
 4    1  0.3565372E-007  0.8938990E+03  0.7818608E-02  0.9535898E-01
          2   -1    0    0  501    0  0.00000000000E+00  0.00000000000E+00  0.30767040966E+04  0.30767040966E+04  0.25500000000E-02 0. -1.
         -2   -1    0    0    0  501 -0.00000000000E+00 -0.00000000000E+00 -0.59203562631E+03  0.59203562631E+03  0.25500000000E-02 0.  1.
    8880023    1    1    2    0    0  0.55370928856E+03 -0.24218006851E+03  0.28218073914E+04  0.29600088382E+04  0.65864270000E+03 0. -1.
    8880022    1    1    2    0    0 -0.55370928856E+03  0.24218006851E+03 -0.33713892110E+03  0.70873088472E+03  0.15294330000E+03 0.  0.
<mgrwt>
<rscale>  0 0.81688199E+03</rscale>
<asrwt>0</asrwt>
<pdfrwt beam="1">  1        2 0.47333908E+00 0.89389897E+03</pdfrwt>
<pdfrwt beam="2">  1       -2 0.91082406E-01 0.89389897E+03</pdfrwt>
<totfact> 0.16659564E+00</totfact>
</mgrwt>
</event>
<event>
 4    1  0.3565372E-007  0.7083594E+03  0.7818608E-02  0.9964144E-01
          2   -1    0    0  501    0  0.00000000000E+00  0.00000000000E+00  0.12406931420E+04  0.12406931421E+04  0.25500000000E-02 0. -1.
         -2   -1    0    0    0  501 -0.00000000000E+00 -0.00000000000E+00 -0.55926953232E+03  0.55926953232E+03  0.25500000000E-02 0.  1.
    8880023    1    1    2    0    0  0.25532550140E+03  0.52647739394E+02  0.10849941145E+04  0.12957566634E+04  0.65864270000E+03 0. -1.
    8880022    1    1    2    0    0 -0.25532550140E+03 -0.52647739394E+02 -0.40357050476E+03  0.50420601093E+03  0.15294330000E+03 0.  0.
<mgrwt>
<rscale>  0 0.57250797E+03</rscale>
<asrwt>0</asrwt>
<pdfrwt beam="1">  1        2 0.19087587E+00 0.70835944E+03</pdfrwt>
<pdfrwt beam="2">  1       -2 0.86041467E-01 0.70835944E+03</pdfrwt>
<totfact> 0.21507168E+01</totfact>
</mgrwt>
</event>
<event>
 4    1  0.3565372E-007  0.6632177E+03  0.7818608E-02  0.1021078E+00
         -2   -1    0    0    0  501 -0.00000000000E+00  0.00000000000E+00  0.26300605536E+03  0.26300605537E+03  0.25500000000E-02 0.  1.
          2   -1    0    0  501    0  0.00000000000E+00 -0.00000000000E+00 -0.50137294253E+04  0.50137294253E+04  0.25500000000E-02 0. -1.
    8880023    1    1    2    0    0 -0.59796093997E+02 -0.49718397763E+02 -0.49611160506E+04  0.50052502600E+04  0.65864270000E+03 0. -1.
    8880022    1    1    2    0    0  0.59796093997E+02  0.49718397763E+02  0.21039268065E+03  0.27148522063E+03  0.15294330000E+03 0.  0.
<mgrwt>
<rscale>  0 0.47299628E+03</rscale>
<asrwt>0</asrwt>
<pdfrwt beam="1">  1        2 0.77134292E+00 0.66321769E+03</pdfrwt>
<pdfrwt beam="2">  1       -2 0.40462474E-01 0.66321769E+03</pdfrwt>
<totfact> 0.23187624E-01</totfact>
</mgrwt>
</event>
<event>
 4    1  0.3565372E-007  0.7392949E+03  0.7818608E-02  0.9862006E-01
         -2   -1    0    0    0  501 -0.00000000000E+00  0.00000000000E+00  0.14264570187E+03  0.14264570189E+03  0.25500000000E-02 0.  1.
          2   -1    0    0  501    0  0.00000000000E+00 -0.00000000000E+00 -0.29125781104E+04  0.29125781104E+04  0.25500000000E-02 0. -1.
    8880023    1    1    2    0    0  0.16609039651E+03 -0.29182307955E+03 -0.24744229132E+04  0.25825037636E+04  0.65864270000E+03 0. -1.
    8880022    1    1    2    0    0 -0.16609039651E+03  0.29182307955E+03 -0.29550949539E+03  0.47272004871E+03  0.15294330000E+03 0.  0.
<mgrwt>
<rscale>  0 0.62138512E+03</rscale>
<asrwt>0</asrwt>
<pdfrwt beam="1">  1        2 0.44808890E+00 0.73929489E+03</pdfrwt>
<pdfrwt beam="2">  1       -2 0.21945495E-01 0.73929489E+03</pdfrwt>
<totfact> 0.37719923E+01</totfact>
</mgrwt>
</event>
<event>
 4    1  0.3565372E-007  0.1437914E+04  0.7818608E-02  0.8954769E-01
          2   -1    0    0  501    0  0.00000000000E+00  0.00000000000E+00  0.27508528178E+04  0.27508528178E+04  0.25500000000E-02 0. -1.
         -2   -1    0    0    0  501 -0.00000000000E+00 -0.00000000000E+00 -0.13628954266E+04  0.13628954266E+04  0.25500000000E-02 0.  1.
    8880023    1    1    2    0    0 -0.12646800575E+04  0.18539568482E+03 -0.74725902725E+03  0.16204917364E+04  0.65864270000E+03 0.  0.
    8880022    1    1    2    0    0  0.12646800575E+04 -0.18539568482E+03  0.21352164185E+04  0.24932565080E+04  0.15294330000E+03 0.  0.
<mgrwt>
<rscale>  0 0.13986882E+04</rscale>
<asrwt>0</asrwt>
<pdfrwt beam="1">  1        2 0.42320812E+00 0.14379143E+04</pdfrwt>
<pdfrwt beam="2">  1       -2 0.20967622E+00 0.14379143E+04</pdfrwt>
<totfact> 0.26989843E-01</totfact>
</mgrwt>
</event>
<event>
 4    1  0.3565372E-007  0.6625283E+03  0.7818608E-02  0.1021704E+00
         -2   -1    0    0    0  501 -0.00000000000E+00  0.00000000000E+00  0.20381985037E+04  0.20381985037E+04  0.25500000000E-02 0.  1.
          2   -1    0    0  501    0  0.00000000000E+00 -0.00000000000E+00 -0.29162552742E+03  0.29162552743E+03  0.25500000000E-02 0. -1.
    8880023    1    1    2    0    0 -0.64897363695E+02  0.30362451100E+02  0.94609605176E+02  0.66924937796E+03  0.65864270000E+03 0. -1.
    8880022    1    1    2    0    0  0.64897363695E+02 -0.30362451100E+02  0.16519633711E+04  0.16605746532E+04  0.15294330000E+03 0.  0.
<mgrwt>
<rscale>  0 0.47076798E+03</rscale>
<asrwt>0</asrwt>
<pdfrwt beam="1">  1        2 0.44865465E-01 0.66252830E+03</pdfrwt>
<pdfrwt beam="2">  1       -2 0.31356901E+00 0.66252830E+03</pdfrwt>
<totfact> 0.31416260E+00</totfact>
</mgrwt>
</event>
<event>
 4    1  0.5661211E-007  0.7443285E+03  0.7818608E-02  0.9847513E-01
          2   -1    0    0  501    0  0.00000000000E+00  0.00000000000E+00  0.17354053997E+04  0.17354053997E+04  0.25500000000E-02 0. -1.
         -2   -1    0    0    0  501 -0.00000000000E+00 -0.00000000000E+00 -0.98087567828E+03  0.98087567828E+03  0.25500000000E-02 0.  1.
    8880023    1    1    2    0    0 -0.68754357669E+02 -0.33983469809E+03  0.16137869914E+04  0.17771700660E+04  0.65864270000E+03 0. -1.
    8880022    1    1    2    0    0  0.68754357669E+02  0.33983469809E+03 -0.85925726998E+03  0.93911101194E+03  0.15294330000E+03 0.  0.
<mgrwt>
<rscale>  0 0.62873878E+03</rscale>
<asrwt>0</asrwt>
<pdfrwt beam="1">  1        2 0.26698544E+00 0.74432855E+03</pdfrwt>
<pdfrwt beam="2">  1       -2 0.15090395E+00 0.74432855E+03</pdfrwt>
<totfact> 0.28537805E+00</totfact>
</mgrwt>
</event>
<event>
 4    1  0.3565372E-007  0.1487557E+04  0.7818608E-02  0.8918472E-01
          2   -1    0    0  501    0  0.00000000000E+00  0.00000000000E+00  0.17036005006E+04  0.17036005006E+04  0.25500000000E-02 0. -1.
         -2   -1    0    0    0  501 -0.00000000000E+00 -0.00000000000E+00 -0.17516884017E+04  0.17516884017E+04  0.25500000000E-02 0.  1.
    8880023    1    1    2    0    0 -0.47248094155E+03 -0.12473085111E+04  0.96521886932E+03  0.17732665998E+04  0.65864270000E+03 0.  0.
    8880022    1    1    2    0    0  0.47248094155E+03  0.12473085111E+04 -0.10133067704E+04  0.16820223025E+04  0.15294330000E+03 0.  0.
<mgrwt>
<rscale>  0 0.14498963E+04</rscale>
<asrwt>0</asrwt>
<pdfrwt beam="1">  1        2 0.26209238E+00 0.14875574E+04</pdfrwt>
<pdfrwt beam="2">  1       -2 0.26949053E+00 0.14875574E+04</pdfrwt>
<totfact> 0.44797381E-01</totfact>
</mgrwt>
</event>
<event>
 4    1  0.3565372E-007  0.6671147E+03  0.7818608E-02  0.1017822E+00
         -2   -1    0    0    0  501 -0.00000000000E+00  0.00000000000E+00  0.13780565138E+03  0.13780565140E+03  0.25500000000E-02 0.  1.
          2   -1    0    0  501    0  0.00000000000E+00 -0.00000000000E+00 -0.13307821868E+04  0.13307821868E+04  0.25500000000E-02 0. -1.
    8880023    1    1    2    0    0  0.13437640215E+02 -0.10512466349E+03 -0.98342744021E+03  0.11883482240E+04  0.65864270000E+03 0.  0.
    8880022    1    1    2    0    0 -0.13437640215E+02  0.10512466349E+03 -0.20954909518E+03  0.28023961418E+03  0.15294330000E+03 0.  0.
<mgrwt>
<rscale>  0 0.48481004E+03</rscale>
<asrwt>0</asrwt>
<pdfrwt beam="1">  1        2 0.20473571E+00 0.66711466E+03</pdfrwt>
<pdfrwt beam="2">  1       -2 0.21200870E-01 0.66711466E+03</pdfrwt>
<totfact> 0.31039245E+02</totfact>
</mgrwt>
</event>
<event>
 4    1  0.3565372E-007  0.6633751E+03  0.7818608E-02  0.1020937E+00
         -2   -1    0    0    0  501 -0.00000000000E+00  0.00000000000E+00  0.78074393210E+02  0.78074393251E+02  0.25500000000E-02 0.  1.
          2   -1    0    0  501    0  0.00000000000E+00 -0.00000000000E+00 -0.36228061207E+04  0.36228061207E+04  0.25500000000E-02 0. -1.
    8880023    1    1    2    0    0  0.22664351652E+02  0.75780665260E+02 -0.34309573294E+04  0.34945006488E+04  0.65864270000E+03 0. -1.
    8880022    1    1    2    0    0 -0.22664351652E+02 -0.75780665260E+02 -0.11377439809E+03  0.20637986515E+03  0.15294330000E+03 0.  0.
<mgrwt>
<rscale>  0 0.47349881E+03</rscale>
<asrwt>0</asrwt>
<pdfrwt beam="1">  1        2 0.55735466E+00 0.66337515E+03</pdfrwt>
<pdfrwt beam="2">  1       -2 0.12011448E-01 0.66337515E+03</pdfrwt>
<totfact> 0.37089184E+01</totfact>
</mgrwt>
</event>
<event>
 4    1  0.3565372E-007  0.6848886E+03  0.7818608E-02  0.1006683E+00
         -2   -1    0    0    0  501 -0.00000000000E+00  0.00000000000E+00  0.17460868099E+03  0.17460868101E+03  0.25500000000E-02 0.  1.
          2   -1    0    0  501    0  0.00000000000E+00 -0.00000000000E+00 -0.14685237030E+04  0.14685237030E+04  0.25500000000E-02 0. -1.
    8880023    1    1    2    0    0 -0.18349956829E+03 -0.39875498936E+02 -0.12032827893E+04  0.13845439048E+04  0.65864270000E+03 0. -1.
    8880022    1    1    2    0    0  0.18349956829E+03  0.39875498936E+02 -0.90632232742E+02  0.25858847925E+03  0.15294330000E+03 0.  0.
<mgrwt>
<rscale>  0 0.52814352E+03</rscale>
<asrwt>0</asrwt>
<pdfrwt beam="1">  1        2 0.22592672E+00 0.68488857E+03</pdfrwt>
<pdfrwt beam="2">  1       -2 0.26862875E-01 0.68488857E+03</pdfrwt>
<totfact> 0.16971638E+02</totfact>
</mgrwt>
</event>
<event>
 4    1  0.3565372E-007  0.6674847E+03  0.7818608E-02  0.1017534E+00
         -2   -1    0    0    0  501 -0.00000000000E+00  0.00000000000E+00  0.60804384394E+02  0.60804384447E+02  0.25500000000E-02 0.  1.
          2   -1    0    0  501    0  0.00000000000E+00 -0.00000000000E+00 -0.30816894561E+04  0.30816894561E+04  0.25500000000E-02 0. -1.
    8880023    1    1    2    0    0  0.77291840440E+02  0.75839430023E+02 -0.21309955010E+04  0.22330870291E+04  0.65864270000E+03 0.  1.
    8880022    1    1    2    0    0 -0.77291840440E+02 -0.75839430023E+02 -0.88988957066E+03  0.90940681146E+03  0.15294330000E+03 0. -1.
<mgrwt>
<rscale>  0 0.48587118E+03</rscale>
<asrwt>0</asrwt>
<pdfrwt beam="1">  1        2 0.47410595E+00 0.66748472E+03</pdfrwt>
<pdfrwt beam="2">  1       -2 0.93545231E-02 0.66748472E+03</pdfrwt>
<totfact> 0.12651640E+02</totfact>
</mgrwt>
</event>
<event>
 4    1  0.3565372E-007  0.1133145E+04  0.7818608E-02  0.9225021E-01
          2   -1    0    0  501    0  0.00000000000E+00  0.00000000000E+00  0.11025819824E+04  0.11025819824E+04  0.25500000000E-02 0. -1.
         -2   -1    0    0    0  501 -0.00000000000E+00 -0.00000000000E+00 -0.13360782710E+04  0.13360782710E+04  0.25500000000E-02 0.  1.
    8880023    1    1    2    0    0 -0.18523042172E+03  0.90327019783E+03  0.51166457348E+03  0.12433093748E+04  0.65864270000E+03 0.  0.
    8880022    1    1    2    0    0  0.18523042172E+03 -0.90327019783E+03 -0.74516086208E+03  0.11953508785E+04  0.15294330000E+03 0.  0.
<mgrwt>
<rscale>  0 0.10798865E+04</rscale>
<asrwt>0</asrwt>
<pdfrwt beam="1">  1        2 0.16962800E+00 0.11331450E+04</pdfrwt>
<pdfrwt beam="2">  1       -2 0.20555050E+00 0.11331450E+04</pdfrwt>
<totfact> 0.25978772E+00</totfact>
</mgrwt>
</event>
<event>
 4    1  0.3565372E-007  0.9242323E+03  0.7818608E-02  0.9488200E-01
         -2   -1    0    0    0  501 -0.00000000000E+00  0.00000000000E+00  0.37095987877E+03  0.37095987878E+03  0.25500000000E-02 0.  1.
          2   -1    0    0  501    0  0.00000000000E+00 -0.00000000000E+00 -0.19826802817E+04  0.19826802817E+04  0.25500000000E-02 0. -1.
    8880023    1    1    2    0    0 -0.13694558178E+03  0.63375153847E+03 -0.13539711410E+04  0.16393422955E+04  0.65864270000E+03 0.  0.
    8880022    1    1    2    0    0  0.13694558178E+03 -0.63375153847E+03 -0.25774926191E+03  0.71429786497E+03  0.15294330000E+03 0.  0.
<mgrwt>
<rscale>  0 0.85159410E+03</rscale>
<asrwt>0</asrwt>
<pdfrwt beam="1">  1        2 0.30502773E+00 0.92423228E+03</pdfrwt>
<pdfrwt beam="2">  1       -2 0.57070752E-01 0.92423228E+03</pdfrwt>
<totfact> 0.19889044E+01</totfact>
</mgrwt>
</event>
<event>
 4    1  0.3565372E-007  0.7286139E+03  0.7818608E-02  0.9894449E-01
          2   -1    0    0  501    0  0.00000000000E+00  0.00000000000E+00  0.13252138575E+04  0.13252138575E+04  0.25500000000E-02 0. -1.
         -2   -1    0    0    0  501 -0.00000000000E+00 -0.00000000000E+00 -0.43454178532E+03  0.43454178533E+03  0.25500000000E-02 0.  1.
    8880023    1    1    2    0    0  0.16266551038E+03 -0.26572149356E+03  0.11254627940E+04  0.13407254333E+04  0.65864270000E+03 0. -1.
    8880022    1    1    2    0    0 -0.16266551038E+03  0.26572149356E+03 -0.23479072188E+03  0.41903020953E+03  0.15294330000E+03 0.  0.
<mgrwt>
<rscale>  0 0.60531059E+03</rscale>
<asrwt>0</asrwt>
<pdfrwt beam="1">  1        2 0.20387905E+00 0.72861388E+03</pdfrwt>
<pdfrwt beam="2">  1       -2 0.66852583E-01 0.72861388E+03</pdfrwt>
<totfact> 0.33580099E+01</totfact>
</mgrwt>
</event>
<event>
 4    1  0.3565372E-007  0.7150119E+03  0.7818608E-02  0.9939840E-01
          2   -1    0    0  501    0  0.00000000000E+00  0.00000000000E+00  0.26624679119E+04  0.26624679119E+04  0.25500000000E-02 0. -1.
         -2   -1    0    0    0  501 -0.00000000000E+00 -0.00000000000E+00 -0.13128631644E+03  0.13128631647E+03  0.25500000000E-02 0.  1.
    8880023    1    1    2    0    0 -0.34870119565E+02  0.27607220329E+03  0.22782055233E+04  0.23877735234E+04  0.65864270000E+03 0. -1.
    8880022    1    1    2    0    0  0.34870119565E+02 -0.27607220329E+03  0.25297607218E+03  0.40598070494E+03  0.15294330000E+03 0.  0.
<mgrwt>
<rscale>  0 0.58368715E+03</rscale>
<asrwt>0</asrwt>
<pdfrwt beam="1">  1        2 0.40961045E+00 0.71501188E+03</pdfrwt>
<pdfrwt beam="2">  1       -2 0.20197895E-01 0.71501188E+03</pdfrwt>
<totfact> 0.61522038E+01</totfact>
</mgrwt>
</event>
<event>
 4    1  0.3565372E-007  0.1116332E+04  0.7818608E-02  0.9243087E-01
          2   -1    0    0  501    0  0.00000000000E+00  0.00000000000E+00  0.23544501327E+04  0.23544501327E+04  0.25500000000E-02 0. -1.
         -2   -1    0    0    0  501 -0.00000000000E+00 -0.00000000000E+00 -0.46723960202E+03  0.46723960203E+03  0.25500000000E-02 0.  1.
    8880023    1    1    2    0    0 -0.10866298703E+03 -0.89475078424E+03  0.67911141930E+03  0.13066710132E+04  0.65864270000E+03 0.  0.
    8880022    1    1    2    0    0  0.10866298703E+03  0.89475078424E+03  0.12080991114E+04  0.15150187215E+04  0.15294330000E+03 0.  0.
<mgrwt>
<rscale>  0 0.10619556E+04</rscale>
<asrwt>0</asrwt>
<pdfrwt beam="1">  1        2 0.36222309E+00 0.11163319E+04</pdfrwt>
<pdfrwt beam="2">  1       -2 0.71883018E-01 0.11163319E+04</pdfrwt>
<totfact> 0.73642509E+00</totfact>
</mgrwt>
</event>
<event>
 4    1  0.3565372E-007  0.7155666E+03  0.7818608E-02  0.9937883E-01
         -2   -1    0    0    0  501 -0.00000000000E+00  0.00000000000E+00  0.16229729898E+04  0.16229729898E+04  0.25500000000E-02 0.  1.
          2   -1    0    0  501    0  0.00000000000E+00 -0.00000000000E+00 -0.90071143051E+03  0.90071143052E+03  0.25500000000E-02 0. -1.
    8880023    1    1    2    0    0 -0.24449043112E+03 -0.13582981825E+03 -0.73863980028E+03  0.10284086110E+04  0.65864270000E+03 0. -1.
    8880022    1    1    2    0    0  0.24449043112E+03  0.13582981825E+03  0.14609013596E+04  0.14952758093E+04  0.15294330000E+03 0.  0.
<mgrwt>
<rscale>  0 0.58459932E+03</rscale>
<asrwt>0</asrwt>
<pdfrwt beam="1">  1        2 0.13857099E+00 0.71556657E+03</pdfrwt>
<pdfrwt beam="2">  1       -2 0.24968815E+00 0.71556657E+03</pdfrwt>
<totfact> 0.19636779E+00</totfact>
</mgrwt>
</event>
<event>
 4    1  0.3565372E-007  0.6797416E+03  0.7818608E-02  0.1009470E+00
          2   -1    0    0  501    0  0.00000000000E+00  0.00000000000E+00  0.11519768996E+04  0.11519768996E+04  0.25500000000E-02 0. -1.
         -2   -1    0    0    0  501 -0.00000000000E+00 -0.00000000000E+00 -0.34612486471E+03  0.34612486472E+03  0.25500000000E-02 0.  1.
    8880023    1    1    2    0    0 -0.88692870866E+02  0.14273046697E+03  0.99324722449E+03  0.12035732910E+04  0.65864270000E+03 0. -1.
    8880022    1    1    2    0    0  0.88692870866E+02 -0.14273046697E+03 -0.18739518956E+03  0.29452847338E+03  0.15294330000E+03 0.  0.
<mgrwt>
<rscale>  0 0.51685737E+03</rscale>
<asrwt>0</asrwt>
<pdfrwt beam="1">  1        2 0.17722721E+00 0.67974158E+03</pdfrwt>
<pdfrwt beam="2">  1       -2 0.53249979E-01 0.67974158E+03</pdfrwt>
<totfact> 0.68844479E+01</totfact>
</mgrwt>
</event>
<event>
 4    1  0.3565372E-007  0.1126682E+04  0.7818608E-02  0.9231915E-01
          2   -1    0    0  501    0  0.00000000000E+00  0.00000000000E+00  0.11023804514E+04  0.11023804514E+04  0.25500000000E-02 0. -1.
         -2   -1    0    0    0  501 -0.00000000000E+00 -0.00000000000E+00 -0.10667235201E+04  0.10667235202E+04  0.25500000000E-02 0.  1.
    8880023    1    1    2    0    0  0.22503762190E+03  0.88597950784E+03 -0.32806068960E+03  0.11734716196E+04  0.65864270000E+03 0.  0.
    8880022    1    1    2    0    0 -0.22503762190E+03 -0.88597950784E+03  0.36371762083E+03  0.99563235198E+03  0.15294330000E+03 0.  0.
<mgrwt>
<rscale>  0 0.10729999E+04</rscale>
<asrwt>0</asrwt>
<pdfrwt beam="1">  1        2 0.16959699E+00 0.11266818E+04</pdfrwt>
<pdfrwt beam="2">  1       -2 0.16411131E+00 0.11266818E+04</pdfrwt>
<totfact> 0.49952864E+00</totfact>
</mgrwt>
</event>
<event>
 4    1  0.3565372E-007  0.9812764E+03  0.7818608E-02  0.9406474E-01
          2   -1    0    0  501    0  0.00000000000E+00  0.00000000000E+00  0.92346712373E+03  0.92346712373E+03  0.25500000000E-02 0. -1.
         -2   -1    0    0    0  501 -0.00000000000E+00 -0.00000000000E+00 -0.99748470190E+03  0.99748470190E+03  0.25500000000E-02 0.  1.
    8880023    1    1    2    0    0  0.38085356785E+03  0.61971257156E+03  0.37736530087E+03  0.10513362393E+04  0.65864270000E+03 0. -1.
    8880022    1    1    2    0    0 -0.38085356785E+03 -0.61971257156E+03 -0.45138287904E+03  0.86961558634E+03  0.15294330000E+03 0.  0.
<mgrwt>
<rscale>  0 0.91544771E+03</rscale>
<asrwt>0</asrwt>
<pdfrwt beam="1">  1        2 0.14207187E+00 0.98127637E+03</pdfrwt>
<pdfrwt beam="2">  1       -2 0.15345918E+00 0.98127637E+03</pdfrwt>
<totfact> 0.79173316E+00</totfact>
</mgrwt>
</event>
<event>
 4    1  0.4143097E-007  0.6752403E+03  0.7818608E-02  0.1012155E+00
          2   -1    0    0  501    0  0.00000000000E+00  0.00000000000E+00  0.81523883175E+03  0.81523883176E+03  0.25500000000E-02 0. -1.
         -2   -1    0    0    0  501 -0.00000000000E+00 -0.00000000000E+00 -0.25694784421E+04  0.25694784421E+04  0.25500000000E-02 0.  1.
    8880023    1    1    2    0    0  0.70189668964E+02 -0.13119721117E+03  0.66992310092E+03  0.95118161528E+03  0.65864270000E+03 0. -1.
    8880022    1    1    2    0    0 -0.70189668964E+02  0.13119721117E+03 -0.24241627112E+04  0.24335356585E+04  0.15294330000E+03 0.  0.
<mgrwt>
<rscale>  0 0.50626992E+03</rscale>
<asrwt>0</asrwt>
<pdfrwt beam="1">  1        2 0.12542136E+00 0.67524033E+03</pdfrwt>
<pdfrwt beam="2">  1       -2 0.39530437E+00 0.67524033E+03</pdfrwt>
<totfact> 0.29016350E-01</totfact>
</mgrwt>
</event>
<event>
 4    1  0.3565372E-007  0.8032517E+03  0.7818608E-02  0.9703809E-01
          2   -1    0    0  501    0  0.00000000000E+00  0.00000000000E+00  0.45258605604E+03  0.45258605605E+03  0.25500000000E-02 0. -1.
         -2   -1    0    0    0  501 -0.00000000000E+00 -0.00000000000E+00 -0.94330125466E+03  0.94330125466E+03  0.25500000000E-02 0.  1.
    8880023    1    1    2    0    0  0.61338375879E+02 -0.45567601234E+03 -0.18937592146E+03  0.82527357311E+03  0.65864270000E+03 0.  0.
    8880022    1    1    2    0    0 -0.61338375879E+02  0.45567601234E+03 -0.30133927716E+03  0.57061373761E+03  0.15294330000E+03 0. -1.
<mgrwt>
<rscale>  0 0.70790463E+03</rscale>
<asrwt>0</asrwt>
<pdfrwt beam="1">  1        2 0.69628624E-01 0.80325166E+03</pdfrwt>
<pdfrwt beam="2">  1       -2 0.14512327E+00 0.80325166E+03</pdfrwt>
<totfact> 0.22786434E+01</totfact>
</mgrwt>
</event>
<event>
 4    1  0.3565372E-007  0.7160922E+03  0.7818608E-02  0.9936037E-01
          2   -1    0    0  501    0  0.00000000000E+00  0.00000000000E+00  0.20315180342E+04  0.20315180342E+04  0.25500000000E-02 0. -1.
         -2   -1    0    0    0  501 -0.00000000000E+00 -0.00000000000E+00 -0.18704837109E+03  0.18704837111E+03  0.25500000000E-02 0.  1.
    8880023    1    1    2    0    0 -0.12551190158E+03 -0.25144506232E+03  0.17406476748E+04  0.18821908487E+04  0.65864270000E+03 0. -1.
    8880022    1    1    2    0    0  0.12551190158E+03  0.25144506232E+03  0.10382198826E+03  0.33637555658E+03  0.15294330000E+03 0.  0.
<mgrwt>
<rscale>  0 0.58546110E+03</rscale>
<asrwt>0</asrwt>
<pdfrwt beam="1">  1        2 0.31254125E+00 0.71609222E+03</pdfrwt>
<pdfrwt beam="2">  1       -2 0.28776671E-01 0.71609222E+03</pdfrwt>
<totfact> 0.73376708E+01</totfact>
</mgrwt>
</event>
<event>
 4    1  0.3565372E-007  0.7364244E+03  0.7818608E-02  0.9870488E-01
          2   -1    0    0  501    0  0.00000000000E+00  0.00000000000E+00  0.14306229629E+04  0.14306229629E+04  0.25500000000E-02 0. -1.
         -2   -1    0    0    0  501 -0.00000000000E+00 -0.00000000000E+00 -0.37919616447E+03  0.37919616448E+03  0.25500000000E-02 0.  1.
    8880023    1    1    2    0    0 -0.31147248933E+03  0.10721752154E+03  0.12076388138E+04  0.14144654183E+04  0.65864270000E+03 0. -1.
    8880022    1    1    2    0    0  0.31147248933E+03 -0.10721752154E+03 -0.15621201540E+03  0.39535370911E+03  0.15294330000E+03 0.  0.
<mgrwt>
<rscale>  0 0.61713148E+03</rscale>
<asrwt>0</asrwt>
<pdfrwt beam="1">  1        2 0.22009584E+00 0.73642441E+03</pdfrwt>
<pdfrwt beam="2">  1       -2 0.58337871E-01 0.73642441E+03</pdfrwt>
<totfact> 0.39075423E+01</totfact>
</mgrwt>
</event>
<event>
 4    1  0.3565372E-007  0.7078954E+03  0.7818608E-02  0.9965901E-01
          2   -1    0    0  501    0  0.00000000000E+00  0.00000000000E+00  0.85066063286E+03  0.85066063287E+03  0.25500000000E-02 0. -1.
         -2   -1    0    0    0  501 -0.00000000000E+00 -0.00000000000E+00 -0.31267048916E+03  0.31267048917E+03  0.25500000000E-02 0.  1.
    8880023    1    1    2    0    0 -0.21487562370E+03  0.14537571752E+03  0.48356530092E+03  0.85729297176E+03  0.65864270000E+03 0.  0.
    8880022    1    1    2    0    0  0.21487562370E+03 -0.14537571752E+03  0.54424842778E+02  0.30603815029E+03  0.15294330000E+03 0.  0.
<mgrwt>
<rscale>  0 0.57171039E+03</rscale>
<asrwt>0</asrwt>
<pdfrwt beam="1">  1        2 0.13087087E+00 0.70789536E+03</pdfrwt>
<pdfrwt beam="2">  1       -2 0.48103153E-01 0.70789536E+03</pdfrwt>
<totfact> 0.13167017E+02</totfact>
</mgrwt>
</event>
<event>
 4    1  0.3565372E-007  0.8698438E+03  0.7818608E-02  0.9576287E-01
         -2   -1    0    0    0  501 -0.00000000000E+00  0.00000000000E+00  0.60346586034E+03  0.60346586034E+03  0.25500000000E-02 0.  1.
          2   -1    0    0  501    0  0.00000000000E+00 -0.00000000000E+00 -0.34346997111E+04  0.34346997111E+04  0.25500000000E-02 0. -1.
    8880023    1    1    2    0    0 -0.51525401041E+03 -0.23943978931E+03 -0.32183610613E+04  0.33338380637E+04  0.65864270000E+03 0. -1.
    8880022    1    1    2    0    0  0.51525401041E+03  0.23943978931E+03  0.38712721055E+03  0.70432750771E+03  0.15294330000E+03 0.  0.
<mgrwt>
<rscale>  0 0.78885718E+03</rscale>
<asrwt>0</asrwt>
<pdfrwt beam="1">  1        2 0.52841533E+00 0.86984384E+03</pdfrwt>
<pdfrwt beam="2">  1       -2 0.92840904E-01 0.86984384E+03</pdfrwt>
<totfact> 0.93850500E-01</totfact>
</mgrwt>
</event>
<event>
 4    1  0.3565372E-007  0.9799384E+03  0.7818608E-02  0.9408288E-01
          2   -1    0    0  501    0  0.00000000000E+00  0.00000000000E+00  0.77842150710E+03  0.77842150711E+03  0.25500000000E-02 0. -1.
         -2   -1    0    0    0  501 -0.00000000000E+00 -0.00000000000E+00 -0.16194468735E+04  0.16194468735E+04  0.25500000000E-02 0.  1.
    8880023    1    1    2    0    0  0.56481001608E+03  0.45547639594E+03  0.31075351884E+03  0.10280306694E+04  0.65864270000E+03 0.  0.
    8880022    1    1    2    0    0 -0.56481001608E+03 -0.45547639594E+03 -0.11517788852E+04  0.13698377112E+04  0.15294330000E+03 0.  0.
<mgrwt>
<rscale>  0 0.91396735E+03</rscale>
<asrwt>0</asrwt>
<pdfrwt beam="1">  1        2 0.11975716E+00 0.97993842E+03</pdfrwt>
<pdfrwt beam="2">  1       -2 0.24914567E+00 0.97993842E+03</pdfrwt>
<totfact> 0.23229562E+00</totfact>
</mgrwt>
</event>
<event>
 4    1  0.3565372E-007  0.1354188E+04  0.7818608E-02  0.9020123E-01
         -2   -1    0    0    0  501 -0.00000000000E+00  0.00000000000E+00  0.17911496363E+04  0.17911496363E+04  0.25500000000E-02 0.  1.
          2   -1    0    0  501    0  0.00000000000E+00 -0.00000000000E+00 -0.15203713614E+04  0.15203713614E+04  0.25500000000E-02 0. -1.
    8880023    1    1    2    0    0 -0.78299747697E+02  0.11806282574E+04 -0.91110730938E+03  0.16321582852E+04  0.65864270000E+03 0.  0.
    8880022    1    1    2    0    0  0.78299747697E+02 -0.11806282574E+04  0.11818855843E+04  0.16793627124E+04  0.15294330000E+03 0.  0.
<mgrwt>
<rscale>  0 0.13119740E+04</rscale>
<asrwt>0</asrwt>
<pdfrwt beam="1">  1        2 0.23390329E+00 0.13541876E+04</pdfrwt>
<pdfrwt beam="2">  1       -2 0.27556148E+00 0.13541876E+04</pdfrwt>
<totfact> 0.52934719E-01</totfact>
</mgrwt>
</event>
<event>
 4    1  0.3565372E-007  0.9005841E+03  0.7818608E-02  0.9525095E-01
          2   -1    0    0  501    0  0.00000000000E+00  0.00000000000E+00  0.23088392424E+04  0.23088392424E+04  0.25500000000E-02 0. -1.
         -2   -1    0    0    0  501 -0.00000000000E+00 -0.00000000000E+00 -0.52154349407E+03  0.52154349408E+03  0.25500000000E-02 0.  1.
    8880023    1    1    2    0    0 -0.60953656581E+03  0.75542835126E+02  0.19746159466E+04  0.21702902773E+04  0.65864270000E+03 0.  0.
    8880022    1    1    2    0    0  0.60953656581E+03 -0.75542835126E+02 -0.18732019824E+03  0.66009245919E+03  0.15294330000E+03 0.  0.
<mgrwt>
<rscale>  0 0.82458718E+03</rscale>
<asrwt>0</asrwt>
<pdfrwt beam="1">  1        2 0.35520604E+00 0.90058412E+03</pdfrwt>
<pdfrwt beam="2">  1       -2 0.80237460E-01 0.90058412E+03</pdfrwt>
<totfact> 0.62772435E+00</totfact>
</mgrwt>
</event>
<event>
 4    1  0.3565372E-007  0.7879226E+03  0.7818608E-02  0.9737545E-01
         -2   -1    0    0    0  501 -0.00000000000E+00  0.00000000000E+00  0.54878326511E+03  0.54878326512E+03  0.25500000000E-02 0.  1.
          2   -1    0    0  501    0  0.00000000000E+00 -0.00000000000E+00 -0.21537072259E+04  0.21537072259E+04  0.25500000000E-02 0. -1.
    8880023    1    1    2    0    0  0.19539581482E+03 -0.38578784532E+03 -0.19664619560E+04  0.21184415538E+04  0.65864270000E+03 0. -1.
    8880022    1    1    2    0    0 -0.19539581482E+03  0.38578784532E+03  0.36153799525E+03  0.58404893722E+03  0.15294330000E+03 0.  0.
<mgrwt>
<rscale>  0 0.68824690E+03</rscale>
<asrwt>0</asrwt>
<pdfrwt beam="1">  1        2 0.33133957E+00 0.78792258E+03</pdfrwt>
<pdfrwt beam="2">  1       -2 0.84428196E-01 0.78792258E+03</pdfrwt>
<totfact> 0.69328037E+00</totfact>
</mgrwt>
</event>
<event>
 4    1  0.3565372E-007  0.7543798E+03  0.7818608E-02  0.9819881E-01
         -2   -1    0    0    0  501 -0.00000000000E+00  0.00000000000E+00  0.17375062992E+03  0.17375062994E+03  0.25500000000E-02 0.  1.
          2   -1    0    0  501    0  0.00000000000E+00 -0.00000000000E+00 -0.25876858596E+04  0.25876858596E+04  0.25500000000E-02 0. -1.
    8880023    1    1    2    0    0 -0.20228323252E+03  0.30718098920E+03 -0.21626945805E+04  0.22904883150E+04  0.65864270000E+03 0.  0.
    8880022    1    1    2    0    0  0.20228323252E+03 -0.30718098920E+03 -0.25124064915E+03  0.47094817452E+03  0.15294330000E+03 0.  0.
<mgrwt>
<rscale>  0 0.64306444E+03</rscale>
<asrwt>0</asrwt>
<pdfrwt beam="1">  1        2 0.39810549E+00 0.75437979E+03</pdfrwt>
<pdfrwt beam="2">  1       -2 0.26730868E-01 0.75437979E+03</pdfrwt>
<totfact> 0.40964431E+01</totfact>
</mgrwt>
</event>
<event>
 4    1  0.3565372E-007  0.6802872E+03  0.7818608E-02  0.1009162E+00
         -2   -1    0    0    0  501 -0.00000000000E+00  0.00000000000E+00  0.12834392197E+03  0.12834392199E+03  0.25500000000E-02 0.  1.
          2   -1    0    0  501    0  0.00000000000E+00 -0.00000000000E+00 -0.21656282410E+04  0.21656282410E+04  0.25500000000E-02 0. -1.
    8880023    1    1    2    0    0  0.16350674188E+03  0.47392764619E+02 -0.19197174620E+04  0.20366899295E+04  0.65864270000E+03 0.  0.
    8880022    1    1    2    0    0 -0.16350674188E+03 -0.47392764619E+02 -0.11756685701E+03  0.25728223347E+03  0.15294330000E+03 0.  0.
<mgrwt>
<rscale>  0 0.51809193E+03</rscale>
<asrwt>0</asrwt>
<pdfrwt beam="1">  1        2 0.33317355E+00 0.68028724E+03</pdfrwt>
<pdfrwt beam="2">  1       -2 0.19745220E-01 0.68028724E+03</pdfrwt>
<totfact> 0.12219458E+02</totfact>
</mgrwt>
</event>
<event>
 4    1  0.3565372E-007  0.9590061E+03  0.7818608E-02  0.9437273E-01
          2   -1    0    0  501    0  0.00000000000E+00  0.00000000000E+00  0.14305818933E+04  0.14305818933E+04  0.25500000000E-02 0. -1.
         -2   -1    0    0    0  501 -0.00000000000E+00 -0.00000000000E+00 -0.69194021212E+03  0.69194021213E+03  0.25500000000E-02 0.  1.
    8880023    1    1    2    0    0 -0.69523865316E+03 -0.50257286702E+02  0.97807738705E+03  0.13697912838E+04  0.65864270000E+03 0. -1.
    8880022    1    1    2    0    0  0.69523865316E+03  0.50257286702E+02 -0.23943570584E+03  0.75273082172E+03  0.15294330000E+03 0.  0.
<mgrwt>
<rscale>  0 0.89070729E+03</rscale>
<asrwt>0</asrwt>
<pdfrwt beam="1">  1        2 0.22008952E+00 0.95900614E+03</pdfrwt>
<pdfrwt beam="2">  1       -2 0.10645234E+00 0.95900614E+03</pdfrwt>
<totfact> 0.98724084E+00</totfact>
</mgrwt>
</event>
<event>
 4    1  0.3565372E-007  0.7164483E+03  0.7818608E-02  0.9934792E-01
         -2   -1    0    0    0  501 -0.00000000000E+00  0.00000000000E+00  0.11076280931E+04  0.11076280932E+04  0.25500000000E-02 0.  1.
          2   -1    0    0  501    0  0.00000000000E+00 -0.00000000000E+00 -0.24430698673E+03  0.24430698674E+03  0.25500000000E-02 0. -1.
    8880023    1    1    2    0    0 -0.28187925365E+03  0.56610417063E+01  0.64425467832E+03  0.96351557218E+03  0.65864270000E+03 0.  1.
    8880022    1    1    2    0    0  0.28187925365E+03 -0.56610417063E+01  0.21906642810E+03  0.38841950771E+03  0.15294330000E+03 0. -1.
<mgrwt>
<rscale>  0 0.58604344E+03</rscale>
<asrwt>0</asrwt>
<pdfrwt beam="1">  1        2 0.37585691E-01 0.71644830E+03</pdfrwt>
<pdfrwt beam="2">  1       -2 0.17040432E+00 0.71644830E+03</pdfrwt>
<totfact> 0.29685380E+01</totfact>
</mgrwt>
</event>
<event>
 4    1  0.3565372E-007  0.8626344E+03  0.7818608E-02  0.9588894E-01
         -2   -1    0    0    0  501 -0.00000000000E+00  0.00000000000E+00  0.25962407756E+03  0.25962407758E+03  0.25500000000E-02 0.  1.
          2   -1    0    0  501    0  0.00000000000E+00 -0.00000000000E+00 -0.31937296042E+04  0.31937296042E+04  0.25500000000E-02 0. -1.
    8880023    1    1    2    0    0  0.18451235307E+03  0.52562632307E+03 -0.26922676198E+04  0.28270909045E+04  0.65864270000E+03 0.  0.
    8880022    1    1    2    0    0 -0.18451235307E+03 -0.52562632307E+03 -0.24183790690E+03  0.62626277725E+03  0.15294330000E+03 0.  0.
<mgrwt>
<rscale>  0 0.78035598E+03</rscale>
<asrwt>0</asrwt>
<pdfrwt beam="1">  1        2 0.49134299E+00 0.86263436E+03</pdfrwt>
<pdfrwt beam="2">  1       -2 0.39942168E-01 0.86263436E+03</pdfrwt>
<totfact> 0.81476399E+00</totfact>
</mgrwt>
</event>
<event>
 4    1  0.3565372E-007  0.7266829E+03  0.7818608E-02  0.9900590E-01
         -2   -1    0    0    0  501 -0.00000000000E+00  0.00000000000E+00  0.46680833192E+03  0.46680833193E+03  0.25500000000E-02 0.  1.
          2   -1    0    0  501    0  0.00000000000E+00 -0.00000000000E+00 -0.66879223293E+03  0.66879223294E+03  0.25500000000E-02 0. -1.
    8880023    1    1    2    0    0  0.30082123165E+03 -0.61355314428E+02 -0.28849987145E+03  0.78185693711E+03  0.65864270000E+03 0. -1.
    8880022    1    1    2    0    0 -0.30082123165E+03  0.61355314428E+02  0.86515970437E+02  0.35374362775E+03  0.15294330000E+03 0.  0.
<mgrwt>
<rscale>  0 0.60232724E+03</rscale>
<asrwt>0</asrwt>
<pdfrwt beam="1">  1        2 0.10289111E+00 0.72668294E+03</pdfrwt>
<pdfrwt beam="2">  1       -2 0.71816667E-01 0.72668294E+03</pdfrwt>
<totfact> 0.77311206E+01</totfact>
</mgrwt>
</event>
<event>
 4    1  0.3565372E-007  0.8554813E+03  0.7818608E-02  0.9601652E-01
         -2   -1    0    0    0  501 -0.00000000000E+00  0.00000000000E+00  0.98298158221E+03  0.98298158221E+03  0.25500000000E-02 0.  1.
          2   -1    0    0  501    0  0.00000000000E+00 -0.00000000000E+00 -0.89367352202E+03  0.89367352203E+03  0.25500000000E-02 0. -1.
    8880023    1    1    2    0    0 -0.49160705501E+03  0.23740368419E+03 -0.55398109840E+03  0.10191875536E+04  0.65864270000E+03 0. -1.
    8880022    1    1    2    0    0  0.49160705501E+03 -0.23740368419E+03  0.64328915858E+03  0.85746755062E+03  0.15294330000E+03 0.  0.
<mgrwt>
<rscale>  0 0.77186905E+03</rscale>
<asrwt>0</asrwt>
<pdfrwt beam="1">  1        2 0.13748823E+00 0.85548128E+03</pdfrwt>
<pdfrwt beam="2">  1       -2 0.15122794E+00 0.85548128E+03</pdfrwt>
<totfact> 0.87290874E+00</totfact>
</mgrwt>
</event>
<event>
 4    1  0.3565372E-007  0.6769829E+03  0.7818608E-02  0.1011084E+00
         -2   -1    0    0    0  501 -0.00000000000E+00  0.00000000000E+00  0.26262253690E+03  0.26262253691E+03  0.25500000000E-02 0.  1.
          2   -1    0    0  501    0  0.00000000000E+00 -0.00000000000E+00 -0.12176453919E+04  0.12176453919E+04  0.25500000000E-02 0. -1.
    8880023    1    1    2    0    0  0.32559984716E+02  0.15308675033E+03 -0.10437983347E+04  0.12441144945E+04  0.65864270000E+03 0. -1.
    8880022    1    1    2    0    0 -0.32559984716E+02 -0.15308675033E+03  0.88775479670E+02  0.23615343431E+03  0.15294330000E+03 0.  0.
<mgrwt>
<rscale>  0 0.51045905E+03</rscale>
<asrwt>0</asrwt>
<pdfrwt beam="1">  1        2 0.18733006E+00 0.67698295E+03</pdfrwt>
<pdfrwt beam="2">  1       -2 0.40403468E-01 0.67698295E+03</pdfrwt>
<totfact> 0.10946087E+02</totfact>
</mgrwt>
</event>
<event>
 4    1  0.3565372E-007  0.1352730E+04  0.7818608E-02  0.9021311E-01
         -2   -1    0    0    0  501 -0.00000000000E+00  0.00000000000E+00  0.46252219778E+03  0.46252219778E+03  0.25500000000E-02 0.  1.
          2   -1    0    0  501    0  0.00000000000E+00 -0.00000000000E+00 -0.41548568907E+04  0.41548568907E+04  0.25500000000E-02 0. -1.
    8880023    1    1    2    0    0 -0.11103959506E+04  0.40384379190E+03 -0.28607471938E+04  0.31644515620E+04  0.65864270000E+03 0.  0.
    8880022    1    1    2    0    0  0.11103959506E+04 -0.40384379190E+03 -0.83158749916E+03  0.14529275265E+04  0.15294330000E+03 0.  0.
<mgrwt>
<rscale>  0 0.13104602E+04</rscale>
<asrwt>0</asrwt>
<pdfrwt beam="1">  1        2 0.63920873E+00 0.13527303E+04</pdfrwt>
<pdfrwt beam="2">  1       -2 0.71157264E-01 0.13527303E+04</pdfrwt>
<totfact> 0.45573575E-01</totfact>
</mgrwt>
</event>
<event>
 4    1  0.3565372E-007  0.6866916E+03  0.7818608E-02  0.1005766E+00
          2   -1    0    0  501    0  0.00000000000E+00  0.00000000000E+00  0.10916982459E+04  0.10916982460E+04  0.25500000000E-02 0. -1.
         -2   -1    0    0    0  501 -0.00000000000E+00 -0.00000000000E+00 -0.38087544882E+03  0.38087544883E+03  0.25500000000E-02 0.  1.
    8880023    1    1    2    0    0 -0.16981002615E+03  0.94338029594E+02  0.92048418944E+03  0.11484060510E+04  0.65864270000E+03 0. -1.
    8880022    1    1    2    0    0  0.16981002615E+03 -0.94338029594E+02 -0.20966139231E+03  0.32416764374E+03  0.15294330000E+03 0.  0.
<mgrwt>
<rscale>  0 0.53192477E+03</rscale>
<asrwt>0</asrwt>
<pdfrwt beam="1">  1        2 0.16795357E+00 0.68669157E+03</pdfrwt>
<pdfrwt beam="2">  1       -2 0.58596223E-01 0.68669157E+03</pdfrwt>
<totfact> 0.61332298E+01</totfact>
</mgrwt>
</event>
<event>
 4    1  0.3565372E-007  0.6897693E+03  0.7818608E-02  0.1004262E+00
          2   -1    0    0  501    0  0.00000000000E+00  0.00000000000E+00  0.87291275140E+03  0.87291275141E+03  0.25500000000E-02 0. -1.
         -2   -1    0    0    0  501 -0.00000000000E+00 -0.00000000000E+00 -0.36665831528E+03  0.36665831529E+03  0.25500000000E-02 0.  1.
    8880023    1    1    2    0    0 -0.28524191971E+02  0.20287394443E+03  0.64871546432E+03  0.94689673501E+03  0.65864270000E+03 0.  0.
    8880022    1    1    2    0    0  0.28524191971E+02 -0.20287394443E+03 -0.14246102820E+03  0.29267433168E+03  0.15294330000E+03 0.  0.
<mgrwt>
<rscale>  0 0.53820098E+03</rscale>
<asrwt>0</asrwt>
<pdfrwt beam="1">  1        2 0.13429427E+00 0.68976929E+03</pdfrwt>
<pdfrwt beam="2">  1       -2 0.56408972E-01 0.68976929E+03</pdfrwt>
<totfact> 0.91814611E+01</totfact>
</mgrwt>
</event>
<event>
 4    1  0.3565372E-007  0.7331346E+03  0.7818608E-02  0.9880416E-01
          2   -1    0    0  501    0  0.00000000000E+00  0.00000000000E+00  0.85582050023E+03  0.85582050024E+03  0.25500000000E-02 0. -1.
         -2   -1    0    0    0  501 -0.00000000000E+00 -0.00000000000E+00 -0.59022750449E+03  0.59022750449E+03  0.25500000000E-02 0.  1.
    8880023    1    1    2    0    0 -0.19765554155E+03 -0.25418197922E+03  0.60749342694E+03  0.95212113815E+03  0.65864270000E+03 0. -1.
    8880022    1    1    2    0    0  0.19765554155E+03  0.25418197922E+03 -0.34190043119E+03  0.49392686658E+03  0.15294330000E+03 0.  0.
<mgrwt>
<rscale>  0 0.61219850E+03</rscale>
<asrwt>0</asrwt>
<pdfrwt beam="1">  1        2 0.13166469E+00 0.73313464E+03</pdfrwt>
<pdfrwt beam="2">  1       -2 0.90804232E-01 0.73313464E+03</pdfrwt>
<totfact> 0.33077700E+01</totfact>
</mgrwt>
</event>
<event>
 4    1  0.3565372E-007  0.8156803E+03  0.7818608E-02  0.9677864E-01
          2   -1    0    0  501    0  0.00000000000E+00  0.00000000000E+00  0.31876599055E+03  0.31876599056E+03  0.25500000000E-02 0. -1.
         -2   -1    0    0    0  501 -0.00000000000E+00 -0.00000000000E+00 -0.19132555566E+04  0.19132555566E+04  0.25500000000E-02 0.  1.
    8880023    1    1    2    0    0 -0.48073875110E+03  0.20356207551E+02 -0.34735182838E+03  0.88655942888E+03  0.65864270000E+03 0.  0.
    8880022    1    1    2    0    0  0.48073875110E+03 -0.20356207551E+02 -0.12471377376E+04  0.13454621182E+04  0.15294330000E+03 0.  0.
<mgrwt>
<rscale>  0 0.72350171E+03</rscale>
<asrwt>0</asrwt>
<pdfrwt beam="1">  1        2 0.49040923E-01 0.81568029E+03</pdfrwt>
<pdfrwt beam="2">  1       -2 0.29434700E+00 0.81568029E+03</pdfrwt>
<totfact> 0.36355589E+00</totfact>
</mgrwt>
</event>
<event>
 4    1  0.3565372E-007  0.9894200E+03  0.7818608E-02  0.9395532E-01
          2   -1    0    0  501    0  0.00000000000E+00  0.00000000000E+00  0.10329671269E+04  0.10329671269E+04  0.25500000000E-02 0. -1.
         -2   -1    0    0    0  501 -0.00000000000E+00 -0.00000000000E+00 -0.89805693850E+03  0.89805693851E+03  0.25500000000E-02 0.  1.
    8880023    1    1    2    0    0 -0.73619542026E+03 -0.56196012125E+02  0.48244508557E+03  0.11007747978E+04  0.65864270000E+03 0.  0.
    8880022    1    1    2    0    0  0.73619542026E+03  0.56196012125E+02 -0.34753489718E+03  0.83024926761E+03  0.15294330000E+03 0.  0.
<mgrwt>
<rscale>  0 0.92444270E+03</rscale>
<asrwt>0</asrwt>
<pdfrwt beam="1">  1        2 0.15891802E+00 0.98941998E+03</pdfrwt>
<pdfrwt beam="2">  1       -2 0.13816261E+00 0.98941998E+03</pdfrwt>
<totfact> 0.88529858E+00</totfact>
</mgrwt>
</event>
<event>
 4    1  0.3565372E-007  0.6707807E+03  0.7818608E-02  0.1015109E+00
         -2   -1    0    0    0  501 -0.00000000000E+00  0.00000000000E+00  0.46080632879E+03  0.46080632880E+03  0.25500000000E-02 0.  1.
          2   -1    0    0  501    0  0.00000000000E+00 -0.00000000000E+00 -0.69720802359E+03  0.69720802359E+03  0.25500000000E-02 0. -1.
    8880023    1    1    2    0    0  0.11395657850E+03  0.56128241595E+02 -0.49368095137E+03  0.83286707781E+03  0.65864270000E+03 0. -1.
    8880022    1    1    2    0    0 -0.11395657850E+03 -0.56128241595E+02  0.25727925658E+03  0.32514727458E+03  0.15294330000E+03 0.  0.
<mgrwt>
<rscale>  0 0.49493559E+03</rscale>
<asrwt>0</asrwt>
<pdfrwt beam="1">  1        2 0.10726277E+00 0.67078066E+03</pdfrwt>
<pdfrwt beam="2">  1       -2 0.70893282E-01 0.67078066E+03</pdfrwt>
<totfact> 0.75802760E+01</totfact>
</mgrwt>
</event>
<event>
 4    1  0.3565372E-007  0.6870324E+03  0.7818608E-02  0.1005596E+00
          2   -1    0    0  501    0  0.00000000000E+00  0.00000000000E+00  0.12551978790E+04  0.12551978790E+04  0.25500000000E-02 0. -1.
         -2   -1    0    0    0  501 -0.00000000000E+00 -0.00000000000E+00 -0.18021658254E+03  0.18021658256E+03  0.25500000000E-02 0.  1.
    8880023    1    1    2    0    0  0.14660996923E+03  0.12926268815E+03  0.89762326184E+03  0.11303720857E+04  0.65864270000E+03 0. -1.
    8880022    1    1    2    0    0 -0.14660996923E+03 -0.12926268815E+03  0.17735803461E+03  0.30504237588E+03  0.15294330000E+03 0.  1.
<mgrwt>
<rscale>  0 0.53263056E+03</rscale>
<asrwt>0</asrwt>
<pdfrwt beam="1">  1        2 0.19310737E+00 0.68703241E+03</pdfrwt>
<pdfrwt beam="2">  1       -2 0.27725627E-01 0.68703241E+03</pdfrwt>
<totfact> 0.21172957E+02</totfact>
</mgrwt>
</event>
<event>
 4    1  0.3565372E-007  0.7227558E+03  0.7818608E-02  0.9913369E-01
         -2   -1    0    0    0  501 -0.00000000000E+00  0.00000000000E+00  0.10368993043E+04  0.10368993043E+04  0.25500000000E-02 0.  1.
          2   -1    0    0  501    0  0.00000000000E+00 -0.00000000000E+00 -0.13568050508E+04  0.13568050508E+04  0.25500000000E-02 0. -1.
    8880023    1    1    2    0    0  0.29624423393E+03  0.28373951146E+02 -0.12285667309E+04  0.14253954349E+04  0.65864270000E+03 0.  0.
    8880022    1    1    2    0    0 -0.29624423393E+03 -0.28373951146E+02  0.90866098444E+03  0.96830892017E+03  0.15294330000E+03 0.  0.
<mgrwt>
<rscale>  0 0.59617708E+03</rscale>
<asrwt>0</asrwt>
<pdfrwt beam="1">  1        2 0.20873924E+00 0.72275579E+03</pdfrwt>
<pdfrwt beam="2">  1       -2 0.15952297E+00 0.72275579E+03</pdfrwt>
<totfact> 0.40040138E+00</totfact>
</mgrwt>
</event>
<event>
 4    1  0.3565372E-007  0.9223913E+03  0.7818608E-02  0.9491002E-01
          2   -1    0    0  501    0  0.00000000000E+00  0.00000000000E+00  0.33164043099E+04  0.33164043099E+04  0.25500000000E-02 0. -1.
         -2   -1    0    0    0  501 -0.00000000000E+00 -0.00000000000E+00 -0.38181126740E+03  0.38181126741E+03  0.25500000000E-02 0.  1.
    8880023    1    1    2    0    0  0.63010030242E+03  0.14131189382E+03  0.28894048560E+04  0.30330621607E+04  0.65864270000E+03 0.  0.
    8880022    1    1    2    0    0 -0.63010030242E+03 -0.14131189382E+03  0.45188186512E+02  0.66515341663E+03  0.15294330000E+03 0.  0.
<mgrwt>
<rscale>  0 0.84950455E+03</rscale>
<asrwt>0</asrwt>
<pdfrwt beam="1">  1        2 0.51021603E+00 0.92239127E+03</pdfrwt>
<pdfrwt beam="2">  1       -2 0.58740197E-01 0.92239127E+03</pdfrwt>
<totfact> 0.30722528E+00</totfact>
</mgrwt>
</event>
<event>
 4    1  0.3565372E-007  0.8195200E+03  0.7818608E-02  0.9670078E-01
         -2   -1    0    0    0  501 -0.00000000000E+00  0.00000000000E+00  0.57293979244E+03  0.57293979244E+03  0.25500000000E-02 0.  1.
          2   -1    0    0  501    0  0.00000000000E+00 -0.00000000000E+00 -0.10156824582E+04  0.10156824582E+04  0.25500000000E-02 0. -1.
    8880023    1    1    2    0    0 -0.45132133692E+03 -0.18469408275E+03 -0.64101356659E+03  0.10404381059E+04  0.65864270000E+03 0.  0.
    8880022    1    1    2    0    0  0.45132133692E+03  0.18469408275E+03  0.19827090088E+03  0.54818414471E+03  0.15294330000E+03 0.  0.
<mgrwt>
<rscale>  0 0.72826624E+03</rscale>
<asrwt>0</asrwt>
<pdfrwt beam="1">  1        2 0.15625884E+00 0.81952002E+03</pdfrwt>
<pdfrwt beam="2">  1       -2 0.88144583E-01 0.81952002E+03</pdfrwt>
<totfact> 0.27554916E+01</totfact>
</mgrwt>
</event>
<event>
 4    1  0.3565372E-007  0.6715406E+03  0.7818608E-02  0.1014582E+00
          2   -1    0    0  501    0  0.00000000000E+00  0.00000000000E+00  0.20071253918E+04  0.20071253918E+04  0.25500000000E-02 0. -1.
         -2   -1    0    0    0  501 -0.00000000000E+00 -0.00000000000E+00 -0.14234801766E+03  0.14234801769E+03  0.25500000000E-02 0.  1.
    8880023    1    1    2    0    0  0.76974993797E+02 -0.10597867032E+03  0.18244412696E+04  0.19441071937E+04  0.65864270000E+03 0. -1.
    8880022    1    1    2    0    0 -0.76974993797E+02  0.10597867032E+03  0.40336104541E+02  0.20536621576E+03  0.15294330000E+03 0.  0.
<mgrwt>
<rscale>  0 0.49693637E+03</rscale>
<asrwt>0</asrwt>
<pdfrwt beam="1">  1        2 0.30878852E+00 0.67154064E+03</pdfrwt>
<pdfrwt beam="2">  1       -2 0.21899695E-01 0.67154064E+03</pdfrwt>
<totfact> 0.12445910E+02</totfact>
</mgrwt>
</event>
<event>
 4    1  0.3565372E-007  0.7320018E+03  0.7818608E-02  0.9883889E-01
          2   -1    0    0  501    0  0.00000000000E+00  0.00000000000E+00  0.20693513145E+04  0.20693513145E+04  0.25500000000E-02 0. -1.
         -2   -1    0    0    0  501 -0.00000000000E+00 -0.00000000000E+00 -0.17435755388E+03  0.17435755390E+03  0.25500000000E-02 0.  1.
    8880023    1    1    2    0    0  0.16766778965E+03  0.27185277580E+03  0.16720082248E+04  0.18252227616E+04  0.65864270000E+03 0. -1.
    8880022    1    1    2    0    0 -0.16766778965E+03 -0.27185277580E+03  0.22298553584E+03  0.41848610682E+03  0.15294330000E+03 0.  0.
<mgrwt>
<rscale>  0 0.61048472E+03</rscale>
<asrwt>0</asrwt>
<pdfrwt beam="1">  1        2 0.31836173E+00 0.73200179E+03</pdfrwt>
<pdfrwt beam="2">  1       -2 0.26824240E-01 0.73200179E+03</pdfrwt>
<totfact> 0.79436090E+01</totfact>
</mgrwt>
</event>
<event>
 4    1  0.3565372E-007  0.7210972E+03  0.7818608E-02  0.9918891E-01
         -2   -1    0    0    0  501 -0.00000000000E+00  0.00000000000E+00  0.79626384257E+03  0.79626384257E+03  0.25500000000E-02 0.  1.
          2   -1    0    0  501    0  0.00000000000E+00 -0.00000000000E+00 -0.30314981324E+04  0.30314981324E+04  0.25500000000E-02 0. -1.
    8880023    1    1    2    0    0  0.99881786915E+02  0.27603378063E+03 -0.29517136200E+04  0.30385184745E+04  0.65864270000E+03 0. -1.
    8880022    1    1    2    0    0 -0.99881786915E+02 -0.27603378063E+03  0.71647933016E+03  0.78924350043E+03  0.15294330000E+03 0.  0.
<mgrwt>
<rscale>  0 0.59354439E+03</rscale>
<asrwt>0</asrwt>
<pdfrwt beam="1">  1        2 0.46638432E+00 0.72109724E+03</pdfrwt>
<pdfrwt beam="2">  1       -2 0.12250213E+00 0.72109724E+03</pdfrwt>
<totfact> 0.90337496E-01</totfact>
</mgrwt>
</event>
<event>
 4    1  0.3565372E-007  0.7109433E+03  0.7818608E-02  0.9954515E-01
         -2   -1    0    0    0  501 -0.00000000000E+00  0.00000000000E+00  0.17904960283E+03  0.17904960285E+03  0.25500000000E-02 0.  1.
          2   -1    0    0  501    0  0.00000000000E+00 -0.00000000000E+00 -0.26600679632E+04  0.26600679632E+04  0.25500000000E-02 0. -1.
    8880023    1    1    2    0    0  0.29071474588E+02 -0.26605456090E+03 -0.24233890820E+04  0.25255207441E+04  0.65864270000E+03 0.  0.
    8880022    1    1    2    0    0 -0.29071474588E+02  0.26605456090E+03 -0.57629278426E+02  0.31359682198E+03  0.15294330000E+03 0.  0.
<mgrwt>
<rscale>  0 0.57690480E+03</rscale>
<asrwt>0</asrwt>
<pdfrwt beam="1">  1        2 0.40924120E+00 0.71094331E+03</pdfrwt>
<pdfrwt beam="2">  1       -2 0.27546095E-01 0.71094331E+03</pdfrwt>
<totfact> 0.35453081E+01</totfact>
</mgrwt>
</event>
<event>
 4    1  0.3565372E-007  0.8240198E+03  0.7818608E-02  0.9661082E-01
         -2   -1    0    0    0  501 -0.00000000000E+00  0.00000000000E+00  0.25634802286E+03  0.25634802288E+03  0.25500000000E-02 0.  1.
          2   -1    0    0  501    0  0.00000000000E+00 -0.00000000000E+00 -0.25292104141E+04  0.25292104141E+04  0.25500000000E-02 0. -1.
    8880023    1    1    2    0    0  0.24318189646E+03  0.43134781965E+03 -0.20718188876E+04  0.22296730894E+04  0.65864270000E+03 0. -1.
    8880022    1    1    2    0    0 -0.24318189646E+03 -0.43134781965E+03 -0.20104350364E+03  0.55588534758E+03  0.15294330000E+03 0.  0.
<mgrwt>
<rscale>  0 0.73381986E+03</rscale>
<asrwt>0</asrwt>
<pdfrwt beam="1">  1        2 0.38910928E+00 0.82401977E+03</pdfrwt>
<pdfrwt beam="2">  1       -2 0.39438159E-01 0.82401977E+03</pdfrwt>
<totfact> 0.21067463E+01</totfact>
</mgrwt>
</event>
<event>
 4    1  0.3565372E-007  0.8954974E+03  0.7818608E-02  0.9533299E-01
          2   -1    0    0  501    0  0.00000000000E+00  0.00000000000E+00  0.76345417343E+03  0.76345417343E+03  0.25500000000E-02 0. -1.
         -2   -1    0    0    0  501 -0.00000000000E+00 -0.00000000000E+00 -0.10520491342E+04  0.10520491342E+04  0.25500000000E-02 0.  1.
    8880023    1    1    2    0    0  0.48859775079E+03 -0.35969103072E+03  0.31191102549E+03  0.94826372584E+03  0.65864270000E+03 0.  0.
    8880022    1    1    2    0    0 -0.48859775079E+03  0.35969103072E+03 -0.60050598624E+03  0.86723958176E+03  0.15294330000E+03 0.  0.
<mgrwt>
<rscale>  0 0.81872737E+03</rscale>
<asrwt>0</asrwt>
<pdfrwt beam="1">  1        2 0.11745449E+00 0.89549741E+03</pdfrwt>
<pdfrwt beam="2">  1       -2 0.16185371E+00 0.89549741E+03</pdfrwt>
<totfact> 0.89564429E+00</totfact>
</mgrwt>
</event>
<event>
 4    1  0.3565372E-007  0.6806625E+03  0.7818608E-02  0.1008951E+00
         -2   -1    0    0    0  501 -0.00000000000E+00  0.00000000000E+00  0.75007004302E+03  0.75007004302E+03  0.25500000000E-02 0.  1.
          2   -1    0    0  501    0  0.00000000000E+00 -0.00000000000E+00 -0.38668917141E+03  0.38668917142E+03  0.25500000000E-02 0. -1.
    8880023    1    1    2    0    0  0.50122582194E+02  0.16425255922E+03 -0.29746590289E+02  0.68131214752E+03  0.65864270000E+03 0. -1.
    8880022    1    1    2    0    0 -0.50122582194E+02 -0.16425255922E+03  0.39312746190E+03  0.45544706693E+03  0.15294330000E+03 0.  0.
<mgrwt>
<rscale>  0 0.51893526E+03</rscale>
<asrwt>0</asrwt>
<pdfrwt beam="1">  1        2 0.59490642E-01 0.68066246E+03</pdfrwt>
<pdfrwt beam="2">  1       -2 0.11539539E+00 0.68066246E+03</pdfrwt>
<totfact> 0.49066287E+01</totfact>
</mgrwt>
</event>
<event>
 4    1  0.3565372E-007  0.7921007E+03  0.7818608E-02  0.9728144E-01
          2   -1    0    0  501    0  0.00000000000E+00  0.00000000000E+00  0.15862670430E+04  0.15862670430E+04  0.25500000000E-02 0. -1.
         -2   -1    0    0    0  501 -0.00000000000E+00 -0.00000000000E+00 -0.24939283319E+03  0.24939283320E+03  0.25500000000E-02 0.  1.
    8880023    1    1    2    0    0  0.14635307999E+02  0.43977170968E+03  0.84025951318E+03  0.11547552142E+04  0.65864270000E+03 0.  0.
    8880022    1    1    2    0    0 -0.14635307999E+02 -0.43977170968E+03  0.49661469664E+03  0.68090466205E+03  0.15294330000E+03 0. -1.
<mgrwt>
<rscale>  0 0.69365581E+03</rscale>
<asrwt>0</asrwt>
<pdfrwt beam="1">  1        2 0.24404109E+00 0.79210072E+03</pdfrwt>
<pdfrwt beam="2">  1       -2 0.38368128E-01 0.79210072E+03</pdfrwt>
<totfact> 0.74054334E+01</totfact>
</mgrwt>
</event>
<event>
 4    1  0.3565372E-007  0.7155967E+03  0.7818608E-02  0.9937777E-01
         -2   -1    0    0    0  501 -0.00000000000E+00  0.00000000000E+00  0.10767250498E+03  0.10767250501E+03  0.25500000000E-02 0.  1.
          2   -1    0    0  501    0  0.00000000000E+00 -0.00000000000E+00 -0.26070594281E+04  0.26070594281E+04  0.25500000000E-02 0. -1.
    8880023    1    1    2    0    0 -0.18457048530E+03 -0.21024328263E+03 -0.19793401649E+04  0.21047247317E+04  0.65864270000E+03 0. -1.
    8880022    1    1    2    0    0  0.18457048530E+03  0.21024328263E+03 -0.52004675827E+03  0.61000720138E+03  0.15294330000E+03 0.  1.
<mgrwt>
<rscale>  0 0.58464887E+03</rscale>
<asrwt>0</asrwt>
<pdfrwt beam="1">  1        2 0.40108602E+00 0.71559675E+03</pdfrwt>
<pdfrwt beam="2">  1       -2 0.16565003E-01 0.71559675E+03</pdfrwt>
<totfact> 0.93288260E+01</totfact>
</mgrwt>
</event>
<event>
 4    1  0.3565372E-007  0.6738345E+03  0.7818608E-02  0.1013051E+00
          2   -1    0    0  501    0  0.00000000000E+00  0.00000000000E+00  0.22078017387E+04  0.22078017387E+04  0.25500000000E-02 0. -1.
         -2   -1    0    0    0  501 -0.00000000000E+00 -0.00000000000E+00 -0.32018792632E+03  0.32018792633E+03  0.25500000000E-02 0.  1.
    8880023    1    1    2    0    0 -0.35075214747E+02  0.13788576685E+03  0.21146876453E+04  0.22194496612E+04  0.65864270000E+03 0. -1.
    8880022    1    1    2    0    0  0.35075214747E+02 -0.13788576685E+03 -0.22707383286E+03  0.30854000384E+03  0.15294330000E+03 0.  0.
<mgrwt>
<rscale>  0 0.50279804E+03</rscale>
<asrwt>0</asrwt>
<pdfrwt beam="1">  1        2 0.33966180E+00 0.67383452E+03</pdfrwt>
<pdfrwt beam="2">  1       -2 0.49259683E-01 0.67383452E+03</pdfrwt>
<totfact> 0.20953118E+01</totfact>
</mgrwt>
</event>
<event>
 4    1  0.3565372E-007  0.9104979E+03  0.7818608E-02  0.9509385E-01
          2   -1    0    0  501    0  0.00000000000E+00  0.00000000000E+00  0.17191967631E+04  0.17191967631E+04  0.25500000000E-02 0. -1.
         -2   -1    0    0    0  501 -0.00000000000E+00 -0.00000000000E+00 -0.10004554385E+04  0.10004554385E+04  0.25500000000E-02 0.  1.
    8880023    1    1    2    0    0  0.62733839884E+03 -0.40531584329E+02  0.14694186513E+04  0.17286404065E+04  0.65864270000E+03 0.  0.
    8880022    1    1    2    0    0 -0.62733839884E+03  0.40531584329E+02 -0.75067732675E+03  0.99101179503E+03  0.15294330000E+03 0.  0.
<mgrwt>
<rscale>  0 0.83595435E+03</rscale>
<asrwt>0</asrwt>
<pdfrwt beam="1">  1        2 0.26449181E+00 0.91049793E+03</pdfrwt>
<pdfrwt beam="2">  1       -2 0.15391622E+00 0.91049793E+03</pdfrwt>
<totfact> 0.26935385E+00</totfact>
</mgrwt>
</event>
<event>
 4    1  0.3565372E-007  0.7909326E+03  0.7818608E-02  0.9730756E-01
         -2   -1    0    0    0  501 -0.00000000000E+00  0.00000000000E+00  0.25753667866E+03  0.25753667867E+03  0.25500000000E-02 0.  1.
          2   -1    0    0  501    0  0.00000000000E+00 -0.00000000000E+00 -0.21011463647E+04  0.21011463647E+04  0.25500000000E-02 0. -1.
    8880023    1    1    2    0    0  0.42649604438E+03 -0.99324144676E+02 -0.49626906053E+03  0.93373301767E+03  0.65864270000E+03 0.  0.
    8880022    1    1    2    0    0 -0.42649604438E+03  0.99324144676E+02 -0.13473406255E+04  0.14249500257E+04  0.15294330000E+03 0.  0.
<mgrwt>
<rscale>  0 0.69214764E+03</rscale>
<asrwt>0</asrwt>
<pdfrwt beam="1">  1        2 0.32325328E+00 0.79093259E+03</pdfrwt>
<pdfrwt beam="2">  1       -2 0.39621029E-01 0.79093259E+03</pdfrwt>
<totfact> 0.36353806E+01</totfact>
</mgrwt>
</event>
<event>
 4    1  0.3565372E-007  0.6957146E+03  0.7818608E-02  0.1001547E+00
          2   -1    0    0  501    0  0.00000000000E+00  0.00000000000E+00  0.11367219790E+04  0.11367219790E+04  0.25500000000E-02 0. -1.
         -2   -1    0    0    0  501 -0.00000000000E+00 -0.00000000000E+00 -0.26761825282E+03  0.26761825283E+03  0.25500000000E-02 0.  1.
    8880023    1    1    2    0    0 -0.11902869976E+03  0.18984407766E+03  0.89297354952E+03  0.11319984857E+04  0.65864270000E+03 0. -1.
    8880022    1    1    2    0    0  0.11902869976E+03 -0.18984407766E+03 -0.23869823381E+02  0.27234174611E+03  0.15294330000E+03 0.  0.
<mgrwt>
<rscale>  0 0.54977281E+03</rscale>
<asrwt>0</asrwt>
<pdfrwt beam="1">  1        2 0.17488030E+00 0.69571460E+03</pdfrwt>
<pdfrwt beam="2">  1       -2 0.41172039E-01 0.69571460E+03</pdfrwt>
<totfact> 0.11767098E+02</totfact>
</mgrwt>
</event>
<event>
 4    1  0.3565372E-007  0.1139430E+04  0.7818608E-02  0.9218375E-01
         -2   -1    0    0    0  501 -0.00000000000E+00  0.00000000000E+00  0.54858508850E+03  0.54858508850E+03  0.25500000000E-02 0.  1.
          2   -1    0    0  501    0  0.00000000000E+00 -0.00000000000E+00 -0.24909350149E+04  0.24909350149E+04  0.25500000000E-02 0. -1.
    8880023    1    1    2    0    0  0.34298273772E+03 -0.86420688084E+03 -0.17333902352E+04  0.20743535391E+04  0.65864270000E+03 0.  0.
    8880022    1    1    2    0    0 -0.34298273772E+03  0.86420688084E+03 -0.20895969113E+03  0.96516656428E+03  0.15294330000E+03 0.  0.
<mgrwt>
<rscale>  0 0.10865762E+04</rscale>
<asrwt>0</asrwt>
<pdfrwt beam="1">  1        2 0.38322077E+00 0.11394301E+04</pdfrwt>
<pdfrwt beam="2">  1       -2 0.84397707E-01 0.11394301E+04</pdfrwt>
<totfact> 0.42817544E+00</totfact>
</mgrwt>
</event>
<event>
 4    1  0.3565372E-007  0.8488949E+03  0.7818608E-02  0.9613631E-01
         -2   -1    0    0    0  501 -0.00000000000E+00  0.00000000000E+00  0.38179042431E+03  0.38179042432E+03  0.25500000000E-02 0.  1.
          2   -1    0    0  501    0  0.00000000000E+00 -0.00000000000E+00 -0.16500386831E+04  0.16500386831E+04  0.25500000000E-02 0. -1.
    8880023    1    1    2    0    0  0.36438230335E+03 -0.39247655108E+03 -0.27366427687E+03  0.89191627905E+03  0.65864270000E+03 0.  1.
    8880022    1    1    2    0    0 -0.36438230335E+03  0.39247655108E+03 -0.99458398188E+03  0.11399128283E+04  0.15294330000E+03 0.  0.
<mgrwt>
<rscale>  0 0.76400527E+03</rscale>
<asrwt>0</asrwt>
<pdfrwt beam="1">  1        2 0.25385210E+00 0.84889488E+03</pdfrwt>
<pdfrwt beam="2">  1       -2 0.58736989E-01 0.84889488E+03</pdfrwt>
<totfact> 0.28739227E+01</totfact>
</mgrwt>
</event>
<event>
 4    1  0.3565372E-007  0.9074155E+03  0.7818608E-02  0.9514231E-01
         -2   -1    0    0    0  501 -0.00000000000E+00  0.00000000000E+00  0.53159275464E+03  0.53159275465E+03  0.25500000000E-02 0.  1.
          2   -1    0    0  501    0  0.00000000000E+00 -0.00000000000E+00 -0.26209051458E+04  0.26209051458E+04  0.25500000000E-02 0. -1.
    8880023    1    1    2    0    0 -0.61734927174E+03 -0.92046879235E+02 -0.23029539712E+04  0.24752777523E+04  0.65864270000E+03 0.  0.
    8880022    1    1    2    0    0  0.61734927174E+03  0.92046879235E+02  0.21364158006E+03  0.67722014814E+03  0.15294330000E+03 0.  0.
<mgrwt>
<rscale>  0 0.83242740E+03</rscale>
<asrwt>0</asrwt>
<pdfrwt beam="1">  1        2 0.40321617E+00 0.90741554E+03</pdfrwt>
<pdfrwt beam="2">  1       -2 0.81783502E-01 0.90741554E+03</pdfrwt>
<totfact> 0.39925957E+00</totfact>
</mgrwt>
</event>
<event>
 4    1  0.3565372E-007  0.7099670E+03  0.7818608E-02  0.9958124E-01
          2   -1    0    0  501    0  0.00000000000E+00  0.00000000000E+00  0.10384787770E+04  0.10384787770E+04  0.25500000000E-02 0. -1.
         -2   -1    0    0    0  501 -0.00000000000E+00 -0.00000000000E+00 -0.29580157827E+03  0.29580157828E+03  0.25500000000E-02 0.  1.
    8880023    1    1    2    0    0  0.25676907516E+03 -0.65669761829E+02  0.74384659475E+03  0.10282805251E+04  0.65864270000E+03 0.  0.
    8880022    1    1    2    0    0 -0.25676907516E+03  0.65669761829E+02 -0.11693959785E+01  0.30599983019E+03  0.15294330000E+03 0.  0.
<mgrwt>
<rscale>  0 0.57525196E+03</rscale>
<asrwt>0</asrwt>
<pdfrwt beam="1">  1        2 0.15976596E+00 0.70996696E+03</pdfrwt>
<pdfrwt beam="2">  1       -2 0.45507936E-01 0.70996696E+03</pdfrwt>
<totfact> 0.11078602E+02</totfact>
</mgrwt>
</event>
<event>
 4    1  0.3565372E-007  0.6673359E+03  0.7818608E-02  0.1017649E+00
          2   -1    0    0  501    0  0.00000000000E+00  0.00000000000E+00  0.34122422606E+03  0.34122422607E+03  0.25500000000E-02 0. -1.
         -2   -1    0    0    0  501 -0.00000000000E+00 -0.00000000000E+00 -0.53821562919E+03  0.53821562919E+03  0.25500000000E-02 0.  1.
    8880023    1    1    2    0    0 -0.16886011869E+02  0.10602795143E+03 -0.12363762217E+03  0.67869251636E+03  0.65864270000E+03 0. -1.
    8880022    1    1    2    0    0  0.16886011869E+02 -0.10602795143E+03 -0.73353780959E+02  0.20074733890E+03  0.15294330000E+03 0.  1.
<mgrwt>
<rscale>  0 0.48544572E+03</rscale>
<asrwt>0</asrwt>
<pdfrwt beam="1">  1        2 0.52496035E-01 0.66733595E+03</pdfrwt>
<pdfrwt beam="2">  1       -2 0.82802404E-01 0.66733595E+03</pdfrwt>
<totfact> 0.12323906E+02</totfact>
</mgrwt>
</event>
<event>
 4    1  0.3565372E-007  0.6948471E+03  0.7818608E-02  0.1001929E+00
         -2   -1    0    0    0  501 -0.00000000000E+00  0.00000000000E+00  0.83693666037E+03  0.83693666038E+03  0.25500000000E-02 0.  1.
          2   -1    0    0  501    0  0.00000000000E+00 -0.00000000000E+00 -0.47897914069E+03  0.47897914070E+03  0.25500000000E-02 0. -1.
    8880023    1    1    2    0    0  0.14371766610E+03 -0.16836733329E+03 -0.17706057829E+03  0.71705158888E+03  0.65864270000E+03 0. -1.
    8880022    1    1    2    0    0 -0.14371766610E+03  0.16836733329E+03  0.53501809797E+03  0.59886421219E+03  0.15294330000E+03 0.  0.
<mgrwt>
<rscale>  0 0.54812518E+03</rscale>
<asrwt>0</asrwt>
<pdfrwt beam="1">  1        2 0.73689099E-01 0.69484713E+03</pdfrwt>
<pdfrwt beam="2">  1       -2 0.12875948E+00 0.69484713E+03</pdfrwt>
<totfact> 0.29286670E+01</totfact>
</mgrwt>
</event>
<event>
 4    1  0.3565372E-007  0.9079594E+03  0.7818608E-02  0.9513373E-01
          2   -1    0    0  501    0  0.00000000000E+00  0.00000000000E+00  0.19929786767E+04  0.19929786767E+04  0.25500000000E-02 0. -1.
         -2   -1    0    0    0  501 -0.00000000000E+00 -0.00000000000E+00 -0.32616297898E+03  0.32616297899E+03  0.25500000000E-02 0.  1.
    8880023    1    1    2    0    0  0.62422820889E+03 -0.30319062864E+02  0.65298853937E+03  0.11183847018E+04  0.65864270000E+03 0.  0.
    8880022    1    1    2    0    0 -0.62422820889E+03  0.30319062864E+02  0.10138271583E+04  0.12007569539E+04  0.15294330000E+03 0.  0.
<mgrwt>
<rscale>  0 0.83305019E+03</rscale>
<asrwt>0</asrwt>
<pdfrwt beam="1">  1        2 0.30661210E+00 0.90795942E+03</pdfrwt>
<pdfrwt beam="2">  1       -2 0.50178920E-01 0.90795942E+03</pdfrwt>
<totfact> 0.25669409E+01</totfact>
</mgrwt>
</event>
<event>
 4    1  0.3565372E-007  0.8831366E+03  0.7818608E-02  0.9553664E-01
         -2   -1    0    0    0  501 -0.00000000000E+00  0.00000000000E+00  0.70056027033E+03  0.70056027033E+03  0.25500000000E-02 0.  1.
          2   -1    0    0  501    0  0.00000000000E+00 -0.00000000000E+00 -0.27075072353E+04  0.27075072353E+04  0.25500000000E-02 0. -1.
    8880023    1    1    2    0    0 -0.54105016261E+03  0.23105130441E+03 -0.24833780277E+04  0.26357345500E+04  0.65864270000E+03 0. -1.
    8880022    1    1    2    0    0  0.54105016261E+03 -0.23105130441E+03  0.47643106272E+03  0.77233295557E+03  0.15294330000E+03 0.  0.
<mgrwt>
<rscale>  0 0.80440436E+03</rscale>
<asrwt>0</asrwt>
<pdfrwt beam="1">  1        2 0.41653957E+00 0.88313656E+03</pdfrwt>
<pdfrwt beam="2">  1       -2 0.10777850E+00 0.88313656E+03</pdfrwt>
<totfact> 0.18710670E+00</totfact>
</mgrwt>
</event>
<event>
 4    1  0.3565372E-007  0.8411319E+03  0.7818608E-02  0.9628050E-01
         -2   -1    0    0    0  501 -0.00000000000E+00  0.00000000000E+00  0.18874329138E+04  0.18874329138E+04  0.25500000000E-02 0.  1.
          2   -1    0    0  501    0  0.00000000000E+00 -0.00000000000E+00 -0.79993536660E+03  0.79993536661E+03  0.25500000000E-02 0. -1.
    8880023    1    1    2    0    0  0.49774270925E+03 -0.16107422676E+03 -0.52073892430E+03  0.98927849703E+03  0.65864270000E+03 0.  0.
    8880022    1    1    2    0    0 -0.49774270925E+03  0.16107422676E+03  0.16082364715E+04  0.16980897834E+04  0.15294330000E+03 0.  0.
<mgrwt>
<rscale>  0 0.75467170E+03</rscale>
<asrwt>0</asrwt>
<pdfrwt beam="1">  1        2 0.12306698E+00 0.84113193E+03</pdfrwt>
<pdfrwt beam="2">  1       -2 0.29037429E+00 0.84113193E+03</pdfrwt>
<totfact> 0.12864952E+00</totfact>
</mgrwt>
</event>
<event>
 4    1  0.3565372E-007  0.6838820E+03  0.7818608E-02  0.1007208E+00
          2   -1    0    0  501    0  0.00000000000E+00  0.00000000000E+00  0.19076479248E+04  0.19076479248E+04  0.25500000000E-02 0. -1.
         -2   -1    0    0    0  501 -0.00000000000E+00 -0.00000000000E+00 -0.15109090302E+03  0.15109090304E+03  0.25500000000E-02 0.  1.
    8880023    1    1    2    0    0  0.17593979805E+03  0.54125049598E+02  0.16693826386E+04  0.18040324093E+04  0.65864270000E+03 0. -1.
    8880022    1    1    2    0    0 -0.17593979805E+03 -0.54125049598E+02  0.87174383145E+02  0.25470641849E+03  0.15294330000E+03 0.  0.
<mgrwt>
<rscale>  0 0.52599599E+03</rscale>
<asrwt>0</asrwt>
<pdfrwt beam="1">  1        2 0.29348429E+00 0.68388196E+03</pdfrwt>
<pdfrwt beam="2">  1       -2 0.23244755E-01 0.68388196E+03</pdfrwt>
<totfact> 0.12663282E+02</totfact>
</mgrwt>
</event>
<event>
 4    1  0.3565372E-007  0.7062960E+03  0.7818608E-02  0.9972022E-01
         -2   -1    0    0    0  501 -0.00000000000E+00  0.00000000000E+00  0.22652416079E+03  0.22652416080E+03  0.25500000000E-02 0.  1.
          2   -1    0    0  501    0  0.00000000000E+00 -0.00000000000E+00 -0.25204361950E+04  0.25204361950E+04  0.25500000000E-02 0. -1.
    8880023    1    1    2    0    0 -0.11864640914E+02  0.25476071742E+03 -0.23415808342E+04  0.24457830652E+04  0.65864270000E+03 0.  0.
    8880022    1    1    2    0    0  0.11864640914E+02 -0.25476071742E+03  0.47668799992E+02  0.30117729056E+03  0.15294330000E+03 0.  0.
<mgrwt>
<rscale>  0 0.56894246E+03</rscale>
<asrwt>0</asrwt>
<pdfrwt beam="1">  1        2 0.38775939E+00 0.70629597E+03</pdfrwt>
<pdfrwt beam="2">  1       -2 0.34849873E-01 0.70629597E+03</pdfrwt>
<totfact> 0.27507108E+01</totfact>
</mgrwt>
</event>
<event>
 4    1  0.3565372E-007  0.7465760E+03  0.7818608E-02  0.9841190E-01
         -2   -1    0    0    0  501 -0.00000000000E+00  0.00000000000E+00  0.11995829431E+04  0.11995829431E+04  0.25500000000E-02 0.  1.
          2   -1    0    0  501    0  0.00000000000E+00 -0.00000000000E+00 -0.71026204847E+03  0.71026204848E+03  0.25500000000E-02 0. -1.
    8880023    1    1    2    0    0 -0.87887746755E+01 -0.35140903322E+03 -0.46627695548E+03  0.88022153840E+03  0.65864270000E+03 0. -1.
    8880022    1    1    2    0    0  0.87887746755E+01  0.35140903322E+03  0.95559785015E+03  0.10296234532E+04  0.15294330000E+03 0.  0.
<mgrwt>
<rscale>  0 0.63198153E+03</rscale>
<asrwt>0</asrwt>
<pdfrwt beam="1">  1        2 0.10927108E+00 0.74657602E+03</pdfrwt>
<pdfrwt beam="2">  1       -2 0.18455122E+00 0.74657602E+03</pdfrwt>
<totfact> 0.69175385E+00</totfact>
</mgrwt>
</event>
<event>
 4    1  0.3565372E-007  0.8360787E+03  0.7818608E-02  0.9637619E-01
          2   -1    0    0  501    0  0.00000000000E+00  0.00000000000E+00  0.46659446743E+03  0.46659446743E+03  0.25500000000E-02 0. -1.
         -2   -1    0    0    0  501 -0.00000000000E+00 -0.00000000000E+00 -0.10497957921E+04  0.10497957921E+04  0.25500000000E-02 0.  1.
    8880023    1    1    2    0    0  0.26691875591E+01  0.51498568698E+03 -0.49600600461E+03  0.97213658775E+03  0.65864270000E+03 0.  0.
    8880022    1    1    2    0    0 -0.26691875591E+01 -0.51498568698E+03 -0.87195320012E+02  0.54425367174E+03  0.15294330000E+03 0.  0.
<mgrwt>
<rscale>  0 0.74855568E+03</rscale>
<asrwt>0</asrwt>
<pdfrwt beam="1">  1        2 0.71783764E-01 0.83607870E+03</pdfrwt>
<pdfrwt beam="2">  1       -2 0.16150704E+00 0.83607870E+03</pdfrwt>
<totfact> 0.16493105E+01</totfact>
</mgrwt>
</event>
<event>
 4    1  0.3565372E-007  0.7908141E+03  0.7818608E-02  0.9731021E-01
          2   -1    0    0  501    0  0.00000000000E+00  0.00000000000E+00  0.79994733151E+03  0.79994733152E+03  0.25500000000E-02 0. -1.
         -2   -1    0    0    0  501 -0.00000000000E+00 -0.00000000000E+00 -0.12714165011E+04  0.12714165011E+04  0.25500000000E-02 0.  1.
    8880023    1    1    2    0    0  0.15291804984E+02 -0.43742761240E+03  0.54074512624E+03  0.95801474582E+03  0.65864270000E+03 0. -1.
    8880022    1    1    2    0    0 -0.15291804984E+02  0.43742761240E+03 -0.10122142958E+04  0.11133490868E+04  0.15294330000E+03 0.  0.
<mgrwt>
<rscale>  0 0.69199449E+03</rscale>
<asrwt>0</asrwt>
<pdfrwt beam="1">  1        2 0.12306882E+00 0.79081411E+03</pdfrwt>
<pdfrwt beam="2">  1       -2 0.19560254E+00 0.79081411E+03</pdfrwt>
<totfact> 0.49765210E+00</totfact>
</mgrwt>
</event>
<event>
 4    1  0.3565372E-007  0.7392717E+03  0.7818608E-02  0.9862074E-01
          2   -1    0    0  501    0  0.00000000000E+00  0.00000000000E+00  0.17894183648E+04  0.17894183648E+04  0.25500000000E-02 0. -1.
         -2   -1    0    0    0  501 -0.00000000000E+00 -0.00000000000E+00 -0.59421658414E+03  0.59421658415E+03  0.25500000000E-02 0.  1.
    8880023    1    1    2    0    0  0.14863235703E+03 -0.30103289361E+03  0.16440575249E+04  0.18026224597E+04  0.65864270000E+03 0.  0.
    8880022    1    1    2    0    0 -0.14863235703E+03  0.30103289361E+03 -0.44885574423E+03  0.58101248931E+03  0.15294330000E+03 0.  1.
<mgrwt>
<rscale>  0 0.62135088E+03</rscale>
<asrwt>0</asrwt>
<pdfrwt beam="1">  1        2 0.27529513E+00 0.73927166E+03</pdfrwt>
<pdfrwt beam="2">  1       -2 0.91417938E-01 0.73927166E+03</pdfrwt>
<totfact> 0.92022431E+00</totfact>
</mgrwt>
</event>
<event>
 4    1  0.3565372E-007  0.7252564E+03  0.7818608E-02  0.9905185E-01
          2   -1    0    0  501    0  0.00000000000E+00  0.00000000000E+00  0.70363249312E+03  0.70363249312E+03  0.25500000000E-02 0. -1.
         -2   -1    0    0    0  501 -0.00000000000E+00 -0.00000000000E+00 -0.54259279265E+03  0.54259279265E+03  0.25500000000E-02 0.  1.
    8880023    1    1    2    0    0  0.50526182333E+02  0.29938904783E+03  0.40228836586E+03  0.82935687893E+03  0.65864270000E+03 0. -1.
    8880022    1    1    2    0    0 -0.50526182333E+02 -0.29938904783E+03 -0.24124866539E+03  0.41686840685E+03  0.15294330000E+03 0.  0.
<mgrwt>
<rscale>  0 0.60010640E+03</rscale>
<asrwt>0</asrwt>
<pdfrwt beam="1">  1        2 0.10825115E+00 0.72525644E+03</pdfrwt>
<pdfrwt beam="2">  1       -2 0.83475815E-01 0.72525644E+03</pdfrwt>
<totfact> 0.51863203E+01</totfact>
</mgrwt>
</event>
<event>
 4    1  0.3565372E-007  0.6864291E+03  0.7818608E-02  0.1005898E+00
          2   -1    0    0  501    0  0.00000000000E+00  0.00000000000E+00  0.23897253662E+04  0.23897253662E+04  0.25500000000E-02 0. -1.
         -2   -1    0    0    0  501 -0.00000000000E+00 -0.00000000000E+00 -0.13859241962E+03  0.13859241964E+03  0.25500000000E-02 0.  1.
    8880023    1    1    2    0    0 -0.78544556092E+02  0.17665055069E+03  0.21584353353E+04  0.22649565045E+04  0.65864270000E+03 0. -1.
    8880022    1    1    2    0    0  0.78544556092E+02 -0.17665055069E+03  0.92697611265E+02  0.26336128132E+03  0.15294330000E+03 0.  0.
<mgrwt>
<rscale>  0 0.53137928E+03</rscale>
<asrwt>0</asrwt>
<pdfrwt beam="1">  1        2 0.36765003E+00 0.68642907E+03</pdfrwt>
<pdfrwt beam="2">  1       -2 0.21321912E-01 0.68642907E+03</pdfrwt>
<totfact> 0.80221101E+01</totfact>
</mgrwt>
</event>
<event>
 4    1  0.3565372E-007  0.1020885E+04  0.7818608E-02  0.9354730E-01
          2   -1    0    0  501    0  0.00000000000E+00  0.00000000000E+00  0.18870272082E+04  0.18870272082E+04  0.25500000000E-02 0. -1.
         -2   -1    0    0    0  501 -0.00000000000E+00 -0.00000000000E+00 -0.49194016195E+03  0.49194016196E+03  0.25500000000E-02 0.  1.
    8880023    1    1    2    0    0  0.49475124855E+03  0.60300694662E+03  0.11701809518E+04  0.15529101204E+04  0.65864270000E+03 0.  1.
    8880022    1    1    2    0    0 -0.49475124855E+03 -0.60300694662E+03  0.22490609441E+03  0.82605724979E+03  0.15294330000E+03 0.  0.
<mgrwt>
<rscale>  0 0.95896787E+03</rscale>
<asrwt>0</asrwt>
<pdfrwt beam="1">  1        2 0.29031187E+00 0.10208851E+04</pdfrwt>
<pdfrwt beam="2">  1       -2 0.75683103E-01 0.10208851E+04</pdfrwt>
<totfact> 0.12068645E+01</totfact>
</mgrwt>
</event>
<event>
 4    1  0.3565372E-007  0.7209773E+03  0.7818608E-02  0.9919293E-01
          2   -1    0    0  501    0  0.00000000000E+00  0.00000000000E+00  0.10075301488E+04  0.10075301488E+04  0.25500000000E-02 0. -1.
         -2   -1    0    0    0  501 -0.00000000000E+00 -0.00000000000E+00 -0.28185944193E+03  0.28185944195E+03  0.25500000000E-02 0.  1.
    8880023    1    1    2    0    0  0.12419109911E+03  0.26565875375E+03  0.59112615390E+03  0.93232952256E+03  0.65864270000E+03 0.  1.
    8880022    1    1    2    0    0 -0.12419109911E+03 -0.26565875375E+03  0.13454455296E+03  0.35706006818E+03  0.15294330000E+03 0. -1.
<mgrwt>
<rscale>  0 0.59335309E+03</rscale>
<asrwt>0</asrwt>
<pdfrwt beam="1">  1        2 0.15500464E+00 0.72097726E+03</pdfrwt>
<pdfrwt beam="2">  1       -2 0.43362992E-01 0.72097726E+03</pdfrwt>
<totfact> 0.12744395E+02</totfact>
</mgrwt>
</event>
<event>
 4    1  0.3565372E-007  0.8913823E+03  0.7818608E-02  0.9540010E-01
          2   -1    0    0  501    0  0.00000000000E+00  0.00000000000E+00  0.80427001787E+03  0.80427001787E+03  0.25500000000E-02 0. -1.
         -2   -1    0    0    0  501 -0.00000000000E+00 -0.00000000000E+00 -0.10207870077E+04  0.10207870077E+04  0.25500000000E-02 0.  1.
    8880023    1    1    2    0    0 -0.49940758630E+03  0.33368279382E+03  0.37615571996E+03  0.96749960004E+03  0.65864270000E+03 0.  0.
    8880022    1    1    2    0    0  0.49940758630E+03 -0.33368279382E+03 -0.59267270978E+03  0.85755742553E+03  0.15294330000E+03 0.  0.
<mgrwt>
<rscale>  0 0.81397248E+03</rscale>
<asrwt>0</asrwt>
<pdfrwt beam="1">  1        2 0.12373385E+00 0.89138227E+03</pdfrwt>
<pdfrwt beam="2">  1       -2 0.15704416E+00 0.89138227E+03</pdfrwt>
<totfact> 0.90782981E+00</totfact>
</mgrwt>
</event>
<event>
 4    1  0.3565372E-007  0.1004766E+04  0.7818608E-02  0.9375348E-01
          2   -1    0    0  501    0  0.00000000000E+00  0.00000000000E+00  0.17993176906E+04  0.17993176906E+04  0.25500000000E-02 0. -1.
         -2   -1    0    0    0  501 -0.00000000000E+00 -0.00000000000E+00 -0.50470338024E+03  0.50470338024E+03  0.25500000000E-02 0.  1.
    8880023    1    1    2    0    0 -0.62788796655E+03 -0.42603014491E+03  0.30983464633E+03  0.10514526605E+04  0.65864270000E+03 0.  0.
    8880022    1    1    2    0    0  0.62788796655E+03  0.42603014491E+03  0.98477966399E+03  0.12525684103E+04  0.15294330000E+03 0.  0.
<mgrwt>
<rscale>  0 0.94132482E+03</rscale>
<asrwt>0</asrwt>
<pdfrwt beam="1">  1        2 0.27681810E+00 0.10047662E+04</pdfrwt>
<pdfrwt beam="2">  1       -2 0.77646675E-01 0.10047662E+04</pdfrwt>
<totfact> 0.12758053E+01</totfact>
</mgrwt>
</event>
<event>
 4    1  0.3565372E-007  0.7032489E+03  0.7818608E-02  0.9983981E-01
          2   -1    0    0  501    0  0.00000000000E+00  0.00000000000E+00  0.18159415601E+04  0.18159415601E+04  0.25500000000E-02 0. -1.
         -2   -1    0    0    0  501 -0.00000000000E+00 -0.00000000000E+00 -0.66239638277E+03  0.66239638277E+03  0.25500000000E-02 0.  1.
    8880023    1    1    2    0    0  0.15476218842E+03  0.19182658410E+03  0.17110241229E+04  0.18499087893E+04  0.65864270000E+03 0. -1.
    8880022    1    1    2    0    0 -0.15476218842E+03 -0.19182658410E+03 -0.55747894555E+03  0.62842915359E+03  0.15294330000E+03 0.  0.
<mgrwt>
<rscale>  0 0.56358234E+03</rscale>
<asrwt>0</asrwt>
<pdfrwt beam="1">  1        2 0.27937562E+00 0.70324887E+03</pdfrwt>
<pdfrwt beam="2">  1       -2 0.10190714E+00 0.70324887E+03</pdfrwt>
<totfact> 0.69375962E+00</totfact>
</mgrwt>
</event>
<event>
 4    1  0.3565372E-007  0.7138298E+03  0.7818608E-02  0.9944045E-01
          2   -1    0    0  501    0  0.00000000000E+00  0.00000000000E+00  0.23357877375E+03  0.23357877376E+03  0.25500000000E-02 0. -1.
         -2   -1    0    0    0  501 -0.00000000000E+00 -0.00000000000E+00 -0.17265703377E+04  0.17265703377E+04  0.25500000000E-02 0.  1.
    8880023    1    1    2    0    0 -0.91187385176E+02  0.25966823937E+03 -0.39066807620E+03  0.81374104344E+03  0.65864270000E+03 0. -1.
    8880022    1    1    2    0    0  0.91187385176E+02 -0.25966823937E+03 -0.11023234877E+04  0.11464080680E+04  0.15294330000E+03 0.  0.
<mgrwt>
<rscale>  0 0.58173344E+03</rscale>
<asrwt>0</asrwt>
<pdfrwt beam="1">  1        2 0.35935197E-01 0.71382977E+03</pdfrwt>
<pdfrwt beam="2">  1       -2 0.26562620E+00 0.71382977E+03</pdfrwt>
<totfact> 0.77425023E+00</totfact>
</mgrwt>
</event>
<event>
 4    1  0.3565372E-007  0.6800316E+03  0.7818608E-02  0.1009306E+00
         -2   -1    0    0    0  501 -0.00000000000E+00  0.00000000000E+00  0.43365740683E+03  0.43365740684E+03  0.25500000000E-02 0.  1.
          2   -1    0    0  501    0  0.00000000000E+00 -0.00000000000E+00 -0.88069465471E+03  0.88069465471E+03  0.25500000000E-02 0. -1.
    8880023    1    1    2    0    0 -0.10896989084E+03  0.12945419994E+03 -0.69849920163E+03  0.97485597292E+03  0.65864270000E+03 0. -1.
    8880022    1    1    2    0    0  0.10896989084E+03 -0.12945419994E+03  0.25146195376E+03  0.33949608863E+03  0.15294330000E+03 0.  0.
<mgrwt>
<rscale>  0 0.51751484E+03</rscale>
<asrwt>0</asrwt>
<pdfrwt beam="1">  1        2 0.13549149E+00 0.68003164E+03</pdfrwt>
<pdfrwt beam="2">  1       -2 0.66716524E-01 0.68003164E+03</pdfrwt>
<totfact> 0.63605216E+01</totfact>
</mgrwt>
</event>
<event>
 4    1  0.3565372E-007  0.7911620E+03  0.7818608E-02  0.9730242E-01
          2   -1    0    0  501    0  0.00000000000E+00  0.00000000000E+00  0.20579198666E+04  0.20579198666E+04  0.25500000000E-02 0. -1.
         -2   -1    0    0    0  501 -0.00000000000E+00 -0.00000000000E+00 -0.23229716253E+03  0.23229716255E+03  0.25500000000E-02 0.  1.
    8880023    1    1    2    0    0 -0.40680543543E+03 -0.16320691628E+03  0.15752443468E+04  0.17627626381E+04  0.65864270000E+03 0. -1.
    8880022    1    1    2    0    0  0.40680543543E+03  0.16320691628E+03  0.25037835720E+03  0.52745439100E+03  0.15294330000E+03 0.  0.
<mgrwt>
<rscale>  0 0.69244411E+03</rscale>
<asrwt>0</asrwt>
<pdfrwt beam="1">  1        2 0.31660307E+00 0.79116204E+03</pdfrwt>
<pdfrwt beam="2">  1       -2 0.35738023E-01 0.79116204E+03</pdfrwt>
<totfact> 0.46850741E+01</totfact>
</mgrwt>
</event>
<event>
 4    1  0.3565372E-007  0.7775205E+03  0.7818608E-02  0.9761694E-01
         -2   -1    0    0    0  501 -0.00000000000E+00  0.00000000000E+00  0.13474434246E+04  0.13474434246E+04  0.25500000000E-02 0.  1.
          2   -1    0    0  501    0  0.00000000000E+00 -0.00000000000E+00 -0.10527279170E+04  0.10527279170E+04  0.25500000000E-02 0. -1.
    8880023    1    1    2    0    0  0.41157461370E+03 -0.36527471704E+02 -0.86291388463E+03  0.11615328223E+04  0.65864270000E+03 0. -1.
    8880022    1    1    2    0    0 -0.41157461370E+03  0.36527471704E+02  0.11576293922E+04  0.12386385193E+04  0.15294330000E+03 0.  0.
<mgrwt>
<rscale>  0 0.67459412E+03</rscale>
<asrwt>0</asrwt>
<pdfrwt beam="1">  1        2 0.16195814E+00 0.77752050E+03</pdfrwt>
<pdfrwt beam="2">  1       -2 0.20729899E+00 0.77752050E+03</pdfrwt>
<totfact> 0.28398648E+00</totfact>
</mgrwt>
</event>
<event>
 4    1  0.3565372E-007  0.9111294E+03  0.7818608E-02  0.9508396E-01
         -2   -1    0    0    0  501 -0.00000000000E+00  0.00000000000E+00  0.66154085087E+03  0.66154085088E+03  0.25500000000E-02 0.  1.
          2   -1    0    0  501    0  0.00000000000E+00 -0.00000000000E+00 -0.14974970488E+04  0.14974970488E+04  0.25500000000E-02 0. -1.
    8880023    1    1    2    0    0 -0.15172390639E+03  0.61100441301E+03 -0.11266284790E+04  0.14489473671E+04  0.65864270000E+03 0. -1.
    8880022    1    1    2    0    0  0.15172390639E+03 -0.61100441301E+03  0.29067228111E+03  0.71009053261E+03  0.15294330000E+03 0.  0.
<mgrwt>
<rscale>  0 0.83667607E+03</rscale>
<asrwt>0</asrwt>
<pdfrwt beam="1">  1        2 0.23038416E+00 0.91112938E+03</pdfrwt>
<pdfrwt beam="2">  1       -2 0.10177552E+00 0.91112938E+03</pdfrwt>
<totfact> 0.10134667E+01</totfact>
</mgrwt>
</event>
<event>
 4    1  0.3565372E-007  0.1253371E+04  0.7818608E-02  0.9106911E-01
         -2   -1    0    0    0  501 -0.00000000000E+00  0.00000000000E+00  0.26904278408E+04  0.26904278408E+04  0.25500000000E-02 0.  1.
          2   -1    0    0  501    0  0.00000000000E+00 -0.00000000000E+00 -0.15365629412E+04  0.15365629412E+04  0.25500000000E-02 0. -1.
    8880023    1    1    2    0    0 -0.10053643148E+04  0.35548695318E+03  0.23215473534E+04  0.26382798752E+04  0.65864270000E+03 0.  1.
    8880022    1    1    2    0    0  0.10053643148E+04 -0.35548695318E+03 -0.11676824538E+04  0.15887109068E+04  0.15294330000E+03 0.  0.
<mgrwt>
<rscale>  0 0.12068166E+04</rscale>
<asrwt>0</asrwt>
<pdfrwt beam="1">  1        2 0.23639430E+00 0.12533709E+04</pdfrwt>
<pdfrwt beam="2">  1       -2 0.41391198E+00 0.12533709E+04</pdfrwt>
<totfact> 0.71004532E-02</totfact>
</mgrwt>
</event>
<event>
 4    1  0.3565372E-007  0.6704826E+03  0.7818608E-02  0.1015319E+00
         -2   -1    0    0    0  501 -0.00000000000E+00  0.00000000000E+00  0.36328806416E+03  0.36328806417E+03  0.25500000000E-02 0.  1.
          2   -1    0    0  501    0  0.00000000000E+00 -0.00000000000E+00 -0.11230065725E+04  0.11230065725E+04  0.25500000000E-02 0. -1.
    8880023    1    1    2    0    0 -0.33346213559E+02  0.12093291621E+03 -0.98179598484E+03  0.11888945716E+04  0.65864270000E+03 0. -1.
    8880022    1    1    2    0    0  0.33346213559E+02 -0.12093291621E+03  0.22207747646E+03  0.29740006515E+03  0.15294330000E+03 0.  0.
<mgrwt>
<rscale>  0 0.49414243E+03</rscale>
<asrwt>0</asrwt>
<pdfrwt beam="1">  1        2 0.17277024E+00 0.67048262E+03</pdfrwt>
<pdfrwt beam="2">  1       -2 0.55890472E-01 0.67048262E+03</pdfrwt>
<totfact> 0.64894206E+01</totfact>
</mgrwt>
</event>
<event>
 4    1  0.3565372E-007  0.7111981E+03  0.7818608E-02  0.9953578E-01
         -2   -1    0    0    0  501 -0.00000000000E+00  0.00000000000E+00  0.35322464815E+03  0.35322464816E+03  0.25500000000E-02 0.  1.
          2   -1    0    0  501    0  0.00000000000E+00 -0.00000000000E+00 -0.97337497749E+03  0.97337497749E+03  0.25500000000E-02 0. -1.
    8880023    1    1    2    0    0  0.18108391327E+03 -0.19799290860E+03 -0.71001299557E+03  0.10049483746E+04  0.65864270000E+03 0. -1.
    8880022    1    1    2    0    0 -0.18108391327E+03  0.19799290860E+03  0.89862666228E+02  0.32165125104E+03  0.15294330000E+03 0.  0.
<mgrwt>
<rscale>  0 0.57733452E+03</rscale>
<asrwt>0</asrwt>
<pdfrwt beam="1">  1        2 0.14975000E+00 0.71119813E+03</pdfrwt>
<pdfrwt beam="2">  1       -2 0.54342254E-01 0.71119813E+03</pdfrwt>
<totfact> 0.84965616E+01</totfact>
</mgrwt>
</event>
<event>
 4    1  0.3565372E-007  0.6727033E+03  0.7818608E-02  0.1013795E+00
          2   -1    0    0  501    0  0.00000000000E+00  0.00000000000E+00  0.73831183243E+03  0.73831183244E+03  0.25500000000E-02 0. -1.
         -2   -1    0    0    0  501 -0.00000000000E+00 -0.00000000000E+00 -0.36581926708E+03  0.36581926708E+03  0.25500000000E-02 0.  1.
    8880023    1    1    2    0    0 -0.13009709358E+03 -0.42359385566E+02  0.52096405273E+03  0.85084271273E+03  0.65864270000E+03 0. -1.
    8880022    1    1    2    0    0  0.13009709358E+03  0.42359385566E+02 -0.14847148738E+03  0.25328838679E+03  0.15294330000E+03 0.  0.
<mgrwt>
<rscale>  0 0.49993946E+03</rscale>
<asrwt>0</asrwt>
<pdfrwt beam="1">  1        2 0.11358643E+00 0.67270334E+03</pdfrwt>
<pdfrwt beam="2">  1       -2 0.56279888E-01 0.67270334E+03</pdfrwt>
<totfact> 0.11529655E+02</totfact>
</mgrwt>
</event>
<event>
 4    1  0.3565372E-007  0.7176339E+03  0.7818608E-02  0.9930675E-01
          2   -1    0    0  501    0  0.00000000000E+00  0.00000000000E+00  0.47139357831E+03  0.47139357832E+03  0.25500000000E-02 0. -1.
         -2   -1    0    0    0  501 -0.00000000000E+00 -0.00000000000E+00 -0.87524933330E+03  0.87524933330E+03  0.25500000000E-02 0.  1.
    8880023    1    1    2    0    0 -0.31030222783E+02 -0.28324075028E+03  0.12334858144E+03  0.72815745286E+03  0.65864270000E+03 0. -1.
    8880022    1    1    2    0    0  0.31030222783E+02  0.28324075028E+03 -0.52720433642E+03  0.61848545876E+03  0.15294330000E+03 0.  0.
<mgrwt>
<rscale>  0 0.58797412E+03</rscale>
<asrwt>0</asrwt>
<pdfrwt beam="1">  1        2 0.72522089E-01 0.71763389E+03</pdfrwt>
<pdfrwt beam="2">  1       -2 0.13465374E+00 0.71763389E+03</pdfrwt>
<totfact> 0.26579973E+01</totfact>
</mgrwt>
</event>
<event>
 4    1  0.3565372E-007  0.7518521E+03  0.7818608E-02  0.9826677E-01
         -2   -1    0    0    0  501 -0.00000000000E+00  0.00000000000E+00  0.36208301792E+03  0.36208301792E+03  0.25500000000E-02 0.  1.
          2   -1    0    0  501    0  0.00000000000E+00 -0.00000000000E+00 -0.12158150422E+04  0.12158150422E+04  0.25500000000E-02 0. -1.
    8880023    1    1    2    0    0  0.16461004373E+02  0.36221587426E+03 -0.90994911217E+03  0.11803765913E+04  0.65864270000E+03 0. -1.
    8880022    1    1    2    0    0 -0.16461004373E+02 -0.36221587426E+03  0.56217087866E+02  0.39752146887E+03  0.15294330000E+03 0.  0.
<mgrwt>
<rscale>  0 0.63950322E+03</rscale>
<asrwt>0</asrwt>
<pdfrwt beam="1">  1        2 0.18704847E+00 0.75185205E+03</pdfrwt>
<pdfrwt beam="2">  1       -2 0.55705080E-01 0.75185205E+03</pdfrwt>
<totfact> 0.57083573E+01</totfact>
</mgrwt>
</event>
<event>
 4    1  0.3565372E-007  0.8208829E+03  0.7818608E-02  0.9667339E-01
         -2   -1    0    0    0  501 -0.00000000000E+00  0.00000000000E+00  0.39471628309E+03  0.39471628310E+03  0.25500000000E-02 0.  1.
          2   -1    0    0  501    0  0.00000000000E+00 -0.00000000000E+00 -0.15701312665E+04  0.15701312665E+04  0.25500000000E-02 0. -1.
    8880023    1    1    2    0    0  0.31703386884E+03 -0.37353452674E+03 -0.11966610985E+04  0.14511535093E+04  0.65864270000E+03 0. -1.
    8880022    1    1    2    0    0 -0.31703386884E+03  0.37353452674E+03  0.21246115054E+02  0.51369404034E+03  0.15294330000E+03 0.  0.
<mgrwt>
<rscale>  0 0.72995165E+03</rscale>
<asrwt>0</asrwt>
<pdfrwt beam="1">  1        2 0.24155865E+00 0.82088289E+03</pdfrwt>
<pdfrwt beam="2">  1       -2 0.60725583E-01 0.82088289E+03</pdfrwt>
<totfact> 0.29742847E+01</totfact>
</mgrwt>
</event>
<event>
 4    1  0.3565372E-007  0.7278333E+03  0.7818608E-02  0.9896920E-01
         -2   -1    0    0    0  501 -0.00000000000E+00  0.00000000000E+00  0.56361817930E+03  0.56361817931E+03  0.25500000000E-02 0.  1.
          2   -1    0    0  501    0  0.00000000000E+00 -0.00000000000E+00 -0.17338879963E+04  0.17338879963E+04  0.25500000000E-02 0. -1.
    8880023    1    1    2    0    0 -0.22291854288E+03 -0.21503120820E+03 -0.15931153021E+04  0.17515015470E+04  0.65864270000E+03 0. -1.
    8880022    1    1    2    0    0  0.22291854288E+03  0.21503120820E+03  0.42284548503E+03  0.54600462863E+03  0.15294330000E+03 0.  0.
<mgrwt>
<rscale>  0 0.60410766E+03</rscale>
<asrwt>0</asrwt>
<pdfrwt beam="1">  1        2 0.26675200E+00 0.72783329E+03</pdfrwt>
<pdfrwt beam="2">  1       -2 0.86710490E-01 0.72783329E+03</pdfrwt>
<totfact> 0.11162063E+01</totfact>
</mgrwt>
</event>
<event>
 4    1  0.3565372E-007  0.8156407E+03  0.7818608E-02  0.9677945E-01
         -2   -1    0    0    0  501 -0.00000000000E+00  0.00000000000E+00  0.11726445335E+04  0.11726445335E+04  0.25500000000E-02 0.  1.
          2   -1    0    0  501    0  0.00000000000E+00 -0.00000000000E+00 -0.60827811958E+03  0.60827811959E+03  0.25500000000E-02 0. -1.
    8880023    1    1    2    0    0  0.38048836400E+03  0.29442857329E+03 -0.22303686515E+03  0.84558573154E+03  0.65864270000E+03 0.  0.
    8880022    1    1    2    0    0 -0.38048836400E+03 -0.29442857329E+03  0.78740327904E+03  0.93533692152E+03  0.15294330000E+03 0.  1.
<mgrwt>
<rscale>  0 0.72345249E+03</rscale>
<asrwt>0</asrwt>
<pdfrwt beam="1">  1        2 0.93581249E-01 0.81564072E+03</pdfrwt>
<pdfrwt beam="2">  1       -2 0.18040685E+00 0.81564072E+03</pdfrwt>
<totfact> 0.88789720E+00</totfact>
</mgrwt>
</event>
<event>
 4    1  0.3565372E-007  0.1307068E+04  0.7818608E-02  0.9059480E-01
          2   -1    0    0  501    0  0.00000000000E+00  0.00000000000E+00  0.12519764967E+04  0.12519764967E+04  0.25500000000E-02 0. -1.
         -2   -1    0    0    0  501 -0.00000000000E+00 -0.00000000000E+00 -0.13804120118E+04  0.13804120118E+04  0.25500000000E-02 0.  1.
    8880023    1    1    2    0    0  0.11264072588E+04  0.76313844730E+02 -0.54934976545E+03  0.14178196242E+04  0.65864270000E+03 0.  0.
    8880022    1    1    2    0    0 -0.11264072588E+04 -0.76313844730E+02  0.42091425032E+03  0.12145688843E+04  0.15294330000E+03 0.  0.
<mgrwt>
<rscale>  0 0.12629420E+04</rscale>
<asrwt>0</asrwt>
<pdfrwt beam="1">  1        2 0.19261177E+00 0.13070682E+04</pdfrwt>
<pdfrwt beam="2">  1       -2 0.21237108E+00 0.13070682E+04</pdfrwt>
<totfact> 0.18734964E+00</totfact>
</mgrwt>
</event>
<event>
 4    1  0.3565372E-007  0.7327667E+03  0.7818608E-02  0.9881541E-01
         -2   -1    0    0    0  501 -0.00000000000E+00  0.00000000000E+00  0.48036231530E+03  0.48036231530E+03  0.25500000000E-02 0.  1.
          2   -1    0    0  501    0  0.00000000000E+00 -0.00000000000E+00 -0.96062304119E+03  0.96062304120E+03  0.25500000000E-02 0. -1.
    8880023    1    1    2    0    0 -0.49681254878E+02  0.31728316283E+03 -0.70775052352E+03  0.10187530821E+04  0.65864270000E+03 0. -1.
    8880022    1    1    2    0    0  0.49681254878E+02 -0.31728316283E+03  0.22748979762E+03  0.42223227439E+03  0.15294330000E+03 0.  0.
<mgrwt>
<rscale>  0 0.61164275E+03</rscale>
<asrwt>0</asrwt>
<pdfrwt beam="1">  1        2 0.14778816E+00 0.73276670E+03</pdfrwt>
<pdfrwt beam="2">  1       -2 0.73901895E-01 0.73276670E+03</pdfrwt>
<totfact> 0.44819110E+01</totfact>
</mgrwt>
</event>
<event>
 4    1  0.3565372E-007  0.7348939E+03  0.7818608E-02  0.9875078E-01
          2   -1    0    0  501    0  0.00000000000E+00  0.00000000000E+00  0.17214938984E+04  0.17214938984E+04  0.25500000000E-02 0. -1.
         -2   -1    0    0    0  501 -0.00000000000E+00 -0.00000000000E+00 -0.25688559616E+03  0.25688559617E+03  0.25500000000E-02 0.  1.
    8880023    1    1    2    0    0 -0.51708583727E+01  0.32593259085E+03  0.14409527166E+04  0.16175332236E+04  0.65864270000E+03 0. -1.
    8880022    1    1    2    0    0  0.51708583727E+01 -0.32593259085E+03  0.23655585622E+02  0.36084627101E+03  0.15294330000E+03 0.  1.
<mgrwt>
<rscale>  0 0.61484440E+03</rscale>
<asrwt>0</asrwt>
<pdfrwt beam="1">  1        2 0.26484522E+00 0.73489387E+03</pdfrwt>
<pdfrwt beam="2">  1       -2 0.39520861E-01 0.73489387E+03</pdfrwt>
<totfact> 0.59269889E+01</totfact>
</mgrwt>
</event>
<event>
 4    1  0.3565372E-007  0.1040695E+04  0.7818608E-02  0.9330151E-01
         -2   -1    0    0    0  501 -0.00000000000E+00  0.00000000000E+00  0.69181591186E+03  0.69181591186E+03  0.25500000000E-02 0.  1.
          2   -1    0    0  501    0  0.00000000000E+00 -0.00000000000E+00 -0.20881542546E+04  0.20881542546E+04  0.25500000000E-02 0. -1.
    8880023    1    1    2    0    0 -0.38958412626E+03  0.70530883450E+03 -0.16239816056E+04  0.19288242027E+04  0.65864270000E+03 0.  0.
    8880022    1    1    2    0    0  0.38958412626E+03 -0.70530883450E+03  0.22764326284E+03  0.85114596374E+03  0.15294330000E+03 0.  0.
<mgrwt>
<rscale>  0 0.98053825E+03</rscale>
<asrwt>0</asrwt>
<pdfrwt beam="1">  1        2 0.32125450E+00 0.10406952E+04</pdfrwt>
<pdfrwt beam="2">  1       -2 0.10643322E+00 0.10406952E+04</pdfrwt>
<totfact> 0.42286478E+00</totfact>
</mgrwt>
</event>
<event>
 4    1  0.3565372E-007  0.9753620E+03  0.7818608E-02  0.9414526E-01
          2   -1    0    0  501    0  0.00000000000E+00  0.00000000000E+00  0.11864907151E+04  0.11864907151E+04  0.25500000000E-02 0. -1.
         -2   -1    0    0    0  501 -0.00000000000E+00 -0.00000000000E+00 -0.69342579648E+03  0.69342579648E+03  0.25500000000E-02 0.  1.
    8880023    1    1    2    0    0 -0.54732572646E+03 -0.46685688681E+03  0.58715324693E+03  0.11384550695E+04  0.65864270000E+03 0.  0.
    8880022    1    1    2    0    0  0.54732572646E+03  0.46685688681E+03 -0.94088328286E+02  0.74146144211E+03  0.15294330000E+03 0.  0.
<mgrwt>
<rscale>  0 0.90889820E+03</rscale>
<asrwt>0</asrwt>
<pdfrwt beam="1">  1        2 0.18253703E+00 0.97536199E+03</pdfrwt>
<pdfrwt beam="2">  1       -2 0.10668089E+00 0.97536199E+03</pdfrwt>
<totfact> 0.13596156E+01</totfact>
</mgrwt>
</event>
<event>
 4    1  0.3565372E-007  0.6690836E+03  0.7818608E-02  0.1016329E+00
          2   -1    0    0  501    0  0.00000000000E+00  0.00000000000E+00  0.79571594163E+03  0.79571594163E+03  0.25500000000E-02 0. -1.
         -2   -1    0    0    0  501 -0.00000000000E+00 -0.00000000000E+00 -0.29032198664E+03  0.29032198665E+03  0.25500000000E-02 0.  1.
    8880023    1    1    2    0    0 -0.11260071338E+03  0.34404703961E+02  0.57362799077E+03  0.88131826395E+03  0.65864270000E+03 0. -1.
    8880022    1    1    2    0    0  0.11260071338E+03 -0.34404703961E+02 -0.68234035780E+02  0.20471966433E+03  0.15294330000E+03 0.  1.
<mgrwt>
<rscale>  0 0.49035122E+03</rscale>
<asrwt>0</asrwt>
<pdfrwt beam="1">  1        2 0.12241784E+00 0.66908356E+03</pdfrwt>
<pdfrwt beam="2">  1       -2 0.44664921E-01 0.66908356E+03</pdfrwt>
<totfact> 0.16743101E+02</totfact>
</mgrwt>
</event>
<event>
 4    1  0.3565372E-007  0.7047312E+03  0.7818608E-02  0.9978113E-01
          2   -1    0    0  501    0  0.00000000000E+00  0.00000000000E+00  0.57866992409E+03  0.57866992409E+03  0.25500000000E-02 0. -1.
         -2   -1    0    0    0  501 -0.00000000000E+00 -0.00000000000E+00 -0.56989603737E+03  0.56989603738E+03  0.25500000000E-02 0.  1.
    8880023    1    1    2    0    0 -0.24162834852E+03  0.66720040549E+02  0.27084111677E+03  0.75498406567E+03  0.65864270000E+03 0. -1.
    8880022    1    1    2    0    0  0.24162834852E+03 -0.66720040549E+02 -0.26206723006E+03  0.39358189580E+03  0.15294330000E+03 0.  0.
<mgrwt>
<rscale>  0 0.56620451E+03</rscale>
<asrwt>0</asrwt>
<pdfrwt beam="1">  1        2 0.89026141E-01 0.70473117E+03</pdfrwt>
<pdfrwt beam="2">  1       -2 0.87676314E-01 0.70473117E+03</pdfrwt>
<totfact> 0.59035381E+01</totfact>
</mgrwt>
</event>
<event>
 4    1  0.3565372E-007  0.6810776E+03  0.7818608E-02  0.1008721E+00
         -2   -1    0    0    0  501 -0.00000000000E+00  0.00000000000E+00  0.22095372877E+03  0.22095372878E+03  0.25500000000E-02 0.  1.
          2   -1    0    0  501    0  0.00000000000E+00 -0.00000000000E+00 -0.14981758892E+04  0.14981758892E+04  0.25500000000E-02 0. -1.
    8880023    1    1    2    0    0  0.92996182318E+02 -0.14631559229E+03 -0.13187507717E+04  0.14842406633E+04  0.65864270000E+03 0. -1.
    8880022    1    1    2    0    0 -0.92996182318E+02  0.14631559229E+03  0.41528611256E+02  0.23488895470E+03  0.15294330000E+03 0.  0.
<mgrwt>
<rscale>  0 0.51986323E+03</rscale>
<asrwt>0</asrwt>
<pdfrwt beam="1">  1        2 0.23048859E+00 0.68107764E+03</pdfrwt>
<pdfrwt beam="2">  1       -2 0.33992882E-01 0.68107764E+03</pdfrwt>
<totfact> 0.10559283E+02</totfact>
</mgrwt>
</event>
<event>
 4    1  0.3565372E-007  0.6856271E+03  0.7818608E-02  0.1006304E+00
          2   -1    0    0  501    0  0.00000000000E+00  0.00000000000E+00  0.23779084709E+04  0.23779084709E+04  0.25500000000E-02 0. -1.
         -2   -1    0    0    0  501 -0.00000000000E+00 -0.00000000000E+00 -0.14442802126E+03  0.14442802128E+03  0.25500000000E-02 0.  1.
    8880023    1    1    2    0    0 -0.18616367010E+03 -0.40217435899E+02  0.21615756620E+04  0.22677067498E+04  0.65864270000E+03 0. -1.
    8880022    1    1    2    0    0  0.18616367010E+03  0.40217435899E+02  0.71904787643E+02  0.25462974240E+03  0.15294330000E+03 0.  0.
<mgrwt>
<rscale>  0 0.52970231E+03</rscale>
<asrwt>0</asrwt>
<pdfrwt beam="1">  1        2 0.36583207E+00 0.68562713E+03</pdfrwt>
<pdfrwt beam="2">  1       -2 0.22219696E-01 0.68562713E+03</pdfrwt>
<totfact> 0.75731963E+01</totfact>
</mgrwt>
</event>
<event>
 4    1  0.3565372E-007  0.8563141E+03  0.7818608E-02  0.9600154E-01
         -2   -1    0    0    0  501 -0.00000000000E+00  0.00000000000E+00  0.29129797598E+03  0.29129797599E+03  0.25500000000E-02 0.  1.
          2   -1    0    0  501    0  0.00000000000E+00 -0.00000000000E+00 -0.25383602402E+04  0.25383602402E+04  0.25500000000E-02 0. -1.
    8880023    1    1    2    0    0 -0.48779206186E+03  0.24803741961E+03 -0.20609220354E+04  0.22317422564E+04  0.65864270000E+03 0. -1.
    8880022    1    1    2    0    0  0.48779206186E+03 -0.24803741961E+03 -0.18614022891E+03  0.59791595979E+03  0.15294330000E+03 0.  0.
<mgrwt>
<rscale>  0 0.77285998E+03</rscale>
<asrwt>0</asrwt>
<pdfrwt beam="1">  1        2 0.39051695E+00 0.85631411E+03</pdfrwt>
<pdfrwt beam="2">  1       -2 0.44815075E-01 0.85631411E+03</pdfrwt>
<totfact> 0.16105708E+01</totfact>
</mgrwt>
</event>
<event>
 4    1  0.3565372E-007  0.7017034E+03  0.7818608E-02  0.9990207E-01
          2   -1    0    0  501    0  0.00000000000E+00  0.00000000000E+00  0.15777831214E+04  0.15777831214E+04  0.25500000000E-02 0. -1.
         -2   -1    0    0    0  501 -0.00000000000E+00 -0.00000000000E+00 -0.18537313638E+03  0.18537313640E+03  0.25500000000E-02 0.  1.
    8880023    1    1    2    0    0 -0.13939630057E+03  0.19785371431E+03  0.60918588841E+03  0.92924435634E+03  0.65864270000E+03 0.  1.
    8880022    1    1    2    0    0  0.13939630057E+03 -0.19785371431E+03  0.78322409656E+03  0.83391190142E+03  0.15294330000E+03 0.  1.
<mgrwt>
<rscale>  0 0.56081733E+03</rscale>
<asrwt>0</asrwt>
<pdfrwt beam="1">  1        2 0.24273586E+00 0.70170338E+03</pdfrwt>
<pdfrwt beam="2">  1       -2 0.28518944E-01 0.70170338E+03</pdfrwt>
<totfact> 0.13212455E+02</totfact>
</mgrwt>
</event>
<event>
 4    1  0.3565372E-007  0.7979430E+03  0.7818608E-02  0.9715261E-01
         -2   -1    0    0    0  501 -0.00000000000E+00  0.00000000000E+00  0.52258202201E+03  0.52258202201E+03  0.25500000000E-02 0.  1.
          2   -1    0    0  501    0  0.00000000000E+00 -0.00000000000E+00 -0.24615823310E+04  0.24615823310E+04  0.25500000000E-02 0. -1.
    8880023    1    1    2    0    0 -0.20557347986E+02  0.44997801185E+03 -0.22689911659E+04  0.24052097483E+04  0.65864270000E+03 0. -1.
    8880022    1    1    2    0    0  0.20557347986E+02 -0.44997801185E+03  0.32999085694E+03  0.57895460477E+03  0.15294330000E+03 0.  0.
<mgrwt>
<rscale>  0 0.70115356E+03</rscale>
<asrwt>0</asrwt>
<pdfrwt beam="1">  1        2 0.37870497E+00 0.79794299E+03</pdfrwt>
<pdfrwt beam="2">  1       -2 0.80397236E-01 0.79794299E+03</pdfrwt>
<totfact> 0.52091219E+00</totfact>
</mgrwt>
</event>
<event>
 4    1  0.3565372E-007  0.7228294E+03  0.7818608E-02  0.9913126E-01
          2   -1    0    0  501    0  0.00000000000E+00  0.00000000000E+00  0.30080446123E+04  0.30080446123E+04  0.25500000000E-02 0. -1.
         -2   -1    0    0    0  501 -0.00000000000E+00 -0.00000000000E+00 -0.28974819922E+03  0.28974819923E+03  0.25500000000E-02 0.  1.
    8880023    1    1    2    0    0 -0.18795182440E+03  0.23096796967E+03  0.28483668571E+04  0.29386520805E+04  0.65864270000E+03 0. -1.
    8880022    1    1    2    0    0  0.18795182440E+03 -0.23096796967E+03 -0.13007044398E+03  0.35914073108E+03  0.15294330000E+03 0.  0.
<mgrwt>
<rscale>  0 0.59629337E+03</rscale>
<asrwt>0</asrwt>
<pdfrwt beam="1">  1        2 0.46277614E+00 0.72282937E+03</pdfrwt>
<pdfrwt beam="2">  1       -2 0.44576642E-01 0.72282937E+03</pdfrwt>
<totfact> 0.87843572E+00</totfact>
</mgrwt>
</event>
<event>
 4    1  0.3565372E-007  0.8372840E+03  0.7818608E-02  0.9635323E-01
          2   -1    0    0  501    0  0.00000000000E+00  0.00000000000E+00  0.12184117115E+04  0.12184117115E+04  0.25500000000E-02 0. -1.
         -2   -1    0    0    0  501 -0.00000000000E+00 -0.00000000000E+00 -0.50406512178E+03  0.50406512179E+03  0.25500000000E-02 0.  1.
    8880023    1    1    2    0    0  0.22188830893E+03  0.46690457209E+03  0.82132456680E+03  0.11728676615E+04  0.65864270000E+03 0. -1.
    8880022    1    1    2    0    0 -0.22188830893E+03 -0.46690457209E+03 -0.10697797711E+03  0.54960917176E+03  0.15294330000E+03 0.  0.
<mgrwt>
<rscale>  0 0.75001750E+03</rscale>
<asrwt>0</asrwt>
<pdfrwt beam="1">  1        2 0.18744795E+00 0.83728401E+03</pdfrwt>
<pdfrwt beam="2">  1       -2 0.77548481E-01 0.83728401E+03</pdfrwt>
<totfact> 0.27651225E+01</totfact>
</mgrwt>
</event>
<event>
 4    1  0.3565372E-007  0.9164128E+03  0.7818608E-02  0.9500181E-01
         -2   -1    0    0    0  501 -0.00000000000E+00  0.00000000000E+00  0.64241737848E+03  0.64241737848E+03  0.25500000000E-02 0.  1.
          2   -1    0    0  501    0  0.00000000000E+00 -0.00000000000E+00 -0.12211142875E+04  0.12211142875E+04  0.25500000000E-02 0. -1.
    8880023    1    1    2    0    0  0.10134207636E+03 -0.62907225919E+03  0.97904393072E+02  0.92162769065E+03  0.65864270000E+03 0.  0.
    8880022    1    1    2    0    0 -0.10134207636E+03  0.62907225919E+03 -0.67660130205E+03  0.94190397529E+03  0.15294330000E+03 0.  0.
<mgrwt>
<rscale>  0 0.84270450E+03</rscale>
<asrwt>0</asrwt>
<pdfrwt beam="1">  1        2 0.18786374E+00 0.91641275E+03</pdfrwt>
<pdfrwt beam="2">  1       -2 0.98833443E-01 0.91641275E+03</pdfrwt>
<totfact> 0.15655129E+01</totfact>
</mgrwt>
</event>
<event>
 4    1  0.3565372E-007  0.8280225E+03  0.7818608E-02  0.9653192E-01
         -2   -1    0    0    0  501 -0.00000000000E+00  0.00000000000E+00  0.59043690165E+03  0.59043690165E+03  0.25500000000E-02 0.  1.
          2   -1    0    0  501    0  0.00000000000E+00 -0.00000000000E+00 -0.91332485997E+03  0.91332485997E+03  0.25500000000E-02 0. -1.
    8880023    1    1    2    0    0  0.49634286361E+03  0.73856177444E+02 -0.47879606956E+03  0.95648672531E+03  0.65864270000E+03 0.  0.
    8880022    1    1    2    0    0 -0.49634286361E+03 -0.73856177444E+02  0.15590811124E+03  0.54727503631E+03  0.15294330000E+03 0.  0.
<mgrwt>
<rscale>  0 0.73873412E+03</rscale>
<asrwt>0</asrwt>
<pdfrwt beam="1">  1        2 0.14051152E+00 0.82802245E+03</pdfrwt>
<pdfrwt beam="2">  1       -2 0.90836447E-01 0.82802245E+03</pdfrwt>
<totfact> 0.29953443E+01</totfact>
</mgrwt>
</event>
<event>
 4    1  0.3565372E-007  0.7427662E+03  0.7818608E-02  0.9851961E-01
          2   -1    0    0  501    0  0.00000000000E+00  0.00000000000E+00  0.63824889143E+03  0.63824889144E+03  0.25500000000E-02 0. -1.
         -2   -1    0    0    0  501 -0.00000000000E+00 -0.00000000000E+00 -0.14969020229E+04  0.14969020229E+04  0.25500000000E-02 0.  1.
    8880023    1    1    2    0    0  0.20281495848E+03  0.27705141145E+03  0.38452094088E+03  0.83639581073E+03  0.65864270000E+03 0.  0.
    8880022    1    1    2    0    0 -0.20281495848E+03 -0.27705141145E+03 -0.12431740724E+04  0.12987551036E+04  0.15294330000E+03 0.  0.
<mgrwt>
<rscale>  0 0.62647010E+03</rscale>
<asrwt>0</asrwt>
<pdfrwt beam="1">  1        2 0.98192137E-01 0.74276618E+03</pdfrwt>
<pdfrwt beam="2">  1       -2 0.23029262E+00 0.74276618E+03</pdfrwt>
<totfact> 0.40210197E+00</totfact>
</mgrwt>
</event>
<event>
 4    1  0.3565372E-007  0.7269179E+03  0.7818608E-02  0.9899838E-01
          2   -1    0    0  501    0  0.00000000000E+00  0.00000000000E+00  0.12381398125E+04  0.12381398125E+04  0.25500000000E-02 0. -1.
         -2   -1    0    0    0  501 -0.00000000000E+00 -0.00000000000E+00 -0.26181640451E+03  0.26181640452E+03  0.25500000000E-02 0.  1.
    8880023    1    1    2    0    0  0.30217167970E+03 -0.57372803853E+02  0.40179066428E+03  0.83056926671E+03  0.65864270000E+03 0.  0.
    8880022    1    1    2    0    0 -0.30217167970E+03  0.57372803853E+02  0.57453274371E+03  0.66938695030E+03  0.15294330000E+03 0.  0.
<mgrwt>
<rscale>  0 0.60269157E+03</rscale>
<asrwt>0</asrwt>
<pdfrwt beam="1">  1        2 0.19048305E+00 0.72691786E+03</pdfrwt>
<pdfrwt beam="2">  1       -2 0.40279447E-01 0.72691786E+03</pdfrwt>
<totfact> 0.10666025E+02</totfact>
</mgrwt>
</event>
<event>
 4    1  0.3565372E-007  0.1043507E+04  0.7818608E-02  0.9326728E-01
          2   -1    0    0  501    0  0.00000000000E+00  0.00000000000E+00  0.23220719766E+04  0.23220719766E+04  0.25500000000E-02 0. -1.
         -2   -1    0    0    0  501 -0.00000000000E+00 -0.00000000000E+00 -0.63077917166E+03  0.63077917167E+03  0.25500000000E-02 0.  1.
    8880023    1    1    2    0    0  0.57701036348E+03 -0.56758712168E+03  0.18405046561E+04  0.21157418783E+04  0.65864270000E+03 0.  0.
    8880022    1    1    2    0    0 -0.57701036348E+03  0.56758712168E+03 -0.14921185119E+03  0.83710926993E+03  0.15294330000E+03 0.  0.
<mgrwt>
<rscale>  0 0.98359020E+03</rscale>
<asrwt>0</asrwt>
<pdfrwt beam="1">  1        2 0.35724184E+00 0.10435067E+04</pdfrwt>
<pdfrwt beam="2">  1       -2 0.97042950E-01 0.10435067E+04</pdfrwt>
<totfact> 0.39050543E+00</totfact>
</mgrwt>
</event>
<event>
 4    1  0.3565372E-007  0.7017875E+03  0.7818608E-02  0.9989865E-01
          2   -1    0    0  501    0  0.00000000000E+00  0.00000000000E+00  0.29325428548E+04  0.29325428548E+04  0.25500000000E-02 0. -1.
         -2   -1    0    0    0  501 -0.00000000000E+00 -0.00000000000E+00 -0.14008229487E+03  0.14008229489E+03  0.25500000000E-02 0.  1.
    8880023    1    1    2    0    0  0.81497812028E+02  0.22815241769E+03  0.26706144744E+04  0.27612836320E+04  0.65864270000E+03 0. -1.
    8880022    1    1    2    0    0 -0.81497812028E+02 -0.22815241769E+03  0.12184608547E+03  0.31134151766E+03  0.15294330000E+03 0.  0.
<mgrwt>
<rscale>  0 0.56096859E+03</rscale>
<asrwt>0</asrwt>
<pdfrwt beam="1">  1        2 0.45116041E+00 0.70178745E+03</pdfrwt>
<pdfrwt beam="2">  1       -2 0.21551124E-01 0.70178745E+03</pdfrwt>
<totfact> 0.38106737E+01</totfact>
</mgrwt>
</event>
<event>
 4    1  0.3565372E-007  0.8498699E+03  0.7818608E-02  0.9611843E-01
          2   -1    0    0  501    0  0.00000000000E+00  0.00000000000E+00  0.22450153774E+04  0.22450153774E+04  0.25500000000E-02 0. -1.
         -2   -1    0    0    0  501 -0.00000000000E+00 -0.00000000000E+00 -0.33095030821E+03  0.33095030822E+03  0.25500000000E-02 0.  1.
    8880023    1    1    2    0    0  0.10704186604E+03 -0.52631804280E+03  0.18213536701E+04  0.20098776185E+04  0.65864270000E+03 0.  0.
    8880022    1    1    2    0    0 -0.10704186604E+03  0.52631804280E+03  0.92711399088E+02  0.56608806717E+03  0.15294330000E+03 0.  0.
<mgrwt>
<rscale>  0 0.76517249E+03</rscale>
<asrwt>0</asrwt>
<pdfrwt beam="1">  1        2 0.34538698E+00 0.84986990E+03</pdfrwt>
<pdfrwt beam="2">  1       -2 0.50915432E-01 0.84986990E+03</pdfrwt>
<totfact> 0.18215736E+01</totfact>
</mgrwt>
</event>
<event>
 4    1  0.3565372E-007  0.6652011E+03  0.7818608E-02  0.1019365E+00
         -2   -1    0    0    0  501 -0.00000000000E+00  0.00000000000E+00  0.17594312394E+03  0.17594312396E+03  0.25500000000E-02 0.  1.
          2   -1    0    0  501    0  0.00000000000E+00 -0.00000000000E+00 -0.31195427139E+04  0.31195427139E+04  0.25500000000E-02 0. -1.
    8880023    1    1    2    0    0  0.11940386085E+02  0.92410543158E+02 -0.30260676855E+04  0.30983185964E+04  0.65864270000E+03 0. -1.
    8880022    1    1    2    0    0 -0.11940386085E+02 -0.92410543158E+02  0.82468095543E+02  0.19716724146E+03  0.15294330000E+03 0.  0.
<mgrwt>
<rscale>  0 0.47916352E+03</rscale>
<asrwt>0</asrwt>
<pdfrwt beam="1">  1        2 0.47992961E+00 0.66520109E+03</pdfrwt>
<pdfrwt beam="2">  1       -2 0.27068175E-01 0.66520109E+03</pdfrwt>
<totfact> 0.19572363E+01</totfact>
</mgrwt>
</event>
<event>
 4    1  0.3565372E-007  0.1219523E+04  0.7818608E-02  0.9138374E-01
          2   -1    0    0  501    0  0.00000000000E+00  0.00000000000E+00  0.19388874435E+04  0.19388874435E+04  0.25500000000E-02 0. -1.
         -2   -1    0    0    0  501 -0.00000000000E+00 -0.00000000000E+00 -0.14419920781E+04  0.14419920781E+04  0.25500000000E-02 0.  1.
    8880023    1    1    2    0    0  0.10062330178E+04  0.20228968137E+03  0.15029986677E+04  0.19355209124E+04  0.65864270000E+03 0.  0.
    8880022    1    1    2    0    0 -0.10062330178E+04 -0.20228968137E+03 -0.10061033023E+04  0.14453586092E+04  0.15294330000E+03 0.  1.
<mgrwt>
<rscale>  0 0.11712787E+04</rscale>
<asrwt>0</asrwt>
<pdfrwt beam="1">  1        2 0.29829038E+00 0.12195229E+04</pdfrwt>
<pdfrwt beam="2">  1       -2 0.22184493E+00 0.12195229E+04</pdfrwt>
<totfact> 0.67353131E-01</totfact>
</mgrwt>
</event>
<event>
 4    1  0.3565372E-007  0.7460268E+03  0.7818608E-02  0.9842727E-01
         -2   -1    0    0    0  501 -0.00000000000E+00  0.00000000000E+00  0.12761471894E+04  0.12761471894E+04  0.25500000000E-02 0.  1.
          2   -1    0    0  501    0  0.00000000000E+00 -0.00000000000E+00 -0.84367542352E+03  0.84367542352E+03  0.25500000000E-02 0. -1.
    8880023    1    1    2    0    0 -0.31359437942E+03  0.15621898744E+03 -0.63894769355E+03  0.98224750863E+03  0.65864270000E+03 0. -1.
    8880022    1    1    2    0    0  0.31359437942E+03 -0.15621898744E+03  0.10714194595E+04  0.11375751043E+04  0.15294330000E+03 0.  0.
<mgrwt>
<rscale>  0 0.63119133E+03</rscale>
<asrwt>0</asrwt>
<pdfrwt beam="1">  1        2 0.12979622E+00 0.74602682E+03</pdfrwt>
<pdfrwt beam="2">  1       -2 0.19633034E+00 0.74602682E+03</pdfrwt>
<totfact> 0.46098304E+00</totfact>
</mgrwt>
</event>
<event>
 4    1  0.3565372E-007  0.1003481E+04  0.7818608E-02  0.9377018E-01
          2   -1    0    0  501    0  0.00000000000E+00  0.00000000000E+00  0.24845037073E+04  0.24845037073E+04  0.25500000000E-02 0. -1.
         -2   -1    0    0    0  501 -0.00000000000E+00 -0.00000000000E+00 -0.48914693388E+03  0.48914693389E+03  0.25500000000E-02 0.  1.
    8880023    1    1    2    0    0 -0.29267004307E+03  0.69821756345E+03  0.19582497771E+04  0.22003899463E+04  0.65864270000E+03 0.  0.
    8880022    1    1    2    0    0  0.29267004307E+03 -0.69821756345E+03  0.37106996281E+02  0.77326069485E+03  0.15294330000E+03 0.  0.
<mgrwt>
<rscale>  0 0.93991402E+03</rscale>
<asrwt>0</asrwt>
<pdfrwt beam="1">  1        2 0.38223134E+00 0.10034808E+04</pdfrwt>
<pdfrwt beam="2">  1       -2 0.75253375E-01 0.10034808E+04</pdfrwt>
<totfact> 0.56883290E+00</totfact>
</mgrwt>
</event>
<event>
 4    1  0.3565372E-007  0.6886593E+03  0.7818608E-02  0.1004796E+00
         -2   -1    0    0    0  501 -0.00000000000E+00  0.00000000000E+00  0.10190451686E+04  0.10190451686E+04  0.25500000000E-02 0.  1.
          2   -1    0    0  501    0  0.00000000000E+00 -0.00000000000E+00 -0.70457651118E+03  0.70457651118E+03  0.25500000000E-02 0. -1.
    8880023    1    1    2    0    0  0.68628906925E+02  0.18902792850E+03 -0.51281272620E+03  0.85862016226E+03  0.65864270000E+03 0. -1.
    8880022    1    1    2    0    0 -0.68628906925E+02 -0.18902792850E+03  0.82728138358E+03  0.86500151749E+03  0.15294330000E+03 0.  0.
<mgrwt>
<rscale>  0 0.53596213E+03</rscale>
<asrwt>0</asrwt>
<pdfrwt beam="1">  1        2 0.10839639E+00 0.68865934E+03</pdfrwt>
<pdfrwt beam="2">  1       -2 0.15677618E+00 0.68865934E+03</pdfrwt>
<totfact> 0.11064804E+01</totfact>
</mgrwt>
</event>
<event>
 4    1  0.3565372E-007  0.6614494E+03  0.7818608E-02  0.1022718E+00
          2   -1    0    0  501    0  0.00000000000E+00  0.00000000000E+00  0.14420615631E+04  0.14420615631E+04  0.25500000000E-02 0. -1.
         -2   -1    0    0    0  501 -0.00000000000E+00 -0.00000000000E+00 -0.16275814463E+03  0.16275814465E+03  0.25500000000E-02 0.  1.
    8880023    1    1    2    0    0 -0.40610711364E+02  0.45341095686E+02  0.12793305260E+04  0.14402089591E+04  0.65864270000E+03 0. -1.
    8880022    1    1    2    0    0  0.40610711364E+02 -0.45341095686E+02 -0.27107482515E-01  0.16461074869E+03  0.15294330000E+03 0.  0.
<mgrwt>
<rscale>  0 0.46718296E+03</rscale>
<asrwt>0</asrwt>
<pdfrwt beam="1">  1        2 0.22185563E+00 0.66144936E+03</pdfrwt>
<pdfrwt beam="2">  1       -2 0.25039714E-01 0.66144936E+03</pdfrwt>
<totfact> 0.19981478E+02</totfact>
</mgrwt>
</event>
<event>
 4    1  0.3565372E-007  0.7946219E+03  0.7818608E-02  0.9722548E-01
          2   -1    0    0  501    0  0.00000000000E+00  0.00000000000E+00  0.10750012255E+04  0.10750012255E+04  0.25500000000E-02 0. -1.
         -2   -1    0    0    0  501 -0.00000000000E+00 -0.00000000000E+00 -0.48704914759E+03  0.48704914760E+03  0.25500000000E-02 0.  1.
    8880023    1    1    2    0    0 -0.42804016133E+03  0.11998058742E+03  0.72153295246E+03  0.10733283416E+04  0.65864270000E+03 0.  0.
    8880022    1    1    2    0    0  0.42804016133E+03 -0.11998058742E+03 -0.13358087453E+03  0.48872203155E+03  0.15294330000E+03 0.  0.
<mgrwt>
<rscale>  0 0.69690045E+03</rscale>
<asrwt>0</asrwt>
<pdfrwt beam="1">  1        2 0.16538480E+00 0.79462188E+03</pdfrwt>
<pdfrwt beam="2">  1       -2 0.74930639E-01 0.79462188E+03</pdfrwt>
<totfact> 0.36582895E+01</totfact>
</mgrwt>
</event>
<event>
 4    1  0.3565372E-007  0.6877368E+03  0.7818608E-02  0.1005247E+00
          2   -1    0    0  501    0  0.00000000000E+00  0.00000000000E+00  0.93191068354E+03  0.93191068354E+03  0.25500000000E-02 0. -1.
         -2   -1    0    0    0  501 -0.00000000000E+00 -0.00000000000E+00 -0.41554594634E+03  0.41554594635E+03  0.25500000000E-02 0.  1.
    8880023    1    1    2    0    0  0.56803246101E+02 -0.18959181575E+03  0.74121013955E+03  0.10111252853E+04  0.65864270000E+03 0.  0.
    8880022    1    1    2    0    0 -0.56803246101E+02  0.18959181575E+03 -0.22484540236E+03  0.33633134458E+03  0.15294330000E+03 0.  0.
<mgrwt>
<rscale>  0 0.53408042E+03</rscale>
<asrwt>0</asrwt>
<pdfrwt beam="1">  1        2 0.14337087E+00 0.68773677E+03</pdfrwt>
<pdfrwt beam="2">  1       -2 0.63930146E-01 0.68773677E+03</pdfrwt>
<totfact> 0.64380780E+01</totfact>
</mgrwt>
</event>
<event>
 4    1  0.3565372E-007  0.1041002E+04  0.7818608E-02  0.9329777E-01
         -2   -1    0    0    0  501 -0.00000000000E+00  0.00000000000E+00  0.10924251248E+04  0.10924251248E+04  0.25500000000E-02 0.  1.
          2   -1    0    0  501    0  0.00000000000E+00 -0.00000000000E+00 -0.83830320279E+03  0.83830320279E+03  0.25500000000E-02 0. -1.
    8880023    1    1    2    0    0  0.76505366067E+03  0.25410131978E+03 -0.81557730641E+02  0.10441917708E+04  0.65864270000E+03 0.  0.
    8880022    1    1    2    0    0 -0.76505366067E+03 -0.25410131978E+03  0.33567965266E+03  0.88653655685E+03  0.15294330000E+03 0.  0.
<mgrwt>
<rscale>  0 0.98087117E+03</rscale>
<asrwt>0</asrwt>
<pdfrwt beam="1">  1        2 0.12896972E+00 0.10410018E+04</pdfrwt>
<pdfrwt beam="2">  1       -2 0.16806540E+00 0.10410018E+04</pdfrwt>
<totfact> 0.70311591E+00</totfact>
</mgrwt>
</event>
<event>
 4    1  0.3565372E-007  0.7234648E+03  0.7818608E-02  0.9911032E-01
          2   -1    0    0  501    0  0.00000000000E+00  0.00000000000E+00  0.14571870196E+04  0.14571870196E+04  0.25500000000E-02 0. -1.
         -2   -1    0    0    0  501 -0.00000000000E+00 -0.00000000000E+00 -0.19963087899E+03  0.19963087901E+03  0.25500000000E-02 0.  1.
    8880023    1    1    2    0    0 -0.29198004048E+03 -0.65869838957E+02  0.99543810592E+03  0.12305683275E+04  0.65864270000E+03 0.  0.
    8880022    1    1    2    0    0  0.29198004048E+03  0.65869838957E+02  0.26211803466E+03  0.42624957107E+03  0.15294330000E+03 0.  0.
<mgrwt>
<rscale>  0 0.59729604E+03</rscale>
<asrwt>0</asrwt>
<pdfrwt beam="1">  1        2 0.22418261E+00 0.72346485E+03</pdfrwt>
<pdfrwt beam="2">  1       -2 0.30712444E-01 0.72346485E+03</pdfrwt>
<totfact> 0.13412386E+02</totfact>
</mgrwt>
</event>
<event>
 4    1  0.3565372E-007  0.6982153E+03  0.7818608E-02  0.1000469E+00
          2   -1    0    0  501    0  0.00000000000E+00  0.00000000000E+00  0.82938538560E+03  0.82938538561E+03  0.25500000000E-02 0. -1.
         -2   -1    0    0    0  501 -0.00000000000E+00 -0.00000000000E+00 -0.45155467316E+03  0.45155467317E+03  0.25500000000E-02 0.  1.
    8880023    1    1    2    0    0 -0.20006199695E+03  0.11691717362E+03  0.60370728067E+03  0.92302064718E+03  0.65864270000E+03 0. -1.
    8880022    1    1    2    0    0  0.20006199695E+03 -0.11691717362E+03 -0.22587656823E+03  0.35791941160E+03  0.15294330000E+03 0.  0.
<mgrwt>
<rscale>  0 0.55445209E+03</rscale>
<asrwt>0</asrwt>
<pdfrwt beam="1">  1        2 0.12759775E+00 0.69821532E+03</pdfrwt>
<pdfrwt beam="2">  1       -2 0.69469950E-01 0.69821532E+03</pdfrwt>
<totfact> 0.63123158E+01</totfact>
</mgrwt>
</event>
<event>
 4    1  0.3565372E-007  0.8311387E+03  0.7818608E-02  0.9647121E-01
         -2   -1    0    0    0  501 -0.00000000000E+00  0.00000000000E+00  0.46303156835E+03  0.46303156836E+03  0.25500000000E-02 0.  1.
          2   -1    0    0  501    0  0.00000000000E+00 -0.00000000000E+00 -0.14336631134E+04  0.14336631134E+04  0.25500000000E-02 0. -1.
    8880023    1    1    2    0    0  0.49602352866E+03 -0.10460373051E+03 -0.10731428891E+04  0.13573603605E+04  0.65864270000E+03 0. -1.
    8880022    1    1    2    0    0 -0.49602352866E+03  0.10460373051E+03  0.10251134410E+03  0.53933432127E+03  0.15294330000E+03 0.  0.
<mgrwt>
<rscale>  0 0.74254389E+03</rscale>
<asrwt>0</asrwt>
<pdfrwt beam="1">  1        2 0.22056355E+00 0.83113867E+03</pdfrwt>
<pdfrwt beam="2">  1       -2 0.71235626E-01 0.83113867E+03</pdfrwt>
<totfact> 0.25098968E+01</totfact>
</mgrwt>
</event>
<event>
 4    1  0.3565372E-007  0.8281287E+03  0.7818608E-02  0.9652984E-01
          2   -1    0    0  501    0  0.00000000000E+00  0.00000000000E+00  0.75205008339E+03  0.75205008340E+03  0.25500000000E-02 0. -1.
         -2   -1    0    0    0  501 -0.00000000000E+00 -0.00000000000E+00 -0.62082605756E+03  0.62082605756E+03  0.25500000000E-02 0.  1.
    8880023    1    1    2    0    0 -0.41806357258E+03 -0.27786653895E+03  0.17455346059E+03  0.84632504456E+03  0.65864270000E+03 0.  1.
    8880022    1    1    2    0    0  0.41806357258E+03  0.27786653895E+03 -0.43329434752E+02  0.52655109640E+03  0.15294330000E+03 0. -1.
<mgrwt>
<rscale>  0 0.73886426E+03</rscale>
<asrwt>0</asrwt>
<pdfrwt beam="1">  1        2 0.11570001E+00 0.82812872E+03</pdfrwt>
<pdfrwt beam="2">  1       -2 0.95511701E-01 0.82812872E+03</pdfrwt>
<totfact> 0.34642830E+01</totfact>
</mgrwt>
</event>
<event>
 4    1  0.3565372E-007  0.6590999E+03  0.7818608E-02  0.1025098E+00
          2   -1    0    0  501    0  0.00000000000E+00  0.00000000000E+00  0.20630392617E+04  0.20630392617E+04  0.25500000000E-02 0. -1.
         -2   -1    0    0    0  501 -0.00000000000E+00 -0.00000000000E+00 -0.23981330698E+03  0.23981330699E+03  0.25500000000E-02 0.  1.
    8880023    1    1    2    0    0  0.15169778341E+02 -0.19296570331E+02  0.19773705501E+04  0.20843241059E+04  0.65864270000E+03 0. -1.
    8880022    1    1    2    0    0 -0.15169778341E+02  0.19296570331E+02 -0.15414459530E+03  0.21852846285E+03  0.15294330000E+03 0.  0.
<mgrwt>
<rscale>  0 0.45890899E+03</rscale>
<asrwt>0</asrwt>
<pdfrwt beam="1">  1        2 0.31739065E+00 0.65909991E+03</pdfrwt>
<pdfrwt beam="2">  1       -2 0.36894356E-01 0.65909991E+03</pdfrwt>
<totfact> 0.44543626E+01</totfact>
</mgrwt>
</event>
<event>
 4    1  0.3565372E-007  0.7582435E+03  0.7818608E-02  0.9809676E-01
         -2   -1    0    0    0  501 -0.00000000000E+00  0.00000000000E+00  0.67023972209E+03  0.67023972210E+03  0.25500000000E-02 0.  1.
          2   -1    0    0  501    0  0.00000000000E+00 -0.00000000000E+00 -0.84047321202E+03  0.84047321202E+03  0.25500000000E-02 0. -1.
    8880023    1    1    2    0    0 -0.16923527476E+03 -0.33538404922E+03 -0.56431564558E+03  0.94519066478E+03  0.65864270000E+03 0.  0.
    8880022    1    1    2    0    0  0.16923527476E+03  0.33538404922E+03  0.39408215565E+03  0.56552226933E+03  0.15294330000E+03 0.  0.
<mgrwt>
<rscale>  0 0.64845840E+03</rscale>
<asrwt>0</asrwt>
<pdfrwt beam="1">  1        2 0.12930357E+00 0.75824353E+03</pdfrwt>
<pdfrwt beam="2">  1       -2 0.10311380E+00 0.75824353E+03</pdfrwt>
<totfact> 0.25089026E+01</totfact>
</mgrwt>
</event>
<event>
 4    1  0.3565372E-007  0.1104927E+04  0.7818608E-02  0.9255590E-01
          2   -1    0    0  501    0  0.00000000000E+00  0.00000000000E+00  0.24237775962E+04  0.24237775962E+04  0.25500000000E-02 0. -1.
         -2   -1    0    0    0  501 -0.00000000000E+00 -0.00000000000E+00 -0.50315244271E+03  0.50315244271E+03  0.25500000000E-02 0.  1.
    8880023    1    1    2    0    0 -0.77754616183E+03  0.42717200426E+03  0.43020386400E+03  0.11857232080E+04  0.65864270000E+03 0.  1.
    8880022    1    1    2    0    0  0.77754616183E+03 -0.42717200426E+03  0.14904212895E+04  0.17412068310E+04  0.15294330000E+03 0.  0.
<mgrwt>
<rscale>  0 0.10497617E+04</rscale>
<asrwt>0</asrwt>
<pdfrwt beam="1">  1        2 0.37288886E+00 0.11049272E+04</pdfrwt>
<pdfrwt beam="2">  1       -2 0.77408068E-01 0.11049272E+04</pdfrwt>
<totfact> 0.57120485E+00</totfact>
</mgrwt>
</event>
<event>
 4    1  0.3565372E-007  0.7258758E+03  0.7818608E-02  0.9903183E-01
         -2   -1    0    0    0  501 -0.00000000000E+00  0.00000000000E+00  0.56083291628E+03  0.56083291629E+03  0.25500000000E-02 0.  1.
          2   -1    0    0  501    0  0.00000000000E+00 -0.00000000000E+00 -0.76045309945E+03  0.76045309945E+03  0.25500000000E-02 0. -1.
    8880023    1    1    2    0    0 -0.11639916046E+03 -0.28202261053E+03 -0.48784167081E+03  0.87457716609E+03  0.65864270000E+03 0. -1.
    8880022    1    1    2    0    0  0.11639916046E+03  0.28202261053E+03  0.28822148764E+03  0.44670884965E+03  0.15294330000E+03 0.  0.
<mgrwt>
<rscale>  0 0.60107249E+03</rscale>
<asrwt>0</asrwt>
<pdfrwt beam="1">  1        2 0.11699278E+00 0.72587583E+03</pdfrwt>
<pdfrwt beam="2">  1       -2 0.86281987E-01 0.72587583E+03</pdfrwt>
<totfact> 0.43549586E+01</totfact>
</mgrwt>
</event>
<event>
 4    1  0.3565372E-007  0.6626169E+03  0.7818608E-02  0.1021622E+00
          2   -1    0    0  501    0  0.00000000000E+00  0.00000000000E+00  0.12817164135E+04  0.12817164135E+04  0.25500000000E-02 0. -1.
         -2   -1    0    0    0  501 -0.00000000000E+00 -0.00000000000E+00 -0.30715372363E+03  0.30715372364E+03  0.25500000000E-02 0.  1.
    8880023    1    1    2    0    0 -0.21219182097E+02 -0.69286945400E+02  0.11611821886E+04  0.13369387480E+04  0.65864270000E+03 0. -1.
    8880022    1    1    2    0    0  0.21219182097E+02  0.69286945400E+02 -0.18661949876E+03  0.25193138912E+03  0.15294330000E+03 0.  0.
<mgrwt>
<rscale>  0 0.47105694E+03</rscale>
<asrwt>0</asrwt>
<pdfrwt beam="1">  1        2 0.19718714E+00 0.66261689E+03</pdfrwt>
<pdfrwt beam="2">  1       -2 0.47254419E-01 0.66261689E+03</pdfrwt>
<totfact> 0.73778212E+01</totfact>
</mgrwt>
</event>
<event>
 4    1  0.3565372E-007  0.6606204E+03  0.7818608E-02  0.1023530E+00
         -2   -1    0    0    0  501 -0.00000000000E+00  0.00000000000E+00  0.11980763896E+03  0.11980763899E+03  0.25500000000E-02 0.  1.
          2   -1    0    0  501    0  0.00000000000E+00 -0.00000000000E+00 -0.20549338254E+04  0.20549338254E+04  0.25500000000E-02 0. -1.
    8880023    1    1    2    0    0 -0.48497827829E+02 -0.16034927917E+02 -0.18974328523E+04  0.20091467825E+04  0.65864270000E+03 0. -1.
    8880022    1    1    2    0    0  0.48497827829E+02  0.16034927917E+02 -0.37693334086E+02  0.16559468188E+03  0.15294330000E+03 0.  0.
<mgrwt>
<rscale>  0 0.46434136E+03</rscale>
<asrwt>0</asrwt>
<pdfrwt beam="1">  1        2 0.31614364E+00 0.66062044E+03</pdfrwt>
<pdfrwt beam="2">  1       -2 0.18431946E-01 0.66062044E+03</pdfrwt>
<totfact> 0.15863172E+02</totfact>
</mgrwt>
</event>
<event>
 4    1  0.3565372E-007  0.7769289E+03  0.7818608E-02  0.9763101E-01
          2   -1    0    0  501    0  0.00000000000E+00  0.00000000000E+00  0.14602326203E+04  0.14602326203E+04  0.25500000000E-02 0. -1.
         -2   -1    0    0    0  501 -0.00000000000E+00 -0.00000000000E+00 -0.73453548796E+03  0.73453548796E+03  0.25500000000E-02 0.  1.
    8880023    1    1    2    0    0 -0.18497567910E+03  0.36822856199E+03  0.12738911872E+04  0.14921183729E+04  0.65864270000E+03 0. -1.
    8880022    1    1    2    0    0  0.18497567910E+03 -0.36822856199E+03 -0.54819405488E+03  0.70264973532E+03  0.15294330000E+03 0.  0.
<mgrwt>
<rscale>  0 0.67380902E+03</rscale>
<asrwt>0</asrwt>
<pdfrwt beam="1">  1        2 0.22465117E+00 0.77692888E+03</pdfrwt>
<pdfrwt beam="2">  1       -2 0.11300546E+00 0.77692888E+03</pdfrwt>
<totfact> 0.83953459E+00</totfact>
</mgrwt>
</event>
<event>
 4    1  0.3565372E-007  0.8056424E+03  0.7818608E-02  0.9698726E-01
         -2   -1    0    0    0  501 -0.00000000000E+00  0.00000000000E+00  0.58846663411E+03  0.58846663412E+03  0.25500000000E-02 0.  1.
          2   -1    0    0  501    0  0.00000000000E+00 -0.00000000000E+00 -0.80825395650E+03  0.80825395650E+03  0.25500000000E-02 0. -1.
    8880023    1    1    2    0    0  0.28269988102E+03 -0.36787259234E+03 -0.36872417643E+03  0.88601195899E+03  0.65864270000E+03 0.  0.
    8880022    1    1    2    0    0 -0.28269988102E+03  0.36787259234E+03  0.14893685405E+03  0.51070863164E+03  0.15294330000E+03 0.  0.
<mgrwt>
<rscale>  0 0.71092681E+03</rscale>
<asrwt>0</asrwt>
<pdfrwt beam="1">  1        2 0.12434676E+00 0.80564240E+03</pdfrwt>
<pdfrwt beam="2">  1       -2 0.90533329E-01 0.80564240E+03</pdfrwt>
<totfact> 0.35753567E+01</totfact>
</mgrwt>
</event>
<event>
 4    1  0.3565372E-007  0.6888378E+03  0.7818608E-02  0.1004710E+00
         -2   -1    0    0    0  501 -0.00000000000E+00  0.00000000000E+00  0.20146097929E+03  0.20146097931E+03  0.25500000000E-02 0.  1.
          2   -1    0    0  501    0  0.00000000000E+00 -0.00000000000E+00 -0.18465368062E+04  0.18465368062E+04  0.25500000000E-02 0. -1.
    8880023    1    1    2    0    0 -0.14823296697E+03 -0.13680020257E+03 -0.16571052911E+04  0.17945738937E+04  0.65864270000E+03 0. -1.
    8880022    1    1    2    0    0  0.14823296697E+03  0.13680020257E+03  0.12029464177E+02  0.25342389182E+03  0.15294330000E+03 0.  0.
<mgrwt>
<rscale>  0 0.53632391E+03</rscale>
<asrwt>0</asrwt>
<pdfrwt beam="1">  1        2 0.28408257E+00 0.68883780E+03</pdfrwt>
<pdfrwt beam="2">  1       -2 0.30993998E-01 0.68883780E+03</pdfrwt>
<totfact> 0.80885296E+01</totfact>
</mgrwt>
</event>
<event>
 4    1  0.3565372E-007  0.8761372E+03  0.7818608E-02  0.9565479E-01
          2   -1    0    0  501    0  0.00000000000E+00  0.00000000000E+00  0.14468398704E+04  0.14468398704E+04  0.25500000000E-02 0. -1.
         -2   -1    0    0    0  501 -0.00000000000E+00 -0.00000000000E+00 -0.43370627953E+03  0.43370627954E+03  0.25500000000E-02 0.  1.
    8880023    1    1    2    0    0  0.42413238983E+03 -0.39232369184E+03  0.24975757798E+03  0.91104073306E+03  0.65864270000E+03 0.  0.
    8880022    1    1    2    0    0 -0.42413238983E+03  0.39232369184E+03  0.76337601292E+03  0.96950541690E+03  0.15294330000E+03 0.  0.
<mgrwt>
<rscale>  0 0.79623760E+03</rscale>
<asrwt>0</asrwt>
<pdfrwt beam="1">  1        2 0.22259075E+00 0.87613719E+03</pdfrwt>
<pdfrwt beam="2">  1       -2 0.66724042E-01 0.87613719E+03</pdfrwt>
<totfact> 0.28326591E+01</totfact>
</mgrwt>
</event>
<event>
 4    1  0.3565372E-007  0.6600845E+03  0.7818608E-02  0.1024070E+00
          2   -1    0    0  501    0  0.00000000000E+00  0.00000000000E+00  0.14785891947E+04  0.14785891947E+04  0.25500000000E-02 0. -1.
         -2   -1    0    0    0  501 -0.00000000000E+00 -0.00000000000E+00 -0.47164781156E+03  0.47164781157E+03  0.25500000000E-02 0.  1.
    8880023    1    1    2    0    0 -0.30610653162E+02 -0.31053983904E+02  0.13881966309E+04  0.15371406749E+04  0.65864270000E+03 0. -1.
    8880022    1    1    2    0    0  0.30610653162E+02  0.31053983904E+02 -0.38125524780E+03  0.41309633137E+03  0.15294330000E+03 0.  0.
<mgrwt>
<rscale>  0 0.46246060E+03</rscale>
<asrwt>0</asrwt>
<pdfrwt beam="1">  1        2 0.22747525E+00 0.66008452E+03</pdfrwt>
<pdfrwt beam="2">  1       -2 0.72561204E-01 0.66008452E+03</pdfrwt>
<totfact> 0.23212387E+01</totfact>
</mgrwt>
</event>
<event>
 4    1  0.3565372E-007  0.1049400E+04  0.7818608E-02  0.9319603E-01
          2   -1    0    0  501    0  0.00000000000E+00  0.00000000000E+00  0.26625099218E+04  0.26625099218E+04  0.25500000000E-02 0. -1.
         -2   -1    0    0    0  501 -0.00000000000E+00 -0.00000000000E+00 -0.84690618049E+03  0.84690618049E+03  0.25500000000E-02 0.  1.
    8880023    1    1    2    0    0  0.65056371713E+03  0.49416312079E+03  0.23136127373E+04  0.25404811442E+04  0.65864270000E+03 0.  0.
    8880022    1    1    2    0    0 -0.65056371713E+03 -0.49416312079E+03 -0.49800899591E+03  0.96893495809E+03  0.15294330000E+03 0.  0.
<mgrwt>
<rscale>  0 0.98998039E+03</rscale>
<asrwt>0</asrwt>
<pdfrwt beam="1">  1        2 0.40961691E+00 0.10494001E+04</pdfrwt>
<pdfrwt beam="2">  1       -2 0.13029326E+00 0.10494001E+04</pdfrwt>
<totfact> 0.12097047E+00</totfact>
</mgrwt>
</event>
<event>
 4    1  0.3565372E-007  0.6710898E+03  0.7818608E-02  0.1014893E+00
          2   -1    0    0  501    0  0.00000000000E+00  0.00000000000E+00  0.14481538008E+04  0.14481538008E+04  0.25500000000E-02 0. -1.
         -2   -1    0    0    0  501 -0.00000000000E+00 -0.00000000000E+00 -0.93237551729E+03  0.93237551730E+03  0.25500000000E-02 0.  1.
    8880023    1    1    2    0    0 -0.12722638702E+03 -0.19097289054E+02  0.13580804501E+04  0.15148412376E+04  0.65864270000E+03 0. -1.
    8880022    1    1    2    0    0  0.12722638702E+03  0.19097289054E+02 -0.84230216654E+03  0.86568808053E+03  0.15294330000E+03 0.  0.
<mgrwt>
<rscale>  0 0.49575309E+03</rscale>
<asrwt>0</asrwt>
<pdfrwt beam="1">  1        2 0.22279289E+00 0.67108976E+03</pdfrwt>
<pdfrwt beam="2">  1       -2 0.14344239E+00 0.67108976E+03</pdfrwt>
<totfact> 0.47535054E+00</totfact>
</mgrwt>
</event>
<event>
 4    1  0.3565372E-007  0.9285764E+03  0.7818608E-02  0.9481632E-01
         -2   -1    0    0    0  501 -0.00000000000E+00  0.00000000000E+00  0.35178047989E+03  0.35178047990E+03  0.25500000000E-02 0.  1.
          2   -1    0    0  501    0  0.00000000000E+00 -0.00000000000E+00 -0.26534310113E+04  0.26534310113E+04  0.25500000000E-02 0. -1.
    8880023    1    1    2    0    0  0.84574480365E+02  0.64906938887E+03 -0.21114772670E+04  0.23066404942E+04  0.65864270000E+03 0.  0.
    8880022    1    1    2    0    0 -0.84574480365E+02 -0.64906938887E+03 -0.19017326442E+03  0.69857099698E+03  0.15294330000E+03 0.  0.
<mgrwt>
<rscale>  0 0.85651659E+03</rscale>
<asrwt>0</asrwt>
<pdfrwt beam="1">  1        2 0.40822014E+00 0.92857639E+03</pdfrwt>
<pdfrwt beam="2">  1       -2 0.54120076E-01 0.92857639E+03</pdfrwt>
<totfact> 0.93238187E+00</totfact>
</mgrwt>
</event>
<event>
 4    1  0.3565372E-007  0.6658896E+03  0.7818608E-02  0.1018798E+00
         -2   -1    0    0    0  501 -0.00000000000E+00  0.00000000000E+00  0.24256732297E+03  0.24256732299E+03  0.25500000000E-02 0.  1.
          2   -1    0    0  501    0  0.00000000000E+00 -0.00000000000E+00 -0.11539219113E+04  0.11539219113E+04  0.25500000000E-02 0. -1.
    8880023    1    1    2    0    0  0.35859124353E+02 -0.91175251387E+02 -0.99440761113E+03  0.11967687774E+04  0.65864270000E+03 0. -1.
    8880022    1    1    2    0    0 -0.35859124353E+02  0.91175251387E+02  0.83053022832E+02  0.19972045684E+03  0.15294330000E+03 0.  0.
<mgrwt>
<rscale>  0 0.48122727E+03</rscale>
<asrwt>0</asrwt>
<pdfrwt beam="1">  1        2 0.17752645E+00 0.66588964E+03</pdfrwt>
<pdfrwt beam="2">  1       -2 0.37318050E-01 0.66588964E+03</pdfrwt>
<totfact> 0.13938289E+02</totfact>
</mgrwt>
</event>
<event>
 4    1  0.3565372E-007  0.7729510E+03  0.7818608E-02  0.9772663E-01
          2   -1    0    0  501    0  0.00000000000E+00  0.00000000000E+00  0.16236937470E+04  0.16236937470E+04  0.25500000000E-02 0. -1.
         -2   -1    0    0    0  501 -0.00000000000E+00 -0.00000000000E+00 -0.25539452934E+03  0.25539452936E+03  0.25500000000E-02 0.  1.
    8880023    1    1    2    0    0 -0.16749580171E+03  0.36822304517E+03  0.11725020205E+04  0.14043554568E+04  0.65864270000E+03 0. -1.
    8880022    1    1    2    0    0  0.16749580171E+03 -0.36822304517E+03  0.19579719717E+03  0.47473281962E+03  0.15294330000E+03 0.  0.
<mgrwt>
<rscale>  0 0.66850437E+03</rscale>
<asrwt>0</asrwt>
<pdfrwt beam="1">  1        2 0.24979904E+00 0.77295101E+03</pdfrwt>
<pdfrwt beam="2">  1       -2 0.39291466E-01 0.77295101E+03</pdfrwt>
<totfact> 0.67555410E+01</totfact>
</mgrwt>
</event>
<event>
 4    1  0.3565372E-007  0.6643283E+03  0.7818608E-02  0.1020104E+00
         -2   -1    0    0    0  501 -0.00000000000E+00  0.00000000000E+00  0.83456091323E+03  0.83456091324E+03  0.25500000000E-02 0.  1.
          2   -1    0    0  501    0  0.00000000000E+00 -0.00000000000E+00 -0.54022615084E+03  0.54022615085E+03  0.25500000000E-02 0. -1.
    8880023    1    1    2    0    0 -0.30888539837E+02  0.81041628669E+02 -0.31885665272E+03  0.73688643543E+03  0.65864270000E+03 0.  0.
    8880022    1    1    2    0    0  0.30888539837E+02 -0.81041628669E+02  0.61319141511E+03  0.63790062866E+03  0.15294330000E+03 0.  1.
<mgrwt>
<rscale>  0 0.47649196E+03</rscale>
<asrwt>0</asrwt>
<pdfrwt beam="1">  1        2 0.83111717E-01 0.66432827E+03</pdfrwt>
<pdfrwt beam="2">  1       -2 0.12839399E+00 0.66432827E+03</pdfrwt>
<totfact> 0.25717203E+01</totfact>
</mgrwt>
</event>
<event>
 4    1  0.3565372E-007  0.7267240E+03  0.7818608E-02  0.9900458E-01
          2   -1    0    0  501    0  0.00000000000E+00  0.00000000000E+00  0.93504102771E+03  0.93504102771E+03  0.25500000000E-02 0. -1.
         -2   -1    0    0    0  501 -0.00000000000E+00 -0.00000000000E+00 -0.10667038717E+04  0.10667038717E+04  0.25500000000E-02 0.  1.
    8880023    1    1    2    0    0 -0.23695805957E+03  0.19536733807E+03  0.75686917531E+03  0.10492753088E+04  0.65864270000E+03 0. -1.
    8880022    1    1    2    0    0  0.23695805957E+03 -0.19536733807E+03 -0.88853201933E+03  0.95246959068E+03  0.15294330000E+03 0.  0.
<mgrwt>
<rscale>  0 0.60239090E+03</rscale>
<asrwt>0</asrwt>
<pdfrwt beam="1">  1        2 0.14385246E+00 0.72672397E+03</pdfrwt>
<pdfrwt beam="2">  1       -2 0.16410829E+00 0.72672397E+03</pdfrwt>
<totfact> 0.66702737E+00</totfact>
</mgrwt>
</event>
<event>
 4    1  0.3565372E-007  0.6848117E+03  0.7818608E-02  0.1006723E+00
          2   -1    0    0  501    0  0.00000000000E+00  0.00000000000E+00  0.14915841643E+04  0.14915841643E+04  0.25500000000E-02 0. -1.
         -2   -1    0    0    0  501 -0.00000000000E+00 -0.00000000000E+00 -0.33271285609E+03  0.33271285610E+03  0.25500000000E-02 0.  1.
    8880023    1    1    2    0    0  0.60922739473E+02  0.17732830460E+03  0.13514468316E+04  0.15150497196E+04  0.65864270000E+03 0. -1.
    8880022    1    1    2    0    0 -0.60922739473E+02 -0.17732830460E+03 -0.19257552345E+03  0.30924730079E+03  0.15294330000E+03 0.  0.
<mgrwt>
<rscale>  0 0.52798055E+03</rscale>
<asrwt>0</asrwt>
<pdfrwt beam="1">  1        2 0.22947448E+00 0.68481174E+03</pdfrwt>
<pdfrwt beam="2">  1       -2 0.51186594E-01 0.68481174E+03</pdfrwt>
<totfact> 0.47638888E+01</totfact>
</mgrwt>
</event>
<event>
 4    1  0.3565372E-007  0.9912895E+03  0.7818608E-02  0.9393043E-01
          2   -1    0    0  501    0  0.00000000000E+00  0.00000000000E+00  0.71933370879E+03  0.71933370879E+03  0.25500000000E-02 0. -1.
         -2   -1    0    0    0  501 -0.00000000000E+00 -0.00000000000E+00 -0.23340319901E+04  0.23340319901E+04  0.25500000000E-02 0.  1.
    8880023    1    1    2    0    0  0.53651479152E+02  0.73889518123E+03  0.26589565184E+03  0.10263309768E+04  0.65864270000E+03 0. -1.
    8880022    1    1    2    0    0 -0.53651479152E+02 -0.73889518123E+03 -0.18805939332E+04  0.20270347221E+04  0.15294330000E+03 0.  0.
<mgrwt>
<rscale>  0 0.92650396E+03</rscale>
<asrwt>0</asrwt>
<pdfrwt beam="1">  1        2 0.11066673E+00 0.99128945E+03</pdfrwt>
<pdfrwt beam="2">  1       -2 0.35908184E+00 0.99128945E+03</pdfrwt>
<totfact> 0.54754156E-01</totfact>
</mgrwt>
</event>
<event>
 4    1  0.3565372E-007  0.7566976E+03  0.7818608E-02  0.9813733E-01
         -2   -1    0    0    0  501 -0.00000000000E+00  0.00000000000E+00  0.52571673634E+03  0.52571673635E+03  0.25500000000E-02 0.  1.
          2   -1    0    0  501    0  0.00000000000E+00 -0.00000000000E+00 -0.92348594510E+03  0.92348594510E+03  0.25500000000E-02 0. -1.
    8880023    1    1    2    0    0 -0.22013107359E+03  0.30053836496E+03 -0.62974154098E+03  0.98446209326E+03  0.65864270000E+03 0. -1.
    8880022    1    1    2    0    0  0.22013107359E+03 -0.30053836496E+03  0.23197233222E+03  0.46474058818E+03  0.15294330000E+03 0.  0.
<mgrwt>
<rscale>  0 0.64630714E+03</rscale>
<asrwt>0</asrwt>
<pdfrwt beam="1">  1        2 0.14207476E+00 0.75669756E+03</pdfrwt>
<pdfrwt beam="2">  1       -2 0.80879498E-01 0.75669756E+03</pdfrwt>
<totfact> 0.38681864E+01</totfact>
</mgrwt>
</event>
<event>
 4    1  0.3565372E-007  0.6869408E+03  0.7818608E-02  0.1005642E+00
          2   -1    0    0  501    0  0.00000000000E+00  0.00000000000E+00  0.11670358507E+04  0.11670358507E+04  0.25500000000E-02 0. -1.
         -2   -1    0    0    0  501 -0.00000000000E+00 -0.00000000000E+00 -0.20488389674E+03  0.20488389676E+03  0.25500000000E-02 0.  1.
    8880023    1    1    2    0    0 -0.14660788989E+03  0.12877727206E+03  0.86747862904E+03  0.11065291850E+04  0.65864270000E+03 0.  0.
    8880022    1    1    2    0    0  0.14660788989E+03 -0.12877727206E+03  0.94673324934E+02  0.26539056247E+03  0.15294330000E+03 0.  0.
<mgrwt>
<rscale>  0 0.53244114E+03</rscale>
<asrwt>0</asrwt>
<pdfrwt beam="1">  1        2 0.17954398E+00 0.68694080E+03</pdfrwt>
<pdfrwt beam="2">  1       -2 0.31520600E-01 0.68694080E+03</pdfrwt>
<totfact> 0.18820150E+02</totfact>
</mgrwt>
</event>
<event>
 4    1  0.3565372E-007  0.1384568E+04  0.7818608E-02  0.8995768E-01
          2   -1    0    0  501    0  0.00000000000E+00  0.00000000000E+00  0.88010938844E+03  0.88010938845E+03  0.25500000000E-02 0. -1.
         -2   -1    0    0    0  501 -0.00000000000E+00 -0.00000000000E+00 -0.21378942375E+04  0.21378942375E+04  0.25500000000E-02 0.  1.
    8880023    1    1    2    0    0  0.56683310884E+03 -0.10779230697E+04 -0.20251655209E+03  0.13993002099E+04  0.65864270000E+03 0. -1.
    8880022    1    1    2    0    0 -0.56683310884E+03  0.10779230697E+04 -0.10552682969E+04  0.16187034160E+04  0.15294330000E+03 0.  0.
<mgrwt>
<rscale>  0 0.13434941E+04</rscale>
<asrwt>0</asrwt>
<pdfrwt beam="1">  1        2 0.13540145E+00 0.13845678E+04</pdfrwt>
<pdfrwt beam="2">  1       -2 0.32890680E+00 0.13845678E+04</pdfrwt>
<totfact> 0.61378655E-01</totfact>
</mgrwt>
</event>
<event>
 4    1  0.3565372E-007  0.8224872E+03  0.7818608E-02  0.9664131E-01
          2   -1    0    0  501    0  0.00000000000E+00  0.00000000000E+00  0.36634855036E+04  0.36634855036E+04  0.25500000000E-02 0. -1.
         -2   -1    0    0    0  501 -0.00000000000E+00 -0.00000000000E+00 -0.24864327205E+03  0.24864327206E+03  0.25500000000E-02 0.  1.
    8880023    1    1    2    0    0 -0.15003568734E+03  0.46921667139E+03  0.32763969696E+04  0.33780559943E+04  0.65864270000E+03 0. -1.
    8880022    1    1    2    0    0  0.15003568734E+03 -0.46921667139E+03  0.13844526196E+03  0.53407278134E+03  0.15294330000E+03 0.  0.
<mgrwt>
<rscale>  0 0.73193188E+03</rscale>
<asrwt>0</asrwt>
<pdfrwt beam="1">  1        2 0.56361309E+00 0.82248720E+03</pdfrwt>
<pdfrwt beam="2">  1       -2 0.38252815E-01 0.82248720E+03</pdfrwt>
<totfact> 0.43073612E+00</totfact>
</mgrwt>
</event>
<event>
 4    1  0.3565372E-007  0.1102733E+04  0.7818608E-02  0.9258020E-01
          2   -1    0    0  501    0  0.00000000000E+00  0.00000000000E+00  0.27329142932E+04  0.27329142932E+04  0.25500000000E-02 0. -1.
         -2   -1    0    0    0  501 -0.00000000000E+00 -0.00000000000E+00 -0.73316024275E+03  0.73316024275E+03  0.25500000000E-02 0.  1.
    8880023    1    1    2    0    0  0.53367726961E+03  0.70526462011E+03  0.22742417543E+04  0.25274879576E+04  0.65864270000E+03 0.  0.
    8880022    1    1    2    0    0 -0.53367726961E+03 -0.70526462011E+03 -0.27448770387E+03  0.93858657835E+03  0.15294330000E+03 0.  0.
<mgrwt>
<rscale>  0 0.10474125E+04</rscale>
<asrwt>0</asrwt>
<pdfrwt beam="1">  1        2 0.42044834E+00 0.11027329E+04</pdfrwt>
<pdfrwt beam="2">  1       -2 0.11279389E+00 0.11027329E+04</pdfrwt>
<totfact> 0.15647786E+00</totfact>
</mgrwt>
</event>
<event>
 4    1  0.3565372E-007  0.7310713E+03  0.7818608E-02  0.9886763E-01
         -2   -1    0    0    0  501 -0.00000000000E+00  0.00000000000E+00  0.36901463445E+03  0.36901463446E+03  0.25500000000E-02 0.  1.
          2   -1    0    0  501    0  0.00000000000E+00 -0.00000000000E+00 -0.97179491247E+03  0.97179491247E+03  0.25500000000E-02 0. -1.
    8880023    1    1    2    0    0 -0.31537271711E+03  0.34570299374E+02 -0.65887792122E+03  0.98416735245E+03  0.65864270000E+03 0. -1.
    8880022    1    1    2    0    0  0.31537271711E+03 -0.34570299374E+02  0.56097643208E+02  0.35664219448E+03  0.15294330000E+03 0.  0.
<mgrwt>
<rscale>  0 0.60907106E+03</rscale>
<asrwt>0</asrwt>
<pdfrwt beam="1">  1        2 0.14950691E+00 0.73107131E+03</pdfrwt>
<pdfrwt beam="2">  1       -2 0.56771483E-01 0.73107131E+03</pdfrwt>
<totfact> 0.77643680E+01</totfact>
</mgrwt>
</event>
<event>
 4    1  0.3565372E-007  0.8460152E+03  0.7818608E-02  0.9618941E-01
          2   -1    0    0  501    0  0.00000000000E+00  0.00000000000E+00  0.13162456371E+04  0.13162456371E+04  0.25500000000E-02 0. -1.
         -2   -1    0    0    0  501 -0.00000000000E+00 -0.00000000000E+00 -0.56320587316E+03  0.56320587317E+03  0.25500000000E-02 0.  1.
    8880023    1    1    2    0    0 -0.20377789183E+02 -0.53058112060E+03  0.96885239334E+03  0.12862413250E+04  0.65864270000E+03 0.  0.
    8880022    1    1    2    0    0  0.20377789183E+02  0.53058112060E+03 -0.21581262942E+03  0.59321018523E+03  0.15294330000E+03 0.  0.
<mgrwt>
<rscale>  0 0.76055149E+03</rscale>
<asrwt>0</asrwt>
<pdfrwt beam="1">  1        2 0.20249932E+00 0.84601524E+03</pdfrwt>
<pdfrwt beam="2">  1       -2 0.86647060E-01 0.84601524E+03</pdfrwt>
<totfact> 0.18843422E+01</totfact>
</mgrwt>
</event>
<event>
 4    1  0.3565372E-007  0.7214950E+03  0.7818608E-02  0.9917559E-01
         -2   -1    0    0    0  501 -0.00000000000E+00  0.00000000000E+00  0.52726161271E+03  0.52726161271E+03  0.25500000000E-02 0.  1.
          2   -1    0    0  501    0  0.00000000000E+00 -0.00000000000E+00 -0.13462668867E+04  0.13462668867E+04  0.25500000000E-02 0. -1.
    8880023    1    1    2    0    0 -0.13616689546E+03  0.26115785673E+03 -0.11800450083E+04  0.13831345840E+04  0.65864270000E+03 0. -1.
    8880022    1    1    2    0    0  0.13616689546E+03 -0.26115785673E+03  0.36103973429E+03  0.49039391544E+03  0.15294330000E+03 0.  0.
<mgrwt>
<rscale>  0 0.59417779E+03</rscale>
<asrwt>0</asrwt>
<pdfrwt beam="1">  1        2 0.20711798E+00 0.72149501E+03</pdfrwt>
<pdfrwt beam="2">  1       -2 0.81117172E-01 0.72149501E+03</pdfrwt>
<totfact> 0.21332516E+01</totfact>
</mgrwt>
</event>
<event>
 4    1  0.3565372E-007  0.1239558E+04  0.7818608E-02  0.9119596E-01
          2   -1    0    0  501    0  0.00000000000E+00  0.00000000000E+00  0.16647428812E+04  0.16647428812E+04  0.25500000000E-02 0. -1.
         -2   -1    0    0    0  501 -0.00000000000E+00 -0.00000000000E+00 -0.10677174509E+04  0.10677174509E+04  0.25500000000E-02 0.  1.
    8880023    1    1    2    0    0 -0.97517234566E+03 -0.38952899593E+03 -0.37328990800E+03  0.12945460610E+04  0.65864270000E+03 0.  0.
    8880022    1    1    2    0    0  0.97517234566E+03  0.38952899593E+03  0.97031533827E+03  0.14379142711E+04  0.15294330000E+03 0.  0.
<mgrwt>
<rscale>  0 0.11923303E+04</rscale>
<asrwt>0</asrwt>
<pdfrwt beam="1">  1        2 0.25611429E+00 0.12395580E+04</pdfrwt>
<pdfrwt beam="2">  1       -2 0.16426422E+00 0.12395580E+04</pdfrwt>
<totfact> 0.23259693E+00</totfact>
</mgrwt>
</event>
<event>
 4    1  0.3565372E-007  0.9153556E+03  0.7818608E-02  0.9501817E-01
          2   -1    0    0  501    0  0.00000000000E+00  0.00000000000E+00  0.23650939129E+04  0.23650939129E+04  0.25500000000E-02 0. -1.
         -2   -1    0    0    0  501 -0.00000000000E+00 -0.00000000000E+00 -0.66019427094E+03  0.66019427095E+03  0.25500000000E-02 0.  1.
    8880023    1    1    2    0    0  0.40274060955E+03 -0.49179839644E+03  0.20793073379E+04  0.22718703468E+04  0.65864270000E+03 0. -1.
    8880022    1    1    2    0    0 -0.40274060955E+03  0.49179839644E+03 -0.37440769592E+03  0.75341783699E+03  0.15294330000E+03 0.  0.
<mgrwt>
<rscale>  0 0.84149972E+03</rscale>
<asrwt>0</asrwt>
<pdfrwt beam="1">  1        2 0.36386060E+00 0.91535560E+03</pdfrwt>
<pdfrwt beam="2">  1       -2 0.10156835E+00 0.91535560E+03</pdfrwt>
<totfact> 0.33734101E+00</totfact>
</mgrwt>
</event>
<event>
 4    1  0.3565372E-007  0.8184190E+03  0.7818608E-02  0.9672300E-01
         -2   -1    0    0    0  501 -0.00000000000E+00  0.00000000000E+00  0.30926494015E+03  0.30926494016E+03  0.25500000000E-02 0.  1.
          2   -1    0    0  501    0  0.00000000000E+00 -0.00000000000E+00 -0.22131882963E+04  0.22131882963E+04  0.25500000000E-02 0. -1.
    8880023    1    1    2    0    0  0.61891935478E+02 -0.48183908940E+03 -0.18340604519E+04  0.20083793136E+04  0.65864270000E+03 0. -1.
    8880022    1    1    2    0    0 -0.61891935478E+02  0.48183908940E+03 -0.69862904214E+02  0.51407392284E+03  0.15294330000E+03 0.  0.
<mgrwt>
<rscale>  0 0.72690255E+03</rscale>
<asrwt>0</asrwt>
<pdfrwt beam="1">  1        2 0.34049050E+00 0.81841904E+03</pdfrwt>
<pdfrwt beam="2">  1       -2 0.47579223E-01 0.81841904E+03</pdfrwt>
<totfact> 0.21861896E+01</totfact>
</mgrwt>
</event>
<event>
 4    1  0.3565372E-007  0.1049211E+04  0.7818608E-02  0.9319830E-01
          2   -1    0    0  501    0  0.00000000000E+00  0.00000000000E+00  0.25503112994E+04  0.25503112994E+04  0.25500000000E-02 0. -1.
         -2   -1    0    0    0  501 -0.00000000000E+00 -0.00000000000E+00 -0.79520113920E+03  0.79520113921E+03  0.25500000000E-02 0.  1.
    8880023    1    1    2    0    0  0.80486884824E+03  0.13863690561E+03  0.21747660897E+04  0.24146328511E+04  0.65864270000E+03 0. -1.
    8880022    1    1    2    0    0 -0.80486884824E+03 -0.13863690561E+03 -0.41965592942E+03  0.93087958758E+03  0.15294330000E+03 0.  0.
<mgrwt>
<rscale>  0 0.98977579E+03</rscale>
<asrwt>0</asrwt>
<pdfrwt beam="1">  1        2 0.39235560E+00 0.10492113E+04</pdfrwt>
<pdfrwt beam="2">  1       -2 0.12233863E+00 0.10492113E+04</pdfrwt>
<totfact> 0.16479209E+00</totfact>
</mgrwt>
</event>
<event>
 4    1  0.3565372E-007  0.7618503E+03  0.7818608E-02  0.9800341E-01
          2   -1    0    0  501    0  0.00000000000E+00  0.00000000000E+00  0.63658482484E+03  0.63658482485E+03  0.25500000000E-02 0. -1.
         -2   -1    0    0    0  501 -0.00000000000E+00 -0.00000000000E+00 -0.12460814634E+04  0.12460814634E+04  0.25500000000E-02 0.  1.
    8880023    1    1    2    0    0 -0.17744926543E+03  0.33928960496E+03  0.34994958448E+03  0.83837974437E+03  0.65864270000E+03 0.  0.
    8880022    1    1    2    0    0  0.17744926543E+03 -0.33928960496E+03 -0.95944622308E+03  0.10442865439E+04  0.15294330000E+03 0.  0.
<mgrwt>
<rscale>  0 0.65344268E+03</rscale>
<asrwt>0</asrwt>
<pdfrwt beam="1">  1        2 0.97936127E-01 0.76185030E+03</pdfrwt>
<pdfrwt beam="2">  1       -2 0.19170484E+00 0.76185030E+03</pdfrwt>
<totfact> 0.70892627E+00</totfact>
</mgrwt>
</event>
<event>
 4    1  0.3565372E-007  0.7468372E+03  0.7818608E-02  0.9840460E-01
         -2   -1    0    0    0  501 -0.00000000000E+00  0.00000000000E+00  0.35101803218E+03  0.35101803219E+03  0.25500000000E-02 0.  1.
          2   -1    0    0  501    0  0.00000000000E+00 -0.00000000000E+00 -0.12804389714E+04  0.12804389714E+04  0.25500000000E-02 0. -1.
    8880023    1    1    2    0    0 -0.34896539462E+03  0.46677426491E+02 -0.99286015346E+03  0.12423916932E+04  0.65864270000E+03 0.  0.
    8880022    1    1    2    0    0  0.34896539462E+03 -0.46677426491E+02  0.63439214279E+02  0.38906531034E+03  0.15294330000E+03 0.  0.
<mgrwt>
<rscale>  0 0.63235686E+03</rscale>
<asrwt>0</asrwt>
<pdfrwt beam="1">  1        2 0.19699061E+00 0.74683722E+03</pdfrwt>
<pdfrwt beam="2">  1       -2 0.54002775E-01 0.74683722E+03</pdfrwt>
<totfact> 0.55836982E+01</totfact>
</mgrwt>
</event>
<event>
 4    1  0.3565372E-007  0.7105814E+03  0.7818608E-02  0.9955848E-01
          2   -1    0    0  501    0  0.00000000000E+00  0.00000000000E+00  0.29299744078E+04  0.29299744078E+04  0.25500000000E-02 0. -1.
         -2   -1    0    0    0  501 -0.00000000000E+00 -0.00000000000E+00 -0.16014353417E+03  0.16014353419E+03  0.25500000000E-02 0.  1.
    8880023    1    1    2    0    0 -0.24832295533E+02 -0.26551673913E+03  0.26759408228E+04  0.27686793377E+04  0.65864270000E+03 0. -1.
    8880022    1    1    2    0    0  0.24832295533E+02  0.26551673913E+03  0.93890050828E+02  0.32143860428E+03  0.15294330000E+03 0.  0.
<mgrwt>
<rscale>  0 0.57629340E+03</rscale>
<asrwt>0</asrwt>
<pdfrwt beam="1">  1        2 0.45076528E+00 0.71058144E+03</pdfrwt>
<pdfrwt beam="2">  1       -2 0.24637468E-01 0.71058144E+03</pdfrwt>
<totfact> 0.30084882E+01</totfact>
</mgrwt>
</event>
<event>
 4    1  0.3565372E-007  0.1165294E+04  0.7818608E-02  0.9191620E-01
         -2   -1    0    0    0  501 -0.00000000000E+00  0.00000000000E+00  0.97220656663E+03  0.97220656663E+03  0.25500000000E-02 0.  1.
          2   -1    0    0  501    0  0.00000000000E+00 -0.00000000000E+00 -0.15143413493E+04  0.15143413493E+04  0.25500000000E-02 0. -1.
    8880023    1    1    2    0    0 -0.92972438144E+03  0.24436203180E+03 -0.87562696993E+03  0.14576120968E+04  0.65864270000E+03 0.  0.
    8880022    1    1    2    0    0  0.92972438144E+03 -0.24436203180E+03  0.33349218721E+03  0.10289358192E+04  0.15294330000E+03 0.  0.
<mgrwt>
<rscale>  0 0.11140344E+04</rscale>
<asrwt>0</asrwt>
<pdfrwt beam="1">  1        2 0.23297559E+00 0.11652941E+04</pdfrwt>
<pdfrwt beam="2">  1       -2 0.14957024E+00 0.11652941E+04</pdfrwt>
<totfact> 0.36689109E+00</totfact>
</mgrwt>
</event>
<event>
 4    1  0.3565372E-007  0.6805445E+03  0.7818608E-02  0.1009017E+00
         -2   -1    0    0    0  501 -0.00000000000E+00  0.00000000000E+00  0.15516444424E+04  0.15516444424E+04  0.25500000000E-02 0.  1.
          2   -1    0    0  501    0  0.00000000000E+00 -0.00000000000E+00 -0.34517622335E+03  0.34517622336E+03  0.25500000000E-02 0. -1.
    8880023    1    1    2    0    0  0.14660831684E+03 -0.88524376979E+02  0.12173124598E+02  0.68065332961E+03  0.65864270000E+03 0. -1.
    8880022    1    1    2    0    0 -0.14660831684E+03  0.88524376979E+02  0.11942950944E+04  0.12161673361E+04  0.15294330000E+03 0.  0.
<mgrwt>
<rscale>  0 0.51867055E+03</rscale>
<asrwt>0</asrwt>
<pdfrwt beam="1">  1        2 0.53104035E-01 0.68054447E+03</pdfrwt>
<pdfrwt beam="2">  1       -2 0.23871453E+00 0.68054447E+03</pdfrwt>
<totfact> 0.73209239E+00</totfact>
</mgrwt>
</event>
<event>
 4    1  0.3565372E-007  0.6748025E+03  0.7818608E-02  0.1012431E+00
         -2   -1    0    0    0  501 -0.00000000000E+00  0.00000000000E+00  0.23440707972E+03  0.23440707974E+03  0.25500000000E-02 0.  1.
          2   -1    0    0  501    0  0.00000000000E+00 -0.00000000000E+00 -0.13011019079E+04  0.13011019079E+04  0.25500000000E-02 0. -1.
    8880023    1    1    2    0    0  0.72620474373E+02 -0.12757165535E+03 -0.11283484004E+04  0.13147351746E+04  0.65864270000E+03 0. -1.
    8880022    1    1    2    0    0 -0.72620474373E+02  0.12757165535E+03  0.61653572164E+02  0.22077381303E+03  0.15294330000E+03 0.  0.
<mgrwt>
<rscale>  0 0.50519793E+03</rscale>
<asrwt>0</asrwt>
<pdfrwt beam="1">  1        2 0.20016952E+00 0.67480254E+03</pdfrwt>
<pdfrwt beam="2">  1       -2 0.36062628E-01 0.67480254E+03</pdfrwt>
<totfact> 0.12195636E+02</totfact>
</mgrwt>
</event>
<event>
 4    1  0.3565372E-007  0.8165211E+03  0.7818608E-02  0.9676150E-01
         -2   -1    0    0    0  501 -0.00000000000E+00  0.00000000000E+00  0.51087453315E+03  0.51087453316E+03  0.25500000000E-02 0.  1.
          2   -1    0    0  501    0  0.00000000000E+00 -0.00000000000E+00 -0.14093573953E+04  0.14093573953E+04  0.25500000000E-02 0. -1.
    8880023    1    1    2    0    0  0.45673017170E+03 -0.15586540112E+03 -0.11046045370E+04  0.13736294487E+04  0.65864270000E+03 0. -1.
    8880022    1    1    2    0    0 -0.45673017170E+03  0.15586540112E+03  0.20612167483E+03  0.54660247974E+03  0.15294330000E+03 0.  0.
<mgrwt>
<rscale>  0 0.72454708E+03</rscale>
<asrwt>0</asrwt>
<pdfrwt beam="1">  1        2 0.21682421E+00 0.81652108E+03</pdfrwt>
<pdfrwt beam="2">  1       -2 0.78596083E-01 0.81652108E+03</pdfrwt>
<totfact> 0.20860818E+01</totfact>
</mgrwt>
</event>
<event>
 4    1  0.3565372E-007  0.1330028E+04  0.7818608E-02  0.9040053E-01
          2   -1    0    0  501    0  0.00000000000E+00  0.00000000000E+00  0.18309731533E+04  0.18309731533E+04  0.25500000000E-02 0. -1.
         -2   -1    0    0    0  501 -0.00000000000E+00 -0.00000000000E+00 -0.94227050712E+03  0.94227050713E+03  0.25500000000E-02 0.  1.
    8880023    1    1    2    0    0  0.10037622215E+04 -0.57238652959E+03  0.90296974066E+03  0.16075849885E+04  0.65864270000E+03 0.  0.
    8880022    1    1    2    0    0 -0.10037622215E+04  0.57238652959E+03 -0.14267094452E+02  0.11656586719E+04  0.15294330000E+03 0.  0.
<mgrwt>
<rscale>  0 0.12868572E+04</rscale>
<asrwt>0</asrwt>
<pdfrwt beam="1">  1        2 0.28168818E+00 0.13300282E+04</pdfrwt>
<pdfrwt beam="2">  1       -2 0.14496469E+00 0.13300282E+04</pdfrwt>
<totfact> 0.26116592E+00</totfact>
</mgrwt>
</event>
<event>
 4    1  0.3565372E-007  0.1667137E+04  0.7818608E-02  0.8799827E-01
          2   -1    0    0  501    0  0.00000000000E+00  0.00000000000E+00  0.33821118886E+04  0.33821118886E+04  0.25500000000E-02 0. -1.
         -2   -1    0    0    0  501 -0.00000000000E+00 -0.00000000000E+00 -0.82213225404E+03  0.82213225404E+03  0.25500000000E-02 0.  1.
    8880023    1    1    2    0    0 -0.43538496142E+03 -0.14683236196E+04  0.19051902428E+04  0.25316189255E+04  0.65864270000E+03 0.  0.
    8880022    1    1    2    0    0  0.43538496142E+03  0.14683236196E+04  0.65478939172E+03  0.16726252171E+04  0.15294330000E+03 0.  0.
<mgrwt>
<rscale>  0 0.16341704E+04</rscale>
<asrwt>0</asrwt>
<pdfrwt beam="1">  1        2 0.52032491E+00 0.16671366E+04</pdfrwt>
<pdfrwt beam="2">  1       -2 0.12648188E+00 0.16671366E+04</pdfrwt>
<totfact> 0.42799411E-01</totfact>
</mgrwt>
</event>
<event>
 4    1  0.3565372E-007  0.7129039E+03  0.7818608E-02  0.9947372E-01
          2   -1    0    0  501    0  0.00000000000E+00  0.00000000000E+00  0.18213167881E+04  0.18213167881E+04  0.25500000000E-02 0. -1.
         -2   -1    0    0    0  501 -0.00000000000E+00 -0.00000000000E+00 -0.21751423553E+03  0.21751423555E+03  0.25500000000E-02 0.  1.
    8880023    1    1    2    0    0  0.23387775843E+03  0.14043859041E+03  0.15699762711E+04  0.17242556370E+04  0.65864270000E+03 0. -1.
    8880022    1    1    2    0    0 -0.23387775843E+03 -0.14043859041E+03  0.33826281454E+02  0.31457538667E+03  0.15294330000E+03 0.  0.
<mgrwt>
<rscale>  0 0.58019380E+03</rscale>
<asrwt>0</asrwt>
<pdfrwt beam="1">  1        2 0.28020260E+00 0.71290393E+03</pdfrwt>
<pdfrwt beam="2">  1       -2 0.33463727E-01 0.71290393E+03</pdfrwt>
<totfact> 0.72099031E+01</totfact>
</mgrwt>
</event>
<event>
 4    1  0.3565372E-007  0.7623360E+03  0.7818608E-02  0.9799097E-01
         -2   -1    0    0    0  501 -0.00000000000E+00  0.00000000000E+00  0.14793384231E+03  0.14793384233E+03  0.25500000000E-02 0.  1.
          2   -1    0    0  501    0  0.00000000000E+00 -0.00000000000E+00 -0.36526898018E+04  0.36526898018E+04  0.25500000000E-02 0. -1.
    8880023    1    1    2    0    0 -0.11228504942E+03 -0.36706680560E+03 -0.31937041947E+04  0.32834284919E+04  0.65864270000E+03 0. -1.
    8880022    1    1    2    0    0  0.11228504942E+03  0.36706680560E+03 -0.31105176488E+03  0.51719515229E+03  0.15294330000E+03 0.  0.
<mgrwt>
<rscale>  0 0.65411028E+03</rscale>
<asrwt>0</asrwt>
<pdfrwt beam="1">  1        2 0.56195221E+00 0.76233600E+03</pdfrwt>
<pdfrwt beam="2">  1       -2 0.22759055E-01 0.76233600E+03</pdfrwt>
<totfact> 0.11618847E+01</totfact>
</mgrwt>
</event>
<event>
 4    1  0.3565372E-007  0.7450430E+03  0.7818608E-02  0.9845493E-01
          2   -1    0    0  501    0  0.00000000000E+00  0.00000000000E+00  0.14142447549E+04  0.14142447549E+04  0.25500000000E-02 0. -1.
         -2   -1    0    0    0  501 -0.00000000000E+00 -0.00000000000E+00 -0.55485294301E+03  0.55485294301E+03  0.25500000000E-02 0.  1.
    8880023    1    1    2    0    0 -0.22867586636E+03  0.26265230038E+03  0.12299940700E+04  0.14380453753E+04  0.65864270000E+03 0. -1.
    8880022    1    1    2    0    0  0.22867586636E+03 -0.26265230038E+03 -0.37060225808E+03  0.53105232271E+03  0.15294330000E+03 0.  0.
<mgrwt>
<rscale>  0 0.62977225E+03</rscale>
<asrwt>0</asrwt>
<pdfrwt beam="1">  1        2 0.21757612E+00 0.74504301E+03</pdfrwt>
<pdfrwt beam="2">  1       -2 0.85361991E-01 0.74504301E+03</pdfrwt>
<totfact> 0.17340332E+01</totfact>
</mgrwt>
</event>
<event>
 4    1  0.3565372E-007  0.7508245E+03  0.7818608E-02  0.9829469E-01
          2   -1    0    0  501    0  0.00000000000E+00  0.00000000000E+00  0.10383294556E+04  0.10383294556E+04  0.25500000000E-02 0. -1.
         -2   -1    0    0    0  501 -0.00000000000E+00 -0.00000000000E+00 -0.61600052230E+03  0.61600052231E+03  0.25500000000E-02 0.  1.
    8880023    1    1    2    0    0 -0.33265206830E+03 -0.13881576289E+03  0.80920732116E+03  0.11038812932E+04  0.65864270000E+03 0. -1.
    8880022    1    1    2    0    0  0.33265206830E+03  0.13881576289E+03 -0.38687838783E+03  0.55044868476E+03  0.15294330000E+03 0.  0.
<mgrwt>
<rscale>  0 0.63804789E+03</rscale>
<asrwt>0</asrwt>
<pdfrwt beam="1">  1        2 0.15974299E+00 0.75082449E+03</pdfrwt>
<pdfrwt beam="2">  1       -2 0.94769312E-01 0.75082449E+03</pdfrwt>
<totfact> 0.22690817E+01</totfact>
</mgrwt>
</event>
<event>
 4    1  0.3565372E-007  0.7042918E+03  0.7818608E-02  0.9979842E-01
          2   -1    0    0  501    0  0.00000000000E+00  0.00000000000E+00  0.14274971777E+04  0.14274971777E+04  0.25500000000E-02 0. -1.
         -2   -1    0    0    0  501 -0.00000000000E+00 -0.00000000000E+00 -0.21586987722E+03  0.21586987724E+03  0.25500000000E-02 0.  1.
    8880023    1    1    2    0    0  0.33242804723E+02 -0.24720767062E+03  0.11434396134E+04  0.13429374789E+04  0.65864270000E+03 0.  0.
    8880022    1    1    2    0    0 -0.33242804723E+02  0.24720767062E+03  0.68187687097E+02  0.30042957605E+03  0.15294330000E+03 0.  0.
<mgrwt>
<rscale>  0 0.56543019E+03</rscale>
<asrwt>0</asrwt>
<pdfrwt beam="1">  1        2 0.21961495E+00 0.70429179E+03</pdfrwt>
<pdfrwt beam="2">  1       -2 0.33210751E-01 0.70429179E+03</pdfrwt>
<totfact> 0.12056965E+02</totfact>
</mgrwt>
</event>
<event>
 4    1  0.3565372E-007  0.6974368E+03  0.7818608E-02  0.1000800E+00
         -2   -1    0    0    0  501 -0.00000000000E+00  0.00000000000E+00  0.48091593020E+03  0.48091593021E+03  0.25500000000E-02 0.  1.
          2   -1    0    0  501    0  0.00000000000E+00 -0.00000000000E+00 -0.26155158062E+04  0.26155158062E+04  0.25500000000E-02 0. -1.
    8880023    1    1    2    0    0  0.96121179814E+02  0.20825141609E+03 -0.25244142522E+04  0.26189855778E+04  0.65864270000E+03 0. -1.
    8880022    1    1    2    0    0 -0.96121179814E+02 -0.20825141609E+03  0.38981437620E+03  0.47744615866E+03  0.15294330000E+03 0.  0.
<mgrwt>
<rscale>  0 0.55300628E+03</rscale>
<asrwt>0</asrwt>
<pdfrwt beam="1">  1        2 0.40238704E+00 0.69743684E+03</pdfrwt>
<pdfrwt beam="2">  1       -2 0.73987068E-01 0.69743684E+03</pdfrwt>
<totfact> 0.52172518E+00</totfact>
</mgrwt>
</event>
<event>
 4    1  0.3565372E-007  0.6667758E+03  0.7818608E-02  0.1018088E+00
         -2   -1    0    0    0  501 -0.00000000000E+00  0.00000000000E+00  0.80747509123E+03  0.80747509123E+03  0.25500000000E-02 0.  1.
          2   -1    0    0  501    0  0.00000000000E+00 -0.00000000000E+00 -0.74876677151E+03  0.74876677152E+03  0.25500000000E-02 0. -1.
    8880023    1    1    2    0    0  0.10364033573E+03  0.62003033426E+01 -0.58468576584E+03  0.88681870413E+03  0.65864270000E+03 0. -1.
    8880022    1    1    2    0    0 -0.10364033573E+03 -0.62003033426E+01  0.64339408556E+03  0.66942315862E+03  0.15294330000E+03 0.  0.
<mgrwt>
<rscale>  0 0.48382995E+03</rscale>
<asrwt>0</asrwt>
<pdfrwt beam="1">  1        2 0.11519489E+00 0.66677580E+03</pdfrwt>
<pdfrwt beam="2">  1       -2 0.12422694E+00 0.66677580E+03</pdfrwt>
<totfact> 0.18724010E+01</totfact>
</mgrwt>
</event>
<event>
 4    1  0.4100677E-007  0.8372893E+03  0.7818608E-02  0.9635313E-01
         -2   -1    0    0    0  501 -0.00000000000E+00  0.00000000000E+00  0.16774335020E+04  0.16774335020E+04  0.25500000000E-02 0.  1.
          2   -1    0    0  501    0  0.00000000000E+00 -0.00000000000E+00 -0.11968409236E+04  0.11968409236E+04  0.25500000000E-02 0. -1.
    8880023    1    1    2    0    0 -0.17097517405E+03 -0.48786333429E+03 -0.99668363009E+03  0.13017033486E+04  0.65864270000E+03 0. -1.
    8880022    1    1    2    0    0  0.17097517405E+03  0.48786333429E+03  0.14772762085E+04  0.15725710770E+04  0.15294330000E+03 0.  0.
<mgrwt>
<rscale>  0 0.75002390E+03</rscale>
<asrwt>0</asrwt>
<pdfrwt beam="1">  1        2 0.18412937E+00 0.83728929E+03</pdfrwt>
<pdfrwt beam="2">  1       -2 0.25806669E+00 0.83728929E+03</pdfrwt>
<totfact> 0.11156449E+00</totfact>
</mgrwt>
</event>
<event>
 4    1  0.3565372E-007  0.7647761E+03  0.7818608E-02  0.9792896E-01
         -2   -1    0    0    0  501 -0.00000000000E+00  0.00000000000E+00  0.58300832259E+03  0.58300832260E+03  0.25500000000E-02 0.  1.
          2   -1    0    0  501    0  0.00000000000E+00 -0.00000000000E+00 -0.10468477908E+04  0.10468477908E+04  0.25500000000E-02 0. -1.
    8880023    1    1    2    0    0 -0.33918259175E+03 -0.18980908995E+03 -0.79027800292E+03  0.10997371728E+04  0.65864270000E+03 0.  0.
    8880022    1    1    2    0    0  0.33918259175E+03  0.18980908995E+03  0.32643853471E+03  0.53011894055E+03  0.15294330000E+03 0.  0.
<mgrwt>
<rscale>  0 0.65745187E+03</rscale>
<asrwt>0</asrwt>
<pdfrwt beam="1">  1        2 0.16105351E+00 0.76477613E+03</pdfrwt>
<pdfrwt beam="2">  1       -2 0.89693588E-01 0.76477613E+03</pdfrwt>
<totfact> 0.25432417E+01</totfact>
</mgrwt>
</event>
<event>
 4    1  0.3565372E-007  0.6790934E+03  0.7818608E-02  0.1009841E+00
         -2   -1    0    0    0  501 -0.00000000000E+00  0.00000000000E+00  0.15794173862E+03  0.15794173864E+03  0.25500000000E-02 0.  1.
          2   -1    0    0  501    0  0.00000000000E+00 -0.00000000000E+00 -0.28474055589E+04  0.28474055589E+04  0.25500000000E-02 0. -1.
    8880023    1    1    2    0    0 -0.65299280971E+02  0.15196602613E+03 -0.26957630453E+04  0.27799831424E+04  0.65864270000E+03 0. -1.
    8880022    1    1    2    0    0  0.65299280971E+02 -0.15196602613E+03  0.62992250097E+01  0.22536415519E+03  0.15294330000E+03 0.  0.
<mgrwt>
<rscale>  0 0.51537806E+03</rscale>
<asrwt>0</asrwt>
<pdfrwt beam="1">  1        2 0.43806236E+00 0.67909342E+03</pdfrwt>
<pdfrwt beam="2">  1       -2 0.24298731E-01 0.67909342E+03</pdfrwt>
<totfact> 0.34741095E+01</totfact>
</mgrwt>
</event>
<event>
 4    1  0.3565372E-007  0.8614942E+03  0.7818608E-02  0.9590911E-01
         -2   -1    0    0    0  501 -0.00000000000E+00  0.00000000000E+00  0.10428802666E+04  0.10428802666E+04  0.25500000000E-02 0.  1.
          2   -1    0    0  501    0  0.00000000000E+00 -0.00000000000E+00 -0.13646024317E+04  0.13646024317E+04  0.25500000000E-02 0. -1.
    8880023    1    1    2    0    0  0.31027440953E+03  0.46053425473E+03 -0.11262927450E+04  0.14179942041E+04  0.65864270000E+03 0.  0.
    8880022    1    1    2    0    0 -0.31027440953E+03 -0.46053425473E+03  0.80457057995E+03  0.98948849419E+03  0.15294330000E+03 0.  0.
<mgrwt>
<rscale>  0 0.77900676E+03</rscale>
<asrwt>0</asrwt>
<pdfrwt beam="1">  1        2 0.20993884E+00 0.86149418E+03</pdfrwt>
<pdfrwt beam="2">  1       -2 0.16044312E+00 0.86149418E+03</pdfrwt>
<totfact> 0.38243024E+00</totfact>
</mgrwt>
</event>
<event>
 4    1  0.3565372E-007  0.9042658E+03  0.7818608E-02  0.9519218E-01
          2   -1    0    0  501    0  0.00000000000E+00  0.00000000000E+00  0.57557927170E+03  0.57557927170E+03  0.25500000000E-02 0. -1.
         -2   -1    0    0    0  501 -0.00000000000E+00 -0.00000000000E+00 -0.24068036268E+04  0.24068036268E+04  0.25500000000E-02 0.  1.
    8880023    1    1    2    0    0 -0.56242061284E+02 -0.61702775336E+03  0.13581445006E+03  0.91440810855E+03  0.65864270000E+03 0. -1.
    8880022    1    1    2    0    0  0.56242061284E+02  0.61702775336E+03 -0.19670388051E+04  0.20679747899E+04  0.15294330000E+03 0.  1.
<mgrwt>
<rscale>  0 0.82881663E+03</rscale>
<asrwt>0</asrwt>
<pdfrwt beam="1">  1        2 0.88550659E-01 0.90426579E+03</pdfrwt>
<pdfrwt beam="2">  1       -2 0.37027747E+00 0.90426579E+03</pdfrwt>
<totfact> 0.62167391E-01</totfact>
</mgrwt>
</event>
<event>
 4    1  0.3565372E-007  0.1052295E+04  0.7818608E-02  0.9316128E-01
          2   -1    0    0  501    0  0.00000000000E+00  0.00000000000E+00  0.22578207137E+04  0.22578207137E+04  0.25500000000E-02 0. -1.
         -2   -1    0    0    0  501 -0.00000000000E+00 -0.00000000000E+00 -0.45123807119E+03  0.45123807120E+03  0.25500000000E-02 0.  1.
    8880023    1    1    2    0    0  0.77524656867E+03 -0.26927134665E+03  0.51596352828E+03  0.11719824526E+04  0.65864270000E+03 0.  0.
    8880022    1    1    2    0    0 -0.77524656867E+03  0.26927134665E+03  0.12906191142E+04  0.15370763323E+04  0.15294330000E+03 0.  0.
<mgrwt>
<rscale>  0 0.99311574E+03</rscale>
<asrwt>0</asrwt>
<pdfrwt beam="1">  1        2 0.34735704E+00 0.10522949E+04</pdfrwt>
<pdfrwt beam="2">  1       -2 0.69421241E-01 0.10522949E+04</pdfrwt>
<totfact> 0.90738702E+00</totfact>
</mgrwt>
</event>
<event>
 4    1  0.3565372E-007  0.1116497E+04  0.7818608E-02  0.9242907E-01
         -2   -1    0    0    0  501 -0.00000000000E+00  0.00000000000E+00  0.65152125261E+03  0.65152125261E+03  0.25500000000E-02 0.  1.
          2   -1    0    0  501    0  0.00000000000E+00 -0.00000000000E+00 -0.20635191446E+04  0.20635191446E+04  0.25500000000E-02 0. -1.
    8880023    1    1    2    0    0  0.90145244602E+03  0.11815390424E+02 -0.10706758097E+03  0.11216192710E+04  0.65864270000E+03 0.  1.
    8880022    1    1    2    0    0 -0.90145244602E+03 -0.11815390424E+02 -0.13049303110E+04  0.15934211262E+04  0.15294330000E+03 0.  0.
<mgrwt>
<rscale>  0 0.10621324E+04</rscale>
<asrwt>0</asrwt>
<pdfrwt beam="1">  1        2 0.31746448E+00 0.11164973E+04</pdfrwt>
<pdfrwt beam="2">  1       -2 0.10023404E+00 0.11164973E+04</pdfrwt>
<totfact> 0.49975803E+00</totfact>
</mgrwt>
</event>
<event>
 4    1  0.3565372E-007  0.9950087E+03  0.7818608E-02  0.9388117E-01
          2   -1    0    0  501    0  0.00000000000E+00  0.00000000000E+00  0.12896184418E+04  0.12896184418E+04  0.25500000000E-02 0. -1.
         -2   -1    0    0    0  501 -0.00000000000E+00 -0.00000000000E+00 -0.11495920043E+04  0.11495920043E+04  0.25500000000E-02 0.  1.
    8880023    1    1    2    0    0  0.67924171681E+03  0.30799804744E+03  0.91577107620E+03  0.13522865737E+04  0.65864270000E+03 0.  0.
    8880022    1    1    2    0    0 -0.67924171681E+03 -0.30799804744E+03 -0.77574463868E+03  0.10869238725E+04  0.15294330000E+03 0.  0.
<mgrwt>
<rscale>  0 0.93060082E+03</rscale>
<asrwt>0</asrwt>
<pdfrwt beam="1">  1        2 0.19840284E+00 0.99500870E+03</pdfrwt>
<pdfrwt beam="2">  1       -2 0.17686031E+00 0.99500870E+03</pdfrwt>
<totfact> 0.31714608E+00</totfact>
</mgrwt>
</event>
<event>
 4    1  0.3565372E-007  0.8010073E+03  0.7818608E-02  0.9708622E-01
         -2   -1    0    0    0  501 -0.00000000000E+00  0.00000000000E+00  0.61672364594E+03  0.61672364595E+03  0.25500000000E-02 0.  1.
          2   -1    0    0  501    0  0.00000000000E+00 -0.00000000000E+00 -0.14590481401E+04  0.14590481401E+04  0.25500000000E-02 0. -1.
    8880023    1    1    2    0    0 -0.20380556732E+03 -0.40775697202E+03 -0.12233638986E+04  0.14622694322E+04  0.65864270000E+03 0. -1.
    8880022    1    1    2    0    0  0.20380556732E+03  0.40775697202E+03  0.38103940444E+03  0.61350235392E+03  0.15294330000E+03 0.  0.
<mgrwt>
<rscale>  0 0.70505735E+03</rscale>
<asrwt>0</asrwt>
<pdfrwt beam="1">  1        2 0.22446894E+00 0.80100728E+03</pdfrwt>
<pdfrwt beam="2">  1       -2 0.94880562E-01 0.80100728E+03</pdfrwt>
<totfact> 0.12732117E+01</totfact>
</mgrwt>
</event>
<event>
 4    1  0.3565372E-007  0.8343997E+03  0.7818608E-02  0.9640832E-01
         -2   -1    0    0    0  501 -0.00000000000E+00  0.00000000000E+00  0.28031843967E+03  0.28031843968E+03  0.25500000000E-02 0.  1.
          2   -1    0    0  501    0  0.00000000000E+00 -0.00000000000E+00 -0.24777578372E+04  0.24777578372E+04  0.25500000000E-02 0. -1.
    8880023    1    1    2    0    0  0.30491868792E+03  0.41162758798E+03 -0.48719049319E+03  0.96621812255E+03  0.65864270000E+03 0.  0.
    8880022    1    1    2    0    0 -0.30491868792E+03 -0.41162758798E+03 -0.17102489043E+04  0.17918581543E+04  0.15294330000E+03 0.  0.
<mgrwt>
<rscale>  0 0.74651616E+03</rscale>
<asrwt>0</asrwt>
<pdfrwt beam="1">  1        2 0.38119350E+00 0.83439971E+03</pdfrwt>
<pdfrwt beam="2">  1       -2 0.43125915E-01 0.83439971E+03</pdfrwt>
<totfact> 0.18879884E+01</totfact>
</mgrwt>
</event>
<event>
 4    1  0.3565372E-007  0.6666603E+03  0.7818608E-02  0.1018179E+00
         -2   -1    0    0    0  501 -0.00000000000E+00  0.00000000000E+00  0.20981428845E+03  0.20981428847E+03  0.25500000000E-02 0.  1.
          2   -1    0    0  501    0  0.00000000000E+00 -0.00000000000E+00 -0.10072182775E+04  0.10072182775E+04  0.25500000000E-02 0. -1.
    8880023    1    1    2    0    0 -0.57435938920E+02 -0.85597395539E+02 -0.78825558416E+03  0.10323676058E+04  0.65864270000E+03 0. -1.
    8880022    1    1    2    0    0  0.57435938920E+02  0.85597395539E+02 -0.91484048921E+01  0.18466496021E+03  0.15294330000E+03 0.  0.
<mgrwt>
<rscale>  0 0.48349411E+03</rscale>
<asrwt>0</asrwt>
<pdfrwt beam="1">  1        2 0.15495665E+00 0.66666034E+03</pdfrwt>
<pdfrwt beam="2">  1       -2 0.32279122E-01 0.66666034E+03</pdfrwt>
<totfact> 0.22590358E+02</totfact>
</mgrwt>
</event>
<event>
 4    1  0.3565372E-007  0.6960034E+03  0.7818608E-02  0.1001420E+00
         -2   -1    0    0    0  501 -0.00000000000E+00  0.00000000000E+00  0.20223883077E+03  0.20223883079E+03  0.25500000000E-02 0.  1.
          2   -1    0    0  501    0  0.00000000000E+00 -0.00000000000E+00 -0.14160621686E+04  0.14160621686E+04  0.25500000000E-02 0. -1.
    8880023    1    1    2    0    0  0.82161663816E+02  0.20942791565E+03 -0.50743636462E+03  0.86134340496E+03  0.65864270000E+03 0.  0.
    8880022    1    1    2    0    0 -0.82161663816E+02 -0.20942791565E+03 -0.70638697324E+03  0.75695759447E+03  0.15294330000E+03 0.  0.
<mgrwt>
<rscale>  0 0.55031855E+03</rscale>
<asrwt>0</asrwt>
<pdfrwt beam="1">  1        2 0.21785571E+00 0.69600345E+03</pdfrwt>
<pdfrwt beam="2">  1       -2 0.31113667E-01 0.69600345E+03</pdfrwt>
<totfact> 0.13838921E+02</totfact>
</mgrwt>
</event>
<event>
 4    1  0.3565372E-007  0.7537538E+03  0.7818608E-02  0.9821555E-01
         -2   -1    0    0    0  501 -0.00000000000E+00  0.00000000000E+00  0.64041402455E+03  0.64041402456E+03  0.25500000000E-02 0.  1.
          2   -1    0    0  501    0  0.00000000000E+00 -0.00000000000E+00 -0.14214256477E+04  0.14214256477E+04  0.25500000000E-02 0. -1.
    8880023    1    1    2    0    0  0.34750054350E+03 -0.11652464969E+03 -0.12423355516E+04  0.14531147411E+04  0.65864270000E+03 0. -1.
    8880022    1    1    2    0    0 -0.34750054350E+03  0.11652464969E+03  0.46132392852E+03  0.60872493112E+03  0.15294330000E+03 0.  0.
<mgrwt>
<rscale>  0 0.64218499E+03</rscale>
<asrwt>0</asrwt>
<pdfrwt beam="1">  1        2 0.21868087E+00 0.75375382E+03</pdfrwt>
<pdfrwt beam="2">  1       -2 0.98525235E-01 0.75375382E+03</pdfrwt>
<totfact> 0.12307473E+01</totfact>
</mgrwt>
</event>
<event>
 4    1  0.3565372E-007  0.7143631E+03  0.7818608E-02  0.9942142E-01
         -2   -1    0    0    0  501 -0.00000000000E+00  0.00000000000E+00  0.19806086137E+03  0.19806086139E+03  0.25500000000E-02 0.  1.
          2   -1    0    0  501    0  0.00000000000E+00 -0.00000000000E+00 -0.26686116595E+04  0.26686116595E+04  0.25500000000E-02 0. -1.
    8880023    1    1    2    0    0 -0.19463189893E+03 -0.19652698894E+03 -0.24476666991E+04  0.25497817377E+04  0.65864270000E+03 0. -1.
    8880022    1    1    2    0    0  0.19463189893E+03  0.19652698894E+03 -0.22884098962E+02  0.31689078318E+03  0.15294330000E+03 0.  0.
<mgrwt>
<rscale>  0 0.58261655E+03</rscale>
<asrwt>0</asrwt>
<pdfrwt beam="1">  1        2 0.41055561E+00 0.71436310E+03</pdfrwt>
<pdfrwt beam="2">  1       -2 0.30470904E-01 0.71436310E+03</pdfrwt>
<totfact> 0.29083297E+01</totfact>
</mgrwt>
</event>
<event>
 4    1  0.3565372E-007  0.7302550E+03  0.7818608E-02  0.9889301E-01
          2   -1    0    0  501    0  0.00000000000E+00  0.00000000000E+00  0.31592471980E+04  0.31592471980E+04  0.25500000000E-02 0. -1.
         -2   -1    0    0    0  501 -0.00000000000E+00 -0.00000000000E+00 -0.22169105038E+03  0.22169105040E+03  0.25500000000E-02 0.  1.
    8880023    1    1    2    0    0  0.10646354934E+02 -0.31519643087E+03  0.29411126620E+04  0.30304151583E+04  0.65864270000E+03 0. -1.
    8880022    1    1    2    0    0 -0.10646354934E+02  0.31519643087E+03 -0.35565143335E+01  0.35052309013E+03  0.15294330000E+03 0.  0.
<mgrwt>
<rscale>  0 0.60782627E+03</rscale>
<asrwt>0</asrwt>
<pdfrwt beam="1">  1        2 0.48603803E+00 0.73025498E+03</pdfrwt>
<pdfrwt beam="2">  1       -2 0.34106316E-01 0.73025498E+03</pdfrwt>
<totfact> 0.11881228E+01</totfact>
</mgrwt>
</event>
<event>
 4    1  0.3565372E-007  0.7660413E+03  0.7818608E-02  0.9789711E-01
         -2   -1    0    0    0  501 -0.00000000000E+00  0.00000000000E+00  0.42173793115E+03  0.42173793116E+03  0.25500000000E-02 0.  1.
          2   -1    0    0  501    0  0.00000000000E+00 -0.00000000000E+00 -0.94733750768E+03  0.94733750768E+03  0.25500000000E-02 0. -1.
    8880023    1    1    2    0    0  0.11230498594E+03  0.37469539366E+03 -0.55815228215E+03  0.94781497362E+03  0.65864270000E+03 0.  0.
    8880022    1    1    2    0    0 -0.11230498594E+03 -0.37469539366E+03  0.32552705616E+02  0.42126046521E+03  0.15294330000E+03 0.  0.
<mgrwt>
<rscale>  0 0.65917643E+03</rscale>
<asrwt>0</asrwt>
<pdfrwt beam="1">  1        2 0.14574423E+00 0.76604129E+03</pdfrwt>
<pdfrwt beam="2">  1       -2 0.64882759E-01 0.76604129E+03</pdfrwt>
<totfact> 0.60538515E+01</totfact>
</mgrwt>
</event>
<event>
 4    1  0.3565372E-007  0.6899925E+03  0.7818608E-02  0.1004156E+00
          2   -1    0    0  501    0  0.00000000000E+00  0.00000000000E+00  0.26589036741E+04  0.26589036741E+04  0.25500000000E-02 0. -1.
         -2   -1    0    0    0  501 -0.00000000000E+00 -0.00000000000E+00 -0.11204305580E+03  0.11204305583E+03  0.25500000000E-02 0.  1.
    8880023    1    1    2    0    0  0.18231056774E+03  0.95090693877E+02  0.23459462898E+04  0.24453125739E+04  0.65864270000E+03 0. -1.
    8880022    1    1    2    0    0 -0.18231056774E+03 -0.95090693877E+02  0.20091432854E+03  0.32563415607E+03  0.15294330000E+03 0.  0.
<mgrwt>
<rscale>  0 0.53864792E+03</rscale>
<asrwt>0</asrwt>
<pdfrwt beam="1">  1        2 0.40906206E+00 0.68999246E+03</pdfrwt>
<pdfrwt beam="2">  1       -2 0.17237395E-01 0.68999246E+03</pdfrwt>
<totfact> 0.81638119E+01</totfact>
</mgrwt>
</event>
<event>
 4    1  0.3565372E-007  0.7407192E+03  0.7818608E-02  0.9857857E-01
         -2   -1    0    0    0  501 -0.00000000000E+00  0.00000000000E+00  0.52342822197E+03  0.52342822198E+03  0.25500000000E-02 0.  1.
          2   -1    0    0  501    0  0.00000000000E+00 -0.00000000000E+00 -0.17619132248E+04  0.17619132248E+04  0.25500000000E-02 0. -1.
    8880023    1    1    2    0    0  0.25751808006E+03  0.22031597799E+03 -0.16022462945E+04  0.17651793354E+04  0.65864270000E+03 0. -1.
    8880022    1    1    2    0    0 -0.25751808006E+03 -0.22031597799E+03  0.36376129169E+03  0.52016211133E+03  0.15294330000E+03 0.  0.
<mgrwt>
<rscale>  0 0.62347910E+03</rscale>
<asrwt>0</asrwt>
<pdfrwt beam="1">  1        2 0.27106357E+00 0.74071918E+03</pdfrwt>
<pdfrwt beam="2">  1       -2 0.80527420E-01 0.74071918E+03</pdfrwt>
<totfact> 0.12721541E+01</totfact>
</mgrwt>
</event>
<event>
 4    1  0.3565372E-007  0.7213036E+03  0.7818608E-02  0.9918199E-01
          2   -1    0    0  501    0  0.00000000000E+00  0.00000000000E+00  0.55200256276E+03  0.55200256277E+03  0.25500000000E-02 0. -1.
         -2   -1    0    0    0  501 -0.00000000000E+00 -0.00000000000E+00 -0.91612773014E+03  0.91612773015E+03  0.25500000000E-02 0.  1.
    8880023    1    1    2    0    0 -0.17626584028E+03 -0.23537001257E+03  0.25566939740E+03  0.76527494164E+03  0.65864270000E+03 0. -1.
    8880022    1    1    2    0    0  0.17626584028E+03  0.23537001257E+03 -0.61979456478E+03  0.70285535127E+03  0.15294330000E+03 0.  0.
<mgrwt>
<rscale>  0 0.59387316E+03</rscale>
<asrwt>0</asrwt>
<pdfrwt beam="1">  1        2 0.84923471E-01 0.72130361E+03</pdfrwt>
<pdfrwt beam="2">  1       -2 0.14094273E+00 0.72130361E+03</pdfrwt>
<totfact> 0.19657706E+01</totfact>
</mgrwt>
</event>
<event>
 4    1  0.3565372E-007  0.8765872E+03  0.7818608E-02  0.9564713E-01
          2   -1    0    0  501    0  0.00000000000E+00  0.00000000000E+00  0.79243223407E+03  0.79243223407E+03  0.25500000000E-02 0. -1.
         -2   -1    0    0    0  501 -0.00000000000E+00 -0.00000000000E+00 -0.17563939912E+04  0.17563939912E+04  0.25500000000E-02 0.  1.
    8880023    1    1    2    0    0 -0.52710809619E+03 -0.23822667060E+03  0.47029226175E+03  0.99477631123E+03  0.65864270000E+03 0. -1.
    8880022    1    1    2    0    0  0.52710809619E+03  0.23822667060E+03 -0.14342540188E+04  0.15540499140E+04  0.15294330000E+03 0.  0.
<mgrwt>
<rscale>  0 0.79676395E+03</rscale>
<asrwt>0</asrwt>
<pdfrwt beam="1">  1        2 0.12191265E+00 0.87658719E+03</pdfrwt>
<pdfrwt beam="2">  1       -2 0.27021446E+00 0.87658719E+03</pdfrwt>
<totfact> 0.17135462E+00</totfact>
</mgrwt>
</event>
<event>
 4    1  0.3565372E-007  0.8687868E+03  0.7818608E-02  0.9578120E-01
          2   -1    0    0  501    0  0.00000000000E+00  0.00000000000E+00  0.14965434111E+04  0.14965434111E+04  0.25500000000E-02 0. -1.
         -2   -1    0    0    0  501 -0.00000000000E+00 -0.00000000000E+00 -0.73326960558E+03  0.73326960558E+03  0.25500000000E-02 0.  1.
    8880023    1    1    2    0    0  0.49664266386E+03 -0.27262867792E+03  0.12119016803E+04  0.14911392358E+04  0.65864270000E+03 0.  0.
    8880022    1    1    2    0    0 -0.49664266386E+03  0.27262867792E+03 -0.44862787474E+03  0.73867378091E+03  0.15294330000E+03 0.  0.
<mgrwt>
<rscale>  0 0.78761394E+03</rscale>
<asrwt>0</asrwt>
<pdfrwt beam="1">  1        2 0.23023745E+00 0.86878682E+03</pdfrwt>
<pdfrwt beam="2">  1       -2 0.11281071E+00 0.86878682E+03</pdfrwt>
<totfact> 0.79516200E+00</totfact>
</mgrwt>
</event>
<event>
 4    1  0.5081173E-007  0.6755878E+03  0.7818608E-02  0.1011938E+00
          2   -1    0    0  501    0  0.00000000000E+00  0.00000000000E+00  0.17497813849E+04  0.17497813849E+04  0.25500000000E-02 0. -1.
         -2   -1    0    0    0  501 -0.00000000000E+00 -0.00000000000E+00 -0.10539200148E+04  0.10539200148E+04  0.25500000000E-02 0.  1.
    8880023    1    1    2    0    0 -0.14522309832E+03  0.38974095495E+02  0.16724973968E+04  0.18037922488E+04  0.65864270000E+03 0. -1.
    8880022    1    1    2    0    0  0.14522309832E+03 -0.38974095495E+02 -0.97663602668E+03  0.99990915089E+03  0.15294330000E+03 0.  0.
<mgrwt>
<rscale>  0 0.50711511E+03</rscale>
<asrwt>0</asrwt>
<pdfrwt beam="1">  1        2 0.26919714E+00 0.67558784E+03</pdfrwt>
<pdfrwt beam="2">  1       -2 0.16214154E+00 0.67558784E+03</pdfrwt>
<totfact> 0.23408234E+00</totfact>
</mgrwt>
</event>
<event>
 4    1  0.3565372E-007  0.8567944E+03  0.7818608E-02  0.9599291E-01
         -2   -1    0    0    0  501 -0.00000000000E+00  0.00000000000E+00  0.29843378677E+03  0.29843378678E+03  0.25500000000E-02 0.  1.
          2   -1    0    0  501    0  0.00000000000E+00 -0.00000000000E+00 -0.31483085387E+04  0.31483085387E+04  0.25500000000E-02 0. -1.
    8880023    1    1    2    0    0  0.44186894846E+03  0.32409620659E+03 -0.27353564625E+04  0.28664039670E+04  0.65864270000E+03 0. -1.
    8880022    1    1    2    0    0 -0.44186894846E+03 -0.32409620659E+03 -0.11451828947E+03  0.58033835853E+03  0.15294330000E+03 0.  0.
<mgrwt>
<rscale>  0 0.77343115E+03</rscale>
<asrwt>0</asrwt>
<pdfrwt beam="1">  1        2 0.48435514E+00 0.85679445E+03</pdfrwt>
<pdfrwt beam="2">  1       -2 0.45912893E-01 0.85679445E+03</pdfrwt>
<totfact> 0.66150960E+00</totfact>
</mgrwt>
</event>
<event>
 4    1  0.3565372E-007  0.6904897E+03  0.7818608E-02  0.1003921E+00
         -2   -1    0    0    0  501 -0.00000000000E+00  0.00000000000E+00  0.22615504099E+03  0.22615504100E+03  0.25500000000E-02 0.  1.
          2   -1    0    0  501    0  0.00000000000E+00 -0.00000000000E+00 -0.12613350300E+04  0.12613350300E+04  0.25500000000E-02 0. -1.
    8880023    1    1    2    0    0  0.13821906836E+03  0.15447100273E+03 -0.10169948418E+04  0.12292495743E+04  0.65864270000E+03 0. -1.
    8880022    1    1    2    0    0 -0.13821906836E+03 -0.15447100273E+03 -0.18185147269E+02  0.25824049671E+03  0.15294330000E+03 0.  0.
<mgrwt>
<rscale>  0 0.53963997E+03</rscale>
<asrwt>0</asrwt>
<pdfrwt beam="1">  1        2 0.19405154E+00 0.69048969E+03</pdfrwt>
<pdfrwt beam="2">  1       -2 0.34793084E-01 0.69048969E+03</pdfrwt>
<totfact> 0.13747999E+02</totfact>
</mgrwt>
</event>
<event>
 4    1  0.4958922E-007  0.7238382E+03  0.7818608E-02  0.9909806E-01
         -2   -1    0    0    0  501 -0.00000000000E+00  0.00000000000E+00  0.95853650088E+03  0.95853650088E+03  0.25500000000E-02 0.  1.
          2   -1    0    0  501    0  0.00000000000E+00 -0.00000000000E+00 -0.22337406037E+04  0.22337406037E+04  0.25500000000E-02 0. -1.
    8880023    1    1    2    0    0  0.14369697241E+03 -0.26359584109E+03 -0.21426931917E+04  0.22616533570E+04  0.65864270000E+03 0.  0.
    8880022    1    1    2    0    0 -0.14369697241E+03  0.26359584109E+03  0.86748908884E+03  0.93062374760E+03  0.15294330000E+03 0.  1.
<mgrwt>
<rscale>  0 0.59788373E+03</rscale>
<asrwt>0</asrwt>
<pdfrwt beam="1">  1        2 0.34365240E+00 0.72383824E+03</pdfrwt>
<pdfrwt beam="2">  1       -2 0.14746715E+00 0.72383824E+03</pdfrwt>
<totfact> 0.16259822E+00</totfact>
</mgrwt>
</event>
<event>
 4    1  0.3565372E-007  0.7037322E+03  0.7818608E-02  0.9982057E-01
         -2   -1    0    0    0  501 -0.00000000000E+00  0.00000000000E+00  0.52178782615E+03  0.52178782615E+03  0.25500000000E-02 0.  1.
          2   -1    0    0  501    0  0.00000000000E+00 -0.00000000000E+00 -0.60426404797E+03  0.60426404797E+03  0.25500000000E-02 0. -1.
    8880023    1    1    2    0    0  0.11581005149E+03 -0.21912727982E+03  0.18818794692E+03  0.72845977405E+03  0.65864270000E+03 0.  1.
    8880022    1    1    2    0    0 -0.11581005149E+03  0.21912727982E+03 -0.27066416874E+03  0.39759210007E+03  0.15294330000E+03 0.  0.
<mgrwt>
<rscale>  0 0.56444038E+03</rscale>
<asrwt>0</asrwt>
<pdfrwt beam="1">  1        2 0.92963700E-01 0.70373215E+03</pdfrwt>
<pdfrwt beam="2">  1       -2 0.80275050E-01 0.70373215E+03</pdfrwt>
<totfact> 0.68468452E+01</totfact>
</mgrwt>
</event>
<event>
 4    1  0.3565372E-007  0.8073321E+03  0.7818608E-02  0.9695161E-01
         -2   -1    0    0    0  501 -0.00000000000E+00  0.00000000000E+00  0.86738331627E+03  0.86738331627E+03  0.25500000000E-02 0.  1.
          2   -1    0    0  501    0  0.00000000000E+00 -0.00000000000E+00 -0.14106038700E+04  0.14106038700E+04  0.25500000000E-02 0. -1.
    8880023    1    1    2    0    0  0.17643787969E+03  0.43225522918E+03 -0.12070360479E+04  0.14521436347E+04  0.65864270000E+03 0. -1.
    8880022    1    1    2    0    0 -0.17643787969E+03 -0.43225522918E+03  0.66381549412E+03  0.82584355165E+03  0.15294330000E+03 0.  0.
<mgrwt>
<rscale>  0 0.71305627E+03</rscale>
<asrwt>0</asrwt>
<pdfrwt beam="1">  1        2 0.21701598E+00 0.80733210E+03</pdfrwt>
<pdfrwt beam="2">  1       -2 0.13344359E+00 0.80733210E+03</pdfrwt>
<totfact> 0.58905347E+00</totfact>
</mgrwt>
</event>
<event>
 4    1  0.3565372E-007  0.8167376E+03  0.7818608E-02  0.9675710E-01
         -2   -1    0    0    0  501 -0.00000000000E+00  0.00000000000E+00  0.69233694358E+03  0.69233694359E+03  0.25500000000E-02 0.  1.
          2   -1    0    0  501    0  0.00000000000E+00 -0.00000000000E+00 -0.11045509802E+04  0.11045509802E+04  0.25500000000E-02 0. -1.
    8880023    1    1    2    0    0 -0.43426305963E+03  0.21134261216E+03 -0.81188397842E+03  0.11516144777E+04  0.65864270000E+03 0.  0.
    8880022    1    1    2    0    0  0.43426305963E+03 -0.21134261216E+03  0.39966994185E+03  0.64527344600E+03  0.15294330000E+03 0.  0.
<mgrwt>
<rscale>  0 0.72481609E+03</rscale>
<asrwt>0</asrwt>
<pdfrwt beam="1">  1        2 0.16993092E+00 0.81673760E+03</pdfrwt>
<pdfrwt beam="2">  1       -2 0.10651338E+00 0.81673760E+03</pdfrwt>
<totfact> 0.15537387E+01</totfact>
</mgrwt>
</event>
<event>
 4    1  0.3565372E-007  0.6818243E+03  0.7818608E-02  0.1008310E+00
          2   -1    0    0  501    0  0.00000000000E+00  0.00000000000E+00  0.23817623306E+03  0.23817623307E+03  0.25500000000E-02 0. -1.
         -2   -1    0    0    0  501 -0.00000000000E+00 -0.00000000000E+00 -0.87954796364E+03  0.87954796364E+03  0.25500000000E-02 0.  1.
    8880023    1    1    2    0    0  0.14678387844E+03  0.97615198200E+02 -0.48774005124E+03  0.83831664527E+03  0.65864270000E+03 0.  0.
    8880022    1    1    2    0    0 -0.14678387844E+03 -0.97615198200E+02 -0.15363167934E+03  0.27940755144E+03  0.15294330000E+03 0.  1.
<mgrwt>
<rscale>  0 0.52151878E+03</rscale>
<asrwt>0</asrwt>
<pdfrwt beam="1">  1        2 0.36642498E-01 0.68182435E+03</pdfrwt>
<pdfrwt beam="2">  1       -2 0.13531507E+00 0.68182435E+03</pdfrwt>
<totfact> 0.56498652E+01</totfact>
</mgrwt>
</event>
<event>
 4    1  0.3565372E-007  0.1001948E+04  0.7818608E-02  0.9379013E-01
          2   -1    0    0  501    0  0.00000000000E+00  0.00000000000E+00  0.76676143633E+03  0.76676143633E+03  0.25500000000E-02 0. -1.
         -2   -1    0    0    0  501 -0.00000000000E+00 -0.00000000000E+00 -0.11743264777E+04  0.11743264777E+04  0.25500000000E-02 0.  1.
    8880023    1    1    2    0    0  0.68546274359E+03 -0.31659281841E+03  0.11746735568E+03  0.10088106717E+04  0.65864270000E+03 0. -1.
    8880022    1    1    2    0    0 -0.68546274359E+03  0.31659281841E+03 -0.52503239704E+03  0.93227724228E+03  0.15294330000E+03 0.  1.
<mgrwt>
<rscale>  0 0.93823129E+03</rscale>
<asrwt>0</asrwt>
<pdfrwt beam="1">  1        2 0.11796330E+00 0.10019483E+04</pdfrwt>
<pdfrwt beam="2">  1       -2 0.18066561E+00 0.10019483E+04</pdfrwt>
<totfact> 0.64849467E+00</totfact>
</mgrwt>
</event>
<event>
 4    1  0.3565372E-007  0.9567908E+03  0.7818608E-02  0.9440410E-01
         -2   -1    0    0    0  501 -0.00000000000E+00  0.00000000000E+00  0.81062198463E+03  0.81062198464E+03  0.25500000000E-02 0.  1.
          2   -1    0    0  501    0  0.00000000000E+00 -0.00000000000E+00 -0.11212034586E+04  0.11212034586E+04  0.25500000000E-02 0. -1.
    8880023    1    1    2    0    0 -0.37038801032E+03  0.58689968115E+03 -0.63735784931E+03  0.11496407040E+04  0.65864270000E+03 0. -1.
    8880022    1    1    2    0    0  0.37038801032E+03 -0.58689968115E+03  0.32677637530E+03  0.78218473930E+03  0.15294330000E+03 0.  0.
<mgrwt>
<rscale>  0 0.88823406E+03</rscale>
<asrwt>0</asrwt>
<pdfrwt beam="1">  1        2 0.17249284E+00 0.95679084E+03</pdfrwt>
<pdfrwt beam="2">  1       -2 0.12471107E+00 0.95679084E+03</pdfrwt>
<totfact> 0.10158141E+01</totfact>
</mgrwt>
</event>
<event>
 4    1  0.3565372E-007  0.6812006E+03  0.7818608E-02  0.1008653E+00
          2   -1    0    0  501    0  0.00000000000E+00  0.00000000000E+00  0.73310131097E+03  0.73310131097E+03  0.25500000000E-02 0. -1.
         -2   -1    0    0    0  501 -0.00000000000E+00 -0.00000000000E+00 -0.44104777731E+03  0.44104777731E+03  0.25500000000E-02 0.  1.
    8880023    1    1    2    0    0  0.90165304356E+02 -0.14864118693E+03  0.51403272514E+03  0.85338375502E+03  0.65864270000E+03 0.  0.
    8880022    1    1    2    0    0 -0.90165304356E+02  0.14864118693E+03 -0.22197919148E+03  0.32076533326E+03  0.15294330000E+03 0.  0.
<mgrwt>
<rscale>  0 0.52013691E+03</rscale>
<asrwt>0</asrwt>
<pdfrwt beam="1">  1        2 0.11278482E+00 0.68120055E+03</pdfrwt>
<pdfrwt beam="2">  1       -2 0.67853505E-01 0.68120055E+03</pdfrwt>
<totfact> 0.78184305E+01</totfact>
</mgrwt>
</event>
<event>
 4    1  0.3565372E-007  0.9168755E+03  0.7818608E-02  0.9499466E-01
         -2   -1    0    0    0  501 -0.00000000000E+00  0.00000000000E+00  0.54581014380E+03  0.54581014381E+03  0.25500000000E-02 0.  1.
          2   -1    0    0  501    0  0.00000000000E+00 -0.00000000000E+00 -0.33028347140E+04  0.33028347140E+04  0.25500000000E-02 0. -1.
    8880023    1    1    2    0    0 -0.21496277224E+03  0.60053440547E+03  0.95353160840E+02  0.92182047989E+03  0.65864270000E+03 0.  1.
    8880022    1    1    2    0    0  0.21496277224E+03 -0.60053440547E+03 -0.28523777311E+04  0.29268243779E+04  0.15294330000E+03 0.  0.
<mgrwt>
<rscale>  0 0.84323169E+03</rscale>
<asrwt>0</asrwt>
<pdfrwt beam="1">  1        2 0.50812841E+00 0.91687555E+03</pdfrwt>
<pdfrwt beam="2">  1       -2 0.83970793E-01 0.91687555E+03</pdfrwt>
<totfact> 0.14341449E+00</totfact>
</mgrwt>
</event>
<event>
 4    1  0.3565372E-007  0.8996807E+03  0.7818608E-02  0.9526544E-01
         -2   -1    0    0    0  501 -0.00000000000E+00  0.00000000000E+00  0.74062694822E+03  0.74062694822E+03  0.25500000000E-02 0.  1.
          2   -1    0    0  501    0  0.00000000000E+00 -0.00000000000E+00 -0.14531102280E+04  0.14531102280E+04  0.25500000000E-02 0. -1.
    8880023    1    1    2    0    0 -0.11629769747E+03  0.60173920738E+03 -0.11240924547E+04  0.14397948747E+04  0.65864270000E+03 0. -1.
    8880022    1    1    2    0    0  0.11629769747E+03 -0.60173920738E+03  0.41160917494E+03  0.75394230153E+03  0.15294330000E+03 0.  0.
<mgrwt>
<rscale>  0 0.82354790E+03</rscale>
<asrwt>0</asrwt>
<pdfrwt beam="1">  1        2 0.22355542E+00 0.89968074E+03</pdfrwt>
<pdfrwt beam="2">  1       -2 0.11394261E+00 0.89968074E+03</pdfrwt>
<totfact> 0.81793369E+00</totfact>
</mgrwt>
</event>
<event>
 4    1  0.3565372E-007  0.7123988E+03  0.7818608E-02  0.9949199E-01
         -2   -1    0    0    0  501 -0.00000000000E+00  0.00000000000E+00  0.25369385262E+03  0.25369385263E+03  0.25500000000E-02 0.  1.
          2   -1    0    0  501    0  0.00000000000E+00 -0.00000000000E+00 -0.16685290309E+04  0.16685290309E+04  0.25500000000E-02 0. -1.
    8880023    1    1    2    0    0  0.98126705167E+02 -0.25312646169E+03 -0.14430818956E+04  0.16093468922E+04  0.65864270000E+03 0.  0.
    8880022    1    1    2    0    0 -0.98126705167E+02  0.25312646169E+03  0.28246717321E+02  0.31287599130E+03  0.15294330000E+03 0.  0.
<mgrwt>
<rscale>  0 0.57935020E+03</rscale>
<asrwt>0</asrwt>
<pdfrwt beam="1">  1        2 0.25669677E+00 0.71239881E+03</pdfrwt>
<pdfrwt beam="2">  1       -2 0.39029825E-01 0.71239881E+03</pdfrwt>
<totfact> 0.65076321E+01</totfact>
</mgrwt>
</event>
<event>
 4    1  0.3565372E-007  0.7505376E+03  0.7818608E-02  0.9830251E-01
          2   -1    0    0  501    0  0.00000000000E+00  0.00000000000E+00  0.25697853906E+04  0.25697853906E+04  0.25500000000E-02 0. -1.
         -2   -1    0    0    0  501 -0.00000000000E+00 -0.00000000000E+00 -0.37815438491E+03  0.37815438492E+03  0.25500000000E-02 0.  1.
    8880023    1    1    2    0    0  0.29717383550E+03  0.20293896348E+03  0.23931315585E+04  0.25080640689E+04  0.65864270000E+03 0. -1.
    8880022    1    1    2    0    0 -0.29717383550E+03 -0.20293896348E+03 -0.20150055284E+03  0.43987570655E+03  0.15294330000E+03 0.  0.
<mgrwt>
<rscale>  0 0.63764078E+03</rscale>
<asrwt>0</asrwt>
<pdfrwt beam="1">  1        2 0.39535158E+00 0.75053762E+03</pdfrwt>
<pdfrwt beam="2">  1       -2 0.58177600E-01 0.75053762E+03</pdfrwt>
<totfact> 0.92062368E+00</totfact>
</mgrwt>
</event>
<event>
 4    1  0.3565372E-007  0.7064656E+03  0.7818608E-02  0.9971368E-01
          2   -1    0    0  501    0  0.00000000000E+00  0.00000000000E+00  0.11201846706E+04  0.11201846706E+04  0.25500000000E-02 0. -1.
         -2   -1    0    0    0  501 -0.00000000000E+00 -0.00000000000E+00 -0.54879613134E+03  0.54879613134E+03  0.25500000000E-02 0.  1.
    8880023    1    1    2    0    0  0.10872509797E+03 -0.23121904960E+03  0.95214222234E+03  0.11856088789E+04  0.65864270000E+03 0. -1.
    8880022    1    1    2    0    0 -0.10872509797E+03  0.23121904960E+03 -0.38075368308E+03  0.48337192307E+03  0.15294330000E+03 0.  0.
<mgrwt>
<rscale>  0 0.56923741E+03</rscale>
<asrwt>0</asrwt>
<pdfrwt beam="1">  1        2 0.17233610E+00 0.70646557E+03</pdfrwt>
<pdfrwt beam="2">  1       -2 0.84430175E-01 0.70646557E+03</pdfrwt>
<totfact> 0.26485771E+01</totfact>
</mgrwt>
</event>
<event>
 4    1  0.3565372E-007  0.8200876E+03  0.7818608E-02  0.9668936E-01
         -2   -1    0    0    0  501 -0.00000000000E+00  0.00000000000E+00  0.19189270959E+03  0.19189270960E+03  0.25500000000E-02 0.  1.
          2   -1    0    0  501    0  0.00000000000E+00 -0.00000000000E+00 -0.25457531943E+04  0.25457531943E+04  0.25500000000E-02 0. -1.
    8880023    1    1    2    0    0 -0.18681046160E+03  0.45148119697E+03 -0.18289497079E+04  0.20043953352E+04  0.65864270000E+03 0.  0.
    8880022    1    1    2    0    0  0.18681046160E+03 -0.45148119697E+03 -0.52491077684E+03  0.73325056866E+03  0.15294330000E+03 0.  0.
<mgrwt>
<rscale>  0 0.72896847E+03</rscale>
<asrwt>0</asrwt>
<pdfrwt beam="1">  1        2 0.39165431E+00 0.82008757E+03</pdfrwt>
<pdfrwt beam="2">  1       -2 0.29521957E-01 0.82008757E+03</pdfrwt>
<totfact> 0.35752573E+01</totfact>
</mgrwt>
</event>
<event>
 4    1  0.3565372E-007  0.7215826E+03  0.7818608E-02  0.9917267E-01
         -2   -1    0    0    0  501 -0.00000000000E+00  0.00000000000E+00  0.11629057701E+04  0.11629057701E+04  0.25500000000E-02 0.  1.
          2   -1    0    0  501    0  0.00000000000E+00 -0.00000000000E+00 -0.59918043312E+03  0.59918043313E+03  0.25500000000E-02 0. -1.
    8880023    1    1    2    0    0  0.28510192670E+03  0.74753739642E+02 -0.34118226406E+03  0.79817715688E+03  0.65864270000E+03 0. -1.
    8880022    1    1    2    0    0 -0.28510192670E+03 -0.74753739642E+02  0.90490760102E+03  0.96390904633E+03  0.15294330000E+03 0.  0.
<mgrwt>
<rscale>  0 0.59431707E+03</rscale>
<asrwt>0</asrwt>
<pdfrwt beam="1">  1        2 0.92181605E-01 0.72158259E+03</pdfrwt>
<pdfrwt beam="2">  1       -2 0.17890858E+00 0.72158259E+03</pdfrwt>
<totfact> 0.93534763E+00</totfact>
</mgrwt>
</event>
<event>
 4    1  0.3565372E-007  0.6627139E+03  0.7818608E-02  0.1021534E+00
         -2   -1    0    0    0  501 -0.00000000000E+00  0.00000000000E+00  0.23041378919E+03  0.23041378921E+03  0.25500000000E-02 0.  1.
          2   -1    0    0  501    0  0.00000000000E+00 -0.00000000000E+00 -0.15028730568E+04  0.15028730568E+04  0.25500000000E-02 0. -1.
    8880023    1    1    2    0    0  0.26946392057E+02  0.68215703973E+02 -0.13810907569E+04  0.15318620615E+04  0.65864270000E+03 0. -1.
    8880022    1    1    2    0    0 -0.26946392057E+02 -0.68215703973E+02  0.10863148934E+03  0.20142478449E+03  0.15294330000E+03 0.  0.
<mgrwt>
<rscale>  0 0.47137245E+03</rscale>
<asrwt>0</asrwt>
<pdfrwt beam="1">  1        2 0.23121123E+00 0.66271389E+03</pdfrwt>
<pdfrwt beam="2">  1       -2 0.35448276E-01 0.66271389E+03</pdfrwt>
<totfact> 0.97111143E+01</totfact>
</mgrwt>
</event>
<event>
 4    1  0.3565372E-007  0.6608591E+03  0.7818608E-02  0.1023293E+00
         -2   -1    0    0    0  501 -0.00000000000E+00  0.00000000000E+00  0.13446166261E+03  0.13446166263E+03  0.25500000000E-02 0.  1.
          2   -1    0    0  501    0  0.00000000000E+00 -0.00000000000E+00 -0.12639196796E+04  0.12639196796E+04  0.25500000000E-02 0. -1.
    8880023    1    1    2    0    0  0.95947738250E+01  0.53221156987E+02 -0.87306896561E+03  0.10949813588E+04  0.65864270000E+03 0.  1.
    8880022    1    1    2    0    0 -0.95947738250E+01 -0.53221156987E+02 -0.25638905137E+03  0.30339998338E+03  0.15294330000E+03 0.  0.
<mgrwt>
<rscale>  0 0.46516771E+03</rscale>
<asrwt>0</asrwt>
<pdfrwt beam="1">  1        2 0.19444917E+00 0.66085911E+03</pdfrwt>
<pdfrwt beam="2">  1       -2 0.20686410E-01 0.66085911E+03</pdfrwt>
<totfact> 0.35420814E+02</totfact>
</mgrwt>
</event>
<event>
 4    1  0.3565372E-007  0.8394642E+03  0.7818608E-02  0.9631191E-01
          2   -1    0    0  501    0  0.00000000000E+00  0.00000000000E+00  0.35743313611E+04  0.35743313611E+04  0.25500000000E-02 0. -1.
         -2   -1    0    0    0  501 -0.00000000000E+00 -0.00000000000E+00 -0.22334650211E+03  0.22334650213E+03  0.25500000000E-02 0.  1.
    8880023    1    1    2    0    0 -0.29999915538E+03 -0.42531216132E+03  0.30779344284E+04  0.31903574219E+04  0.65864270000E+03 0.  0.
    8880022    1    1    2    0    0  0.29999915538E+03  0.42531216132E+03  0.27305043062E+03  0.60732044134E+03  0.15294330000E+03 0.  0.
<mgrwt>
<rscale>  0 0.75265685E+03</rscale>
<asrwt>0</asrwt>
<pdfrwt beam="1">  1        2 0.54989709E+00 0.83946419E+03</pdfrwt>
<pdfrwt beam="2">  1       -2 0.34361003E-01 0.83946419E+03</pdfrwt>
<totfact> 0.60976718E+00</totfact>
</mgrwt>
</event>
<event>
 4    1  0.3565372E-007  0.8223956E+03  0.7818608E-02  0.9664313E-01
          2   -1    0    0  501    0  0.00000000000E+00  0.00000000000E+00  0.11194390230E+04  0.11194390230E+04  0.25500000000E-02 0. -1.
         -2   -1    0    0    0  501 -0.00000000000E+00 -0.00000000000E+00 -0.63348808302E+03  0.63348808302E+03  0.25500000000E-02 0.  1.
    8880023    1    1    2    0    0 -0.47991977585E+03  0.11045970054E+03  0.80150743960E+03  0.11483678499E+04  0.65864270000E+03 0.  0.
    8880022    1    1    2    0    0  0.47991977585E+03 -0.11045970054E+03 -0.31555649962E+03  0.60455925612E+03  0.15294330000E+03 0.  0.
<mgrwt>
<rscale>  0 0.73181894E+03</rscale>
<asrwt>0</asrwt>
<pdfrwt beam="1">  1        2 0.17222138E+00 0.82239561E+03</pdfrwt>
<pdfrwt beam="2">  1       -2 0.97459707E-01 0.82239561E+03</pdfrwt>
<totfact> 0.18795242E+01</totfact>
</mgrwt>
</event>
<event>
 4    1  0.3565372E-007  0.9379273E+03  0.7818608E-02  0.9467701E-01
         -2   -1    0    0    0  501 -0.00000000000E+00  0.00000000000E+00  0.96301914976E+03  0.96301914976E+03  0.25500000000E-02 0.  1.
          2   -1    0    0  501    0  0.00000000000E+00 -0.00000000000E+00 -0.18989116391E+04  0.18989116391E+04  0.25500000000E-02 0. -1.
    8880023    1    1    2    0    0 -0.52751083623E+03 -0.40942615199E+03 -0.16338698836E+04  0.18839422653E+04  0.65864270000E+03 0. -1.
    8880022    1    1    2    0    0  0.52751083623E+03  0.40942615199E+03  0.69797739425E+03  0.97798852354E+03  0.15294330000E+03 0.  0.
<mgrwt>
<rscale>  0 0.86707557E+03</rscale>
<asrwt>0</asrwt>
<pdfrwt beam="1">  1        2 0.29214025E+00 0.93792732E+03</pdfrwt>
<pdfrwt beam="2">  1       -2 0.14815679E+00 0.93792732E+03</pdfrwt>
<totfact> 0.23658880E+00</totfact>
</mgrwt>
</event>
<event>
 4    1  0.3565372E-007  0.1188260E+04  0.7818608E-02  0.9168620E-01
          2   -1    0    0  501    0  0.00000000000E+00  0.00000000000E+00  0.30325000214E+04  0.30325000214E+04  0.25500000000E-02 0. -1.
         -2   -1    0    0    0  501 -0.00000000000E+00 -0.00000000000E+00 -0.63429132352E+03  0.63429132352E+03  0.25500000000E-02 0.  1.
    8880023    1    1    2    0    0  0.87761101419E+03 -0.45601631276E+03  0.23864898355E+04  0.26659512206E+04  0.65864270000E+03 0.  0.
    8880022    1    1    2    0    0 -0.87761101419E+03  0.45601631276E+03  0.11718862454E+02  0.10008401243E+04  0.15294330000E+03 0.  0.
<mgrwt>
<rscale>  0 0.11383279E+04</rscale>
<asrwt>0</asrwt>
<pdfrwt beam="1">  1        2 0.46653847E+00 0.11882601E+04</pdfrwt>
<pdfrwt beam="2">  1       -2 0.97583280E-01 0.11882601E+04</pdfrwt>
<totfact> 0.14434917E+00</totfact>
</mgrwt>
</event>
<event>
 4    1  0.3565372E-007  0.9737036E+03  0.7818608E-02  0.9416800E-01
          2   -1    0    0  501    0  0.00000000000E+00  0.00000000000E+00  0.36538997179E+04  0.36538997179E+04  0.25500000000E-02 0. -1.
         -2   -1    0    0    0  501 -0.00000000000E+00 -0.00000000000E+00 -0.42123671624E+03  0.42123671625E+03  0.25500000000E-02 0.  1.
    8880023    1    1    2    0    0 -0.21670542137E+03  0.68361331076E+03  0.31959104126E+04  0.33409492618E+04  0.65864270000E+03 0.  0.
    8880022    1    1    2    0    0  0.21670542137E+03 -0.68361331076E+03  0.36752589121E+02  0.73418717240E+03  0.15294330000E+03 0.  0.
<mgrwt>
<rscale>  0 0.90705904E+03</rscale>
<asrwt>0</asrwt>
<pdfrwt beam="1">  1        2 0.56213841E+00 0.97370355E+03</pdfrwt>
<pdfrwt beam="2">  1       -2 0.64805650E-01 0.97370355E+03</pdfrwt>
<totfact> 0.14506840E+00</totfact>
</mgrwt>
</event>
<event>
 4    1  0.3565372E-007  0.1100719E+04  0.7818608E-02  0.9260256E-01
          2   -1    0    0  501    0  0.00000000000E+00  0.00000000000E+00  0.13785592563E+04  0.13785592563E+04  0.25500000000E-02 0. -1.
         -2   -1    0    0    0  501 -0.00000000000E+00 -0.00000000000E+00 -0.86031559600E+03  0.86031559600E+03  0.25500000000E-02 0.  1.
    8880023    1    1    2    0    0  0.83955944137E+03 -0.27002401347E+03  0.72782452759E+03  0.13195877283E+04  0.65864270000E+03 0. -1.
    8880022    1    1    2    0    0 -0.83955944137E+03  0.27002401347E+03 -0.20958086728E+03  0.91928712402E+03  0.15294330000E+03 0.  0.
<mgrwt>
<rscale>  0 0.10452561E+04</rscale>
<asrwt>0</asrwt>
<pdfrwt beam="1">  1        2 0.21208604E+00 0.11007194E+04</pdfrwt>
<pdfrwt beam="2">  1       -2 0.13235625E+00 0.11007194E+04</pdfrwt>
<totfact> 0.60700219E+00</totfact>
</mgrwt>
</event>
<event>
 4    1  0.3565372E-007  0.6995955E+03  0.7818608E-02  0.9998883E-01
          2   -1    0    0  501    0  0.00000000000E+00  0.00000000000E+00  0.67762311353E+03  0.67762311353E+03  0.25500000000E-02 0. -1.
         -2   -1    0    0    0  501 -0.00000000000E+00 -0.00000000000E+00 -0.58980470828E+03  0.58980470828E+03  0.25500000000E-02 0.  1.
    8880023    1    1    2    0    0  0.53010795677E+02  0.22981194096E+03  0.43262852495E+03  0.82255779100E+03  0.65864270000E+03 0. -1.
    8880022    1    1    2    0    0 -0.53010795677E+02 -0.22981194096E+03 -0.34481011970E+03  0.44487003082E+03  0.15294330000E+03 0.  0.
<mgrwt>
<rscale>  0 0.55699228E+03</rscale>
<asrwt>0</asrwt>
<pdfrwt beam="1">  1        2 0.10424971E+00 0.69959551E+03</pdfrwt>
<pdfrwt beam="2">  1       -2 0.90739186E-01 0.69959551E+03</pdfrwt>
<totfact> 0.45016702E+01</totfact>
</mgrwt>
</event>
<event>
 4    1  0.3565372E-007  0.8337624E+03  0.7818608E-02  0.9642056E-01
         -2   -1    0    0    0  501 -0.00000000000E+00  0.00000000000E+00  0.42487267574E+03  0.42487267575E+03  0.25500000000E-02 0.  1.
          2   -1    0    0  501    0  0.00000000000E+00 -0.00000000000E+00 -0.14795159318E+04  0.14795159318E+04  0.25500000000E-02 0. -1.
    8880023    1    1    2    0    0 -0.41602999216E+03 -0.29710038762E+03 -0.10868354032E+04  0.13698069187E+04  0.65864270000E+03 0.  0.
    8880022    1    1    2    0    0  0.41602999216E+03  0.29710038762E+03  0.32192147102E+02  0.53458168885E+03  0.15294330000E+03 0.  0.
<mgrwt>
<rscale>  0 0.74574104E+03</rscale>
<asrwt>0</asrwt>
<pdfrwt beam="1">  1        2 0.22761783E+00 0.83376244E+03</pdfrwt>
<pdfrwt beam="2">  1       -2 0.65365028E-01 0.83376244E+03</pdfrwt>
<totfact> 0.28507876E+01</totfact>
</mgrwt>
</event>
<event>
 4    1  0.3565372E-007  0.9157088E+03  0.7818608E-02  0.9501270E-01
         -2   -1    0    0    0  501 -0.00000000000E+00  0.00000000000E+00  0.95391960335E+03  0.95391960335E+03  0.25500000000E-02 0.  1.
          2   -1    0    0  501    0  0.00000000000E+00 -0.00000000000E+00 -0.21532018389E+04  0.21532018389E+04  0.25500000000E-02 0. -1.
    8880023    1    1    2    0    0 -0.62945300290E+03 -0.92202845609E+02 -0.19239651978E+04  0.21307662322E+04  0.65864270000E+03 0.  0.
    8880022    1    1    2    0    0  0.62945300290E+03  0.92202845609E+02  0.72468296220E+03  0.97635521011E+03  0.15294330000E+03 0.  0.
<mgrwt>
<rscale>  0 0.84190235E+03</rscale>
<asrwt>0</asrwt>
<pdfrwt beam="1">  1        2 0.33126182E+00 0.91570883E+03</pdfrwt>
<pdfrwt beam="2">  1       -2 0.14675686E+00 0.91570883E+03</pdfrwt>
<totfact> 0.17634459E+00</totfact>
</mgrwt>
</event>
<event>
 4    1  0.3565372E-007  0.1030457E+04  0.7818608E-02  0.9342753E-01
         -2   -1    0    0    0  501 -0.00000000000E+00  0.00000000000E+00  0.16989998180E+04  0.16989998180E+04  0.25500000000E-02 0.  1.
          2   -1    0    0  501    0  0.00000000000E+00 -0.00000000000E+00 -0.75092802590E+03  0.75092802590E+03  0.25500000000E-02 0. -1.
    8880023    1    1    2    0    0 -0.38961831859E+03  0.69009303066E+03  0.12211949729E+04  0.15978605050E+04  0.65864270000E+03 0.  0.
    8880022    1    1    2    0    0  0.38961831859E+03 -0.69009303066E+03 -0.27312318083E+03  0.85206733893E+03  0.15294330000E+03 0. -1.
<mgrwt>
<rscale>  0 0.96940478E+03</rscale>
<asrwt>0</asrwt>
<pdfrwt beam="1">  1        2 0.11552739E+00 0.10304567E+04</pdfrwt>
<pdfrwt beam="2">  1       -2 0.26138459E+00 0.10304567E+04</pdfrwt>
<totfact> 0.20397324E+00</totfact>
</mgrwt>
</event>
<event>
 4    1  0.4627266E-007  0.7668260E+03  0.7818608E-02  0.9787746E-01
          2   -1    0    0  501    0  0.00000000000E+00  0.00000000000E+00  0.26053134202E+04  0.26053134202E+04  0.25500000000E-02 0. -1.
         -2   -1    0    0    0  501 -0.00000000000E+00 -0.00000000000E+00 -0.75157524299E+03  0.75157524300E+03  0.25500000000E-02 0.  1.
    8880023    1    1    2    0    0 -0.34493040931E+02 -0.39118034400E+03  0.24834638719E+04  0.25991565634E+04  0.65864270000E+03 0.  0.
    8880022    1    1    2    0    0  0.34493040931E+02  0.39118034400E+03 -0.62972569476E+03  0.75773209980E+03  0.15294330000E+03 0.  1.
<mgrwt>
<rscale>  0 0.66024335E+03</rscale>
<asrwt>0</asrwt>
<pdfrwt beam="1">  1        2 0.40081744E+00 0.76682595E+03</pdfrwt>
<pdfrwt beam="2">  1       -2 0.11562696E+00 0.76682595E+03</pdfrwt>
<totfact> 0.18470385E+00</totfact>
</mgrwt>
</event>
<event>
 4    1  0.3565372E-007  0.6882856E+03  0.7818608E-02  0.1004978E+00
         -2   -1    0    0    0  501 -0.00000000000E+00  0.00000000000E+00  0.94869461634E+03  0.94869461634E+03  0.25500000000E-02 0.  1.
          2   -1    0    0  501    0  0.00000000000E+00 -0.00000000000E+00 -0.38807693117E+03  0.38807693118E+03  0.25500000000E-02 0. -1.
    8880023    1    1    2    0    0  0.28757943410E+02 -0.19773666683E+03 -0.36034583995E+02  0.68922819605E+03  0.65864270000E+03 0. -1.
    8880022    1    1    2    0    0 -0.28757943410E+02  0.19773666683E+03  0.59665226917E+03  0.64754335147E+03  0.15294330000E+03 0.  0.
<mgrwt>
<rscale>  0 0.53520208E+03</rscale>
<asrwt>0</asrwt>
<pdfrwt beam="1">  1        2 0.59704144E-01 0.68828556E+03</pdfrwt>
<pdfrwt beam="2">  1       -2 0.14595302E+00 0.68828556E+03</pdfrwt>
<totfact> 0.26963845E+01</totfact>
</mgrwt>
</event>
<event>
 4    1  0.3565372E-007  0.7025554E+03  0.7818608E-02  0.9986761E-01
          2   -1    0    0  501    0  0.00000000000E+00  0.00000000000E+00  0.19208930807E+04  0.19208930807E+04  0.25500000000E-02 0. -1.
         -2   -1    0    0    0  501 -0.00000000000E+00 -0.00000000000E+00 -0.33485302528E+03  0.33485302529E+03  0.25500000000E-02 0.  1.
    8880023    1    1    2    0    0 -0.12610411992E+03  0.20945568314E+03  0.17763435810E+04  0.19102305244E+04  0.65864270000E+03 0. -1.
    8880022    1    1    2    0    0  0.12610411992E+03 -0.20945568314E+03 -0.19030352560E+03  0.34551558160E+03  0.15294330000E+03 0.  0.
<mgrwt>
<rscale>  0 0.56234573E+03</rscale>
<asrwt>0</asrwt>
<pdfrwt beam="1">  1        2 0.29552202E+00 0.70255543E+03</pdfrwt>
<pdfrwt beam="2">  1       -2 0.51515849E-01 0.70255543E+03</pdfrwt>
<totfact> 0.27315323E+01</totfact>
</mgrwt>
</event>
<event>
 4    1  0.3565372E-007  0.6709329E+03  0.7818608E-02  0.1015003E+00
          2   -1    0    0  501    0  0.00000000000E+00  0.00000000000E+00  0.26097593191E+04  0.26097593191E+04  0.25500000000E-02 0. -1.
         -2   -1    0    0    0  501 -0.00000000000E+00 -0.00000000000E+00 -0.73352749021E+02  0.73352749066E+02  0.25500000000E-02 0.  1.
    8880023    1    1    2    0    0  0.10717348016E+03  0.69675041564E+02  0.20661175621E+04  0.21723242744E+04  0.65864270000E+03 0. -1.
    8880022    1    1    2    0    0 -0.10717348016E+03 -0.69675041564E+02  0.47028900796E+03  0.51078779380E+03  0.15294330000E+03 0.  1.
<mgrwt>
<rscale>  0 0.49533891E+03</rscale>
<asrwt>0</asrwt>
<pdfrwt beam="1">  1        2 0.40150142E+00 0.67093291E+03</pdfrwt>
<pdfrwt beam="2">  1       -2 0.11285039E-01 0.67093291E+03</pdfrwt>
<totfact> 0.17770879E+02</totfact>
</mgrwt>
</event>
<event>
 4    1  0.3565372E-007  0.8620725E+03  0.7818608E-02  0.9589887E-01
          2   -1    0    0  501    0  0.00000000000E+00  0.00000000000E+00  0.37753201295E+03  0.37753201296E+03  0.25500000000E-02 0. -1.
         -2   -1    0    0    0  501 -0.00000000000E+00 -0.00000000000E+00 -0.16699119119E+04  0.16699119119E+04  0.25500000000E-02 0.  1.
    8880023    1    1    2    0    0  0.26743033094E+03  0.48768829408E+03 -0.11773852831E+04  0.14592481506E+04  0.65864270000E+03 0.  1.
    8880022    1    1    2    0    0 -0.26743033094E+03 -0.48768829408E+03 -0.11499461586E+03  0.58819577419E+03  0.15294330000E+03 0.  0.
<mgrwt>
<rscale>  0 0.77969132E+03</rscale>
<asrwt>0</asrwt>
<pdfrwt beam="1">  1        2 0.58081849E-01 0.86207254E+03</pdfrwt>
<pdfrwt beam="2">  1       -2 0.25690952E+00 0.86207254E+03</pdfrwt>
<totfact> 0.50272924E+00</totfact>
</mgrwt>
</event>
<event>
 4    1  0.3565372E-007  0.1256674E+04  0.7818608E-02  0.9103907E-01
          2   -1    0    0  501    0  0.00000000000E+00  0.00000000000E+00  0.12554949025E+04  0.12554949025E+04  0.25500000000E-02 0. -1.
         -2   -1    0    0    0  501 -0.00000000000E+00 -0.00000000000E+00 -0.25963291940E+04  0.25963291940E+04  0.25500000000E-02 0.  1.
    8880023    1    1    2    0    0  0.55732907693E+03 -0.91367640688E+03 -0.21575807814E+04  0.24968751092E+04  0.65864270000E+03 0.  0.
    8880022    1    1    2    0    0 -0.55732907693E+03  0.91367640688E+03  0.81674648982E+03  0.13549489873E+04  0.15294330000E+03 0.  0.
<mgrwt>
<rscale>  0 0.12102780E+04</rscale>
<asrwt>0</asrwt>
<pdfrwt beam="1">  1        2 0.19315306E+00 0.12566744E+04</pdfrwt>
<pdfrwt beam="2">  1       -2 0.39943526E+00 0.12566744E+04</pdfrwt>
<totfact> 0.12824531E-01</totfact>
</mgrwt>
</event>
<event>
 4    1  0.3565372E-007  0.1257030E+04  0.7818608E-02  0.9103585E-01
         -2   -1    0    0    0  501 -0.00000000000E+00  0.00000000000E+00  0.71474204510E+03  0.71474204510E+03  0.25500000000E-02 0.  1.
          2   -1    0    0  501    0  0.00000000000E+00 -0.00000000000E+00 -0.20353034394E+04  0.20353034394E+04  0.25500000000E-02 0. -1.
    8880023    1    1    2    0    0 -0.37259684249E+02 -0.10700119473E+04 -0.37051237739E+03  0.13104974169E+04  0.65864270000E+03 0.  0.
    8880022    1    1    2    0    0  0.37259684249E+02  0.10700119473E+04 -0.95004901690E+03  0.14395480676E+04  0.15294330000E+03 0.  0.
<mgrwt>
<rscale>  0 0.12106504E+04</rscale>
<asrwt>0</asrwt>
<pdfrwt beam="1">  1        2 0.31312360E+00 0.12570299E+04</pdfrwt>
<pdfrwt beam="2">  1       -2 0.10996032E+00 0.12570299E+04</pdfrwt>
<totfact> 0.40821592E+00</totfact>
</mgrwt>
</event>
<event>
 4    1  0.3565372E-007  0.1220377E+04  0.7818608E-02  0.9137564E-01
         -2   -1    0    0    0  501 -0.00000000000E+00  0.00000000000E+00  0.70813953457E+03  0.70813953458E+03  0.25500000000E-02 0.  1.
          2   -1    0    0  501    0  0.00000000000E+00 -0.00000000000E+00 -0.25552406828E+04  0.25552406828E+04  0.25500000000E-02 0. -1.
    8880023    1    1    2    0    0 -0.86423285293E+03  0.55552848847E+03 -0.91862054180E+02  0.12238297140E+04  0.65864270000E+03 0.  1.
    8880022    1    1    2    0    0  0.86423285293E+03 -0.55552848847E+03 -0.17552390941E+04  0.20395505034E+04  0.15294330000E+03 0.  0.
<mgrwt>
<rscale>  0 0.11721773E+04</rscale>
<asrwt>0</asrwt>
<pdfrwt beam="1">  1        2 0.39311395E+00 0.12203772E+04</pdfrwt>
<pdfrwt beam="2">  1       -2 0.10894454E+00 0.12203772E+04</pdfrwt>
<totfact> 0.21315741E+00</totfact>
</mgrwt>
</event>
<event>
 4    1  0.3565372E-007  0.9649227E+03  0.7818608E-02  0.9428961E-01
         -2   -1    0    0    0  501 -0.00000000000E+00  0.00000000000E+00  0.87741975018E+03  0.87741975018E+03  0.25500000000E-02 0.  1.
          2   -1    0    0  501    0  0.00000000000E+00 -0.00000000000E+00 -0.15357091407E+04  0.15357091407E+04  0.25500000000E-02 0. -1.
    8880023    1    1    2    0    0  0.58085013673E+03  0.39984845853E+03 -0.11788366394E+04  0.15233947945E+04  0.65864270000E+03 0.  0.
    8880022    1    1    2    0    0 -0.58085013673E+03 -0.39984845853E+03  0.52054724884E+03  0.88973409647E+03  0.15294330000E+03 0.  0.
<mgrwt>
<rscale>  0 0.89730151E+03</rscale>
<asrwt>0</asrwt>
<pdfrwt beam="1">  1        2 0.23626294E+00 0.96492273E+03</pdfrwt>
<pdfrwt beam="2">  1       -2 0.13498765E+00 0.96492273E+03</pdfrwt>
<totfact> 0.47699292E+00</totfact>
</mgrwt>
</event>
<event>
 4    1  0.3565372E-007  0.7378308E+03  0.7818608E-02  0.9866312E-01
          2   -1    0    0  501    0  0.00000000000E+00  0.00000000000E+00  0.75701730639E+03  0.75701730639E+03  0.25500000000E-02 0. -1.
         -2   -1    0    0    0  501 -0.00000000000E+00 -0.00000000000E+00 -0.74446759348E+03  0.74446759348E+03  0.25500000000E-02 0.  1.
    8880023    1    1    2    0    0 -0.33006832844E+03  0.40483600736E+02  0.50045591702E+03  0.89154380404E+03  0.65864270000E+03 0.  0.
    8880022    1    1    2    0    0  0.33006832844E+03 -0.40483600736E+02 -0.48790620412E+03  0.60994109584E+03  0.15294330000E+03 0.  0.
<mgrwt>
<rscale>  0 0.61922119E+03</rscale>
<asrwt>0</asrwt>
<pdfrwt beam="1">  1        2 0.11646420E+00 0.73783076E+03</pdfrwt>
<pdfrwt beam="2">  1       -2 0.11453348E+00 0.73783076E+03</pdfrwt>
<totfact> 0.22400539E+01</totfact>
</mgrwt>
</event>
<event>
 4    1  0.3565372E-007  0.1310481E+04  0.7818608E-02  0.9056561E-01
         -2   -1    0    0    0  501 -0.00000000000E+00  0.00000000000E+00  0.71943122137E+03  0.71943122137E+03  0.25500000000E-02 0.  1.
          2   -1    0    0  501    0  0.00000000000E+00 -0.00000000000E+00 -0.21422613170E+04  0.21422613170E+04  0.25500000000E-02 0. -1.
    8880023    1    1    2    0    0 -0.41580129305E+03  0.10538787286E+04 -0.54043371313E+03  0.14175436129E+04  0.65864270000E+03 0. -1.
    8880022    1    1    2    0    0  0.41580129305E+03 -0.10538787286E+04 -0.88239638250E+03  0.14441489254E+04  0.15294330000E+03 0.  1.
<mgrwt>
<rscale>  0 0.12665000E+04</rscale>
<asrwt>0</asrwt>
<pdfrwt beam="1">  1        2 0.32957866E+00 0.13104813E+04</pdfrwt>
<pdfrwt beam="2">  1       -2 0.11068173E+00 0.13104813E+04</pdfrwt>
<totfact> 0.34843771E+00</totfact>
</mgrwt>
</event>
<event>
 4    1  0.3565372E-007  0.1660327E+04  0.7818608E-02  0.8804007E-01
         -2   -1    0    0    0  501 -0.00000000000E+00  0.00000000000E+00  0.12520129009E+04  0.12520129009E+04  0.25500000000E-02 0.  1.
          2   -1    0    0  501    0  0.00000000000E+00 -0.00000000000E+00 -0.23967802071E+04  0.23967802071E+04  0.25500000000E-02 0. -1.
    8880023    1    1    2    0    0  0.14369853260E+04  0.50788653223E+03 -0.13006656857E+04  0.21091270680E+04  0.65864270000E+03 0.  0.
    8880022    1    1    2    0    0 -0.14369853260E+04 -0.50788653223E+03  0.15589837958E+03  0.15396660400E+04  0.15294330000E+03 0.  0.
<mgrwt>
<rscale>  0 0.16272055E+04</rscale>
<asrwt>0</asrwt>
<pdfrwt beam="1">  1        2 0.36873541E+00 0.16603270E+04</pdfrwt>
<pdfrwt beam="2">  1       -2 0.19261737E+00 0.16603270E+04</pdfrwt>
<totfact> 0.54961754E-01</totfact>
</mgrwt>
</event>
<event>
 4    1  0.3565372E-007  0.8760171E+03  0.7818608E-02  0.9565684E-01
          2   -1    0    0  501    0  0.00000000000E+00  0.00000000000E+00  0.32734282336E+04  0.32734282336E+04  0.25500000000E-02 0. -1.
         -2   -1    0    0    0  501 -0.00000000000E+00 -0.00000000000E+00 -0.30979264836E+03  0.30979264837E+03  0.25500000000E-02 0.  1.
    8880023    1    1    2    0    0  0.57755347438E+03  0.52687618277E+01  0.28413813450E+04  0.29733573498E+04  0.65864270000E+03 0.  0.
    8880022    1    1    2    0    0 -0.57755347438E+03 -0.52687618277E+01  0.12225424025E+03  0.60986353219E+03  0.15294330000E+03 0.  0.
<mgrwt>
<rscale>  0 0.79609713E+03</rscale>
<asrwt>0</asrwt>
<pdfrwt beam="1">  1        2 0.50360435E+00 0.87601711E+03</pdfrwt>
<pdfrwt beam="2">  1       -2 0.47660407E-01 0.87601711E+03</pdfrwt>
<totfact> 0.50852077E+00</totfact>
</mgrwt>
</event>
<event>
 4    1  0.3565372E-007  0.9952781E+03  0.7818608E-02  0.9387762E-01
         -2   -1    0    0    0  501 -0.00000000000E+00  0.00000000000E+00  0.67832681281E+03  0.67832681282E+03  0.25500000000E-02 0.  1.
          2   -1    0    0  501    0  0.00000000000E+00 -0.00000000000E+00 -0.20971951257E+04  0.20971951257E+04  0.25500000000E-02 0. -1.
    8880023    1    1    2    0    0  0.92490234534E+02 -0.74041470179E+03 -0.16947724381E+04  0.19654089135E+04  0.65864270000E+03 0.  0.
    8880022    1    1    2    0    0 -0.92490234534E+02  0.74041470179E+03  0.27590412514E+03  0.81011302507E+03  0.15294330000E+03 0.  0.
<mgrwt>
<rscale>  0 0.93089742E+03</rscale>
<asrwt>0</asrwt>
<pdfrwt beam="1">  1        2 0.32264540E+00 0.99527814E+03</pdfrwt>
<pdfrwt beam="2">  1       -2 0.10435797E+00 0.99527814E+03</pdfrwt>
<totfact> 0.44084907E+00</totfact>
</mgrwt>
</event>
<event>
 4    1  0.3565372E-007  0.8088755E+03  0.7818608E-02  0.9691924E-01
         -2   -1    0    0    0  501 -0.00000000000E+00  0.00000000000E+00  0.70139300086E+03  0.70139300086E+03  0.25500000000E-02 0.  1.
          2   -1    0    0  501    0  0.00000000000E+00 -0.00000000000E+00 -0.75889666142E+03  0.75889666143E+03  0.25500000000E-02 0. -1.
    8880023    1    1    2    0    0  0.26466942892E+03  0.38783937610E+03 -0.35546833992E+03  0.88353677637E+03  0.65864270000E+03 0.  0.
    8880022    1    1    2    0    0 -0.26466942892E+03 -0.38783937610E+03  0.29796467935E+03  0.57675288592E+03  0.15294330000E+03 0.  0.
<mgrwt>
<rscale>  0 0.71499667E+03</rscale>
<asrwt>0</asrwt>
<pdfrwt beam="1">  1        2 0.11675333E+00 0.80887545E+03</pdfrwt>
<pdfrwt beam="2">  1       -2 0.10790662E+00 0.80887545E+03</pdfrwt>
<totfact> 0.25641061E+01</totfact>
</mgrwt>
</event>
<event>
 4    1  0.3565372E-007  0.1061567E+04  0.7818608E-02  0.9305104E-01
         -2   -1    0    0    0  501 -0.00000000000E+00  0.00000000000E+00  0.80710078642E+03  0.80710078642E+03  0.25500000000E-02 0.  1.
          2   -1    0    0  501    0  0.00000000000E+00 -0.00000000000E+00 -0.31017904809E+04  0.31017904809E+04  0.25500000000E-02 0. -1.
    8880023    1    1    2    0    0 -0.79734836207E+03 -0.23947872512E+03 -0.27499687425E+04  0.29477538501E+04  0.65864270000E+03 0.  0.
    8880022    1    1    2    0    0  0.79734836207E+03  0.23947872512E+03  0.45527904793E+03  0.96113741722E+03  0.15294330000E+03 0.  0.
<mgrwt>
<rscale>  0 0.10031435E+04</rscale>
<asrwt>0</asrwt>
<pdfrwt beam="1">  1        2 0.47719853E+00 0.10615671E+04</pdfrwt>
<pdfrwt beam="2">  1       -2 0.12416935E+00 0.10615671E+04</pdfrwt>
<totfact> 0.73907436E-01</totfact>
</mgrwt>
</event>
<event>
 4    1  0.3565372E-007  0.7067811E+03  0.7818608E-02  0.9970154E-01
          2   -1    0    0  501    0  0.00000000000E+00  0.00000000000E+00  0.12982680893E+04  0.12982680893E+04  0.25500000000E-02 0. -1.
         -2   -1    0    0    0  501 -0.00000000000E+00 -0.00000000000E+00 -0.54336353685E+03  0.54336353686E+03  0.25500000000E-02 0.  1.
    8880023    1    1    2    0    0  0.25266985589E+03  0.43443309777E+02  0.11479402388E+04  0.13480750630E+04  0.65864270000E+03 0. -1.
    8880022    1    1    2    0    0 -0.25266985589E+03 -0.43443309777E+02 -0.39303568640E+03  0.49355656316E+03  0.15294330000E+03 0.  0.
<mgrwt>
<rscale>  0 0.56978530E+03</rscale>
<asrwt>0</asrwt>
<pdfrwt beam="1">  1        2 0.19973355E+00 0.70678114E+03</pdfrwt>
<pdfrwt beam="2">  1       -2 0.83594390E-01 0.70678114E+03</pdfrwt>
<totfact> 0.21270631E+01</totfact>
</mgrwt>
</event>
<event>
 4    1  0.3565372E-007  0.6593680E+03  0.7818608E-02  0.1024813E+00
         -2   -1    0    0    0  501 -0.00000000000E+00  0.00000000000E+00  0.13483477757E+04  0.13483477757E+04  0.25500000000E-02 0.  1.
          2   -1    0    0  501    0  0.00000000000E+00 -0.00000000000E+00 -0.81594166977E+03  0.81594166978E+03  0.25500000000E-02 0. -1.
    8880023    1    1    2    0    0 -0.12125915536E+02 -0.28442559912E+02 -0.67689565672E+03  0.94496240846E+03  0.65864270000E+03 0.  0.
    8880022    1    1    2    0    0  0.12125915536E+02  0.28442559912E+02  0.12093017627E+04  0.12193270371E+04  0.15294330000E+03 0.  1.
<mgrwt>
<rscale>  0 0.45988908E+03</rscale>
<asrwt>0</asrwt>
<pdfrwt beam="1">  1        2 0.12552949E+00 0.65936805E+03</pdfrwt>
<pdfrwt beam="2">  1       -2 0.20743812E+00 0.65936805E+03</pdfrwt>
<totfact> 0.41388093E+00</totfact>
</mgrwt>
</event>
<event>
 4    1  0.3565372E-007  0.7847466E+03  0.7818608E-02  0.9744803E-01
          2   -1    0    0  501    0  0.00000000000E+00  0.00000000000E+00  0.25845175201E+04  0.25845175201E+04  0.25500000000E-02 0. -1.
         -2   -1    0    0    0  501 -0.00000000000E+00 -0.00000000000E+00 -0.17362191954E+03  0.17362191956E+03  0.25500000000E-02 0.  1.
    8880023    1    1    2    0    0  0.27707856398E+03 -0.32441406321E+03  0.19919225603E+04  0.21409303369E+04  0.65864270000E+03 0. -1.
    8880022    1    1    2    0    0 -0.27707856398E+03  0.32441406321E+03  0.41897304025E+03  0.61720910273E+03  0.15294330000E+03 0.  0.
<mgrwt>
<rscale>  0 0.68410762E+03</rscale>
<asrwt>0</asrwt>
<pdfrwt beam="1">  1        2 0.39761807E+00 0.78474660E+03</pdfrwt>
<pdfrwt beam="2">  1       -2 0.26711066E-01 0.78474660E+03</pdfrwt>
<totfact> 0.41023012E+01</totfact>
</mgrwt>
</event>
<event>
 4    1  0.3565372E-007  0.7230544E+03  0.7818608E-02  0.9912383E-01
          2   -1    0    0  501    0  0.00000000000E+00  0.00000000000E+00  0.96680213302E+03  0.96680213302E+03  0.25500000000E-02 0. -1.
         -2   -1    0    0    0  501 -0.00000000000E+00 -0.00000000000E+00 -0.78824815134E+03  0.78824815135E+03  0.25500000000E-02 0.  1.
    8880023    1    1    2    0    0 -0.26281170559E+03 -0.14116483447E+03  0.78180360521E+03  0.10649059050E+04  0.65864270000E+03 0. -1.
    8880022    1    1    2    0    0  0.26281170559E+03  0.14116483447E+03 -0.60324962354E+03  0.69014437939E+03  0.15294330000E+03 0.  0.
<mgrwt>
<rscale>  0 0.59664883E+03</rscale>
<asrwt>0</asrwt>
<pdfrwt beam="1">  1        2 0.14873879E+00 0.72305443E+03</pdfrwt>
<pdfrwt beam="2">  1       -2 0.12126895E+00 0.72305443E+03</pdfrwt>
<totfact> 0.13960610E+01</totfact>
</mgrwt>
</event>
<event>
 4    1  0.3565372E-007  0.8574821E+03  0.7818608E-02  0.9598058E-01
          2   -1    0    0  501    0  0.00000000000E+00  0.00000000000E+00  0.18368236306E+04  0.18368236307E+04  0.25500000000E-02 0. -1.
         -2   -1    0    0    0  501 -0.00000000000E+00 -0.00000000000E+00 -0.46733580533E+03  0.46733580533E+03  0.25500000000E-02 0.  1.
    8880023    1    1    2    0    0 -0.35815196101E+03  0.41616395491E+03  0.14923014100E+04  0.17211156176E+04  0.65864270000E+03 0.  0.
    8880022    1    1    2    0    0  0.35815196101E+03 -0.41616395491E+03 -0.12281358470E+03  0.58304381838E+03  0.15294330000E+03 0.  0.
<mgrwt>
<rscale>  0 0.77424836E+03</rscale>
<asrwt>0</asrwt>
<pdfrwt beam="1">  1        2 0.28258825E+00 0.85748205E+03</pdfrwt>
<pdfrwt beam="2">  1       -2 0.71897816E-01 0.85748205E+03</pdfrwt>
<totfact> 0.14673534E+01</totfact>
</mgrwt>
</event>
<event>
 4    1  0.3565372E-007  0.7314395E+03  0.7818608E-02  0.9885624E-01
         -2   -1    0    0    0  501 -0.00000000000E+00  0.00000000000E+00  0.74081031812E+03  0.74081031812E+03  0.25500000000E-02 0.  1.
          2   -1    0    0  501    0  0.00000000000E+00 -0.00000000000E+00 -0.47583825014E+03  0.47583825014E+03  0.25500000000E-02 0. -1.
    8880023    1    1    2    0    0  0.14219598074E+03  0.28455897029E+03 -0.63886692584E+02  0.73422423023E+03  0.65864270000E+03 0. -1.
    8880022    1    1    2    0    0 -0.14219598074E+03 -0.28455897029E+03  0.32885876057E+03  0.48242433803E+03  0.15294330000E+03 0.  0.
<mgrwt>
<rscale>  0 0.60963106E+03</rscale>
<asrwt>0</asrwt>
<pdfrwt beam="1">  1        2 0.73205885E-01 0.73143948E+03</pdfrwt>
<pdfrwt beam="2">  1       -2 0.11397082E+00 0.73143948E+03</pdfrwt>
<totfact> 0.39829473E+01</totfact>
</mgrwt>
</event>
<event>
 4    1  0.5347913E-007  0.6804950E+03  0.7818608E-02  0.1009045E+00
          2   -1    0    0  501    0  0.00000000000E+00  0.00000000000E+00  0.25657716590E+04  0.25657716590E+04  0.25500000000E-02 0. -1.
         -2   -1    0    0    0  501 -0.00000000000E+00 -0.00000000000E+00 -0.10199166698E+04  0.10199166698E+04  0.25500000000E-02 0.  1.
    8880023    1    1    2    0    0  0.14240285590E+03 -0.94787497599E+02  0.25069051934E+04  0.25976233557E+04  0.65864270000E+03 0. -1.
    8880022    1    1    2    0    0 -0.14240285590E+03  0.94787497599E+02 -0.96105020422E+03  0.98806497313E+03  0.15294330000E+03 0.  0.
<mgrwt>
<rscale>  0 0.51855945E+03</rscale>
<asrwt>0</asrwt>
<pdfrwt beam="1">  1        2 0.39473410E+00 0.68049500E+03</pdfrwt>
<pdfrwt beam="2">  1       -2 0.15691026E+00 0.68049500E+03</pdfrwt>
<totfact> 0.90750429E-01</totfact>
</mgrwt>
</event>
<event>
 4    1  0.3565372E-007  0.1141504E+04  0.7818608E-02  0.9216195E-01
          2   -1    0    0  501    0  0.00000000000E+00  0.00000000000E+00  0.19865514574E+04  0.19865514574E+04  0.25500000000E-02 0. -1.
         -2   -1    0    0    0  501 -0.00000000000E+00 -0.00000000000E+00 -0.54775677260E+03  0.54775677260E+03  0.25500000000E-02 0.  1.
    8880023    1    1    2    0    0 -0.92989770143E+03  0.67164329408E+02  0.78668636496E+03  0.13863283974E+04  0.65864270000E+03 0. -1.
    8880022    1    1    2    0    0  0.92989770143E+03 -0.67164329408E+02  0.65210831981E+03  0.11479798326E+04  0.15294330000E+03 0.  1.
<mgrwt>
<rscale>  0 0.10887819E+04</rscale>
<asrwt>0</asrwt>
<pdfrwt beam="1">  1        2 0.30562329E+00 0.11415038E+04</pdfrwt>
<pdfrwt beam="2">  1       -2 0.84270275E-01 0.11415038E+04</pdfrwt>
<totfact> 0.82414454E+00</totfact>
</mgrwt>
</event>
<event>
 4    1  0.3565372E-007  0.7148285E+03  0.7818608E-02  0.9940490E-01
          2   -1    0    0  501    0  0.00000000000E+00  0.00000000000E+00  0.14447415458E+04  0.14447415458E+04  0.25500000000E-02 0. -1.
         -2   -1    0    0    0  501 -0.00000000000E+00 -0.00000000000E+00 -0.59127585233E+03  0.59127585233E+03  0.25500000000E-02 0.  1.
    8880023    1    1    2    0    0  0.11647619226E+03  0.25219601814E+03  0.13028161766E+04  0.14860382671E+04  0.65864270000E+03 0. -1.
    8880022    1    1    2    0    0 -0.11647619226E+03 -0.25219601814E+03 -0.44935048312E+03  0.54997913108E+03  0.15294330000E+03 0.  0.
<mgrwt>
<rscale>  0 0.58338489E+03</rscale>
<asrwt>0</asrwt>
<pdfrwt beam="1">  1        2 0.22226793E+00 0.71482847E+03</pdfrwt>
<pdfrwt beam="2">  1       -2 0.90965516E-01 0.71482847E+03</pdfrwt>
<totfact> 0.14461414E+01</totfact>
</mgrwt>
</event>
<event>
 4    1  0.3565372E-007  0.7280338E+03  0.7818608E-02  0.9896284E-01
         -2   -1    0    0    0  501 -0.00000000000E+00  0.00000000000E+00  0.92236739071E+03  0.92236739072E+03  0.25500000000E-02 0.  1.
          2   -1    0    0  501    0  0.00000000000E+00 -0.00000000000E+00 -0.52360632053E+03  0.52360632053E+03  0.25500000000E-02 0. -1.
    8880023    1    1    2    0    0  0.30139804634E+03 -0.73364143180E+02 -0.19955690875E+03  0.75488823407E+03  0.65864270000E+03 0. -1.
    8880022    1    1    2    0    0 -0.30139804634E+03  0.73364143180E+02  0.59831797893E+03  0.69108547718E+03  0.15294330000E+03 0.  0.
<mgrwt>
<rscale>  0 0.60441713E+03</rscale>
<asrwt>0</asrwt>
<pdfrwt beam="1">  1        2 0.80554820E-01 0.72803385E+03</pdfrwt>
<pdfrwt beam="2">  1       -2 0.14190267E+00 0.72803385E+03</pdfrwt>
<totfact> 0.20539467E+01</totfact>
</mgrwt>
</event>
<event>
 4    1  0.3565372E-007  0.7408373E+03  0.7818608E-02  0.9857515E-01
          2   -1    0    0  501    0  0.00000000000E+00  0.00000000000E+00  0.52704887503E+03  0.52704887503E+03  0.25500000000E-02 0. -1.
         -2   -1    0    0    0  501 -0.00000000000E+00 -0.00000000000E+00 -0.92136035856E+03  0.92136035856E+03  0.25500000000E-02 0.  1.
    8880023    1    1    2    0    0  0.32485008761E+03 -0.97478970532E+02  0.18160362571E+03  0.76277114015E+03  0.65864270000E+03 0.  0.
    8880022    1    1    2    0    0 -0.32485008761E+03  0.97478970532E+02 -0.57591510923E+03  0.68563809344E+03  0.15294330000E+03 0.  0.
<mgrwt>
<rscale>  0 0.62365231E+03</rscale>
<asrwt>0</asrwt>
<pdfrwt beam="1">  1        2 0.81084442E-01 0.74083732E+03</pdfrwt>
<pdfrwt beam="2">  1       -2 0.14174775E+00 0.74083732E+03</pdfrwt>
<totfact> 0.20417186E+01</totfact>
</mgrwt>
</event>
<event>
 4    1  0.3565372E-007  0.1047689E+04  0.7818608E-02  0.9321665E-01
          2   -1    0    0  501    0  0.00000000000E+00  0.00000000000E+00  0.20500073326E+04  0.20500073326E+04  0.25500000000E-02 0. -1.
         -2   -1    0    0    0  501 -0.00000000000E+00 -0.00000000000E+00 -0.59363462898E+03  0.59363462898E+03  0.25500000000E-02 0.  1.
    8880023    1    1    2    0    0  0.76964079271E+03 -0.26738581531E+03  0.14811956564E+04  0.18142747594E+04  0.65864270000E+03 0.  0.
    8880022    1    1    2    0    0 -0.76964079271E+03  0.26738581531E+03 -0.24822952729E+02  0.82936720216E+03  0.15294330000E+03 0.  0.
<mgrwt>
<rscale>  0 0.98812608E+03</rscale>
<asrwt>0</asrwt>
<pdfrwt beam="1">  1        2 0.31538574E+00 0.10476890E+04</pdfrwt>
<pdfrwt beam="2">  1       -2 0.91328407E-01 0.10476890E+04</pdfrwt>
<totfact> 0.63776315E+00</totfact>
</mgrwt>
</event>
<event>
 4    1  0.3565372E-007  0.6651994E+03  0.7818608E-02  0.1019367E+00
         -2   -1    0    0    0  501 -0.00000000000E+00  0.00000000000E+00  0.37480602680E+03  0.37480602681E+03  0.25500000000E-02 0.  1.
          2   -1    0    0  501    0  0.00000000000E+00 -0.00000000000E+00 -0.27440684573E+04  0.27440684573E+04  0.25500000000E-02 0. -1.
    8880023    1    1    2    0    0  0.25475718130E+02  0.89615793268E+02 -0.26794036028E+04  0.27607415445E+04  0.65864270000E+03 0. -1.
    8880022    1    1    2    0    0 -0.25475718130E+02 -0.89615793268E+02  0.31014117233E+03  0.35813293957E+03  0.15294330000E+03 0.  0.
<mgrwt>
<rscale>  0 0.47915833E+03</rscale>
<asrwt>0</asrwt>
<pdfrwt beam="1">  1        2 0.42216437E+00 0.66519938E+03</pdfrwt>
<pdfrwt beam="2">  1       -2 0.57662467E-01 0.66519938E+03</pdfrwt>
<totfact> 0.75577992E+00</totfact>
</mgrwt>
</event>
<event>
 4    1  0.3565372E-007  0.6728801E+03  0.7818608E-02  0.1013677E+00
          2   -1    0    0  501    0  0.00000000000E+00  0.00000000000E+00  0.21291055090E+04  0.21291055090E+04  0.25500000000E-02 0. -1.
         -2   -1    0    0    0  501 -0.00000000000E+00 -0.00000000000E+00 -0.18631475716E+03  0.18631475718E+03  0.25500000000E-02 0.  1.
    8880023    1    1    2    0    0 -0.12035195084E+03 -0.66879707953E+02  0.19930589075E+04  0.21035806384E+04  0.65864270000E+03 0. -1.
    8880022    1    1    2    0    0  0.12035195084E+03  0.66879707953E+02 -0.50268155625E+02  0.21183962777E+03  0.15294330000E+03 0.  0.
<mgrwt>
<rscale>  0 0.50039028E+03</rscale>
<asrwt>0</asrwt>
<pdfrwt beam="1">  1        2 0.32755470E+00 0.67288015E+03</pdfrwt>
<pdfrwt beam="2">  1       -2 0.28663808E-01 0.67288015E+03</pdfrwt>
<totfact> 0.65729588E+01</totfact>
</mgrwt>
</event>
<event>
 4    1  0.3565372E-007  0.7579932E+03  0.7818608E-02  0.9810331E-01
          2   -1    0    0  501    0  0.00000000000E+00  0.00000000000E+00  0.12868636096E+04  0.12868636096E+04  0.25500000000E-02 0. -1.
         -2   -1    0    0    0  501 -0.00000000000E+00 -0.00000000000E+00 -0.48265723711E+03  0.48265723712E+03  0.25500000000E-02 0.  1.
    8880023    1    1    2    0    0 -0.22542321201E+03 -0.29987985158E+03  0.10504834658E+04  0.12954031296E+04  0.65864270000E+03 0. -1.
    8880022    1    1    2    0    0  0.22542321201E+03  0.29987985158E+03 -0.24627709340E+03  0.47411771708E+03  0.15294330000E+03 0.  0.
<mgrwt>
<rscale>  0 0.64811074E+03</rscale>
<asrwt>0</asrwt>
<pdfrwt beam="1">  1        2 0.19797902E+00 0.75799324E+03</pdfrwt>
<pdfrwt beam="2">  1       -2 0.74254960E-01 0.75799324E+03</pdfrwt>
<totfact> 0.27995604E+01</totfact>
</mgrwt>
</event>
<event>
 4    1  0.3565372E-007  0.1068326E+04  0.7818608E-02  0.9297168E-01
         -2   -1    0    0    0  501 -0.00000000000E+00  0.00000000000E+00  0.10880043819E+04  0.10880043819E+04  0.25500000000E-02 0.  1.
          2   -1    0    0  501    0  0.00000000000E+00 -0.00000000000E+00 -0.14450020625E+04  0.14450020625E+04  0.25500000000E-02 0. -1.
    8880023    1    1    2    0    0  0.80877297062E+03  0.23107852678E+03 -0.99995011169E+03  0.14632913024E+04  0.65864270000E+03 0.  0.
    8880022    1    1    2    0    0 -0.80877297062E+03 -0.23107852678E+03  0.64295243108E+03  0.10697151421E+04  0.15294330000E+03 0.  0.
<mgrwt>
<rscale>  0 0.10104397E+04</rscale>
<asrwt>0</asrwt>
<pdfrwt beam="1">  1        2 0.22230801E+00 0.10683264E+04</pdfrwt>
<pdfrwt beam="2">  1       -2 0.16738529E+00 0.10683264E+04</pdfrwt>
<totfact> 0.29876754E+00</totfact>
</mgrwt>
</event>
<event>
 4    1  0.3565372E-007  0.8969503E+03  0.7818608E-02  0.9530945E-01
         -2   -1    0    0    0  501 -0.00000000000E+00  0.00000000000E+00  0.14637408177E+04  0.14637408177E+04  0.25500000000E-02 0.  1.
          2   -1    0    0  501    0  0.00000000000E+00 -0.00000000000E+00 -0.10503132314E+04  0.10503132314E+04  0.25500000000E-02 0. -1.
    8880023    1    1    2    0    0  0.45115603302E+03  0.40886177405E+03  0.12059980032E+04  0.15029807405E+04  0.65864270000E+03 0.  1.
    8880022    1    1    2    0    0 -0.45115603302E+03 -0.40886177405E+03 -0.79257041698E+03  0.10110733086E+04  0.15294330000E+03 0.  0.
<mgrwt>
<rscale>  0 0.82040310E+03</rscale>
<asrwt>0</asrwt>
<pdfrwt beam="1">  1        2 0.16158665E+00 0.89695035E+03</pdfrwt>
<pdfrwt beam="2">  1       -2 0.22519089E+00 0.89695035E+03</pdfrwt>
<totfact> 0.21598636E+00</totfact>
</mgrwt>
</event>
<event>
 4    1  0.3565372E-007  0.1272433E+04  0.7818608E-02  0.9089739E-01
         -2   -1    0    0    0  501 -0.00000000000E+00  0.00000000000E+00  0.10933744750E+04  0.10933744750E+04  0.25500000000E-02 0.  1.
          2   -1    0    0  501    0  0.00000000000E+00 -0.00000000000E+00 -0.18293126854E+04  0.18293126854E+04  0.25500000000E-02 0. -1.
    8880023    1    1    2    0    0 -0.10192829873E+04 -0.38254045172E+03 -0.11815497062E+04  0.17364172655E+04  0.65864270000E+03 0.  0.
    8880022    1    1    2    0    0  0.10192829873E+04  0.38254045172E+03  0.44561149580E+03  0.11862698949E+04  0.15294330000E+03 0.  0.
<mgrwt>
<rscale>  0 0.12267737E+04</rscale>
<asrwt>0</asrwt>
<pdfrwt beam="1">  1        2 0.28143272E+00 0.12724328E+04</pdfrwt>
<pdfrwt beam="2">  1       -2 0.16821146E+00 0.12724328E+04</pdfrwt>
<totfact> 0.17581820E+00</totfact>
</mgrwt>
</event>
<event>
 4    1  0.3565372E-007  0.6603025E+03  0.7818608E-02  0.1023849E+00
          2   -1    0    0  501    0  0.00000000000E+00  0.00000000000E+00  0.26300292463E+04  0.26300292463E+04  0.25500000000E-02 0. -1.
         -2   -1    0    0    0  501 -0.00000000000E+00 -0.00000000000E+00 -0.80252833519E+02  0.80252833559E+02  0.25500000000E-02 0.  1.
    8880023    1    1    2    0    0 -0.36404606728E+02  0.29391787176E+02  0.24068627270E+04  0.24957939749E+04  0.65864270000E+03 0. -1.
    8880022    1    1    2    0    0  0.36404606728E+02 -0.29391787176E+02  0.14291368577E+03  0.21448810489E+03  0.15294330000E+03 0.  0.
<mgrwt>
<rscale>  0 0.46322983E+03</rscale>
<asrwt>0</asrwt>
<pdfrwt beam="1">  1        2 0.40461980E+00 0.66030249E+03</pdfrwt>
<pdfrwt beam="2">  1       -2 0.12346592E-01 0.66030249E+03</pdfrwt>
<totfact> 0.14938274E+02</totfact>
</mgrwt>
</event>
<event>
 4    1  0.3565372E-007  0.1488314E+04  0.7818608E-02  0.8917932E-01
         -2   -1    0    0    0  501 -0.00000000000E+00  0.00000000000E+00  0.10984159965E+04  0.10984159965E+04  0.25500000000E-02 0.  1.
          2   -1    0    0  501    0  0.00000000000E+00 -0.00000000000E+00 -0.27916970381E+04  0.27916970381E+04  0.25500000000E-02 0. -1.
    8880023    1    1    2    0    0 -0.76500744926E+03 -0.10936325398E+04  0.26861778029E+03  0.15123604886E+04  0.65864270000E+03 0.  0.
    8880022    1    1    2    0    0  0.76500744926E+03  0.10936325398E+04 -0.19618988219E+04  0.23777525460E+04  0.15294330000E+03 0.  0.
<mgrwt>
<rscale>  0 0.14506758E+04</rscale>
<asrwt>0</asrwt>
<pdfrwt beam="1">  1        2 0.42949185E+00 0.14883141E+04</pdfrwt>
<pdfrwt beam="2">  1       -2 0.16898708E+00 0.14883141E+04</pdfrwt>
<totfact> 0.47912928E-01</totfact>
</mgrwt>
</event>
<event>
 4    1  0.3565372E-007  0.7773204E+03  0.7818608E-02  0.9762169E-01
          2   -1    0    0  501    0  0.00000000000E+00  0.00000000000E+00  0.55867219444E+03  0.55867219445E+03  0.25500000000E-02 0. -1.
         -2   -1    0    0    0  501 -0.00000000000E+00 -0.00000000000E+00 -0.90257875871E+03  0.90257875871E+03  0.25500000000E-02 0.  1.
    8880023    1    1    2    0    0 -0.32081097446E+03  0.25980219039E+03  0.15843476059E+03  0.79330236297E+03  0.65864270000E+03 0. -1.
    8880022    1    1    2    0    0  0.32081097446E+03 -0.25980219039E+03 -0.50234132486E+03  0.66794859019E+03  0.15294330000E+03 0.  0.
<mgrwt>
<rscale>  0 0.67432874E+03</rscale>
<asrwt>0</asrwt>
<pdfrwt beam="1">  1        2 0.85949569E-01 0.77732044E+03</pdfrwt>
<pdfrwt beam="2">  1       -2 0.13885827E+00 0.77732044E+03</pdfrwt>
<totfact> 0.20043089E+01</totfact>
</mgrwt>
</event>
<event>
 4    1  0.3565372E-007  0.7025200E+03  0.7818608E-02  0.9986904E-01
          2   -1    0    0  501    0  0.00000000000E+00  0.00000000000E+00  0.23602830046E+04  0.23602830046E+04  0.25500000000E-02 0. -1.
         -2   -1    0    0    0  501 -0.00000000000E+00 -0.00000000000E+00 -0.16024341956E+03  0.16024341958E+03  0.25500000000E-02 0.  1.
    8880023    1    1    2    0    0 -0.45914075928E+01  0.24434210419E+03  0.21015607422E+04  0.22158727184E+04  0.65864270000E+03 0.  0.
    8880022    1    1    2    0    0  0.45914075928E+01 -0.24434210419E+03  0.98478842817E+02  0.30465370571E+03  0.15294330000E+03 0.  0.
<mgrwt>
<rscale>  0 0.56228237E+03</rscale>
<asrwt>0</asrwt>
<pdfrwt beam="1">  1        2 0.36312044E+00 0.70252000E+03</pdfrwt>
<pdfrwt beam="2">  1       -2 0.24652835E-01 0.70252000E+03</pdfrwt>
<totfact> 0.64204108E+01</totfact>
</mgrwt>
</event>
<event>
 4    1  0.3565372E-007  0.7816699E+03  0.7818608E-02  0.9751929E-01
          2   -1    0    0  501    0  0.00000000000E+00  0.00000000000E+00  0.95214171163E+03  0.95214171163E+03  0.25500000000E-02 0. -1.
         -2   -1    0    0    0  501 -0.00000000000E+00 -0.00000000000E+00 -0.54945238490E+03  0.54945238491E+03  0.25500000000E-02 0.  1.
    8880023    1    1    2    0    0 -0.42244186206E+02 -0.41882339174E+03  0.62571664159E+03  0.10012637647E+04  0.65864270000E+03 0.  0.
    8880022    1    1    2    0    0  0.42244186206E+02  0.41882339174E+03 -0.22302731487E+03  0.50033033181E+03  0.15294330000E+03 0.  0.
<mgrwt>
<rscale>  0 0.68007372E+03</rscale>
<asrwt>0</asrwt>
<pdfrwt beam="1">  1        2 0.14648334E+00 0.78166989E+03</pdfrwt>
<pdfrwt beam="2">  1       -2 0.84531137E-01 0.78166989E+03</pdfrwt>
<totfact> 0.33436224E+01</totfact>
</mgrwt>
</event>
<event>
 4    1  0.3565372E-007  0.7640646E+03  0.7818608E-02  0.9794696E-01
          2   -1    0    0  501    0  0.00000000000E+00  0.00000000000E+00  0.20506008708E+04  0.20506008708E+04  0.25500000000E-02 0. -1.
         -2   -1    0    0    0  501 -0.00000000000E+00 -0.00000000000E+00 -0.40643624035E+03  0.40643624036E+03  0.25500000000E-02 0.  1.
    8880023    1    1    2    0    0  0.17947040660E+03 -0.34318337168E+03  0.18433754366E+04  0.19954517434E+04  0.65864270000E+03 0.  0.
    8880022    1    1    2    0    0 -0.17947040660E+03  0.34318337168E+03 -0.19921080619E+03  0.46158536779E+03  0.15294330000E+03 0.  0.
<mgrwt>
<rscale>  0 0.65647955E+03</rscale>
<asrwt>0</asrwt>
<pdfrwt beam="1">  1        2 0.31547707E+00 0.76406457E+03</pdfrwt>
<pdfrwt beam="2">  1       -2 0.62528651E-01 0.76406457E+03</pdfrwt>
<totfact> 0.15355522E+01</totfact>
</mgrwt>
</event>
<event>
 4    1  0.3565372E-007  0.7013693E+03  0.7818608E-02  0.9991567E-01
          2   -1    0    0  501    0  0.00000000000E+00  0.00000000000E+00  0.87877398219E+03  0.87877398220E+03  0.25500000000E-02 0. -1.
         -2   -1    0    0    0  501 -0.00000000000E+00 -0.00000000000E+00 -0.43320245132E+03  0.43320245133E+03  0.25500000000E-02 0.  1.
    8880023    1    1    2    0    0  0.23979245767E+03  0.24664142801E+02  0.65362863450E+03  0.95872276535E+03  0.65864270000E+03 0. -1.
    8880022    1    1    2    0    0 -0.23979245767E+03 -0.24664142801E+02 -0.20805710363E+03  0.35325366818E+03  0.15294330000E+03 0.  0.
<mgrwt>
<rscale>  0 0.56021540E+03</rscale>
<asrwt>0</asrwt>
<pdfrwt beam="1">  1        2 0.13519600E+00 0.70136934E+03</pdfrwt>
<pdfrwt beam="2">  1       -2 0.66646532E-01 0.70136934E+03</pdfrwt>
<totfact> 0.63826238E+01</totfact>
</mgrwt>
</event>
<event>
 4    1  0.3565372E-007  0.8219649E+03  0.7818608E-02  0.9665173E-01
         -2   -1    0    0    0  501 -0.00000000000E+00  0.00000000000E+00  0.24928174647E+03  0.24928174648E+03  0.25500000000E-02 0.  1.
          2   -1    0    0  501    0  0.00000000000E+00 -0.00000000000E+00 -0.26588008892E+04  0.26588008892E+04  0.25500000000E-02 0. -1.
    8880023    1    1    2    0    0 -0.35439652844E+03  0.34090943281E+03 -0.22063233665E+04  0.23544615403E+04  0.65864270000E+03 0. -1.
    8880022    1    1    2    0    0  0.35439652844E+03 -0.34090943281E+03 -0.20319577616E+03  0.55362109535E+03  0.15294330000E+03 0.  0.
<mgrwt>
<rscale>  0 0.73128767E+03</rscale>
<asrwt>0</asrwt>
<pdfrwt beam="1">  1        2 0.40904627E+00 0.82196493E+03</pdfrwt>
<pdfrwt beam="2">  1       -2 0.38351040E-01 0.82196493E+03</pdfrwt>
<totfact> 0.18740003E+01</totfact>
</mgrwt>
</event>
<event>
 4    1  0.3565372E-007  0.6899634E+03  0.7818608E-02  0.1004170E+00
         -2   -1    0    0    0  501 -0.00000000000E+00  0.00000000000E+00  0.12012648621E+03  0.12012648624E+03  0.25500000000E-02 0.  1.
          2   -1    0    0  501    0  0.00000000000E+00 -0.00000000000E+00 -0.31946294233E+04  0.31946294233E+04  0.25500000000E-02 0. -1.
    8880023    1    1    2    0    0  0.17534387815E+03  0.10720948349E+03 -0.29505712874E+04  0.30301683909E+04  0.65864270000E+03 0. -1.
    8880022    1    1    2    0    0 -0.17534387815E+03 -0.10720948349E+03 -0.12393164970E+03  0.28458751864E+03  0.15294330000E+03 0.  0.
<mgrwt>
<rscale>  0 0.53858988E+03</rscale>
<asrwt>0</asrwt>
<pdfrwt beam="1">  1        2 0.49148138E+00 0.68996344E+03</pdfrwt>
<pdfrwt beam="2">  1       -2 0.18481000E-01 0.68996344E+03</pdfrwt>
<totfact> 0.34394933E+01</totfact>
</mgrwt>
</event>
<event>
 4    1  0.3565372E-007  0.6637736E+03  0.7818608E-02  0.1020585E+00
         -2   -1    0    0    0  501 -0.00000000000E+00  0.00000000000E+00  0.31641785926E+03  0.31641785927E+03  0.25500000000E-02 0.  1.
          2   -1    0    0  501    0  0.00000000000E+00 -0.00000000000E+00 -0.70644710597E+03  0.70644710597E+03  0.25500000000E-02 0. -1.
    8880023    1    1    2    0    0 -0.51762720250E+02 -0.64076790425E+02 -0.48760420381E+03  0.82362204931E+03  0.65864270000E+03 0. -1.
    8880022    1    1    2    0    0  0.51762720250E+02  0.64076790425E+02  0.97574957099E+02  0.19924291593E+03  0.15294330000E+03 0.  0.
<mgrwt>
<rscale>  0 0.47476015E+03</rscale>
<asrwt>0</asrwt>
<pdfrwt beam="1">  1        2 0.10868417E+00 0.66377362E+03</pdfrwt>
<pdfrwt beam="2">  1       -2 0.48679671E-01 0.66377362E+03</pdfrwt>
<totfact> 0.16430153E+02</totfact>
</mgrwt>
</event>
<event>
 4    1  0.3565372E-007  0.7562923E+03  0.7818608E-02  0.9814803E-01
         -2   -1    0    0    0  501 -0.00000000000E+00  0.00000000000E+00  0.87143116910E+03  0.87143116911E+03  0.25500000000E-02 0.  1.
          2   -1    0    0  501    0  0.00000000000E+00 -0.00000000000E+00 -0.57989721996E+03  0.57989721997E+03  0.25500000000E-02 0. -1.
    8880023    1    1    2    0    0 -0.56330920631E+02  0.36741623285E+03 -0.23219880255E+03  0.79113485004E+03  0.65864270000E+03 0. -1.
    8880022    1    1    2    0    0  0.56330920631E+02 -0.36741623285E+03  0.52373275169E+03  0.66019353904E+03  0.15294330000E+03 0.  0.
<mgrwt>
<rscale>  0 0.64574170E+03</rscale>
<asrwt>0</asrwt>
<pdfrwt beam="1">  1        2 0.89214957E-01 0.75629232E+03</pdfrwt>
<pdfrwt beam="2">  1       -2 0.13406633E+00 0.75629232E+03</pdfrwt>
<totfact> 0.21017660E+01</totfact>
</mgrwt>
</event>
<event>
 4    1  0.3565372E-007  0.9797618E+03  0.7818608E-02  0.9408528E-01
         -2   -1    0    0    0  501 -0.00000000000E+00  0.00000000000E+00  0.10702752527E+04  0.10702752527E+04  0.25500000000E-02 0.  1.
          2   -1    0    0  501    0  0.00000000000E+00 -0.00000000000E+00 -0.10029365366E+04  0.10029365366E+04  0.25500000000E-02 0. -1.
    8880023    1    1    2    0    0 -0.56705696524E+03  0.45229339812E+03 -0.53656576740E+03  0.11170657764E+04  0.65864270000E+03 0. -1.
    8880022    1    1    2    0    0  0.56705696524E+03 -0.45229339812E+03  0.60390448347E+03  0.95614601289E+03  0.15294330000E+03 0.  0.
<mgrwt>
<rscale>  0 0.91377184E+03</rscale>
<asrwt>0</asrwt>
<pdfrwt beam="1">  1        2 0.15429793E+00 0.97976177E+03</pdfrwt>
<pdfrwt beam="2">  1       -2 0.16465773E+00 0.97976177E+03</pdfrwt>
<totfact> 0.57995646E+00</totfact>
</mgrwt>
</event>
<event>
 4    1  0.3565372E-007  0.8001244E+03  0.7818608E-02  0.9710527E-01
          2   -1    0    0  501    0  0.00000000000E+00  0.00000000000E+00  0.18730798869E+04  0.18730798869E+04  0.25500000000E-02 0. -1.
         -2   -1    0    0    0  501 -0.00000000000E+00 -0.00000000000E+00 -0.21963246903E+03  0.21963246904E+03  0.25500000000E-02 0.  1.
    8880023    1    1    2    0    0  0.26118023878E+03 -0.37171719474E+03  0.96014096382E+03  0.12498278548E+04  0.65864270000E+03 0.  1.
    8880022    1    1    2    0    0 -0.26118023878E+03  0.37171719474E+03  0.69330645401E+03  0.84288450110E+03  0.15294330000E+03 0. -1.
<mgrwt>
<rscale>  0 0.70393450E+03</rscale>
<asrwt>0</asrwt>
<pdfrwt beam="1">  1        2 0.28816614E+00 0.80012436E+03</pdfrwt>
<pdfrwt beam="2">  1       -2 0.33789610E-01 0.80012436E+03</pdfrwt>
<totfact> 0.65717119E+01</totfact>
</mgrwt>
</event>
<event>
 4    1  0.3565372E-007  0.7532942E+03  0.7818608E-02  0.9822788E-01
         -2   -1    0    0    0  501 -0.00000000000E+00  0.00000000000E+00  0.46058260604E+03  0.46058260604E+03  0.25500000000E-02 0.  1.
          2   -1    0    0  501    0  0.00000000000E+00 -0.00000000000E+00 -0.11440566685E+04  0.11440566685E+04  0.25500000000E-02 0. -1.
    8880023    1    1    2    0    0 -0.14460794918E+01  0.36556784625E+03 -0.88325100699E+03  0.11608550680E+04  0.65864270000E+03 0. -1.
    8880022    1    1    2    0    0  0.14460794918E+01 -0.36556784625E+03  0.19977694454E+03  0.44378420650E+03  0.15294330000E+03 0.  0.
<mgrwt>
<rscale>  0 0.64153822E+03</rscale>
<asrwt>0</asrwt>
<pdfrwt beam="1">  1        2 0.17600872E+00 0.75329420E+03</pdfrwt>
<pdfrwt beam="2">  1       -2 0.70858863E-01 0.75329420E+03</pdfrwt>
<totfact> 0.37693298E+01</totfact>
</mgrwt>
</event>
<event>
 4    1  0.3565372E-007  0.7621097E+03  0.7818608E-02  0.9799676E-01
         -2   -1    0    0    0  501 -0.00000000000E+00  0.00000000000E+00  0.37742161376E+03  0.37742161377E+03  0.25500000000E-02 0.  1.
          2   -1    0    0  501    0  0.00000000000E+00 -0.00000000000E+00 -0.11501870107E+04  0.11501870107E+04  0.25500000000E-02 0. -1.
    8880023    1    1    2    0    0  0.33404984919E+03 -0.18817995482E+03 -0.81119676482E+03  0.11130370141E+04  0.65864270000E+03 0. -1.
    8880022    1    1    2    0    0 -0.33404984919E+03  0.18817995482E+03  0.38431367847E+02  0.41457161045E+03  0.15294330000E+03 0.  0.
<mgrwt>
<rscale>  0 0.65379934E+03</rscale>
<asrwt>0</asrwt>
<pdfrwt beam="1">  1        2 0.17695185E+00 0.76210971E+03</pdfrwt>
<pdfrwt beam="2">  1       -2 0.58064864E-01 0.76210971E+03</pdfrwt>
<totfact> 0.57216602E+01</totfact>
</mgrwt>
</event>
<event>
 4    1  0.3565372E-007  0.7856761E+03  0.7818608E-02  0.9742669E-01
          2   -1    0    0  501    0  0.00000000000E+00  0.00000000000E+00  0.14490861677E+04  0.14490861677E+04  0.25500000000E-02 0. -1.
         -2   -1    0    0    0  501 -0.00000000000E+00 -0.00000000000E+00 -0.93469910432E+03  0.93469910432E+03  0.25500000000E-02 0.  1.
    8880023    1    1    2    0    0  0.42543236100E+03 -0.49840396203E+02 -0.72160061267E+03  0.10667682079E+04  0.65864270000E+03 0.  0.
    8880022    1    1    2    0    0 -0.42543236100E+03  0.49840396203E+02  0.12359876761E+04  0.13170170642E+04  0.15294330000E+03 0.  0.
<mgrwt>
<rscale>  0 0.68532163E+03</rscale>
<asrwt>0</asrwt>
<pdfrwt beam="1">  1        2 0.22293633E+00 0.78567612E+03</pdfrwt>
<pdfrwt beam="2">  1       -2 0.14379986E+00 0.78567612E+03</pdfrwt>
<totfact> 0.46335698E+00</totfact>
</mgrwt>
</event>
<event>
 4    1  0.3565372E-007  0.1373917E+04  0.7818608E-02  0.9004219E-01
         -2   -1    0    0    0  501 -0.00000000000E+00  0.00000000000E+00  0.94772560636E+03  0.94772560636E+03  0.25500000000E-02 0.  1.
          2   -1    0    0  501    0  0.00000000000E+00 -0.00000000000E+00 -0.23379888195E+04  0.23379888195E+04  0.25500000000E-02 0. -1.
    8880023    1    1    2    0    0  0.77607054084E+03 -0.92279646043E+03 -0.15369050565E+04  0.20614863935E+04  0.65864270000E+03 0.  0.
    8880022    1    1    2    0    0 -0.77607054084E+03  0.92279646043E+03  0.14664184343E+03  0.12242280323E+04  0.15294330000E+03 0.  0.
<mgrwt>
<rscale>  0 0.13324518E+04</rscale>
<asrwt>0</asrwt>
<pdfrwt beam="1">  1        2 0.35969058E+00 0.13739174E+04</pdfrwt>
<pdfrwt beam="2">  1       -2 0.14580394E+00 0.13739174E+04</pdfrwt>
<totfact> 0.13335031E+00</totfact>
</mgrwt>
</event>
<event>
 4    1  0.3565372E-007  0.7916016E+03  0.7818608E-02  0.9729258E-01
          2   -1    0    0  501    0  0.00000000000E+00  0.00000000000E+00  0.86771904999E+03  0.86771904999E+03  0.25500000000E-02 0. -1.
         -2   -1    0    0    0  501 -0.00000000000E+00 -0.00000000000E+00 -0.10472566719E+04  0.10472566719E+04  0.25500000000E-02 0.  1.
    8880023    1    1    2    0    0  0.43903784393E+03  0.82840514409E+01  0.60953876931E+03  0.99908486700E+03  0.65864270000E+03 0. -1.
    8880022    1    1    2    0    0 -0.43903784393E+03 -0.82840514409E+01 -0.78907639126E+03  0.91589085494E+03  0.15294330000E+03 0.  0.
<mgrwt>
<rscale>  0 0.69301174E+03</rscale>
<asrwt>0</asrwt>
<pdfrwt beam="1">  1        2 0.13349524E+00 0.79160158E+03</pdfrwt>
<pdfrwt beam="2">  1       -2 0.16111641E+00 0.79160158E+03</pdfrwt>
<totfact> 0.77227150E+00</totfact>
</mgrwt>
</event>
<event>
 4    1  0.3565372E-007  0.7225580E+03  0.7818608E-02  0.9914024E-01
          2   -1    0    0  501    0  0.00000000000E+00  0.00000000000E+00  0.26982650717E+04  0.26982650717E+04  0.25500000000E-02 0. -1.
         -2   -1    0    0    0  501 -0.00000000000E+00 -0.00000000000E+00 -0.15930760590E+03  0.15930760592E+03  0.25500000000E-02 0.  1.
    8880023    1    1    2    0    0  0.14839334701E+03 -0.25740868527E+03  0.23804820987E+04  0.24877268832E+04  0.65864270000E+03 0.  0.
    8880022    1    1    2    0    0 -0.14839334701E+03  0.25740868527E+03  0.15847536708E+03  0.36984579446E+03  0.15294330000E+03 0.  0.
<mgrwt>
<rscale>  0 0.59586421E+03</rscale>
<asrwt>0</asrwt>
<pdfrwt beam="1">  1        2 0.41511765E+00 0.72255797E+03</pdfrwt>
<pdfrwt beam="2">  1       -2 0.24508866E-01 0.72255797E+03</pdfrwt>
<totfact> 0.41567636E+01</totfact>
</mgrwt>
</event>
<event>
 4    1  0.3565372E-007  0.1278120E+04  0.7818608E-02  0.9084688E-01
         -2   -1    0    0    0  501 -0.00000000000E+00  0.00000000000E+00  0.12240062897E+04  0.12240062897E+04  0.25500000000E-02 0.  1.
          2   -1    0    0  501    0  0.00000000000E+00 -0.00000000000E+00 -0.13388617281E+04  0.13388617281E+04  0.25500000000E-02 0. -1.
    8880023    1    1    2    0    0 -0.26546093718E+02  0.10950237940E+04  0.40508066545E+03  0.13407767735E+04  0.65864270000E+03 0.  0.
    8880022    1    1    2    0    0  0.26546093718E+02 -0.10950237940E+04 -0.51993610385E+03  0.12220912444E+04  0.15294330000E+03 0.  0.
<mgrwt>
<rscale>  0 0.12327212E+04</rscale>
<asrwt>0</asrwt>
<pdfrwt beam="1">  1        2 0.20597873E+00 0.12781205E+04</pdfrwt>
<pdfrwt beam="2">  1       -2 0.18830866E+00 0.12781205E+04</pdfrwt>
<totfact> 0.24051595E+00</totfact>
</mgrwt>
</event>
<event>
 4    1  0.3565372E-007  0.7177802E+03  0.7818608E-02  0.9930170E-01
         -2   -1    0    0    0  501 -0.00000000000E+00  0.00000000000E+00  0.51280340984E+03  0.51280340984E+03  0.25500000000E-02 0.  1.
          2   -1    0    0  501    0  0.00000000000E+00 -0.00000000000E+00 -0.18952495961E+04  0.18952495961E+04  0.25500000000E-02 0. -1.
    8880023    1    1    2    0    0 -0.15922330092E+03 -0.23674079346E+03 -0.17659155100E+04  0.19062177361E+04  0.65864270000E+03 0. -1.
    8880022    1    1    2    0    0  0.15922330092E+03  0.23674079346E+03  0.38346932369E+03  0.50183526985E+03  0.15294330000E+03 0.  0.
<mgrwt>
<rscale>  0 0.58821156E+03</rscale>
<asrwt>0</asrwt>
<pdfrwt beam="1">  1        2 0.29157686E+00 0.71778024E+03</pdfrwt>
<pdfrwt beam="2">  1       -2 0.78892833E-01 0.71778024E+03</pdfrwt>
<totfact> 0.11307549E+01</totfact>
</mgrwt>
</event>
<event>
 4    1  0.3565372E-007  0.8843041E+03  0.7818608E-02  0.9551713E-01
          2   -1    0    0  501    0  0.00000000000E+00  0.00000000000E+00  0.49191917633E+04  0.49191917633E+04  0.25500000000E-02 0. -1.
         -2   -1    0    0    0  501 -0.00000000000E+00 -0.00000000000E+00 -0.15443117928E+03  0.15443117930E+03  0.25500000000E-02 0.  1.
    8880023    1    1    2    0    0  0.65562559207E+02 -0.58641716393E+03  0.39951686893E+04  0.40918659071E+04  0.65864270000E+03 0. -1.
    8880022    1    1    2    0    0 -0.65562559207E+02  0.58641716393E+03  0.76959189468E+03  0.98175703547E+03  0.15294330000E+03 0.  0.
<mgrwt>
<rscale>  0 0.80576253E+03</rscale>
<asrwt>0</asrwt>
<pdfrwt beam="1">  1        2 0.75679855E+00 0.88430410E+03</pdfrwt>
<pdfrwt beam="2">  1       -2 0.23758649E-01 0.88430410E+03</pdfrwt>
<totfact> 0.76528738E-01</totfact>
</mgrwt>
</event>
<event>
 4    1  0.3565372E-007  0.6589003E+03  0.7818608E-02  0.1025312E+00
          2   -1    0    0  501    0  0.00000000000E+00  0.00000000000E+00  0.23154908582E+04  0.23154908582E+04  0.25500000000E-02 0. -1.
         -2   -1    0    0    0  501 -0.00000000000E+00 -0.00000000000E+00 -0.17799703742E+03  0.17799703744E+03  0.25500000000E-02 0.  1.
    8880023    1    1    2    0    0 -0.75438261518E+01  0.16807072442E+02  0.22221022990E+04  0.23177334231E+04  0.65864270000E+03 0. -1.
    8880022    1    1    2    0    0  0.75438261518E+01 -0.16807072442E+02 -0.84608478271E+02  0.17575447251E+03  0.15294330000E+03 0.  0.
<mgrwt>
<rscale>  0 0.45817287E+03</rscale>
<asrwt>0</asrwt>
<pdfrwt beam="1">  1        2 0.35622933E+00 0.65890029E+03</pdfrwt>
<pdfrwt beam="2">  1       -2 0.27384162E-01 0.65890029E+03</pdfrwt>
<totfact> 0.56547504E+01</totfact>
</mgrwt>
</event>
<event>
 4    1  0.3565372E-007  0.8000083E+03  0.7818608E-02  0.9710778E-01
          2   -1    0    0  501    0  0.00000000000E+00  0.00000000000E+00  0.28218730004E+04  0.28218730004E+04  0.25500000000E-02 0. -1.
         -2   -1    0    0    0  501 -0.00000000000E+00 -0.00000000000E+00 -0.27647695275E+03  0.27647695276E+03  0.25500000000E-02 0.  1.
    8880023    1    1    2    0    0  0.40878198048E+03 -0.19773819377E+03  0.24907600124E+04  0.26160846214E+04  0.65864270000E+03 0. -1.
    8880022    1    1    2    0    0 -0.40878198048E+03  0.19773819377E+03  0.54636035261E+02  0.48226533174E+03  0.15294330000E+03 0.  0.
<mgrwt>
<rscale>  0 0.70378681E+03</rscale>
<asrwt>0</asrwt>
<pdfrwt beam="1">  1        2 0.43413433E+00 0.80000832E+03</pdfrwt>
<pdfrwt beam="2">  1       -2 0.42534913E-01 0.80000832E+03</pdfrwt>
<totfact> 0.12317287E+01</totfact>
</mgrwt>
</event>
<event>
 4    1  0.3565372E-007  0.8286831E+03  0.7818608E-02  0.9651900E-01
          2   -1    0    0  501    0  0.00000000000E+00  0.00000000000E+00  0.71915280276E+03  0.71915280276E+03  0.25500000000E-02 0. -1.
         -2   -1    0    0    0  501 -0.00000000000E+00 -0.00000000000E+00 -0.16055814595E+04  0.16055814595E+04  0.25500000000E-02 0.  1.
    8880023    1    1    2    0    0 -0.63454964588E+02 -0.49887767558E+03  0.41090102935E+03  0.92496233972E+03  0.65864270000E+03 0.  0.
    8880022    1    1    2    0    0  0.63454964588E+02  0.49887767558E+03 -0.12973296861E+04  0.13997719226E+04  0.15294330000E+03 0.  0.
<mgrwt>
<rscale>  0 0.73954296E+03</rscale>
<asrwt>0</asrwt>
<pdfrwt beam="1">  1        2 0.11063889E+00 0.82868310E+03</pdfrwt>
<pdfrwt beam="2">  1       -2 0.24701253E+00 0.82868310E+03</pdfrwt>
<totfact> 0.27040075E+00</totfact>
</mgrwt>
</event>
<event>
 4    1  0.3565372E-007  0.1090845E+04  0.7818608E-02  0.9271318E-01
         -2   -1    0    0    0  501 -0.00000000000E+00  0.00000000000E+00  0.82027108296E+03  0.82027108297E+03  0.25500000000E-02 0.  1.
          2   -1    0    0  501    0  0.00000000000E+00 -0.00000000000E+00 -0.13036576719E+04  0.13036576719E+04  0.25500000000E-02 0. -1.
    8880023    1    1    2    0    0  0.80654222350E+03 -0.32499481455E+03 -0.58051817717E+03  0.12356955726E+04  0.65864270000E+03 0.  0.
    8880022    1    1    2    0    0 -0.80654222350E+03  0.32499481455E+03  0.97131588192E+02  0.88823318234E+03  0.15294330000E+03 0.  0.
<mgrwt>
<rscale>  0 0.10346676E+04</rscale>
<asrwt>0</asrwt>
<pdfrwt beam="1">  1        2 0.20056272E+00 0.10908447E+04</pdfrwt>
<pdfrwt beam="2">  1       -2 0.12619555E+00 0.10908447E+04</pdfrwt>
<totfact> 0.75783039E+00</totfact>
</mgrwt>
</event>
<event>
 4    1  0.3565372E-007  0.7918922E+03  0.7818608E-02  0.9728609E-01
          2   -1    0    0  501    0  0.00000000000E+00  0.00000000000E+00  0.13144489058E+04  0.13144489058E+04  0.25500000000E-02 0. -1.
         -2   -1    0    0    0  501 -0.00000000000E+00 -0.00000000000E+00 -0.47218832791E+03  0.47218832791E+03  0.25500000000E-02 0.  1.
    8880023    1    1    2    0    0  0.38289008133E+03  0.21605139614E+03  0.10174298010E+04  0.12892853161E+04  0.65864270000E+03 0. -1.
    8880022    1    1    2    0    0 -0.38289008133E+03 -0.21605139614E+03 -0.17516922314E+03  0.49735191756E+03  0.15294330000E+03 0.  0.
<mgrwt>
<rscale>  0 0.69338678E+03</rscale>
<asrwt>0</asrwt>
<pdfrwt beam="1">  1        2 0.20222291E+00 0.79189218E+03</pdfrwt>
<pdfrwt beam="2">  1       -2 0.72644359E-01 0.79189218E+03</pdfrwt>
<totfact> 0.28225358E+01</totfact>
</mgrwt>
</event>
<event>
 4    1  0.3565372E-007  0.9500369E+03  0.7818608E-02  0.9450061E-01
          2   -1    0    0  501    0  0.00000000000E+00  0.00000000000E+00  0.36261443872E+03  0.36261443873E+03  0.25500000000E-02 0. -1.
         -2   -1    0    0    0  501 -0.00000000000E+00 -0.00000000000E+00 -0.20928562209E+04  0.20928562209E+04  0.25500000000E-02 0.  1.
    8880023    1    1    2    0    0  0.63137217374E+03  0.26481884502E+03 -0.59506882302E+03  0.11210160359E+04  0.65864270000E+03 0. -1.
    8880022    1    1    2    0    0 -0.63137217374E+03 -0.26481884502E+03 -0.11351729591E+04  0.13344546237E+04  0.15294330000E+03 0.  0.
<mgrwt>
<rscale>  0 0.88067911E+03</rscale>
<asrwt>0</asrwt>
<pdfrwt beam="1">  1        2 0.55786838E-01 0.95003687E+03</pdfrwt>
<pdfrwt beam="2">  1       -2 0.32197787E+00 0.95003687E+03</pdfrwt>
<totfact> 0.21048168E+00</totfact>
</mgrwt>
</event>
<event>
 4    1  0.3565372E-007  0.1176726E+04  0.7818608E-02  0.9180085E-01
          2   -1    0    0  501    0  0.00000000000E+00  0.00000000000E+00  0.38167851556E+04  0.38167851556E+04  0.25500000000E-02 0. -1.
         -2   -1    0    0    0  501 -0.00000000000E+00 -0.00000000000E+00 -0.43616245813E+03  0.43616245814E+03  0.25500000000E-02 0.  1.
    8880023    1    1    2    0    0  0.55165506555E+03  0.80408433612E+03  0.29500375285E+04  0.31760677822E+04  0.65864270000E+03 0.  0.
    8880022    1    1    2    0    0 -0.55165506555E+03 -0.80408433612E+03  0.43058516895E+03  0.10768798316E+04  0.15294330000E+03 0.  0.
<mgrwt>
<rscale>  0 0.11261373E+04</rscale>
<asrwt>0</asrwt>
<pdfrwt beam="1">  1        2 0.58719770E+00 0.11767264E+04</pdfrwt>
<pdfrwt beam="2">  1       -2 0.67101918E-01 0.11767264E+04</pdfrwt>
<totfact> 0.98838154E-01</totfact>
</mgrwt>
</event>
<event>
 4    1  0.3565372E-007  0.7068639E+03  0.7818608E-02  0.9969836E-01
         -2   -1    0    0    0  501 -0.00000000000E+00  0.00000000000E+00  0.32757037760E+03  0.32757037761E+03  0.25500000000E-02 0.  1.
          2   -1    0    0  501    0  0.00000000000E+00 -0.00000000000E+00 -0.12095535614E+04  0.12095535614E+04  0.25500000000E-02 0. -1.
    8880023    1    1    2    0    0 -0.25069069852E+03  0.54777647326E+02 -0.11778011613E+03  0.71660922335E+03  0.65864270000E+03 0.  1.
    8880022    1    1    2    0    0  0.25069069852E+03 -0.54777647326E+02 -0.76420306762E+03  0.82051471562E+03  0.15294330000E+03 0.  0.
<mgrwt>
<rscale>  0 0.56992885E+03</rscale>
<asrwt>0</asrwt>
<pdfrwt beam="1">  1        2 0.18608516E+00 0.70686394E+03</pdfrwt>
<pdfrwt beam="2">  1       -2 0.50395443E-01 0.70686394E+03</pdfrwt>
<totfact> 0.71050269E+01</totfact>
</mgrwt>
</event>
<event>
 4    1  0.3565372E-007  0.7446999E+03  0.7818608E-02  0.9846462E-01
         -2   -1    0    0    0  501 -0.00000000000E+00  0.00000000000E+00  0.75410965322E+03  0.75410965322E+03  0.25500000000E-02 0.  1.
          2   -1    0    0  501    0  0.00000000000E+00 -0.00000000000E+00 -0.15436445010E+04  0.15436445010E+04  0.25500000000E-02 0. -1.
    8880023    1    1    2    0    0 -0.33934233895E+03  0.74930200053E+02 -0.13960167905E+04  0.15822265462E+04  0.65864270000E+03 0.  0.
    8880022    1    1    2    0    0  0.33934233895E+03 -0.74930200053E+02  0.60648194276E+03  0.71552760798E+03  0.15294330000E+03 0.  0.
<mgrwt>
<rscale>  0 0.62927627E+03</rscale>
<asrwt>0</asrwt>
<pdfrwt beam="1">  1        2 0.23748377E+00 0.74469992E+03</pdfrwt>
<pdfrwt beam="2">  1       -2 0.11601687E+00 0.74469992E+03</pdfrwt>
<totfact> 0.71061397E+00</totfact>
</mgrwt>
</event>
<event>
 4    1  0.4049834E-007  0.7361801E+03  0.7818608E-02  0.9871217E-01
          2   -1    0    0  501    0  0.00000000000E+00  0.00000000000E+00  0.27695027554E+04  0.27695027554E+04  0.25500000000E-02 0. -1.
         -2   -1    0    0    0  501 -0.00000000000E+00 -0.00000000000E+00 -0.90642828959E+03  0.90642828959E+03  0.25500000000E-02 0.  1.
    8880023    1    1    2    0    0  0.10201452474E+03 -0.31264039075E+03  0.26815118695E+04  0.27807313947E+04  0.65864270000E+03 0. -1.
    8880022    1    1    2    0    0 -0.10201452474E+03  0.31264039075E+03 -0.81843740364E+03  0.89519965029E+03  0.15294330000E+03 0.  0.
<mgrwt>
<rscale>  0 0.61676736E+03</rscale>
<asrwt>0</asrwt>
<pdfrwt beam="1">  1        2 0.42607734E+00 0.73618013E+03</pdfrwt>
<pdfrwt beam="2">  1       -2 0.13945051E+00 0.73618013E+03</pdfrwt>
<totfact> 0.93142164E-01</totfact>
</mgrwt>
</event>
<event>
 4    1  0.3565372E-007  0.9690809E+03  0.7818608E-02  0.9423176E-01
          2   -1    0    0  501    0  0.00000000000E+00  0.00000000000E+00  0.29637526815E+04  0.29637526815E+04  0.25500000000E-02 0. -1.
         -2   -1    0    0    0  501 -0.00000000000E+00 -0.00000000000E+00 -0.35237958916E+03  0.35237958917E+03  0.25500000000E-02 0.  1.
    8880023    1    1    2    0    0 -0.37432625134E+03 -0.60430741633E+03  0.23525410684E+04  0.25443205932E+04  0.65864270000E+03 0. -1.
    8880022    1    1    2    0    0  0.37432625134E+03  0.60430741633E+03  0.25883202385E+03  0.77181167746E+03  0.15294330000E+03 0.  1.
<mgrwt>
<rscale>  0 0.90192643E+03</rscale>
<asrwt>0</asrwt>
<pdfrwt beam="1">  1        2 0.45596196E+00 0.96908091E+03</pdfrwt>
<pdfrwt beam="2">  1       -2 0.54212244E-01 0.96908091E+03</pdfrwt>
<totfact> 0.60332180E+00</totfact>
</mgrwt>
</event>
<event>
 4    1  0.3565372E-007  0.7081966E+03  0.7818608E-02  0.9964760E-01
         -2   -1    0    0    0  501 -0.00000000000E+00  0.00000000000E+00  0.34038849658E+03  0.34038849659E+03  0.25500000000E-02 0.  1.
          2   -1    0    0  501    0  0.00000000000E+00 -0.00000000000E+00 -0.35961512764E+04  0.35961512764E+04  0.25500000000E-02 0. -1.
    8880023    1    1    2    0    0  0.30783453228E+02 -0.25842718137E+03 -0.34857994102E+04  0.35570127866E+04  0.65864270000E+03 0. -1.
    8880022    1    1    2    0    0 -0.30783453228E+02  0.25842718137E+03  0.23003663044E+03  0.37952698642E+03  0.15294330000E+03 0.  0.
<mgrwt>
<rscale>  0 0.57222840E+03</rscale>
<asrwt>0</asrwt>
<pdfrwt beam="1">  1        2 0.55325402E+00 0.70819661E+03</pdfrwt>
<pdfrwt beam="2">  1       -2 0.52367463E-01 0.70819661E+03</pdfrwt>
<totfact> 0.26328404E+00</totfact>
</mgrwt>
</event>
<event>
 4    1  0.3565372E-007  0.6639527E+03  0.7818608E-02  0.1020429E+00
         -2   -1    0    0    0  501 -0.00000000000E+00  0.00000000000E+00  0.12963512128E+04  0.12963512128E+04  0.25500000000E-02 0.  1.
          2   -1    0    0  501    0  0.00000000000E+00 -0.00000000000E+00 -0.30521513942E+03  0.30521513943E+03  0.25500000000E-02 0. -1.
    8880023    1    1    2    0    0  0.47976717190E+02 -0.68711347680E+02  0.74077553712E+02  0.66807238000E+03  0.65864270000E+03 0. -1.
    8880022    1    1    2    0    0 -0.47976717190E+02  0.68711347680E+02  0.91705851969E+03  0.93349397226E+03  0.15294330000E+03 0.  0.
<mgrwt>
<rscale>  0 0.47532237E+03</rscale>
<asrwt>0</asrwt>
<pdfrwt beam="1">  1        2 0.46956176E-01 0.66395272E+03</pdfrwt>
<pdfrwt beam="2">  1       -2 0.19943865E+00 0.66395272E+03</pdfrwt>
<totfact> 0.14820843E+01</totfact>
</mgrwt>
</event>
<event>
 4    1  0.3565372E-007  0.7722846E+03  0.7818608E-02  0.9774283E-01
          2   -1    0    0  501    0  0.00000000000E+00  0.00000000000E+00  0.32623859500E+04  0.32623859500E+04  0.25500000000E-02 0. -1.
         -2   -1    0    0    0  501 -0.00000000000E+00 -0.00000000000E+00 -0.30421442468E+03  0.30421442469E+03  0.25500000000E-02 0.  1.
    8880023    1    1    2    0    0 -0.18891076985E+03 -0.35626667348E+03  0.30322063278E+04  0.31290092109E+04  0.65864270000E+03 0. -1.
    8880022    1    1    2    0    0  0.18891076985E+03  0.35626667348E+03 -0.74034802481E+02  0.43759116375E+03  0.15294330000E+03 0.  0.
<mgrwt>
<rscale>  0 0.66761110E+03</rscale>
<asrwt>0</asrwt>
<pdfrwt beam="1">  1        2 0.50190555E+00 0.77228455E+03</pdfrwt>
<pdfrwt beam="2">  1       -2 0.46802217E-01 0.77228455E+03</pdfrwt>
<totfact> 0.54643077E+00</totfact>
</mgrwt>
</event>
<event>
 4    1  0.3565372E-007  0.8072200E+03  0.7818608E-02  0.9695397E-01
         -2   -1    0    0    0  501 -0.00000000000E+00  0.00000000000E+00  0.47276788055E+03  0.47276788055E+03  0.25500000000E-02 0.  1.
          2   -1    0    0  501    0  0.00000000000E+00 -0.00000000000E+00 -0.12370120706E+04  0.12370120706E+04  0.25500000000E-02 0. -1.
    8880023    1    1    2    0    0  0.14856925847E+03  0.44240383396E+03 -0.89129840292E+03  0.12025044807E+04  0.65864270000E+03 0. -1.
    8880022    1    1    2    0    0 -0.14856925847E+03 -0.44240383396E+03  0.12705421288E+03  0.50727547042E+03  0.15294330000E+03 0.  0.
<mgrwt>
<rscale>  0 0.71291521E+03</rscale>
<asrwt>0</asrwt>
<pdfrwt beam="1">  1        2 0.19030955E+00 0.80722003E+03</pdfrwt>
<pdfrwt beam="2">  1       -2 0.72733520E-01 0.80722003E+03</pdfrwt>
<totfact> 0.31175836E+01</totfact>
</mgrwt>
</event>
<event>
 4    1  0.3565372E-007  0.1217414E+04  0.7818608E-02  0.9140378E-01
         -2   -1    0    0    0  501 -0.00000000000E+00  0.00000000000E+00  0.21528531821E+04  0.21528531821E+04  0.25500000000E-02 0.  1.
          2   -1    0    0  501    0  0.00000000000E+00 -0.00000000000E+00 -0.75893034881E+03  0.75893034881E+03  0.25500000000E-02 0. -1.
    8880023    1    1    2    0    0 -0.99286080628E+03 -0.25002933108E+03  0.54094810989E+02  0.12186154857E+04  0.65864270000E+03 0.  0.
    8880022    1    1    2    0    0  0.99286080628E+03  0.25002933108E+03  0.13398280223E+04  0.16931680452E+04  0.15294330000E+03 0.  0.
<mgrwt>
<rscale>  0 0.11690602E+04</rscale>
<asrwt>0</asrwt>
<pdfrwt beam="1">  1        2 0.11675851E+00 0.12174142E+04</pdfrwt>
<pdfrwt beam="2">  1       -2 0.33120818E+00 0.12174142E+04</pdfrwt>
<totfact> 0.73994598E-01</totfact>
</mgrwt>
</event>
<event>
 4    1  0.3565372E-007  0.7427606E+03  0.7818608E-02  0.9851978E-01
         -2   -1    0    0    0  501 -0.00000000000E+00  0.00000000000E+00  0.26093730338E+03  0.26093730340E+03  0.25500000000E-02 0.  1.
          2   -1    0    0  501    0  0.00000000000E+00 -0.00000000000E+00 -0.34050151166E+04  0.34050151166E+04  0.25500000000E-02 0. -1.
    8880023    1    1    2    0    0 -0.25313655760E+03 -0.23195889601E+03 -0.32007828091E+04  0.32858338125E+04  0.65864270000E+03 0. -1.
    8880022    1    1    2    0    0  0.25313655760E+03  0.23195889601E+03  0.56704995815E+02  0.38011860754E+03  0.15294330000E+03 0.  0.
<mgrwt>
<rscale>  0 0.62646192E+03</rscale>
<asrwt>0</asrwt>
<pdfrwt beam="1">  1        2 0.52384845E+00 0.74276056E+03</pdfrwt>
<pdfrwt beam="2">  1       -2 0.40144203E-01 0.74276056E+03</pdfrwt>
<totfact> 0.60044778E+00</totfact>
</mgrwt>
</event>
<event>
 4    1  0.3565372E-007  0.6608712E+03  0.7818608E-02  0.1023281E+00
          2   -1    0    0  501    0  0.00000000000E+00  0.00000000000E+00  0.24417077809E+04  0.24417077809E+04  0.25500000000E-02 0. -1.
         -2   -1    0    0    0  501 -0.00000000000E+00 -0.00000000000E+00 -0.26886585751E+03  0.26886585752E+03  0.25500000000E-02 0.  1.
    8880023    1    1    2    0    0 -0.47376303482E+02  0.26383326176E+02  0.23670033210E+04  0.24575303705E+04  0.65864270000E+03 0. -1.
    8880022    1    1    2    0    0  0.47376303482E+02 -0.26383326176E+02 -0.19416139769E+03  0.25304326784E+03  0.15294330000E+03 0.  0.
<mgrwt>
<rscale>  0 0.46520956E+03</rscale>
<asrwt>0</asrwt>
<pdfrwt beam="1">  1        2 0.37564735E+00 0.66087124E+03</pdfrwt>
<pdfrwt beam="2">  1       -2 0.41363979E-01 0.66087124E+03</pdfrwt>
<totfact> 0.22055330E+01</totfact>
</mgrwt>
</event>
<event>
 4    1  0.3565372E-007  0.8389223E+03  0.7818608E-02  0.9632216E-01
         -2   -1    0    0    0  501 -0.00000000000E+00  0.00000000000E+00  0.29670989662E+03  0.29670989663E+03  0.25500000000E-02 0.  1.
          2   -1    0    0  501    0  0.00000000000E+00 -0.00000000000E+00 -0.21211500266E+04  0.21211500266E+04  0.25500000000E-02 0. -1.
    8880023    1    1    2    0    0  0.45801573089E+03  0.24536106892E+03 -0.47565814305E+03  0.96438650924E+03  0.65864270000E+03 0. -1.
    8880022    1    1    2    0    0 -0.45801573089E+03 -0.24536106892E+03 -0.13487819870E+04  0.14534734140E+04  0.15294330000E+03 0.  1.
<mgrwt>
<rscale>  0 0.75200143E+03</rscale>
<asrwt>0</asrwt>
<pdfrwt beam="1">  1        2 0.32633076E+00 0.83892233E+03</pdfrwt>
<pdfrwt beam="2">  1       -2 0.45647678E-01 0.83892233E+03</pdfrwt>
<totfact> 0.26640266E+01</totfact>
</mgrwt>
</event>
<event>
 4    1  0.3565372E-007  0.7120382E+03  0.7818608E-02  0.9950509E-01
         -2   -1    0    0    0  501 -0.00000000000E+00  0.00000000000E+00  0.14037247336E+03  0.14037247338E+03  0.25500000000E-02 0.  1.
          2   -1    0    0  501    0  0.00000000000E+00 -0.00000000000E+00 -0.20073474837E+04  0.20073474837E+04  0.25500000000E-02 0. -1.
    8880023    1    1    2    0    0 -0.16758472905E+03  0.21237593580E+03 -0.15398646766E+04  0.16965204414E+04  0.65864270000E+03 0.  0.
    8880022    1    1    2    0    0  0.16758472905E+03 -0.21237593580E+03 -0.32711033377E+03  0.45119951573E+03  0.15294330000E+03 0.  0.
<mgrwt>
<rscale>  0 0.57874636E+03</rscale>
<asrwt>0</asrwt>
<pdfrwt beam="1">  1        2 0.30882267E+00 0.71203819E+03</pdfrwt>
<pdfrwt beam="2">  1       -2 0.21595767E-01 0.71203819E+03</pdfrwt>
<totfact> 0.12697238E+02</totfact>
</mgrwt>
</event>
<event>
 4    1  0.3565372E-007  0.6660529E+03  0.7818608E-02  0.1018666E+00
          2   -1    0    0  501    0  0.00000000000E+00  0.00000000000E+00  0.15808009759E+04  0.15808009759E+04  0.25500000000E-02 0. -1.
         -2   -1    0    0    0  501 -0.00000000000E+00 -0.00000000000E+00 -0.14004032366E+03  0.14004032368E+03  0.25500000000E-02 0.  1.
    8880023    1    1    2    0    0 -0.98950952621E+02  0.49947845649E+01  0.13737137427E+04  0.15266682325E+04  0.65864270000E+03 0. -1.
    8880022    1    1    2    0    0  0.98950952621E+02 -0.49947845649E+01  0.67046909533E+02  0.19417306711E+03  0.15294330000E+03 0.  0.
<mgrwt>
<rscale>  0 0.48171115E+03</rscale>
<asrwt>0</asrwt>
<pdfrwt beam="1">  1        2 0.24320016E+00 0.66605288E+03</pdfrwt>
<pdfrwt beam="2">  1       -2 0.21544664E-01 0.66605288E+03</pdfrwt>
<totfact> 0.21874565E+02</totfact>
</mgrwt>
</event>
<event>
 4    1  0.3565372E-007  0.9989080E+03  0.7818608E-02  0.9382988E-01
         -2   -1    0    0    0  501 -0.00000000000E+00  0.00000000000E+00  0.41781117669E+03  0.41781117669E+03  0.25500000000E-02 0.  1.
          2   -1    0    0  501    0  0.00000000000E+00 -0.00000000000E+00 -0.40300761224E+04  0.40300761224E+04  0.25500000000E-02 0. -1.
    8880023    1    1    2    0    0 -0.69242635756E+03  0.29077951174E+03 -0.35398076637E+04  0.36780505009E+04  0.65864270000E+03 0.  0.
    8880022    1    1    2    0    0  0.69242635756E+03 -0.29077951174E+03 -0.72457282023E+02  0.76983679818E+03  0.15294330000E+03 0.  0.
<mgrwt>
<rscale>  0 0.93489048E+03</rscale>
<asrwt>0</asrwt>
<pdfrwt beam="1">  1        2 0.62001169E+00 0.99890800E+03</pdfrwt>
<pdfrwt beam="2">  1       -2 0.64278645E-01 0.99890800E+03</pdfrwt>
<totfact> 0.76325028E-01</totfact>
</mgrwt>
</event>
<event>
 4    1  0.3565372E-007  0.9994363E+03  0.7818608E-02  0.9382296E-01
          2   -1    0    0  501    0  0.00000000000E+00  0.00000000000E+00  0.50680545365E+03  0.50680545365E+03  0.25500000000E-02 0. -1.
         -2   -1    0    0    0  501 -0.00000000000E+00 -0.00000000000E+00 -0.16821769314E+04  0.16821769314E+04  0.25500000000E-02 0.  1.
    8880023    1    1    2    0    0  0.74975483574E+03 -0.54132821974E+02 -0.97476035664E+03  0.13960768730E+04  0.65864270000E+03 0.  0.
    8880022    1    1    2    0    0 -0.74975483574E+03  0.54132821974E+02 -0.20061112110E+03  0.79290551206E+03  0.15294330000E+03 0.  0.
<mgrwt>
<rscale>  0 0.93547122E+03</rscale>
<asrwt>0</asrwt>
<pdfrwt beam="1">  1        2 0.77970071E-01 0.99943628E+03</pdfrwt>
<pdfrwt beam="2">  1       -2 0.25879645E+00 0.99943628E+03</pdfrwt>
<totfact> 0.34437799E+00</totfact>
</mgrwt>
</event>
<event>
 4    1  0.3565372E-007  0.1512041E+04  0.7818608E-02  0.8901180E-01
          2   -1    0    0  501    0  0.00000000000E+00  0.00000000000E+00  0.14873329807E+04  0.14873329807E+04  0.25500000000E-02 0. -1.
         -2   -1    0    0    0  501 -0.00000000000E+00 -0.00000000000E+00 -0.22555961067E+04  0.22555961067E+04  0.25500000000E-02 0.  1.
    8880023    1    1    2    0    0 -0.63935082040E+03 -0.12015352262E+04  0.75870485519E+03  0.16917149981E+04  0.65864270000E+03 0. -1.
    8880022    1    1    2    0    0  0.63935082040E+03  0.12015352262E+04 -0.15269679811E+04  0.20512140892E+04  0.15294330000E+03 0.  0.
<mgrwt>
<rscale>  0 0.14751028E+04</rscale>
<asrwt>0</asrwt>
<pdfrwt beam="1">  1        2 0.22882046E+00 0.15120405E+04</pdfrwt>
<pdfrwt beam="2">  1       -2 0.34701478E+00 0.15120405E+04</pdfrwt>
<totfact> 0.19727743E-01</totfact>
</mgrwt>
</event>
<event>
 4    1  0.3565372E-007  0.7456966E+03  0.7818608E-02  0.9843654E-01
         -2   -1    0    0    0  501 -0.00000000000E+00  0.00000000000E+00  0.31864238271E+03  0.31864238272E+03  0.25500000000E-02 0.  1.
          2   -1    0    0  501    0  0.00000000000E+00 -0.00000000000E+00 -0.10395995174E+04  0.10395995175E+04  0.25500000000E-02 0. -1.
    8880023    1    1    2    0    0  0.34533514618E+03  0.54743139192E+02 -0.34187262842E+03  0.82032936971E+03  0.65864270000E+03 0.  0.
    8880022    1    1    2    0    0 -0.34533514618E+03 -0.54743139192E+02 -0.37908450632E+03  0.53791253046E+03  0.15294330000E+03 0.  1.
<mgrwt>
<rscale>  0 0.63071549E+03</rscale>
<asrwt>0</asrwt>
<pdfrwt beam="1">  1        2 0.15993839E+00 0.74569657E+03</pdfrwt>
<pdfrwt beam="2">  1       -2 0.49021905E-01 0.74569657E+03</pdfrwt>
<totfact> 0.94974257E+01</totfact>
</mgrwt>
</event>
<event>
 4    1  0.3565372E-007  0.8173687E+03  0.7818608E-02  0.9674428E-01
          2   -1    0    0  501    0  0.00000000000E+00  0.00000000000E+00  0.15985463439E+04  0.15985463439E+04  0.25500000000E-02 0. -1.
         -2   -1    0    0    0  501 -0.00000000000E+00 -0.00000000000E+00 -0.37561246218E+03  0.37561246219E+03  0.25500000000E-02 0.  1.
    8880023    1    1    2    0    0 -0.32382041528E+03 -0.35975237219E+03  0.12176111753E+04  0.14665158066E+04  0.65864270000E+03 0. -1.
    8880022    1    1    2    0    0  0.32382041528E+03  0.35975237219E+03  0.53227063983E+01  0.50764299942E+03  0.15294330000E+03 0.  0.
<mgrwt>
<rscale>  0 0.72559978E+03</rscale>
<asrwt>0</asrwt>
<pdfrwt beam="1">  1        2 0.24593021E+00 0.81736873E+03</pdfrwt>
<pdfrwt beam="2">  1       -2 0.57786532E-01 0.81736873E+03</pdfrwt>
<totfact> 0.31860496E+01</totfact>
</mgrwt>
</event>
<event>
 4    1  0.3565372E-007  0.7093035E+03  0.7818608E-02  0.9960596E-01
         -2   -1    0    0    0  501 -0.00000000000E+00  0.00000000000E+00  0.21242636038E+03  0.21242636040E+03  0.25500000000E-02 0.  1.
          2   -1    0    0  501    0  0.00000000000E+00 -0.00000000000E+00 -0.15531187019E+04  0.15531187019E+04  0.25500000000E-02 0. -1.
    8880023    1    1    2    0    0 -0.22762902489E+03 -0.13223592953E+03 -0.49022597529E+03  0.86222562427E+03  0.65864270000E+03 0.  0.
    8880022    1    1    2    0    0  0.22762902489E+03  0.13223592953E+03 -0.85046636626E+03  0.90331943806E+03  0.15294330000E+03 0.  0.
<mgrwt>
<rscale>  0 0.57412300E+03</rscale>
<asrwt>0</asrwt>
<pdfrwt beam="1">  1        2 0.23894133E+00 0.70930355E+03</pdfrwt>
<pdfrwt beam="2">  1       -2 0.32680979E-01 0.70930355E+03</pdfrwt>
<totfact> 0.10574316E+02</totfact>
</mgrwt>
</event>
<event>
 4    1  0.3565372E-007  0.8756744E+03  0.7818608E-02  0.9566268E-01
          2   -1    0    0  501    0  0.00000000000E+00  0.00000000000E+00  0.23662746241E+04  0.23662746241E+04  0.25500000000E-02 0. -1.
         -2   -1    0    0    0  501 -0.00000000000E+00 -0.00000000000E+00 -0.45101817707E+03  0.45101817708E+03  0.25500000000E-02 0.  1.
    8880023    1    1    2    0    0  0.14929412912E+02 -0.57686441809E+03  0.20287054199E+04  0.22096269665E+04  0.65864270000E+03 0.  0.
    8880022    1    1    2    0    0 -0.14929412912E+02  0.57686441809E+03 -0.11344897282E+03  0.60766583471E+03  0.15294330000E+03 0.  0.
<mgrwt>
<rscale>  0 0.79569611E+03</rscale>
<asrwt>0</asrwt>
<pdfrwt beam="1">  1        2 0.36404225E+00 0.87567440E+03</pdfrwt>
<pdfrwt beam="2">  1       -2 0.69387413E-01 0.87567440E+03</pdfrwt>
<totfact> 0.80748463E+00</totfact>
</mgrwt>
</event>
<event>
 4    1  0.3565372E-007  0.9470008E+03  0.7818608E-02  0.9454442E-01
         -2   -1    0    0    0  501 -0.00000000000E+00  0.00000000000E+00  0.86043009224E+03  0.86043009224E+03  0.25500000000E-02 0.  1.
          2   -1    0    0  501    0  0.00000000000E+00 -0.00000000000E+00 -0.90724370683E+03  0.90724370683E+03  0.25500000000E-02 0. -1.
    8880023    1    1    2    0    0 -0.23488686561E+03 -0.63861452196E+03  0.29379273787E+03  0.99152646277E+03  0.65864270000E+03 0.  0.
    8880022    1    1    2    0    0  0.23488686561E+03  0.63861452196E+03 -0.34060635246E+03  0.77614733630E+03  0.15294330000E+03 0.  0.
<mgrwt>
<rscale>  0 0.87727564E+03</rscale>
<asrwt>0</asrwt>
<pdfrwt beam="1">  1        2 0.13957595E+00 0.94700082E+03</pdfrwt>
<pdfrwt beam="2">  1       -2 0.13237386E+00 0.94700082E+03</pdfrwt>
<totfact> 0.11985669E+01</totfact>
</mgrwt>
</event>
<event>
 4    1  0.3565372E-007  0.6734044E+03  0.7818608E-02  0.1013331E+00
          2   -1    0    0  501    0  0.00000000000E+00  0.00000000000E+00  0.18400894844E+04  0.18400894844E+04  0.25500000000E-02 0. -1.
         -2   -1    0    0    0  501 -0.00000000000E+00 -0.00000000000E+00 -0.10567350302E+03  0.10567350306E+03  0.25500000000E-02 0.  1.
    8880023    1    1    2    0    0  0.12582852600E+03  0.61890500303E+02  0.13646332669E+04  0.15217415718E+04  0.65864270000E+03 0.  1.
    8880022    1    1    2    0    0 -0.12582852600E+03 -0.61890500303E+02  0.36978271443E+03  0.42402141560E+03  0.15294330000E+03 0.  1.
<mgrwt>
<rscale>  0 0.50171811E+03</rscale>
<asrwt>0</asrwt>
<pdfrwt beam="1">  1        2 0.28309068E+00 0.67340438E+03</pdfrwt>
<pdfrwt beam="2">  1       -2 0.16257463E-01 0.67340438E+03</pdfrwt>
<totfact> 0.25709354E+02</totfact>
</mgrwt>
</event>
<event>
 4    1  0.3565372E-007  0.9320355E+03  0.7818608E-02  0.9476446E-01
         -2   -1    0    0    0  501 -0.00000000000E+00  0.00000000000E+00  0.30393232939E+03  0.30393232940E+03  0.25500000000E-02 0.  1.
          2   -1    0    0  501    0  0.00000000000E+00 -0.00000000000E+00 -0.38129672265E+04  0.38129672265E+04  0.25500000000E-02 0. -1.
    8880023    1    1    2    0    0  0.56373498649E+03 -0.34217367596E+03 -0.32680009065E+04  0.33983113587E+04  0.65864270000E+03 0. -1.
    8880022    1    1    2    0    0 -0.56373498649E+03  0.34217367596E+03 -0.24103399060E+03  0.71858819719E+03  0.15294330000E+03 0.  0.
<mgrwt>
<rscale>  0 0.86042834E+03</rscale>
<asrwt>0</asrwt>
<pdfrwt beam="1">  1        2 0.58661031E+00 0.93203550E+03</pdfrwt>
<pdfrwt beam="2">  1       -2 0.46758823E-01 0.93203550E+03</pdfrwt>
<totfact> 0.22071521E+00</totfact>
</mgrwt>
</event>
<event>
 4    1  0.3565372E-007  0.8646035E+03  0.7818608E-02  0.9585427E-01
         -2   -1    0    0    0  501 -0.00000000000E+00  0.00000000000E+00  0.44971612676E+03  0.44971612677E+03  0.25500000000E-02 0.  1.
          2   -1    0    0  501    0  0.00000000000E+00 -0.00000000000E+00 -0.18513420800E+04  0.18513420800E+04  0.25500000000E-02 0. -1.
    8880023    1    1    2    0    0 -0.47844719477E+03 -0.29123399765E+03 -0.14811318183E+04  0.17150191337E+04  0.65864270000E+03 0. -1.
    8880022    1    1    2    0    0  0.47844719477E+03  0.29123399765E+03  0.79505865045E+02  0.58603907307E+03  0.15294330000E+03 0.  0.
<mgrwt>
<rscale>  0 0.78268299E+03</rscale>
<asrwt>0</asrwt>
<pdfrwt beam="1">  1        2 0.28482185E+00 0.86460347E+03</pdfrwt>
<pdfrwt beam="2">  1       -2 0.69187097E-01 0.86460347E+03</pdfrwt>
<totfact> 0.15659563E+01</totfact>
</mgrwt>
</event>
<event>
 4    1  0.3565372E-007  0.7414658E+03  0.7818608E-02  0.9855698E-01
         -2   -1    0    0    0  501 -0.00000000000E+00  0.00000000000E+00  0.35975275670E+03  0.35975275670E+03  0.25500000000E-02 0.  1.
          2   -1    0    0  501    0  0.00000000000E+00 -0.00000000000E+00 -0.87357214024E+03  0.87357214025E+03  0.25500000000E-02 0. -1.
    8880023    1    1    2    0    0  0.18513408203E+03  0.28580887668E+03 -0.40307756795E+03  0.84394494747E+03  0.65864270000E+03 0.  1.
    8880022    1    1    2    0    0 -0.18513408203E+03 -0.28580887668E+03 -0.11074181560E+03  0.38937994948E+03  0.15294330000E+03 0.  0.
<mgrwt>
<rscale>  0 0.62457254E+03</rscale>
<asrwt>0</asrwt>
<pdfrwt beam="1">  1        2 0.13439571E+00 0.74146581E+03</pdfrwt>
<pdfrwt beam="2">  1       -2 0.55346578E-01 0.74146581E+03</pdfrwt>
<totfact> 0.95059545E+01</totfact>
</mgrwt>
</event>
<event>
 4    1  0.3565372E-007  0.1069343E+04  0.7818608E-02  0.9295982E-01
          2   -1    0    0  501    0  0.00000000000E+00  0.00000000000E+00  0.15299550725E+04  0.15299550725E+04  0.25500000000E-02 0. -1.
         -2   -1    0    0    0  501 -0.00000000000E+00 -0.00000000000E+00 -0.79135532400E+03  0.79135532401E+03  0.25500000000E-02 0.  1.
    8880023    1    1    2    0    0  0.27973534995E+03 -0.79462742535E+03  0.95989725044E+03  0.14369751385E+04  0.65864270000E+03 0.  0.
    8880022    1    1    2    0    0 -0.27973534995E+03  0.79462742535E+03 -0.22129750193E+03  0.88433525798E+03  0.15294330000E+03 0.  0.
<mgrwt>
<rscale>  0 0.10115363E+04</rscale>
<asrwt>0</asrwt>
<pdfrwt beam="1">  1        2 0.23537770E+00 0.10693432E+04</pdfrwt>
<pdfrwt beam="2">  1       -2 0.12174697E+00 0.10693432E+04</pdfrwt>
<totfact> 0.61719850E+00</totfact>
</mgrwt>
</event>
<event>
 4    1  0.3565372E-007  0.1241686E+04  0.7818608E-02  0.9117629E-01
         -2   -1    0    0    0  501 -0.00000000000E+00  0.00000000000E+00  0.19707088161E+04  0.19707088161E+04  0.25500000000E-02 0.  1.
          2   -1    0    0  501    0  0.00000000000E+00 -0.00000000000E+00 -0.12122057948E+04  0.12122057948E+04  0.25500000000E-02 0. -1.
    8880023    1    1    2    0    0 -0.12295924249E+03 -0.10453968917E+04  0.14540117407E+04  0.19120496816E+04  0.65864270000E+03 0.  1.
    8880022    1    1    2    0    0  0.12295924249E+03  0.10453968917E+04 -0.69550871950E+03  0.12708649293E+04  0.15294330000E+03 0.  0.
<mgrwt>
<rscale>  0 0.11945633E+04</rscale>
<asrwt>0</asrwt>
<pdfrwt beam="1">  1        2 0.18649320E+00 0.12416859E+04</pdfrwt>
<pdfrwt beam="2">  1       -2 0.30318597E+00 0.12416859E+04</pdfrwt>
<totfact> 0.54997510E-01</totfact>
</mgrwt>
</event>
<event>
 4    1  0.3565372E-007  0.7641832E+03  0.7818608E-02  0.9794395E-01
         -2   -1    0    0    0  501 -0.00000000000E+00  0.00000000000E+00  0.53525049785E+03  0.53525049785E+03  0.25500000000E-02 0.  1.
          2   -1    0    0  501    0  0.00000000000E+00 -0.00000000000E+00 -0.37811199865E+04  0.37811199865E+04  0.25500000000E-02 0. -1.
    8880023    1    1    2    0    0  0.11266373250E+03 -0.37077308518E+03 -0.36540664806E+04  0.37331190509E+04  0.65864270000E+03 0. -1.
    8880022    1    1    2    0    0 -0.11266373250E+03  0.37077308518E+03  0.40819699197E+03  0.58325143342E+03  0.15294330000E+03 0.  0.
<mgrwt>
<rscale>  0 0.65664181E+03</rscale>
<asrwt>0</asrwt>
<pdfrwt beam="1">  1        2 0.58171075E+00 0.76418323E+03</pdfrwt>
<pdfrwt beam="2">  1       -2 0.82346233E-01 0.76418323E+03</pdfrwt>
<totfact> 0.72183933E-01</totfact>
</mgrwt>
</event>
<event>
 4    1  0.3565372E-007  0.6647784E+03  0.7818608E-02  0.1019720E+00
         -2   -1    0    0    0  501 -0.00000000000E+00  0.00000000000E+00  0.28290735894E+03  0.28290735895E+03  0.25500000000E-02 0.  1.
          2   -1    0    0  501    0  0.00000000000E+00 -0.00000000000E+00 -0.75097816925E+03  0.75097816926E+03  0.25500000000E-02 0. -1.
    8880023    1    1    2    0    0 -0.11286077757E+02 -0.89402274746E+02 -0.52540840745E+03  0.84733956780E+03  0.65864270000E+03 0. -1.
    8880022    1    1    2    0    0  0.11286077757E+02  0.89402274746E+02  0.57337597137E+02  0.18654596040E+03  0.15294330000E+03 0.  0.
<mgrwt>
<rscale>  0 0.47787777E+03</rscale>
<asrwt>0</asrwt>
<pdfrwt beam="1">  1        2 0.11553510E+00 0.66477842E+03</pdfrwt>
<pdfrwt beam="2">  1       -2 0.43524209E-01 0.66477842E+03</pdfrwt>
<totfact> 0.19009201E+02</totfact>
</mgrwt>
</event>
<event>
 4    1  0.3565372E-007  0.7023783E+03  0.7818608E-02  0.9987475E-01
          2   -1    0    0  501    0  0.00000000000E+00  0.00000000000E+00  0.13185808772E+04  0.13185808772E+04  0.25500000000E-02 0. -1.
         -2   -1    0    0    0  501 -0.00000000000E+00 -0.00000000000E+00 -0.27384863696E+03  0.27384863697E+03  0.25500000000E-02 0.  1.
    8880023    1    1    2    0    0 -0.21496052769E+03 -0.11539940136E+03  0.10942243031E+04  0.13002546220E+04  0.65864270000E+03 0. -1.
    8880022    1    1    2    0    0  0.21496052769E+03  0.11539940136E+03 -0.49492062877E+02  0.29217489215E+03  0.15294330000E+03 0.  0.
<mgrwt>
<rscale>  0 0.56202879E+03</rscale>
<asrwt>0</asrwt>
<pdfrwt beam="1">  1        2 0.20285860E+00 0.70237829E+03</pdfrwt>
<pdfrwt beam="2">  1       -2 0.42130558E-01 0.70237829E+03</pdfrwt>
<totfact> 0.87931714E+01</totfact>
</mgrwt>
</event>
<event>
 4    1  0.3565372E-007  0.7528290E+03  0.7818608E-02  0.9824039E-01
          2   -1    0    0  501    0  0.00000000000E+00  0.00000000000E+00  0.19486976681E+04  0.19486976681E+04  0.25500000000E-02 0. -1.
         -2   -1    0    0    0  501 -0.00000000000E+00 -0.00000000000E+00 -0.25480081544E+03  0.25480081545E+03  0.25500000000E-02 0.  1.
    8880023    1    1    2    0    0  0.21849820107E+03 -0.29188999312E+03  0.16398915182E+04  0.18044377600E+04  0.65864270000E+03 0. -1.
    8880022    1    1    2    0    0 -0.21849820107E+03  0.29188999312E+03  0.54005334501E+02  0.39906072360E+03  0.15294330000E+03 0.  0.
<mgrwt>
<rscale>  0 0.64088267E+03</rscale>
<asrwt>0</asrwt>
<pdfrwt beam="1">  1        2 0.29979964E+00 0.75282896E+03</pdfrwt>
<pdfrwt beam="2">  1       -2 0.39200125E-01 0.75282896E+03</pdfrwt>
<totfact> 0.45179965E+01</totfact>
</mgrwt>
</event>
<event>
 4    1  0.3565372E-007  0.7152864E+03  0.7818608E-02  0.9938870E-01
         -2   -1    0    0    0  501 -0.00000000000E+00  0.00000000000E+00  0.45209846287E+03  0.45209846287E+03  0.25500000000E-02 0.  1.
          2   -1    0    0  501    0  0.00000000000E+00 -0.00000000000E+00 -0.76937616803E+03  0.76937616804E+03  0.25500000000E-02 0. -1.
    8880023    1    1    2    0    0 -0.36159215896E+02  0.27661706981E+03  0.71803095508E+02  0.71888134139E+03  0.65864270000E+03 0.  1.
    8880022    1    1    2    0    0  0.36159215896E+02 -0.27661706981E+03 -0.38908080067E+03  0.50259328952E+03  0.15294330000E+03 0.  0.
<mgrwt>
<rscale>  0 0.58413902E+03</rscale>
<asrwt>0</asrwt>
<pdfrwt beam="1">  1        2 0.11836556E+00 0.71528645E+03</pdfrwt>
<pdfrwt beam="2">  1       -2 0.69553610E-01 0.71528645E+03</pdfrwt>
<totfact> 0.69438399E+01</totfact>
</mgrwt>
</event>
<event>
 4    1  0.3565372E-007  0.6779331E+03  0.7818608E-02  0.1010518E+00
         -2   -1    0    0    0  501 -0.00000000000E+00  0.00000000000E+00  0.24404182945E+03  0.24404182947E+03  0.25500000000E-02 0.  1.
          2   -1    0    0  501    0  0.00000000000E+00 -0.00000000000E+00 -0.12312258637E+04  0.12312258637E+04  0.25500000000E-02 0. -1.
    8880023    1    1    2    0    0  0.12342270487E+03  0.10271312211E+03 -0.10454221227E+04  0.12459938886E+04  0.65864270000E+03 0.  0.
    8880022    1    1    2    0    0 -0.12342270487E+03 -0.10271312211E+03  0.58238088393E+02  0.22927380462E+03  0.15294330000E+03 0.  0.
<mgrwt>
<rscale>  0 0.51269370E+03</rscale>
<asrwt>0</asrwt>
<pdfrwt beam="1">  1        2 0.18941936E+00 0.67793315E+03</pdfrwt>
<pdfrwt beam="2">  1       -2 0.37544898E-01 0.67793315E+03</pdfrwt>
<totfact> 0.12388508E+02</totfact>
</mgrwt>
</event>
<event>
 4    1  0.3565372E-007  0.6826316E+03  0.7818608E-02  0.1007873E+00
          2   -1    0    0  501    0  0.00000000000E+00  0.00000000000E+00  0.99723859845E+03  0.99723859846E+03  0.25500000000E-02 0. -1.
         -2   -1    0    0    0  501 -0.00000000000E+00 -0.00000000000E+00 -0.28443812796E+03  0.28443812797E+03  0.25500000000E-02 0.  1.
    8880023    1    1    2    0    0  0.59388533002E+02  0.16925918886E+03  0.78003147207E+03  0.10365495524E+04  0.65864270000E+03 0. -1.
    8880022    1    1    2    0    0 -0.59388533002E+02 -0.16925918886E+03 -0.67231001572E+02  0.24512717404E+03  0.15294330000E+03 0.  0.
<mgrwt>
<rscale>  0 0.52328974E+03</rscale>
<asrwt>0</asrwt>
<pdfrwt beam="1">  1        2 0.15342132E+00 0.68263158E+03</pdfrwt>
<pdfrwt beam="2">  1       -2 0.43759712E-01 0.68263158E+03</pdfrwt>
<totfact> 0.12742500E+02</totfact>
</mgrwt>
</event>
<event>
 4    1  0.3565372E-007  0.1104263E+04  0.7818608E-02  0.9256324E-01
          2   -1    0    0  501    0  0.00000000000E+00  0.00000000000E+00  0.63685391539E+03  0.63685391539E+03  0.25500000000E-02 0. -1.
         -2   -1    0    0    0  501 -0.00000000000E+00 -0.00000000000E+00 -0.16447759198E+04  0.16447759199E+04  0.25500000000E-02 0.  1.
    8880023    1    1    2    0    0 -0.29015413714E+03 -0.83749480287E+03 -0.78539062382E+03  0.13550777123E+04  0.65864270000E+03 0.  0.
    8880022    1    1    2    0    0  0.29015413714E+03  0.83749480287E+03 -0.22253138064E+03  0.92655212294E+03  0.15294330000E+03 0.  0.
<mgrwt>
<rscale>  0 0.10490509E+04</rscale>
<asrwt>0</asrwt>
<pdfrwt beam="1">  1        2 0.97977526E-01 0.11042632E+04</pdfrwt>
<pdfrwt beam="2">  1       -2 0.25304245E+00 0.11042632E+04</pdfrwt>
<totfact> 0.28052825E+00</totfact>
</mgrwt>
</event>
<event>
 4    1  0.3565372E-007  0.8849617E+03  0.7818608E-02  0.9550617E-01
         -2   -1    0    0    0  501 -0.00000000000E+00  0.00000000000E+00  0.14791321780E+04  0.14791321780E+04  0.25500000000E-02 0.  1.
          2   -1    0    0  501    0  0.00000000000E+00 -0.00000000000E+00 -0.65704896913E+03  0.65704896913E+03  0.25500000000E-02 0. -1.
    8880023    1    1    2    0    0  0.29007751490E+02  0.59034356211E+03 -0.23484541939E+03  0.91559245751E+03  0.65864270000E+03 0. -1.
    8880022    1    1    2    0    0 -0.29007751490E+02 -0.59034356211E+03  0.10569286282E+04  0.12205886896E+04  0.15294330000E+03 0.  0.
<mgrwt>
<rscale>  0 0.80652698E+03</rscale>
<asrwt>0</asrwt>
<pdfrwt beam="1">  1        2 0.10108446E+00 0.88496168E+03</pdfrwt>
<pdfrwt beam="2">  1       -2 0.22755879E+00 0.88496168E+03</pdfrwt>
<totfact> 0.39621616E+00</totfact>
</mgrwt>
</event>
<event>
 4    1  0.3565372E-007  0.6639553E+03  0.7818608E-02  0.1020426E+00
          2   -1    0    0  501    0  0.00000000000E+00  0.00000000000E+00  0.29792685890E+03  0.29792685891E+03  0.25500000000E-02 0. -1.
         -2   -1    0    0    0  501 -0.00000000000E+00 -0.00000000000E+00 -0.10016233599E+04  0.10016233599E+04  0.25500000000E-02 0.  1.
    8880023    1    1    2    0    0  0.79902986263E+02  0.25337957155E+02 -0.10034313444E+03  0.67149493682E+03  0.65864270000E+03 0. -1.
    8880022    1    1    2    0    0 -0.79902986263E+02 -0.25337957155E+02 -0.60335336653E+03  0.62805528197E+03  0.15294330000E+03 0.  0.
<mgrwt>
<rscale>  0 0.47533058E+03</rscale>
<asrwt>0</asrwt>
<pdfrwt beam="1">  1        2 0.45834902E-01 0.66395535E+03</pdfrwt>
<pdfrwt beam="2">  1       -2 0.15409590E+00 0.66395535E+03</pdfrwt>
<totfact> 0.31425033E+01</totfact>
</mgrwt>
</event>
<event>
 4    1  0.3565372E-007  0.7202913E+03  0.7818608E-02  0.9921602E-01
         -2   -1    0    0    0  501 -0.00000000000E+00  0.00000000000E+00  0.38372817382E+03  0.38372817383E+03  0.25500000000E-02 0.  1.
          2   -1    0    0  501    0  0.00000000000E+00 -0.00000000000E+00 -0.15071408824E+04  0.15071408824E+04  0.25500000000E-02 0. -1.
    8880023    1    1    2    0    0  0.17433886174E+03 -0.23369916326E+03 -0.13226314103E+04  0.15060456140E+04  0.65864270000E+03 0. -1.
    8880022    1    1    2    0    0 -0.17433886174E+03  0.23369916326E+03  0.19921870167E+03  0.38482344229E+03  0.15294330000E+03 0.  0.
<mgrwt>
<rscale>  0 0.59225710E+03</rscale>
<asrwt>0</asrwt>
<pdfrwt beam="1">  1        2 0.23186783E+00 0.72029129E+03</pdfrwt>
<pdfrwt beam="2">  1       -2 0.59035104E-01 0.72029129E+03</pdfrwt>
<totfact> 0.34601134E+01</totfact>
</mgrwt>
</event>
<event>
 4    1  0.3565372E-007  0.1689587E+04  0.7818608E-02  0.8786205E-01
         -2   -1    0    0    0  501 -0.00000000000E+00  0.00000000000E+00  0.13385929598E+04  0.13385929598E+04  0.25500000000E-02 0.  1.
          2   -1    0    0  501    0  0.00000000000E+00 -0.00000000000E+00 -0.26455338809E+04  0.26455338809E+04  0.25500000000E-02 0. -1.
    8880023    1    1    2    0    0 -0.14191785374E+03  0.15494359572E+04 -0.16737369883E+04  0.23782552796E+04  0.65864270000E+03 0.  0.
    8880022    1    1    2    0    0  0.14191785374E+03 -0.15494359572E+04  0.36679606719E+03  0.16058715611E+04  0.15294330000E+03 0.  0.
<mgrwt>
<rscale>  0 0.16571213E+04</rscale>
<asrwt>0</asrwt>
<pdfrwt beam="1">  1        2 0.40700521E+00 0.16895865E+04</pdfrwt>
<pdfrwt beam="2">  1       -2 0.20593738E+00 0.16895865E+04</pdfrwt>
<totfact> 0.32038763E-01</totfact>
</mgrwt>
</event>
<event>
 4    1  0.3565372E-007  0.7677097E+03  0.7818608E-02  0.9785542E-01
         -2   -1    0    0    0  501 -0.00000000000E+00  0.00000000000E+00  0.14090283881E+04  0.14090283881E+04  0.25500000000E-02 0.  1.
          2   -1    0    0  501    0  0.00000000000E+00 -0.00000000000E+00 -0.39318706394E+03  0.39318706394E+03  0.25500000000E-02 0. -1.
    8880023    1    1    2    0    0 -0.31600679812E+03  0.23602487022E+03  0.75886429920E+02  0.77145122486E+03  0.65864270000E+03 0. -1.
    8880022    1    1    2    0    0  0.31600679812E+03 -0.23602487022E+03  0.93995489424E+03  0.10307642272E+04  0.15294330000E+03 0.  1.
<mgrwt>
<rscale>  0 0.66144264E+03</rscale>
<asrwt>0</asrwt>
<pdfrwt beam="1">  1        2 0.60490318E-01 0.76770974E+03</pdfrwt>
<pdfrwt beam="2">  1       -2 0.21677360E+00 0.76770974E+03</pdfrwt>
<totfact> 0.85642001E+00</totfact>
</mgrwt>
</event>
<event>
 4    1  0.3565372E-007  0.7129056E+03  0.7818608E-02  0.9947365E-01
          2   -1    0    0  501    0  0.00000000000E+00  0.00000000000E+00  0.15594614316E+04  0.15594614316E+04  0.25500000000E-02 0. -1.
         -2   -1    0    0    0  501 -0.00000000000E+00 -0.00000000000E+00 -0.48916482022E+03  0.48916482023E+03  0.25500000000E-02 0.  1.
    8880023    1    1    2    0    0 -0.34328124047E+02  0.27063962510E+03  0.14142292912E+04  0.15837546910E+04  0.65864270000E+03 0. -1.
    8880022    1    1    2    0    0  0.34328124047E+02 -0.27063962510E+03 -0.34393267986E+03  0.46487156083E+03  0.15294330000E+03 0.  0.
<mgrwt>
<rscale>  0 0.58019663E+03</rscale>
<asrwt>0</asrwt>
<pdfrwt beam="1">  1        2 0.23991714E+00 0.71290563E+03</pdfrwt>
<pdfrwt beam="2">  1       -2 0.75256127E-01 0.71290563E+03</pdfrwt>
<totfact> 0.19181704E+01</totfact>
</mgrwt>
</event>
<event>
 4    1  0.3565372E-007  0.6869674E+03  0.7818608E-02  0.1005629E+00
         -2   -1    0    0    0  501 -0.00000000000E+00  0.00000000000E+00  0.11485735661E+04  0.11485735661E+04  0.25500000000E-02 0.  1.
          2   -1    0    0  501    0  0.00000000000E+00 -0.00000000000E+00 -0.76554311305E+03  0.76554311305E+03  0.25500000000E-02 0. -1.
    8880023    1    1    2    0    0 -0.10806551375E+03  0.16259087826E+03 -0.59272984564E+03  0.90733280837E+03  0.65864270000E+03 0. -1.
    8880022    1    1    2    0    0  0.10806551375E+03 -0.16259087826E+03  0.97576029869E+03  0.10067838708E+04  0.15294330000E+03 0.  0.
<mgrwt>
<rscale>  0 0.53249608E+03</rscale>
<asrwt>0</asrwt>
<pdfrwt beam="1">  1        2 0.11777586E+00 0.68696736E+03</pdfrwt>
<pdfrwt beam="2">  1       -2 0.17670363E+00 0.68696736E+03</pdfrwt>
<totfact> 0.71641100E+00</totfact>
</mgrwt>
</event>
<event>
 4    1  0.3565372E-007  0.1244418E+04  0.7818608E-02  0.9115109E-01
          2   -1    0    0  501    0  0.00000000000E+00  0.00000000000E+00  0.14392007263E+04  0.14392007263E+04  0.25500000000E-02 0. -1.
         -2   -1    0    0    0  501 -0.00000000000E+00 -0.00000000000E+00 -0.14688193840E+04  0.14688193840E+04  0.25500000000E-02 0.  1.
    8880023    1    1    2    0    0 -0.10526262130E+04 -0.82119667372E+02  0.86516479669E+03  0.15156140391E+04  0.65864270000E+03 0.  0.
    8880022    1    1    2    0    0  0.10526262130E+04  0.82119667372E+02 -0.89478345439E+03  0.13924060712E+04  0.15294330000E+03 0.  0.
<mgrwt>
<rscale>  0 0.11974295E+04</rscale>
<asrwt>0</asrwt>
<pdfrwt beam="1">  1        2 0.22141550E+00 0.12444179E+04</pdfrwt>
<pdfrwt beam="2">  1       -2 0.22597221E+00 0.12444179E+04</pdfrwt>
<totfact> 0.12027775E+00</totfact>
</mgrwt>
</event>
<event>
 4    1  0.3565372E-007  0.6815333E+03  0.7818608E-02  0.1008469E+00
         -2   -1    0    0    0  501 -0.00000000000E+00  0.00000000000E+00  0.62537455492E+03  0.62537455492E+03  0.25500000000E-02 0.  1.
          2   -1    0    0  501    0  0.00000000000E+00 -0.00000000000E+00 -0.26111648742E+04  0.26111648742E+04  0.25500000000E-02 0. -1.
    8880023    1    1    2    0    0  0.11865939554E+03 -0.12883074758E+03 -0.25430079895E+04  0.26327508911E+04  0.65864270000E+03 0. -1.
    8880022    1    1    2    0    0 -0.11865939554E+03  0.12883074758E+03  0.55721767020E+03  0.60378853804E+03  0.15294330000E+03 0.  0.
<mgrwt>
<rscale>  0 0.52087548E+03</rscale>
<asrwt>0</asrwt>
<pdfrwt beam="1">  1        2 0.40171767E+00 0.68153329E+03</pdfrwt>
<pdfrwt beam="2">  1       -2 0.96211471E-01 0.68153329E+03</pdfrwt>
<totfact> 0.28983214E+00</totfact>
</mgrwt>
</event>
<event>
 4    1  0.3565372E-007  0.1489681E+04  0.7818608E-02  0.8916957E-01
          2   -1    0    0  501    0  0.00000000000E+00  0.00000000000E+00  0.15124842912E+04  0.15124842912E+04  0.25500000000E-02 0. -1.
         -2   -1    0    0    0  501 -0.00000000000E+00 -0.00000000000E+00 -0.13337602129E+04  0.13337602129E+04  0.25500000000E-02 0.  1.
    8880023    1    1    2    0    0 -0.19372846610E+03  0.13220466662E+04  0.18667036116E+03  0.15013307884E+04  0.65864270000E+03 0.  0.
    8880022    1    1    2    0    0  0.19372846610E+03 -0.13220466662E+04 -0.79462828989E+01  0.13449137157E+04  0.15294330000E+03 0.  0.
<mgrwt>
<rscale>  0 0.14520835E+04</rscale>
<asrwt>0</asrwt>
<pdfrwt beam="1">  1        2 0.23268989E+00 0.14896806E+04</pdfrwt>
<pdfrwt beam="2">  1       -2 0.20519388E+00 0.14896806E+04</pdfrwt>
<totfact> 0.14482334E+00</totfact>
</mgrwt>
</event>
<event>
 4    1  0.3565372E-007  0.8418964E+03  0.7818608E-02  0.9626615E-01
         -2   -1    0    0    0  501 -0.00000000000E+00  0.00000000000E+00  0.15016211305E+03  0.15016211307E+03  0.25500000000E-02 0.  1.
          2   -1    0    0  501    0  0.00000000000E+00 -0.00000000000E+00 -0.32913576797E+04  0.32913576797E+04  0.25500000000E-02 0. -1.
    8880023    1    1    2    0    0  0.11217460257E+03  0.51224623142E+03 -0.21643146706E+04  0.23222935953E+04  0.65864270000E+03 0. -1.
    8880022    1    1    2    0    0 -0.11217460257E+03 -0.51224623142E+03 -0.97688089606E+03  0.11192261975E+04  0.15294330000E+03 0.  1.
<mgrwt>
<rscale>  0 0.75559411E+03</rscale>
<asrwt>0</asrwt>
<pdfrwt beam="1">  1        2 0.50636267E+00 0.84189640E+03</pdfrwt>
<pdfrwt beam="2">  1       -2 0.23101866E-01 0.84189640E+03</pdfrwt>
<totfact> 0.19643603E+01</totfact>
</mgrwt>
</event>
<event>
 4    1  0.3565372E-007  0.8258331E+03  0.7818608E-02  0.9657495E-01
         -2   -1    0    0    0  501 -0.00000000000E+00  0.00000000000E+00  0.17888839108E+04  0.17888839108E+04  0.25500000000E-02 0.  1.
          2   -1    0    0  501    0  0.00000000000E+00 -0.00000000000E+00 -0.30687550516E+03  0.30687550517E+03  0.25500000000E-02 0. -1.
    8880023    1    1    2    0    0 -0.49072707943E+03  0.85889784710E+02  0.45204173521E+03  0.94145741180E+03  0.65864270000E+03 0. -1.
    8880022    1    1    2    0    0  0.49072707943E+03 -0.85889784710E+02  0.10299666704E+04  0.11543020041E+04  0.15294330000E+03 0.  0.
<mgrwt>
<rscale>  0 0.73604912E+03</rscale>
<asrwt>0</asrwt>
<pdfrwt beam="1">  1        2 0.47211615E-01 0.82583311E+03</pdfrwt>
<pdfrwt beam="2">  1       -2 0.27521291E+00 0.82583311E+03</pdfrwt>
<totfact> 0.49375527E+00</totfact>
</mgrwt>
</event>
<event>
 4    1  0.3565372E-007  0.6745888E+03  0.7818608E-02  0.1012567E+00
         -2   -1    0    0    0  501 -0.00000000000E+00  0.00000000000E+00  0.68892112530E+03  0.68892112530E+03  0.25500000000E-02 0.  1.
          2   -1    0    0  501    0  0.00000000000E+00 -0.00000000000E+00 -0.56948915486E+03  0.56948915486E+03  0.25500000000E-02 0. -1.
    8880023    1    1    2    0    0 -0.14113827684E+03 -0.36602852191E+02 -0.33800067165E+03  0.75452928524E+03  0.65864270000E+03 0. -1.
    8880022    1    1    2    0    0  0.14113827684E+03  0.36602852191E+02  0.45743264210E+03  0.50388099493E+03  0.15294330000E+03 0.  0.
<mgrwt>
<rscale>  0 0.50467147E+03</rscale>
<asrwt>0</asrwt>
<pdfrwt beam="1">  1        2 0.87613716E-01 0.67458875E+03</pdfrwt>
<pdfrwt beam="2">  1       -2 0.10598787E+00 0.67458875E+03</pdfrwt>
<totfact> 0.38656597E+01</totfact>
</mgrwt>
</event>
<event>
 4    1  0.3565372E-007  0.1035112E+04  0.7818608E-02  0.9336997E-01
          2   -1    0    0  501    0  0.00000000000E+00  0.00000000000E+00  0.27632885771E+04  0.27632885771E+04  0.25500000000E-02 0. -1.
         -2   -1    0    0    0  501 -0.00000000000E+00 -0.00000000000E+00 -0.40648251756E+03  0.40648251757E+03  0.25500000000E-02 0.  1.
    8880023    1    1    2    0    0 -0.37397805827E+02  0.79765148853E+03  0.20578273527E+04  0.23034995361E+04  0.65864270000E+03 0.  0.
    8880022    1    1    2    0    0  0.37397805827E+02 -0.79765148853E+03  0.29897870686E+03  0.86627155857E+03  0.15294330000E+03 0.  0.
<mgrwt>
<rscale>  0 0.97447073E+03</rscale>
<asrwt>0</asrwt>
<pdfrwt beam="1">  1        2 0.42512132E+00 0.10351119E+04</pdfrwt>
<pdfrwt beam="2">  1       -2 0.62535772E-01 0.10351119E+04</pdfrwt>
<totfact> 0.58424187E+00</totfact>
</mgrwt>
</event>
<event>
 4    1  0.3565372E-007  0.6958540E+03  0.7818608E-02  0.1001486E+00
         -2   -1    0    0    0  501 -0.00000000000E+00  0.00000000000E+00  0.54694638825E+03  0.54694638826E+03  0.25500000000E-02 0.  1.
          2   -1    0    0  501    0  0.00000000000E+00 -0.00000000000E+00 -0.58916069050E+03  0.58916069051E+03  0.25500000000E-02 0. -1.
    8880023    1    1    2    0    0  0.43664971599E+02 -0.22021795188E+03 -0.30352924239E+03  0.75917243319E+03  0.65864270000E+03 0.  0.
    8880022    1    1    2    0    0 -0.43664971599E+02  0.22021795188E+03  0.26131494014E+03  0.37693464557E+03  0.15294330000E+03 0.  0.
<mgrwt>
<rscale>  0 0.55003635E+03</rscale>
<asrwt>0</asrwt>
<pdfrwt beam="1">  1        2 0.90640106E-01 0.69585399E+03</pdfrwt>
<pdfrwt beam="2">  1       -2 0.84145599E-01 0.69585399E+03</pdfrwt>
<totfact> 0.63496923E+01</totfact>
</mgrwt>
</event>
<event>
 4    1  0.3565372E-007  0.6990753E+03  0.7818608E-02  0.1000106E+00
         -2   -1    0    0    0  501 -0.00000000000E+00  0.00000000000E+00  0.21391523685E+03  0.21391523687E+03  0.25500000000E-02 0.  1.
          2   -1    0    0  501    0  0.00000000000E+00 -0.00000000000E+00 -0.15952830122E+04  0.15952830122E+04  0.25500000000E-02 0. -1.
    8880023    1    1    2    0    0  0.17499319970E+03 -0.15579928890E+03 -0.13593004684E+04  0.15285300154E+04  0.65864270000E+03 0.  0.
    8880022    1    1    2    0    0 -0.17499319970E+03  0.15579928890E+03 -0.22067307006E+02  0.28066823371E+03  0.15294330000E+03 0.  0.
<mgrwt>
<rscale>  0 0.55603822E+03</rscale>
<asrwt>0</asrwt>
<pdfrwt beam="1">  1        2 0.24542815E+00 0.69907528E+03</pdfrwt>
<pdfrwt beam="2">  1       -2 0.32910037E-01 0.69907528E+03</pdfrwt>
<totfact> 0.99023850E+01</totfact>
</mgrwt>
</event>
<event>
 4    1  0.3565372E-007  0.8137957E+03  0.7818608E-02  0.9681724E-01
          2   -1    0    0  501    0  0.00000000000E+00  0.00000000000E+00  0.43391509218E+03  0.43391509219E+03  0.25500000000E-02 0. -1.
         -2   -1    0    0    0  501 -0.00000000000E+00 -0.00000000000E+00 -0.13082234559E+04  0.13082234559E+04  0.25500000000E-02 0.  1.
    8880023    1    1    2    0    0  0.48677081286E+02  0.47548264124E+03 -0.10068458007E+03  0.82000048249E+03  0.65864270000E+03 0.  0.
    8880022    1    1    2    0    0 -0.48677081286E+02 -0.47548264124E+03 -0.77362378361E+03  0.92213806556E+03  0.15294330000E+03 0.  0.
<mgrwt>
<rscale>  0 0.72115425E+03</rscale>
<asrwt>0</asrwt>
<pdfrwt beam="1">  1        2 0.66756169E-01 0.81379568E+03</pdfrwt>
<pdfrwt beam="2">  1       -2 0.20126515E+00 0.81379568E+03</pdfrwt>
<totfact> 0.95788043E+00</totfact>
</mgrwt>
</event>
<event>
 4    1  0.3565372E-007  0.7336498E+03  0.7818608E-02  0.9878846E-01
          2   -1    0    0  501    0  0.00000000000E+00  0.00000000000E+00  0.55878231170E+03  0.55878231170E+03  0.25500000000E-02 0. -1.
         -2   -1    0    0    0  501 -0.00000000000E+00 -0.00000000000E+00 -0.54250354166E+03  0.54250354167E+03  0.25500000000E-02 0.  1.
    8880023    1    1    2    0    0  0.17521440242E+03 -0.27153591115E+03  0.80452879512E+02  0.73804790491E+03  0.65864270000E+03 0. -1.
    8880022    1    1    2    0    0 -0.17521440242E+03  0.27153591115E+03 -0.64174109476E+02  0.36323794846E+03  0.15294330000E+03 0.  1.
<mgrwt>
<rscale>  0 0.61297525E+03</rscale>
<asrwt>0</asrwt>
<pdfrwt beam="1">  1        2 0.85966510E-01 0.73364981E+03</pdfrwt>
<pdfrwt beam="2">  1       -2 0.83462083E-01 0.73364981E+03</pdfrwt>
<totfact> 0.68722817E+01</totfact>
</mgrwt>
</event>
<event>
 4    1  0.3565372E-007  0.8384062E+03  0.7818608E-02  0.9633193E-01
         -2   -1    0    0    0  501 -0.00000000000E+00  0.00000000000E+00  0.55897809493E+03  0.55897809493E+03  0.25500000000E-02 0.  1.
          2   -1    0    0  501    0  0.00000000000E+00 -0.00000000000E+00 -0.13682428875E+04  0.13682428875E+04  0.25500000000E-02 0. -1.
    8880023    1    1    2    0    0  0.32496107473E+03 -0.40436998163E+03 -0.10428624730E+04  0.13380908512E+04  0.65864270000E+03 0.  0.
    8880022    1    1    2    0    0 -0.32496107473E+03  0.40436998163E+03  0.23359768050E+03  0.58913013120E+03  0.15294330000E+03 0.  0.
<mgrwt>
<rscale>  0 0.75137683E+03</rscale>
<asrwt>0</asrwt>
<pdfrwt beam="1">  1        2 0.21049890E+00 0.83840622E+03</pdfrwt>
<pdfrwt beam="2">  1       -2 0.85996631E-01 0.83840622E+03</pdfrwt>
<totfact> 0.17912795E+01</totfact>
</mgrwt>
</event>
<event>
 4    1  0.3565372E-007  0.8987307E+03  0.7818608E-02  0.9528072E-01
         -2   -1    0    0    0  501 -0.00000000000E+00  0.00000000000E+00  0.43714498883E+03  0.43714498884E+03  0.25500000000E-02 0.  1.
          2   -1    0    0  501    0  0.00000000000E+00 -0.00000000000E+00 -0.16568794941E+04  0.16568794941E+04  0.25500000000E-02 0. -1.
    8880023    1    1    2    0    0  0.23435168937E+03  0.56478840659E+03 -0.11504958874E+04  0.14599170017E+04  0.65864270000E+03 0.  0.
    8880022    1    1    2    0    0 -0.23435168937E+03 -0.56478840659E+03 -0.69238617788E+02  0.63410748122E+03  0.15294330000E+03 0.  0.
<mgrwt>
<rscale>  0 0.82245429E+03</rscale>
<asrwt>0</asrwt>
<pdfrwt beam="1">  1        2 0.25490453E+00 0.89873070E+03</pdfrwt>
<pdfrwt beam="2">  1       -2 0.67253076E-01 0.89873070E+03</pdfrwt>
<totfact> 0.21219717E+01</totfact>
</mgrwt>
</event>
<event>
 4    1  0.3565372E-007  0.6990980E+03  0.7818608E-02  0.1000096E+00
          2   -1    0    0  501    0  0.00000000000E+00  0.00000000000E+00  0.14753519381E+04  0.14753519381E+04  0.25500000000E-02 0. -1.
         -2   -1    0    0    0  501 -0.00000000000E+00 -0.00000000000E+00 -0.25883339022E+03  0.25883339023E+03  0.25500000000E-02 0.  1.
    8880023    1    1    2    0    0 -0.22292472996E+03  0.72335434464E+02  0.12695879128E+04  0.14493417558E+04  0.65864270000E+03 0. -1.
    8880022    1    1    2    0    0  0.22292472996E+03 -0.72335434464E+02 -0.53069364974E+02  0.28484357255E+03  0.15294330000E+03 0.  0.
<mgrwt>
<rscale>  0 0.55608003E+03</rscale>
<asrwt>0</asrwt>
<pdfrwt beam="1">  1        2 0.22697722E+00 0.69909803E+03</pdfrwt>
<pdfrwt beam="2">  1       -2 0.39820522E-01 0.69909803E+03</pdfrwt>
<totfact> 0.80111350E+01</totfact>
</mgrwt>
</event>
<event>
 4    1  0.3565372E-007  0.1415494E+04  0.7818608E-02  0.8971736E-01
          2   -1    0    0  501    0  0.00000000000E+00  0.00000000000E+00  0.17883233606E+04  0.17883233606E+04  0.25500000000E-02 0. -1.
         -2   -1    0    0    0  501 -0.00000000000E+00 -0.00000000000E+00 -0.12640532456E+04  0.12640532456E+04  0.25500000000E-02 0.  1.
    8880023    1    1    2    0    0  0.97816428167E+03  0.78294790435E+03 -0.41948558894E+03  0.14763438449E+04  0.65864270000E+03 0.  0.
    8880022    1    1    2    0    0 -0.97816428167E+03 -0.78294790435E+03  0.94375570400E+03  0.15760327613E+04  0.15294330000E+03 0.  0.
<mgrwt>
<rscale>  0 0.13755138E+04</rscale>
<asrwt>0</asrwt>
<pdfrwt beam="1">  1        2 0.27512667E+00 0.14154939E+04</pdfrwt>
<pdfrwt beam="2">  1       -2 0.19446973E+00 0.14154939E+04</pdfrwt>
<totfact> 0.12017190E+00</totfact>
</mgrwt>
</event>
<event>
 4    1  0.3565372E-007  0.7945310E+03  0.7818608E-02  0.9722748E-01
         -2   -1    0    0    0  501 -0.00000000000E+00  0.00000000000E+00  0.82691719754E+03  0.82691719754E+03  0.25500000000E-02 0.  1.
          2   -1    0    0  501    0  0.00000000000E+00 -0.00000000000E+00 -0.10769083080E+04  0.10769083080E+04  0.25500000000E-02 0. -1.
    8880023    1    1    2    0    0  0.13662060748E+03 -0.42285230093E+03 -0.83554536317E+03  0.11530028270E+04  0.65864270000E+03 0. -1.
    8880022    1    1    2    0    0 -0.13662060748E+03  0.42285230093E+03  0.58555425271E+03  0.75082267858E+03  0.15294330000E+03 0.  0.
<mgrwt>
<rscale>  0 0.69678370E+03</rscale>
<asrwt>0</asrwt>
<pdfrwt beam="1">  1        2 0.16567820E+00 0.79453097E+03</pdfrwt>
<pdfrwt beam="2">  1       -2 0.12721803E+00 0.79453097E+03</pdfrwt>
<totfact> 0.10462613E+01</totfact>
</mgrwt>
</event>
<event>
 4    1  0.3565372E-007  0.8162974E+03  0.7818608E-02  0.9676606E-01
         -2   -1    0    0    0  501 -0.00000000000E+00  0.00000000000E+00  0.43253371188E+03  0.43253371189E+03  0.25500000000E-02 0.  1.
          2   -1    0    0  501    0  0.00000000000E+00 -0.00000000000E+00 -0.19323499157E+04  0.19323499157E+04  0.25500000000E-02 0. -1.
    8880023    1    1    2    0    0 -0.38788049466E+03 -0.28649594810E+03 -0.16468529855E+04  0.18380604366E+04  0.65864270000E+03 0. -1.
    8880022    1    1    2    0    0  0.38788049466E+03  0.28649594810E+03  0.14703678168E+03  0.52682319102E+03  0.15294330000E+03 0.  0.
<mgrwt>
<rscale>  0 0.72426907E+03</rscale>
<asrwt>0</asrwt>
<pdfrwt beam="1">  1        2 0.29728460E+00 0.81629738E+03</pdfrwt>
<pdfrwt beam="2">  1       -2 0.66543649E-01 0.81629738E+03</pdfrwt>
<totfact> 0.15482197E+01</totfact>
</mgrwt>
</event>
<event>
 4    1  0.3565372E-007  0.1087622E+04  0.7818608E-02  0.9274964E-01
          2   -1    0    0  501    0  0.00000000000E+00  0.00000000000E+00  0.21029318176E+04  0.21029318176E+04  0.25500000000E-02 0. -1.
         -2   -1    0    0    0  501 -0.00000000000E+00 -0.00000000000E+00 -0.10818905742E+04  0.10818905742E+04  0.25500000000E-02 0.  1.
    8880023    1    1    2    0    0  0.82079496270E+03 -0.27460234369E+03  0.17382085064E+04  0.20504364989E+04  0.65864270000E+03 0.  0.
    8880022    1    1    2    0    0 -0.82079496270E+03  0.27460234369E+03 -0.71716726303E+03  0.11343858930E+04  0.15294330000E+03 0.  0.
<mgrwt>
<rscale>  0 0.10312071E+04</rscale>
<asrwt>0</asrwt>
<pdfrwt beam="1">  1        2 0.32352797E+00 0.10876217E+04</pdfrwt>
<pdfrwt beam="2">  1       -2 0.16644470E+00 0.10876217E+04</pdfrwt>
<totfact> 0.13056402E+00</totfact>
</mgrwt>
</event>
<event>
 4    1  0.3797513E-007  0.6610101E+03  0.7818608E-02  0.1023145E+00
         -2   -1    0    0    0  501 -0.00000000000E+00  0.00000000000E+00  0.61573674241E+03  0.61573674241E+03  0.25500000000E-02 0.  1.
          2   -1    0    0  501    0  0.00000000000E+00 -0.00000000000E+00 -0.22603054025E+04  0.22603054025E+04  0.25500000000E-02 0. -1.
    8880023    1    1    2    0    0 -0.45535897900E+02  0.32414047813E+02 -0.22000392671E+04  0.22971955014E+04  0.65864270000E+03 0. -1.
    8880022    1    1    2    0    0  0.45535897900E+02 -0.32414047813E+02  0.55547060700E+03  0.57884664355E+03  0.15294330000E+03 0.  0.
<mgrwt>
<rscale>  0 0.46568716E+03</rscale>
<asrwt>0</asrwt>
<pdfrwt beam="1">  1        2 0.34773929E+00 0.66101013E+03</pdfrwt>
<pdfrwt beam="2">  1       -2 0.94728730E-01 0.66101013E+03</pdfrwt>
<totfact> 0.47503911E+00</totfact>
</mgrwt>
</event>
<event>
 4    1  0.3565372E-007  0.9476089E+03  0.7818608E-02  0.9453563E-01
         -2   -1    0    0    0  501 -0.00000000000E+00  0.00000000000E+00  0.34770276540E+03  0.34770276541E+03  0.25500000000E-02 0.  1.
          2   -1    0    0  501    0  0.00000000000E+00 -0.00000000000E+00 -0.26519628774E+04  0.26519628774E+04  0.25500000000E-02 0. -1.
    8880023    1    1    2    0    0  0.57466361805E+03  0.36594270955E+03 -0.20467148783E+04  0.22554388354E+04  0.65864270000E+03 0. -1.
    8880022    1    1    2    0    0 -0.57466361805E+03 -0.36594270955E+03 -0.25754523370E+03  0.74422680749E+03  0.15294330000E+03 0.  0.
<mgrwt>
<rscale>  0 0.87795763E+03</rscale>
<asrwt>0</asrwt>
<pdfrwt beam="1">  1        2 0.40799427E+00 0.94760886E+03</pdfrwt>
<pdfrwt beam="2">  1       -2 0.53492735E-01 0.94760886E+03</pdfrwt>
<totfact> 0.95461662E+00</totfact>
</mgrwt>
</event>
<event>
 4    1  0.3565372E-007  0.1351969E+04  0.7818608E-02  0.9021932E-01
         -2   -1    0    0    0  501 -0.00000000000E+00  0.00000000000E+00  0.12719184856E+04  0.12719184856E+04  0.25500000000E-02 0.  1.
          2   -1    0    0  501    0  0.00000000000E+00 -0.00000000000E+00 -0.13894500972E+04  0.13894500972E+04  0.25500000000E-02 0. -1.
    8880023    1    1    2    0    0 -0.90117222441E+02  0.11772376891E+04  0.32629115594E+03  0.13907860422E+04  0.65864270000E+03 0.  0.
    8880022    1    1    2    0    0  0.90117222441E+02 -0.11772376891E+04 -0.44382276751E+03  0.12705825406E+04  0.15294330000E+03 0.  0.
<mgrwt>
<rscale>  0 0.13096692E+04</rscale>
<asrwt>0</asrwt>
<pdfrwt beam="1">  1        2 0.21376155E+00 0.13519689E+04</pdfrwt>
<pdfrwt beam="2">  1       -2 0.19567977E+00 0.13519689E+04</pdfrwt>
<totfact> 0.19924871E+00</totfact>
</mgrwt>
</event>
<event>
 4    1  0.3565372E-007  0.1208789E+04  0.7818608E-02  0.9148626E-01
          2   -1    0    0  501    0  0.00000000000E+00  0.00000000000E+00  0.21298916597E+04  0.21298916597E+04  0.25500000000E-02 0. -1.
         -2   -1    0    0    0  501 -0.00000000000E+00 -0.00000000000E+00 -0.78120101235E+03  0.78120101235E+03  0.25500000000E-02 0.  1.
    8880023    1    1    2    0    0  0.90188362402E+03 -0.46256446808E+03  0.14421890872E+04  0.18817756317E+04  0.65864270000E+03 0. -1.
    8880022    1    1    2    0    0 -0.90188362402E+03  0.46256446808E+03 -0.93498439841E+02  0.10293170404E+04  0.15294330000E+03 0.  0.
<mgrwt>
<rscale>  0 0.11599795E+04</rscale>
<asrwt>0</asrwt>
<pdfrwt beam="1">  1        2 0.32767564E+00 0.12087887E+04</pdfrwt>
<pdfrwt beam="2">  1       -2 0.12018477E+00 0.12087887E+04</pdfrwt>
<totfact> 0.29196060E+00</totfact>
</mgrwt>
</event>
<event>
 4    1  0.3565372E-007  0.6654442E+03  0.7818608E-02  0.1019164E+00
          2   -1    0    0  501    0  0.00000000000E+00  0.00000000000E+00  0.16780559965E+04  0.16780559965E+04  0.25500000000E-02 0. -1.
         -2   -1    0    0    0  501 -0.00000000000E+00 -0.00000000000E+00 -0.15491027432E+03  0.15491027435E+03  0.25500000000E-02 0.  1.
    8880023    1    1    2    0    0 -0.36149402558E+02 -0.87743929758E+02  0.15127856203E+04  0.16526755023E+04  0.65864270000E+03 0. -1.
    8880022    1    1    2    0    0  0.36149402558E+02  0.87743929758E+02  0.10360101878E+02  0.18029076859E+03  0.15294330000E+03 0.  1.
<mgrwt>
<rscale>  0 0.47989647E+03</rscale>
<asrwt>0</asrwt>
<pdfrwt beam="1">  1        2 0.25816245E+00 0.66544420E+03</pdfrwt>
<pdfrwt beam="2">  1       -2 0.23832351E-01 0.66544420E+03</pdfrwt>
<totfact> 0.16175839E+02</totfact>
</mgrwt>
</event>
<event>
 4    1  0.3565372E-007  0.7848536E+03  0.7818608E-02  0.9744557E-01
          2   -1    0    0  501    0  0.00000000000E+00  0.00000000000E+00  0.27247749400E+04  0.27247749400E+04  0.25500000000E-02 0. -1.
         -2   -1    0    0    0  501 -0.00000000000E+00 -0.00000000000E+00 -0.35900609769E+03  0.35900609770E+03  0.25500000000E-02 0.  1.
    8880023    1    1    2    0    0  0.50305489136E+02  0.42385656502E+03  0.24923752343E+04  0.26130307202E+04  0.65864270000E+03 0. -1.
    8880022    1    1    2    0    0 -0.50305489136E+02 -0.42385656502E+03 -0.12660639196E+03  0.47075031752E+03  0.15294330000E+03 0.  0.
<mgrwt>
<rscale>  0 0.68424753E+03</rscale>
<asrwt>0</asrwt>
<pdfrwt beam="1">  1        2 0.41919613E+00 0.78485364E+03</pdfrwt>
<pdfrwt beam="2">  1       -2 0.55231709E-01 0.78485364E+03</pdfrwt>
<totfact> 0.83001366E+00</totfact>
</mgrwt>
</event>
<event>
 4    1  0.3565372E-007  0.6616799E+03  0.7818608E-02  0.1022498E+00
         -2   -1    0    0    0  501 -0.00000000000E+00  0.00000000000E+00  0.12183272206E+04  0.12183272206E+04  0.25500000000E-02 0.  1.
          2   -1    0    0  501    0  0.00000000000E+00 -0.00000000000E+00 -0.20594220693E+03  0.20594220695E+03  0.25500000000E-02 0. -1.
    8880023    1    1    2    0    0 -0.62959820952E+02 -0.67972108534E+01  0.36421727442E+03  0.75529767005E+03  0.65864270000E+03 0. -1.
    8880022    1    1    2    0    0  0.62959820952E+02  0.67972108534E+01  0.64816773928E+03  0.66897175754E+03  0.15294330000E+03 0.  0.
<mgrwt>
<rscale>  0 0.46795959E+03</rscale>
<asrwt>0</asrwt>
<pdfrwt beam="1">  1        2 0.31683417E-01 0.66167994E+03</pdfrwt>
<pdfrwt beam="2">  1       -2 0.18743496E+00 0.66167994E+03</pdfrwt>
<totfact> 0.27567462E+01</totfact>
</mgrwt>
</event>
<event>
 4    1  0.5399174E-007  0.7320593E+03  0.7818608E-02  0.9883712E-01
         -2   -1    0    0    0  501 -0.00000000000E+00  0.00000000000E+00  0.12269445723E+04  0.12269445723E+04  0.25500000000E-02 0.  1.
          2   -1    0    0  501    0  0.00000000000E+00 -0.00000000000E+00 -0.14177166888E+04  0.14177166888E+04  0.25500000000E-02 0. -1.
    8880023    1    1    2    0    0  0.26114079800E+03  0.18413627507E+03 -0.12935773654E+04  0.14863557080E+04  0.65864270000E+03 0. -1.
    8880022    1    1    2    0    0 -0.26114079800E+03 -0.18413627507E+03  0.11028052489E+04  0.11583055531E+04  0.15294330000E+03 0.  0.
<mgrwt>
<rscale>  0 0.61057198E+03</rscale>
<asrwt>0</asrwt>
<pdfrwt beam="1">  1        2 0.21811026E+00 0.73205935E+03</pdfrwt>
<pdfrwt beam="2">  1       -2 0.18876070E+00 0.73205935E+03</pdfrwt>
<totfact> 0.23057481E+00</totfact>
</mgrwt>
</event>
<event>
 4    1  0.3565372E-007  0.6662949E+03  0.7818608E-02  0.1018471E+00
          2   -1    0    0  501    0  0.00000000000E+00  0.00000000000E+00  0.72454403217E+03  0.72454403217E+03  0.25500000000E-02 0. -1.
         -2   -1    0    0    0  501 -0.00000000000E+00 -0.00000000000E+00 -0.34209612573E+03  0.34209612574E+03  0.25500000000E-02 0.  1.
    8880023    1    1    2    0    0  0.99805568128E+02 -0.13324277003E+02  0.51371321149E+03  0.84133831347E+03  0.65864270000E+03 0. -1.
    8880022    1    1    2    0    0 -0.99805568128E+02  0.13324277003E+02 -0.13126530505E+03  0.22530184445E+03  0.15294330000E+03 0.  0.
<mgrwt>
<rscale>  0 0.48242479E+03</rscale>
<asrwt>0</asrwt>
<pdfrwt beam="1">  1        2 0.11146831E+00 0.66629490E+03</pdfrwt>
<pdfrwt beam="2">  1       -2 0.52630174E-01 0.66629490E+03</pdfrwt>
<totfact> 0.13571647E+02</totfact>
</mgrwt>
</event>
<event>
 4    1  0.3565372E-007  0.7555764E+03  0.7818608E-02  0.9816697E-01
         -2   -1    0    0    0  501 -0.00000000000E+00  0.00000000000E+00  0.38031429753E+03  0.38031429754E+03  0.25500000000E-02 0.  1.
          2   -1    0    0  501    0  0.00000000000E+00 -0.00000000000E+00 -0.94420376118E+03  0.94420376118E+03  0.25500000000E-02 0. -1.
    8880023    1    1    2    0    0 -0.12732993465E+03 -0.34766743992E+03 -0.52910596650E+03  0.92241470667E+03  0.65864270000E+03 0.  0.
    8880022    1    1    2    0    0  0.12732993465E+03  0.34766743992E+03 -0.34783497150E+02  0.40210335205E+03  0.15294330000E+03 0.  0.
<mgrwt>
<rscale>  0 0.64474129E+03</rscale>
<asrwt>0</asrwt>
<pdfrwt beam="1">  1        2 0.14526212E+00 0.75557645E+03</pdfrwt>
<pdfrwt beam="2">  1       -2 0.58509892E-01 0.75557645E+03</pdfrwt>
<totfact> 0.75826306E+01</totfact>
</mgrwt>
</event>
<event>
 4    1  0.3565372E-007  0.6772994E+03  0.7818608E-02  0.1010894E+00
         -2   -1    0    0    0  501 -0.00000000000E+00  0.00000000000E+00  0.59049285013E+03  0.59049285014E+03  0.25500000000E-02 0.  1.
          2   -1    0    0  501    0  0.00000000000E+00 -0.00000000000E+00 -0.16402656880E+04  0.16402656880E+04  0.25500000000E-02 0. -1.
    8880023    1    1    2    0    0  0.15766477573E+03 -0.81306480011E+01 -0.15460947152E+04  0.16879405687E+04  0.65864270000E+03 0. -1.
    8880022    1    1    2    0    0 -0.15766477573E+03  0.81306480011E+01  0.49632187735E+03  0.54281796939E+03  0.15294330000E+03 0.  0.
<mgrwt>
<rscale>  0 0.51120705E+03</rscale>
<asrwt>0</asrwt>
<pdfrwt beam="1">  1        2 0.25234857E+00 0.67729941E+03</pdfrwt>
<pdfrwt beam="2">  1       -2 0.90845055E-01 0.67729941E+03</pdfrwt>
<totfact> 0.11369227E+01</totfact>
</mgrwt>
</event>
<event>
 4    1  0.3565372E-007  0.7011933E+03  0.7818608E-02  0.9992286E-01
         -2   -1    0    0    0  501 -0.00000000000E+00  0.00000000000E+00  0.70257206327E+03  0.70257206328E+03  0.25500000000E-02 0.  1.
          2   -1    0    0  501    0  0.00000000000E+00 -0.00000000000E+00 -0.51740343231E+03  0.51740343232E+03  0.25500000000E-02 0. -1.
    8880023    1    1    2    0    0  0.24045471000E+03  0.65858268638E+01 -0.21069345465E+03  0.73216376499E+03  0.65864270000E+03 0.  0.
    8880022    1    1    2    0    0 -0.24045471000E+03 -0.65858268638E+01  0.39586208561E+03  0.48781173060E+03  0.15294330000E+03 0.  0.
<mgrwt>
<rscale>  0 0.55989756E+03</rscale>
<asrwt>0</asrwt>
<pdfrwt beam="1">  1        2 0.79600528E-01 0.70119330E+03</pdfrwt>
<pdfrwt beam="2">  1       -2 0.10808801E+00 0.70119330E+03</pdfrwt>
<totfact> 0.41193877E+01</totfact>
</mgrwt>
</event>
<event>
 4    1  0.3565372E-007  0.6856403E+03  0.7818608E-02  0.1006298E+00
         -2   -1    0    0    0  501 -0.00000000000E+00  0.00000000000E+00  0.84736328132E+03  0.84736328132E+03  0.25500000000E-02 0.  1.
          2   -1    0    0  501    0  0.00000000000E+00 -0.00000000000E+00 -0.80358307821E+03  0.80358307822E+03  0.25500000000E-02 0. -1.
    8880023    1    1    2    0    0  0.17854169478E+03 -0.66447678209E+02 -0.63192475233E+03  0.93243312338E+03  0.65864270000E+03 0. -1.
    8880022    1    1    2    0    0 -0.17854169478E+03  0.66447678209E+02  0.67570495543E+03  0.71851323615E+03  0.15294330000E+03 0.  0.
<mgrwt>
<rscale>  0 0.52973001E+03</rscale>
<asrwt>0</asrwt>
<pdfrwt beam="1">  1        2 0.12362817E+00 0.68564031E+03</pdfrwt>
<pdfrwt beam="2">  1       -2 0.13036358E+00 0.68564031E+03</pdfrwt>
<totfact> 0.15094255E+01</totfact>
</mgrwt>
</event>
<event>
 4    1  0.3565372E-007  0.8685339E+03  0.7818608E-02  0.9578560E-01
         -2   -1    0    0    0  501 -0.00000000000E+00  0.00000000000E+00  0.59623060813E+03  0.59623060813E+03  0.25500000000E-02 0.  1.
          2   -1    0    0  501    0  0.00000000000E+00 -0.00000000000E+00 -0.10125185255E+04  0.10125185255E+04  0.25500000000E-02 0. -1.
    8880023    1    1    2    0    0  0.31626851725E+03 -0.46959045857E+03 -0.52129341924E+03  0.10129649594E+04  0.65864270000E+03 0.  0.
    8880022    1    1    2    0    0 -0.31626851725E+03  0.46959045857E+03  0.10500550189E+03  0.59578417420E+03  0.15294330000E+03 0.  0.
<mgrwt>
<rscale>  0 0.78731634E+03</rscale>
<asrwt>0</asrwt>
<pdfrwt beam="1">  1        2 0.15577208E+00 0.86853393E+03</pdfrwt>
<pdfrwt beam="2">  1       -2 0.91727786E-01 0.86853393E+03</pdfrwt>
<totfact> 0.25138144E+01</totfact>
</mgrwt>
</event>
<event>
 4    1  0.3565372E-007  0.7924229E+03  0.7818608E-02  0.9727425E-01
          2   -1    0    0  501    0  0.00000000000E+00  0.00000000000E+00  0.19552962036E+04  0.19552962036E+04  0.25500000000E-02 0. -1.
         -2   -1    0    0    0  501 -0.00000000000E+00 -0.00000000000E+00 -0.24986706094E+03  0.24986706095E+03  0.25500000000E-02 0.  1.
    8880023    1    1    2    0    0 -0.31156177862E+03 -0.31153352959E+03  0.14981054983E+04  0.16947726020E+04  0.65864270000E+03 0. -1.
    8880022    1    1    2    0    0  0.31156177862E+03  0.31153352959E+03  0.20732364433E+03  0.51039066260E+03  0.15294330000E+03 0.  0.
<mgrwt>
<rscale>  0 0.69407125E+03</rscale>
<asrwt>0</asrwt>
<pdfrwt beam="1">  1        2 0.30081480E+00 0.79242292E+03</pdfrwt>
<pdfrwt beam="2">  1       -2 0.38441086E-01 0.79242292E+03</pdfrwt>
<totfact> 0.46325662E+01</totfact>
</mgrwt>
</event>
<event>
 4    1  0.3565372E-007  0.6943014E+03  0.7818608E-02  0.1002172E+00
          2   -1    0    0  501    0  0.00000000000E+00  0.00000000000E+00  0.22814391528E+04  0.22814391528E+04  0.25500000000E-02 0. -1.
         -2   -1    0    0    0  501 -0.00000000000E+00 -0.00000000000E+00 -0.18780212702E+03  0.18780212704E+03  0.25500000000E-02 0.  1.
    8880023    1    1    2    0    0  0.19337799923E+03 -0.10415930399E+03  0.20892089131E+04  0.22015558817E+04  0.65864270000E+03 0. -1.
    8880022    1    1    2    0    0 -0.19337799923E+03  0.10415930399E+03  0.44281126484E+01  0.26768539816E+03  0.15294330000E+03 0.  0.
<mgrwt>
<rscale>  0 0.54708189E+03</rscale>
<asrwt>0</asrwt>
<pdfrwt beam="1">  1        2 0.35099066E+00 0.69430139E+03</pdfrwt>
<pdfrwt beam="2">  1       -2 0.28892633E-01 0.69430139E+03</pdfrwt>
<totfact> 0.53257553E+01</totfact>
</mgrwt>
</event>
<event>
 4    1  0.3565372E-007  0.8706117E+03  0.7818608E-02  0.9574959E-01
         -2   -1    0    0    0  501 -0.00000000000E+00  0.00000000000E+00  0.74626618049E+03  0.74626618050E+03  0.25500000000E-02 0.  1.
          2   -1    0    0  501    0  0.00000000000E+00 -0.00000000000E+00 -0.16115069189E+04  0.16115069189E+04  0.25500000000E-02 0. -1.
    8880023    1    1    2    0    0 -0.55709220725E+03 -0.11748544671E+03  0.40288555335E+03  0.95931305262E+03  0.65864270000E+03 0.  0.
    8880022    1    1    2    0    0  0.55709220725E+03  0.11748544671E+03 -0.12681262917E+04  0.13984600467E+04  0.15294330000E+03 0.  0.
<mgrwt>
<rscale>  0 0.78975967E+03</rscale>
<asrwt>0</asrwt>
<pdfrwt beam="1">  1        2 0.24792414E+00 0.87061172E+03</pdfrwt>
<pdfrwt beam="2">  1       -2 0.11481018E+00 0.87061172E+03</pdfrwt>
<totfact> 0.65728464E+00</totfact>
</mgrwt>
</event>
<event>
 4    1  0.3565372E-007  0.6657420E+03  0.7818608E-02  0.1018919E+00
         -2   -1    0    0    0  501 -0.00000000000E+00  0.00000000000E+00  0.19252169139E+03  0.19252169141E+03  0.25500000000E-02 0.  1.
          2   -1    0    0  501    0  0.00000000000E+00 -0.00000000000E+00 -0.21048456373E+04  0.21048456373E+04  0.25500000000E-02 0. -1.
    8880023    1    1    2    0    0  0.81854657088E+02 -0.51981256099E+02 -0.19914219295E+04  0.20997556390E+04  0.65864270000E+03 0.  0.
    8880022    1    1    2    0    0 -0.81854657088E+02  0.51981256099E+02  0.79097983628E+02  0.19761168969E+03  0.15294330000E+03 0.  1.
<mgrwt>
<rscale>  0 0.48078797E+03</rscale>
<asrwt>0</asrwt>
<pdfrwt beam="1">  1        2 0.32382239E+00 0.66574202E+03</pdfrwt>
<pdfrwt beam="2">  1       -2 0.29618723E-01 0.66574202E+03</pdfrwt>
<totfact> 0.63852933E+01</totfact>
</mgrwt>
</event>
<event>
 4    1  0.3565372E-007  0.1051075E+04  0.7818608E-02  0.9317590E-01
          2   -1    0    0  501    0  0.00000000000E+00  0.00000000000E+00  0.16515170769E+04  0.16515170769E+04  0.25500000000E-02 0. -1.
         -2   -1    0    0    0  501 -0.00000000000E+00 -0.00000000000E+00 -0.87598891395E+03  0.87598891396E+03  0.25500000000E-02 0.  1.
    8880023    1    1    2    0    0  0.72335165549E+03 -0.38433264213E+03  0.11976091976E+04  0.15934325194E+04  0.65864270000E+03 0.  0.
    8880022    1    1    2    0    0 -0.72335165549E+03  0.38433264213E+03 -0.42208103467E+03  0.93407347149E+03  0.15294330000E+03 0.  0.
<mgrwt>
<rscale>  0 0.99179515E+03</rscale>
<asrwt>0</asrwt>
<pdfrwt beam="1">  1        2 0.25407955E+00 0.10510754E+04</pdfrwt>
<pdfrwt beam="2">  1       -2 0.13476753E+00 0.10510754E+04</pdfrwt>
<totfact> 0.40882040E+00</totfact>
</mgrwt>
</event>
<event>
 4    1  0.3565372E-007  0.9384279E+03  0.7818608E-02  0.9466963E-01
          2   -1    0    0  501    0  0.00000000000E+00  0.00000000000E+00  0.14124867122E+04  0.14124867122E+04  0.25500000000E-02 0. -1.
         -2   -1    0    0    0  501 -0.00000000000E+00 -0.00000000000E+00 -0.71962039334E+03  0.71962039334E+03  0.25500000000E-02 0.  1.
    8880023    1    1    2    0    0  0.54231810033E+03  0.39080406089E+03  0.10081901900E+04  0.13773505006E+04  0.65864270000E+03 0. -1.
    8880022    1    1    2    0    0 -0.54231810033E+03 -0.39080406089E+03 -0.31532387117E+03  0.75475660494E+03  0.15294330000E+03 0.  0.
<mgrwt>
<rscale>  0 0.86763945E+03</rscale>
<asrwt>0</asrwt>
<pdfrwt beam="1">  1        2 0.21730565E+00 0.93842791E+03</pdfrwt>
<pdfrwt beam="2">  1       -2 0.11071083E+00 0.93842791E+03</pdfrwt>
<totfact> 0.92116586E+00</totfact>
</mgrwt>
</event>
<event>
 4    1  0.3565372E-007  0.1100529E+04  0.7818608E-02  0.9260467E-01
         -2   -1    0    0    0  501 -0.00000000000E+00  0.00000000000E+00  0.29571412774E+03  0.29571412775E+03  0.25500000000E-02 0.  1.
          2   -1    0    0  501    0  0.00000000000E+00 -0.00000000000E+00 -0.37809370597E+04  0.37809370597E+04  0.25500000000E-02 0. -1.
    8880023    1    1    2    0    0  0.86897800711E+03 -0.14910159448E+03 -0.25745654116E+04  0.27999198787E+04  0.65864270000E+03 0. -1.
    8880022    1    1    2    0    0 -0.86897800711E+03  0.14910159448E+03 -0.91065752034E+03  0.12767313087E+04  0.15294330000E+03 0.  1.
<mgrwt>
<rscale>  0 0.10450522E+04</rscale>
<asrwt>0</asrwt>
<pdfrwt beam="1">  1        2 0.58168259E+00 0.11005291E+04</pdfrwt>
<pdfrwt beam="2">  1       -2 0.45494484E-01 0.11005291E+04</pdfrwt>
<totfact> 0.23963321E+00</totfact>
</mgrwt>
</event>
<event>
 4    1  0.3565372E-007  0.7379938E+03  0.7818608E-02  0.9865830E-01
         -2   -1    0    0    0  501 -0.00000000000E+00  0.00000000000E+00  0.45133805236E+03  0.45133805236E+03  0.25500000000E-02 0.  1.
          2   -1    0    0  501    0  0.00000000000E+00 -0.00000000000E+00 -0.12505342276E+04  0.12505342276E+04  0.25500000000E-02 0. -1.
    8880023    1    1    2    0    0 -0.14772967550E+02 -0.33257545368E+03  0.86837822719E+02  0.74308524859E+03  0.65864270000E+03 0.  0.
    8880022    1    1    2    0    0  0.14772967550E+02  0.33257545368E+03 -0.88603399793E+03  0.95878703134E+03  0.15294330000E+03 0.  0.
<mgrwt>
<rscale>  0 0.61946277E+03</rscale>
<asrwt>0</asrwt>
<pdfrwt beam="1">  1        2 0.19238988E+00 0.73799382E+03</pdfrwt>
<pdfrwt beam="2">  1       -2 0.69436624E-01 0.73799382E+03</pdfrwt>
<totfact> 0.34125400E+01</totfact>
</mgrwt>
</event>
<event>
 4    1  0.3565372E-007  0.7811381E+03  0.7818608E-02  0.9753170E-01
         -2   -1    0    0    0  501 -0.00000000000E+00  0.00000000000E+00  0.24778046075E+03  0.24778046076E+03  0.25500000000E-02 0.  1.
          2   -1    0    0  501    0  0.00000000000E+00 -0.00000000000E+00 -0.20447701369E+04  0.20447701369E+04  0.25500000000E-02 0. -1.
    8880023    1    1    2    0    0 -0.32134525061E+02  0.41872894880E+03 -0.16440126080E+04  0.18201522523E+04  0.65864270000E+03 0.  0.
    8880022    1    1    2    0    0  0.32134525061E+02 -0.41872894880E+03 -0.15297706818E+03  0.47239834532E+03  0.15294330000E+03 0.  0.
<mgrwt>
<rscale>  0 0.67937405E+03</rscale>
<asrwt>0</asrwt>
<pdfrwt beam="1">  1        2 0.31458001E+00 0.78113812E+03</pdfrwt>
<pdfrwt beam="2">  1       -2 0.38120072E-01 0.78113812E+03</pdfrwt>
<totfact> 0.42123615E+01</totfact>
</mgrwt>
</event>
<event>
 4    1  0.3565372E-007  0.1023555E+04  0.7818608E-02  0.9351369E-01
          2   -1    0    0  501    0  0.00000000000E+00  0.00000000000E+00  0.14031646297E+04  0.14031646297E+04  0.25500000000E-02 0. -1.
         -2   -1    0    0    0  501 -0.00000000000E+00 -0.00000000000E+00 -0.67326653928E+03  0.67326653928E+03  0.25500000000E-02 0.  1.
    8880023    1    1    2    0    0  0.25834010233E+03 -0.73967221032E+03  0.44893854296E+02  0.10245390435E+04  0.65864270000E+03 0.  0.
    8880022    1    1    2    0    0 -0.25834010233E+03  0.73967221032E+03  0.68500423616E+03  0.10518921255E+04  0.15294330000E+03 0.  0.
<mgrwt>
<rscale>  0 0.96188199E+03</rscale>
<asrwt>0</asrwt>
<pdfrwt beam="1">  1        2 0.21587148E+00 0.10235550E+04</pdfrwt>
<pdfrwt beam="2">  1       -2 0.10357947E+00 0.10235550E+04</pdfrwt>
<totfact> 0.10861304E+01</totfact>
</mgrwt>
</event>
<event>
 4    1  0.3565372E-007  0.6937138E+03  0.7818608E-02  0.1002435E+00
         -2   -1    0    0    0  501 -0.00000000000E+00  0.00000000000E+00  0.49370593183E+03  0.49370593184E+03  0.25500000000E-02 0.  1.
          2   -1    0    0  501    0  0.00000000000E+00 -0.00000000000E+00 -0.59454363690E+03  0.59454363690E+03  0.25500000000E-02 0. -1.
    8880023    1    1    2    0    0 -0.19295852989E+03  0.10097329258E+03 -0.30005219740E+03  0.75582413794E+03  0.65864270000E+03 0. -1.
    8880022    1    1    2    0    0  0.19295852989E+03 -0.10097329258E+03  0.19921449233E+03  0.33242543080E+03  0.15294330000E+03 0.  1.
<mgrwt>
<rscale>  0 0.54595258E+03</rscale>
<asrwt>0</asrwt>
<pdfrwt beam="1">  1        2 0.91468252E-01 0.69371378E+03</pdfrwt>
<pdfrwt beam="2">  1       -2 0.75954759E-01 0.69371378E+03</pdfrwt>
<totfact> 0.79058754E+01</totfact>
</mgrwt>
</event>
<event>
 4    1  0.3565372E-007  0.8937137E+03  0.7818608E-02  0.9536199E-01
          2   -1    0    0  501    0  0.00000000000E+00  0.00000000000E+00  0.12499499915E+04  0.12499499915E+04  0.25500000000E-02 0. -1.
         -2   -1    0    0    0  501 -0.00000000000E+00 -0.00000000000E+00 -0.86548374984E+03  0.86548374985E+03  0.25500000000E-02 0.  1.
    8880023    1    1    2    0    0  0.50771189136E+03  0.32732637731E+03  0.92812855734E+03  0.12884668203E+04  0.65864270000E+03 0.  0.
    8880022    1    1    2    0    0 -0.50771189136E+03 -0.32732637731E+03 -0.54366231569E+03  0.82696692100E+03  0.15294330000E+03 0.  0.
<mgrwt>
<rscale>  0 0.81666794E+03</rscale>
<asrwt>0</asrwt>
<pdfrwt beam="1">  1        2 0.19230000E+00 0.89371367E+03</pdfrwt>
<pdfrwt beam="2">  1       -2 0.13315135E+00 0.89371367E+03</pdfrwt>
<totfact> 0.72522822E+00</totfact>
</mgrwt>
</event>
<event>
 4    1  0.3565372E-007  0.1007253E+04  0.7818608E-02  0.9372129E-01
         -2   -1    0    0    0  501 -0.00000000000E+00  0.00000000000E+00  0.39484480947E+03  0.39484480948E+03  0.25500000000E-02 0.  1.
          2   -1    0    0  501    0  0.00000000000E+00 -0.00000000000E+00 -0.21906499165E+04  0.21906499165E+04  0.25500000000E-02 0. -1.
    8880023    1    1    2    0    0 -0.73334805515E+02  0.75853230556E+03 -0.13663150745E+04  0.16974617349E+04  0.65864270000E+03 0.  0.
    8880022    1    1    2    0    0  0.73334805515E+02 -0.75853230556E+03 -0.42949003259E+03  0.88803299116E+03  0.15294330000E+03 0.  0.
<mgrwt>
<rscale>  0 0.94405293E+03</rscale>
<asrwt>0</asrwt>
<pdfrwt beam="1">  1        2 0.33702306E+00 0.10072534E+04</pdfrwt>
<pdfrwt beam="2">  1       -2 0.60745357E-01 0.10072534E+04</pdfrwt>
<totfact> 0.13260104E+01</totfact>
</mgrwt>
</event>
<event>
 4    1  0.3565372E-007  0.9769178E+03  0.7818608E-02  0.9412399E-01
         -2   -1    0    0    0  501 -0.00000000000E+00  0.00000000000E+00  0.85980886885E+03  0.85980886886E+03  0.25500000000E-02 0.  1.
          2   -1    0    0  501    0  0.00000000000E+00 -0.00000000000E+00 -0.99380308525E+03  0.99380308525E+03  0.25500000000E-02 0. -1.
    8880023    1    1    2    0    0  0.66524286618E+03  0.27930301127E+03 -0.41893168456E+03  0.10629544702E+04  0.65864270000E+03 0. -1.
    8880022    1    1    2    0    0 -0.66524286618E+03 -0.27930301127E+03  0.28493746817E+03  0.79065748392E+03  0.15294330000E+03 0.  0.
<mgrwt>
<rscale>  0 0.91062253E+03</rscale>
<asrwt>0</asrwt>
<pdfrwt beam="1">  1        2 0.15289278E+00 0.97691783E+03</pdfrwt>
<pdfrwt beam="2">  1       -2 0.13227829E+00 0.97691783E+03</pdfrwt>
<totfact> 0.10500165E+01</totfact>
</mgrwt>
</event>
<event>
 4    1  0.3565372E-007  0.7656721E+03  0.7818608E-02  0.9790638E-01
         -2   -1    0    0    0  501 -0.00000000000E+00  0.00000000000E+00  0.20874591487E+04  0.20874591487E+04  0.25500000000E-02 0.  1.
          2   -1    0    0  501    0  0.00000000000E+00 -0.00000000000E+00 -0.73407384135E+03  0.73407384135E+03  0.25500000000E-02 0. -1.
    8880023    1    1    2    0    0 -0.87129004025E+02  0.38059433920E+03 -0.50448483128E+03  0.91692893161E+03  0.65864270000E+03 0.  0.
    8880022    1    1    2    0    0  0.87129004025E+02 -0.38059433920E+03  0.18578701386E+04  0.19046040584E+04  0.15294330000E+03 0.  0.
<mgrwt>
<rscale>  0 0.65867370E+03</rscale>
<asrwt>0</asrwt>
<pdfrwt beam="1">  1        2 0.11293444E+00 0.76567207E+03</pdfrwt>
<pdfrwt beam="2">  1       -2 0.32114756E+00 0.76567207E+03</pdfrwt>
<totfact> 0.94993859E-01</totfact>
</mgrwt>
</event>
<event>
 4    1  0.3565372E-007  0.6848956E+03  0.7818608E-02  0.1006680E+00
         -2   -1    0    0    0  501 -0.00000000000E+00  0.00000000000E+00  0.15889603725E+04  0.15889603725E+04  0.25500000000E-02 0.  1.
          2   -1    0    0  501    0  0.00000000000E+00 -0.00000000000E+00 -0.17828244402E+03  0.17828244404E+03  0.25500000000E-02 0. -1.
    8880023    1    1    2    0    0 -0.17865477356E+03  0.57915894458E+02  0.56593151037E+03  0.88845959933E+03  0.65864270000E+03 0. -1.
    8880022    1    1    2    0    0  0.17865477356E+03 -0.57915894458E+02  0.84474641813E+03  0.87878321724E+03  0.15294330000E+03 0.  0.
<mgrwt>
<rscale>  0 0.52815843E+03</rscale>
<asrwt>0</asrwt>
<pdfrwt beam="1">  1        2 0.27428067E-01 0.68489560E+03</pdfrwt>
<pdfrwt beam="2">  1       -2 0.24445545E+00 0.68489560E+03</pdfrwt>
<totfact> 0.14131119E+01</totfact>
</mgrwt>
</event>
<event>
 4    1  0.3565372E-007  0.9616429E+03  0.7818608E-02  0.9433557E-01
         -2   -1    0    0    0  501 -0.00000000000E+00  0.00000000000E+00  0.59416070464E+03  0.59416070465E+03  0.25500000000E-02 0.  1.
          2   -1    0    0  501    0  0.00000000000E+00 -0.00000000000E+00 -0.25100802327E+04  0.25100802327E+04  0.25500000000E-02 0. -1.
    8880023    1    1    2    0    0 -0.66937233267E+03  0.20709286136E+03 -0.21455510713E+04  0.23512010502E+04  0.65864270000E+03 0.  0.
    8880022    1    1    2    0    0  0.66937233267E+03 -0.20709286136E+03  0.22963154319E+03  0.75303988713E+03  0.15294330000E+03 0.  0.
<mgrwt>
<rscale>  0 0.89364798E+03</rscale>
<asrwt>0</asrwt>
<pdfrwt beam="1">  1        2 0.38616618E+00 0.96164285E+03</pdfrwt>
<pdfrwt beam="2">  1       -2 0.91409341E-01 0.96164285E+03</pdfrwt>
<totfact> 0.35538731E+00</totfact>
</mgrwt>
</event>
<event>
 4    1  0.3565372E-007  0.1346560E+04  0.7818608E-02  0.9026360E-01
         -2   -1    0    0    0  501 -0.00000000000E+00  0.00000000000E+00  0.10586371438E+04  0.10586371438E+04  0.25500000000E-02 0.  1.
          2   -1    0    0  501    0  0.00000000000E+00 -0.00000000000E+00 -0.30378976816E+04  0.30378976816E+04  0.25500000000E-02 0. -1.
    8880023    1    1    2    0    0 -0.84949439651E+01 -0.11744536385E+04 -0.24710213543E+04  0.28141020331E+04  0.65864270000E+03 0. -1.
    8880022    1    1    2    0    0  0.84949439651E+01  0.11744536385E+04  0.49176081651E+03  0.12824327923E+04  0.15294330000E+03 0.  0.
<mgrwt>
<rscale>  0 0.13040491E+04</rscale>
<asrwt>0</asrwt>
<pdfrwt beam="1">  1        2 0.46736887E+00 0.13465600E+04</pdfrwt>
<pdfrwt beam="2">  1       -2 0.16286725E+00 0.13465600E+04</pdfrwt>
<totfact> 0.38148977E-01</totfact>
</mgrwt>
</event>
<event>
 4    1  0.3565372E-007  0.9539075E+03  0.7818608E-02  0.9444514E-01
          2   -1    0    0  501    0  0.00000000000E+00  0.00000000000E+00  0.14501643071E+04  0.14501643071E+04  0.25500000000E-02 0. -1.
         -2   -1    0    0    0  501 -0.00000000000E+00 -0.00000000000E+00 -0.75799740910E+03  0.75799740911E+03  0.25500000000E-02 0.  1.
    8880023    1    1    2    0    0  0.43437865439E+03  0.53613854484E+03  0.10477877849E+04  0.14169681730E+04  0.65864270000E+03 0.  0.
    8880022    1    1    2    0    0 -0.43437865439E+03 -0.53613854484E+03 -0.35562088694E+03  0.79119354326E+03  0.15294330000E+03 0.  0.
<mgrwt>
<rscale>  0 0.88501152E+03</rscale>
<asrwt>0</asrwt>
<pdfrwt beam="1">  1        2 0.22310220E+00 0.95390752E+03</pdfrwt>
<pdfrwt beam="2">  1       -2 0.11661499E+00 0.95390752E+03</pdfrwt>
<totfact> 0.77107334E+00</totfact>
</mgrwt>
</event>
<event>
 4    1  0.3565372E-007  0.9024301E+03  0.7818608E-02  0.9522142E-01
         -2   -1    0    0    0  501 -0.00000000000E+00  0.00000000000E+00  0.70368710194E+03  0.70368710195E+03  0.25500000000E-02 0.  1.
          2   -1    0    0  501    0  0.00000000000E+00 -0.00000000000E+00 -0.11692173481E+04  0.11692173481E+04  0.25500000000E-02 0. -1.
    8880023    1    1    2    0    0  0.59419989411E+03  0.16582015801E+03 -0.75301131903E+03  0.11753323325E+04  0.65864270000E+03 0. -1.
    8880022    1    1    2    0    0 -0.59419989411E+03 -0.16582015801E+03  0.28748107284E+03  0.69757211758E+03  0.15294330000E+03 0.  0.
<mgrwt>
<rscale>  0 0.82670900E+03</rscale>
<asrwt>0</asrwt>
<pdfrwt beam="1">  1        2 0.17987959E+00 0.90243008E+03</pdfrwt>
<pdfrwt beam="2">  1       -2 0.10825955E+00 0.90243008E+03</pdfrwt>
<totfact> 0.13530993E+01</totfact>
</mgrwt>
</event>
<event>
 4    1  0.3565372E-007  0.7571010E+03  0.7818608E-02  0.9812671E-01
          2   -1    0    0  501    0  0.00000000000E+00  0.00000000000E+00  0.34359026987E+04  0.34359026987E+04  0.25500000000E-02 0. -1.
         -2   -1    0    0    0  501 -0.00000000000E+00 -0.00000000000E+00 -0.26995640994E+03  0.26995640995E+03  0.25500000000E-02 0.  1.
    8880023    1    1    2    0    0  0.37330186533E+03 -0.61217369289E+01  0.32117724898E+04  0.32998006744E+04  0.65864270000E+03 0. -1.
    8880022    1    1    2    0    0 -0.37330186533E+03  0.61217369289E+01 -0.45826201020E+02  0.40605843426E+03  0.15294330000E+03 0.  0.
<mgrwt>
<rscale>  0 0.64686946E+03</rscale>
<asrwt>0</asrwt>
<pdfrwt beam="1">  1        2 0.52860041E+00 0.75710103E+03</pdfrwt>
<pdfrwt beam="2">  1       -2 0.41531756E-01 0.75710103E+03</pdfrwt>
<totfact> 0.53416498E+00</totfact>
</mgrwt>
</event>
<event>
 4    1  0.3565372E-007  0.1045068E+04  0.7818608E-02  0.9324834E-01
         -2   -1    0    0    0  501 -0.00000000000E+00  0.00000000000E+00  0.76304982788E+03  0.76304982789E+03  0.25500000000E-02 0.  1.
          2   -1    0    0  501    0  0.00000000000E+00 -0.00000000000E+00 -0.23851101619E+04  0.23851101619E+04  0.25500000000E-02 0. -1.
    8880023    1    1    2    0    0  0.55786099593E+03  0.58919186573E+03 -0.19872768455E+04  0.22453141011E+04  0.65864270000E+03 0. -1.
    8880022    1    1    2    0    0 -0.55786099593E+03 -0.58919186573E+03  0.36521651153E+03  0.90284588870E+03  0.15294330000E+03 0.  0.
<mgrwt>
<rscale>  0 0.98528352E+03</rscale>
<asrwt>0</asrwt>
<pdfrwt beam="1">  1        2 0.36694002E+00 0.10450675E+04</pdfrwt>
<pdfrwt beam="2">  1       -2 0.11739228E+00 0.10450675E+04</pdfrwt>
<totfact> 0.22705945E+00</totfact>
</mgrwt>
</event>
<event>
 4    1  0.3565372E-007  0.7771816E+03  0.7818608E-02  0.9762500E-01
          2   -1    0    0  501    0  0.00000000000E+00  0.00000000000E+00  0.43073474559E+03  0.43073474560E+03  0.25500000000E-02 0. -1.
         -2   -1    0    0    0  501 -0.00000000000E+00 -0.00000000000E+00 -0.16074996993E+04  0.16074996993E+04  0.25500000000E-02 0.  1.
    8880023    1    1    2    0    0  0.39044529410E+03 -0.13324213904E+03  0.50221532486E+01  0.77719780210E+03  0.65864270000E+03 0. -1.
    8880022    1    1    2    0    0 -0.39044529410E+03  0.13324213904E+03 -0.11817871070E+04  0.12610366428E+04  0.15294330000E+03 0.  0.
<mgrwt>
<rscale>  0 0.67414448E+03</rscale>
<asrwt>0</asrwt>
<pdfrwt beam="1">  1        2 0.66266885E-01 0.77718158E+03</pdfrwt>
<pdfrwt beam="2">  1       -2 0.24730764E+00 0.77718158E+03</pdfrwt>
<totfact> 0.50012723E+00</totfact>
</mgrwt>
</event>
<event>
 4    1  0.3565372E-007  0.9794928E+03  0.7818608E-02  0.9408893E-01
          2   -1    0    0  501    0  0.00000000000E+00  0.00000000000E+00  0.95379222659E+03  0.95379222659E+03  0.25500000000E-02 0. -1.
         -2   -1    0    0    0  501 -0.00000000000E+00 -0.00000000000E+00 -0.14169146567E+04  0.14169146567E+04  0.25500000000E-02 0.  1.
    8880023    1    1    2    0    0 -0.68961339125E+03  0.22367212464E+03  0.54397924491E+03  0.11204104042E+04  0.65864270000E+03 0. -1.
    8880022    1    1    2    0    0  0.68961339125E+03 -0.22367212464E+03 -0.10071016750E+04  0.12502964791E+04  0.15294330000E+03 0.  0.
<mgrwt>
<rscale>  0 0.91347408E+03</rscale>
<asrwt>0</asrwt>
<pdfrwt beam="1">  1        2 0.14673727E+00 0.97949275E+03</pdfrwt>
<pdfrwt beam="2">  1       -2 0.21798687E+00 0.97949275E+03</pdfrwt>
<totfact> 0.27364397E+00</totfact>
</mgrwt>
</event>
<event>
 4    1  0.3565372E-007  0.6907198E+03  0.7818608E-02  0.1003812E+00
         -2   -1    0    0    0  501 -0.00000000000E+00  0.00000000000E+00  0.12534036399E+04  0.12534036399E+04  0.25500000000E-02 0.  1.
          2   -1    0    0  501    0  0.00000000000E+00 -0.00000000000E+00 -0.36489749790E+03  0.36489749791E+03  0.25500000000E-02 0. -1.
    8880023    1    1    2    0    0  0.10791603628E+03  0.17786995792E+03 -0.24058498780E+01  0.69072395875E+03  0.65864270000E+03 0. -1.
    8880022    1    1    2    0    0 -0.10791603628E+03 -0.17786995792E+03  0.89091199188E+03  0.92757717906E+03  0.15294330000E+03 0.  0.
<mgrwt>
<rscale>  0 0.54009728E+03</rscale>
<asrwt>0</asrwt>
<pdfrwt beam="1">  1        2 0.56138077E-01 0.69071977E+03</pdfrwt>
<pdfrwt beam="2">  1       -2 0.19283133E+00 0.69071977E+03</pdfrwt>
<totfact> 0.13386941E+01</totfact>
</mgrwt>
</event>
<event>
 4    1  0.3565372E-007  0.7453662E+03  0.7818608E-02  0.9844583E-01
          2   -1    0    0  501    0  0.00000000000E+00  0.00000000000E+00  0.32135549995E+04  0.32135549995E+04  0.25500000000E-02 0. -1.
         -2   -1    0    0    0  501 -0.00000000000E+00 -0.00000000000E+00 -0.10524600282E+03  0.10524600285E+03  0.25500000000E-02 0.  1.
    8880023    1    1    2    0    0  0.14507250164E+03 -0.31735563110E+03  0.16325447326E+04  0.17946512579E+04  0.65864270000E+03 0.  1.
    8880022    1    1    2    0    0 -0.14507250164E+03  0.31735563110E+03  0.14757642642E+04  0.15241497445E+04  0.15294330000E+03 0.  0.
<mgrwt>
<rscale>  0 0.63023900E+03</rscale>
<asrwt>0</asrwt>
<pdfrwt beam="1">  1        2 0.49439307E+00 0.74536624E+03</pdfrwt>
<pdfrwt beam="2">  1       -2 0.16191693E-01 0.74536624E+03</pdfrwt>
<totfact> 0.41607007E+01</totfact>
</mgrwt>
</event>
<event>
 4    1  0.3565372E-007  0.7862136E+03  0.7818608E-02  0.9741438E-01
          2   -1    0    0  501    0  0.00000000000E+00  0.00000000000E+00  0.17430994292E+04  0.17430994292E+04  0.25500000000E-02 0. -1.
         -2   -1    0    0    0  501 -0.00000000000E+00 -0.00000000000E+00 -0.43906829359E+03  0.43906829360E+03  0.25500000000E-02 0.  1.
    8880023    1    1    2    0    0  0.39491465734E+03 -0.16841641761E+03  0.14941268752E+04  0.16883563018E+04  0.65864270000E+03 0. -1.
    8880022    1    1    2    0    0 -0.39491465734E+03  0.16841641761E+03 -0.19009573960E+03  0.49381142102E+03  0.15294330000E+03 0.  0.
<mgrwt>
<rscale>  0 0.68602268E+03</rscale>
<asrwt>0</asrwt>
<pdfrwt beam="1">  1        2 0.26816914E+00 0.78621364E+03</pdfrwt>
<pdfrwt beam="2">  1       -2 0.67548968E-01 0.78621364E+03</pdfrwt>
<totfact> 0.19090328E+01</totfact>
</mgrwt>
</event>
<event>
 4    1  0.3565372E-007  0.7941045E+03  0.7818608E-02  0.9723691E-01
         -2   -1    0    0    0  501 -0.00000000000E+00  0.00000000000E+00  0.31470644884E+03  0.31470644885E+03  0.25500000000E-02 0.  1.
          2   -1    0    0  501    0  0.00000000000E+00 -0.00000000000E+00 -0.43322417460E+04  0.43322417460E+04  0.25500000000E-02 0. -1.
    8880023    1    1    2    0    0  0.77929540322E+02  0.43671362283E+03 -0.40950645408E+04  0.41713493741E+04  0.65864270000E+03 0. -1.
    8880022    1    1    2    0    0 -0.77929540322E+02 -0.43671362283E+03  0.77529243636E+02  0.47559882070E+03  0.15294330000E+03 0.  0.
<mgrwt>
<rscale>  0 0.69623578E+03</rscale>
<asrwt>0</asrwt>
<pdfrwt beam="1">  1        2 0.66649869E+00 0.79410453E+03</pdfrwt>
<pdfrwt beam="2">  1       -2 0.48416380E-01 0.79410453E+03</pdfrwt>
<totfact> 0.80107441E-01</totfact>
</mgrwt>
</event>
<event>
 4    1  0.3565372E-007  0.8326640E+03  0.7818608E-02  0.9644171E-01
         -2   -1    0    0    0  501 -0.00000000000E+00  0.00000000000E+00  0.72862983458E+03  0.72862983459E+03  0.25500000000E-02 0.  1.
          2   -1    0    0  501    0  0.00000000000E+00 -0.00000000000E+00 -0.63899717789E+03  0.63899717789E+03  0.25500000000E-02 0. -1.
    8880023    1    1    2    0    0 -0.42636192653E+03 -0.27880922294E+03  0.45516728888E+02  0.83390710158E+03  0.65864270000E+03 0.  0.
    8880022    1    1    2    0    0  0.42636192653E+03  0.27880922294E+03  0.44115927806E+02  0.53371991090E+03  0.15294330000E+03 0.  1.
<mgrwt>
<rscale>  0 0.74440367E+03</rscale>
<asrwt>0</asrwt>
<pdfrwt beam="1">  1        2 0.98307259E-01 0.83266397E+03</pdfrwt>
<pdfrwt beam="2">  1       -2 0.11209690E+00 0.83266397E+03</pdfrwt>
<totfact> 0.29004891E+01</totfact>
</mgrwt>
</event>
<event>
 4    1  0.3565372E-007  0.6641944E+03  0.7818608E-02  0.1020219E+00
         -2   -1    0    0    0  501 -0.00000000000E+00  0.00000000000E+00  0.14992085895E+03  0.14992085897E+03  0.25500000000E-02 0.  1.
          2   -1    0    0  501    0  0.00000000000E+00 -0.00000000000E+00 -0.21359479423E+04  0.21359479423E+04  0.25500000000E-02 0. -1.
    8880023    1    1    2    0    0 -0.16940556396E+02 -0.84005691614E+02 -0.20025034217E+04  0.21097805807E+04  0.65864270000E+03 0. -1.
    8880022    1    1    2    0    0  0.16940556396E+02  0.84005691614E+02  0.16476338341E+02  0.17608822054E+03  0.15294330000E+03 0.  0.
<mgrwt>
<rscale>  0 0.47607632E+03</rscale>
<asrwt>0</asrwt>
<pdfrwt beam="1">  1        2 0.32860735E+00 0.66419436E+03</pdfrwt>
<pdfrwt beam="2">  1       -2 0.23064749E-01 0.66419436E+03</pdfrwt>
<totfact> 0.96656200E+01</totfact>
</mgrwt>
</event>
<event>
 4    1  0.3565372E-007  0.1063315E+04  0.7818608E-02  0.9303044E-01
         -2   -1    0    0    0  501 -0.00000000000E+00  0.00000000000E+00  0.17314824058E+04  0.17314824059E+04  0.25500000000E-02 0.  1.
          2   -1    0    0  501    0  0.00000000000E+00 -0.00000000000E+00 -0.70809121069E+03  0.70809121069E+03  0.25500000000E-02 0. -1.
    8880023    1    1    2    0    0  0.69615424425E+03  0.46064857997E+03 -0.58049290180E+02  0.10648980103E+04  0.65864270000E+03 0.  0.
    8880022    1    1    2    0    0 -0.69615424425E+03 -0.46064857997E+03  0.10814404853E+04  0.13746756062E+04  0.15294330000E+03 0.  0.
<mgrwt>
<rscale>  0 0.10050310E+04</rscale>
<asrwt>0</asrwt>
<pdfrwt beam="1">  1        2 0.10893711E+00 0.10633147E+04</pdfrwt>
<pdfrwt beam="2">  1       -2 0.26638190E+00 0.10633147E+04</pdfrwt>
<totfact> 0.20449361E+00</totfact>
</mgrwt>
</event>
<event>
 4    1  0.3565372E-007  0.1010388E+04  0.7818608E-02  0.9368092E-01
         -2   -1    0    0    0  501 -0.00000000000E+00  0.00000000000E+00  0.66624005529E+03  0.66624005530E+03  0.25500000000E-02 0.  1.
          2   -1    0    0  501    0  0.00000000000E+00 -0.00000000000E+00 -0.17502852693E+04  0.17502852693E+04  0.25500000000E-02 0. -1.
    8880023    1    1    2    0    0 -0.76602842654E+03 -0.16536970144E+02 -0.12605552639E+04  0.16155131697E+04  0.65864270000E+03 0. -1.
    8880022    1    1    2    0    0  0.76602842654E+03  0.16536970144E+02  0.17651004991E+03  0.80101215496E+03  0.15294330000E+03 0.  0.
<mgrwt>
<rscale>  0 0.94748773E+03</rscale>
<asrwt>0</asrwt>
<pdfrwt beam="1">  1        2 0.26927466E+00 0.10103877E+04</pdfrwt>
<pdfrwt beam="2">  1       -2 0.10249847E+00 0.10103877E+04</pdfrwt>
<totfact> 0.71345581E+00</totfact>
</mgrwt>
</event>
<event>
 4    1  0.3565372E-007  0.1152790E+04  0.7818608E-02  0.9204439E-01
          2   -1    0    0  501    0  0.00000000000E+00  0.00000000000E+00  0.25023015447E+04  0.25023015447E+04  0.25500000000E-02 0. -1.
         -2   -1    0    0    0  501 -0.00000000000E+00 -0.00000000000E+00 -0.80350278532E+03  0.80350278533E+03  0.25500000000E-02 0.  1.
    8880023    1    1    2    0    0  0.88878258700E+03  0.32431339378E+03  0.19937706123E+04  0.23030512641E+04  0.65864270000E+03 0.  0.
    8880022    1    1    2    0    0 -0.88878258700E+03 -0.32431339378E+03 -0.29497185286E+03  0.10027530660E+04  0.15294330000E+03 0.  0.
<mgrwt>
<rscale>  0 0.11007729E+04</rscale>
<asrwt>0</asrwt>
<pdfrwt beam="1">  1        2 0.38496946E+00 0.11527896E+04</pdfrwt>
<pdfrwt beam="2">  1       -2 0.12361582E+00 0.11527896E+04</pdfrwt>
<totfact> 0.16874415E+00</totfact>
</mgrwt>
</event>
<event>
 4    1  0.3565372E-007  0.8228037E+03  0.7818608E-02  0.9663500E-01
          2   -1    0    0  501    0  0.00000000000E+00  0.00000000000E+00  0.21893940698E+04  0.21893940698E+04  0.25500000000E-02 0. -1.
         -2   -1    0    0    0  501 -0.00000000000E+00 -0.00000000000E+00 -0.48220324032E+03  0.48220324032E+03  0.25500000000E-02 0.  1.
    8880023    1    1    2    0    0 -0.48436238779E+03  0.92675786659E+02  0.19384529884E+04  0.21058504027E+04  0.65864270000E+03 0.  0.
    8880022    1    1    2    0    0  0.48436238779E+03 -0.92675786659E+02 -0.23126215887E+03  0.56574690745E+03  0.15294330000E+03 0.  0.
<mgrwt>
<rscale>  0 0.73232207E+03</rscale>
<asrwt>0</asrwt>
<pdfrwt beam="1">  1        2 0.33682985E+00 0.82280370E+03</pdfrwt>
<pdfrwt beam="2">  1       -2 0.74185115E-01 0.82280370E+03</pdfrwt>
<totfact> 0.88120230E+00</totfact>
</mgrwt>
</event>
<event>
 4    1  0.3565372E-007  0.7164563E+03  0.7818608E-02  0.9934764E-01
          2   -1    0    0  501    0  0.00000000000E+00  0.00000000000E+00  0.12184178810E+04  0.12184178810E+04  0.25500000000E-02 0. -1.
         -2   -1    0    0    0  501 -0.00000000000E+00 -0.00000000000E+00 -0.57356229589E+03  0.57356229590E+03  0.25500000000E-02 0.  1.
    8880023    1    1    2    0    0  0.27954779276E+03 -0.36775395838E+02  0.10525338317E+04  0.12732388116E+04  0.65864270000E+03 0. -1.
    8880022    1    1    2    0    0 -0.27954779276E+03  0.36775395838E+02 -0.40767824668E+03  0.51874136524E+03  0.15294330000E+03 0.  0.
<mgrwt>
<rscale>  0 0.58605648E+03</rscale>
<asrwt>0</asrwt>
<pdfrwt beam="1">  1        2 0.18744891E+00 0.71645628E+03</pdfrwt>
<pdfrwt beam="2">  1       -2 0.88240353E-01 0.71645628E+03</pdfrwt>
<totfact> 0.20899612E+01</totfact>
</mgrwt>
</event>
<event>
 4    1  0.3565372E-007  0.6664082E+03  0.7818608E-02  0.1018380E+00
          2   -1    0    0  501    0  0.00000000000E+00  0.00000000000E+00  0.89751335856E+03  0.89751335856E+03  0.25500000000E-02 0. -1.
         -2   -1    0    0    0  501 -0.00000000000E+00 -0.00000000000E+00 -0.31791702432E+03  0.31791702433E+03  0.25500000000E-02 0.  1.
    8880023    1    1    2    0    0 -0.22316762455E+02 -0.98952748617E+02  0.72244317474E+03  0.98286521524E+03  0.65864270000E+03 0. -1.
    8880022    1    1    2    0    0  0.22316762455E+02  0.98952748617E+02 -0.14284684050E+03  0.23256516764E+03  0.15294330000E+03 0.  0.
<mgrwt>
<rscale>  0 0.48275737E+03</rscale>
<asrwt>0</asrwt>
<pdfrwt beam="1">  1        2 0.13807898E+00 0.66640820E+03</pdfrwt>
<pdfrwt beam="2">  1       -2 0.48910312E-01 0.66640820E+03</pdfrwt>
<totfact> 0.11863217E+02</totfact>
</mgrwt>
</event>
<event>
 4    1  0.3565372E-007  0.9983923E+03  0.7818608E-02  0.9383664E-01
          2   -1    0    0  501    0  0.00000000000E+00  0.00000000000E+00  0.30390789351E+04  0.30390789351E+04  0.25500000000E-02 0. -1.
         -2   -1    0    0    0  501 -0.00000000000E+00 -0.00000000000E+00 -0.26129243926E+03  0.26129243928E+03  0.25500000000E-02 0.  1.
    8880023    1    1    2    0    0  0.59997583567E+03 -0.45056179464E+03  0.18008877998E+04  0.20591221450E+04  0.65864270000E+03 0.  1.
    8880022    1    1    2    0    0 -0.59997583567E+03  0.45056179464E+03  0.97689869610E+03  0.12412492295E+04  0.15294330000E+03 0. -1.
<mgrwt>
<rscale>  0 0.93432345E+03</rscale>
<asrwt>0</asrwt>
<pdfrwt beam="1">  1        2 0.46755060E+00 0.99839228E+03</pdfrwt>
<pdfrwt beam="2">  1       -2 0.40198837E-01 0.99839228E+03</pdfrwt>
<totfact> 0.98698902E+00</totfact>
</mgrwt>
</event>
<event>
 4    1  0.3565372E-007  0.7102545E+03  0.7818608E-02  0.9957057E-01
          2   -1    0    0  501    0  0.00000000000E+00  0.00000000000E+00  0.45646402069E+03  0.45646402069E+03  0.25500000000E-02 0. -1.
         -2   -1    0    0    0  501 -0.00000000000E+00 -0.00000000000E+00 -0.11983521976E+04  0.11983521976E+04  0.25500000000E-02 0.  1.
    8880023    1    1    2    0    0 -0.90615401326E+02  0.24988023385E+03  0.13754363250E+03  0.72344988723E+03  0.65864270000E+03 0. -1.
    8880022    1    1    2    0    0  0.90615401326E+02 -0.24988023385E+03 -0.87943180943E+03  0.93136633109E+03  0.15294330000E+03 0.  0.
<mgrwt>
<rscale>  0 0.57573983E+03</rscale>
<asrwt>0</asrwt>
<pdfrwt beam="1">  1        2 0.70225235E-01 0.71025452E+03</pdfrwt>
<pdfrwt beam="2">  1       -2 0.18436188E+00 0.71025452E+03</pdfrwt>
<totfact> 0.11821748E+01</totfact>
</mgrwt>
</event>
<event>
 4    1  0.3565372E-007  0.6788126E+03  0.7818608E-02  0.1010003E+00
          2   -1    0    0  501    0  0.00000000000E+00  0.00000000000E+00  0.10074895939E+04  0.10074895939E+04  0.25500000000E-02 0. -1.
         -2   -1    0    0    0  501 -0.00000000000E+00 -0.00000000000E+00 -0.27693512736E+03  0.27693512737E+03  0.25500000000E-02 0.  1.
    8880023    1    1    2    0    0  0.10424527406E+03  0.12692253547E+03  0.80029642583E+03  0.10494098259E+04  0.65864270000E+03 0.  0.
    8880022    1    1    2    0    0 -0.10424527406E+03 -0.12692253547E+03 -0.69741959267E+02  0.23501489543E+03  0.15294330000E+03 0.  0.
<mgrwt>
<rscale>  0 0.51473281E+03</rscale>
<asrwt>0</asrwt>
<pdfrwt beam="1">  1        2 0.15499840E+00 0.67881265E+03</pdfrwt>
<pdfrwt beam="2">  1       -2 0.42605404E-01 0.67881265E+03</pdfrwt>
<totfact> 0.13237309E+02</totfact>
</mgrwt>
</event>
<event>
 4    1  0.3565372E-007  0.1362133E+04  0.7818608E-02  0.9013679E-01
         -2   -1    0    0    0  501 -0.00000000000E+00  0.00000000000E+00  0.19419671588E+04  0.19419671588E+04  0.25500000000E-02 0.  1.
          2   -1    0    0  501    0  0.00000000000E+00 -0.00000000000E+00 -0.15978965922E+04  0.15978965922E+04  0.25500000000E-02 0. -1.
    8880023    1    1    2    0    0  0.42206893448E+02 -0.11915600440E+04 -0.10347724831E+04  0.17106025425E+04  0.65864270000E+03 0.  0.
    8880022    1    1    2    0    0 -0.42206893448E+02  0.11915600440E+04  0.13788430497E+04  0.18292612085E+04  0.15294330000E+03 0.  0.
<mgrwt>
<rscale>  0 0.13202244E+04</rscale>
<asrwt>0</asrwt>
<pdfrwt beam="1">  1        2 0.24583024E+00 0.13621332E+04</pdfrwt>
<pdfrwt beam="2">  1       -2 0.29876418E+00 0.13621332E+04</pdfrwt>
<totfact> 0.34544165E-01</totfact>
</mgrwt>
</event>
<event>
 4    1  0.3565372E-007  0.9076688E+03  0.7818608E-02  0.9513831E-01
         -2   -1    0    0    0  501 -0.00000000000E+00  0.00000000000E+00  0.59777903980E+03  0.59777903981E+03  0.25500000000E-02 0.  1.
          2   -1    0    0  501    0  0.00000000000E+00 -0.00000000000E+00 -0.10871679631E+04  0.10871679631E+04  0.25500000000E-02 0. -1.
    8880023    1    1    2    0    0  0.19954169251E+02  0.62422295789E+03 -0.51092792609E+03  0.10415901411E+04  0.65864270000E+03 0.  0.
    8880022    1    1    2    0    0 -0.19954169251E+02 -0.62422295789E+03  0.21539002808E+02  0.64335686184E+03  0.15294330000E+03 0.  0.
<mgrwt>
<rscale>  0 0.83271745E+03</rscale>
<asrwt>0</asrwt>
<pdfrwt beam="1">  1        2 0.16725661E+00 0.90766881E+03</pdfrwt>
<pdfrwt beam="2">  1       -2 0.91966006E-01 0.90766881E+03</pdfrwt>
<totfact> 0.22355225E+01</totfact>
</mgrwt>
</event>
<event>
 4    1  0.3565372E-007  0.6807782E+03  0.7818608E-02  0.1008887E+00
         -2   -1    0    0    0  501 -0.00000000000E+00  0.00000000000E+00  0.25092104955E+03  0.25092104956E+03  0.25500000000E-02 0.  1.
          2   -1    0    0  501    0  0.00000000000E+00 -0.00000000000E+00 -0.39640794708E+04  0.39640794708E+04  0.25500000000E-02 0. -1.
    8880023    1    1    2    0    0 -0.14297666033E+03  0.95950140704E+02 -0.38744677302E+04  0.39338224609E+04  0.65864270000E+03 0. -1.
    8880022    1    1    2    0    0  0.14297666033E+03 -0.95950140704E+02  0.16130930904E+03  0.28117805942E+03  0.15294330000E+03 0.  0.
<mgrwt>
<rscale>  0 0.51919451E+03</rscale>
<asrwt>0</asrwt>
<pdfrwt beam="1">  1        2 0.60985833E+00 0.68077820E+03</pdfrwt>
<pdfrwt beam="2">  1       -2 0.38603241E-01 0.68077820E+03</pdfrwt>
<totfact> 0.26092556E+00</totfact>
</mgrwt>
</event>
<event>
 4    1  0.3565372E-007  0.8402016E+03  0.7818608E-02  0.9629800E-01
          2   -1    0    0  501    0  0.00000000000E+00  0.00000000000E+00  0.89247509509E+03  0.89247509509E+03  0.25500000000E-02 0. -1.
         -2   -1    0    0    0  501 -0.00000000000E+00 -0.00000000000E+00 -0.77410501075E+03  0.77410501076E+03  0.25500000000E-02 0.  1.
    8880023    1    1    2    0    0 -0.40288952008E+03  0.33137378132E+03  0.52230919734E+03  0.98931574951E+03  0.65864270000E+03 0.  0.
    8880022    1    1    2    0    0  0.40288952008E+03 -0.33137378132E+03 -0.40393911300E+03  0.67726435634E+03  0.15294330000E+03 0.  0.
<mgrwt>
<rscale>  0 0.75354819E+03</rscale>
<asrwt>0</asrwt>
<pdfrwt beam="1">  1        2 0.13730386E+00 0.84020162E+03</pdfrwt>
<pdfrwt beam="2">  1       -2 0.11909308E+00 0.84020162E+03</pdfrwt>
<totfact> 0.16159598E+01</totfact>
</mgrwt>
</event>
<event>
 4    1  0.3565372E-007  0.8433145E+03  0.7818608E-02  0.9623962E-01
         -2   -1    0    0    0  501 -0.00000000000E+00  0.00000000000E+00  0.94998265529E+03  0.94998265529E+03  0.25500000000E-02 0.  1.
          2   -1    0    0  501    0  0.00000000000E+00 -0.00000000000E+00 -0.56267447204E+03  0.56267447205E+03  0.25500000000E-02 0. -1.
    8880023    1    1    2    0    0  0.32479058176E+03 -0.41458440631E+03  0.45807465135E+03  0.95969356798E+03  0.65864270000E+03 0.  1.
    8880022    1    1    2    0    0 -0.32479058176E+03  0.41458440631E+03 -0.70766468101E+02  0.55296355936E+03  0.15294330000E+03 0.  0.
<mgrwt>
<rscale>  0 0.75730327E+03</rscale>
<asrwt>0</asrwt>
<pdfrwt beam="1">  1        2 0.86565305E-01 0.84331451E+03</pdfrwt>
<pdfrwt beam="2">  1       -2 0.14615118E+00 0.84331451E+03</pdfrwt>
<totfact> 0.17292949E+01</totfact>
</mgrwt>
</event>
<event>
 4    1  0.3565372E-007  0.9733528E+03  0.7818608E-02  0.9417282E-01
          2   -1    0    0  501    0  0.00000000000E+00  0.00000000000E+00  0.33849356744E+04  0.33849356744E+04  0.25500000000E-02 0. -1.
         -2   -1    0    0    0  501 -0.00000000000E+00 -0.00000000000E+00 -0.23081631907E+03  0.23081631909E+03  0.25500000000E-02 0.  1.
    8880023    1    1    2    0    0  0.70303951216E+03  0.13907195320E+03  0.22531056838E+04  0.24543636635E+04  0.65864270000E+03 0. -1.
    8880022    1    1    2    0    0 -0.70303951216E+03 -0.13907195320E+03  0.90101367147E+03  0.11613883300E+04  0.15294330000E+03 0.  0.
<mgrwt>
<rscale>  0 0.90666997E+03</rscale>
<asrwt>0</asrwt>
<pdfrwt beam="1">  1        2 0.52075930E+00 0.97335285E+03</pdfrwt>
<pdfrwt beam="2">  1       -2 0.35510205E-01 0.97335285E+03</pdfrwt>
<totfact> 0.75452634E+00</totfact>
</mgrwt>
</event>
<event>
 4    1  0.3565372E-007  0.7228427E+03  0.7818608E-02  0.9913082E-01
          2   -1    0    0  501    0  0.00000000000E+00  0.00000000000E+00  0.97944579000E+03  0.97944579001E+03  0.25500000000E-02 0. -1.
         -2   -1    0    0    0  501 -0.00000000000E+00 -0.00000000000E+00 -0.57638920557E+03  0.57638920558E+03  0.25500000000E-02 0.  1.
    8880023    1    1    2    0    0 -0.29124375580E+03 -0.62196613709E+02  0.77203483480E+03  0.10576102006E+04  0.65864270000E+03 0. -1.
    8880022    1    1    2    0    0  0.29124375580E+03  0.62196613709E+02 -0.36897825037E+03  0.49822479496E+03  0.15294330000E+03 0.  0.
<mgrwt>
<rscale>  0 0.59631442E+03</rscale>
<asrwt>0</asrwt>
<pdfrwt beam="1">  1        2 0.15068397E+00 0.72284269E+03</pdfrwt>
<pdfrwt beam="2">  1       -2 0.88675263E-01 0.72284269E+03</pdfrwt>
<totfact> 0.28931349E+01</totfact>
</mgrwt>
</event>
<event>
 4    1  0.3565372E-007  0.8057644E+03  0.7818608E-02  0.9698468E-01
         -2   -1    0    0    0  501 -0.00000000000E+00  0.00000000000E+00  0.80061045994E+03  0.80061045995E+03  0.25500000000E-02 0.  1.
          2   -1    0    0  501    0  0.00000000000E+00 -0.00000000000E+00 -0.64491279008E+03  0.64491279008E+03  0.25500000000E-02 0. -1.
    8880023    1    1    2    0    0  0.46298575647E+03  0.33018580053E+02 -0.21287432211E+03  0.83340969553E+03  0.65864270000E+03 0.  0.
    8880022    1    1    2    0    0 -0.46298575647E+03 -0.33018580053E+02  0.36857199198E+03  0.61211355450E+03  0.15294330000E+03 0.  0.
<mgrwt>
<rscale>  0 0.71108073E+03</rscale>
<asrwt>0</asrwt>
<pdfrwt beam="1">  1        2 0.99217353E-01 0.80576438E+03</pdfrwt>
<pdfrwt beam="2">  1       -2 0.12317084E+00 0.80576438E+03</pdfrwt>
<totfact> 0.22782860E+01</totfact>
</mgrwt>
</event>
<event>
 4    1  0.3565372E-007  0.6631464E+03  0.7818608E-02  0.1021142E+00
         -2   -1    0    0    0  501 -0.00000000000E+00  0.00000000000E+00  0.54549711929E+03  0.54549711929E+03  0.25500000000E-02 0.  1.
          2   -1    0    0  501    0  0.00000000000E+00 -0.00000000000E+00 -0.57649426604E+03  0.57649426604E+03  0.25500000000E-02 0. -1.
    8880023    1    1    2    0    0 -0.67908935627E+02  0.36624405634E+02 -0.35743167611E+03  0.75333961795E+03  0.65864270000E+03 0. -1.
    8880022    1    1    2    0    0  0.67908935627E+02 -0.36624405634E+02  0.32643452936E+03  0.36865176739E+03  0.15294330000E+03 0.  0.
<mgrwt>
<rscale>  0 0.47276807E+03</rscale>
<asrwt>0</asrwt>
<pdfrwt beam="1">  1        2 0.88691425E-01 0.66314642E+03</pdfrwt>
<pdfrwt beam="2">  1       -2 0.83922634E-01 0.66314642E+03</pdfrwt>
<totfact> 0.65715527E+01</totfact>
</mgrwt>
</event>
<event>
 4    1  0.3565372E-007  0.6683424E+03  0.7818608E-02  0.1016880E+00
          2   -1    0    0  501    0  0.00000000000E+00  0.00000000000E+00  0.64750047810E+03  0.64750047810E+03  0.25500000000E-02 0. -1.
         -2   -1    0    0    0  501 -0.00000000000E+00 -0.00000000000E+00 -0.75596892782E+03  0.75596892783E+03  0.25500000000E-02 0.  1.
    8880023    1    1    2    0    0  0.90076863973E+02  0.68975162207E+02  0.45511328615E+03  0.80858501342E+03  0.65864270000E+03 0. -1.
    8880022    1    1    2    0    0 -0.90076863973E+02 -0.68975162207E+02 -0.56358173588E+03  0.59488439251E+03  0.15294330000E+03 0.  0.
<mgrwt>
<rscale>  0 0.48829508E+03</rscale>
<asrwt>0</asrwt>
<pdfrwt beam="1">  1        2 0.99615459E-01 0.66834244E+03</pdfrwt>
<pdfrwt beam="2">  1       -2 0.11630291E+00 0.66834244E+03</pdfrwt>
<totfact> 0.26452676E+01</totfact>
</mgrwt>
</event>
<event>
 4    1  0.3565372E-007  0.7697082E+03  0.7818608E-02  0.9780593E-01
         -2   -1    0    0    0  501 -0.00000000000E+00  0.00000000000E+00  0.19758375121E+03  0.19758375122E+03  0.25500000000E-02 0.  1.
          2   -1    0    0  501    0  0.00000000000E+00 -0.00000000000E+00 -0.19228171739E+04  0.19228171739E+04  0.25500000000E-02 0. -1.
    8880023    1    1    2    0    0  0.39727390017E+03  0.28530470687E+02 -0.84999217010E+03  0.11467072142E+04  0.65864270000E+03 0.  1.
    8880022    1    1    2    0    0 -0.39727390017E+03 -0.28530470687E+02 -0.87524125255E+03  0.97369371093E+03  0.15294330000E+03 0.  0.
<mgrwt>
<rscale>  0 0.66414532E+03</rscale>
<asrwt>0</asrwt>
<pdfrwt beam="1">  1        2 0.29581801E+00 0.76970822E+03</pdfrwt>
<pdfrwt beam="2">  1       -2 0.30397501E-01 0.76970822E+03</pdfrwt>
<totfact> 0.75542060E+01</totfact>
</mgrwt>
</event>
<event>
 4    1  0.3565372E-007  0.7466997E+03  0.7818608E-02  0.9840844E-01
         -2   -1    0    0    0  501 -0.00000000000E+00  0.00000000000E+00  0.46978055142E+03  0.46978055142E+03  0.25500000000E-02 0.  1.
          2   -1    0    0  501    0  0.00000000000E+00 -0.00000000000E+00 -0.15831125528E+04  0.15831125528E+04  0.25500000000E-02 0. -1.
    8880023    1    1    2    0    0 -0.30239988851E+03 -0.17973470016E+03 -0.13914121505E+04  0.15791099499E+04  0.65864270000E+03 0.  0.
    8880022    1    1    2    0    0  0.30239988851E+03  0.17973470016E+03  0.27808014910E+03  0.47378315435E+03  0.15294330000E+03 0.  1.
<mgrwt>
<rscale>  0 0.63215931E+03</rscale>
<asrwt>0</asrwt>
<pdfrwt beam="1">  1        2 0.24355577E+00 0.74669971E+03</pdfrwt>
<pdfrwt beam="2">  1       -2 0.72273932E-01 0.74669971E+03</pdfrwt>
<totfact> 0.20263416E+01</totfact>
</mgrwt>
</event>
<event>
 4    1  0.3565372E-007  0.1098902E+04  0.7818608E-02  0.9262279E-01
          2   -1    0    0  501    0  0.00000000000E+00  0.00000000000E+00  0.13379570288E+04  0.13379570288E+04  0.25500000000E-02 0. -1.
         -2   -1    0    0    0  501 -0.00000000000E+00 -0.00000000000E+00 -0.10413449259E+04  0.10413449259E+04  0.25500000000E-02 0.  1.
    8880023    1    1    2    0    0 -0.74731968882E+03 -0.46399286749E+03  0.79542261983E+03  0.13565704732E+04  0.65864270000E+03 0.  0.
    8880022    1    1    2    0    0  0.74731968882E+03  0.46399286749E+03 -0.49881051691E+03  0.10227314815E+04  0.15294330000E+03 0.  0.
<mgrwt>
<rscale>  0 0.10433092E+04</rscale>
<asrwt>0</asrwt>
<pdfrwt beam="1">  1        2 0.20583954E+00 0.10989023E+04</pdfrwt>
<pdfrwt beam="2">  1       -2 0.16020691E+00 0.10989023E+04</pdfrwt>
<totfact> 0.38699372E+00</totfact>
</mgrwt>
</event>
<event>
 4    1  0.3565372E-007  0.7806224E+03  0.7818608E-02  0.9754377E-01
          2   -1    0    0  501    0  0.00000000000E+00  0.00000000000E+00  0.20530107150E+04  0.20530107150E+04  0.25500000000E-02 0. -1.
         -2   -1    0    0    0  501 -0.00000000000E+00 -0.00000000000E+00 -0.21133202220E+03  0.21133202221E+03  0.25500000000E-02 0.  1.
    8880023    1    1    2    0    0  0.24707950714E+03  0.33839737815E+03  0.73929847610E+03  0.10751434841E+04  0.65864270000E+03 0.  1.
    8880022    1    1    2    0    0 -0.24707950714E+03 -0.33839737815E+03  0.11023802167E+04  0.11891992531E+04  0.15294330000E+03 0. -1.
<mgrwt>
<rscale>  0 0.67869473E+03</rscale>
<asrwt>0</asrwt>
<pdfrwt beam="1">  1        2 0.31584779E+00 0.78062236E+03</pdfrwt>
<pdfrwt beam="2">  1       -2 0.32512620E-01 0.78062236E+03</pdfrwt>
<totfact> 0.56476653E+01</totfact>
</mgrwt>
</event>
<event>
 4    1  0.3565372E-007  0.7080697E+03  0.7818608E-02  0.9965240E-01
         -2   -1    0    0    0  501 -0.00000000000E+00  0.00000000000E+00  0.17806775396E+04  0.17806775396E+04  0.25500000000E-02 0.  1.
          2   -1    0    0  501    0  0.00000000000E+00 -0.00000000000E+00 -0.51225786791E+03  0.51225786792E+03  0.25500000000E-02 0. -1.
    8880023    1    1    2    0    0 -0.40911983448E+02  0.25666842971E+03 -0.24538550393E+03  0.74938423055E+03  0.65864270000E+03 0. -1.
    8880022    1    1    2    0    0  0.40911983448E+02 -0.25666842971E+03  0.15138051756E+04  0.15435511770E+04  0.15294330000E+03 0.  0.
<mgrwt>
<rscale>  0 0.57201028E+03</rscale>
<asrwt>0</asrwt>
<pdfrwt beam="1">  1        2 0.78808903E-01 0.70806969E+03</pdfrwt>
<pdfrwt beam="2">  1       -2 0.27395039E+00 0.70806969E+03</pdfrwt>
<totfact> 0.28585464E+00</totfact>
</mgrwt>
</event>
<event>
 4    1  0.3565372E-007  0.1246708E+04  0.7818608E-02  0.9113004E-01
          2   -1    0    0  501    0  0.00000000000E+00  0.00000000000E+00  0.37411021514E+04  0.37411021514E+04  0.25500000000E-02 0. -1.
         -2   -1    0    0    0  501 -0.00000000000E+00 -0.00000000000E+00 -0.70405605578E+03  0.70405605578E+03  0.25500000000E-02 0.  1.
    8880023    1    1    2    0    0  0.10404517281E+04  0.19476039877E+03  0.31324190170E+04  0.33713988959E+04  0.65864270000E+03 0.  0.
    8880022    1    1    2    0    0 -0.10404517281E+04 -0.19476039877E+03 -0.95372921356E+02  0.10737593112E+04  0.15294330000E+03 0.  0.
<mgrwt>
<rscale>  0 0.11998319E+04</rscale>
<asrwt>0</asrwt>
<pdfrwt beam="1">  1        2 0.57555419E+00 0.12467083E+04</pdfrwt>
<pdfrwt beam="2">  1       -2 0.10831631E+00 0.12467083E+04</pdfrwt>
<totfact> 0.37025680E-01</totfact>
</mgrwt>
</event>
<event>
 4    1  0.3565372E-007  0.8405275E+03  0.7818608E-02  0.9629186E-01
         -2   -1    0    0    0  501 -0.00000000000E+00  0.00000000000E+00  0.42112499193E+03  0.42112499194E+03  0.25500000000E-02 0.  1.
          2   -1    0    0  501    0  0.00000000000E+00 -0.00000000000E+00 -0.19022150809E+04  0.19022150809E+04  0.25500000000E-02 0. -1.
    8880023    1    1    2    0    0 -0.40267799931E+03 -0.33245556110E+03 -0.15614609219E+04  0.17733151689E+04  0.65864270000E+03 0. -1.
    8880022    1    1    2    0    0  0.40267799931E+03  0.33245556110E+03  0.80370832890E+02  0.55002490401E+03  0.15294330000E+03 0.  0.
<mgrwt>
<rscale>  0 0.75394187E+03</rscale>
<asrwt>0</asrwt>
<pdfrwt beam="1">  1        2 0.29264847E+00 0.84052750E+03</pdfrwt>
<pdfrwt beam="2">  1       -2 0.64788461E-01 0.84052750E+03</pdfrwt>
<totfact> 0.16982632E+01</totfact>
</mgrwt>
</event>
<event>
 4    1  0.3565372E-007  0.7106820E+03  0.7818608E-02  0.9955477E-01
          2   -1    0    0  501    0  0.00000000000E+00  0.00000000000E+00  0.14666719449E+04  0.14666719449E+04  0.25500000000E-02 0. -1.
         -2   -1    0    0    0  501 -0.00000000000E+00 -0.00000000000E+00 -0.71995980306E+03  0.71995980306E+03  0.25500000000E-02 0.  1.
    8880023    1    1    2    0    0  0.12187651240E+03  0.23749709513E+03  0.13408604332E+04  0.15175558184E+04  0.65864270000E+03 0. -1.
    8880022    1    1    2    0    0 -0.12187651240E+03 -0.23749709513E+03 -0.59414829130E+03  0.66907592958E+03  0.15294330000E+03 0.  0.
<mgrwt>
<rscale>  0 0.57646350E+03</rscale>
<asrwt>0</asrwt>
<pdfrwt beam="1">  1        2 0.22564184E+00 0.71068204E+03</pdfrwt>
<pdfrwt beam="2">  1       -2 0.11076305E+00 0.71068204E+03</pdfrwt>
<totfact> 0.88219185E+00</totfact>
</mgrwt>
</event>
<event>
 4    1  0.3565372E-007  0.9827707E+03  0.7818608E-02  0.9404454E-01
          2   -1    0    0  501    0  0.00000000000E+00  0.00000000000E+00  0.48364793560E+03  0.48364793560E+03  0.25500000000E-02 0. -1.
         -2   -1    0    0    0  501 -0.00000000000E+00 -0.00000000000E+00 -0.22520070944E+04  0.22520070944E+04  0.25500000000E-02 0.  1.
    8880023    1    1    2    0    0 -0.72527809728E+03 -0.77457258813E+02 -0.17296893366E+04  0.19893876828E+04  0.65864270000E+03 0.  1.
    8880022    1    1    2    0    0  0.72527809728E+03  0.77457258813E+02 -0.38669822276E+02  0.74626734720E+03  0.15294330000E+03 0.  0.
<mgrwt>
<rscale>  0 0.91710019E+03</rscale>
<asrwt>0</asrwt>
<pdfrwt beam="1">  1        2 0.74407376E-01 0.98277065E+03</pdfrwt>
<pdfrwt beam="2">  1       -2 0.34646262E+00 0.98277065E+03</pdfrwt>
<totfact> 0.10656610E+00</totfact>
</mgrwt>
</event>
<event>
 4    1  0.3565372E-007  0.1304596E+04  0.7818608E-02  0.9061601E-01
          2   -1    0    0  501    0  0.00000000000E+00  0.00000000000E+00  0.10355489696E+04  0.10355489696E+04  0.25500000000E-02 0. -1.
         -2   -1    0    0    0  501 -0.00000000000E+00 -0.00000000000E+00 -0.15172728481E+04  0.15172728481E+04  0.25500000000E-02 0.  1.
    8880023    1    1    2    0    0 -0.98284471767E+03  0.54970723428E+03 -0.54666724436E+03  0.14145024089E+04  0.65864270000E+03 0.  0.
    8880022    1    1    2    0    0  0.98284471767E+03 -0.54970723428E+03  0.64943365862E+02  0.11383194087E+04  0.15294330000E+03 0.  0.
<mgrwt>
<rscale>  0 0.12603646E+04</rscale>
<asrwt>0</asrwt>
<pdfrwt beam="1">  1        2 0.15931523E+00 0.13045965E+04</pdfrwt>
<pdfrwt beam="2">  1       -2 0.23342659E+00 0.13045965E+04</pdfrwt>
<totfact> 0.18739727E+00</totfact>
</mgrwt>
</event>
<event>
 4    1  0.3565372E-007  0.7174386E+03  0.7818608E-02  0.9931350E-01
         -2   -1    0    0    0  501 -0.00000000000E+00  0.00000000000E+00  0.59898280936E+03  0.59898280937E+03  0.25500000000E-02 0.  1.
          2   -1    0    0  501    0  0.00000000000E+00 -0.00000000000E+00 -0.11926531550E+04  0.11926531550E+04  0.25500000000E-02 0. -1.
    8880023    1    1    2    0    0 -0.26911731252E+03  0.92107572789E+02 -0.10260261904E+04  0.12519775887E+04  0.65864270000E+03 0. -1.
    8880022    1    1    2    0    0  0.26911731252E+03 -0.92107572789E+02  0.43235584481E+03  0.53965837566E+03  0.15294330000E+03 0.  0.
<mgrwt>
<rscale>  0 0.58765695E+03</rscale>
<asrwt>0</asrwt>
<pdfrwt beam="1">  1        2 0.18348510E+00 0.71743860E+03</pdfrwt>
<pdfrwt beam="2">  1       -2 0.92151201E-01 0.71743860E+03</pdfrwt>
<totfact> 0.19581257E+01</totfact>
</mgrwt>
</event>
<event>
 4    1  0.3565372E-007  0.7966857E+03  0.7818608E-02  0.9718009E-01
         -2   -1    0    0    0  501 -0.00000000000E+00  0.00000000000E+00  0.91756272979E+03  0.91756272979E+03  0.25500000000E-02 0.  1.
          2   -1    0    0  501    0  0.00000000000E+00 -0.00000000000E+00 -0.74221718786E+03  0.74221718787E+03  0.25500000000E-02 0. -1.
    8880023    1    1    2    0    0  0.22553627892E+03 -0.38733871094E+03 -0.41873739152E+03  0.90002727704E+03  0.65864270000E+03 0.  0.
    8880022    1    1    2    0    0 -0.22553627892E+03  0.38733871094E+03  0.59408293345E+03  0.75975264062E+03  0.15294330000E+03 0.  0.
<mgrwt>
<rscale>  0 0.69954619E+03</rscale>
<asrwt>0</asrwt>
<pdfrwt beam="1">  1        2 0.11418726E+00 0.79668569E+03</pdfrwt>
<pdfrwt beam="2">  1       -2 0.14116350E+00 0.79668569E+03</pdfrwt>
<totfact> 0.13498335E+01</totfact>
</mgrwt>
</event>
<event>
 4    1  0.3565372E-007  0.8555059E+03  0.7818608E-02  0.9601608E-01
         -2   -1    0    0    0  501 -0.00000000000E+00  0.00000000000E+00  0.41582203330E+03  0.41582203331E+03  0.25500000000E-02 0.  1.
          2   -1    0    0  501    0  0.00000000000E+00 -0.00000000000E+00 -0.17146813017E+04  0.17146813017E+04  0.25500000000E-02 0. -1.
    8880023    1    1    2    0    0  0.52264753293E+03 -0.15785969425E+03 -0.13086015916E+04  0.15634348271E+04  0.65864270000E+03 0. -1.
    8880022    1    1    2    0    0 -0.52264753293E+03  0.15785969425E+03  0.97423232419E+01  0.56706850788E+03  0.15294330000E+03 0.  0.
<mgrwt>
<rscale>  0 0.77189835E+03</rscale>
<asrwt>0</asrwt>
<pdfrwt beam="1">  1        2 0.26379712E+00 0.85550589E+03</pdfrwt>
<pdfrwt beam="2">  1       -2 0.63972621E-01 0.85550589E+03</pdfrwt>
<totfact> 0.22068617E+01</totfact>
</mgrwt>
</event>
<event>
 4    1  0.3565372E-007  0.7120693E+03  0.7818608E-02  0.9950395E-01
          2   -1    0    0  501    0  0.00000000000E+00  0.00000000000E+00  0.30141092399E+04  0.30141092399E+04  0.25500000000E-02 0. -1.
         -2   -1    0    0    0  501 -0.00000000000E+00 -0.00000000000E+00 -0.27128368089E+03  0.27128368090E+03  0.25500000000E-02 0.  1.
    8880023    1    1    2    0    0  0.24134361991E+03  0.12241647797E+03  0.28644290637E+04  0.29516091550E+04  0.65864270000E+03 0. -1.
    8880022    1    1    2    0    0 -0.24134361991E+03 -0.12241647797E+03 -0.12160350465E+03  0.33378376580E+03  0.15294330000E+03 0.  0.
<mgrwt>
<rscale>  0 0.57879857E+03</rscale>
<asrwt>0</asrwt>
<pdfrwt beam="1">  1        2 0.46370912E+00 0.71206934E+03</pdfrwt>
<pdfrwt beam="2">  1       -2 0.41735950E-01 0.71206934E+03</pdfrwt>
<totfact> 0.99407092E+00</totfact>
</mgrwt>
</event>
<event>
 4    1  0.3823672E-007  0.7041169E+03  0.7818608E-02  0.9980533E-01
          2   -1    0    0  501    0  0.00000000000E+00  0.00000000000E+00  0.20140829994E+04  0.20140829994E+04  0.25500000000E-02 0. -1.
         -2   -1    0    0    0  501 -0.00000000000E+00 -0.00000000000E+00 -0.70419598733E+03  0.70419598733E+03  0.25500000000E-02 0.  1.
    8880023    1    1    2    0    0  0.39467641226E+02  0.24579008378E+03  0.19182502248E+04  0.20433953585E+04  0.65864270000E+03 0. -1.
    8880022    1    1    2    0    0 -0.39467641226E+02 -0.24579008378E+03 -0.60836321274E+03  0.67488362821E+03  0.15294330000E+03 0.  0.
<mgrwt>
<rscale>  0 0.56512138E+03</rscale>
<asrwt>0</asrwt>
<pdfrwt beam="1">  1        2 0.30985892E+00 0.70411694E+03</pdfrwt>
<pdfrwt beam="2">  1       -2 0.10833784E+00 0.70411694E+03</pdfrwt>
<totfact> 0.46732320E+00</totfact>
</mgrwt>
</event>
<event>
 4    1  0.3565372E-007  0.7220839E+03  0.7818608E-02  0.9915597E-01
          2   -1    0    0  501    0  0.00000000000E+00  0.00000000000E+00  0.26405624354E+04  0.26405624354E+04  0.25500000000E-02 0. -1.
         -2   -1    0    0    0  501 -0.00000000000E+00 -0.00000000000E+00 -0.12748299888E+03  0.12748299890E+03  0.25500000000E-02 0.  1.
    8880023    1    1    2    0    0  0.39445337167E+02 -0.29332405475E+03  0.21819556997E+04  0.22983332694E+04  0.65864270000E+03 0. -1.
    8880022    1    1    2    0    0 -0.39445337167E+02  0.29332405475E+03  0.33112373685E+03  0.46971216489E+03  0.15294330000E+03 0.  0.
<mgrwt>
<rscale>  0 0.59511316E+03</rscale>
<asrwt>0</asrwt>
<pdfrwt beam="1">  1        2 0.40624034E+00 0.72208389E+03</pdfrwt>
<pdfrwt beam="2">  1       -2 0.19612771E-01 0.72208389E+03</pdfrwt>
<totfact> 0.66615077E+01</totfact>
</mgrwt>
</event>
<event>
 4    1  0.3565372E-007  0.9991203E+03  0.7818608E-02  0.9382709E-01
         -2   -1    0    0    0  501 -0.00000000000E+00  0.00000000000E+00  0.11720861557E+04  0.11720861557E+04  0.25500000000E-02 0.  1.
          2   -1    0    0  501    0  0.00000000000E+00 -0.00000000000E+00 -0.76708469996E+03  0.76708469996E+03  0.25500000000E-02 0. -1.
    8880023    1    1    2    0    0 -0.44694250002E+03 -0.60388208698E+03 -0.12529968232E+03  0.10069465676E+04  0.65864270000E+03 0. -1.
    8880022    1    1    2    0    0  0.44694250002E+03  0.60388208698E+03  0.53030113810E+03  0.93222428813E+03  0.15294330000E+03 0.  0.
<mgrwt>
<rscale>  0 0.93512387E+03</rscale>
<asrwt>0</asrwt>
<pdfrwt beam="1">  1        2 0.11801303E+00 0.99912030E+03</pdfrwt>
<pdfrwt beam="2">  1       -2 0.18032095E+00 0.99912030E+03</pdfrwt>
<totfact> 0.65185995E+00</totfact>
</mgrwt>
</event>
<event>
 4    1  0.3565372E-007  0.6920516E+03  0.7818608E-02  0.1003192E+00
         -2   -1    0    0    0  501 -0.00000000000E+00  0.00000000000E+00  0.24921569238E+03  0.24921569239E+03  0.25500000000E-02 0.  1.
          2   -1    0    0  501    0  0.00000000000E+00 -0.00000000000E+00 -0.95927440347E+03  0.95927440347E+03  0.25500000000E-02 0. -1.
    8880023    1    1    2    0    0 -0.21241288185E+03  0.24330734534E+01 -0.62707398177E+03  0.93389353628E+03  0.65864270000E+03 0.  0.
    8880022    1    1    2    0    0  0.21241288185E+03 -0.24330734534E+01 -0.82984729319E+02  0.27459655958E+03  0.15294330000E+03 0. -1.
<mgrwt>
<rscale>  0 0.54272331E+03</rscale>
<asrwt>0</asrwt>
<pdfrwt beam="1">  1        2 0.14758068E+00 0.69205156E+03</pdfrwt>
<pdfrwt beam="2">  1       -2 0.38340876E-01 0.69205156E+03</pdfrwt>
<totfact> 0.17446157E+02</totfact>
</mgrwt>
</event>
<event>
 4    1  0.3565372E-007  0.7006547E+03  0.7818608E-02  0.9994496E-01
          2   -1    0    0  501    0  0.00000000000E+00  0.00000000000E+00  0.28744584462E+03  0.28744584463E+03  0.25500000000E-02 0. -1.
         -2   -1    0    0    0  501 -0.00000000000E+00 -0.00000000000E+00 -0.16906850225E+04  0.16906850225E+04  0.25500000000E-02 0.  1.
    8880023    1    1    2    0    0 -0.17005201478E+03  0.16789616937E+03 -0.18136337859E+03  0.72374698119E+03  0.65864270000E+03 0. -1.
    8880022    1    1    2    0    0  0.17005201478E+03 -0.16789616937E+03 -0.12218757993E+04  0.12543838859E+04  0.15294330000E+03 0.  0.
<mgrwt>
<rscale>  0 0.55892236E+03</rscale>
<asrwt>0</asrwt>
<pdfrwt beam="1">  1        2 0.44222439E-01 0.70065471E+03</pdfrwt>
<pdfrwt beam="2">  1       -2 0.26010538E+00 0.70065471E+03</pdfrwt>
<totfact> 0.66435578E+00</totfact>
</mgrwt>
</event>
<event>
 4    1  0.3565372E-007  0.8818068E+03  0.7818608E-02  0.9555892E-01
          2   -1    0    0  501    0  0.00000000000E+00  0.00000000000E+00  0.19079713374E+04  0.19079713374E+04  0.25500000000E-02 0. -1.
         -2   -1    0    0    0  501 -0.00000000000E+00 -0.00000000000E+00 -0.39048414781E+03  0.39048414782E+03  0.25500000000E-02 0.  1.
    8880023    1    1    2    0    0  0.41739233337E+03 -0.41177250071E+03  0.14386689812E+04  0.16874097297E+04  0.65864270000E+03 0. -1.
    8880022    1    1    2    0    0 -0.41739233337E+03  0.41177250071E+03  0.78818208392E+02  0.61104575548E+03  0.15294330000E+03 0.  0.
<mgrwt>
<rscale>  0 0.80285602E+03</rscale>
<asrwt>0</asrwt>
<pdfrwt beam="1">  1        2 0.29353405E+00 0.88180676E+03</pdfrwt>
<pdfrwt beam="2">  1       -2 0.60074484E-01 0.88180676E+03</pdfrwt>
<totfact> 0.19711550E+01</totfact>
</mgrwt>
</event>
<event>
 4    1  0.3565372E-007  0.7384196E+03  0.7818608E-02  0.9864575E-01
         -2   -1    0    0    0  501 -0.00000000000E+00  0.00000000000E+00  0.28080782035E+04  0.28080782036E+04  0.25500000000E-02 0.  1.
          2   -1    0    0  501    0  0.00000000000E+00 -0.00000000000E+00 -0.19937960340E+03  0.19937960341E+03  0.25500000000E-02 0. -1.
    8880023    1    1    2    0    0  0.14760273944E+03 -0.29944402490E+03  0.56168506539E+03  0.92776808076E+03  0.65864270000E+03 0.  0.
    8880022    1    1    2    0    0 -0.14760273944E+03  0.29944402490E+03  0.20470135348E+04  0.20796897262E+04  0.15294330000E+03 0.  0.
<mgrwt>
<rscale>  0 0.62009288E+03</rscale>
<asrwt>0</asrwt>
<pdfrwt beam="1">  1        2 0.30673787E-01 0.73841960E+03</pdfrwt>
<pdfrwt beam="2">  1       -2 0.43201201E+00 0.73841960E+03</pdfrwt>
<totfact> 0.84461976E-01</totfact>
</mgrwt>
</event>
<event>
 4    1  0.3565372E-007  0.6681106E+03  0.7818608E-02  0.1017055E+00
          2   -1    0    0  501    0  0.00000000000E+00  0.00000000000E+00  0.14423837787E+04  0.14423837787E+04  0.25500000000E-02 0. -1.
         -2   -1    0    0    0  501 -0.00000000000E+00 -0.00000000000E+00 -0.22099871563E+03  0.22099871565E+03  0.25500000000E-02 0.  1.
    8880023    1    1    2    0    0 -0.11066124265E+03  0.17767045724E+02  0.12972241825E+04  0.14591649545E+04  0.65864270000E+03 0. -1.
    8880022    1    1    2    0    0  0.11066124265E+03 -0.17767045724E+02 -0.75839119410E+02  0.20421753986E+03  0.15294330000E+03 0.  0.
<mgrwt>
<rscale>  0 0.48764471E+03</rscale>
<asrwt>0</asrwt>
<pdfrwt beam="1">  1        2 0.22190521E+00 0.66811061E+03</pdfrwt>
<pdfrwt beam="2">  1       -2 0.33999801E-01 0.66811061E+03</pdfrwt>
<totfact> 0.11352776E+02</totfact>
</mgrwt>
</event>
<event>
 4    1  0.3565372E-007  0.9483790E+03  0.7818608E-02  0.9452450E-01
          2   -1    0    0  501    0  0.00000000000E+00  0.00000000000E+00  0.11743663121E+04  0.11743663121E+04  0.25500000000E-02 0. -1.
         -2   -1    0    0    0  501 -0.00000000000E+00 -0.00000000000E+00 -0.14319702073E+04  0.14319702073E+04  0.25500000000E-02 0.  1.
    8880023    1    1    2    0    0  0.50746285125E+03 -0.45617328105E+03 -0.11384128713E+04  0.14816904803E+04  0.65864270000E+03 0.  1.
    8880022    1    1    2    0    0 -0.50746285125E+03  0.45617328105E+03  0.88080897607E+03  0.11246460390E+04  0.15294330000E+03 0.  0.
<mgrwt>
<rscale>  0 0.87882124E+03</rscale>
<asrwt>0</asrwt>
<pdfrwt beam="1">  1        2 0.18067174E+00 0.94837905E+03</pdfrwt>
<pdfrwt beam="2">  1       -2 0.22030311E+00 0.94837905E+03</pdfrwt>
<totfact> 0.19316506E+00</totfact>
</mgrwt>
</event>
<event>
 4    1  0.3565372E-007  0.7904615E+03  0.7818608E-02  0.9731813E-01
          2   -1    0    0  501    0  0.00000000000E+00  0.00000000000E+00  0.46656094861E+03  0.46656094861E+03  0.25500000000E-02 0. -1.
         -2   -1    0    0    0  501 -0.00000000000E+00 -0.00000000000E+00 -0.20773216836E+04  0.20773216836E+04  0.25500000000E-02 0.  1.
    8880023    1    1    2    0    0  0.38426985808E+03  0.20822058291E+03  0.76577716451E+02  0.79416212947E+03  0.65864270000E+03 0.  0.
    8880022    1    1    2    0    0 -0.38426985808E+03 -0.20822058291E+03 -0.16873384515E+04  0.17497205028E+04  0.15294330000E+03 0.  0.
<mgrwt>
<rscale>  0 0.69153849E+03</rscale>
<asrwt>0</asrwt>
<pdfrwt beam="1">  1        2 0.71778608E-01 0.79046147E+03</pdfrwt>
<pdfrwt beam="2">  1       -2 0.31958795E+00 0.79046147E+03</pdfrwt>
<totfact> 0.16706479E+00</totfact>
</mgrwt>
</event>
<event>
 4    1  0.3565372E-007  0.7543596E+03  0.7818608E-02  0.9819935E-01
         -2   -1    0    0    0  501 -0.00000000000E+00  0.00000000000E+00  0.32683737746E+03  0.32683737747E+03  0.25500000000E-02 0.  1.
          2   -1    0    0  501    0  0.00000000000E+00 -0.00000000000E+00 -0.11819253024E+04  0.11819253024E+04  0.25500000000E-02 0. -1.
    8880023    1    1    2    0    0 -0.36773869031E+03 -0.40530575391E+01 -0.81169504783E+03  0.11081097547E+04  0.65864270000E+03 0.  0.
    8880022    1    1    2    0    0  0.36773869031E+03  0.40530575391E+01 -0.43392877140E+02  0.40065292515E+03  0.15294330000E+03 0.  0.
<mgrwt>
<rscale>  0 0.64303607E+03</rscale>
<asrwt>0</asrwt>
<pdfrwt beam="1">  1        2 0.18183466E+00 0.75435958E+03</pdfrwt>
<pdfrwt beam="2">  1       -2 0.50282674E-01 0.75435958E+03</pdfrwt>
<totfact> 0.73802321E+01</totfact>
</mgrwt>
</event>
<event>
 4    1  0.3565372E-007  0.6589541E+03  0.7818608E-02  0.1025254E+00
          2   -1    0    0  501    0  0.00000000000E+00  0.00000000000E+00  0.22261281058E+04  0.22261281058E+04  0.25500000000E-02 0. -1.
         -2   -1    0    0    0  501 -0.00000000000E+00 -0.00000000000E+00 -0.23725706548E+03  0.23725706550E+03  0.25500000000E-02 0.  1.
    8880023    1    1    2    0    0  0.88865727744E+01 -0.18201961641E+02  0.21449727690E+04  0.22439092380E+04  0.65864270000E+03 0. -1.
    8880022    1    1    2    0    0 -0.88865727744E+01  0.18201961641E+02 -0.15610172866E+03  0.21947593328E+03  0.15294330000E+03 0.  0.
<mgrwt>
<rscale>  0 0.45837181E+03</rscale>
<asrwt>0</asrwt>
<pdfrwt beam="1">  1        2 0.34248125E+00 0.65895409E+03</pdfrwt>
<pdfrwt beam="2">  1       -2 0.36501087E-01 0.65895409E+03</pdfrwt>
<totfact> 0.37024315E+01</totfact>
</mgrwt>
</event>
<event>
 4    1  0.3565372E-007  0.7398945E+03  0.7818608E-02  0.9860255E-01
          2   -1    0    0  501    0  0.00000000000E+00  0.00000000000E+00  0.14593121380E+04  0.14593121380E+04  0.25500000000E-02 0. -1.
         -2   -1    0    0    0  501 -0.00000000000E+00 -0.00000000000E+00 -0.30234453706E+03  0.30234453707E+03  0.25500000000E-02 0.  1.
    8880023    1    1    2    0    0  0.20395153985E+03  0.26839783571E+03  0.11777804095E+04  0.13909027745E+04  0.65864270000E+03 0. -1.
    8880022    1    1    2    0    0 -0.20395153985E+03 -0.26839783571E+03 -0.20812808511E+02  0.37075390063E+03  0.15294330000E+03 0.  1.
<mgrwt>
<rscale>  0 0.62226794E+03</rscale>
<asrwt>0</asrwt>
<pdfrwt beam="1">  1        2 0.22450956E+00 0.73989448E+03</pdfrwt>
<pdfrwt beam="2">  1       -2 0.46514544E-01 0.73989448E+03</pdfrwt>
<totfact> 0.59912190E+01</totfact>
</mgrwt>
</event>
<event>
 4    1  0.3565372E-007  0.7323537E+03  0.7818608E-02  0.9882807E-01
         -2   -1    0    0    0  501 -0.00000000000E+00  0.00000000000E+00  0.48216935203E+03  0.48216935204E+03  0.25500000000E-02 0.  1.
          2   -1    0    0  501    0  0.00000000000E+00 -0.00000000000E+00 -0.23106072804E+04  0.23106072804E+04  0.25500000000E-02 0. -1.
    8880023    1    1    2    0    0 -0.29756446570E+03 -0.11826703733E+03 -0.21760786692E+04  0.22960096438E+04  0.65864270000E+03 0.  0.
    8880022    1    1    2    0    0  0.29756446570E+03  0.11826703733E+03  0.34764074083E+03  0.49676698870E+03  0.15294330000E+03 0.  0.
<mgrwt>
<rscale>  0 0.61101790E+03</rscale>
<asrwt>0</asrwt>
<pdfrwt beam="1">  1        2 0.35547804E+00 0.73235368E+03</pdfrwt>
<pdfrwt beam="2">  1       -2 0.74179902E-01 0.73235368E+03</pdfrwt>
<totfact> 0.76586825E+00</totfact>
</mgrwt>
</event>
<event>
 4    1  0.3565372E-007  0.7961664E+03  0.7818608E-02  0.9719147E-01
          2   -1    0    0  501    0  0.00000000000E+00  0.00000000000E+00  0.49553612560E+03  0.49553612560E+03  0.25500000000E-02 0. -1.
         -2   -1    0    0    0  501 -0.00000000000E+00 -0.00000000000E+00 -0.10494331988E+04  0.10494331988E+04  0.25500000000E-02 0.  1.
    8880023    1    1    2    0    0  0.35217655037E+03 -0.27575773887E+03  0.26270875236E+02  0.79659966001E+03  0.65864270000E+03 0. -1.
    8880022    1    1    2    0    0 -0.35217655037E+03  0.27575773887E+03 -0.58016794846E+03  0.74836966441E+03  0.15294330000E+03 0.  0.
<mgrwt>
<rscale>  0 0.69888127E+03</rscale>
<asrwt>0</asrwt>
<pdfrwt beam="1">  1        2 0.76236327E-01 0.79616635E+03</pdfrwt>
<pdfrwt beam="2">  1       -2 0.16145126E+00 0.79616635E+03</pdfrwt>
<totfact> 0.15450797E+01</totfact>
</mgrwt>
</event>
<event>
 4    1  0.3565372E-007  0.6631159E+03  0.7818608E-02  0.1021169E+00
          2   -1    0    0  501    0  0.00000000000E+00  0.00000000000E+00  0.19247460752E+04  0.19247460752E+04  0.25500000000E-02 0. -1.
         -2   -1    0    0    0  501 -0.00000000000E+00 -0.00000000000E+00 -0.92886789831E+02  0.92886789866E+02  0.25500000000E-02 0.  1.
    8880023    1    1    2    0    0 -0.51983671841E+02 -0.56658390257E+02  0.15756063043E+04  0.17094612917E+04  0.65864270000E+03 0. -1.
    8880022    1    1    2    0    0  0.51983671841E+02  0.56658390257E+02  0.25625298107E+03  0.30817157339E+03  0.15294330000E+03 0.  1.
<mgrwt>
<rscale>  0 0.47267015E+03</rscale>
<asrwt>0</asrwt>
<pdfrwt beam="1">  1        2 0.29611477E+00 0.66311589E+03</pdfrwt>
<pdfrwt beam="2">  1       -2 0.14290276E-01 0.66311589E+03</pdfrwt>
<totfact> 0.28791416E+02</totfact>
</mgrwt>
</event>
<event>
 4    1  0.3565372E-007  0.7690277E+03  0.7818608E-02  0.9782272E-01
         -2   -1    0    0    0  501 -0.00000000000E+00  0.00000000000E+00  0.80098012823E+03  0.80098012823E+03  0.25500000000E-02 0.  1.
          2   -1    0    0  501    0  0.00000000000E+00 -0.00000000000E+00 -0.61083899282E+03  0.61083899282E+03  0.25500000000E-02 0. -1.
    8880023    1    1    2    0    0 -0.25745490962E+03 -0.30217603374E+03 -0.24121461759E+03  0.80597027480E+03  0.65864270000E+03 0. -1.
    8880022    1    1    2    0    0  0.25745490962E+03  0.30217603374E+03  0.43135575299E+03  0.60584884626E+03  0.15294330000E+03 0.  0.
<mgrwt>
<rscale>  0 0.66322642E+03</rscale>
<asrwt>0</asrwt>
<pdfrwt beam="1">  1        2 0.93975229E-01 0.76902769E+03</pdfrwt>
<pdfrwt beam="2">  1       -2 0.12322771E+00 0.76902769E+03</pdfrwt>
<totfact> 0.24394297E+01</totfact>
</mgrwt>
</event>
<event>
 4    1  0.3565372E-007  0.8570806E+03  0.7818608E-02  0.9598778E-01
          2   -1    0    0  501    0  0.00000000000E+00  0.00000000000E+00  0.18508023989E+04  0.18508023989E+04  0.25500000000E-02 0. -1.
         -2   -1    0    0    0  501 -0.00000000000E+00 -0.00000000000E+00 -0.63213561516E+03  0.63213561517E+03  0.25500000000E-02 0.  1.
    8880023    1    1    2    0    0  0.41204322399E+03  0.36193559898E+03  0.15878244618E+04  0.18043762701E+04  0.65864270000E+03 0. -1.
    8880022    1    1    2    0    0 -0.41204322399E+03 -0.36193559898E+03 -0.36915767800E+03  0.67856174405E+03  0.15294330000E+03 0.  0.
<mgrwt>
<rscale>  0 0.77377133E+03</rscale>
<asrwt>0</asrwt>
<pdfrwt beam="1">  1        2 0.28473883E+00 0.85708063E+03</pdfrwt>
<pdfrwt beam="2">  1       -2 0.97251634E-01 0.85708063E+03</pdfrwt>
<totfact> 0.72514006E+00</totfact>
</mgrwt>
</event>
<event>
 4    1  0.3565372E-007  0.6712527E+03  0.7818608E-02  0.1014780E+00
         -2   -1    0    0    0  501 -0.00000000000E+00  0.00000000000E+00  0.15462750693E+04  0.15462750693E+04  0.25500000000E-02 0.  1.
          2   -1    0    0  501    0  0.00000000000E+00 -0.00000000000E+00 -0.18110160187E+03  0.18110160189E+03  0.25500000000E-02 0. -1.
    8880023    1    1    2    0    0 -0.90325887779E+02  0.92796786737E+02  0.49396432591E+03  0.83341524534E+03  0.65864270000E+03 0.  0.
    8880022    1    1    2    0    0  0.90325887779E+02 -0.92796786737E+02  0.87120914147E+03  0.89396142581E+03  0.15294330000E+03 0.  0.
<mgrwt>
<rscale>  0 0.49618200E+03</rscale>
<asrwt>0</asrwt>
<pdfrwt beam="1">  1        2 0.27861786E-01 0.67125272E+03</pdfrwt>
<pdfrwt beam="2">  1       -2 0.23788847E+00 0.67125272E+03</pdfrwt>
<totfact> 0.15239346E+01</totfact>
</mgrwt>
</event>
<event>
 4    1  0.3565372E-007  0.1640482E+04  0.7818608E-02  0.8816321E-01
          2   -1    0    0  501    0  0.00000000000E+00  0.00000000000E+00  0.19931928764E+04  0.19931928764E+04  0.25500000000E-02 0. -1.
         -2   -1    0    0    0  501 -0.00000000000E+00 -0.00000000000E+00 -0.17181672879E+04  0.17181672879E+04  0.25500000000E-02 0.  1.
    8880023    1    1    2    0    0 -0.22074334965E+03  0.14861502123E+04  0.11147421729E+04  0.19833886150E+04  0.65864270000E+03 0.  0.
    8880022    1    1    2    0    0  0.22074334965E+03 -0.14861502123E+04 -0.83971658440E+03  0.17279715493E+04  0.15294330000E+03 0.  0.
<mgrwt>
<rscale>  0 0.16068988E+04</rscale>
<asrwt>0</asrwt>
<pdfrwt beam="1">  1        2 0.30664506E+00 0.16404817E+04</pdfrwt>
<pdfrwt beam="2">  1       -2 0.26433343E+00 0.16404817E+04</pdfrwt>
<totfact> 0.32672077E-01</totfact>
</mgrwt>
</event>
<event>
 4    1  0.3565372E-007  0.6941514E+03  0.7818608E-02  0.1002239E+00
          2   -1    0    0  501    0  0.00000000000E+00  0.00000000000E+00  0.22135896009E+04  0.22135896009E+04  0.25500000000E-02 0. -1.
         -2   -1    0    0    0  501 -0.00000000000E+00 -0.00000000000E+00 -0.42999470766E+03  0.42999470767E+03  0.25500000000E-02 0.  1.
    8880023    1    1    2    0    0  0.96911499976E+02 -0.19658098408E+03  0.21102744847E+04  0.22215095159E+04  0.65864270000E+03 0. -1.
    8880022    1    1    2    0    0 -0.96911499976E+02  0.19658098408E+03 -0.32667959146E+03  0.42207479269E+03  0.15294330000E+03 0.  0.
<mgrwt>
<rscale>  0 0.54679417E+03</rscale>
<asrwt>0</asrwt>
<pdfrwt beam="1">  1        2 0.34055224E+00 0.69415137E+03</pdfrwt>
<pdfrwt beam="2">  1       -2 0.66153033E-01 0.69415137E+03</pdfrwt>
<totfact> 0.11198159E+01</totfact>
</mgrwt>
</event>
<event>
 4    1  0.3565372E-007  0.6819322E+03  0.7818608E-02  0.1008251E+00
          2   -1    0    0  501    0  0.00000000000E+00  0.00000000000E+00  0.19983292911E+04  0.19983292911E+04  0.25500000000E-02 0. -1.
         -2   -1    0    0    0  501 -0.00000000000E+00 -0.00000000000E+00 -0.21019193715E+03  0.21019193717E+03  0.25500000000E-02 0.  1.
    8880023    1    1    2    0    0  0.49466957184E+02 -0.16962997217E+03  0.18458645893E+04  0.19678027329E+04  0.65864270000E+03 0. -1.
    8880022    1    1    2    0    0 -0.49466957184E+02  0.16962997217E+03 -0.57727235324E+02  0.24071849539E+03  0.15294330000E+03 0.  0.
<mgrwt>
<rscale>  0 0.52175649E+03</rscale>
<asrwt>0</asrwt>
<pdfrwt beam="1">  1        2 0.30743526E+00 0.68193219E+03</pdfrwt>
<pdfrwt beam="2">  1       -2 0.32337222E-01 0.68193219E+03</pdfrwt>
<totfact> 0.61841771E+01</totfact>
</mgrwt>
</event>
<event>
 4    1  0.3565372E-007  0.8928325E+03  0.7818608E-02  0.9537637E-01
         -2   -1    0    0    0  501 -0.00000000000E+00  0.00000000000E+00  0.10249566787E+04  0.10249566787E+04  0.25500000000E-02 0.  1.
          2   -1    0    0  501    0  0.00000000000E+00 -0.00000000000E+00 -0.71021175631E+03  0.71021175631E+03  0.25500000000E-02 0. -1.
    8880023    1    1    2    0    0  0.32972022279E+03 -0.50460300174E+03 -0.21487806455E+03  0.91832587003E+03  0.65864270000E+03 0.  0.
    8880022    1    1    2    0    0 -0.32972022279E+03  0.50460300174E+03  0.52962298698E+03  0.81684256502E+03  0.15294330000E+03 0.  0.
<mgrwt>
<rscale>  0 0.81564963E+03</rscale>
<asrwt>0</asrwt>
<pdfrwt beam="1">  1        2 0.10926335E+00 0.89283247E+03</pdfrwt>
<pdfrwt beam="2">  1       -2 0.15768564E+00 0.89283247E+03</pdfrwt>
<totfact> 0.10558682E+01</totfact>
</mgrwt>
</event>
<event>
 4    1  0.3565372E-007  0.7539604E+03  0.7818608E-02  0.9821002E-01
         -2   -1    0    0    0  501 -0.00000000000E+00  0.00000000000E+00  0.45761963593E+03  0.45761963594E+03  0.25500000000E-02 0.  1.
          2   -1    0    0  501    0  0.00000000000E+00 -0.00000000000E+00 -0.25809901993E+04  0.25809901993E+04  0.25500000000E-02 0. -1.
    8880023    1    1    2    0    0 -0.64197570937E+01 -0.36688528910E+03 -0.24250568624E+04  0.25395584303E+04  0.65864270000E+03 0. -1.
    8880022    1    1    2    0    0  0.64197570937E+01  0.36688528910E+03  0.30168629911E+03  0.49905140489E+03  0.15294330000E+03 0.  0.
<mgrwt>
<rscale>  0 0.64247535E+03</rscale>
<asrwt>0</asrwt>
<pdfrwt beam="1">  1        2 0.39707541E+00 0.75396037E+03</pdfrwt>
<pdfrwt beam="2">  1       -2 0.70403023E-01 0.75396037E+03</pdfrwt>
<totfact> 0.60259906E+00</totfact>
</mgrwt>
</event>
<event>
 4    1  0.3565372E-007  0.7134947E+03  0.7818608E-02  0.9945245E-01
         -2   -1    0    0    0  501 -0.00000000000E+00  0.00000000000E+00  0.10304431087E+04  0.10304431087E+04  0.25500000000E-02 0.  1.
          2   -1    0    0  501    0  0.00000000000E+00 -0.00000000000E+00 -0.57236970518E+03  0.57236970519E+03  0.25500000000E-02 0. -1.
    8880023    1    1    2    0    0  0.24934587133E+02  0.27320837283E+03 -0.30626857864E+03  0.77645038292E+03  0.65864270000E+03 0. -1.
    8880022    1    1    2    0    0 -0.24934587133E+02 -0.27320837283E+03  0.76434198213E+03  0.82636243095E+03  0.15294330000E+03 0.  0.
<mgrwt>
<rscale>  0 0.58117729E+03</rscale>
<asrwt>0</asrwt>
<pdfrwt beam="1">  1        2 0.88056878E-01 0.71349475E+03</pdfrwt>
<pdfrwt beam="2">  1       -2 0.15852971E+00 0.71349475E+03</pdfrwt>
<totfact> 0.13812058E+01</totfact>
</mgrwt>
</event>
<event>
 4    1  0.3565372E-007  0.8519032E+03  0.7818608E-02  0.9608132E-01
          2   -1    0    0  501    0  0.00000000000E+00  0.00000000000E+00  0.25045499286E+04  0.25045499286E+04  0.25500000000E-02 0. -1.
         -2   -1    0    0    0  501 -0.00000000000E+00 -0.00000000000E+00 -0.46568166460E+03  0.46568166460E+03  0.25500000000E-02 0.  1.
    8880023    1    1    2    0    0  0.52048653887E+02 -0.53779159882E+03  0.22219027645E+04  0.23796199208E+04  0.65864270000E+03 0. -1.
    8880022    1    1    2    0    0 -0.52048653887E+02  0.53779159882E+03 -0.18303450057E+03  0.59061167238E+03  0.15294330000E+03 0.  0.
<mgrwt>
<rscale>  0 0.76760310E+03</rscale>
<asrwt>0</asrwt>
<pdfrwt beam="1">  1        2 0.38531537E+00 0.85190321E+03</pdfrwt>
<pdfrwt beam="2">  1       -2 0.71643333E-01 0.85190321E+03</pdfrwt>
<totfact> 0.63101235E+00</totfact>
</mgrwt>
</event>
<event>
 4    1  0.3565372E-007  0.6640444E+03  0.7818608E-02  0.1020349E+00
          2   -1    0    0  501    0  0.00000000000E+00  0.00000000000E+00  0.23619906764E+04  0.23619906764E+04  0.25500000000E-02 0. -1.
         -2   -1    0    0    0  501 -0.00000000000E+00 -0.00000000000E+00 -0.11244813347E+03  0.11244813350E+03  0.25500000000E-02 0.  1.
    8880023    1    1    2    0    0  0.37727917298E+02  0.75639621357E+02  0.21921341885E+04  0.22905037120E+04  0.65864270000E+03 0. -1.
    8880022    1    1    2    0    0 -0.37727917298E+02 -0.75639621357E+02  0.57408354427E+02  0.18393509789E+03  0.15294330000E+03 0.  0.
<mgrwt>
<rscale>  0 0.47560900E+03</rscale>
<asrwt>0</asrwt>
<pdfrwt beam="1">  1        2 0.36338324E+00 0.66404439E+03</pdfrwt>
<pdfrwt beam="2">  1       -2 0.17299710E-01 0.66404439E+03</pdfrwt>
<totfact> 0.11989647E+02</totfact>
</mgrwt>
</event>
<event>
 4    1  0.3565372E-007  0.7858451E+03  0.7818608E-02  0.9742282E-01
          2   -1    0    0  501    0  0.00000000000E+00  0.00000000000E+00  0.22876753775E+04  0.22876753775E+04  0.25500000000E-02 0. -1.
         -2   -1    0    0    0  501 -0.00000000000E+00 -0.00000000000E+00 -0.34942355221E+03  0.34942355222E+03  0.25500000000E-02 0.  1.
    8880023    1    1    2    0    0 -0.92356932501E+02  0.41858392689E+03  0.20264709276E+04  0.21735079787E+04  0.65864270000E+03 0. -1.
    8880022    1    1    2    0    0  0.92356932501E+02 -0.41858392689E+03 -0.88219102321E+02  0.46359095101E+03  0.15294330000E+03 0.  0.
<mgrwt>
<rscale>  0 0.68554209E+03</rscale>
<asrwt>0</asrwt>
<pdfrwt beam="1">  1        2 0.35195008E+00 0.78584509E+03</pdfrwt>
<pdfrwt beam="2">  1       -2 0.53757466E-01 0.78584509E+03</pdfrwt>
<totfact> 0.15561276E+01</totfact>
</mgrwt>
</event>
<event>
 4    1  0.3565372E-007  0.8400626E+03  0.7818608E-02  0.9630062E-01
          2   -1    0    0  501    0  0.00000000000E+00  0.00000000000E+00  0.59139782326E+03  0.59139782327E+03  0.25500000000E-02 0. -1.
         -2   -1    0    0    0  501 -0.00000000000E+00 -0.00000000000E+00 -0.16400398973E+04  0.16400398973E+04  0.25500000000E-02 0.  1.
    8880023    1    1    2    0    0  0.51885877115E+03 -0.51773355591E+02  0.20532604199E+03  0.86479124332E+03  0.65864270000E+03 0. -1.
    8880022    1    1    2    0    0 -0.51885877115E+03  0.51773355591E+02 -0.12539681161E+04  0.13666464773E+04  0.15294330000E+03 0.  0.
<mgrwt>
<rscale>  0 0.75338017E+03</rscale>
<asrwt>0</asrwt>
<pdfrwt beam="1">  1        2 0.90984281E-01 0.84006256E+03</pdfrwt>
<pdfrwt beam="2">  1       -2 0.25231383E+00 0.84006256E+03</pdfrwt>
<totfact> 0.31952993E+00</totfact>
</mgrwt>
</event>
<event>
 4    1  0.3565372E-007  0.1276834E+04  0.7818608E-02  0.9085828E-01
          2   -1    0    0  501    0  0.00000000000E+00  0.00000000000E+00  0.28102323262E+04  0.28102323262E+04  0.25500000000E-02 0. -1.
         -2   -1    0    0    0  501 -0.00000000000E+00 -0.00000000000E+00 -0.61412488452E+03  0.61412488452E+03  0.25500000000E-02 0.  1.
    8880023    1    1    2    0    0 -0.10796958844E+04 -0.17536294695E+03  0.44139107330E+03  0.13509743343E+04  0.65864270000E+03 0.  0.
    8880022    1    1    2    0    0  0.10796958844E+04  0.17536294695E+03  0.17547163684E+04  0.20733828765E+04  0.15294330000E+03 0.  0.
<mgrwt>
<rscale>  0 0.12313764E+04</rscale>
<asrwt>0</asrwt>
<pdfrwt beam="1">  1        2 0.43234344E+00 0.12768342E+04</pdfrwt>
<pdfrwt beam="2">  1       -2 0.94480751E-01 0.12768342E+04</pdfrwt>
<totfact> 0.21072876E+00</totfact>
</mgrwt>
</event>
<event>
 4    1  0.3565372E-007  0.6769899E+03  0.7818608E-02  0.1011080E+00
         -2   -1    0    0    0  501 -0.00000000000E+00  0.00000000000E+00  0.35459188719E+03  0.35459188720E+03  0.25500000000E-02 0.  1.
          2   -1    0    0  501    0  0.00000000000E+00 -0.00000000000E+00 -0.97192040078E+03  0.97192040078E+03  0.25500000000E-02 0. -1.
    8880023    1    1    2    0    0 -0.57059055198E+01  0.15643700507E+03 -0.79530549054E+03  0.10444262173E+04  0.65864270000E+03 0. -1.
    8880022    1    1    2    0    0  0.57059055198E+01 -0.15643700507E+03  0.17797697695E+03  0.28208607065E+03  0.15294330000E+03 0.  0.
<mgrwt>
<rscale>  0 0.51047548E+03</rscale>
<asrwt>0</asrwt>
<pdfrwt beam="1">  1        2 0.14952621E+00 0.67698988E+03</pdfrwt>
<pdfrwt beam="2">  1       -2 0.54552598E-01 0.67698988E+03</pdfrwt>
<totfact> 0.84708250E+01</totfact>
</mgrwt>
</event>
<event>
 4    1  0.3565372E-007  0.6785042E+03  0.7818608E-02  0.1010183E+00
          2   -1    0    0  501    0  0.00000000000E+00  0.00000000000E+00  0.11679310141E+04  0.11679310141E+04  0.25500000000E-02 0. -1.
         -2   -1    0    0    0  501 -0.00000000000E+00 -0.00000000000E+00 -0.22860571765E+03  0.22860571767E+03  0.25500000000E-02 0.  1.
    8880023    1    1    2    0    0 -0.54993517488E+02  0.15340598709E+03  0.95612917156E+03  0.11724124201E+04  0.65864270000E+03 0. -1.
    8880022    1    1    2    0    0  0.54993517488E+02 -0.15340598709E+03 -0.16803875121E+02  0.22412431166E+03  0.15294330000E+03 0.  0.
<mgrwt>
<rscale>  0 0.51402069E+03</rscale>
<asrwt>0</asrwt>
<pdfrwt beam="1">  1        2 0.17968169E+00 0.67850416E+03</pdfrwt>
<pdfrwt beam="2">  1       -2 0.35170111E-01 0.67850416E+03</pdfrwt>
<totfact> 0.15298618E+02</totfact>
</mgrwt>
</event>
<event>
 4    1  0.3565372E-007  0.1103635E+04  0.7818608E-02  0.9257020E-01
          2   -1    0    0  501    0  0.00000000000E+00  0.00000000000E+00  0.99478108484E+03  0.99478108484E+03  0.25500000000E-02 0. -1.
         -2   -1    0    0    0  501 -0.00000000000E+00 -0.00000000000E+00 -0.11591739736E+04  0.11591739736E+04  0.25500000000E-02 0.  1.
    8880023    1    1    2    0    0 -0.82943048766E+03  0.31023352379E+03  0.29821261812E+03  0.11432150913E+04  0.65864270000E+03 0. -1.
    8880022    1    1    2    0    0  0.82943048766E+03 -0.31023352379E+03 -0.46260550690E+03  0.10107399671E+04  0.15294330000E+03 0.  0.
<mgrwt>
<rscale>  0 0.10483783E+04</rscale>
<asrwt>0</asrwt>
<pdfrwt beam="1">  1        2 0.15304324E+00 0.11036349E+04</pdfrwt>
<pdfrwt beam="2">  1       -2 0.17833446E+00 0.11036349E+04</pdfrwt>
<totfact> 0.46389177E+00</totfact>
</mgrwt>
</event>
<event>
 4    1  0.3565372E-007  0.8405655E+03  0.7818608E-02  0.9629115E-01
          2   -1    0    0  501    0  0.00000000000E+00  0.00000000000E+00  0.15155301082E+04  0.15155301082E+04  0.25500000000E-02 0. -1.
         -2   -1    0    0    0  501 -0.00000000000E+00 -0.00000000000E+00 -0.58233477361E+03  0.58233477362E+03  0.25500000000E-02 0.  1.
    8880023    1    1    2    0    0 -0.41652044954E+03 -0.31504106269E+03  0.12209262963E+04  0.14822993569E+04  0.65864270000E+03 0.  0.
    8880022    1    1    2    0    0  0.41652044954E+03  0.31504106269E+03 -0.28773096179E+03  0.61556552490E+03  0.15294330000E+03 0.  0.
<mgrwt>
<rscale>  0 0.75398777E+03</rscale>
<asrwt>0</asrwt>
<pdfrwt beam="1">  1        2 0.23315848E+00 0.84056550E+03</pdfrwt>
<pdfrwt beam="2">  1       -2 0.89589966E-01 0.84056550E+03</pdfrwt>
<totfact> 0.13463373E+01</totfact>
</mgrwt>
</event>
<event>
 4    1  0.3565372E-007  0.7175031E+03  0.7818608E-02  0.9931127E-01
         -2   -1    0    0    0  501 -0.00000000000E+00  0.00000000000E+00  0.87229451852E+03  0.87229451852E+03  0.25500000000E-02 0.  1.
          2   -1    0    0  501    0  0.00000000000E+00 -0.00000000000E+00 -0.36665728142E+03  0.36665728143E+03  0.25500000000E-02 0. -1.
    8880023    1    1    2    0    0  0.28413047887E+03  0.16443193995E+02  0.10639236126E+03  0.72534822565E+03  0.65864270000E+03 0. -1.
    8880022    1    1    2    0    0 -0.28413047887E+03 -0.16443193995E+02  0.39924487583E+03  0.51360357431E+03  0.15294330000E+03 0.  0.
<mgrwt>
<rscale>  0 0.58776176E+03</rscale>
<asrwt>0</asrwt>
<pdfrwt beam="1">  1        2 0.56408813E-01 0.71750311E+03</pdfrwt>
<pdfrwt beam="2">  1       -2 0.13419916E+00 0.71750311E+03</pdfrwt>
<totfact> 0.35621918E+01</totfact>
</mgrwt>
</event>
<event>
 4    1  0.3565372E-007  0.9648011E+03  0.7818608E-02  0.9429131E-01
         -2   -1    0    0    0  501 -0.00000000000E+00  0.00000000000E+00  0.20442164677E+04  0.20442164677E+04  0.25500000000E-02 0.  1.
          2   -1    0    0  501    0  0.00000000000E+00 -0.00000000000E+00 -0.75840955988E+03  0.75840955989E+03  0.25500000000E-02 0. -1.
    8880023    1    1    2    0    0 -0.62250698910E+03 -0.33093194373E+03 -0.34080040071E+03  0.10232233491E+04  0.65864270000E+03 0.  0.
    8880022    1    1    2    0    0  0.62250698910E+03  0.33093194373E+03  0.16266073085E+04  0.17794026784E+04  0.15294330000E+03 0.  0.
<mgrwt>
<rscale>  0 0.89716608E+03</rscale>
<asrwt>0</asrwt>
<pdfrwt beam="1">  1        2 0.11667839E+00 0.96480107E+03</pdfrwt>
<pdfrwt beam="2">  1       -2 0.31449484E+00 0.96480107E+03</pdfrwt>
<totfact> 0.96839359E-01</totfact>
</mgrwt>
</event>
<event>
 4    1  0.3565372E-007  0.8745145E+03  0.7818608E-02  0.9568249E-01
          2   -1    0    0  501    0  0.00000000000E+00  0.00000000000E+00  0.17138342831E+04  0.17138342831E+04  0.25500000000E-02 0. -1.
         -2   -1    0    0    0  501 -0.00000000000E+00 -0.00000000000E+00 -0.42287435970E+03  0.42287435970E+03  0.25500000000E-02 0.  1.
    8880023    1    1    2    0    0  0.42749868434E+03 -0.38498098571E+03  0.12688433851E+04  0.15410188924E+04  0.65864270000E+03 0.  0.
    8880022    1    1    2    0    0 -0.42749868434E+03  0.38498098571E+03  0.22116538280E+02  0.59568975041E+03  0.15294330000E+03 0.  0.
<mgrwt>
<rscale>  0 0.79433816E+03</rscale>
<asrwt>0</asrwt>
<pdfrwt beam="1">  1        2 0.26366682E+00 0.87451455E+03</pdfrwt>
<pdfrwt beam="2">  1       -2 0.65057593E-01 0.87451455E+03</pdfrwt>
<totfact> 0.21263401E+01</totfact>
</mgrwt>
</event>
<event>
 4    1  0.3565372E-007  0.1076831E+04  0.7818608E-02  0.9287301E-01
         -2   -1    0    0    0  501 -0.00000000000E+00  0.00000000000E+00  0.79559740007E+03  0.79559740007E+03  0.25500000000E-02 0.  1.
          2   -1    0    0  501    0  0.00000000000E+00 -0.00000000000E+00 -0.19717713468E+04  0.19717713469E+04  0.25500000000E-02 0. -1.
    8880023    1    1    2    0    0 -0.64991334949E+03 -0.55078883425E+03  0.24409046285E+03  0.11041494745E+04  0.65864270000E+03 0.  0.
    8880022    1    1    2    0    0  0.64991334949E+03  0.55078883425E+03 -0.14202644096E+04  0.16632192724E+04  0.15294330000E+03 0.  0.
<mgrwt>
<rscale>  0 0.10196044E+04</rscale>
<asrwt>0</asrwt>
<pdfrwt beam="1">  1        2 0.30334944E+00 0.10768314E+04</pdfrwt>
<pdfrwt beam="2">  1       -2 0.12239960E+00 0.10768314E+04</pdfrwt>
<totfact> 0.34634211E+00</totfact>
</mgrwt>
</event>
<event>
 4    1  0.3565372E-007  0.9223761E+03  0.7818608E-02  0.9491025E-01
         -2   -1    0    0    0  501 -0.00000000000E+00  0.00000000000E+00  0.24727701997E+03  0.24727701999E+03  0.25500000000E-02 0.  1.
          2   -1    0    0  501    0  0.00000000000E+00 -0.00000000000E+00 -0.30743016474E+04  0.30743016474E+04  0.25500000000E-02 0. -1.
    8880023    1    1    2    0    0  0.21315379992E+03  0.60953499944E+03 -0.22870638880E+04  0.24660573578E+04  0.65864270000E+03 0. -1.
    8880022    1    1    2    0    0 -0.21315379992E+03 -0.60953499944E+03 -0.53996073936E+03  0.85552130951E+03  0.15294330000E+03 0. -1.
<mgrwt>
<rscale>  0 0.84948732E+03</rscale>
<asrwt>0</asrwt>
<pdfrwt beam="1">  1        2 0.47296946E+00 0.92237610E+03</pdfrwt>
<pdfrwt beam="2">  1       -2 0.38042621E-01 0.92237610E+03</pdfrwt>
<totfact> 0.10559427E+01</totfact>
</mgrwt>
</event>
<event>
 4    1  0.3565372E-007  0.1110123E+04  0.7818608E-02  0.9249869E-01
         -2   -1    0    0    0  501 -0.00000000000E+00  0.00000000000E+00  0.80863243748E+03  0.80863243748E+03  0.25500000000E-02 0.  1.
          2   -1    0    0  501    0  0.00000000000E+00 -0.00000000000E+00 -0.27911331505E+04  0.27911331505E+04  0.25500000000E-02 0. -1.
    8880023    1    1    2    0    0 -0.84237435494E+03 -0.29827376629E+03 -0.23674551362E+04  0.26148070333E+04  0.65864270000E+03 0.  0.
    8880022    1    1    2    0    0  0.84237435494E+03  0.29827376629E+03  0.38495442313E+03  0.98495855467E+03  0.15294330000E+03 0.  0.
<mgrwt>
<rscale>  0 0.10553198E+04</rscale>
<asrwt>0</asrwt>
<pdfrwt beam="1">  1        2 0.42940509E+00 0.11101225E+04</pdfrwt>
<pdfrwt beam="2">  1       -2 0.12440499E+00 0.11101225E+04</pdfrwt>
<totfact> 0.11318087E+00</totfact>
</mgrwt>
</event>
<event>
 4    1  0.3565372E-007  0.8721323E+03  0.7818608E-02  0.9572336E-01
          2   -1    0    0  501    0  0.00000000000E+00  0.00000000000E+00  0.12035244948E+04  0.12035244948E+04  0.25500000000E-02 0. -1.
         -2   -1    0    0    0  501 -0.00000000000E+00 -0.00000000000E+00 -0.75167420481E+03  0.75167420482E+03  0.25500000000E-02 0.  1.
    8880023    1    1    2    0    0 -0.35137404109E+03 -0.45093322349E+03 -0.36590698965E+03  0.94578148646E+03  0.65864270000E+03 0.  0.
    8880022    1    1    2    0    0  0.35137404109E+03  0.45093322349E+03  0.81775727962E+03  0.10094172131E+04  0.15294330000E+03 0.  0.
<mgrwt>
<rscale>  0 0.79154514E+03</rscale>
<asrwt>0</asrwt>
<pdfrwt beam="1">  1        2 0.18515761E+00 0.87213227E+03</pdfrwt>
<pdfrwt beam="2">  1       -2 0.11564219E+00 0.87213227E+03</pdfrwt>
<totfact> 0.11025084E+01</totfact>
</mgrwt>
</event>
<event>
 4    1  0.3565372E-007  0.7004657E+03  0.7818608E-02  0.9995275E-01
         -2   -1    0    0    0  501 -0.00000000000E+00  0.00000000000E+00  0.52614093909E+03  0.52614093909E+03  0.25500000000E-02 0.  1.
          2   -1    0    0  501    0  0.00000000000E+00 -0.00000000000E+00 -0.98866186924E+03  0.98866186924E+03  0.25500000000E-02 0. -1.
    8880023    1    1    2    0    0  0.14734619692E+03 -0.18743280260E+03  0.25339317099E+03  0.74488942978E+03  0.65864270000E+03 0.  1.
    8880022    1    1    2    0    0 -0.14734619692E+03  0.18743280260E+03 -0.71591410114E+03  0.76991337855E+03  0.15294330000E+03 0.  0.
<mgrwt>
<rscale>  0 0.55857911E+03</rscale>
<asrwt>0</asrwt>
<pdfrwt beam="1">  1        2 0.15210183E+00 0.70046568E+03</pdfrwt>
<pdfrwt beam="2">  1       -2 0.80944760E-01 0.70046568E+03</pdfrwt>
<totfact> 0.35198993E+01</totfact>
</mgrwt>
</event>
<event>
 4    1  0.3565372E-007  0.8452775E+03  0.7818608E-02  0.9620308E-01
         -2   -1    0    0    0  501 -0.00000000000E+00  0.00000000000E+00  0.23956801908E+03  0.23956801910E+03  0.25500000000E-02 0.  1.
          2   -1    0    0  501    0  0.00000000000E+00 -0.00000000000E+00 -0.35427316109E+04  0.35427316109E+04  0.25500000000E-02 0. -1.
    8880023    1    1    2    0    0 -0.52896079866E+03 -0.29736476216E+02 -0.30688829319E+04  0.31831645324E+04  0.65864270000E+03 0. -1.
    8880022    1    1    2    0    0  0.52896079866E+03  0.29736476216E+02 -0.23428065995E+03  0.59913509760E+03  0.15294330000E+03 0.  0.
<mgrwt>
<rscale>  0 0.75966503E+03</rscale>
<asrwt>0</asrwt>
<pdfrwt beam="1">  1        2 0.54503559E+00 0.84527746E+03</pdfrwt>
<pdfrwt beam="2">  1       -2 0.36856621E-01 0.84527746E+03</pdfrwt>
<totfact> 0.56026434E+00</totfact>
</mgrwt>
</event>
<event>
 4    1  0.3565372E-007  0.1551088E+04  0.7818608E-02  0.8874379E-01
          2   -1    0    0  501    0  0.00000000000E+00  0.00000000000E+00  0.17340217147E+04  0.17340217147E+04  0.25500000000E-02 0. -1.
         -2   -1    0    0    0  501 -0.00000000000E+00 -0.00000000000E+00 -0.14290859526E+04  0.14290859526E+04  0.25500000000E-02 0.  1.
    8880023    1    1    2    0    0 -0.33724090083E+03  0.13632062266E+04 -0.37441049802E+03  0.15956365716E+04  0.65864270000E+03 0.  0.
    8880022    1    1    2    0    0  0.33724090083E+03 -0.13632062266E+04  0.67934626012E+03  0.15674710956E+04  0.15294330000E+03 0.  0.
<mgrwt>
<rscale>  0 0.15152437E+04</rscale>
<asrwt>0</asrwt>
<pdfrwt beam="1">  1        2 0.26677257E+00 0.15510876E+04</pdfrwt>
<pdfrwt beam="2">  1       -2 0.21985938E+00 0.15510876E+04</pdfrwt>
<totfact> 0.86928059E-01</totfact>
</mgrwt>
</event>
<event>
 4    1  0.3565372E-007  0.1055720E+04  0.7818608E-02  0.9312037E-01
          2   -1    0    0  501    0  0.00000000000E+00  0.00000000000E+00  0.18117478684E+04  0.18117478684E+04  0.25500000000E-02 0. -1.
         -2   -1    0    0    0  501 -0.00000000000E+00 -0.00000000000E+00 -0.57359066862E+03  0.57359066862E+03  0.25500000000E-02 0.  1.
    8880023    1    1    2    0    0 -0.68373388534E+03 -0.46178082507E+03  0.11179573039E+04  0.15376515522E+04  0.65864270000E+03 0.  0.
    8880022    1    1    2    0    0  0.68373388534E+03  0.46178082507E+03  0.12019989596E+03  0.84768698489E+03  0.15294330000E+03 0.  0.
<mgrwt>
<rscale>  0 0.99682210E+03</rscale>
<asrwt>0</asrwt>
<pdfrwt beam="1">  1        2 0.27873044E+00 0.10557195E+04</pdfrwt>
<pdfrwt beam="2">  1       -2 0.88244719E-01 0.10557195E+04</pdfrwt>
<totfact> 0.93373212E+00</totfact>
</mgrwt>
</event>
<event>
 4    1  0.3565372E-007  0.6999289E+03  0.7818608E-02  0.9997496E-01
         -2   -1    0    0    0  501 -0.00000000000E+00  0.00000000000E+00  0.27620389264E+03  0.27620389265E+03  0.25500000000E-02 0.  1.
          2   -1    0    0  501    0  0.00000000000E+00 -0.00000000000E+00 -0.11385097522E+04  0.11385097522E+04  0.25500000000E-02 0. -1.
    8880023    1    1    2    0    0  0.21153035019E+03 -0.10651377469E+03 -0.88906655836E+03  0.11315210227E+04  0.65864270000E+03 0. -1.
    8880022    1    1    2    0    0 -0.21153035019E+03  0.10651377469E+03  0.26760698806E+02  0.28319262219E+03  0.15294330000E+03 0.  0.
<mgrwt>
<rscale>  0 0.55760158E+03</rscale>
<asrwt>0</asrwt>
<pdfrwt beam="1">  1        2 0.17515534E+00 0.69992891E+03</pdfrwt>
<pdfrwt beam="2">  1       -2 0.42492907E-01 0.69992891E+03</pdfrwt>
<totfact> 0.11028191E+02</totfact>
</mgrwt>
</event>
<event>
 4    1  0.3565372E-007  0.6866610E+03  0.7818608E-02  0.1005782E+00
         -2   -1    0    0    0  501 -0.00000000000E+00  0.00000000000E+00  0.16835139279E+03  0.16835139281E+03  0.25500000000E-02 0.  1.
          2   -1    0    0  501    0  0.00000000000E+00 -0.00000000000E+00 -0.17451049375E+04  0.17451049375E+04  0.25500000000E-02 0. -1.
    8880023    1    1    2    0    0  0.32400449632E+01 -0.19411999467E+03 -0.15079111053E+04  0.16568944378E+04  0.65864270000E+03 0.  0.
    8880022    1    1    2    0    0 -0.32400449632E+01  0.19411999467E+03 -0.68842439404E+02  0.25656189253E+03  0.15294330000E+03 0.  0.
<mgrwt>
<rscale>  0 0.53186124E+03</rscale>
<asrwt>0</asrwt>
<pdfrwt beam="1">  1        2 0.26847767E+00 0.68666096E+03</pdfrwt>
<pdfrwt beam="2">  1       -2 0.25900215E-01 0.68666096E+03</pdfrwt>
<totfact> 0.12775360E+02</totfact>
</mgrwt>
</event>
<event>
 4    1  0.3565372E-007  0.7571387E+03  0.7818608E-02  0.9812572E-01
         -2   -1    0    0    0  501 -0.00000000000E+00  0.00000000000E+00  0.75388749182E+03  0.75388749182E+03  0.25500000000E-02 0.  1.
          2   -1    0    0  501    0  0.00000000000E+00 -0.00000000000E+00 -0.67426329902E+03  0.67426329903E+03  0.25500000000E-02 0. -1.
    8880023    1    1    2    0    0 -0.27698485979E+03  0.25045596719E+03 -0.35399969762E+03  0.83580787040E+03  0.65864270000E+03 0.  0.
    8880022    1    1    2    0    0  0.27698485979E+03 -0.25045596719E+03  0.43362389042E+03  0.59234292045E+03  0.15294330000E+03 0.  1.
<mgrwt>
<rscale>  0 0.64692193E+03</rscale>
<asrwt>0</asrwt>
<pdfrwt beam="1">  1        2 0.10373282E+00 0.75713870E+03</pdfrwt>
<pdfrwt beam="2">  1       -2 0.11598269E+00 0.75713870E+03</pdfrwt>
<totfact> 0.25123866E+01</totfact>
</mgrwt>
</event>
<event>
 4    1  0.3565372E-007  0.7009856E+03  0.7818608E-02  0.9993137E-01
          2   -1    0    0  501    0  0.00000000000E+00  0.00000000000E+00  0.76996300051E+03  0.76996300051E+03  0.25500000000E-02 0. -1.
         -2   -1    0    0    0  501 -0.00000000000E+00 -0.00000000000E+00 -0.11498824044E+04  0.11498824044E+04  0.25500000000E-02 0.  1.
    8880023    1    1    2    0    0  0.14887311359E+03 -0.18816871560E+03  0.58551704051E+03  0.91335156455E+03  0.65864270000E+03 0. -1.
    8880022    1    1    2    0    0 -0.14887311359E+03  0.18816871560E+03 -0.96543644441E+03  0.10064938404E+04  0.15294330000E+03 0.  0.
<mgrwt>
<rscale>  0 0.55952206E+03</rscale>
<asrwt>0</asrwt>
<pdfrwt beam="1">  1        2 0.11845585E+00 0.70098565E+03</pdfrwt>
<pdfrwt beam="2">  1       -2 0.17690499E+00 0.70098565E+03</pdfrwt>
<totfact> 0.70747500E+00</totfact>
</mgrwt>
</event>
<event>
 4    1  0.3565372E-007  0.9627354E+03  0.7818608E-02  0.9432023E-01
         -2   -1    0    0    0  501 -0.00000000000E+00  0.00000000000E+00  0.84236406517E+03  0.84236406518E+03  0.25500000000E-02 0.  1.
          2   -1    0    0  501    0  0.00000000000E+00 -0.00000000000E+00 -0.21015598359E+04  0.21015598359E+04  0.25500000000E-02 0. -1.
    8880023    1    1    2    0    0  0.28201062562E+03  0.64305461669E+03 -0.18021839364E+04  0.20432147171E+04  0.65864270000E+03 0. -1.
    8880022    1    1    2    0    0 -0.28201062562E+03 -0.64305461669E+03  0.54298816572E+03  0.90070918400E+03  0.15294330000E+03 0.  0.
<mgrwt>
<rscale>  0 0.89486553E+03</rscale>
<asrwt>0</asrwt>
<pdfrwt beam="1">  1        2 0.32331690E+00 0.96273539E+03</pdfrwt>
<pdfrwt beam="2">  1       -2 0.12959447E+00 0.96273539E+03</pdfrwt>
<totfact> 0.25798962E+00</totfact>
</mgrwt>
</event>
<event>
 4    1  0.3565372E-007  0.7126105E+03  0.7818608E-02  0.9948432E-01
         -2   -1    0    0    0  501 -0.00000000000E+00  0.00000000000E+00  0.22632704425E+03  0.22632704426E+03  0.25500000000E-02 0.  1.
          2   -1    0    0  501    0  0.00000000000E+00 -0.00000000000E+00 -0.24494990988E+04  0.24494990988E+04  0.25500000000E-02 0. -1.
    8880023    1    1    2    0    0 -0.23259515099E+03  0.14107818007E+03 -0.22523418017E+04  0.23623838289E+04  0.65864270000E+03 0. -1.
    8880022    1    1    2    0    0  0.23259515099E+03 -0.14107818007E+03  0.29169747124E+02  0.31344231418E+03  0.15294330000E+03 0.  0.
<mgrwt>
<rscale>  0 0.57970410E+03</rscale>
<asrwt>0</asrwt>
<pdfrwt beam="1">  1        2 0.37684600E+00 0.71261053E+03</pdfrwt>
<pdfrwt beam="2">  1       -2 0.34819547E-01 0.71261053E+03</pdfrwt>
<totfact> 0.30187011E+01</totfact>
</mgrwt>
</event>
<event>
 4    1  0.3565372E-007  0.7445966E+03  0.7818608E-02  0.9846754E-01
          2   -1    0    0  501    0  0.00000000000E+00  0.00000000000E+00  0.49929044344E+03  0.49929044345E+03  0.25500000000E-02 0. -1.
         -2   -1    0    0    0  501 -0.00000000000E+00 -0.00000000000E+00 -0.75958890350E+03  0.75958890350E+03  0.25500000000E-02 0.  1.
    8880023    1    1    2    0    0  0.26022269137E+03  0.22999567031E+03  0.80365579118E+02  0.74892101722E+03  0.65864270000E+03 0. -1.
    8880022    1    1    2    0    0 -0.26022269137E+03 -0.22999567031E+03 -0.34066403917E+03  0.50995832973E+03  0.15294330000E+03 0.  0.
<mgrwt>
<rscale>  0 0.62912677E+03</rscale>
<asrwt>0</asrwt>
<pdfrwt beam="1">  1        2 0.76813914E-01 0.74459658E+03</pdfrwt>
<pdfrwt beam="2">  1       -2 0.11685983E+00 0.74459658E+03</pdfrwt>
<totfact> 0.35406320E+01</totfact>
</mgrwt>
</event>
<event>
 4    1  0.3565372E-007  0.7701789E+03  0.7818608E-02  0.9779434E-01
         -2   -1    0    0    0  501 -0.00000000000E+00  0.00000000000E+00  0.19902285893E+03  0.19902285894E+03  0.25500000000E-02 0.  1.
          2   -1    0    0  501    0  0.00000000000E+00 -0.00000000000E+00 -0.19712410188E+04  0.19712410188E+04  0.25500000000E-02 0. -1.
    8880023    1    1    2    0    0 -0.18879308467E+03  0.35174202692E+03 -0.14238185201E+04  0.16187756691E+04  0.65864270000E+03 0. -1.
    8880022    1    1    2    0    0  0.18879308467E+03 -0.35174202692E+03 -0.34839963982E+03  0.55148820872E+03  0.15294330000E+03 0.  0.
<mgrwt>
<rscale>  0 0.66477998E+03</rscale>
<asrwt>0</asrwt>
<pdfrwt beam="1">  1        2 0.30326784E+00 0.77017887E+03</pdfrwt>
<pdfrwt beam="2">  1       -2 0.30618903E-01 0.77017887E+03</pdfrwt>
<totfact> 0.70125180E+01</totfact>
</mgrwt>
</event>
<event>
 4    1  0.3565372E-007  0.9856288E+03  0.7818608E-02  0.9400606E-01
         -2   -1    0    0    0  501 -0.00000000000E+00  0.00000000000E+00  0.54067953870E+03  0.54067953870E+03  0.25500000000E-02 0.  1.
          2   -1    0    0  501    0  0.00000000000E+00 -0.00000000000E+00 -0.22580728970E+04  0.22580728970E+04  0.25500000000E-02 0. -1.
    8880023    1    1    2    0    0  0.41923092058E+03  0.60158076465E+03 -0.17928651288E+04  0.20459299982E+04  0.65864270000E+03 0. -1.
    8880022    1    1    2    0    0 -0.41923092058E+03 -0.60158076465E+03  0.75471770555E+02  0.75282243746E+03  0.15294330000E+03 0.  0.
<mgrwt>
<rscale>  0 0.92025847E+03</rscale>
<asrwt>0</asrwt>
<pdfrwt beam="1">  1        2 0.34739583E+00 0.98562883E+03</pdfrwt>
<pdfrwt beam="2">  1       -2 0.83181469E-01 0.98562883E+03</pdfrwt>
<totfact> 0.61062052E+00</totfact>
</mgrwt>
</event>
<event>
 4    1  0.3565372E-007  0.8523813E+03  0.7818608E-02  0.9607262E-01
         -2   -1    0    0    0  501 -0.00000000000E+00  0.00000000000E+00  0.89840634295E+03  0.89840634296E+03  0.25500000000E-02 0.  1.
          2   -1    0    0  501    0  0.00000000000E+00 -0.00000000000E+00 -0.11428270867E+04  0.11428270867E+04  0.25500000000E-02 0. -1.
    8880023    1    1    2    0    0 -0.53400535574E+03 -0.87074160517E+02 -0.85770266670E+03  0.12092178051E+04  0.65864270000E+03 0.  0.
    8880022    1    1    2    0    0  0.53400535574E+03  0.87074160517E+02  0.61328192300E+03  0.83201562454E+03  0.15294330000E+03 0.  0.
<mgrwt>
<rscale>  0 0.76817390E+03</rscale>
<asrwt>0</asrwt>
<pdfrwt beam="1">  1        2 0.17581955E+00 0.85238127E+03</pdfrwt>
<pdfrwt beam="2">  1       -2 0.13821636E+00 0.85238127E+03</pdfrwt>
<totfact> 0.76685667E+00</totfact>
</mgrwt>
</event>
<event>
 4    1  0.3565372E-007  0.1031287E+04  0.7818608E-02  0.9341723E-01
         -2   -1    0    0    0  501 -0.00000000000E+00  0.00000000000E+00  0.79697249869E+03  0.79697249869E+03  0.25500000000E-02 0.  1.
          2   -1    0    0  501    0  0.00000000000E+00 -0.00000000000E+00 -0.14011740974E+04  0.14011740974E+04  0.25500000000E-02 0. -1.
    8880023    1    1    2    0    0  0.61429491780E+03 -0.50237886160E+03 -0.86806491707E+03  0.13479946859E+04  0.65864270000E+03 0.  0.
    8880022    1    1    2    0    0 -0.61429491780E+03  0.50237886160E+03  0.26386331838E+03  0.85015191020E+03  0.15294330000E+03 0.  0.
<mgrwt>
<rscale>  0 0.97030885E+03</rscale>
<asrwt>0</asrwt>
<pdfrwt beam="1">  1        2 0.21556525E+00 0.10312870E+04</pdfrwt>
<pdfrwt beam="2">  1       -2 0.12261115E+00 0.10312870E+04</pdfrwt>
<totfact> 0.71990363E+00</totfact>
</mgrwt>
</event>
<event>
 4    1  0.3565372E-007  0.6625785E+03  0.7818608E-02  0.1021658E+00
          2   -1    0    0  501    0  0.00000000000E+00  0.00000000000E+00  0.24206192832E+04  0.24206192832E+04  0.25500000000E-02 0. -1.
         -2   -1    0    0    0  501 -0.00000000000E+00 -0.00000000000E+00 -0.11733725683E+03  0.11733725686E+03  0.25500000000E-02 0.  1.
    8880023    1    1    2    0    0  0.64862089188E+02 -0.31512106827E+02  0.22711676596E+04  0.23658429466E+04  0.65864270000E+03 0. -1.
    8880022    1    1    2    0    0 -0.64862089188E+02  0.31512106827E+02  0.32114366724E+02  0.17211359347E+03  0.15294330000E+03 0.  0.
<mgrwt>
<rscale>  0 0.47093192E+03</rscale>
<asrwt>0</asrwt>
<pdfrwt beam="1">  1        2 0.37240296E+00 0.66257853E+03</pdfrwt>
<pdfrwt beam="2">  1       -2 0.18051886E-01 0.66257853E+03</pdfrwt>
<totfact> 0.10336820E+02</totfact>
</mgrwt>
</event>
<event>
 4    1  0.3565372E-007  0.7486478E+03  0.7818608E-02  0.9835437E-01
          2   -1    0    0  501    0  0.00000000000E+00  0.00000000000E+00  0.34861141343E+04  0.34861141343E+04  0.25500000000E-02 0. -1.
         -2   -1    0    0    0  501 -0.00000000000E+00 -0.00000000000E+00 -0.25548915857E+03  0.25548915858E+03  0.25500000000E-02 0.  1.
    8880023    1    1    2    0    0 -0.80721778960E+02  0.34662268248E+03  0.32677943723E+04  0.33524548551E+04  0.65864270000E+03 0.  0.
    8880022    1    1    2    0    0  0.80721778960E+02 -0.34662268248E+03 -0.37169396526E+02  0.38914843782E+03  0.15294330000E+03 0.  0.
<mgrwt>
<rscale>  0 0.63494988E+03</rscale>
<asrwt>0</asrwt>
<pdfrwt beam="1">  1        2 0.53632526E+00 0.74864778E+03</pdfrwt>
<pdfrwt beam="2">  1       -2 0.39306024E-01 0.74864778E+03</pdfrwt>
<totfact> 0.55109376E+00</totfact>
</mgrwt>
</event>
<event>
 4    1  0.3565372E-007  0.6592858E+03  0.7818608E-02  0.1024900E+00
          2   -1    0    0  501    0  0.00000000000E+00  0.00000000000E+00  0.85790264865E+03  0.85790264865E+03  0.25500000000E-02 0. -1.
         -2   -1    0    0    0  501 -0.00000000000E+00 -0.00000000000E+00 -0.85218721266E+03  0.85218721267E+03  0.25500000000E-02 0.  1.
    8880023    1    1    2    0    0  0.25225394912E+02 -0.14534512907E+02  0.72162559496E+03  0.97744630450E+03  0.65864270000E+03 0. -1.
    8880022    1    1    2    0    0 -0.25225394912E+02  0.14534512907E+02 -0.71591015897E+03  0.73264355682E+03  0.15294330000E+03 0.  0.
<mgrwt>
<rscale>  0 0.45958954E+03</rscale>
<asrwt>0</asrwt>
<pdfrwt beam="1">  1        2 0.13198502E+00 0.65928581E+03</pdfrwt>
<pdfrwt beam="2">  1       -2 0.13110573E+00 0.65928581E+03</pdfrwt>
<totfact> 0.13672319E+01</totfact>
</mgrwt>
</event>
<event>
 4    1  0.3565372E-007  0.6947951E+03  0.7818608E-02  0.1001952E+00
          2   -1    0    0  501    0  0.00000000000E+00  0.00000000000E+00  0.20145851376E+04  0.20145851376E+04  0.25500000000E-02 0. -1.
         -2   -1    0    0    0  501 -0.00000000000E+00 -0.00000000000E+00 -0.21031402893E+03  0.21031402894E+03  0.25500000000E-02 0.  1.
    8880023    1    1    2    0    0 -0.17264679412E+03  0.13828642290E+03  0.18273532933E+04  0.19549834565E+04  0.65864270000E+03 0. -1.
    8880022    1    1    2    0    0  0.17264679412E+03 -0.13828642290E+03 -0.23082184636E+02  0.26991571007E+03  0.15294330000E+03 0.  0.
<mgrwt>
<rscale>  0 0.54802598E+03</rscale>
<asrwt>0</asrwt>
<pdfrwt beam="1">  1        2 0.30993618E+00 0.69479512E+03</pdfrwt>
<pdfrwt beam="2">  1       -2 0.32356004E-01 0.69479512E+03</pdfrwt>
<totfact> 0.60429338E+01</totfact>
</mgrwt>
</event>
<event>
 4    1  0.3565372E-007  0.9361026E+03  0.7818608E-02  0.9470398E-01
          2   -1    0    0  501    0  0.00000000000E+00  0.00000000000E+00  0.24120467635E+04  0.24120467635E+04  0.25500000000E-02 0. -1.
         -2   -1    0    0    0  501 -0.00000000000E+00 -0.00000000000E+00 -0.44543230501E+03  0.44543230502E+03  0.25500000000E-02 0.  1.
    8880023    1    1    2    0    0  0.49752037458E+01  0.66517150596E+03  0.19126219306E+03  0.95544194891E+03  0.65864270000E+03 0.  0.
    8880022    1    1    2    0    0 -0.49752037458E+01 -0.66517150596E+03  0.17753522654E+04  0.19020371196E+04  0.15294330000E+03 0.  0.
<mgrwt>
<rscale>  0 0.86501897E+03</rscale>
<asrwt>0</asrwt>
<pdfrwt beam="1">  1        2 0.37108411E+00 0.93610261E+03</pdfrwt>
<pdfrwt beam="2">  1       -2 0.68528048E-01 0.93610261E+03</pdfrwt>
<totfact> 0.77549776E+00</totfact>
</mgrwt>
</event>
<event>
 4    1  0.3565372E-007  0.8941312E+03  0.7818608E-02  0.9535519E-01
          2   -1    0    0  501    0  0.00000000000E+00  0.00000000000E+00  0.13015582983E+04  0.13015582983E+04  0.25500000000E-02 0. -1.
         -2   -1    0    0    0  501 -0.00000000000E+00 -0.00000000000E+00 -0.18202692724E+04  0.18202692724E+04  0.25500000000E-02 0.  1.
    8880023    1    1    2    0    0 -0.13024597013E+03 -0.59050516523E+03  0.10821459640E+04  0.14037487156E+04  0.65864270000E+03 0.  0.
    8880022    1    1    2    0    0  0.13024597013E+03  0.59050516523E+03 -0.16008569381E+04  0.17180788551E+04  0.15294330000E+03 0.  0.
<mgrwt>
<rscale>  0 0.81715020E+03</rscale>
<asrwt>0</asrwt>
<pdfrwt beam="1">  1        2 0.20023974E+00 0.89413118E+03</pdfrwt>
<pdfrwt beam="2">  1       -2 0.28004143E+00 0.89413118E+03</pdfrwt>
<totfact> 0.70702333E-01</totfact>
</mgrwt>
</event>
<event>
 4    1  0.3565372E-007  0.8226480E+03  0.7818608E-02  0.9663810E-01
          2   -1    0    0  501    0  0.00000000000E+00  0.00000000000E+00  0.72568307979E+03  0.72568307980E+03  0.25500000000E-02 0. -1.
         -2   -1    0    0    0  501 -0.00000000000E+00 -0.00000000000E+00 -0.12932874000E+04  0.12932874000E+04  0.25500000000E-02 0.  1.
    8880023    1    1    2    0    0 -0.74294698695E+02 -0.48725747484E+03  0.40574857468E+03  0.91726858725E+03  0.65864270000E+03 0. -1.
    8880022    1    1    2    0    0  0.74294698695E+02  0.48725747484E+03 -0.97335289493E+03  0.11017018926E+04  0.15294330000E+03 0.  0.
<mgrwt>
<rscale>  0 0.73213016E+03</rscale>
<asrwt>0</asrwt>
<pdfrwt beam="1">  1        2 0.11164355E+00 0.82264801E+03</pdfrwt>
<pdfrwt beam="2">  1       -2 0.19896729E+00 0.82264801E+03</pdfrwt>
<totfact> 0.53499959E+00</totfact>
</mgrwt>
</event>
<event>
 4    1  0.3565372E-007  0.6941992E+03  0.7818608E-02  0.1002217E+00
          2   -1    0    0  501    0  0.00000000000E+00  0.00000000000E+00  0.60013206095E+03  0.60013206096E+03  0.25500000000E-02 0. -1.
         -2   -1    0    0    0  501 -0.00000000000E+00 -0.00000000000E+00 -0.56835718793E+03  0.56835718793E+03  0.25500000000E-02 0.  1.
    8880023    1    1    2    0    0 -0.21435380417E+03 -0.46419485335E+02  0.32940852624E+03  0.76838955316E+03  0.65864270000E+03 0. -1.
    8880022    1    1    2    0    0  0.21435380417E+03  0.46419485335E+02 -0.29763365322E+03  0.40009969573E+03  0.15294330000E+03 0.  0.
<mgrwt>
<rscale>  0 0.54688594E+03</rscale>
<asrwt>0</asrwt>
<pdfrwt beam="1">  1        2 0.92328009E-01 0.69419920E+03</pdfrwt>
<pdfrwt beam="2">  1       -2 0.87439567E-01 0.69419920E+03</pdfrwt>
<totfact> 0.56906267E+01</totfact>
</mgrwt>
</event>
<event>
 4    1  0.3565372E-007  0.9313158E+03  0.7818608E-02  0.9477522E-01
          2   -1    0    0  501    0  0.00000000000E+00  0.00000000000E+00  0.98554571454E+03  0.98554571454E+03  0.25500000000E-02 0. -1.
         -2   -1    0    0    0  501 -0.00000000000E+00 -0.00000000000E+00 -0.94951211140E+03  0.94951211141E+03  0.25500000000E-02 0.  1.
    8880023    1    1    2    0    0  0.47122580712E+03 -0.45987507656E+03  0.55384312534E+03  0.10835549184E+04  0.65864270000E+03 0. -1.
    8880022    1    1    2    0    0 -0.47122580712E+03  0.45987507656E+03 -0.51780952220E+03  0.85150290759E+03  0.15294330000E+03 0.  0.
<mgrwt>
<rscale>  0 0.85961500E+03</rscale>
<asrwt>0</asrwt>
<pdfrwt beam="1">  1        2 0.15162242E+00 0.93131576E+03</pdfrwt>
<pdfrwt beam="2">  1       -2 0.14607879E+00 0.93131576E+03</pdfrwt>
<totfact> 0.82529100E+00</totfact>
</mgrwt>
</event>
<event>
 4    1  0.3565372E-007  0.8348473E+03  0.7818608E-02  0.9639974E-01
          2   -1    0    0  501    0  0.00000000000E+00  0.00000000000E+00  0.12811227950E+04  0.12811227950E+04  0.25500000000E-02 0. -1.
         -2   -1    0    0    0  501 -0.00000000000E+00 -0.00000000000E+00 -0.97779107244E+03  0.97779107244E+03  0.25500000000E-02 0.  1.
    8880023    1    1    2    0    0 -0.40922324580E+03  0.30934793900E+03  0.10492104523E+04  0.13408253398E+04  0.65864270000E+03 0.  0.
    8880022    1    1    2    0    0  0.40922324580E+03 -0.30934793900E+03 -0.74587872971E+03  0.91808852771E+03  0.15294330000E+03 0.  1.
<mgrwt>
<rscale>  0 0.74706023E+03</rscale>
<asrwt>0</asrwt>
<pdfrwt beam="1">  1        2 0.19709581E+00 0.83484730E+03</pdfrwt>
<pdfrwt beam="2">  1       -2 0.15042940E+00 0.83484730E+03</pdfrwt>
<totfact> 0.50973859E+00</totfact>
</mgrwt>
</event>
<event>
 4    1  0.3565372E-007  0.8270005E+03  0.7818608E-02  0.9655197E-01
         -2   -1    0    0    0  501 -0.00000000000E+00  0.00000000000E+00  0.12123264016E+04  0.12123264016E+04  0.25500000000E-02 0.  1.
          2   -1    0    0  501    0  0.00000000000E+00 -0.00000000000E+00 -0.84886380561E+03  0.84886380561E+03  0.25500000000E-02 0. -1.
    8880023    1    1    2    0    0  0.47382595890E+03 -0.16002669280E+03 -0.56080763370E+03  0.99921718861E+03  0.65864270000E+03 0. -1.
    8880022    1    1    2    0    0 -0.47382595890E+03  0.16002669280E+03  0.92427022971E+03  0.10619730186E+04  0.15294330000E+03 0.  0.
<mgrwt>
<rscale>  0 0.73748165E+03</rscale>
<asrwt>0</asrwt>
<pdfrwt beam="1">  1        2 0.13059443E+00 0.82700048E+03</pdfrwt>
<pdfrwt beam="2">  1       -2 0.18651175E+00 0.82700048E+03</pdfrwt>
<totfact> 0.52584964E+00</totfact>
</mgrwt>
</event>
<event>
 4    1  0.3565372E-007  0.1175987E+04  0.7818608E-02  0.9180825E-01
          2   -1    0    0  501    0  0.00000000000E+00  0.00000000000E+00  0.22383986847E+04  0.22383986847E+04  0.25500000000E-02 0. -1.
         -2   -1    0    0    0  501 -0.00000000000E+00 -0.00000000000E+00 -0.53783818864E+03  0.53783818865E+03  0.25500000000E-02 0.  1.
    8880023    1    1    2    0    0 -0.82800288950E+03  0.51336877437E+03  0.68639033749E+03  0.13616453963E+04  0.65864270000E+03 0.  0.
    8880022    1    1    2    0    0  0.82800288950E+03 -0.51336877437E+03  0.10141701586E+04  0.14145914771E+04  0.15294330000E+03 0.  0.
<mgrwt>
<rscale>  0 0.11253556E+04</rscale>
<asrwt>0</asrwt>
<pdfrwt beam="1">  1        2 0.34436904E+00 0.11759875E+04</pdfrwt>
<pdfrwt beam="2">  1       -2 0.82744335E-01 0.11759875E+04</pdfrwt>
<totfact> 0.62020670E+00</totfact>
</mgrwt>
</event>
<event>
 4    1  0.3565372E-007  0.8655353E+03  0.7818608E-02  0.9583792E-01
         -2   -1    0    0    0  501 -0.00000000000E+00  0.00000000000E+00  0.84655626592E+03  0.84655626593E+03  0.25500000000E-02 0.  1.
          2   -1    0    0  501    0  0.00000000000E+00 -0.00000000000E+00 -0.76918294851E+03  0.76918294851E+03  0.25500000000E-02 0. -1.
    8880023    1    1    2    0    0 -0.55995280337E+03 -0.42355136175E+02 -0.30687902071E+03  0.91832784951E+03  0.65864270000E+03 0.  0.
    8880022    1    1    2    0    0  0.55995280337E+03  0.42355136175E+02  0.38425233813E+03  0.69741136493E+03  0.15294330000E+03 0.  0.
<mgrwt>
<rscale>  0 0.78378280E+03</rscale>
<asrwt>0</asrwt>
<pdfrwt beam="1">  1        2 0.11833584E+00 0.86553527E+03</pdfrwt>
<pdfrwt beam="2">  1       -2 0.13023943E+00 0.86553527E+03</pdfrwt>
<totfact> 0.15743874E+01</totfact>
</mgrwt>
</event>
<event>
 4    1  0.3565372E-007  0.6891416E+03  0.7818608E-02  0.1004563E+00
         -2   -1    0    0    0  501 -0.00000000000E+00  0.00000000000E+00  0.34754109095E+03  0.34754109096E+03  0.25500000000E-02 0.  1.
          2   -1    0    0  501    0  0.00000000000E+00 -0.00000000000E+00 -0.11065890164E+04  0.11065890164E+04  0.25500000000E-02 0. -1.
    8880023    1    1    2    0    0 -0.16648489319E+03  0.11570975630E+03 -0.92296626185E+03  0.11518606227E+04  0.65864270000E+03 0. -1.
    8880022    1    1    2    0    0  0.16648489319E+03 -0.11570975630E+03  0.16391833636E+03  0.30226948469E+03  0.15294330000E+03 0.  0.
<mgrwt>
<rscale>  0 0.53693822E+03</rscale>
<asrwt>0</asrwt>
<pdfrwt beam="1">  1        2 0.17024446E+00 0.68914162E+03</pdfrwt>
<pdfrwt beam="2">  1       -2 0.53467861E-01 0.68914162E+03</pdfrwt>
<totfact> 0.72649433E+01</totfact>
</mgrwt>
</event>
<event>
 4    1  0.3565372E-007  0.1535725E+04  0.7818608E-02  0.8884813E-01
          2   -1    0    0  501    0  0.00000000000E+00  0.00000000000E+00  0.94731495860E+03  0.94731495860E+03  0.25500000000E-02 0. -1.
         -2   -1    0    0    0  501 -0.00000000000E+00 -0.00000000000E+00 -0.25311761412E+04  0.25311761412E+04  0.25500000000E-02 0.  1.
    8880023    1    1    2    0    0  0.75306888468E+03 -0.11651296599E+04 -0.26538106607E+03  0.15584855425E+04  0.65864270000E+03 0.  0.
    8880022    1    1    2    0    0 -0.75306888468E+03  0.11651296599E+04 -0.13184801166E+04  0.19200055574E+04  0.15294330000E+03 0.  0.
<mgrwt>
<rscale>  0 0.14994587E+04</rscale>
<asrwt>0</asrwt>
<pdfrwt beam="1">  1        2 0.14574076E+00 0.15357246E+04</pdfrwt>
<pdfrwt beam="2">  1       -2 0.38941171E+00 0.15357246E+04</pdfrwt>
<totfact> 0.22469321E-01</totfact>
</mgrwt>
</event>
<event>
 4    1  0.3565372E-007  0.7027955E+03  0.7818608E-02  0.9985796E-01
          2   -1    0    0  501    0  0.00000000000E+00  0.00000000000E+00  0.20991332306E+04  0.20991332306E+04  0.25500000000E-02 0. -1.
         -2   -1    0    0    0  501 -0.00000000000E+00 -0.00000000000E+00 -0.12864088666E+03  0.12864088669E+03  0.25500000000E-02 0.  1.
    8880023    1    1    2    0    0  0.17606627719E+03 -0.17062226302E+03  0.16650819414E+04  0.18073238139E+04  0.65864270000E+03 0.  0.
    8880022    1    1    2    0    0 -0.17606627719E+03  0.17062226302E+03  0.30541040260E+03  0.42045030340E+03  0.15294330000E+03 0.  0.
<mgrwt>
<rscale>  0 0.56277455E+03</rscale>
<asrwt>0</asrwt>
<pdfrwt beam="1">  1        2 0.32294354E+00 0.70279549E+03</pdfrwt>
<pdfrwt beam="2">  1       -2 0.19790907E-01 0.70279549E+03</pdfrwt>
<totfact> 0.13200892E+02</totfact>
</mgrwt>
</event>
<event>
 4    1  0.3565372E-007  0.1027073E+04  0.7818608E-02  0.9346964E-01
         -2   -1    0    0    0  501 -0.00000000000E+00  0.00000000000E+00  0.79825245379E+03  0.79825245380E+03  0.25500000000E-02 0.  1.
          2   -1    0    0  501    0  0.00000000000E+00 -0.00000000000E+00 -0.27672683030E+04  0.27672683030E+04  0.25500000000E-02 0. -1.
    8880023    1    1    2    0    0  0.52610963951E+03 -0.58675177155E+03 -0.24311667328E+04  0.26392140654E+04  0.65864270000E+03 0.  0.
    8880022    1    1    2    0    0 -0.52610963951E+03  0.58675177155E+03  0.46215088362E+03  0.92630669135E+03  0.15294330000E+03 0.  0.
<mgrwt>
<rscale>  0 0.96571855E+03</rscale>
<asrwt>0</asrwt>
<pdfrwt beam="1">  1        2 0.42573358E+00 0.10270731E+04</pdfrwt>
<pdfrwt beam="2">  1       -2 0.12280807E+00 0.10270731E+04</pdfrwt>
<totfact> 0.12229134E+00</totfact>
</mgrwt>
</event>
<event>
 4    1  0.3565372E-007  0.9398922E+03  0.7818608E-02  0.9464809E-01
          2   -1    0    0  501    0  0.00000000000E+00  0.00000000000E+00  0.12803084221E+04  0.12803084221E+04  0.25500000000E-02 0. -1.
         -2   -1    0    0    0  501 -0.00000000000E+00 -0.00000000000E+00 -0.52573978754E+03  0.52573978755E+03  0.25500000000E-02 0.  1.
    8880023    1    1    2    0    0 -0.21577167378E+03 -0.63484622180E+03  0.32168080061E+03  0.99341626938E+03  0.65864270000E+03 0.  0.
    8880022    1    1    2    0    0  0.21577167378E+03  0.63484622180E+03  0.43288783394E+03  0.81263194026E+03  0.15294330000E+03 0.  0.
<mgrwt>
<rscale>  0 0.86928812E+03</rscale>
<asrwt>0</asrwt>
<pdfrwt beam="1">  1        2 0.19697052E+00 0.93989220E+03</pdfrwt>
<pdfrwt beam="2">  1       -2 0.80883045E-01 0.93989220E+03</pdfrwt>
<totfact> 0.22917272E+01</totfact>
</mgrwt>
</event>
<event>
 4    1  0.3565372E-007  0.7193253E+03  0.7818608E-02  0.9924876E-01
          2   -1    0    0  501    0  0.00000000000E+00  0.00000000000E+00  0.25466420895E+04  0.25466420895E+04  0.25500000000E-02 0. -1.
         -2   -1    0    0    0  501 -0.00000000000E+00 -0.00000000000E+00 -0.11643920599E+03  0.11643920602E+03  0.25500000000E-02 0.  1.
    8880023    1    1    2    0    0 -0.23515921017E+03  0.16828199597E+03  0.19797335157E+04  0.21063650405E+04  0.65864270000E+03 0. -1.
    8880022    1    1    2    0    0  0.23515921017E+03 -0.16828199597E+03  0.45046936784E+03  0.55671625508E+03  0.15294330000E+03 0.  1.
<mgrwt>
<rscale>  0 0.59070714E+03</rscale>
<asrwt>0</asrwt>
<pdfrwt beam="1">  1        2 0.39179106E+00 0.71932530E+03</pdfrwt>
<pdfrwt beam="2">  1       -2 0.17913725E-01 0.71932530E+03</pdfrwt>
<totfact> 0.88267485E+01</totfact>
</mgrwt>
</event>
<event>
 4    1  0.3565372E-007  0.7426153E+03  0.7818608E-02  0.9852393E-01
         -2   -1    0    0    0  501 -0.00000000000E+00  0.00000000000E+00  0.97703287410E+03  0.97703287410E+03  0.25500000000E-02 0.  1.
          2   -1    0    0  501    0  0.00000000000E+00 -0.00000000000E+00 -0.37022371715E+03  0.37022371716E+03  0.25500000000E-02 0. -1.
    8880023    1    1    2    0    0  0.34688201957E+02 -0.34126813497E+03  0.15304306627E+03  0.75822133820E+03  0.65864270000E+03 0. -1.
    8880022    1    1    2    0    0 -0.34688201957E+02  0.34126813497E+03  0.45376609068E+03  0.58903525307E+03  0.15294330000E+03 0.  1.
<mgrwt>
<rscale>  0 0.62625030E+03</rscale>
<asrwt>0</asrwt>
<pdfrwt beam="1">  1        2 0.56957495E-01 0.74261526E+03</pdfrwt>
<pdfrwt beam="2">  1       -2 0.15031275E+00 0.74261526E+03</pdfrwt>
<totfact> 0.26192361E+01</totfact>
</mgrwt>
</event>
<event>
 4    1  0.3565372E-007  0.1176316E+04  0.7818608E-02  0.9180496E-01
         -2   -1    0    0    0  501 -0.00000000000E+00  0.00000000000E+00  0.87430761931E+03  0.87430761931E+03  0.25500000000E-02 0.  1.
          2   -1    0    0  501    0  0.00000000000E+00 -0.00000000000E+00 -0.20184933780E+04  0.20184933780E+04  0.25500000000E-02 0. -1.
    8880023    1    1    2    0    0  0.97277914473E+03 -0.60077893892E+02 -0.14432533386E+04  0.18619073616E+04  0.65864270000E+03 0.  0.
    8880022    1    1    2    0    0 -0.97277914473E+03  0.60077893892E+02  0.29906757988E+03  0.10308936357E+04  0.15294330000E+03 0.  0.
<mgrwt>
<rscale>  0 0.11257029E+04</rscale>
<asrwt>0</asrwt>
<pdfrwt beam="1">  1        2 0.31053744E+00 0.11763158E+04</pdfrwt>
<pdfrwt beam="2">  1       -2 0.13450887E+00 0.11763158E+04</pdfrwt>
<totfact> 0.25394282E+00</totfact>
</mgrwt>
</event>
<event>
 4    1  0.3565372E-007  0.7200892E+03  0.7818608E-02  0.9922284E-01
          2   -1    0    0  501    0  0.00000000000E+00  0.00000000000E+00  0.12337760767E+04  0.12337760767E+04  0.25500000000E-02 0. -1.
         -2   -1    0    0    0  501 -0.00000000000E+00 -0.00000000000E+00 -0.61594439876E+03  0.61594439876E+03  0.25500000000E-02 0.  1.
    8880023    1    1    2    0    0 -0.19702075358E+03  0.21424529264E+03  0.10705521146E+04  0.12901977597E+04  0.65864270000E+03 0.  0.
    8880022    1    1    2    0    0  0.19702075358E+03 -0.21424529264E+03 -0.45272043662E+03  0.55952271581E+03  0.15294330000E+03 0.  0.
<mgrwt>
<rscale>  0 0.59193345E+03</rscale>
<asrwt>0</asrwt>
<pdfrwt beam="1">  1        2 0.18981170E+00 0.72008918E+03</pdfrwt>
<pdfrwt beam="2">  1       -2 0.94760678E-01 0.72008918E+03</pdfrwt>
<totfact> 0.17348965E+01</totfact>
</mgrwt>
</event>
<event>
 4    1  0.3565372E-007  0.7090394E+03  0.7818608E-02  0.9961586E-01
          2   -1    0    0  501    0  0.00000000000E+00  0.00000000000E+00  0.21128390850E+04  0.21128390850E+04  0.25500000000E-02 0. -1.
         -2   -1    0    0    0  501 -0.00000000000E+00 -0.00000000000E+00 -0.50008844414E+03  0.50008844415E+03  0.25500000000E-02 0.  1.
    8880023    1    1    2    0    0 -0.14559519843E+03  0.21846884329E+03  0.19992726436E+04  0.21212797804E+04  0.65864270000E+03 0. -1.
    8880022    1    1    2    0    0  0.14559519843E+03 -0.21846884329E+03 -0.38652200267E+03  0.49164774875E+03  0.15294330000E+03 0.  0.
<mgrwt>
<rscale>  0 0.57367206E+03</rscale>
<asrwt>0</asrwt>
<pdfrwt beam="1">  1        2 0.32505216E+00 0.70903935E+03</pdfrwt>
<pdfrwt beam="2">  1       -2 0.76936684E-01 0.70903935E+03</pdfrwt>
<totfact> 0.91137245E+00</totfact>
</mgrwt>
</event>
<event>
 4    1  0.3565372E-007  0.1239325E+04  0.7818608E-02  0.9119813E-01
          2   -1    0    0  501    0  0.00000000000E+00  0.00000000000E+00  0.18850716532E+04  0.18850716532E+04  0.25500000000E-02 0. -1.
         -2   -1    0    0    0  501 -0.00000000000E+00 -0.00000000000E+00 -0.84607868489E+03  0.84607868490E+03  0.25500000000E-02 0.  1.
    8880023    1    1    2    0    0  0.20489032404E+03  0.10296286429E+04  0.11156124448E+04  0.16674880870E+04  0.65864270000E+03 0.  0.
    8880022    1    1    2    0    0 -0.20489032404E+03 -0.10296286429E+04 -0.76619476507E+02  0.10636622511E+04  0.15294330000E+03 0.  0.
<mgrwt>
<rscale>  0 0.11920852E+04</rscale>
<asrwt>0</asrwt>
<pdfrwt beam="1">  1        2 0.29001102E+00 0.12393246E+04</pdfrwt>
<pdfrwt beam="2">  1       -2 0.13016595E+00 0.12393246E+04</pdfrwt>
<totfact> 0.32522328E+00</totfact>
</mgrwt>
</event>
<event>
 4    1  0.3565372E-007  0.6646860E+03  0.7818608E-02  0.1019798E+00
         -2   -1    0    0    0  501 -0.00000000000E+00  0.00000000000E+00  0.39144991626E+03  0.39144991626E+03  0.25500000000E-02 0.  1.
          2   -1    0    0  501    0  0.00000000000E+00 -0.00000000000E+00 -0.45623510745E+03  0.45623510746E+03  0.25500000000E-02 0. -1.
    8880023    1    1    2    0    0 -0.61330122999E+02 -0.65083655549E+02 -0.81801035963E+02  0.66970059128E+03  0.65864270000E+03 0.  0.
    8880022    1    1    2    0    0  0.61330122999E+02  0.65083655549E+02  0.17015844765E+02  0.17798443245E+03  0.15294330000E+03 0.  0.
<mgrwt>
<rscale>  0 0.47759464E+03</rscale>
<asrwt>0</asrwt>
<pdfrwt beam="1">  1        2 0.70190016E-01 0.66468600E+03</pdfrwt>
<pdfrwt beam="2">  1       -2 0.60223064E-01 0.66468600E+03</pdfrwt>
<totfact> 0.17828361E+02</totfact>
</mgrwt>
</event>
<event>
 4    1  0.3565372E-007  0.6954962E+03  0.7818608E-02  0.1001642E+00
         -2   -1    0    0    0  501 -0.00000000000E+00  0.00000000000E+00  0.24994817306E+03  0.24994817307E+03  0.25500000000E-02 0.  1.
          2   -1    0    0  501    0  0.00000000000E+00 -0.00000000000E+00 -0.12648337165E+04  0.12648337165E+04  0.25500000000E-02 0. -1.
    8880023    1    1    2    0    0  0.37728975210E+01  0.22336193575E+03 -0.10309046284E+04  0.12435752282E+04  0.65864270000E+03 0. -1.
    8880022    1    1    2    0    0 -0.37728975210E+01 -0.22336193575E+03  0.16019084905E+02  0.27120666141E+03  0.15294330000E+03 0.  0.
<mgrwt>
<rscale>  0 0.54935925E+03</rscale>
<asrwt>0</asrwt>
<pdfrwt beam="1">  1        2 0.19458980E+00 0.69549622E+03</pdfrwt>
<pdfrwt beam="2">  1       -2 0.38453566E-01 0.69549622E+03</pdfrwt>
<totfact> 0.11291569E+02</totfact>
</mgrwt>
</event>
<event>
 4    1  0.3565372E-007  0.6606794E+03  0.7818608E-02  0.1023471E+00
          2   -1    0    0  501    0  0.00000000000E+00  0.00000000000E+00  0.75923858592E+03  0.75923858593E+03  0.25500000000E-02 0. -1.
         -2   -1    0    0    0  501 -0.00000000000E+00 -0.00000000000E+00 -0.54679000283E+03  0.54679000283E+03  0.25500000000E-02 0.  1.
    8880023    1    1    2    0    0  0.48937289071E+02  0.17095703675E+02  0.59605294603E+03  0.88981820732E+03  0.65864270000E+03 0. -1.
    8880022    1    1    2    0    0 -0.48937289071E+02 -0.17095703675E+02 -0.38360436293E+03  0.41621038144E+03  0.15294330000E+03 0.  0.
<mgrwt>
<rscale>  0 0.46454629E+03</rscale>
<asrwt>0</asrwt>
<pdfrwt beam="1">  1        2 0.11680594E+00 0.66067944E+03</pdfrwt>
<pdfrwt beam="2">  1       -2 0.84121539E-01 0.66067944E+03</pdfrwt>
<totfact> 0.46492794E+01</totfact>
</mgrwt>
</event>
<event>
 4    1  0.3565372E-007  0.7095310E+03  0.7818608E-02  0.9959746E-01
         -2   -1    0    0    0  501 -0.00000000000E+00  0.00000000000E+00  0.36585266782E+03  0.36585266783E+03  0.25500000000E-02 0.  1.
          2   -1    0    0  501    0  0.00000000000E+00 -0.00000000000E+00 -0.18106936744E+04  0.18106936744E+04  0.25500000000E-02 0. -1.
    8880023    1    1    2    0    0 -0.15089602845E+02  0.26343196533E+03 -0.16586789586E+04  0.18040649075E+04  0.65864270000E+03 0. -1.
    8880022    1    1    2    0    0  0.15089602845E+02 -0.26343196533E+03  0.21383795203E+03  0.37248143473E+03  0.15294330000E+03 0.  0.
<mgrwt>
<rscale>  0 0.57451069E+03</rscale>
<asrwt>0</asrwt>
<pdfrwt beam="1">  1        2 0.27856825E+00 0.70953104E+03</pdfrwt>
<pdfrwt beam="2">  1       -2 0.56285027E-01 0.70953104E+03</pdfrwt>
<totfact> 0.26094117E+01</totfact>
</mgrwt>
</event>
<event>
 4    1  0.3565372E-007  0.9446049E+03  0.7818608E-02  0.9457919E-01
         -2   -1    0    0    0  501 -0.00000000000E+00  0.00000000000E+00  0.10764787762E+04  0.10764787762E+04  0.25500000000E-02 0.  1.
          2   -1    0    0  501    0  0.00000000000E+00 -0.00000000000E+00 -0.11915961099E+04  0.11915961099E+04  0.25500000000E-02 0. -1.
    8880023    1    1    2    0    0 -0.30916216335E+03 -0.60240093167E+03 -0.84025387714E+03  0.12642408434E+04  0.65864270000E+03 0.  0.
    8880022    1    1    2    0    0  0.30916216335E+03  0.60240093167E+03  0.72513654349E+03  0.10038340428E+04  0.15294330000E+03 0.  0.
<mgrwt>
<rscale>  0 0.87458639E+03</rscale>
<asrwt>0</asrwt>
<pdfrwt beam="1">  1        2 0.18332248E+00 0.94460485E+03</pdfrwt>
<pdfrwt beam="2">  1       -2 0.16561212E+00 0.94460485E+03</pdfrwt>
<totfact> 0.43794587E+00</totfact>
</mgrwt>
</event>
<event>
 4    1  0.3565372E-007  0.6982703E+03  0.7818608E-02  0.1000445E+00
         -2   -1    0    0    0  501 -0.00000000000E+00  0.00000000000E+00  0.73949769327E+02  0.73949769371E+02  0.25500000000E-02 0.  1.
          2   -1    0    0  501    0  0.00000000000E+00 -0.00000000000E+00 -0.36852065462E+04  0.36852065462E+04  0.25500000000E-02 0. -1.
    8880023    1    1    2    0    0  0.20825341531E+03 -0.10198848753E+03 -0.30962531223E+04  0.31740139792E+04  0.65864270000E+03 0.  1.
    8880022    1    1    2    0    0 -0.20825341531E+03  0.10198848753E+03 -0.51500365462E+03  0.58514233641E+03  0.15294330000E+03 0.  0.
<mgrwt>
<rscale>  0 0.55455375E+03</rscale>
<asrwt>0</asrwt>
<pdfrwt beam="1">  1        2 0.56695471E+00 0.69827025E+03</pdfrwt>
<pdfrwt beam="2">  1       -2 0.11376890E-01 0.69827025E+03</pdfrwt>
<totfact> 0.36396955E+01</totfact>
</mgrwt>
</event>
<event>
 4    1  0.3565372E-007  0.9907205E+03  0.7818608E-02  0.9393800E-01
         -2   -1    0    0    0  501 -0.00000000000E+00  0.00000000000E+00  0.42009173940E+03  0.42009173941E+03  0.25500000000E-02 0.  1.
          2   -1    0    0  501    0  0.00000000000E+00 -0.00000000000E+00 -0.26080047189E+04  0.26080047189E+04  0.25500000000E-02 0. -1.
    8880023    1    1    2    0    0  0.38111828690E+03 -0.63440194699E+03 -0.20259529030E+04  0.22552189141E+04  0.65864270000E+03 0.  0.
    8880022    1    1    2    0    0 -0.38111828690E+03  0.63440194699E+03 -0.16196007646E+03  0.77287754420E+03  0.15294330000E+03 0.  1.
<mgrwt>
<rscale>  0 0.92587683E+03</rscale>
<asrwt>0</asrwt>
<pdfrwt beam="1">  1        2 0.40123148E+00 0.99072054E+03</pdfrwt>
<pdfrwt beam="2">  1       -2 0.64629500E-01 0.99072054E+03</pdfrwt>
<totfact> 0.67523009E+00</totfact>
</mgrwt>
</event>
<event>
 4    1  0.3565372E-007  0.7483198E+03  0.7818608E-02  0.9836343E-01
          2   -1    0    0  501    0  0.00000000000E+00  0.00000000000E+00  0.30069815270E+04  0.30069815270E+04  0.25500000000E-02 0. -1.
         -2   -1    0    0    0  501 -0.00000000000E+00 -0.00000000000E+00 -0.20386547244E+03  0.20386547245E+03  0.25500000000E-02 0.  1.
    8880023    1    1    2    0    0 -0.35378355527E+03 -0.31771822950E+02  0.27122387852E+04  0.28135780933E+04  0.65864270000E+03 0. -1.
    8880022    1    1    2    0    0  0.35378355527E+03  0.31771822950E+02  0.90877269346E+02  0.39726890617E+03  0.15294330000E+03 0.  0.
<mgrwt>
<rscale>  0 0.63448120E+03</rscale>
<asrwt>0</asrwt>
<pdfrwt beam="1">  1        2 0.46261253E+00 0.74831976E+03</pdfrwt>
<pdfrwt beam="2">  1       -2 0.31363920E-01 0.74831976E+03</pdfrwt>
<totfact> 0.17243929E+01</totfact>
</mgrwt>
</event>
<event>
 4    1  0.3565372E-007  0.7609596E+03  0.7818608E-02  0.9802630E-01
         -2   -1    0    0    0  501 -0.00000000000E+00  0.00000000000E+00  0.46649512440E+03  0.46649512441E+03  0.25500000000E-02 0.  1.
          2   -1    0    0  501    0  0.00000000000E+00 -0.00000000000E+00 -0.24684979599E+04  0.24684979599E+04  0.25500000000E-02 0. -1.
    8880023    1    1    2    0    0 -0.36971802334E+03 -0.92508571214E+02 -0.23032428548E+04  0.24256931189E+04  0.65864270000E+03 0. -1.
    8880022    1    1    2    0    0  0.36971802334E+03  0.92508571214E+02  0.30124001931E+03  0.50929996542E+03  0.15294330000E+03 0.  0.
<mgrwt>
<rscale>  0 0.65221615E+03</rscale>
<asrwt>0</asrwt>
<pdfrwt beam="1">  1        2 0.37976891E+00 0.76095956E+03</pdfrwt>
<pdfrwt beam="2">  1       -2 0.71768482E-01 0.76095956E+03</pdfrwt>
<totfact> 0.66868398E+00</totfact>
</mgrwt>
</event>
<event>
 4    1  0.3565372E-007  0.6718640E+03  0.7818608E-02  0.1014360E+00
         -2   -1    0    0    0  501 -0.00000000000E+00  0.00000000000E+00  0.38422972533E+03  0.38422972534E+03  0.25500000000E-02 0.  1.
          2   -1    0    0  501    0  0.00000000000E+00 -0.00000000000E+00 -0.50708521579E+03  0.50708521580E+03  0.25500000000E-02 0. -1.
    8880023    1    1    2    0    0 -0.76142209420E+02  0.10859744443E+03 -0.14603076217E+03  0.68755089321E+03  0.65864270000E+03 0.  0.
    8880022    1    1    2    0    0  0.76142209420E+02 -0.10859744443E+03  0.23175271708E+02  0.20376404792E+03  0.15294330000E+03 0. -1.
<mgrwt>
<rscale>  0 0.49777846E+03</rscale>
<asrwt>0</asrwt>
<pdfrwt beam="1">  1        2 0.78013110E-01 0.67186401E+03</pdfrwt>
<pdfrwt beam="2">  1       -2 0.59112266E-01 0.67186401E+03</pdfrwt>
<totfact> 0.16413756E+02</totfact>
</mgrwt>
</event>
<event>
 4    1  0.3565372E-007  0.1102617E+04  0.7818608E-02  0.9258148E-01
          2   -1    0    0  501    0  0.00000000000E+00  0.00000000000E+00  0.15781424593E+04  0.15781424593E+04  0.25500000000E-02 0. -1.
         -2   -1    0    0    0  501 -0.00000000000E+00 -0.00000000000E+00 -0.80640424657E+03  0.80640424658E+03  0.25500000000E-02 0.  1.
    8880023    1    1    2    0    0 -0.90848979103E+01  0.88423554715E+03  0.96649436118E+03  0.14662457484E+04  0.65864270000E+03 0.  0.
    8880022    1    1    2    0    0  0.90848979103E+01 -0.88423554715E+03 -0.19475614843E+03  0.91830095752E+03  0.15294330000E+03 0.  0.
<mgrwt>
<rscale>  0 0.10472889E+04</rscale>
<asrwt>0</asrwt>
<pdfrwt beam="1">  1        2 0.24279115E+00 0.11026175E+04</pdfrwt>
<pdfrwt beam="2">  1       -2 0.12406219E+00 0.11026175E+04</pdfrwt>
<totfact> 0.55134055E+00</totfact>
</mgrwt>
</event>
<event>
 4    1  0.3565372E-007  0.1255347E+04  0.7818608E-02  0.9105113E-01
         -2   -1    0    0    0  501 -0.00000000000E+00  0.00000000000E+00  0.54617055195E+03  0.54617055196E+03  0.25500000000E-02 0.  1.
          2   -1    0    0  501    0  0.00000000000E+00 -0.00000000000E+00 -0.26759898164E+04  0.26759898164E+04  0.25500000000E-02 0. -1.
    8880023    1    1    2    0    0 -0.56188554767E+03 -0.90904968858E+03 -0.72235626029E+03  0.14483423207E+04  0.65864270000E+03 0.  1.
    8880022    1    1    2    0    0  0.56188554767E+03  0.90904968858E+03 -0.14074630042E+04  0.17738180476E+04  0.15294330000E+03 0. -1.
<mgrwt>
<rscale>  0 0.12088877E+04</rscale>
<asrwt>0</asrwt>
<pdfrwt beam="1">  1        2 0.41169073E+00 0.12553473E+04</pdfrwt>
<pdfrwt beam="2">  1       -2 0.84026241E-01 0.12553473E+04</pdfrwt>
<totfact> 0.33323923E+00</totfact>
</mgrwt>
</event>
<event>
 4    1  0.3565372E-007  0.7206673E+03  0.7818608E-02  0.9920334E-01
         -2   -1    0    0    0  501 -0.00000000000E+00  0.00000000000E+00  0.60392917895E+03  0.60392917895E+03  0.25500000000E-02 0.  1.
          2   -1    0    0  501    0  0.00000000000E+00 -0.00000000000E+00 -0.10768916688E+04  0.10768916688E+04  0.25500000000E-02 0. -1.
    8880023    1    1    2    0    0  0.11099080482E+02 -0.29228066560E+03 -0.89242005356E+03  0.11470723322E+04  0.65864270000E+03 0. -1.
    8880022    1    1    2    0    0 -0.11099080482E+02  0.29228066560E+03  0.41945756371E+03  0.53374851554E+03  0.15294330000E+03 0.  0.
<mgrwt>
<rscale>  0 0.59285837E+03</rscale>
<asrwt>0</asrwt>
<pdfrwt beam="1">  1        2 0.16567564E+00 0.72066732E+03</pdfrwt>
<pdfrwt beam="2">  1       -2 0.92912181E-01 0.72066732E+03</pdfrwt>
<totfact> 0.22557140E+01</totfact>
</mgrwt>
</event>
<event>
 4    1  0.3565372E-007  0.6586892E+03  0.7818608E-02  0.1025541E+00
          2   -1    0    0  501    0  0.00000000000E+00  0.00000000000E+00  0.19776175162E+04  0.19776175162E+04  0.25500000000E-02 0. -1.
         -2   -1    0    0    0  501 -0.00000000000E+00 -0.00000000000E+00 -0.49757669787E+03  0.49757669788E+03  0.25500000000E-02 0.  1.
    8880023    1    1    2    0    0  0.60705625325E+01 -0.49414234769E+01  0.19091452181E+04  0.20195808821E+04  0.65864270000E+03 0. -1.
    8880022    1    1    2    0    0 -0.60705625325E+01  0.49414234769E+01 -0.42910439974E+03  0.45561333199E+03  0.15294330000E+03 0.  0.
<mgrwt>
<rscale>  0 0.45738828E+03</rscale>
<asrwt>0</asrwt>
<pdfrwt beam="1">  1        2 0.30424884E+00 0.65868921E+03</pdfrwt>
<pdfrwt beam="2">  1       -2 0.76550263E-01 0.65868921E+03</pdfrwt>
<totfact> 0.11014910E+01</totfact>
</mgrwt>
</event>
<event>
 4    1  0.3565372E-007  0.6729643E+03  0.7818608E-02  0.1013621E+00
         -2   -1    0    0    0  501 -0.00000000000E+00  0.00000000000E+00  0.12588345841E+03  0.12588345843E+03  0.25500000000E-02 0.  1.
          2   -1    0    0  501    0  0.00000000000E+00 -0.00000000000E+00 -0.15354803300E+04  0.15354803300E+04  0.25500000000E-02 0. -1.
    8880023    1    1    2    0    0  0.54259126467E+02  0.12699114651E+03 -0.10963743135E+04  0.12864360247E+04  0.65864270000E+03 0.  0.
    8880022    1    1    2    0    0 -0.54259126467E+02 -0.12699114651E+03 -0.31322255803E+03  0.37492776367E+03  0.15294330000E+03 0. -1.
<mgrwt>
<rscale>  0 0.50060442E+03</rscale>
<asrwt>0</asrwt>
<pdfrwt beam="1">  1        2 0.23622773E+00 0.67296435E+03</pdfrwt>
<pdfrwt beam="2">  1       -2 0.19366687E-01 0.67296435E+03</pdfrwt>
<totfact> 0.27909632E+02</totfact>
</mgrwt>
</event>
<event>
 4    1  0.3565372E-007  0.7709460E+03  0.7818608E-02  0.9777551E-01
         -2   -1    0    0    0  501 -0.00000000000E+00  0.00000000000E+00  0.14871291365E+04  0.14871291365E+04  0.25500000000E-02 0.  1.
          2   -1    0    0  501    0  0.00000000000E+00 -0.00000000000E+00 -0.27333237402E+03  0.27333237404E+03  0.25500000000E-02 0. -1.
    8880023    1    1    2    0    0  0.62136783993E+01  0.40063567547E+03  0.47302942293E+03  0.90449687422E+03  0.65864270000E+03 0. -1.
    8880022    1    1    2    0    0 -0.62136783993E+01 -0.40063567547E+03  0.74076733953E+03  0.85596463630E+03  0.15294330000E+03 0.  0.
<mgrwt>
<rscale>  0 0.66581299E+03</rscale>
<asrwt>0</asrwt>
<pdfrwt beam="1">  1        2 0.42051134E-01 0.77094602E+03</pdfrwt>
<pdfrwt beam="2">  1       -2 0.22878910E+00 0.77094602E+03</pdfrwt>
<totfact> 0.10812376E+01</totfact>
</mgrwt>
</event>
<event>
 4    1  0.3565372E-007  0.7218822E+03  0.7818608E-02  0.9916268E-01
         -2   -1    0    0    0  501 -0.00000000000E+00  0.00000000000E+00  0.14582236071E+03  0.14582236073E+03  0.25500000000E-02 0.  1.
          2   -1    0    0  501    0  0.00000000000E+00 -0.00000000000E+00 -0.36010082007E+04  0.36010082007E+04  0.25500000000E-02 0. -1.
    8880023    1    1    2    0    0 -0.12514027868E+03 -0.26766313703E+03 -0.33030047312E+04  0.33809694032E+04  0.65864270000E+03 0. -1.
    8880022    1    1    2    0    0  0.12514027868E+03  0.26766313703E+03 -0.15218110880E+03  0.36586115832E+03  0.15294330000E+03 0.  0.
<mgrwt>
<rscale>  0 0.59479304E+03</rscale>
<asrwt>0</asrwt>
<pdfrwt beam="1">  1        2 0.55400120E+00 0.72188216E+03</pdfrwt>
<pdfrwt beam="2">  1       -2 0.22434212E-01 0.72188216E+03</pdfrwt>
<totfact> 0.13062524E+01</totfact>
</mgrwt>
</event>
<event>
 4    1  0.3565372E-007  0.8656186E+03  0.7818608E-02  0.9583646E-01
          2   -1    0    0  501    0  0.00000000000E+00  0.00000000000E+00  0.13484517242E+04  0.13484517242E+04  0.25500000000E-02 0. -1.
         -2   -1    0    0    0  501 -0.00000000000E+00 -0.00000000000E+00 -0.54362947456E+03  0.54362947457E+03  0.25500000000E-02 0.  1.
    8880023    1    1    2    0    0 -0.63304729943E+02 -0.55810196845E+03  0.95698286524E+03  0.12903920748E+04  0.65864270000E+03 0. -1.
    8880022    1    1    2    0    0  0.63304729943E+02  0.55810196845E+03 -0.15216061557E+03  0.60168912402E+03  0.15294330000E+03 0.  0.
<mgrwt>
<rscale>  0 0.78388107E+03</rscale>
<asrwt>0</asrwt>
<pdfrwt beam="1">  1        2 0.20745411E+00 0.86561857E+03</pdfrwt>
<pdfrwt beam="2">  1       -2 0.83635304E-01 0.86561857E+03</pdfrwt>
<totfact> 0.19535432E+01</totfact>
</mgrwt>
</event>
<event>
 4    1  0.3565372E-007  0.8544815E+03  0.7818608E-02  0.9603456E-01
         -2   -1    0    0    0  501 -0.00000000000E+00  0.00000000000E+00  0.32155062195E+03  0.32155062196E+03  0.25500000000E-02 0.  1.
          2   -1    0    0  501    0  0.00000000000E+00 -0.00000000000E+00 -0.35116482429E+04  0.35116482429E+04  0.25500000000E-02 0. -1.
    8880023    1    1    2    0    0 -0.36201567155E+02  0.54315552864E+03 -0.31527906883E+04  0.32665314650E+04  0.65864270000E+03 0. -1.
    8880022    1    1    2    0    0  0.36201567155E+02 -0.54315552864E+03 -0.37306932665E+02  0.56666739980E+03  0.15294330000E+03 0.  0.
<mgrwt>
<rscale>  0 0.77067853E+03</rscale>
<asrwt>0</asrwt>
<pdfrwt beam="1">  1        2 0.54025355E+00 0.85448153E+03</pdfrwt>
<pdfrwt beam="2">  1       -2 0.49469329E-01 0.85448153E+03</pdfrwt>
<totfact> 0.32821735E+00</totfact>
</mgrwt>
</event>
<event>
 4    1  0.3565372E-007  0.8262672E+03  0.7818608E-02  0.9656639E-01
          2   -1    0    0  501    0  0.00000000000E+00  0.00000000000E+00  0.15126559834E+04  0.15126559834E+04  0.25500000000E-02 0. -1.
         -2   -1    0    0    0  501 -0.00000000000E+00 -0.00000000000E+00 -0.35485086179E+03  0.35485086180E+03  0.25500000000E-02 0.  1.
    8880023    1    1    2    0    0 -0.42892521776E+03 -0.25481465805E+03  0.10474939514E+04  0.13341518418E+04  0.65864270000E+03 0. -1.
    8880022    1    1    2    0    0  0.42892521776E+03  0.25481465805E+03  0.11031117017E+03  0.53335500341E+03  0.15294330000E+03 0.  0.
<mgrwt>
<rscale>  0 0.73658210E+03</rscale>
<asrwt>0</asrwt>
<pdfrwt beam="1">  1        2 0.23271630E+00 0.82626724E+03</pdfrwt>
<pdfrwt beam="2">  1       -2 0.54592441E-01 0.82626724E+03</pdfrwt>
<totfact> 0.40001416E+01</totfact>
</mgrwt>
</event>
<event>
 4    1  0.3565372E-007  0.7854883E+03  0.7818608E-02  0.9743099E-01
         -2   -1    0    0    0  501 -0.00000000000E+00  0.00000000000E+00  0.21074301343E+03  0.21074301345E+03  0.25500000000E-02 0.  1.
          2   -1    0    0  501    0  0.00000000000E+00 -0.00000000000E+00 -0.37058371365E+04  0.37058371365E+04  0.25500000000E-02 0. -1.
    8880023    1    1    2    0    0  0.23682910081E+03  0.35650193123E+03 -0.33479365302E+04  0.34388473165E+04  0.65864270000E+03 0. -1.
    8880022    1    1    2    0    0 -0.23682910081E+03 -0.35650193123E+03 -0.14715759287E+03  0.47773283341E+03  0.15294330000E+03 0.  0.
<mgrwt>
<rscale>  0 0.68507649E+03</rscale>
<asrwt>0</asrwt>
<pdfrwt beam="1">  1        2 0.57012874E+00 0.78548829E+03</pdfrwt>
<pdfrwt beam="2">  1       -2 0.32422005E-01 0.78548829E+03</pdfrwt>
<totfact> 0.55470950E+00</totfact>
</mgrwt>
</event>
<event>
 4    1  0.3565372E-007  0.1151151E+04  0.7818608E-02  0.9206135E-01
         -2   -1    0    0    0  501 -0.00000000000E+00  0.00000000000E+00  0.72777678822E+03  0.72777678823E+03  0.25500000000E-02 0.  1.
          2   -1    0    0  501    0  0.00000000000E+00 -0.00000000000E+00 -0.23719928536E+04  0.23719928536E+04  0.25500000000E-02 0. -1.
    8880023    1    1    2    0    0 -0.94002245710E+03 -0.87724910754E+02 -0.17941289413E+04  0.21316769793E+04  0.65864270000E+03 0.  0.
    8880022    1    1    2    0    0  0.94002245710E+03  0.87724910754E+02  0.14991287594E+03  0.96809266251E+03  0.15294330000E+03 0.  0.
<mgrwt>
<rscale>  0 0.10990330E+04</rscale>
<asrwt>0</asrwt>
<pdfrwt beam="1">  1        2 0.36492197E+00 0.11511508E+04</pdfrwt>
<pdfrwt beam="2">  1       -2 0.11196566E+00 0.11511508E+04</pdfrwt>
<totfact> 0.25597925E+00</totfact>
</mgrwt>
</event>
<event>
 4    1  0.3565372E-007  0.6965801E+03  0.7818608E-02  0.1001169E+00
         -2   -1    0    0    0  501 -0.00000000000E+00  0.00000000000E+00  0.46427383622E+03  0.46427383623E+03  0.25500000000E-02 0.  1.
          2   -1    0    0  501    0  0.00000000000E+00 -0.00000000000E+00 -0.59680305179E+03  0.59680305180E+03  0.25500000000E-02 0. -1.
    8880023    1    1    2    0    0 -0.22603043092E+03 -0.17997045365E+02 -0.27952561728E+03  0.75057206604E+03  0.65864270000E+03 0. -1.
    8880022    1    1    2    0    0  0.22603043092E+03  0.17997045365E+02  0.14699640171E+03  0.31050482199E+03  0.15294330000E+03 0.  0.
<mgrwt>
<rscale>  0 0.55140392E+03</rscale>
<asrwt>0</asrwt>
<pdfrwt beam="1">  1        2 0.91815854E-01 0.69658011E+03</pdfrwt>
<pdfrwt beam="2">  1       -2 0.71426744E-01 0.69658011E+03</pdfrwt>
<totfact> 0.90106542E+01</totfact>
</mgrwt>
</event>
<event>
 4    1  0.3565372E-007  0.6705252E+03  0.7818608E-02  0.1015289E+00
         -2   -1    0    0    0  501 -0.00000000000E+00  0.00000000000E+00  0.11005688948E+03  0.11005688951E+03  0.25500000000E-02 0.  1.
          2   -1    0    0  501    0  0.00000000000E+00 -0.00000000000E+00 -0.32250576508E+04  0.32250576508E+04  0.25500000000E-02 0. -1.
    8880023    1    1    2    0    0  0.35659780156E+02 -0.12050822262E+03 -0.30557964017E+04  0.31284973560E+04  0.65864270000E+03 0. -1.
    8880022    1    1    2    0    0 -0.35659780156E+02  0.12050822262E+03 -0.59204359629E+02  0.20661718432E+03  0.15294330000E+03 0.  0.
<mgrwt>
<rscale>  0 0.49425607E+03</rscale>
<asrwt>0</asrwt>
<pdfrwt beam="1">  1        2 0.49616264E+00 0.67052521E+03</pdfrwt>
<pdfrwt beam="2">  1       -2 0.16931832E-01 0.67052521E+03</pdfrwt>
<totfact> 0.38372672E+01</totfact>
</mgrwt>
</event>
<event>
 4    1  0.3565372E-007  0.7301344E+03  0.7818608E-02  0.9889677E-01
         -2   -1    0    0    0  501 -0.00000000000E+00  0.00000000000E+00  0.21478983706E+03  0.21478983708E+03  0.25500000000E-02 0.  1.
          2   -1    0    0  501    0  0.00000000000E+00 -0.00000000000E+00 -0.15979357648E+04  0.15979357648E+04  0.25500000000E-02 0. -1.
    8880023    1    1    2    0    0  0.34350642318E+02  0.31321887153E+03 -0.12301546167E+04  0.14305162059E+04  0.65864270000E+03 0.  0.
    8880022    1    1    2    0    0 -0.34350642318E+02 -0.31321887153E+03 -0.15299131104E+03  0.38220939598E+03  0.15294330000E+03 0.  0.
<mgrwt>
<rscale>  0 0.60764202E+03</rscale>
<asrwt>0</asrwt>
<pdfrwt beam="1">  1        2 0.24583626E+00 0.73013439E+03</pdfrwt>
<pdfrwt beam="2">  1       -2 0.33044591E-01 0.73013439E+03</pdfrwt>
<totfact> 0.97636359E+01</totfact>
</mgrwt>
</event>
<event>
 4    1  0.3565372E-007  0.8748148E+03  0.7818608E-02  0.9567735E-01
         -2   -1    0    0    0  501 -0.00000000000E+00  0.00000000000E+00  0.29213054722E+03  0.29213054723E+03  0.25500000000E-02 0.  1.
          2   -1    0    0  501    0  0.00000000000E+00 -0.00000000000E+00 -0.20678133781E+04  0.20678133781E+04  0.25500000000E-02 0. -1.
    8880023    1    1    2    0    0  0.56034790979E+03  0.13229111751E+03 -0.14148633880E+04  0.16634720715E+04  0.65864270000E+03 0. -1.
    8880022    1    1    2    0    0 -0.56034790979E+03 -0.13229111751E+03 -0.36081944289E+03  0.69647185381E+03  0.15294330000E+03 0.  0.
<mgrwt>
<rscale>  0 0.79468981E+03</rscale>
<asrwt>0</asrwt>
<pdfrwt beam="1">  1        2 0.31812513E+00 0.87481480E+03</pdfrwt>
<pdfrwt beam="2">  1       -2 0.44943162E-01 0.87481480E+03</pdfrwt>
<totfact> 0.29279454E+01</totfact>
</mgrwt>
</event>
<event>
 4    1  0.3565372E-007  0.7229105E+03  0.7818608E-02  0.9912858E-01
          2   -1    0    0  501    0  0.00000000000E+00  0.00000000000E+00  0.38130016020E+03  0.38130016021E+03  0.25500000000E-02 0. -1.
         -2   -1    0    0    0  501 -0.00000000000E+00 -0.00000000000E+00 -0.76457882259E+03  0.76457882260E+03  0.25500000000E-02 0.  1.
    8880023    1    1    2    0    0  0.27138726863E+03 -0.12303779214E+03 -0.36654357705E+03  0.81052683361E+03  0.65864270000E+03 0.  0.
    8880022    1    1    2    0    0 -0.27138726863E+03  0.12303779214E+03 -0.16735085345E+02  0.33535214919E+03  0.15294330000E+03 0. -1.
<mgrwt>
<rscale>  0 0.59642152E+03</rscale>
<asrwt>0</asrwt>
<pdfrwt beam="1">  1        2 0.58661563E-01 0.72291047E+03</pdfrwt>
<pdfrwt beam="2">  1       -2 0.11762751E+00 0.72291047E+03</pdfrwt>
<totfact> 0.47428801E+01</totfact>
</mgrwt>
</event>
<event>
 4    1  0.3565372E-007  0.7244126E+03  0.7818608E-02  0.9907929E-01
          2   -1    0    0  501    0  0.00000000000E+00  0.00000000000E+00  0.21579585305E+04  0.21579585305E+04  0.25500000000E-02 0. -1.
         -2   -1    0    0    0  501 -0.00000000000E+00 -0.00000000000E+00 -0.17213735568E+03  0.17213735570E+03  0.25500000000E-02 0.  1.
    8880023    1    1    2    0    0  0.30141693347E+03  0.10545713983E+02  0.18086522691E+04  0.19483317522E+04  0.65864270000E+03 0.  0.
    8880022    1    1    2    0    0 -0.30141693347E+03 -0.10545713983E+02  0.17716890579E+03  0.38176413407E+03  0.15294330000E+03 0.  0.
<mgrwt>
<rscale>  0 0.59878567E+03</rscale>
<asrwt>0</asrwt>
<pdfrwt beam="1">  1        2 0.33199361E+00 0.72441258E+03</pdfrwt>
<pdfrwt beam="2">  1       -2 0.26482671E-01 0.72441258E+03</pdfrwt>
<totfact> 0.72775962E+01</totfact>
</mgrwt>
</event>
<event>
 4    1  0.3565372E-007  0.6659647E+03  0.7818608E-02  0.1018737E+00
          2   -1    0    0  501    0  0.00000000000E+00  0.00000000000E+00  0.12117028524E+04  0.12117028524E+04  0.25500000000E-02 0. -1.
         -2   -1    0    0    0  501 -0.00000000000E+00 -0.00000000000E+00 -0.74498628097E+03  0.74498628098E+03  0.25500000000E-02 0.  1.
    8880023    1    1    2    0    0 -0.13816689517E+02  0.97508531542E+02  0.11065519086E+04  0.12914976373E+04  0.65864270000E+03 0. -1.
    8880022    1    1    2    0    0  0.13816689517E+02 -0.97508531542E+02 -0.63983533718E+03  0.66519149600E+03  0.15294330000E+03 0.  0.
<mgrwt>
<rscale>  0 0.48145010E+03</rscale>
<asrwt>0</asrwt>
<pdfrwt beam="1">  1        2 0.18641582E+00 0.66596473E+03</pdfrwt>
<pdfrwt beam="2">  1       -2 0.11461328E+00 0.66596473E+03</pdfrwt>
<totfact> 0.11426416E+01</totfact>
</mgrwt>
</event>
<event>
 4    1  0.3565372E-007  0.7024523E+03  0.7818608E-02  0.9987176E-01
         -2   -1    0    0    0  501 -0.00000000000E+00  0.00000000000E+00  0.41760534852E+03  0.41760534853E+03  0.25500000000E-02 0.  1.
          2   -1    0    0  501    0  0.00000000000E+00 -0.00000000000E+00 -0.90369470242E+03  0.90369470243E+03  0.25500000000E-02 0. -1.
    8880023    1    1    2    0    0 -0.24378472760E+03  0.14073848798E+02 -0.67705864087E+03  0.97562681189E+03  0.65864270000E+03 0. -1.
    8880022    1    1    2    0    0  0.24378472760E+03 -0.14073848798E+02  0.19096928697E+03  0.34567323907E+03  0.15294330000E+03 0.  0.
<mgrwt>
<rscale>  0 0.56216131E+03</rscale>
<asrwt>0</asrwt>
<pdfrwt beam="1">  1        2 0.13902995E+00 0.70245233E+03</pdfrwt>
<pdfrwt beam="2">  1       -2 0.64246977E-01 0.70245233E+03</pdfrwt>
<totfact> 0.66430055E+01</totfact>
</mgrwt>
</event>
<event>
 4    1  0.3565372E-007  0.6900056E+03  0.7818608E-02  0.1004150E+00
          2   -1    0    0  501    0  0.00000000000E+00  0.00000000000E+00  0.14076039584E+04  0.14076039584E+04  0.25500000000E-02 0. -1.
         -2   -1    0    0    0  501 -0.00000000000E+00 -0.00000000000E+00 -0.42553461955E+03  0.42553461955E+03  0.25500000000E-02 0.  1.
    8880023    1    1    2    0    0  0.14748338614E+03 -0.14333950399E+03  0.12714266740E+04  0.14465937772E+04  0.65864270000E+03 0. -1.
    8880022    1    1    2    0    0 -0.14748338614E+03  0.14333950399E+03 -0.28935733514E+03  0.38654480077E+03  0.15294330000E+03 0.  0.
<mgrwt>
<rscale>  0 0.53867427E+03</rscale>
<asrwt>0</asrwt>
<pdfrwt beam="1">  1        2 0.21655446E+00 0.69000563E+03</pdfrwt>
<pdfrwt beam="2">  1       -2 0.65466864E-01 0.69000563E+03</pdfrwt>
<totfact> 0.31683507E+01</totfact>
</mgrwt>
</event>
<event>
 4    1  0.3565372E-007  0.6755097E+03  0.7818608E-02  0.1011987E+00
         -2   -1    0    0    0  501 -0.00000000000E+00  0.00000000000E+00  0.25930856555E+03  0.25930856557E+03  0.25500000000E-02 0.  1.
          2   -1    0    0  501    0  0.00000000000E+00 -0.00000000000E+00 -0.98938995923E+03  0.98938995924E+03  0.25500000000E-02 0. -1.
    8880023    1    1    2    0    0  0.19002885085E+02  0.14880188502E+03 -0.77680032319E+03  0.10294328822E+04  0.65864270000E+03 0. -1.
    8880022    1    1    2    0    0 -0.19002885085E+02 -0.14880188502E+03  0.46718929512E+02  0.21926564258E+03  0.15294330000E+03 0.  0.
<mgrwt>
<rscale>  0 0.50692542E+03</rscale>
<asrwt>0</asrwt>
<pdfrwt beam="1">  1        2 0.15221384E+00 0.67550967E+03</pdfrwt>
<pdfrwt beam="2">  1       -2 0.39893626E-01 0.67550967E+03</pdfrwt>
<totfact> 0.15465065E+02</totfact>
</mgrwt>
</event>
<event>
 4    1  0.3565372E-007  0.7833682E+03  0.7818608E-02  0.9747984E-01
          2   -1    0    0  501    0  0.00000000000E+00  0.00000000000E+00  0.22359407995E+04  0.22359407995E+04  0.25500000000E-02 0. -1.
         -2   -1    0    0    0  501 -0.00000000000E+00 -0.00000000000E+00 -0.60046128586E+03  0.60046128587E+03  0.25500000000E-02 0.  1.
    8880023    1    1    2    0    0 -0.42386146981E+03  0.14037129573E+02  0.20681506595E+04  0.22115408527E+04  0.65864270000E+03 0.  0.
    8880022    1    1    2    0    0  0.42386146981E+03 -0.14037129573E+02 -0.43267114586E+03  0.62486123265E+03  0.15294330000E+03 0.  0.
<mgrwt>
<rscale>  0 0.68230342E+03</rscale>
<asrwt>0</asrwt>
<pdfrwt beam="1">  1        2 0.34399090E+00 0.78336824E+03</pdfrwt>
<pdfrwt beam="2">  1       -2 0.92378658E-01 0.78336824E+03</pdfrwt>
<totfact> 0.50814515E+00</totfact>
</mgrwt>
</event>
<event>
 4    1  0.3565372E-007  0.7560656E+03  0.7818608E-02  0.9815402E-01
         -2   -1    0    0    0  501 -0.00000000000E+00  0.00000000000E+00  0.78015902319E+03  0.78015902320E+03  0.25500000000E-02 0.  1.
          2   -1    0    0  501    0  0.00000000000E+00 -0.00000000000E+00 -0.17852171253E+04  0.17852171253E+04  0.25500000000E-02 0. -1.
    8880023    1    1    2    0    0  0.19788884491E+03  0.31410983839E+03 -0.16446983085E+04  0.18101568213E+04  0.65864270000E+03 0. -1.
    8880022    1    1    2    0    0 -0.19788884491E+03 -0.31410983839E+03  0.63964020639E+03  0.75521932719E+03  0.15294330000E+03 0.  0.
<mgrwt>
<rscale>  0 0.64542509E+03</rscale>
<asrwt>0</asrwt>
<pdfrwt beam="1">  1        2 0.27464879E+00 0.75606560E+03</pdfrwt>
<pdfrwt beam="2">  1       -2 0.12002447E+00 0.75606560E+03</pdfrwt>
<totfact> 0.48078962E+00</totfact>
</mgrwt>
</event>
<event>
 4    1  0.3565372E-007  0.7808289E+03  0.7818608E-02  0.9753893E-01
         -2   -1    0    0    0  501 -0.00000000000E+00  0.00000000000E+00  0.31448619738E+03  0.31448619739E+03  0.25500000000E-02 0.  1.
          2   -1    0    0  501    0  0.00000000000E+00 -0.00000000000E+00 -0.14549203640E+04  0.14549203640E+04  0.25500000000E-02 0. -1.
    8880023    1    1    2    0    0 -0.24114698811E+03 -0.34312063667E+03 -0.10588333657E+04  0.13156070628E+04  0.65864270000E+03 0. -1.
    8880022    1    1    2    0    0  0.24114698811E+03  0.34312063667E+03 -0.81600800951E+02  0.45379949858E+03  0.15294330000E+03 0.  0.
<mgrwt>
<rscale>  0 0.67896691E+03</rscale>
<asrwt>0</asrwt>
<pdfrwt beam="1">  1        2 0.22383390E+00 0.78082895E+03</pdfrwt>
<pdfrwt beam="2">  1       -2 0.48382493E-01 0.78082895E+03</pdfrwt>
<totfact> 0.55433224E+01</totfact>
</mgrwt>
</event>
<event>
 4    1  0.3565372E-007  0.7426699E+03  0.7818608E-02  0.9852237E-01
         -2   -1    0    0    0  501 -0.00000000000E+00  0.00000000000E+00  0.49348789608E+03  0.49348789608E+03  0.25500000000E-02 0.  1.
          2   -1    0    0  501    0  0.00000000000E+00 -0.00000000000E+00 -0.78413206090E+03  0.78413206091E+03  0.25500000000E-02 0. -1.
    8880023    1    1    2    0    0 -0.17458031620E+03 -0.29541498592E+03 -0.45128321305E+03  0.86903109574E+03  0.65864270000E+03 0.  0.
    8880022    1    1    2    0    0  0.17458031620E+03  0.29541498592E+03  0.16063904823E+03  0.40858886126E+03  0.15294330000E+03 0.  0.
<mgrwt>
<rscale>  0 0.62632982E+03</rscale>
<asrwt>0</asrwt>
<pdfrwt beam="1">  1        2 0.12063570E+00 0.74266985E+03</pdfrwt>
<pdfrwt beam="2">  1       -2 0.75921215E-01 0.74266985E+03</pdfrwt>
<totfact> 0.55742871E+01</totfact>
</mgrwt>
</event>
<event>
 4    1  0.3565372E-007  0.9373538E+03  0.7818608E-02  0.9468548E-01
          2   -1    0    0  501    0  0.00000000000E+00  0.00000000000E+00  0.23038303663E+04  0.23038303663E+04  0.25500000000E-02 0. -1.
         -2   -1    0    0    0  501 -0.00000000000E+00 -0.00000000000E+00 -0.35243890942E+03  0.35243890943E+03  0.25500000000E-02 0.  1.
    8880023    1    1    2    0    0  0.36984820997E+03 -0.55500830926E+03  0.16726910001E+04  0.19174272633E+04  0.65864270000E+03 0. -1.
    8880022    1    1    2    0    0 -0.36984820997E+03  0.55500830926E+03  0.27870045676E+03  0.73884201247E+03  0.15294330000E+03 0.  0.
<mgrwt>
<rscale>  0 0.86642935E+03</rscale>
<asrwt>0</asrwt>
<pdfrwt beam="1">  1        2 0.35443544E+00 0.93735379E+03</pdfrwt>
<pdfrwt beam="2">  1       -2 0.54221371E-01 0.93735379E+03</pdfrwt>
<totfact> 0.14676397E+01</totfact>
</mgrwt>
</event>
<event>
 4    1  0.4449323E-007  0.7617307E+03  0.7818608E-02  0.9800647E-01
          2   -1    0    0  501    0  0.00000000000E+00  0.00000000000E+00  0.28335907968E+04  0.28335907968E+04  0.25500000000E-02 0. -1.
         -2   -1    0    0    0  501 -0.00000000000E+00 -0.00000000000E+00 -0.76106783085E+03  0.76106783086E+03  0.25500000000E-02 0.  1.
    8880023    1    1    2    0    0 -0.19796500482E+02  0.38214079423E+03  0.27213950189E+04  0.28259908958E+04  0.65864270000E+03 0.  0.
    8880022    1    1    2    0    0  0.19796500482E+02 -0.38214079423E+03 -0.64887205289E+03  0.76866773191E+03  0.15294330000E+03 0.  1.
<mgrwt>
<rscale>  0 0.65327818E+03</rscale>
<asrwt>0</asrwt>
<pdfrwt beam="1">  1        2 0.43593704E+00 0.76173072E+03</pdfrwt>
<pdfrwt beam="2">  1       -2 0.11708736E+00 0.76173072E+03</pdfrwt>
<totfact> 0.13188506E+00</totfact>
</mgrwt>
</event>
<event>
 4    1  0.3565372E-007  0.7719410E+03  0.7818608E-02  0.9775120E-01
         -2   -1    0    0    0  501 -0.00000000000E+00  0.00000000000E+00  0.10655775003E+04  0.10655775003E+04  0.25500000000E-02 0.  1.
          2   -1    0    0  501    0  0.00000000000E+00 -0.00000000000E+00 -0.11044684422E+04  0.11044684423E+04  0.25500000000E-02 0. -1.
    8880023    1    1    2    0    0 -0.38667925297E+03 -0.11207937076E+03 -0.91300060199E+03  0.11956014953E+04  0.65864270000E+03 0. -1.
    8880022    1    1    2    0    0  0.38667925297E+03  0.11207937076E+03  0.87410966007E+03  0.97444444730E+03  0.15294330000E+03 0.  0.
<mgrwt>
<rscale>  0 0.66715005E+03</rscale>
<asrwt>0</asrwt>
<pdfrwt beam="1">  1        2 0.16991822E+00 0.77194095E+03</pdfrwt>
<pdfrwt beam="2">  1       -2 0.16393500E+00 0.77194095E+03</pdfrwt>
<totfact> 0.51939136E+00</totfact>
</mgrwt>
</event>
<event>
 4    1  0.3565372E-007  0.7892341E+03  0.7818608E-02  0.9734577E-01
          2   -1    0    0  501    0  0.00000000000E+00  0.00000000000E+00  0.69256160127E+03  0.69256160128E+03  0.25500000000E-02 0. -1.
         -2   -1    0    0    0  501 -0.00000000000E+00 -0.00000000000E+00 -0.59941182591E+03  0.59941182592E+03  0.25500000000E-02 0.  1.
    8880023    1    1    2    0    0 -0.39567095139E+03 -0.18034606585E+03 -0.93332558190E+02  0.79473352636E+03  0.65864270000E+03 0.  1.
    8880022    1    1    2    0    0  0.39567095139E+03  0.18034606585E+03  0.18648233355E+03  0.49723990084E+03  0.15294330000E+03 0. -1.
<mgrwt>
<rscale>  0 0.68994909E+03</rscale>
<asrwt>0</asrwt>
<pdfrwt beam="1">  1        2 0.10654794E+00 0.78923407E+03</pdfrwt>
<pdfrwt beam="2">  1       -2 0.92217204E-01 0.78923407E+03</pdfrwt>
<totfact> 0.41900383E+01</totfact>
</mgrwt>
</event>
<event>
 4    1  0.3565372E-007  0.1227666E+04  0.7818608E-02  0.9130687E-01
         -2   -1    0    0    0  501 -0.00000000000E+00  0.00000000000E+00  0.70869151210E+03  0.70869151210E+03  0.25500000000E-02 0.  1.
          2   -1    0    0  501    0  0.00000000000E+00 -0.00000000000E+00 -0.22390886186E+04  0.22390886186E+04  0.25500000000E-02 0. -1.
    8880023    1    1    2    0    0 -0.66735526973E+03 -0.79245810068E+03 -0.14463940866E+04  0.18971607621E+04  0.65864270000E+03 0.  0.
    8880022    1    1    2    0    0  0.66735526973E+03  0.79245810068E+03 -0.84003019974E+02  0.10506193686E+04  0.15294330000E+03 0.  0.
<mgrwt>
<rscale>  0 0.11798404E+04</rscale>
<asrwt>0</asrwt>
<pdfrwt beam="1">  1        2 0.34447517E+00 0.12276657E+04</pdfrwt>
<pdfrwt beam="2">  1       -2 0.10902946E+00 0.12276657E+04</pdfrwt>
<totfact> 0.32174631E+00</totfact>
</mgrwt>
</event>
<event>
 4    1  0.3565372E-007  0.7244272E+03  0.7818608E-02  0.9907881E-01
         -2   -1    0    0    0  501 -0.00000000000E+00  0.00000000000E+00  0.57609137787E+03  0.57609137788E+03  0.25500000000E-02 0.  1.
          2   -1    0    0  501    0  0.00000000000E+00 -0.00000000000E+00 -0.73938979753E+03  0.73938979753E+03  0.25500000000E-02 0. -1.
    8880023    1    1    2    0    0 -0.28026589292E+03  0.11151468759E+03 -0.46619741347E+03  0.86147242026E+03  0.65864270000E+03 0.  0.
    8880022    1    1    2    0    0  0.28026589292E+03 -0.11151468759E+03  0.30289899382E+03  0.45400875515E+03  0.15294330000E+03 0.  0.
<mgrwt>
<rscale>  0 0.59880853E+03</rscale>
<asrwt>0</asrwt>
<pdfrwt beam="1">  1        2 0.11375228E+00 0.72442715E+03</pdfrwt>
<pdfrwt beam="2">  1       -2 0.88629443E-01 0.72442715E+03</pdfrwt>
<totfact> 0.42470004E+01</totfact>
</mgrwt>
</event>
<event>
 4    1  0.3565372E-007  0.7182277E+03  0.7818608E-02  0.9928629E-01
         -2   -1    0    0    0  501 -0.00000000000E+00  0.00000000000E+00  0.11144208160E+04  0.11144208160E+04  0.25500000000E-02 0.  1.
          2   -1    0    0  501    0  0.00000000000E+00 -0.00000000000E+00 -0.11526967759E+04  0.11526967759E+04  0.25500000000E-02 0. -1.
    8880023    1    1    2    0    0  0.17870581529E+03  0.22384158809E+03 -0.10118391086E+04  0.12408341601E+04  0.65864270000E+03 0.  0.
    8880022    1    1    2    0    0 -0.17870581529E+03 -0.22384158809E+03  0.97356314868E+03  0.10262834318E+04  0.15294330000E+03 0.  0.
<mgrwt>
<rscale>  0 0.58893642E+03</rscale>
<asrwt>0</asrwt>
<pdfrwt beam="1">  1        2 0.17733797E+00 0.71822770E+03</pdfrwt>
<pdfrwt beam="2">  1       -2 0.17144936E+00 0.71822770E+03</pdfrwt>
<totfact> 0.43248397E+00</totfact>
</mgrwt>
</event>
<event>
 4    1  0.3565372E-007  0.7611702E+03  0.7818608E-02  0.9802087E-01
          2   -1    0    0  501    0  0.00000000000E+00  0.00000000000E+00  0.85146761952E+03  0.85146761952E+03  0.25500000000E-02 0. -1.
         -2   -1    0    0    0  501 -0.00000000000E+00 -0.00000000000E+00 -0.42712673935E+03  0.42712673935E+03  0.25500000000E-02 0.  1.
    8880023    1    1    2    0    0  0.34988618728E+03  0.15214971995E+03  0.41606463712E+03  0.86746173971E+03  0.65864270000E+03 0.  0.
    8880022    1    1    2    0    0 -0.34988618728E+03 -0.15214971995E+03  0.82762430541E+01  0.41113261917E+03  0.15294330000E+03 0. -1.
<mgrwt>
<rscale>  0 0.65250646E+03</rscale>
<asrwt>0</asrwt>
<pdfrwt beam="1">  1        2 0.13099502E+00 0.76117021E+03</pdfrwt>
<pdfrwt beam="2">  1       -2 0.65711806E-01 0.76117021E+03</pdfrwt>
<totfact> 0.68382882E+01</totfact>
</mgrwt>
</event>
<event>
 4    1  0.5530527E-007  0.1299617E+04  0.7818608E-02  0.9065891E-01
         -2   -1    0    0    0  501 -0.00000000000E+00  0.00000000000E+00  0.14238318084E+04  0.14238318084E+04  0.25500000000E-02 0.  1.
          2   -1    0    0  501    0  0.00000000000E+00 -0.00000000000E+00 -0.28150279640E+04  0.28150279640E+04  0.25500000000E-02 0. -1.
    8880023    1    1    2    0    0  0.57202157031E+03 -0.96331936604E+03 -0.23962627611E+04  0.27260004226E+04  0.65864270000E+03 0.  0.
    8880022    1    1    2    0    0 -0.57202157031E+03  0.96331936604E+03  0.10050666055E+04  0.15128593498E+04  0.15294330000E+03 0.  0.
<mgrwt>
<rscale>  0 0.12551701E+04</rscale>
<asrwt>0</asrwt>
<pdfrwt beam="1">  1        2 0.43308122E+00 0.12996165E+04</pdfrwt>
<pdfrwt beam="2">  1       -2 0.21905105E+00 0.12996165E+04</pdfrwt>
<totfact> 0.21912296E-01</totfact>
</mgrwt>
</event>
<event>
 4    1  0.3565372E-007  0.7336323E+03  0.7818608E-02  0.9878900E-01
          2   -1    0    0  501    0  0.00000000000E+00  0.00000000000E+00  0.16291080317E+04  0.16291080317E+04  0.25500000000E-02 0. -1.
         -2   -1    0    0    0  501 -0.00000000000E+00 -0.00000000000E+00 -0.24652440558E+03  0.24652440559E+03  0.25500000000E-02 0.  1.
    8880023    1    1    2    0    0  0.23976655540E+03 -0.21660584199E+03  0.13235893104E+04  0.15133092747E+04  0.65864270000E+03 0.  0.
    8880022    1    1    2    0    0 -0.23976655540E+03  0.21660584199E+03  0.58994315688E+02  0.36232316262E+03  0.15294330000E+03 0.  0.
<mgrwt>
<rscale>  0 0.61294882E+03</rscale>
<asrwt>0</asrwt>
<pdfrwt beam="1">  1        2 0.25063202E+00 0.73363226E+03</pdfrwt>
<pdfrwt beam="2">  1       -2 0.37926829E-01 0.73363226E+03</pdfrwt>
<totfact> 0.72136025E+01</totfact>
</mgrwt>
</event>
<event>
 4    1  0.3565372E-007  0.8099830E+03  0.7818608E-02  0.9689612E-01
          2   -1    0    0  501    0  0.00000000000E+00  0.00000000000E+00  0.19091334489E+04  0.19091334489E+04  0.25500000000E-02 0. -1.
         -2   -1    0    0    0  501 -0.00000000000E+00 -0.00000000000E+00 -0.29279244025E+03  0.29279244026E+03  0.25500000000E-02 0.  1.
    8880023    1    1    2    0    0 -0.40868221279E+03 -0.23503438011E+03  0.14811923779E+04  0.16881953019E+04  0.65864270000E+03 0. -1.
    8880022    1    1    2    0    0  0.40868221279E+03  0.23503438011E+03  0.13514863081E+03  0.51373058728E+03  0.15294330000E+03 0.  0.
<mgrwt>
<rscale>  0 0.71638653E+03</rscale>
<asrwt>0</asrwt>
<pdfrwt beam="1">  1        2 0.29371284E+00 0.80998304E+03</pdfrwt>
<pdfrwt beam="2">  1       -2 0.45044991E-01 0.80998304E+03</pdfrwt>
<totfact> 0.35871711E+01</totfact>
</mgrwt>
</event>
<event>
 4    1  0.3565372E-007  0.7073512E+03  0.7818608E-02  0.9967971E-01
         -2   -1    0    0    0  501 -0.00000000000E+00  0.00000000000E+00  0.59357307133E+03  0.59357307133E+03  0.25500000000E-02 0.  1.
          2   -1    0    0  501    0  0.00000000000E+00 -0.00000000000E+00 -0.97177880103E+03  0.97177880104E+03  0.25500000000E-02 0. -1.
    8880023    1    1    2    0    0  0.25291687775E+03  0.50681706802E+02 -0.78712579055E+03  0.10582593250E+04  0.65864270000E+03 0. -1.
    8880022    1    1    2    0    0 -0.25291687775E+03 -0.50681706802E+02  0.40892006085E+03  0.50709254741E+03  0.15294330000E+03 0.  0.
<mgrwt>
<rscale>  0 0.57077212E+03</rscale>
<asrwt>0</asrwt>
<pdfrwt beam="1">  1        2 0.14950443E+00 0.70735125E+03</pdfrwt>
<pdfrwt beam="2">  1       -2 0.91318934E-01 0.70735125E+03</pdfrwt>
<totfact> 0.27389261E+01</totfact>
</mgrwt>
</event>
<event>
 4    1  0.3565372E-007  0.6671875E+03  0.7818608E-02  0.1017765E+00
         -2   -1    0    0    0  501 -0.00000000000E+00  0.00000000000E+00  0.25739161284E+03  0.25739161286E+03  0.25500000000E-02 0.  1.
          2   -1    0    0  501    0  0.00000000000E+00 -0.00000000000E+00 -0.26707786782E+04  0.26707786782E+04  0.25500000000E-02 0. -1.
    8880023    1    1    2    0    0  0.44423839041E+01  0.10634500127E+03 -0.25881149196E+04  0.26727285753E+04  0.65864270000E+03 0.  0.
    8880022    1    1    2    0    0 -0.44423839041E+01 -0.10634500127E+03  0.17472785424E+03  0.25544171572E+03  0.15294330000E+03 0.  1.
<mgrwt>
<rscale>  0 0.48501974E+03</rscale>
<asrwt>0</asrwt>
<pdfrwt beam="1">  1        2 0.41088901E+00 0.66718753E+03</pdfrwt>
<pdfrwt beam="2">  1       -2 0.39598712E-01 0.66718753E+03</pdfrwt>
<totfact> 0.17768807E+01</totfact>
</mgrwt>
</event>
<event>
 4    1  0.3565372E-007  0.6588618E+03  0.7818608E-02  0.1025354E+00
         -2   -1    0    0    0  501 -0.00000000000E+00  0.00000000000E+00  0.10571339007E+04  0.10571339007E+04  0.25500000000E-02 0.  1.
          2   -1    0    0  501    0  0.00000000000E+00 -0.00000000000E+00 -0.40670343775E+03  0.40670343776E+03  0.25500000000E-02 0. -1.
    8880023    1    1    2    0    0  0.16463115873E+02 -0.41953205486E+01 -0.12728464347E+03  0.67104412793E+03  0.65864270000E+03 0. -1.
    8880022    1    1    2    0    0 -0.16463115873E+02  0.41953205486E+01  0.77771510639E+03  0.79279321050E+03  0.15294330000E+03 0.  0.
<mgrwt>
<rscale>  0 0.45803019E+03</rscale>
<asrwt>0</asrwt>
<pdfrwt beam="1">  1        2 0.62569759E-01 0.65886178E+03</pdfrwt>
<pdfrwt beam="2">  1       -2 0.16263599E+00 0.65886178E+03</pdfrwt>
<totfact> 0.19219442E+01</totfact>
</mgrwt>
</event>
<event>
 4    1  0.3565372E-007  0.1144753E+04  0.7818608E-02  0.9212792E-01
          2   -1    0    0  501    0  0.00000000000E+00  0.00000000000E+00  0.26482621196E+04  0.26482621196E+04  0.25500000000E-02 0. -1.
         -2   -1    0    0    0  501 -0.00000000000E+00 -0.00000000000E+00 -0.66068483302E+03  0.66068483302E+03  0.25500000000E-02 0.  1.
    8880023    1    1    2    0    0 -0.66719955768E+03  0.65688176816E+03  0.20608171281E+04  0.23574194257E+04  0.65864270000E+03 0.  0.
    8880022    1    1    2    0    0  0.66719955768E+03 -0.65688176816E+03 -0.73239841481E+02  0.95152752693E+03  0.15294330000E+03 0.  0.
<mgrwt>
<rscale>  0 0.10922362E+04</rscale>
<asrwt>0</asrwt>
<pdfrwt beam="1">  1        2 0.40742494E+00 0.11447529E+04</pdfrwt>
<pdfrwt beam="2">  1       -2 0.10164382E+00 0.11447529E+04</pdfrwt>
<totfact> 0.22459691E+00</totfact>
</mgrwt>
</event>
<event>
 4    1  0.3565372E-007  0.7065851E+03  0.7818608E-02  0.9970907E-01
          2   -1    0    0  501    0  0.00000000000E+00  0.00000000000E+00  0.12657191713E+04  0.12657191713E+04  0.25500000000E-02 0. -1.
         -2   -1    0    0    0  501 -0.00000000000E+00 -0.00000000000E+00 -0.31772318588E+03  0.31772318589E+03  0.25500000000E-02 0.  1.
    8880023    1    1    2    0    0 -0.91224873096E+00 -0.25583493186E+03  0.10524171288E+04  0.12676136493E+04  0.65864270000E+03 0.  0.
    8880022    1    1    2    0    0  0.91224873096E+00  0.25583493186E+03 -0.10442114337E+03  0.31582870793E+03  0.15294330000E+03 0.  0.
<mgrwt>
<rscale>  0 0.56944513E+03</rscale>
<asrwt>0</asrwt>
<pdfrwt beam="1">  1        2 0.19472603E+00 0.70658513E+03</pdfrwt>
<pdfrwt beam="2">  1       -2 0.48880490E-01 0.70658513E+03</pdfrwt>
<totfact> 0.70091347E+01</totfact>
</mgrwt>
</event>
<event>
 4    1  0.3565372E-007  0.7970810E+03  0.7818608E-02  0.9717143E-01
          2   -1    0    0  501    0  0.00000000000E+00  0.00000000000E+00  0.78949480683E+03  0.78949480683E+03  0.25500000000E-02 0. -1.
         -2   -1    0    0    0  501 -0.00000000000E+00 -0.00000000000E+00 -0.77763460862E+03  0.77763460862E+03  0.25500000000E-02 0.  1.
    8880023    1    1    2    0    0  0.42558612724E+03  0.14284393151E+03  0.45521677880E+03  0.91791092293E+03  0.65864270000E+03 0. -1.
    8880022    1    1    2    0    0 -0.42558612724E+03 -0.14284393151E+03 -0.44335658059E+03  0.64921849252E+03  0.15294330000E+03 0.  0.
<mgrwt>
<rscale>  0 0.70005194E+03</rscale>
<asrwt>0</asrwt>
<pdfrwt beam="1">  1        2 0.12146074E+00 0.79708102E+03</pdfrwt>
<pdfrwt beam="2">  1       -2 0.11963609E+00 0.79708102E+03</pdfrwt>
<totfact> 0.18944542E+01</totfact>
</mgrwt>
</event>
<event>
 4    1  0.3565372E-007  0.8998995E+03  0.7818608E-02  0.9526193E-01
         -2   -1    0    0    0  501 -0.00000000000E+00  0.00000000000E+00  0.63252816157E+03  0.63252816158E+03  0.25500000000E-02 0.  1.
          2   -1    0    0  501    0  0.00000000000E+00 -0.00000000000E+00 -0.13024456154E+04  0.13024456154E+04  0.25500000000E-02 0. -1.
    8880023    1    1    2    0    0 -0.36778870819E+03  0.49065300789E+03 -0.89009512389E+03  0.12657363248E+04  0.65864270000E+03 0.  0.
    8880022    1    1    2    0    0  0.36778870819E+03 -0.49065300789E+03  0.22017767006E+03  0.66923745220E+03  0.15294330000E+03 0.  0.
<mgrwt>
<rscale>  0 0.82379963E+03</rscale>
<asrwt>0</asrwt>
<pdfrwt beam="1">  1        2 0.20037625E+00 0.89989950E+03</pdfrwt>
<pdfrwt beam="2">  1       -2 0.97312026E-01 0.89989950E+03</pdfrwt>
<totfact> 0.14575230E+01</totfact>
</mgrwt>
</event>
<event>
 4    1  0.3565372E-007  0.6607301E+03  0.7818608E-02  0.1023421E+00
          2   -1    0    0  501    0  0.00000000000E+00  0.00000000000E+00  0.12846599992E+04  0.12846599992E+04  0.25500000000E-02 0. -1.
         -2   -1    0    0    0  501 -0.00000000000E+00 -0.00000000000E+00 -0.22766065330E+03  0.22766065331E+03  0.25500000000E-02 0.  1.
    8880023    1    1    2    0    0  0.52374469490E+02  0.33084364994E+01  0.11496261920E+04  0.13259730836E+04  0.65864270000E+03 0. -1.
    8880022    1    1    2    0    0 -0.52374469490E+02 -0.33084364994E+01 -0.92626846108E+02  0.18634756892E+03  0.15294330000E+03 0.  0.
<mgrwt>
<rscale>  0 0.46472181E+03</rscale>
<asrwt>0</asrwt>
<pdfrwt beam="1">  1        2 0.19764001E+00 0.66073008E+03</pdfrwt>
<pdfrwt beam="2">  1       -2 0.35024715E-01 0.66073008E+03</pdfrwt>
<totfact> 0.13194005E+02</totfact>
</mgrwt>
</event>
<event>
 4    1  0.3565372E-007  0.9664021E+03  0.7818608E-02  0.9426898E-01
         -2   -1    0    0    0  501 -0.00000000000E+00  0.00000000000E+00  0.63733009990E+03  0.63733009990E+03  0.25500000000E-02 0.  1.
          2   -1    0    0  501    0  0.00000000000E+00 -0.00000000000E+00 -0.14973709648E+04  0.14973709648E+04  0.25500000000E-02 0. -1.
    8880023    1    1    2    0    0  0.63269047738E+03  0.31595191333E+03 -0.10077415950E+04  0.13962364342E+04  0.65864270000E+03 0.  0.
    8880022    1    1    2    0    0 -0.63269047738E+03 -0.31595191333E+03  0.14770073015E+03  0.73846463043E+03  0.15294330000E+03 0.  0.
<mgrwt>
<rscale>  0 0.89894784E+03</rscale>
<asrwt>0</asrwt>
<pdfrwt beam="1">  1        2 0.23036476E+00 0.96640212E+03</pdfrwt>
<pdfrwt beam="2">  1       -2 0.98050785E-01 0.96640212E+03</pdfrwt>
<totfact> 0.11011091E+01</totfact>
</mgrwt>
</event>
<event>
 4    1  0.3565372E-007  0.7869502E+03  0.7818608E-02  0.9739757E-01
          2   -1    0    0  501    0  0.00000000000E+00  0.00000000000E+00  0.10030213903E+04  0.10030213903E+04  0.25500000000E-02 0. -1.
         -2   -1    0    0    0  501 -0.00000000000E+00 -0.00000000000E+00 -0.72901152747E+03  0.72901152748E+03  0.25500000000E-02 0.  1.
    8880023    1    1    2    0    0  0.42480845109E+03 -0.70838952492E+02  0.73935980519E+03  0.10797886391E+04  0.65864270000E+03 0. -1.
    8880022    1    1    2    0    0 -0.42480845109E+03  0.70838952492E+02 -0.46534994232E+03  0.65224427874E+03  0.15294330000E+03 0.  0.
<mgrwt>
<rscale>  0 0.68698217E+03</rscale>
<asrwt>0</asrwt>
<pdfrwt beam="1">  1        2 0.15431098E+00 0.78695018E+03</pdfrwt>
<pdfrwt beam="2">  1       -2 0.11215562E+00 0.78695018E+03</pdfrwt>
<totfact> 0.15918159E+01</totfact>
</mgrwt>
</event>
<event>
 4    1  0.3565372E-007  0.7494883E+03  0.7818608E-02  0.9833123E-01
          2   -1    0    0  501    0  0.00000000000E+00  0.00000000000E+00  0.13045685972E+04  0.13045685972E+04  0.25500000000E-02 0. -1.
         -2   -1    0    0    0  501 -0.00000000000E+00 -0.00000000000E+00 -0.55491144909E+03  0.55491144909E+03  0.25500000000E-02 0.  1.
    8880023    1    1    2    0    0  0.32783369229E+03 -0.14299478693E+03  0.11032807246E+04  0.13337769688E+04  0.65864270000E+03 0. -1.
    8880022    1    1    2    0    0 -0.32783369229E+03  0.14299478693E+03 -0.35362357647E+03  0.52570307754E+03  0.15294330000E+03 0.  0.
<mgrwt>
<rscale>  0 0.63614856E+03</rscale>
<asrwt>0</asrwt>
<pdfrwt beam="1">  1        2 0.20070286E+00 0.74948826E+03</pdfrwt>
<pdfrwt beam="2">  1       -2 0.85370991E-01 0.74948826E+03</pdfrwt>
<totfact> 0.20007782E+01</totfact>
</mgrwt>
</event>
<event>
 4    1  0.3565372E-007  0.6779683E+03  0.7818608E-02  0.1010497E+00
         -2   -1    0    0    0  501 -0.00000000000E+00  0.00000000000E+00  0.35685382266E+03  0.35685382266E+03  0.25500000000E-02 0.  1.
          2   -1    0    0  501    0  0.00000000000E+00 -0.00000000000E+00 -0.22915250558E+04  0.22915250558E+04  0.25500000000E-02 0. -1.
    8880023    1    1    2    0    0 -0.25023596205E+02 -0.15875985589E+03 -0.22002437592E+04  0.23023278824E+04  0.65864270000E+03 0. -1.
    8880022    1    1    2    0    0  0.25023596205E+02  0.15875985589E+03  0.26557252607E+03  0.34605099599E+03  0.15294330000E+03 0.  0.
<mgrwt>
<rscale>  0 0.51277583E+03</rscale>
<asrwt>0</asrwt>
<pdfrwt beam="1">  1        2 0.35254231E+00 0.67796835E+03</pdfrwt>
<pdfrwt beam="2">  1       -2 0.54900589E-01 0.67796835E+03</pdfrwt>
<totfact> 0.15077405E+01</totfact>
</mgrwt>
</event>
<event>
 4    1  0.3565372E-007  0.6841777E+03  0.7818608E-02  0.1007053E+00
          2   -1    0    0  501    0  0.00000000000E+00  0.00000000000E+00  0.73979781096E+03  0.73979781096E+03  0.25500000000E-02 0. -1.
         -2   -1    0    0    0  501 -0.00000000000E+00 -0.00000000000E+00 -0.30342158807E+03  0.30342158808E+03  0.25500000000E-02 0.  1.
    8880023    1    1    2    0    0 -0.14360262110E+03 -0.11690671085E+03  0.41930959300E+03  0.80244603113E+03  0.65864270000E+03 0.  1.
    8880022    1    1    2    0    0  0.14360262110E+03  0.11690671085E+03  0.17066629888E+02  0.24077336792E+03  0.15294330000E+03 0.  0.
<mgrwt>
<rscale>  0 0.52662970E+03</rscale>
<asrwt>0</asrwt>
<pdfrwt beam="1">  1        2 0.11381505E+00 0.68417768E+03</pdfrwt>
<pdfrwt beam="2">  1       -2 0.46680245E-01 0.68417768E+03</pdfrwt>
<totfact> 0.16838823E+02</totfact>
</mgrwt>
</event>
<event>
 4    1  0.3565372E-007  0.8846135E+03  0.7818608E-02  0.9551197E-01
         -2   -1    0    0    0  501 -0.00000000000E+00  0.00000000000E+00  0.19676071402E+03  0.19676071404E+03  0.25500000000E-02 0.  1.
          2   -1    0    0  501    0  0.00000000000E+00 -0.00000000000E+00 -0.32581867446E+04  0.32581867446E+04  0.25500000000E-02 0. -1.
    8880023    1    1    2    0    0  0.12554093051E+02  0.59040096272E+03 -0.23865996890E+04  0.25452699628E+04  0.65864270000E+03 0.  0.
    8880022    1    1    2    0    0 -0.12554093051E+02 -0.59040096272E+03 -0.67482634159E+03  0.90967749579E+03  0.15294330000E+03 0.  0.
<mgrwt>
<rscale>  0 0.80612230E+03</rscale>
<asrwt>0</asrwt>
<pdfrwt beam="1">  1        2 0.50125946E+00 0.88461354E+03</pdfrwt>
<pdfrwt beam="2">  1       -2 0.30270882E-01 0.88461354E+03</pdfrwt>
<totfact> 0.12525194E+01</totfact>
</mgrwt>
</event>
<event>
 4    1  0.3565372E-007  0.1456323E+04  0.7818608E-02  0.8941110E-01
          2   -1    0    0  501    0  0.00000000000E+00  0.00000000000E+00  0.13951118020E+04  0.13951118020E+04  0.25500000000E-02 0. -1.
         -2   -1    0    0    0  501 -0.00000000000E+00 -0.00000000000E+00 -0.19793278831E+04  0.19793278831E+04  0.25500000000E-02 0.  1.
    8880023    1    1    2    0    0 -0.12030183837E+04  0.48970726950E+03 -0.12387927196E+04  0.19119320201E+04  0.65864270000E+03 0.  0.
    8880022    1    1    2    0    0  0.12030183837E+04 -0.48970726950E+03  0.65457663861E+03  0.14625076650E+04  0.15294330000E+03 0.  0.
<mgrwt>
<rscale>  0 0.14176935E+04</rscale>
<asrwt>0</asrwt>
<pdfrwt beam="1">  1        2 0.21463258E+00 0.14563230E+04</pdfrwt>
<pdfrwt beam="2">  1       -2 0.30451198E+00 0.14563230E+04</pdfrwt>
<totfact> 0.41113348E-01</totfact>
</mgrwt>
</event>
<event>
 4    1  0.3565372E-007  0.7398873E+03  0.7818608E-02  0.9860276E-01
          2   -1    0    0  501    0  0.00000000000E+00  0.00000000000E+00  0.24355191233E+04  0.24355191233E+04  0.25500000000E-02 0. -1.
         -2   -1    0    0    0  501 -0.00000000000E+00 -0.00000000000E+00 -0.61170960944E+03  0.61170960944E+03  0.25500000000E-02 0.  1.
    8880023    1    1    2    0    0  0.29648415267E+02  0.33577362129E+03  0.23160391717E+04  0.24313516003E+04  0.65864270000E+03 0. -1.
    8880022    1    1    2    0    0 -0.29648415267E+02 -0.33577362129E+03 -0.49222965779E+03  0.61587713247E+03  0.15294330000E+03 0.  0.
<mgrwt>
<rscale>  0 0.62225733E+03</rscale>
<asrwt>0</asrwt>
<pdfrwt beam="1">  1        2 0.37469525E+00 0.73988726E+03</pdfrwt>
<pdfrwt beam="2">  1       -2 0.94109171E-01 0.73988726E+03</pdfrwt>
<totfact> 0.37949366E+00</totfact>
</mgrwt>
</event>
<event>
 4    1  0.3565372E-007  0.7436669E+03  0.7818608E-02  0.9849392E-01
          2   -1    0    0  501    0  0.00000000000E+00  0.00000000000E+00  0.73971347345E+03  0.73971347346E+03  0.25500000000E-02 0. -1.
         -2   -1    0    0    0  501 -0.00000000000E+00 -0.00000000000E+00 -0.50225896508E+03  0.50225896508E+03  0.25500000000E-02 0.  1.
    8880023    1    1    2    0    0  0.89872649392E+02 -0.33339640085E+03  0.38391015979E+03  0.83691544989E+03  0.65864270000E+03 0.  0.
    8880022    1    1    2    0    0 -0.89872649392E+02  0.33339640085E+03 -0.14645565141E+03  0.40505698865E+03  0.15294330000E+03 0.  0.
<mgrwt>
<rscale>  0 0.62777948E+03</rscale>
<asrwt>0</asrwt>
<pdfrwt beam="1">  1        2 0.11380207E+00 0.74366690E+03</pdfrwt>
<pdfrwt beam="2">  1       -2 0.77270610E-01 0.74366690E+03</pdfrwt>
<totfact> 0.57815535E+01</totfact>
</mgrwt>
</event>
<event>
 4    1  0.3565372E-007  0.1037378E+04  0.7818608E-02  0.9334210E-01
         -2   -1    0    0    0  501 -0.00000000000E+00  0.00000000000E+00  0.29770842027E+03  0.29770842028E+03  0.25500000000E-02 0.  1.
          2   -1    0    0  501    0  0.00000000000E+00 -0.00000000000E+00 -0.35082489610E+04  0.35082489610E+04  0.25500000000E-02 0. -1.
    8880023    1    1    2    0    0  0.71270775400E+03 -0.36659413417E+03 -0.25607721155E+04  0.27629165090E+04  0.65864270000E+03 0.  0.
    8880022    1    1    2    0    0 -0.71270775400E+03  0.36659413417E+03 -0.64976842518E+03  0.10430408723E+04  0.15294330000E+03 0.  0.
<mgrwt>
<rscale>  0 0.97693479E+03</rscale>
<asrwt>0</asrwt>
<pdfrwt beam="1">  1        2 0.53973058E+00 0.10373783E+04</pdfrwt>
<pdfrwt beam="2">  1       -2 0.45801298E-01 0.10373783E+04</pdfrwt>
<totfact> 0.37403415E+00</totfact>
</mgrwt>
</event>
<event>
 4    1  0.3565372E-007  0.6796000E+03  0.7818608E-02  0.1009551E+00
          2   -1    0    0  501    0  0.00000000000E+00  0.00000000000E+00  0.15964468870E+04  0.15964468870E+04  0.25500000000E-02 0. -1.
         -2   -1    0    0    0  501 -0.00000000000E+00 -0.00000000000E+00 -0.22561309212E+03  0.22561309213E+03  0.25500000000E-02 0.  1.
    8880023    1    1    2    0    0 -0.12799511483E+03 -0.10799646743E+03  0.14337795243E+04  0.15866883490E+04  0.65864270000E+03 0. -1.
    8880022    1    1    2    0    0  0.12799511483E+03  0.10799646743E+03 -0.62945729398E+02  0.23537163012E+03  0.15294330000E+03 0.  0.
<mgrwt>
<rscale>  0 0.51653549E+03</rscale>
<asrwt>0</asrwt>
<pdfrwt beam="1">  1        2 0.24560722E+00 0.67960002E+03</pdfrwt>
<pdfrwt beam="2">  1       -2 0.34709706E-01 0.67960002E+03</pdfrwt>
<totfact> 0.89590357E+01</totfact>
</mgrwt>
</event>
<event>
 4    1  0.3565372E-007  0.8496203E+03  0.7818608E-02  0.9612300E-01
         -2   -1    0    0    0  501 -0.00000000000E+00  0.00000000000E+00  0.54725886098E+03  0.54725886099E+03  0.25500000000E-02 0.  1.
          2   -1    0    0  501    0  0.00000000000E+00 -0.00000000000E+00 -0.17115923758E+04  0.17115923758E+04  0.25500000000E-02 0. -1.
    8880023    1    1    2    0    0  0.47591955768E+03 -0.24808255225E+03 -0.14123097303E+04  0.16481727333E+04  0.65864270000E+03 0. -1.
    8880022    1    1    2    0    0 -0.47591955768E+03  0.24808255225E+03  0.24797621554E+03  0.61067850347E+03  0.15294330000E+03 0.  0.
<mgrwt>
<rscale>  0 0.76487374E+03</rscale>
<asrwt>0</asrwt>
<pdfrwt beam="1">  1        2 0.26332190E+00 0.84962026E+03</pdfrwt>
<pdfrwt beam="2">  1       -2 0.84193672E-01 0.84962026E+03</pdfrwt>
<totfact> 0.12080984E+01</totfact>
</mgrwt>
</event>
<event>
 4    1  0.3565372E-007  0.9842238E+03  0.7818608E-02  0.9402495E-01
          2   -1    0    0  501    0  0.00000000000E+00  0.00000000000E+00  0.26256759719E+04  0.26256759719E+04  0.25500000000E-02 0. -1.
         -2   -1    0    0    0  501 -0.00000000000E+00 -0.00000000000E+00 -0.42032231496E+03  0.42032231497E+03  0.25500000000E-02 0.  1.
    8880023    1    1    2    0    0 -0.73008215066E+03 -0.43200219673E+02  0.20624767050E+04  0.22852804140E+04  0.65864270000E+03 0.  0.
    8880022    1    1    2    0    0  0.73008215066E+03  0.43200219673E+02  0.14287695194E+03  0.76071787287E+03  0.15294330000E+03 0.  0.
<mgrwt>
<rscale>  0 0.91870628E+03</rscale>
<asrwt>0</asrwt>
<pdfrwt beam="1">  1        2 0.40395015E+00 0.98422376E+03</pdfrwt>
<pdfrwt beam="2">  1       -2 0.64664971E-01 0.98422376E+03</pdfrwt>
<totfact> 0.65926869E+00</totfact>
</mgrwt>
</event>
<event>
 4    1  0.3565372E-007  0.6772256E+03  0.7818608E-02  0.1010939E+00
         -2   -1    0    0    0  501 -0.00000000000E+00  0.00000000000E+00  0.21809516545E+03  0.21809516547E+03  0.25500000000E-02 0.  1.
          2   -1    0    0  501    0  0.00000000000E+00 -0.00000000000E+00 -0.94170145628E+03  0.94170145629E+03  0.25500000000E-02 0. -1.
    8880023    1    1    2    0    0 -0.12232439220E+03  0.99302925456E+02 -0.61510603647E+03  0.91487155945E+03  0.65864270000E+03 0.  0.
    8880022    1    1    2    0    0  0.12232439220E+03 -0.99302925456E+02 -0.10850025436E+03  0.24492506230E+03  0.15294330000E+03 0.  0.
<mgrwt>
<rscale>  0 0.51103296E+03</rscale>
<asrwt>0</asrwt>
<pdfrwt beam="1">  1        2 0.14487714E+00 0.67722562E+03</pdfrwt>
<pdfrwt beam="2">  1       -2 0.33553103E-01 0.67722562E+03</pdfrwt>
<totfact> 0.23131273E+02</totfact>
</mgrwt>
</event>
<event>
 4    1  0.3565372E-007  0.7572853E+03  0.7818608E-02  0.9812187E-01
          2   -1    0    0  501    0  0.00000000000E+00  0.00000000000E+00  0.36151619358E+04  0.36151619358E+04  0.25500000000E-02 0. -1.
         -2   -1    0    0    0  501 -0.00000000000E+00 -0.00000000000E+00 -0.22402413898E+03  0.22402413900E+03  0.25500000000E-02 0.  1.
    8880023    1    1    2    0    0 -0.16731609523E+03 -0.33417978609E+03  0.33485765640E+04  0.34331393820E+04  0.65864270000E+03 0. -1.
    8880022    1    1    2    0    0  0.16731609523E+03  0.33417978609E+03  0.42561232805E+02  0.40604669276E+03  0.15294330000E+03 0.  0.
<mgrwt>
<rscale>  0 0.64712606E+03</rscale>
<asrwt>0</asrwt>
<pdfrwt beam="1">  1        2 0.55617870E+00 0.75728529E+03</pdfrwt>
<pdfrwt beam="2">  1       -2 0.34465256E-01 0.75728529E+03</pdfrwt>
<totfact> 0.57666844E+00</totfact>
</mgrwt>
</event>
<event>
 4    1  0.3565372E-007  0.6855999E+03  0.7818608E-02  0.1006318E+00
         -2   -1    0    0    0  501 -0.00000000000E+00  0.00000000000E+00  0.35886832359E+03  0.35886832360E+03  0.25500000000E-02 0.  1.
          2   -1    0    0  501    0  0.00000000000E+00 -0.00000000000E+00 -0.97702111748E+03  0.97702111748E+03  0.25500000000E-02 0. -1.
    8880023    1    1    2    0    0  0.10471160113E+02 -0.19007192223E+03 -0.78340174951E+03  0.10410405795E+04  0.65864270000E+03 0. -1.
    8880022    1    1    2    0    0 -0.10471160113E+02  0.19007192223E+03  0.16524895562E+03  0.29484886156E+03  0.15294330000E+03 0.  0.
<mgrwt>
<rscale>  0 0.52964503E+03</rscale>
<asrwt>0</asrwt>
<pdfrwt beam="1">  1        2 0.15031094E+00 0.68559987E+03</pdfrwt>
<pdfrwt beam="2">  1       -2 0.55210512E-01 0.68559987E+03</pdfrwt>
<totfact> 0.81948978E+01</totfact>
</mgrwt>
</event>
<event>
 4    1  0.3565372E-007  0.6897784E+03  0.7818608E-02  0.1004258E+00
         -2   -1    0    0    0  501 -0.00000000000E+00  0.00000000000E+00  0.27767689726E+03  0.27767689728E+03  0.25500000000E-02 0.  1.
          2   -1    0    0  501    0  0.00000000000E+00 -0.00000000000E+00 -0.97343947473E+03  0.97343947473E+03  0.25500000000E-02 0. -1.
    8880023    1    1    2    0    0 -0.19010135140E+03 -0.76455740359E+02 -0.71652705562E+03  0.99458797084E+03  0.65864270000E+03 0. -1.
    8880022    1    1    2    0    0  0.19010135140E+03  0.76455740359E+02  0.20764478156E+02  0.25652840117E+03  0.15294330000E+03 0.  0.
<mgrwt>
<rscale>  0 0.53821921E+03</rscale>
<asrwt>0</asrwt>
<pdfrwt beam="1">  1        2 0.14975992E+00 0.68977838E+03</pdfrwt>
<pdfrwt beam="2">  1       -2 0.42719523E-01 0.68977838E+03</pdfrwt>
<totfact> 0.13833213E+02</totfact>
</mgrwt>
</event>
<event>
 4    1  0.3565372E-007  0.7040235E+03  0.7818608E-02  0.9980902E-01
          2   -1    0    0  501    0  0.00000000000E+00  0.00000000000E+00  0.21743561868E+04  0.21743561868E+04  0.25500000000E-02 0. -1.
         -2   -1    0    0    0  501 -0.00000000000E+00 -0.00000000000E+00 -0.13309423674E+03  0.13309423677E+03  0.25500000000E-02 0.  1.
    8880023    1    1    2    0    0 -0.21437452097E+03  0.12602568114E+03  0.17856269985E+04  0.19194043064E+04  0.65864270000E+03 0.  0.
    8880022    1    1    2    0    0  0.21437452097E+03 -0.12602568114E+03  0.25563495159E+03  0.38804611715E+03  0.15294330000E+03 0.  0.
<mgrwt>
<rscale>  0 0.56495622E+03</rscale>
<asrwt>0</asrwt>
<pdfrwt beam="1">  1        2 0.33451630E+00 0.70402352E+03</pdfrwt>
<pdfrwt beam="2">  1       -2 0.20476039E-01 0.70402352E+03</pdfrwt>
<totfact> 0.11310001E+02</totfact>
</mgrwt>
</event>
<event>
 4    1  0.3565372E-007  0.1044424E+04  0.7818608E-02  0.9325614E-01
         -2   -1    0    0    0  501 -0.00000000000E+00  0.00000000000E+00  0.48031143591E+03  0.48031143592E+03  0.25500000000E-02 0.  1.
          2   -1    0    0  501    0  0.00000000000E+00 -0.00000000000E+00 -0.21088326378E+04  0.21088326378E+04  0.25500000000E-02 0. -1.
    8880023    1    1    2    0    0 -0.79829296674E+03 -0.14050028554E+03 -0.13740253699E+04  0.17259107493E+04  0.65864270000E+03 0.  0.
    8880022    1    1    2    0    0  0.79829296674E+03  0.14050028554E+03 -0.25449583200E+03  0.86323332448E+03  0.15294330000E+03 0.  0.
<mgrwt>
<rscale>  0 0.98458580E+03</rscale>
<asrwt>0</asrwt>
<pdfrwt beam="1">  1        2 0.32443578E+00 0.10444243E+04</pdfrwt>
<pdfrwt beam="2">  1       -2 0.73894068E-01 0.10444243E+04</pdfrwt>
<totfact> 0.95786917E+00</totfact>
</mgrwt>
</event>
<event>
 4    1  0.3565372E-007  0.7561528E+03  0.7818608E-02  0.9815171E-01
          2   -1    0    0  501    0  0.00000000000E+00  0.00000000000E+00  0.31290531544E+04  0.31290531544E+04  0.25500000000E-02 0. -1.
         -2   -1    0    0    0  501 -0.00000000000E+00 -0.00000000000E+00 -0.35037172078E+03  0.35037172079E+03  0.25500000000E-02 0.  1.
    8880023    1    1    2    0    0 -0.37060126264E+03 -0.24730784699E+02  0.29480621021E+04  0.30434909679E+04  0.65864270000E+03 0. -1.
    8880022    1    1    2    0    0  0.37060126264E+03  0.24730784699E+02 -0.16938066855E+03  0.43593390723E+03  0.15294330000E+03 0.  0.
<mgrwt>
<rscale>  0 0.64554694E+03</rscale>
<asrwt>0</asrwt>
<pdfrwt beam="1">  1        2 0.48139279E+00 0.75615284E+03</pdfrwt>
<pdfrwt beam="2">  1       -2 0.53903342E-01 0.75615284E+03</pdfrwt>
<totfact> 0.49968558E+00</totfact>
</mgrwt>
</event>
<event>
 4    1  0.3565372E-007  0.7419790E+03  0.7818608E-02  0.9854219E-01
          2   -1    0    0  501    0  0.00000000000E+00  0.00000000000E+00  0.16584669131E+04  0.16584669131E+04  0.25500000000E-02 0. -1.
         -2   -1    0    0    0  501 -0.00000000000E+00 -0.00000000000E+00 -0.29613491565E+03  0.29613491566E+03  0.25500000000E-02 0.  1.
    8880023    1    1    2    0    0 -0.22817485507E+03  0.25428114688E+03  0.13937714087E+04  0.15789653613E+04  0.65864270000E+03 0. -1.
    8880022    1    1    2    0    0  0.22817485507E+03 -0.25428114688E+03 -0.31439411208E+02  0.37563646753E+03  0.15294330000E+03 0.  0.
<mgrwt>
<rscale>  0 0.62532247E+03</rscale>
<asrwt>0</asrwt>
<pdfrwt beam="1">  1        2 0.25514876E+00 0.74197902E+03</pdfrwt>
<pdfrwt beam="2">  1       -2 0.45559218E-01 0.74197902E+03</pdfrwt>
<totfact> 0.48445526E+01</totfact>
</mgrwt>
</event>
<event>
 4    1  0.3565372E-007  0.6620024E+03  0.7818608E-02  0.1022193E+00
         -2   -1    0    0    0  501 -0.00000000000E+00  0.00000000000E+00  0.10952276339E+03  0.10952276342E+03  0.25500000000E-02 0.  1.
          2   -1    0    0  501    0  0.00000000000E+00 -0.00000000000E+00 -0.30945214113E+04  0.30945214113E+04  0.25500000000E-02 0. -1.
    8880023    1    1    2    0    0 -0.66610229761E+02  0.31072074701E-01 -0.29626780777E+04  0.30357385464E+04  0.65864270000E+03 0. -1.
    8880022    1    1    2    0    0  0.66610229761E+02 -0.31072074701E-01 -0.22320570265E+02  0.16830562839E+03  0.15294330000E+03 0.  0.
<mgrwt>
<rscale>  0 0.46903584E+03</rscale>
<asrwt>0</asrwt>
<pdfrwt beam="1">  1        2 0.47608015E+00 0.66200236E+03</pdfrwt>
<pdfrwt beam="2">  1       -2 0.16849658E-01 0.66200236E+03</pdfrwt>
<totfact> 0.46817117E+01</totfact>
</mgrwt>
</event>
<event>
 4    1  0.3565372E-007  0.8288973E+03  0.7818608E-02  0.9651482E-01
         -2   -1    0    0    0  501 -0.00000000000E+00  0.00000000000E+00  0.22214995076E+04  0.22214995076E+04  0.25500000000E-02 0.  1.
          2   -1    0    0  501    0  0.00000000000E+00 -0.00000000000E+00 -0.38330276207E+03  0.38330276208E+03  0.25500000000E-02 0. -1.
    8880023    1    1    2    0    0 -0.49689464954E+03 -0.79725514381E+02  0.15750407008E+03  0.84372874120E+03  0.65864270000E+03 0.  0.
    8880022    1    1    2    0    0  0.49689464954E+03  0.79725514381E+02  0.16806926754E+04  0.17610735284E+04  0.15294330000E+03 0.  0.
<mgrwt>
<rscale>  0 0.73980502E+03</rscale>
<asrwt>0</asrwt>
<pdfrwt beam="1">  1        2 0.58969655E-01 0.82889725E+03</pdfrwt>
<pdfrwt beam="2">  1       -2 0.34176916E+00 0.82889725E+03</pdfrwt>
<totfact> 0.15184806E+00</totfact>
</mgrwt>
</event>
<event>
 4    1  0.3565372E-007  0.8210723E+03  0.7818608E-02  0.9666959E-01
          2   -1    0    0  501    0  0.00000000000E+00  0.00000000000E+00  0.65980881971E+03  0.65980881971E+03  0.25500000000E-02 0. -1.
         -2   -1    0    0    0  501 -0.00000000000E+00 -0.00000000000E+00 -0.12357318134E+04  0.12357318135E+04  0.25500000000E-02 0.  1.
    8880023    1    1    2    0    0  0.44580012006E+03  0.20398961277E+03  0.30496734244E+03  0.87587944112E+03  0.65864270000E+03 0.  0.
    8880022    1    1    2    0    0 -0.44580012006E+03 -0.20398961277E+03 -0.88089033618E+03  0.10196611920E+04  0.15294330000E+03 0.  0.
<mgrwt>
<rscale>  0 0.73018564E+03</rscale>
<asrwt>0</asrwt>
<pdfrwt beam="1">  1        2 0.10150905E+00 0.82107230E+03</pdfrwt>
<pdfrwt beam="2">  1       -2 0.19011259E+00 0.82107230E+03</pdfrwt>
<totfact> 0.69035184E+00</totfact>
</mgrwt>
</event>
<event>
 4    1  0.3565372E-007  0.6715445E+03  0.7818608E-02  0.1014579E+00
          2   -1    0    0  501    0  0.00000000000E+00  0.00000000000E+00  0.17469448123E+03  0.17469448125E+03  0.25500000000E-02 0. -1.
         -2   -1    0    0    0  501 -0.00000000000E+00 -0.00000000000E+00 -0.10907203323E+04  0.10907203323E+04  0.25500000000E-02 0.  1.
    8880023    1    1    2    0    0  0.80238585368E+02  0.10355500668E+03 -0.69655254068E+03  0.96755233356E+03  0.65864270000E+03 0. -1.
    8880022    1    1    2    0    0 -0.80238585368E+02 -0.10355500668E+03 -0.21947331034E+03  0.29786247994E+03  0.15294330000E+03 0.  1.
<mgrwt>
<rscale>  0 0.49694656E+03</rscale>
<asrwt>0</asrwt>
<pdfrwt beam="1">  1        2 0.26876075E-01 0.67154455E+03</pdfrwt>
<pdfrwt beam="2">  1       -2 0.16780312E+00 0.67154455E+03</pdfrwt>
<totfact> 0.45330916E+01</totfact>
</mgrwt>
</event>
<event>
 4    1  0.3565372E-007  0.8744270E+03  0.7818608E-02  0.9568398E-01
          2   -1    0    0  501    0  0.00000000000E+00  0.00000000000E+00  0.15068664362E+04  0.15068664362E+04  0.25500000000E-02 0. -1.
         -2   -1    0    0    0  501 -0.00000000000E+00 -0.00000000000E+00 -0.65810307093E+03  0.65810307094E+03  0.25500000000E-02 0.  1.
    8880023    1    1    2    0    0  0.56237218352E+03  0.12062328821E+03  0.11916909826E+04  0.14780900022E+04  0.65864270000E+03 0.  0.
    8880022    1    1    2    0    0 -0.56237218352E+03 -0.12062328821E+03 -0.34292761735E+03  0.68687950487E+03  0.15294330000E+03 0.  0.
<mgrwt>
<rscale>  0 0.79423566E+03</rscale>
<asrwt>0</asrwt>
<pdfrwt beam="1">  1        2 0.23182560E+00 0.87442704E+03</pdfrwt>
<pdfrwt beam="2">  1       -2 0.10124663E+00 0.87442704E+03</pdfrwt>
<totfact> 0.10180199E+01</totfact>
</mgrwt>
</event>
<event>
 4    1  0.3565372E-007  0.8036970E+03  0.7818608E-02  0.9702859E-01
         -2   -1    0    0    0  501 -0.00000000000E+00  0.00000000000E+00  0.96464874470E+03  0.96464874470E+03  0.25500000000E-02 0.  1.
          2   -1    0    0  501    0  0.00000000000E+00 -0.00000000000E+00 -0.10856425187E+04  0.10856425187E+04  0.25500000000E-02 0. -1.
    8880023    1    1    2    0    0  0.14558297872E+03  0.43694883881E+03 -0.85303158863E+03  0.11720033229E+04  0.65864270000E+03 0. -1.
    8880022    1    1    2    0    0 -0.14558297872E+03 -0.43694883881E+03  0.73203781461E+03  0.87828794052E+03  0.15294330000E+03 0.  0.
<mgrwt>
<rscale>  0 0.70846845E+03</rscale>
<asrwt>0</asrwt>
<pdfrwt beam="1">  1        2 0.16702193E+00 0.80369702E+03</pdfrwt>
<pdfrwt beam="2">  1       -2 0.14840750E+00 0.80369702E+03</pdfrwt>
<totfact> 0.69402602E+00</totfact>
</mgrwt>
</event>
<event>
 4    1  0.3565372E-007  0.7428705E+03  0.7818608E-02  0.9851663E-01
         -2   -1    0    0    0  501 -0.00000000000E+00  0.00000000000E+00  0.78244658367E+03  0.78244658368E+03  0.25500000000E-02 0.  1.
          2   -1    0    0  501    0  0.00000000000E+00 -0.00000000000E+00 -0.71344517106E+03  0.71344517106E+03  0.25500000000E-02 0. -1.
    8880023    1    1    2    0    0 -0.33312781383E+03 -0.84096189347E+02 -0.43971584413E+03  0.86325346177E+03  0.65864270000E+03 0.  0.
    8880022    1    1    2    0    0  0.33312781383E+03  0.84096189347E+02  0.50871725675E+03  0.63263829297E+03  0.15294330000E+03 0.  0.
<mgrwt>
<rscale>  0 0.62662189E+03</rscale>
<asrwt>0</asrwt>
<pdfrwt beam="1">  1        2 0.10976080E+00 0.74287046E+03</pdfrwt>
<pdfrwt beam="2">  1       -2 0.12037640E+00 0.74287046E+03</pdfrwt>
<totfact> 0.21377970E+01</totfact>
</mgrwt>
</event>
<event>
 4    1  0.3565372E-007  0.7114289E+03  0.7818608E-02  0.9952733E-01
         -2   -1    0    0    0  501 -0.00000000000E+00  0.00000000000E+00  0.72622610115E+03  0.72622610115E+03  0.25500000000E-02 0.  1.
          2   -1    0    0  501    0  0.00000000000E+00 -0.00000000000E+00 -0.79198455897E+03  0.79198455897E+03  0.25500000000E-02 0. -1.
    8880023    1    1    2    0    0 -0.24784085003E+03 -0.10438288491E+03 -0.58012426846E+03  0.91797344554E+03  0.65864270000E+03 0. -1.
    8880022    1    1    2    0    0  0.24784085003E+03  0.10438288491E+03  0.51436581063E+03  0.60023721458E+03  0.15294330000E+03 0.  0.
<mgrwt>
<rscale>  0 0.57772309E+03</rscale>
<asrwt>0</asrwt>
<pdfrwt beam="1">  1        2 0.12184378E+00 0.71142890E+03</pdfrwt>
<pdfrwt beam="2">  1       -2 0.11172709E+00 0.71142890E+03</pdfrwt>
<totfact> 0.22487909E+01</totfact>
</mgrwt>
</event>
<event>
 4    1  0.3565372E-007  0.6931323E+03  0.7818608E-02  0.1002698E+00
         -2   -1    0    0    0  501 -0.00000000000E+00  0.00000000000E+00  0.83083405372E+03  0.83083405372E+03  0.25500000000E-02 0.  1.
          2   -1    0    0  501    0  0.00000000000E+00 -0.00000000000E+00 -0.30294266059E+03  0.30294266060E+03  0.25500000000E-02 0. -1.
    8880023    1    1    2    0    0 -0.21566099082E+03  0.10608629418E+02  0.21869060738E+03  0.72681358958E+03  0.65864270000E+03 0. -1.
    8880022    1    1    2    0    0  0.21566099082E+03 -0.10608629418E+02  0.30920078575E+03  0.40696312474E+03  0.15294330000E+03 0. -1.
<mgrwt>
<rscale>  0 0.54482887E+03</rscale>
<asrwt>0</asrwt>
<pdfrwt beam="1">  1        2 0.46606564E-01 0.69313232E+03</pdfrwt>
<pdfrwt beam="2">  1       -2 0.12782062E+00 0.69313232E+03</pdfrwt>
<totfact> 0.49921702E+01</totfact>
</mgrwt>
</event>
<event>
 4    1  0.3565372E-007  0.9222598E+03  0.7818608E-02  0.9491203E-01
          2   -1    0    0  501    0  0.00000000000E+00  0.00000000000E+00  0.20738427441E+04  0.20738427441E+04  0.25500000000E-02 0. -1.
         -2   -1    0    0    0  501 -0.00000000000E+00 -0.00000000000E+00 -0.66694451539E+03  0.66694451539E+03  0.25500000000E-02 0.  1.
    8880023    1    1    2    0    0 -0.47302579899E+02 -0.64382875996E+03  0.17616512426E+04  0.19884612929E+04  0.65864270000E+03 0.  0.
    8880022    1    1    2    0    0  0.47302579899E+02  0.64382875996E+03 -0.35475301391E+03  0.75232596666E+03  0.15294330000E+03 0.  0.
<mgrwt>
<rscale>  0 0.84935530E+03</rscale>
<asrwt>0</asrwt>
<pdfrwt beam="1">  1        2 0.31905273E+00 0.92225984E+03</pdfrwt>
<pdfrwt beam="2">  1       -2 0.10260685E+00 0.92225984E+03</pdfrwt>
<totfact> 0.47749550E+00</totfact>
</mgrwt>
</event>
<event>
 4    1  0.3565372E-007  0.1153292E+04  0.7818608E-02  0.9203919E-01
          2   -1    0    0  501    0  0.00000000000E+00  0.00000000000E+00  0.28875390164E+04  0.28875390164E+04  0.25500000000E-02 0. -1.
         -2   -1    0    0    0  501 -0.00000000000E+00 -0.00000000000E+00 -0.10113392953E+04  0.10113392953E+04  0.25500000000E-02 0.  1.
    8880023    1    1    2    0    0  0.28981475870E+03 -0.90126586335E+03  0.25011413322E+04  0.27542314574E+04  0.65864270000E+03 0.  0.
    8880022    1    1    2    0    0 -0.28981475870E+03  0.90126586335E+03 -0.62494161118E+03  0.11446468544E+04  0.15294330000E+03 0.  0.
<mgrwt>
<rscale>  0 0.11013065E+04</rscale>
<asrwt>0</asrwt>
<pdfrwt beam="1">  1        2 0.44423677E+00 0.11532922E+04</pdfrwt>
<pdfrwt beam="2">  1       -2 0.15559066E+00 0.11532922E+04</pdfrwt>
<totfact> 0.54973158E-01</totfact>
</mgrwt>
</event>
<event>
 4    1  0.3565372E-007  0.1407313E+04  0.7818608E-02  0.8978021E-01
          2   -1    0    0  501    0  0.00000000000E+00  0.00000000000E+00  0.10189242910E+04  0.10189242910E+04  0.25500000000E-02 0. -1.
         -2   -1    0    0    0  501 -0.00000000000E+00 -0.00000000000E+00 -0.20362652120E+04  0.20362652120E+04  0.25500000000E-02 0.  1.
    8880023    1    1    2    0    0  0.39525165728E+03 -0.11791930613E+04 -0.11190892609E+04  0.17980242291E+04  0.65864270000E+03 0.  0.
    8880022    1    1    2    0    0 -0.39525165728E+03  0.11791930613E+04  0.10174833982E+03  0.12571652739E+04  0.15294330000E+03 0.  0.
<mgrwt>
<rscale>  0 0.13670500E+04</rscale>
<asrwt>0</asrwt>
<pdfrwt beam="1">  1        2 0.15675758E+00 0.14073132E+04</pdfrwt>
<pdfrwt beam="2">  1       -2 0.31327157E+00 0.14073132E+04</pdfrwt>
<totfact> 0.61742100E-01</totfact>
</mgrwt>
</event>
<event>
 4    1  0.3565372E-007  0.1062729E+04  0.7818608E-02  0.9303734E-01
          2   -1    0    0  501    0  0.00000000000E+00  0.00000000000E+00  0.20376285198E+04  0.20376285198E+04  0.25500000000E-02 0. -1.
         -2   -1    0    0    0  501 -0.00000000000E+00 -0.00000000000E+00 -0.81589961176E+03  0.81589961176E+03  0.25500000000E-02 0.  1.
    8880023    1    1    2    0    0 -0.80900381598E+03 -0.20271866233E+03 -0.30631157563E+03  0.11059923227E+04  0.65864270000E+03 0.  1.
    8880022    1    1    2    0    0  0.80900381598E+03  0.20271866233E+03  0.15280404836E+04  0.17475358088E+04  0.15294330000E+03 0.  0.
<mgrwt>
<rscale>  0 0.10043982E+04</rscale>
<asrwt>0</asrwt>
<pdfrwt beam="1">  1        2 0.31348131E+00 0.10627287E+04</pdfrwt>
<pdfrwt beam="2">  1       -2 0.12552302E+00 0.10627287E+04</pdfrwt>
<totfact> 0.29944888E+00</totfact>
</mgrwt>
</event>
<event>
 4    1  0.3565372E-007  0.6675845E+03  0.7818608E-02  0.1017457E+00
         -2   -1    0    0    0  501 -0.00000000000E+00  0.00000000000E+00  0.74896946183E+02  0.74896946226E+02  0.25500000000E-02 0.  1.
          2   -1    0    0  501    0  0.00000000000E+00 -0.00000000000E+00 -0.25544921604E+04  0.25544921604E+04  0.25500000000E-02 0. -1.
    8880023    1    1    2    0    0  0.10670757129E+03 -0.21732651269E+02 -0.21353521338E+04  0.22372746268E+04  0.65864270000E+03 0. -1.
    8880022    1    1    2    0    0 -0.10670757129E+03  0.21732651269E+02 -0.34424308041E+03  0.39211447987E+03  0.15294330000E+03 0.  1.
<mgrwt>
<rscale>  0 0.48615558E+03</rscale>
<asrwt>0</asrwt>
<pdfrwt beam="1">  1        2 0.39299873E+00 0.66758447E+03</pdfrwt>
<pdfrwt beam="2">  1       -2 0.11522609E-01 0.66758447E+03</pdfrwt>
<totfact> 0.18473878E+02</totfact>
</mgrwt>
</event>
<event>
 4    1  0.3565372E-007  0.7232665E+03  0.7818608E-02  0.9911684E-01
         -2   -1    0    0    0  501 -0.00000000000E+00  0.00000000000E+00  0.56398546128E+03  0.56398546129E+03  0.25500000000E-02 0.  1.
          2   -1    0    0  501    0  0.00000000000E+00 -0.00000000000E+00 -0.61773233575E+03  0.61773233575E+03  0.25500000000E-02 0. -1.
    8880023    1    1    2    0    0 -0.32082367601E+02  0.29711091541E+03 -0.28142689565E+03  0.77608986479E+03  0.65864270000E+03 0. -1.
    8880022    1    1    2    0    0  0.32082367601E+02 -0.29711091541E+03  0.22768002118E+03  0.40562793226E+03  0.15294330000E+03 0.  0.
<mgrwt>
<rscale>  0 0.59698336E+03</rscale>
<asrwt>0</asrwt>
<pdfrwt beam="1">  1        2 0.95035744E-01 0.72326647E+03</pdfrwt>
<pdfrwt beam="2">  1       -2 0.86766994E-01 0.72326647E+03</pdfrwt>
<totfact> 0.55811289E+01</totfact>
</mgrwt>
</event>
<event>
 4    1  0.3565372E-007  0.9237421E+03  0.7818608E-02  0.9488945E-01
         -2   -1    0    0    0  501 -0.00000000000E+00  0.00000000000E+00  0.40163171849E+03  0.40163171850E+03  0.25500000000E-02 0.  1.
          2   -1    0    0  501    0  0.00000000000E+00 -0.00000000000E+00 -0.16885383578E+04  0.16885383578E+04  0.25500000000E-02 0. -1.
    8880023    1    1    2    0    0 -0.54442765566E+03 -0.35083871118E+03 -0.10118144755E+04  0.13700613171E+04  0.65864270000E+03 0. -1.
    8880022    1    1    2    0    0  0.54442765566E+03  0.35083871118E+03 -0.27509216386E+03  0.72010875924E+03  0.15294330000E+03 0.  1.
<mgrwt>
<rscale>  0 0.85103795E+03</rscale>
<asrwt>0</asrwt>
<pdfrwt beam="1">  1        2 0.25977513E+00 0.92374211E+03</pdfrwt>
<pdfrwt beam="2">  1       -2 0.61789496E-01 0.92374211E+03</pdfrwt>
<totfact> 0.24394417E+01</totfact>
</mgrwt>
</event>
<event>
 4    1  0.3565372E-007  0.6833015E+03  0.7818608E-02  0.1007515E+00
         -2   -1    0    0    0  501 -0.00000000000E+00  0.00000000000E+00  0.36322623982E+03  0.36322623983E+03  0.25500000000E-02 0.  1.
          2   -1    0    0  501    0  0.00000000000E+00 -0.00000000000E+00 -0.17942069059E+04  0.17942069059E+04  0.25500000000E-02 0. -1.
    8880023    1    1    2    0    0  0.10187107759E+03  0.15070843994E+03 -0.16797344520E+04  0.18133970293E+04  0.65864270000E+03 0. -1.
    8880022    1    1    2    0    0 -0.10187107759E+03 -0.15070843994E+03  0.24875378599E+03  0.34403611638E+03  0.15294330000E+03 0.  0.
<mgrwt>
<rscale>  0 0.52474515E+03</rscale>
<asrwt>0</asrwt>
<pdfrwt beam="1">  1        2 0.27603183E+00 0.68330151E+03</pdfrwt>
<pdfrwt beam="2">  1       -2 0.55880961E-01 0.68330151E+03</pdfrwt>
<totfact> 0.27139018E+01</totfact>
</mgrwt>
</event>
<event>
 4    1  0.3565372E-007  0.1101361E+04  0.7818608E-02  0.9259543E-01
          2   -1    0    0  501    0  0.00000000000E+00  0.00000000000E+00  0.24472937994E+04  0.24472937994E+04  0.25500000000E-02 0. -1.
         -2   -1    0    0    0  501 -0.00000000000E+00 -0.00000000000E+00 -0.44300741125E+03  0.44300741126E+03  0.25500000000E-02 0.  1.
    8880023    1    1    2    0    0  0.81882429476E+03  0.32971473929E+03  0.15042248456E+04  0.18643196151E+04  0.65864270000E+03 0. -1.
    8880022    1    1    2    0    0 -0.81882429476E+03 -0.32971473929E+03  0.50006154254E+03  0.10259815955E+04  0.15294330000E+03 0.  0.
<mgrwt>
<rscale>  0 0.10459429E+04</rscale>
<asrwt>0</asrwt>
<pdfrwt beam="1">  1        2 0.37650675E+00 0.11013606E+04</pdfrwt>
<pdfrwt beam="2">  1       -2 0.68154985E-01 0.11013606E+04</pdfrwt>
<totfact> 0.73438857E+00</totfact>
</mgrwt>
</event>
<event>
 4    1  0.3565372E-007  0.8722112E+03  0.7818608E-02  0.9572201E-01
         -2   -1    0    0    0  501 -0.00000000000E+00  0.00000000000E+00  0.15377397794E+04  0.15377397794E+04  0.25500000000E-02 0.  1.
          2   -1    0    0  501    0  0.00000000000E+00 -0.00000000000E+00 -0.64127559876E+03  0.64127559877E+03  0.25500000000E-02 0. -1.
    8880023    1    1    2    0    0  0.49657858024E+03 -0.28346412582E+03 -0.23392870478E+03  0.90303656745E+03  0.65864270000E+03 0. -1.
    8880022    1    1    2    0    0 -0.49657858024E+03  0.28346412582E+03  0.11303928854E+04  0.12759788107E+04  0.15294330000E+03 0.  0.
<mgrwt>
<rscale>  0 0.79163778E+03</rscale>
<asrwt>0</asrwt>
<pdfrwt beam="1">  1        2 0.98657785E-01 0.87221121E+03</pdfrwt>
<pdfrwt beam="2">  1       -2 0.23657535E+00 0.87221121E+03</pdfrwt>
<totfact> 0.35966958E+00</totfact>
</mgrwt>
</event>
<event>
 4    1  0.3565372E-007  0.7720706E+03  0.7818608E-02  0.9774804E-01
          2   -1    0    0  501    0  0.00000000000E+00  0.00000000000E+00  0.10426704768E+04  0.10426704768E+04  0.25500000000E-02 0. -1.
         -2   -1    0    0    0  501 -0.00000000000E+00 -0.00000000000E+00 -0.49215043561E+03  0.49215043561E+03  0.25500000000E-02 0.  1.
    8880023    1    1    2    0    0  0.13582706303E+03 -0.37925434025E+03  0.73510081424E+03  0.10660517150E+04  0.65864270000E+03 0. -1.
    8880022    1    1    2    0    0 -0.13582706303E+03  0.37925434025E+03 -0.18458077306E+03  0.46876919742E+03  0.15294330000E+03 0.  0.
<mgrwt>
<rscale>  0 0.66732409E+03</rscale>
<asrwt>0</asrwt>
<pdfrwt beam="1">  1        2 0.16041084E+00 0.77207063E+03</pdfrwt>
<pdfrwt beam="2">  1       -2 0.75715452E-01 0.77207063E+03</pdfrwt>
<totfact> 0.37519313E+01</totfact>
</mgrwt>
</event>
<event>
 4    1  0.3565372E-007  0.7943923E+03  0.7818608E-02  0.9723055E-01
          2   -1    0    0  501    0  0.00000000000E+00  0.00000000000E+00  0.10274249509E+04  0.10274249509E+04  0.25500000000E-02 0. -1.
         -2   -1    0    0    0  501 -0.00000000000E+00 -0.00000000000E+00 -0.58070671273E+03  0.58070671273E+03  0.25500000000E-02 0.  1.
    8880023    1    1    2    0    0  0.41572322314E+03  0.15627896304E+03  0.71363799961E+03  0.10678662432E+04  0.65864270000E+03 0. -1.
    8880022    1    1    2    0    0 -0.41572322314E+03 -0.15627896304E+03 -0.26691976141E+03  0.54026542050E+03  0.15294330000E+03 0.  0.
<mgrwt>
<rscale>  0 0.69660556E+03</rscale>
<asrwt>0</asrwt>
<pdfrwt beam="1">  1        2 0.15806538E+00 0.79439230E+03</pdfrwt>
<pdfrwt beam="2">  1       -2 0.89339495E-01 0.79439230E+03</pdfrwt>
<totfact> 0.26321258E+01</totfact>
</mgrwt>
</event>
<event>
 4    1  0.3565372E-007  0.6651571E+03  0.7818608E-02  0.1019402E+00
          2   -1    0    0  501    0  0.00000000000E+00  0.00000000000E+00  0.11945673496E+04  0.11945673496E+04  0.25500000000E-02 0. -1.
         -2   -1    0    0    0  501 -0.00000000000E+00 -0.00000000000E+00 -0.30755456233E+03  0.30755456234E+03  0.25500000000E-02 0.  1.
    8880023    1    1    2    0    0  0.46073411842E+02  0.80628520976E+02  0.10611867821E+04  0.12524181851E+04  0.65864270000E+03 0. -1.
    8880022    1    1    2    0    0 -0.46073411842E+02 -0.80628520976E+02 -0.17417399485E+03  0.24970372679E+03  0.15294330000E+03 0.  0.
<mgrwt>
<rscale>  0 0.47903029E+03</rscale>
<asrwt>0</asrwt>
<pdfrwt beam="1">  1        2 0.18377959E+00 0.66515707E+03</pdfrwt>
<pdfrwt beam="2">  1       -2 0.47316087E-01 0.66515707E+03</pdfrwt>
<totfact> 0.82701414E+01</totfact>
</mgrwt>
</event>
<event>
 4    1  0.3565372E-007  0.7579665E+03  0.7818608E-02  0.9810401E-01
         -2   -1    0    0    0  501 -0.00000000000E+00  0.00000000000E+00  0.21125005275E+03  0.21125005276E+03  0.25500000000E-02 0.  1.
          2   -1    0    0  501    0  0.00000000000E+00 -0.00000000000E+00 -0.34321565243E+04  0.34321565243E+04  0.25500000000E-02 0. -1.
    8880023    1    1    2    0    0 -0.33388712864E+03  0.17094562990E+03 -0.31401702468E+04  0.32303532947E+04  0.65864270000E+03 0. -1.
    8880022    1    1    2    0    0  0.33388712864E+03 -0.17094562990E+03 -0.80736224660E+02  0.41305328233E+03  0.15294330000E+03 0.  0.
<mgrwt>
<rscale>  0 0.64807359E+03</rscale>
<asrwt>0</asrwt>
<pdfrwt beam="1">  1        2 0.52802404E+00 0.75796651E+03</pdfrwt>
<pdfrwt beam="2">  1       -2 0.32500011E-01 0.75796651E+03</pdfrwt>
<totfact> 0.86048999E+00</totfact>
</mgrwt>
</event>
<event>
 4    1  0.3565372E-007  0.6746027E+03  0.7818608E-02  0.1012558E+00
         -2   -1    0    0    0  501 -0.00000000000E+00  0.00000000000E+00  0.18086569891E+03  0.18086569893E+03  0.25500000000E-02 0.  1.
          2   -1    0    0  501    0  0.00000000000E+00 -0.00000000000E+00 -0.22656443496E+04  0.22656443496E+04  0.25500000000E-02 0. -1.
    8880023    1    1    2    0    0  0.10871768484E+03 -0.97257965087E+02 -0.21266207206E+04  0.22310545807E+04  0.65864270000E+03 0.  0.
    8880022    1    1    2    0    0 -0.10871768484E+03  0.97257965087E+02  0.41842069892E+02  0.21545546778E+03  0.15294330000E+03 0.  1.
<mgrwt>
<rscale>  0 0.50470596E+03</rscale>
<asrwt>0</asrwt>
<pdfrwt beam="1">  1        2 0.34856065E+00 0.67460274E+03</pdfrwt>
<pdfrwt beam="2">  1       -2 0.27825494E-01 0.67460274E+03</pdfrwt>
<totfact> 0.58387271E+01</totfact>
</mgrwt>
</event>
<event>
 4    1  0.3565372E-007  0.6624531E+03  0.7818608E-02  0.1021773E+00
          2   -1    0    0  501    0  0.00000000000E+00  0.00000000000E+00  0.15969897508E+04  0.15969897508E+04  0.25500000000E-02 0. -1.
         -2   -1    0    0    0  501 -0.00000000000E+00 -0.00000000000E+00 -0.11000370159E+03  0.11000370162E+03  0.25500000000E-02 0.  1.
    8880023    1    1    2    0    0 -0.61426314404E+02 -0.35506374478E+02  0.12680559453E+04  0.14306676698E+04  0.65864270000E+03 0.  0.
    8880022    1    1    2    0    0  0.61426314404E+02  0.35506374478E+02  0.21893010393E+03  0.27632578264E+03  0.15294330000E+03 0. -1.
<mgrwt>
<rscale>  0 0.47052202E+03</rscale>
<asrwt>0</asrwt>
<pdfrwt beam="1">  1        2 0.24569074E+00 0.66245309E+03</pdfrwt>
<pdfrwt beam="2">  1       -2 0.16923646E-01 0.66245309E+03</pdfrwt>
<totfact> 0.32601203E+02</totfact>
</mgrwt>
</event>
<event>
 4    1  0.3565372E-007  0.9086016E+03  0.7818608E-02  0.9512362E-01
          2   -1    0    0  501    0  0.00000000000E+00  0.00000000000E+00  0.69461168119E+03  0.69461168120E+03  0.25500000000E-02 0. -1.
         -2   -1    0    0    0  501 -0.00000000000E+00 -0.00000000000E+00 -0.10029194470E+04  0.10029194470E+04  0.25500000000E-02 0.  1.
    8880023    1    1    2    0    0  0.28747776476E+03  0.55597053641E+03  0.13058584314E+03  0.91793767287E+03  0.65864270000E+03 0. -1.
    8880022    1    1    2    0    0 -0.28747776476E+03 -0.55597053641E+03 -0.43889360892E+03  0.77959345530E+03  0.15294330000E+03 0.  1.
<mgrwt>
<rscale>  0 0.83378531E+03</rscale>
<asrwt>0</asrwt>
<pdfrwt beam="1">  1        2 0.10686334E+00 0.90860162E+03</pdfrwt>
<pdfrwt beam="2">  1       -2 0.15429530E+00 0.90860162E+03</pdfrwt>
<totfact> 0.11499991E+01</totfact>
</mgrwt>
</event>
<event>
 4    1  0.3565372E-007  0.7343163E+03  0.7818608E-02  0.9876824E-01
         -2   -1    0    0    0  501 -0.00000000000E+00  0.00000000000E+00  0.19291317548E+04  0.19291317548E+04  0.25500000000E-02 0.  1.
          2   -1    0    0  501    0  0.00000000000E+00 -0.00000000000E+00 -0.31008563571E+03  0.31008563572E+03  0.25500000000E-02 0. -1.
    8880023    1    1    2    0    0 -0.32443574823E+03  0.12312675886E+02  0.17994807598E+03  0.75604343330E+03  0.65864270000E+03 0. -1.
    8880022    1    1    2    0    0  0.32443574823E+03 -0.12312675886E+02  0.14390980431E+04  0.14831739572E+04  0.15294330000E+03 0.  0.
<mgrwt>
<rscale>  0 0.61397771E+03</rscale>
<asrwt>0</asrwt>
<pdfrwt beam="1">  1        2 0.47705482E-01 0.73431626E+03</pdfrwt>
<pdfrwt beam="2">  1       -2 0.29678950E+00 0.73431626E+03</pdfrwt>
<totfact> 0.36633774E+00</totfact>
</mgrwt>
</event>
<event>
 4    1  0.3565372E-007  0.6753829E+03  0.7818608E-02  0.1012066E+00
          2   -1    0    0  501    0  0.00000000000E+00  0.00000000000E+00  0.27186940656E+04  0.27186940656E+04  0.25500000000E-02 0. -1.
         -2   -1    0    0    0  501 -0.00000000000E+00 -0.00000000000E+00 -0.95830353075E+02  0.95830353109E+02  0.25500000000E-02 0.  1.
    8880023    1    1    2    0    0  0.89458662906E+02  0.11970374293E+03  0.24444552046E+04  0.25360408695E+04  0.65864270000E+03 0. -1.
    8880022    1    1    2    0    0 -0.89458662906E+02 -0.11970374293E+03  0.17840850793E+03  0.27848354917E+03  0.15294330000E+03 0.  0.
<mgrwt>
<rscale>  0 0.50661724E+03</rscale>
<asrwt>0</asrwt>
<pdfrwt beam="1">  1        2 0.41826054E+00 0.67538289E+03</pdfrwt>
<pdfrwt beam="2">  1       -2 0.14743134E-01 0.67538289E+03</pdfrwt>
<totfact> 0.98521271E+01</totfact>
</mgrwt>
</event>
<event>
 4    1  0.3565372E-007  0.7390174E+03  0.7818608E-02  0.9862819E-01
          2   -1    0    0  501    0  0.00000000000E+00  0.00000000000E+00  0.25912654479E+04  0.25912654479E+04  0.25500000000E-02 0. -1.
         -2   -1    0    0    0  501 -0.00000000000E+00 -0.00000000000E+00 -0.12290349672E+03  0.12290349675E+03  0.25500000000E-02 0.  1.
    8880023    1    1    2    0    0 -0.32878309909E+03 -0.65101723859E+02  0.13842810752E+04  0.15691975217E+04  0.65864270000E+03 0. -1.
    8880022    1    1    2    0    0  0.32878309909E+03  0.65101723859E+02  0.10840808759E+04  0.11449714229E+04  0.15294330000E+03 0.  0.
<mgrwt>
<rscale>  0 0.62097595E+03</rscale>
<asrwt>0</asrwt>
<pdfrwt beam="1">  1        2 0.39865621E+00 0.73901743E+03</pdfrwt>
<pdfrwt beam="2">  1       -2 0.18908231E-01 0.73901743E+03</pdfrwt>
<totfact> 0.75617468E+01</totfact>
</mgrwt>
</event>
<event>
 4    1  0.3565372E-007  0.6821909E+03  0.7818608E-02  0.1008111E+00
          2   -1    0    0  501    0  0.00000000000E+00  0.00000000000E+00  0.19606903193E+04  0.19606903193E+04  0.25500000000E-02 0. -1.
         -2   -1    0    0    0  501 -0.00000000000E+00 -0.00000000000E+00 -0.33968675430E+03  0.33968675431E+03  0.25500000000E-02 0.  1.
    8880023    1    1    2    0    0 -0.10394508773E+03 -0.14411695748E+03  0.18505360161E+04  0.19722748368E+04  0.65864270000E+03 0. -1.
    8880022    1    1    2    0    0  0.10394508773E+03  0.14411695748E+03 -0.22953245109E+03  0.32810223683E+03  0.15294330000E+03 0.  0.
<mgrwt>
<rscale>  0 0.52232542E+03</rscale>
<asrwt>0</asrwt>
<pdfrwt beam="1">  1        2 0.30164466E+00 0.68219094E+03</pdfrwt>
<pdfrwt beam="2">  1       -2 0.52259501E-01 0.68219094E+03</pdfrwt>
<totfact> 0.25309778E+01</totfact>
</mgrwt>
</event>
<event>
 4    1  0.3565372E-007  0.7947605E+03  0.7818608E-02  0.9722242E-01
         -2   -1    0    0    0  501 -0.00000000000E+00  0.00000000000E+00  0.20395858934E+03  0.20395858936E+03  0.25500000000E-02 0.  1.
          2   -1    0    0  501    0  0.00000000000E+00 -0.00000000000E+00 -0.23377430203E+04  0.23377430203E+04  0.25500000000E-02 0. -1.
    8880023    1    1    2    0    0 -0.20759520175E+03  0.39336776644E+03 -0.17918587925E+04  0.19602046082E+04  0.65864270000E+03 0.  0.
    8880022    1    1    2    0    0  0.20759520175E+03 -0.39336776644E+03 -0.34192563846E+03  0.58149700147E+03  0.15294330000E+03 0. -1.
<mgrwt>
<rscale>  0 0.69707838E+03</rscale>
<asrwt>0</asrwt>
<pdfrwt beam="1">  1        2 0.35965275E+00 0.79476045E+03</pdfrwt>
<pdfrwt beam="2">  1       -2 0.31378246E-01 0.79476045E+03</pdfrwt>
<totfact> 0.41960048E+01</totfact>
</mgrwt>
</event>
<event>
 4    1  0.3565372E-007  0.7631629E+03  0.7818608E-02  0.9796987E-01
          2   -1    0    0  501    0  0.00000000000E+00  0.00000000000E+00  0.46587249897E+03  0.46587249898E+03  0.25500000000E-02 0. -1.
         -2   -1    0    0    0  501 -0.00000000000E+00 -0.00000000000E+00 -0.17294263688E+04  0.17294263688E+04  0.25500000000E-02 0.  1.
    8880023    1    1    2    0    0  0.53018758423E+02 -0.38183305105E+03  0.10035231792E+03  0.76973259096E+03  0.65864270000E+03 0. -1.
    8880022    1    1    2    0    0 -0.53018758423E+02  0.38183305105E+03 -0.13639061877E+04  0.14255662768E+04  0.15294330000E+03 0.  0.
<mgrwt>
<rscale>  0 0.65524503E+03</rscale>
<asrwt>0</asrwt>
<pdfrwt beam="1">  1        2 0.71672693E-01 0.76316294E+03</pdfrwt>
<pdfrwt beam="2">  1       -2 0.26606559E+00 0.76316294E+03</pdfrwt>
<totfact> 0.35292280E+00</totfact>
</mgrwt>
</event>
<event>
 4    1  0.3565372E-007  0.8593682E+03  0.7818608E-02  0.9594688E-01
          2   -1    0    0  501    0  0.00000000000E+00  0.00000000000E+00  0.12402621518E+04  0.12402621518E+04  0.25500000000E-02 0. -1.
         -2   -1    0    0    0  501 -0.00000000000E+00 -0.00000000000E+00 -0.92862825642E+03  0.92862825642E+03  0.25500000000E-02 0.  1.
    8880023    1    1    2    0    0  0.51348274553E+03 -0.20258096552E+03  0.97020303803E+03  0.12960739635E+04  0.65864270000E+03 0. -1.
    8880022    1    1    2    0    0 -0.51348274553E+03  0.20258096552E+03 -0.65856914265E+03  0.87281644474E+03  0.15294330000E+03 0.  0.
<mgrwt>
<rscale>  0 0.77648750E+03</rscale>
<asrwt>0</asrwt>
<pdfrwt beam="1">  1        2 0.19080956E+00 0.85936825E+03</pdfrwt>
<pdfrwt beam="2">  1       -2 0.14286589E+00 0.85936825E+03</pdfrwt>
<totfact> 0.61500305E+00</totfact>
</mgrwt>
</event>
<event>
 4    1  0.3565372E-007  0.8537604E+03  0.7818608E-02  0.9604760E-01
          2   -1    0    0  501    0  0.00000000000E+00  0.00000000000E+00  0.20226474779E+04  0.20226474779E+04  0.25500000000E-02 0. -1.
         -2   -1    0    0    0  501 -0.00000000000E+00 -0.00000000000E+00 -0.74779319824E+03  0.74779319824E+03  0.25500000000E-02 0.  1.
    8880023    1    1    2    0    0  0.42530251766E+03  0.33795627641E+03 -0.44329157485E+03  0.96198456479E+03  0.65864270000E+03 0.  1.
    8880022    1    1    2    0    0 -0.42530251766E+03 -0.33795627641E+03  0.17181458545E+04  0.18084561114E+04  0.15294330000E+03 0.  0.
<mgrwt>
<rscale>  0 0.76981915E+03</rscale>
<asrwt>0</asrwt>
<pdfrwt beam="1">  1        2 0.31117653E+00 0.85376044E+03</pdfrwt>
<pdfrwt beam="2">  1       -2 0.11504511E+00 0.85376044E+03</pdfrwt>
<totfact> 0.38991166E+00</totfact>
</mgrwt>
</event>
<event>
 4    1  0.3565372E-007  0.7267601E+03  0.7818608E-02  0.9900342E-01
          2   -1    0    0  501    0  0.00000000000E+00  0.00000000000E+00  0.94485908834E+03  0.94485908835E+03  0.25500000000E-02 0. -1.
         -2   -1    0    0    0  501 -0.00000000000E+00 -0.00000000000E+00 -0.46910634693E+03  0.46910634693E+03  0.25500000000E-02 0.  1.
    8880023    1    1    2    0    0  0.23037867383E+03 -0.20321361867E+03  0.69593833556E+03  0.10062357981E+04  0.65864270000E+03 0. -1.
    8880022    1    1    2    0    0 -0.23037867383E+03  0.20321361867E+03 -0.22018559414E+03  0.40772963720E+03  0.15294330000E+03 0.  0.
<mgrwt>
<rscale>  0 0.60244703E+03</rscale>
<asrwt>0</asrwt>
<pdfrwt beam="1">  1        2 0.14536294E+00 0.72676015E+03</pdfrwt>
<pdfrwt beam="2">  1       -2 0.72170208E-01 0.72676015E+03</pdfrwt>
<totfact> 0.48380093E+01</totfact>
</mgrwt>
</event>
<event>
 4    1  0.3565372E-007  0.9619085E+03  0.7818608E-02  0.9433183E-01
         -2   -1    0    0    0  501 -0.00000000000E+00  0.00000000000E+00  0.49955189796E+03  0.49955189796E+03  0.25500000000E-02 0.  1.
          2   -1    0    0  501    0  0.00000000000E+00 -0.00000000000E+00 -0.21162565764E+04  0.21162565764E+04  0.25500000000E-02 0. -1.
    8880023    1    1    2    0    0  0.69199752393E+03  0.11223747085E+03 -0.16362109591E+04  0.18980132591E+04  0.65864270000E+03 0. -1.
    8880022    1    1    2    0    0 -0.69199752393E+03 -0.11223747085E+03  0.19506280649E+02  0.71779521522E+03  0.15294330000E+03 0.  0.
<mgrwt>
<rscale>  0 0.89394411E+03</rscale>
<asrwt>0</asrwt>
<pdfrwt beam="1">  1        2 0.32557793E+00 0.96190853E+03</pdfrwt>
<pdfrwt beam="2">  1       -2 0.76854139E-01 0.96190853E+03</pdfrwt>
<totfact> 0.87769779E+00</totfact>
</mgrwt>
</event>
<event>
 4    1  0.3565372E-007  0.8939021E+03  0.7818608E-02  0.9535892E-01
         -2   -1    0    0    0  501 -0.00000000000E+00  0.00000000000E+00  0.85962565470E+03  0.85962565471E+03  0.25500000000E-02 0.  1.
          2   -1    0    0  501    0  0.00000000000E+00 -0.00000000000E+00 -0.11015474546E+04  0.11015474546E+04  0.25500000000E-02 0. -1.
    8880023    1    1    2    0    0  0.59449847218E+03  0.10873028754E+03 -0.74218945355E+03  0.11618545951E+04  0.65864270000E+03 0. -1.
    8880022    1    1    2    0    0 -0.59449847218E+03 -0.10873028754E+03  0.50026765367E+03  0.79931851422E+03  0.15294330000E+03 0.  0.
<mgrwt>
<rscale>  0 0.81688557E+03</rscale>
<asrwt>0</asrwt>
<pdfrwt beam="1">  1        2 0.16946884E+00 0.89390207E+03</pdfrwt>
<pdfrwt beam="2">  1       -2 0.13225010E+00 0.89390207E+03</pdfrwt>
<totfact> 0.90586902E+00</totfact>
</mgrwt>
</event>
<event>
 4    1  0.3565372E-007  0.1461450E+04  0.7818608E-02  0.8937348E-01
          2   -1    0    0  501    0  0.00000000000E+00  0.00000000000E+00  0.39690689105E+04  0.39690689105E+04  0.25500000000E-02 0. -1.
         -2   -1    0    0    0  501 -0.00000000000E+00 -0.00000000000E+00 -0.69957084003E+03  0.69957084004E+03  0.25500000000E-02 0.  1.
    8880023    1    1    2    0    0  0.88783190856E+03 -0.95591880893E+03  0.40375710468E+03  0.15161979663E+04  0.65864270000E+03 0.  0.
    8880022    1    1    2    0    0 -0.88783190856E+03  0.95591880893E+03  0.28657409658E+04  0.31524417843E+04  0.15294330000E+03 0.  0.
<mgrwt>
<rscale>  0 0.14229832E+04</rscale>
<asrwt>0</asrwt>
<pdfrwt beam="1">  1        2 0.61062596E+00 0.14614501E+04</pdfrwt>
<pdfrwt beam="2">  1       -2 0.10762629E+00 0.14614501E+04</pdfrwt>
<totfact> 0.24416606E-01</totfact>
</mgrwt>
</event>
<event>
 4    1  0.3565372E-007  0.6618749E+03  0.7818608E-02  0.1022313E+00
          2   -1    0    0  501    0  0.00000000000E+00  0.00000000000E+00  0.18830978405E+04  0.18830978405E+04  0.25500000000E-02 0. -1.
         -2   -1    0    0    0  501 -0.00000000000E+00 -0.00000000000E+00 -0.21469208215E+03  0.21469208216E+03  0.25500000000E-02 0.  1.
    8880023    1    1    2    0    0 -0.58770344414E+01 -0.65066775809E+02  0.17789509821E+04  0.18980898366E+04  0.65864270000E+03 0. -1.
    8880022    1    1    2    0    0  0.58770344414E+01  0.65066775809E+02 -0.11054522377E+03  0.19970008603E+03  0.15294330000E+03 0.  0.
<mgrwt>
<rscale>  0 0.46861181E+03</rscale>
<asrwt>0</asrwt>
<pdfrwt beam="1">  1        2 0.28970737E+00 0.66187494E+03</pdfrwt>
<pdfrwt beam="2">  1       -2 0.33029550E-01 0.66187494E+03</pdfrwt>
<totfact> 0.68816529E+01</totfact>
</mgrwt>
</event>
<event>
 4    1  0.3565372E-007  0.6737260E+03  0.7818608E-02  0.1013122E+00
         -2   -1    0    0    0  501 -0.00000000000E+00  0.00000000000E+00  0.10795850637E+03  0.10795850640E+03  0.25500000000E-02 0.  1.
          2   -1    0    0  501    0  0.00000000000E+00 -0.00000000000E+00 -0.20334472166E+04  0.20334472166E+04  0.25500000000E-02 0. -1.
    8880023    1    1    2    0    0 -0.31203321017E+02 -0.13828524073E+03 -0.17259388806E+04  0.18527740502E+04  0.65864270000E+03 0. -1.
    8880022    1    1    2    0    0  0.31203321017E+02  0.13828524073E+03 -0.19954982956E+03  0.28863167279E+03  0.15294330000E+03 0.  1.
<mgrwt>
<rscale>  0 0.50252627E+03</rscale>
<asrwt>0</asrwt>
<pdfrwt beam="1">  1        2 0.31283801E+00 0.67372595E+03</pdfrwt>
<pdfrwt beam="2">  1       -2 0.16609002E-01 0.67372595E+03</pdfrwt>
<totfact> 0.19461196E+02</totfact>
</mgrwt>
</event>
<event>
 4    1  0.3565372E-007  0.7257963E+03  0.7818608E-02  0.9903440E-01
          2   -1    0    0  501    0  0.00000000000E+00  0.00000000000E+00  0.43055106043E+03  0.43055106044E+03  0.25500000000E-02 0. -1.
         -2   -1    0    0    0  501 -0.00000000000E+00 -0.00000000000E+00 -0.11750723924E+04  0.11750723924E+04  0.25500000000E-02 0.  1.
    8880023    1    1    2    0    0 -0.30429304362E+03  0.19385967445E+02  0.63480002861E+02  0.72856707938E+03  0.65864270000E+03 0.  0.
    8880022    1    1    2    0    0  0.30429304362E+03 -0.19385967445E+02 -0.80800133479E+03  0.87705637342E+03  0.15294330000E+03 0.  0.
<mgrwt>
<rscale>  0 0.60094861E+03</rscale>
<asrwt>0</asrwt>
<pdfrwt beam="1">  1        2 0.66238625E-01 0.72579631E+03</pdfrwt>
<pdfrwt beam="2">  1       -2 0.18078037E+00 0.72579631E+03</pdfrwt>
<totfact> 0.13342872E+01</totfact>
</mgrwt>
</event>
<event>
 4    1  0.3565372E-007  0.7654761E+03  0.7818608E-02  0.9791131E-01
          2   -1    0    0  501    0  0.00000000000E+00  0.00000000000E+00  0.20649399373E+04  0.20649399373E+04  0.25500000000E-02 0. -1.
         -2   -1    0    0    0  501 -0.00000000000E+00 -0.00000000000E+00 -0.37032675469E+03  0.37032675470E+03  0.25500000000E-02 0.  1.
    8880023    1    1    2    0    0  0.68126957405E+02  0.38406001930E+03  0.18391308760E+04  0.19920732833E+04  0.65864270000E+03 0. -1.
    8880022    1    1    2    0    0 -0.68126957405E+02 -0.38406001930E+03 -0.14451769342E+03  0.44319340866E+03  0.15294330000E+03 0.  0.
<mgrwt>
<rscale>  0 0.65840661E+03</rscale>
<asrwt>0</asrwt>
<pdfrwt beam="1">  1        2 0.31768306E+00 0.76547605E+03</pdfrwt>
<pdfrwt beam="2">  1       -2 0.56973348E-01 0.76547605E+03</pdfrwt>
<totfact> 0.18348519E+01</totfact>
</mgrwt>
</event>
<event>
 4    1  0.3565372E-007  0.6945953E+03  0.7818608E-02  0.1002041E+00
          2   -1    0    0  501    0  0.00000000000E+00  0.00000000000E+00  0.51616804641E+03  0.51616804642E+03  0.25500000000E-02 0. -1.
         -2   -1    0    0    0  501 -0.00000000000E+00 -0.00000000000E+00 -0.56262102520E+03  0.56262102521E+03  0.25500000000E-02 0.  1.
    8880023    1    1    2    0    0 -0.19872810397E+03 -0.95705663856E+02  0.19104646763E+03  0.72038975038E+03  0.65864270000E+03 0. -1.
    8880022    1    1    2    0    0  0.19872810397E+03  0.95705663856E+02 -0.23749944642E+03  0.35839932124E+03  0.15294330000E+03 0.  0.
<mgrwt>
<rscale>  0 0.54764443E+03</rscale>
<asrwt>0</asrwt>
<pdfrwt beam="1">  1        2 0.79410469E-01 0.69459531E+03</pdfrwt>
<pdfrwt beam="2">  1       -2 0.86557081E-01 0.69459531E+03</pdfrwt>
<totfact> 0.69618443E+01</totfact>
</mgrwt>
</event>
<event>
 4    1  0.3565372E-007  0.7209722E+03  0.7818608E-02  0.9919310E-01
         -2   -1    0    0    0  501 -0.00000000000E+00  0.00000000000E+00  0.23435057270E+03  0.23435057271E+03  0.25500000000E-02 0.  1.
          2   -1    0    0  501    0  0.00000000000E+00 -0.00000000000E+00 -0.11829203004E+04  0.11829203004E+04  0.25500000000E-02 0. -1.
    8880023    1    1    2    0    0  0.26796646936E+03 -0.11909949578E+03 -0.68286973639E+03  0.99303172242E+03  0.65864270000E+03 0.  0.
    8880022    1    1    2    0    0 -0.26796646936E+03  0.11909949578E+03 -0.26569999135E+03  0.42423915073E+03  0.15294330000E+03 0. -1.
<mgrwt>
<rscale>  0 0.59334503E+03</rscale>
<asrwt>0</asrwt>
<pdfrwt beam="1">  1        2 0.18198774E+00 0.72097221E+03</pdfrwt>
<pdfrwt beam="2">  1       -2 0.36053935E-01 0.72097221E+03</pdfrwt>
<totfact> 0.14247983E+02</totfact>
</mgrwt>
</event>
<event>
 4    1  0.3565372E-007  0.8219137E+03  0.7818608E-02  0.9665276E-01
          2   -1    0    0  501    0  0.00000000000E+00  0.00000000000E+00  0.32717402001E+04  0.32717402001E+04  0.25500000000E-02 0. -1.
         -2   -1    0    0    0  501 -0.00000000000E+00 -0.00000000000E+00 -0.34479933763E+03  0.34479933764E+03  0.25500000000E-02 0.  1.
    8880023    1    1    2    0    0  0.13014142431E+03  0.47412562307E+03  0.29871202453E+04  0.30981332223E+04  0.65864270000E+03 0. -1.
    8880022    1    1    2    0    0 -0.13014142431E+03 -0.47412562307E+03 -0.60179382845E+02  0.51840631545E+03  0.15294330000E+03 0.  0.
<mgrwt>
<rscale>  0 0.73122444E+03</rscale>
<asrwt>0</asrwt>
<pdfrwt beam="1">  1        2 0.50334463E+00 0.82191368E+03</pdfrwt>
<pdfrwt beam="2">  1       -2 0.53046053E-01 0.82191368E+03</pdfrwt>
<totfact> 0.41368978E+00</totfact>
</mgrwt>
</event>
<event>
 4    1  0.3565372E-007  0.7330653E+03  0.7818608E-02  0.9880628E-01
          2   -1    0    0  501    0  0.00000000000E+00  0.00000000000E+00  0.13078521689E+04  0.13078521689E+04  0.25500000000E-02 0. -1.
         -2   -1    0    0    0  501 -0.00000000000E+00 -0.00000000000E+00 -0.52471351665E+03  0.52471351666E+03  0.25500000000E-02 0.  1.
    8880023    1    1    2    0    0  0.68763016357E+02  0.31439822755E+03  0.11223873937E+04  0.13405738568E+04  0.65864270000E+03 0. -1.
    8880022    1    1    2    0    0 -0.68763016357E+02 -0.31439822755E+03 -0.33924874145E+03  0.49199182869E+03  0.15294330000E+03 0.  0.
<mgrwt>
<rscale>  0 0.61209391E+03</rscale>
<asrwt>0</asrwt>
<pdfrwt beam="1">  1        2 0.20120802E+00 0.73306535E+03</pdfrwt>
<pdfrwt beam="2">  1       -2 0.80725157E-01 0.73306535E+03</pdfrwt>
<totfact> 0.22656547E+01</totfact>
</mgrwt>
</event>
<event>
 4    1  0.3565372E-007  0.9344505E+03  0.7818608E-02  0.9472848E-01
          2   -1    0    0  501    0  0.00000000000E+00  0.00000000000E+00  0.14118408198E+04  0.14118408198E+04  0.25500000000E-02 0. -1.
         -2   -1    0    0    0  501 -0.00000000000E+00 -0.00000000000E+00 -0.58395217314E+03  0.58395217315E+03  0.25500000000E-02 0.  1.
    8880023    1    1    2    0    0  0.61052264927E+03 -0.25816600426E+03  0.91756714146E+03  0.13096286712E+04  0.65864270000E+03 0. -1.
    8880022    1    1    2    0    0 -0.61052264927E+03  0.25816600426E+03 -0.89678494808E+02  0.68616432177E+03  0.15294330000E+03 0.  1.
<mgrwt>
<rscale>  0 0.86315536E+03</rscale>
<asrwt>0</asrwt>
<pdfrwt beam="1">  1        2 0.21720628E+00 0.93445053E+03</pdfrwt>
<pdfrwt beam="2">  1       -2 0.89838798E-01 0.93445053E+03</pdfrwt>
<totfact> 0.15149097E+01</totfact>
</mgrwt>
</event>
<event>
 4    1  0.3565372E-007  0.6706741E+03  0.7818608E-02  0.1015184E+00
         -2   -1    0    0    0  501 -0.00000000000E+00  0.00000000000E+00  0.68973105280E+02  0.68973105327E+02  0.25500000000E-02 0.  1.
          2   -1    0    0  501    0  0.00000000000E+00 -0.00000000000E+00 -0.27502394056E+04  0.27502394056E+04  0.25500000000E-02 0. -1.
    8880023    1    1    2    0    0  0.12245625046E+03  0.31591169384E+02 -0.21448534394E+04  0.22472650084E+04  0.65864270000E+03 0. -1.
    8880022    1    1    2    0    0 -0.12245625046E+03 -0.31591169384E+02 -0.53641286097E+03  0.57194750256E+03  0.15294330000E+03 0.  1.
<mgrwt>
<rscale>  0 0.49465256E+03</rscale>
<asrwt>0</asrwt>
<pdfrwt beam="1">  1        2 0.42311367E+00 0.67067409E+03</pdfrwt>
<pdfrwt beam="2">  1       -2 0.10611249E-01 0.67067409E+03</pdfrwt>
<totfact> 0.16301495E+02</totfact>
</mgrwt>
</event>
<event>
 4    1  0.3565372E-007  0.8344940E+03  0.7818608E-02  0.9640651E-01
          2   -1    0    0  501    0  0.00000000000E+00  0.00000000000E+00  0.73279595302E+03  0.73279595302E+03  0.25500000000E-02 0. -1.
         -2   -1    0    0    0  501 -0.00000000000E+00 -0.00000000000E+00 -0.78738742691E+03  0.78738742691E+03  0.25500000000E-02 0.  1.
    8880023    1    1    2    0    0  0.55305547902E+02  0.50942258687E+03  0.29065600247E+03  0.88366350704E+03  0.65864270000E+03 0.  0.
    8880022    1    1    2    0    0 -0.55305547902E+02 -0.50942258687E+03 -0.34524747636E+03  0.63651987289E+03  0.15294330000E+03 0.  0.
<mgrwt>
<rscale>  0 0.74663082E+03</rscale>
<asrwt>0</asrwt>
<pdfrwt beam="1">  1        2 0.11273784E+00 0.83449403E+03</pdfrwt>
<pdfrwt beam="2">  1       -2 0.12113653E+00 0.83449403E+03</pdfrwt>
<totfact> 0.20172317E+01</totfact>
</mgrwt>
</event>
<event>
 4    1  0.3565372E-007  0.9980535E+03  0.7818608E-02  0.9384109E-01
          2   -1    0    0  501    0  0.00000000000E+00  0.00000000000E+00  0.15612239182E+04  0.15612239182E+04  0.25500000000E-02 0. -1.
         -2   -1    0    0    0  501 -0.00000000000E+00 -0.00000000000E+00 -0.91021147193E+03  0.91021147193E+03  0.25500000000E-02 0.  1.
    8880023    1    1    2    0    0 -0.31342926822E+03  0.68122143958E+03  0.11767089436E+04  0.15429694424E+04  0.65864270000E+03 0.  0.
    8880022    1    1    2    0    0  0.31342926822E+03 -0.68122143958E+03 -0.52569649728E+03  0.92846594778E+03  0.15294330000E+03 0.  0.
<mgrwt>
<rscale>  0 0.93395090E+03</rscale>
<asrwt>0</asrwt>
<pdfrwt beam="1">  1        2 0.24018830E+00 0.99805349E+03</pdfrwt>
<pdfrwt beam="2">  1       -2 0.14003253E+00 0.99805349E+03</pdfrwt>
<totfact> 0.41817828E+00</totfact>
</mgrwt>
</event>
<event>
 4    1  0.3565372E-007  0.6900590E+03  0.7818608E-02  0.1004125E+00
         -2   -1    0    0    0  501 -0.00000000000E+00  0.00000000000E+00  0.80551017511E+03  0.80551017511E+03  0.25500000000E-02 0.  1.
          2   -1    0    0  501    0  0.00000000000E+00 -0.00000000000E+00 -0.78740182227E+03  0.78740182228E+03  0.25500000000E-02 0. -1.
    8880023    1    1    2    0    0 -0.16541188656E+03  0.12251605833E+03 -0.60587019425E+03  0.91829198805E+03  0.65864270000E+03 0. -1.
    8880022    1    1    2    0    0  0.16541188656E+03 -0.12251605833E+03  0.62397854709E+03  0.67462000934E+03  0.15294330000E+03 0.  0.
<mgrwt>
<rscale>  0 0.53878108E+03</rscale>
<asrwt>0</asrwt>
<pdfrwt beam="1">  1        2 0.12113874E+00 0.69005904E+03</pdfrwt>
<pdfrwt beam="2">  1       -2 0.12392464E+00 0.69005904E+03</pdfrwt>
<totfact> 0.17600754E+01</totfact>
</mgrwt>
</event>
<event>
 4    1  0.3565372E-007  0.7723617E+03  0.7818608E-02  0.9774095E-01
          2   -1    0    0  501    0  0.00000000000E+00  0.00000000000E+00  0.33174506534E+04  0.33174506534E+04  0.25500000000E-02 0. -1.
         -2   -1    0    0    0  501 -0.00000000000E+00 -0.00000000000E+00 -0.15102515245E+03  0.15102515247E+03  0.25500000000E-02 0.  1.
    8880023    1    1    2    0    0  0.33918225086E+03 -0.21837550763E+03  0.27932017129E+04  0.28980197510E+04  0.65864270000E+03 0. -1.
    8880022    1    1    2    0    0 -0.33918225086E+03  0.21837550763E+03  0.37322378806E+03  0.57045605494E+03  0.15294330000E+03 0.  0.
<mgrwt>
<rscale>  0 0.66771464E+03</rscale>
<asrwt>0</asrwt>
<pdfrwt beam="1">  1        2 0.51037699E+00 0.77236175E+03</pdfrwt>
<pdfrwt beam="2">  1       -2 0.23234640E-01 0.77236175E+03</pdfrwt>
<totfact> 0.18905771E+01</totfact>
</mgrwt>
</event>
<event>
 4    1  0.4445419E-007  0.8199286E+03  0.7818608E-02  0.9669256E-01
         -2   -1    0    0    0  501 -0.00000000000E+00  0.00000000000E+00  0.12007134051E+04  0.12007134051E+04  0.25500000000E-02 0.  1.
          2   -1    0    0  501    0  0.00000000000E+00 -0.00000000000E+00 -0.18103417798E+04  0.18103417798E+04  0.25500000000E-02 0. -1.
    8880023    1    1    2    0    0 -0.92603723427E+02 -0.47947595583E+03 -0.16551010533E+04  0.18470631675E+04  0.65864270000E+03 0. -1.
    8880022    1    1    2    0    0  0.92603723427E+02  0.47947595583E+03  0.10454726786E+04  0.11639920174E+04  0.15294330000E+03 0.  0.
<mgrwt>
<rscale>  0 0.72877178E+03</rscale>
<asrwt>0</asrwt>
<pdfrwt beam="1">  1        2 0.27851412E+00 0.81992856E+03</pdfrwt>
<pdfrwt beam="2">  1       -2 0.18472514E+00 0.81992856E+03</pdfrwt>
<totfact> 0.14671480E+00</totfact>
</mgrwt>
</event>
<event>
 4    1  0.3565372E-007  0.6797539E+03  0.7818608E-02  0.1009463E+00
          2   -1    0    0  501    0  0.00000000000E+00  0.00000000000E+00  0.31611850816E+04  0.31611850816E+04  0.25500000000E-02 0. -1.
         -2   -1    0    0    0  501 -0.00000000000E+00 -0.00000000000E+00 -0.26583818364E+03  0.26583818366E+03  0.25500000000E-02 0.  1.
    8880023    1    1    2    0    0 -0.13197805947E+03  0.10410086346E+03  0.30675043580E+04  0.31419179478E+04  0.65864270000E+03 0. -1.
    8880022    1    1    2    0    0  0.13197805947E+03 -0.10410086346E+03 -0.17215746008E+03  0.28510531744E+03  0.15294330000E+03 0.  0.
<mgrwt>
<rscale>  0 0.51688541E+03</rscale>
<asrwt>0</asrwt>
<pdfrwt beam="1">  1        2 0.48633619E+00 0.67975393E+03</pdfrwt>
<pdfrwt beam="2">  1       -2 0.40898180E-01 0.67975393E+03</pdfrwt>
<totfact> 0.84369097E+00</totfact>
</mgrwt>
</event>
<event>
 4    1  0.3565372E-007  0.7724662E+03  0.7818608E-02  0.9773841E-01
          2   -1    0    0  501    0  0.00000000000E+00  0.00000000000E+00  0.13448017062E+04  0.13448017062E+04  0.25500000000E-02 0. -1.
         -2   -1    0    0    0  501 -0.00000000000E+00 -0.00000000000E+00 -0.56249553361E+03  0.56249553362E+03  0.25500000000E-02 0.  1.
    8880023    1    1    2    0    0 -0.22674663495E+03  0.33388586784E+03  0.11191155474E+04  0.13598248505E+04  0.65864270000E+03 0. -1.
    8880022    1    1    2    0    0  0.22674663495E+03 -0.33388586784E+03 -0.33680937478E+03  0.54747238941E+03  0.15294330000E+03 0.  0.
<mgrwt>
<rscale>  0 0.66785469E+03</rscale>
<asrwt>0</asrwt>
<pdfrwt beam="1">  1        2 0.20689257E+00 0.77246619E+03</pdfrwt>
<pdfrwt beam="2">  1       -2 0.86537776E-01 0.77246619E+03</pdfrwt>
<totfact> 0.18344250E+01</totfact>
</mgrwt>
</event>
<event>
 4    1  0.3565372E-007  0.7654241E+03  0.7818608E-02  0.9791262E-01
         -2   -1    0    0    0  501 -0.00000000000E+00  0.00000000000E+00  0.24600599797E+03  0.24600599798E+03  0.25500000000E-02 0.  1.
          2   -1    0    0  501    0  0.00000000000E+00 -0.00000000000E+00 -0.18441434387E+04  0.18441434387E+04  0.25500000000E-02 0. -1.
    8880023    1    1    2    0    0  0.13600213208E+03 -0.36546846182E+03 -0.49851909368E+03  0.91345239041E+03  0.65864270000E+03 0.  0.
    8880022    1    1    2    0    0 -0.13600213208E+03  0.36546846182E+03 -0.10996183470E+04  0.11766970462E+04  0.15294330000E+03 0.  0.
<mgrwt>
<rscale>  0 0.65833574E+03</rscale>
<asrwt>0</asrwt>
<pdfrwt beam="1">  1        2 0.28371437E+00 0.76542405E+03</pdfrwt>
<pdfrwt beam="2">  1       -2 0.37847078E-01 0.76542405E+03</pdfrwt>
<totfact> 0.55064470E+01</totfact>
</mgrwt>
</event>
<event>
 4    1  0.3565372E-007  0.6645937E+03  0.7818608E-02  0.1019877E+00
          2   -1    0    0  501    0  0.00000000000E+00  0.00000000000E+00  0.17077123631E+04  0.17077123631E+04  0.25500000000E-02 0. -1.
         -2   -1    0    0    0  501 -0.00000000000E+00 -0.00000000000E+00 -0.13546543532E+03  0.13546543534E+03  0.25500000000E-02 0.  1.
    8880023    1    1    2    0    0 -0.13011813180E+02 -0.87779590390E+02  0.15197738622E+04  0.16587336622E+04  0.65864270000E+03 0.  0.
    8880022    1    1    2    0    0  0.13011813180E+02  0.87779590390E+02  0.52473065659E+02  0.18444413627E+03  0.15294330000E+03 0.  0.
<mgrwt>
<rscale>  0 0.47731115E+03</rscale>
<asrwt>0</asrwt>
<pdfrwt beam="1">  1        2 0.26272498E+00 0.66459369E+03</pdfrwt>
<pdfrwt beam="2">  1       -2 0.20840836E-01 0.66459369E+03</pdfrwt>
<totfact> 0.19767304E+02</totfact>
</mgrwt>
</event>
<event>
 4    1  0.3565372E-007  0.6800724E+03  0.7818608E-02  0.1009283E+00
         -2   -1    0    0    0  501 -0.00000000000E+00  0.00000000000E+00  0.54699512903E+03  0.54699512904E+03  0.25500000000E-02 0.  1.
          2   -1    0    0  501    0  0.00000000000E+00 -0.00000000000E+00 -0.17604506628E+04  0.17604506628E+04  0.25500000000E-02 0. -1.
    8880023    1    1    2    0    0 -0.12443130404E+03  0.11491356844E+03 -0.16666358400E+04  0.18000481957E+04  0.65864270000E+03 0. -1.
    8880022    1    1    2    0    0  0.12443130404E+03 -0.11491356844E+03  0.45318030618E+03  0.50739759613E+03  0.15294330000E+03 0.  0.
<mgrwt>
<rscale>  0 0.51760703E+03</rscale>
<asrwt>0</asrwt>
<pdfrwt beam="1">  1        2 0.27083856E+00 0.68007241E+03</pdfrwt>
<pdfrwt beam="2">  1       -2 0.84153098E-01 0.68007241E+03</pdfrwt>
<totfact> 0.11641988E+01</totfact>
</mgrwt>
</event>
<event>
 4    1  0.3565372E-007  0.8456401E+03  0.7818608E-02  0.9619636E-01
         -2   -1    0    0    0  501 -0.00000000000E+00  0.00000000000E+00  0.17474102345E+03  0.17474102347E+03  0.25500000000E-02 0.  1.
          2   -1    0    0  501    0  0.00000000000E+00 -0.00000000000E+00 -0.28017055417E+04  0.28017055417E+04  0.25500000000E-02 0. -1.
    8880023    1    1    2    0    0  0.28548212555E+03 -0.44698642250E+03 -0.16617920385E+04  0.18645803526E+04  0.65864270000E+03 0.  0.
    8880022    1    1    2    0    0 -0.28548212555E+03  0.44698642250E+03 -0.96517247979E+03  0.11118662126E+04  0.15294330000E+03 0.  1.
<mgrwt>
<rscale>  0 0.76010078E+03</rscale>
<asrwt>0</asrwt>
<pdfrwt beam="1">  1        2 0.43103159E+00 0.84564006E+03</pdfrwt>
<pdfrwt beam="2">  1       -2 0.26883236E-01 0.84564006E+03</pdfrwt>
<totfact> 0.30042582E+01</totfact>
</mgrwt>
</event>
<event>
 4    1  0.3565372E-007  0.7537442E+03  0.7818608E-02  0.9821581E-01
          2   -1    0    0  501    0  0.00000000000E+00  0.00000000000E+00  0.10382542776E+04  0.10382542776E+04  0.25500000000E-02 0. -1.
         -2   -1    0    0    0  501 -0.00000000000E+00 -0.00000000000E+00 -0.14826423952E+04  0.14826423952E+04  0.25500000000E-02 0.  1.
    8880023    1    1    2    0    0 -0.19312782402E+03  0.31148315903E+03  0.86808753755E+03  0.11496548586E+04  0.65864270000E+03 0. -1.
    8880022    1    1    2    0    0  0.19312782402E+03 -0.31148315903E+03 -0.13124756552E+04  0.13712418143E+04  0.15294330000E+03 0.  0.
<mgrwt>
<rscale>  0 0.64217146E+03</rscale>
<asrwt>0</asrwt>
<pdfrwt beam="1">  1        2 0.15973143E+00 0.75374420E+03</pdfrwt>
<pdfrwt beam="2">  1       -2 0.22809883E+00 0.75374420E+03</pdfrwt>
<totfact> 0.21535203E+00</totfact>
</mgrwt>
</event>
<event>
 4    1  0.3565372E-007  0.7074210E+03  0.7818608E-02  0.9967705E-01
         -2   -1    0    0    0  501 -0.00000000000E+00  0.00000000000E+00  0.18396440671E+03  0.18396440672E+03  0.25500000000E-02 0.  1.
          2   -1    0    0  501    0  0.00000000000E+00 -0.00000000000E+00 -0.18628023461E+04  0.18628023461E+04  0.25500000000E-02 0. -1.
    8880023    1    1    2    0    0  0.17572977413E+03  0.18908550537E+03 -0.15795390677E+04  0.17307189704E+04  0.65864270000E+03 0.  1.
    8880022    1    1    2    0    0 -0.17572977413E+03 -0.18908550537E+03 -0.99298871739E+02  0.31604778246E+03  0.15294330000E+03 0.  0.
<mgrwt>
<rscale>  0 0.57089261E+03</rscale>
<asrwt>0</asrwt>
<pdfrwt beam="1">  1        2 0.28658496E+00 0.70742101E+03</pdfrwt>
<pdfrwt beam="2">  1       -2 0.28302218E-01 0.70742101E+03</pdfrwt>
<totfact> 0.93567899E+01</totfact>
</mgrwt>
</event>
<event>
 4    1  0.3565372E-007  0.1014678E+04  0.7818608E-02  0.9362601E-01
          2   -1    0    0  501    0  0.00000000000E+00  0.00000000000E+00  0.19502083794E+04  0.19502083794E+04  0.25500000000E-02 0. -1.
         -2   -1    0    0    0  501 -0.00000000000E+00 -0.00000000000E+00 -0.47327858020E+03  0.47327858021E+03  0.25500000000E-02 0.  1.
    8880023    1    1    2    0    0  0.67137931736E+03 -0.38080409448E+03  0.12389426797E+04  0.16014215922E+04  0.65864270000E+03 0. -1.
    8880022    1    1    2    0    0 -0.67137931736E+03  0.38080409448E+03  0.23798711943E+03  0.82206536734E+03  0.15294330000E+03 0.  1.
<mgrwt>
<rscale>  0 0.95218447E+03</rscale>
<asrwt>0</asrwt>
<pdfrwt beam="1">  1        2 0.30003206E+00 0.10146783E+04</pdfrwt>
<pdfrwt beam="2">  1       -2 0.72812089E-01 0.10146783E+04</pdfrwt>
<totfact> 0.12147049E+01</totfact>
</mgrwt>
</event>
<event>
 4    1  0.3565372E-007  0.9166957E+03  0.7818608E-02  0.9499744E-01
         -2   -1    0    0    0  501 -0.00000000000E+00  0.00000000000E+00  0.13151693361E+04  0.13151693361E+04  0.25500000000E-02 0.  1.
          2   -1    0    0  501    0  0.00000000000E+00 -0.00000000000E+00 -0.72694038487E+03  0.72694038488E+03  0.25500000000E-02 0. -1.
    8880023    1    1    2    0    0 -0.32157398200E+03 -0.55055507999E+03 -0.27596316725E+03  0.95733306532E+03  0.65864270000E+03 0. -1.
    8880022    1    1    2    0    0  0.32157398200E+03  0.55055507999E+03  0.86419211846E+03  0.10847766556E+04  0.15294330000E+03 0.  1.
<mgrwt>
<rscale>  0 0.84302679E+03</rscale>
<asrwt>0</asrwt>
<pdfrwt beam="1">  1        2 0.11183698E+00 0.91669566E+03</pdfrwt>
<pdfrwt beam="2">  1       -2 0.20233374E+00 0.91669566E+03</pdfrwt>
<totfact> 0.50224528E+00</totfact>
</mgrwt>
</event>
<event>
 4    1  0.3565372E-007  0.6745021E+03  0.7818608E-02  0.1012622E+00
         -2   -1    0    0    0  501 -0.00000000000E+00  0.00000000000E+00  0.14332980871E+03  0.14332980873E+03  0.25500000000E-02 0.  1.
          2   -1    0    0  501    0  0.00000000000E+00 -0.00000000000E+00 -0.30190224412E+04  0.30190224412E+04  0.25500000000E-02 0. -1.
    8880023    1    1    2    0    0  0.10173844218E+03  0.10388529100E+03 -0.28731952164E+04  0.29513054437E+04  0.65864270000E+03 0.  0.
    8880022    1    1    2    0    0 -0.10173844218E+03 -0.10388529100E+03 -0.24974160641E+01  0.21104680619E+03  0.15294330000E+03 0.  0.
<mgrwt>
<rscale>  0 0.50445748E+03</rscale>
<asrwt>0</asrwt>
<pdfrwt beam="1">  1        2 0.46446494E+00 0.67450209E+03</pdfrwt>
<pdfrwt beam="2">  1       -2 0.22050742E-01 0.67450209E+03</pdfrwt>
<totfact> 0.32572914E+01</totfact>
</mgrwt>
</event>
<event>
 4    1  0.3565372E-007  0.1165896E+04  0.7818608E-02  0.9191008E-01
         -2   -1    0    0    0  501 -0.00000000000E+00  0.00000000000E+00  0.14305250168E+04  0.14305250168E+04  0.25500000000E-02 0.  1.
          2   -1    0    0  501    0  0.00000000000E+00 -0.00000000000E+00 -0.13689114644E+04  0.13689114644E+04  0.25500000000E-02 0. -1.
    8880023    1    1    2    0    0  0.81886332809E+03  0.50494264343E+03  0.93237943395E+03  0.14928649766E+04  0.65864270000E+03 0.  0.
    8880022    1    1    2    0    0 -0.81886332809E+03 -0.50494264343E+03 -0.87076588148E+03  0.13065715046E+04  0.15294330000E+03 0.  0.
<mgrwt>
<rscale>  0 0.11146725E+04</rscale>
<asrwt>0</asrwt>
<pdfrwt beam="1">  1        2 0.21060176E+00 0.11658964E+04</pdfrwt>
<pdfrwt beam="2">  1       -2 0.22008077E+00 0.11658964E+04</pdfrwt>
<totfact> 0.14502664E+00</totfact>
</mgrwt>
</event>
<event>
 4    1  0.3565372E-007  0.1026752E+04  0.7818608E-02  0.9347365E-01
          2   -1    0    0  501    0  0.00000000000E+00  0.00000000000E+00  0.29290904250E+04  0.29290904250E+04  0.25500000000E-02 0. -1.
         -2   -1    0    0    0  501 -0.00000000000E+00 -0.00000000000E+00 -0.52111848705E+03  0.52111848705E+03  0.25500000000E-02 0.  1.
    8880023    1    1    2    0    0 -0.70598608308E+03 -0.34927627075E+03  0.24399671710E+04  0.26471985691E+04  0.65864270000E+03 0.  0.
    8880022    1    1    2    0    0  0.70598608308E+03  0.34927627075E+03 -0.31995233040E+02  0.80301034288E+03  0.15294330000E+03 0.  0.
<mgrwt>
<rscale>  0 0.96536895E+03</rscale>
<asrwt>0</asrwt>
<pdfrwt beam="1">  1        2 0.45062930E+00 0.10267524E+04</pdfrwt>
<pdfrwt beam="2">  1       -2 0.80172075E-01 0.10267524E+04</pdfrwt>
<totfact> 0.26926835E+00</totfact>
</mgrwt>
</event>
<event>
 4    1  0.3565372E-007  0.6874487E+03  0.7818608E-02  0.1005389E+00
          2   -1    0    0  501    0  0.00000000000E+00  0.00000000000E+00  0.39387438987E+04  0.39387438987E+04  0.25500000000E-02 0. -1.
         -2   -1    0    0    0  501 -0.00000000000E+00 -0.00000000000E+00 -0.61218099904E+02  0.61218099957E+02  0.25500000000E-02 0.  1.
    8880023    1    1    2    0    0  0.20628135378E+01 -0.19690431570E+03  0.33011308147E+04  0.33719505374E+04  0.65864270000E+03 0. -1.
    8880022    1    1    2    0    0 -0.20628135378E+01  0.19690431570E+03  0.57639498403E+03  0.62801146118E+03  0.15294330000E+03 0.  0.
<mgrwt>
<rscale>  0 0.53348894E+03</rscale>
<asrwt>0</asrwt>
<pdfrwt beam="1">  1        2 0.60596076E+00 0.68744874E+03</pdfrwt>
<pdfrwt beam="2">  1       -2 0.94181668E-02 0.68744874E+03</pdfrwt>
<totfact> 0.32182186E+01</totfact>
</mgrwt>
</event>
<event>
 4    1  0.3565372E-007  0.7622640E+03  0.7818608E-02  0.9799281E-01
          2   -1    0    0  501    0  0.00000000000E+00  0.00000000000E+00  0.30080823264E+04  0.30080823264E+04  0.25500000000E-02 0. -1.
         -2   -1    0    0    0  501 -0.00000000000E+00 -0.00000000000E+00 -0.46129067171E+03  0.46129067172E+03  0.25500000000E-02 0.  1.
    8880023    1    1    2    0    0 -0.14112745857E+03 -0.35681829873E+03  0.28543486837E+04  0.29543785933E+04  0.65864270000E+03 0. -1.
    8880022    1    1    2    0    0  0.14112745857E+03  0.35681829873E+03 -0.30755702905E+03  0.51499440483E+03  0.15294330000E+03 0.  0.
<mgrwt>
<rscale>  0 0.65401142E+03</rscale>
<asrwt>0</asrwt>
<pdfrwt beam="1">  1        2 0.46278190E+00 0.76226404E+03</pdfrwt>
<pdfrwt beam="2">  1       -2 0.70967795E-01 0.76226404E+03</pdfrwt>
<totfact> 0.33048811E+00</totfact>
</mgrwt>
</event>
<event>
 4    1  0.3565372E-007  0.1109190E+04  0.7818608E-02  0.9250893E-01
          2   -1    0    0  501    0  0.00000000000E+00  0.00000000000E+00  0.11256816236E+04  0.11256816236E+04  0.25500000000E-02 0. -1.
         -2   -1    0    0    0  501 -0.00000000000E+00 -0.00000000000E+00 -0.11997969624E+04  0.11997969624E+04  0.25500000000E-02 0.  1.
    8880023    1    1    2    0    0  0.71398936056E+03 -0.53545341102E+03  0.53773512760E+03  0.12326639591E+04  0.65864270000E+03 0.  0.
    8880022    1    1    2    0    0 -0.71398936056E+03  0.53545341102E+03 -0.61185046645E+03  0.10928146269E+04  0.15294330000E+03 0.  0.
<mgrwt>
<rscale>  0 0.10543220E+04</rscale>
<asrwt>0</asrwt>
<pdfrwt beam="1">  1        2 0.17318179E+00 0.11091895E+04</pdfrwt>
<pdfrwt beam="2">  1       -2 0.18458415E+00 0.11091895E+04</pdfrwt>
<totfact> 0.34728051E+00</totfact>
</mgrwt>
</event>
<event>
 4    1  0.3565372E-007  0.7057229E+03  0.7818608E-02  0.9974240E-01
          2   -1    0    0  501    0  0.00000000000E+00  0.00000000000E+00  0.27279639845E+04  0.27279639845E+04  0.25500000000E-02 0. -1.
         -2   -1    0    0    0  501 -0.00000000000E+00 -0.00000000000E+00 -0.24425755420E+03  0.24425755421E+03  0.25500000000E-02 0.  1.
    8880023    1    1    2    0    0 -0.24941609660E+03  0.45013582075E+02  0.25689921886E+04  0.26641632238E+04  0.65864270000E+03 0. -1.
    8880022    1    1    2    0    0  0.24941609660E+03 -0.45013582075E+02 -0.85285758268E+02  0.30805831492E+03  0.15294330000E+03 0.  0.
<mgrwt>
<rscale>  0 0.56794326E+03</rscale>
<asrwt>0</asrwt>
<pdfrwt beam="1">  1        2 0.41968675E+00 0.70572290E+03</pdfrwt>
<pdfrwt beam="2">  1       -2 0.37578087E-01 0.70572290E+03</pdfrwt>
<totfact> 0.18092571E+01</totfact>
</mgrwt>
</event>
<event>
 4    1  0.3565372E-007  0.9729658E+03  0.7818608E-02  0.9417814E-01
         -2   -1    0    0    0  501 -0.00000000000E+00  0.00000000000E+00  0.31961335033E+03  0.31961335034E+03  0.25500000000E-02 0.  1.
          2   -1    0    0  501    0  0.00000000000E+00 -0.00000000000E+00 -0.33362557887E+04  0.33362557887E+04  0.25500000000E-02 0. -1.
    8880023    1    1    2    0    0 -0.14394627766E+03  0.70152098483E+03 -0.26776157294E+04  0.28489100413E+04  0.65864270000E+03 0. -1.
    8880022    1    1    2    0    0  0.14394627766E+03 -0.70152098483E+03 -0.33902670902E+03  0.80695909776E+03  0.15294330000E+03 0.  0.
<mgrwt>
<rscale>  0 0.90624051E+03</rscale>
<asrwt>0</asrwt>
<pdfrwt beam="1">  1        2 0.51327010E+00 0.97296579E+03</pdfrwt>
<pdfrwt beam="2">  1       -2 0.49171287E-01 0.97296579E+03</pdfrwt>
<totfact> 0.42744642E+00</totfact>
</mgrwt>
</event>
<event>
 4    1  0.3565372E-007  0.7665474E+03  0.7818608E-02  0.9788443E-01
         -2   -1    0    0    0  501 -0.00000000000E+00  0.00000000000E+00  0.49964505083E+03  0.49964505083E+03  0.25500000000E-02 0.  1.
          2   -1    0    0  501    0  0.00000000000E+00 -0.00000000000E+00 -0.11611384347E+04  0.11611384347E+04  0.25500000000E-02 0. -1.
    8880023    1    1    2    0    0 -0.38356087933E+03 -0.81644206254E+02 -0.89582884131E+03  0.11790268206E+04  0.65864270000E+03 0.  0.
    8880022    1    1    2    0    0  0.38356087933E+03  0.81644206254E+02  0.23433545743E+03  0.48175666492E+03  0.15294330000E+03 0.  0.
<mgrwt>
<rscale>  0 0.65986485E+03</rscale>
<asrwt>0</asrwt>
<pdfrwt beam="1">  1        2 0.17863668E+00 0.76654741E+03</pdfrwt>
<pdfrwt beam="2">  1       -2 0.76868470E-01 0.76654741E+03</pdfrwt>
<totfact> 0.30713662E+01</totfact>
</mgrwt>
</event>
<event>
 4    1  0.3565372E-007  0.1578351E+04  0.7818608E-02  0.8856204E-01
         -2   -1    0    0    0  501 -0.00000000000E+00  0.00000000000E+00  0.12688768261E+04  0.12688768261E+04  0.25500000000E-02 0.  1.
          2   -1    0    0  501    0  0.00000000000E+00 -0.00000000000E+00 -0.26577285047E+04  0.26577285047E+04  0.25500000000E-02 0. -1.
    8880023    1    1    2    0    0 -0.13355122171E+04 -0.52324726307E+03 -0.18314660127E+04  0.24177383114E+04  0.65864270000E+03 0.  0.
    8880022    1    1    2    0    0  0.13355122171E+04  0.52324726307E+03  0.44261433410E+03  0.15088670194E+04  0.15294330000E+03 0.  0.
<mgrwt>
<rscale>  0 0.15432301E+04</rscale>
<asrwt>0</asrwt>
<pdfrwt beam="1">  1        2 0.40888131E+00 0.15783507E+04</pdfrwt>
<pdfrwt beam="2">  1       -2 0.19521182E+00 0.15783507E+04</pdfrwt>
<totfact> 0.37533169E-01</totfact>
</mgrwt>
</event>
<event>
 4    1  0.3565372E-007  0.7711107E+03  0.7818608E-02  0.9777148E-01
         -2   -1    0    0    0  501 -0.00000000000E+00  0.00000000000E+00  0.18928933488E+03  0.18928933490E+03  0.25500000000E-02 0.  1.
          2   -1    0    0  501    0  0.00000000000E+00 -0.00000000000E+00 -0.20997923338E+04  0.20997923338E+04  0.25500000000E-02 0. -1.
    8880023    1    1    2    0    0  0.36834343515E+03 -0.15850754709E+03 -0.15393046477E+04  0.17216476217E+04  0.65864270000E+03 0.  0.
    8880022    1    1    2    0    0 -0.36834343515E+03  0.15850754709E+03 -0.37119835120E+03  0.56743404696E+03  0.15294330000E+03 0.  0.
<mgrwt>
<rscale>  0 0.66603453E+03</rscale>
<asrwt>0</asrwt>
<pdfrwt beam="1">  1        2 0.32304496E+00 0.77111072E+03</pdfrwt>
<pdfrwt beam="2">  1       -2 0.29121438E-01 0.77111072E+03</pdfrwt>
<totfact> 0.65451490E+01</totfact>
</mgrwt>
</event>
<event>
 4    1  0.3565372E-007  0.1018662E+04  0.7818608E-02  0.9357539E-01
         -2   -1    0    0    0  501 -0.00000000000E+00  0.00000000000E+00  0.93585532599E+03  0.93585532600E+03  0.25500000000E-02 0.  1.
          2   -1    0    0  501    0  0.00000000000E+00 -0.00000000000E+00 -0.10745351833E+04  0.10745351833E+04  0.25500000000E-02 0. -1.
    8880023    1    1    2    0    0 -0.28961268742E+03  0.72110106658E+03 -0.50594152923E+03  0.11373870468E+04  0.65864270000E+03 0. -1.
    8880022    1    1    2    0    0  0.28961268742E+03 -0.72110106658E+03  0.36726167190E+03  0.87300346253E+03  0.15294330000E+03 0.  1.
<mgrwt>
<rscale>  0 0.95653977E+03</rscale>
<asrwt>0</asrwt>
<pdfrwt beam="1">  1        2 0.16531310E+00 0.10186621E+04</pdfrwt>
<pdfrwt beam="2">  1       -2 0.14397774E+00 0.10186621E+04</pdfrwt>
<totfact> 0.74642791E+00</totfact>
</mgrwt>
</event>
<event>
 4    1  0.3565372E-007  0.9330600E+03  0.7818608E-02  0.9474918E-01
          2   -1    0    0  501    0  0.00000000000E+00  0.00000000000E+00  0.53399908688E+03  0.53399908688E+03  0.25500000000E-02 0. -1.
         -2   -1    0    0    0  501 -0.00000000000E+00 -0.00000000000E+00 -0.12847664101E+04  0.12847664101E+04  0.25500000000E-02 0.  1.
    8880023    1    1    2    0    0 -0.25763802395E+02  0.66039907457E+03 -0.22316098072E+03  0.95937570367E+03  0.65864270000E+03 0.  0.
    8880022    1    1    2    0    0  0.25763802395E+02 -0.66039907457E+03 -0.52760634251E+03  0.85938979333E+03  0.15294330000E+03 0.  0.
<mgrwt>
<rscale>  0 0.86158557E+03</rscale>
<asrwt>0</asrwt>
<pdfrwt beam="1">  1        2 0.82153706E-01 0.93305998E+03</pdfrwt>
<pdfrwt beam="2">  1       -2 0.19765637E+00 0.93305998E+03</pdfrwt>
<totfact> 0.78621768E+00</totfact>
</mgrwt>
</event>
<event>
 4    1  0.3565372E-007  0.6776683E+03  0.7818608E-02  0.1010675E+00
         -2   -1    0    0    0  501 -0.00000000000E+00  0.00000000000E+00  0.10504320913E+03  0.10504320916E+03  0.25500000000E-02 0.  1.
          2   -1    0    0  501    0  0.00000000000E+00 -0.00000000000E+00 -0.21318781964E+04  0.21318781964E+04  0.25500000000E-02 0. -1.
    8880023    1    1    2    0    0  0.15797062657E+03 -0.21665456504E+02 -0.17852344486E+04  0.19095277829E+04  0.65864270000E+03 0. -1.
    8880022    1    1    2    0    0 -0.15797062657E+03  0.21665456504E+02 -0.24160053864E+03  0.32739362264E+03  0.15294330000E+03 0.  0.
<mgrwt>
<rscale>  0 0.51207419E+03</rscale>
<asrwt>0</asrwt>
<pdfrwt beam="1">  1        2 0.32798123E+00 0.67766829E+03</pdfrwt>
<pdfrwt beam="2">  1       -2 0.16160495E-01 0.67766829E+03</pdfrwt>
<totfact> 0.18011419E+02</totfact>
</mgrwt>
</event>
<event>
 4    1  0.3565372E-007  0.8311996E+03  0.7818608E-02  0.9647003E-01
         -2   -1    0    0    0  501 -0.00000000000E+00  0.00000000000E+00  0.44503772246E+03  0.44503772246E+03  0.25500000000E-02 0.  1.
          2   -1    0    0  501    0  0.00000000000E+00 -0.00000000000E+00 -0.10893905544E+04  0.10893905544E+04  0.25500000000E-02 0. -1.
    8880023    1    1    2    0    0  0.13512942494E+03  0.48869487076E+03 -0.54946731025E+03  0.99639709427E+03  0.65864270000E+03 0.  0.
    8880022    1    1    2    0    0 -0.13512942494E+03 -0.48869487076E+03 -0.94885521688E+02  0.53803118258E+03  0.15294330000E+03 0.  0.
<mgrwt>
<rscale>  0 0.74261829E+03</rscale>
<asrwt>0</asrwt>
<pdfrwt beam="1">  1        2 0.16759855E+00 0.83119964E+03</pdfrwt>
<pdfrwt beam="2">  1       -2 0.68467342E-01 0.83119964E+03</pdfrwt>
<totfact> 0.43557644E+01</totfact>
</mgrwt>
</event>
<event>
 4    1  0.3565372E-007  0.9395888E+03  0.7818608E-02  0.9465254E-01
         -2   -1    0    0    0  501 -0.00000000000E+00  0.00000000000E+00  0.66534804683E+03  0.66534804683E+03  0.25500000000E-02 0.  1.
          2   -1    0    0  501    0  0.00000000000E+00 -0.00000000000E+00 -0.28005610896E+04  0.28005610896E+04  0.25500000000E-02 0. -1.
    8880023    1    1    2    0    0 -0.63232421068E+03  0.22177239080E+03 -0.25120815710E+04  0.26820478978E+04  0.65864270000E+03 0. -1.
    8880022    1    1    2    0    0  0.63232421068E+03 -0.22177239080E+03  0.37686852824E+03  0.78386123857E+03  0.15294330000E+03 0.  0.
<mgrwt>
<rscale>  0 0.86894661E+03</rscale>
<asrwt>0</asrwt>
<pdfrwt beam="1">  1        2 0.43085555E+00 0.93958880E+03</pdfrwt>
<pdfrwt beam="2">  1       -2 0.10236124E+00 0.93958880E+03</pdfrwt>
<totfact> 0.18493243E+00</totfact>
</mgrwt>
</event>
<event>
 4    1  0.3565372E-007  0.9035521E+03  0.7818608E-02  0.9520353E-01
         -2   -1    0    0    0  501 -0.00000000000E+00  0.00000000000E+00  0.27392577620E+03  0.27392577621E+03  0.25500000000E-02 0.  1.
          2   -1    0    0  501    0  0.00000000000E+00 -0.00000000000E+00 -0.22719820285E+04  0.22719820285E+04  0.25500000000E-02 0. -1.
    8880023    1    1    2    0    0 -0.48807711888E+03 -0.37996952337E+03 -0.14340921746E+04  0.16950004968E+04  0.65864270000E+03 0.  1.
    8880022    1    1    2    0    0  0.48807711888E+03  0.37996952337E+03 -0.56396407764E+03  0.85090730785E+03  0.15294330000E+03 0.  0.
<mgrwt>
<rscale>  0 0.82799746E+03</rscale>
<asrwt>0</asrwt>
<pdfrwt beam="1">  1        2 0.34953569E+00 0.90355206E+03</pdfrwt>
<pdfrwt beam="2">  1       -2 0.42142429E-01 0.90355206E+03</pdfrwt>
<totfact> 0.25567600E+01</totfact>
</mgrwt>
</event>
<event>
 4    1  0.3565372E-007  0.6866459E+03  0.7818608E-02  0.1005789E+00
          2   -1    0    0  501    0  0.00000000000E+00  0.00000000000E+00  0.27985816968E+04  0.27985816968E+04  0.25500000000E-02 0. -1.
         -2   -1    0    0    0  501 -0.00000000000E+00 -0.00000000000E+00 -0.40375488932E+03  0.40375488933E+03  0.25500000000E-02 0.  1.
    8880023    1    1    2    0    0 -0.18208776311E+03  0.67204332879E+02  0.27135282967E+04  0.27990566981E+04  0.65864270000E+03 0. -1.
    8880022    1    1    2    0    0  0.18208776311E+03 -0.67204332879E+02 -0.31870148924E+03  0.40327988803E+03  0.15294330000E+03 0.  0.
<mgrwt>
<rscale>  0 0.53182996E+03</rscale>
<asrwt>0</asrwt>
<pdfrwt beam="1">  1        2 0.43055104E+00 0.68664589E+03</pdfrwt>
<pdfrwt beam="2">  1       -2 0.62116135E-01 0.68664589E+03</pdfrwt>
<totfact> 0.59761087E+00</totfact>
</mgrwt>
</event>
<event>
 4    1  0.3565372E-007  0.6826528E+03  0.7818608E-02  0.1007861E+00
          2   -1    0    0  501    0  0.00000000000E+00  0.00000000000E+00  0.19755853122E+04  0.19755853122E+04  0.25500000000E-02 0. -1.
         -2   -1    0    0    0  501 -0.00000000000E+00 -0.00000000000E+00 -0.11006331870E+03  0.11006331873E+03  0.25500000000E-02 0.  1.
    8880023    1    1    2    0    0 -0.14960405951E+03 -0.99112207898E+02  0.15318433889E+04  0.16770685671E+04  0.65864270000E+03 0.  0.
    8880022    1    1    2    0    0  0.14960405951E+03  0.99112207898E+02  0.33367860453E+03  0.40858006377E+03  0.15294330000E+03 0. -1.
<mgrwt>
<rscale>  0 0.52333597E+03</rscale>
<asrwt>0</asrwt>
<pdfrwt beam="1">  1        2 0.30393619E+00 0.68265277E+03</pdfrwt>
<pdfrwt beam="2">  1       -2 0.16932819E-01 0.68265277E+03</pdfrwt>
<totfact> 0.20227008E+02</totfact>
</mgrwt>
</event>
<event>
 4    1  0.3565372E-007  0.7178265E+03  0.7818608E-02  0.9930010E-01
          2   -1    0    0  501    0  0.00000000000E+00  0.00000000000E+00  0.33609589260E+04  0.33609589260E+04  0.25500000000E-02 0. -1.
         -2   -1    0    0    0  501 -0.00000000000E+00 -0.00000000000E+00 -0.14576708256E+03  0.14576708258E+03  0.25500000000E-02 0.  1.
    8880023    1    1    2    0    0  0.10450676297E+03 -0.26559947962E+03  0.30683035499E+04  0.31511524285E+04  0.65864270000E+03 0.  0.
    8880022    1    1    2    0    0 -0.10450676297E+03  0.26559947962E+03  0.14688829361E+03  0.35557358014E+03  0.15294330000E+03 0.  1.
<mgrwt>
<rscale>  0 0.58828667E+03</rscale>
<asrwt>0</asrwt>
<pdfrwt beam="1">  1        2 0.51707053E+00 0.71782655E+03</pdfrwt>
<pdfrwt beam="2">  1       -2 0.22425708E-01 0.71782655E+03</pdfrwt>
<totfact> 0.19035087E+01</totfact>
</mgrwt>
</event>
<event>
 4    1  0.3565372E-007  0.7185929E+03  0.7818608E-02  0.9927376E-01
          2   -1    0    0  501    0  0.00000000000E+00  0.00000000000E+00  0.16676521660E+04  0.16676521660E+04  0.25500000000E-02 0. -1.
         -2   -1    0    0    0  501 -0.00000000000E+00 -0.00000000000E+00 -0.23550784094E+03  0.23550784095E+03  0.25500000000E-02 0.  1.
    8880023    1    1    2    0    0  0.27921959290E+03  0.67837361966E+02  0.14030341273E+04  0.15763503600E+04  0.65864270000E+03 0.  0.
    8880022    1    1    2    0    0 -0.27921959290E+03 -0.67837361966E+02  0.29110197758E+02  0.32680964699E+03  0.15294330000E+03 0.  0.
<mgrwt>
<rscale>  0 0.58952666E+03</rscale>
<asrwt>0</asrwt>
<pdfrwt beam="1">  1        2 0.25656187E+00 0.71859286E+03</pdfrwt>
<pdfrwt beam="2">  1       -2 0.36231976E-01 0.71859286E+03</pdfrwt>
<totfact> 0.75138899E+01</totfact>
</mgrwt>
</event>
<event>
 4    1  0.3565372E-007  0.7000307E+03  0.7818608E-02  0.9997074E-01
         -2   -1    0    0    0  501 -0.00000000000E+00  0.00000000000E+00  0.32416186258E+03  0.32416186259E+03  0.25500000000E-02 0.  1.
          2   -1    0    0  501    0  0.00000000000E+00 -0.00000000000E+00 -0.13656779165E+04  0.13656779165E+04  0.25500000000E-02 0. -1.
    8880023    1    1    2    0    0 -0.14159787743E+03 -0.19021769918E+03 -0.11826759038E+04  0.13743235542E+04  0.65864270000E+03 0. -1.
    8880022    1    1    2    0    0  0.14159787743E+03  0.19021769918E+03  0.14115984982E+03  0.31551622493E+03  0.15294330000E+03 0.  0.
<mgrwt>
<rscale>  0 0.55778722E+03</rscale>
<asrwt>0</asrwt>
<pdfrwt beam="1">  1        2 0.21010429E+00 0.70003067E+03</pdfrwt>
<pdfrwt beam="2">  1       -2 0.49871057E-01 0.70003067E+03</pdfrwt>
<totfact> 0.59012046E+01</totfact>
</mgrwt>
</event>
<event>
 4    1  0.3565372E-007  0.6595451E+03  0.7818608E-02  0.1024627E+00
          2   -1    0    0  501    0  0.00000000000E+00  0.00000000000E+00  0.84296308506E+03  0.84296308507E+03  0.25500000000E-02 0. -1.
         -2   -1    0    0    0  501 -0.00000000000E+00 -0.00000000000E+00 -0.11605365213E+04  0.11605365213E+04  0.25500000000E-02 0.  1.
    8880023    1    1    2    0    0 -0.10924346072E+02  0.32713131777E+02  0.70707213322E+03  0.96692848659E+03  0.65864270000E+03 0. -1.
    8880022    1    1    2    0    0  0.10924346072E+02 -0.32713131777E+02 -0.10246455694E+04  0.10365711198E+04  0.15294330000E+03 0.  0.
<mgrwt>
<rscale>  0 0.46053073E+03</rscale>
<asrwt>0</asrwt>
<pdfrwt beam="1">  1        2 0.12968663E+00 0.65954507E+03</pdfrwt>
<pdfrwt beam="2">  1       -2 0.17854408E+00 0.65954507E+03</pdfrwt>
<totfact> 0.61483791E+00</totfact>
</mgrwt>
</event>
<event>
 4    1  0.3565372E-007  0.1084015E+04  0.7818608E-02  0.9279066E-01
         -2   -1    0    0    0  501 -0.00000000000E+00  0.00000000000E+00  0.15251856844E+04  0.15251856844E+04  0.25500000000E-02 0.  1.
          2   -1    0    0  501    0  0.00000000000E+00 -0.00000000000E+00 -0.91165806515E+03  0.91165806516E+03  0.25500000000E-02 0. -1.
    8880023    1    1    2    0    0  0.83709285100E+03  0.20137846558E+03 -0.34670340083E+03  0.11381085985E+04  0.65864270000E+03 0.  0.
    8880022    1    1    2    0    0 -0.83709285100E+03 -0.20137846558E+03  0.96023102005E+03  0.12987351510E+04  0.15294330000E+03 0.  0.
<mgrwt>
<rscale>  0 0.10273315E+04</rscale>
<asrwt>0</asrwt>
<pdfrwt beam="1">  1        2 0.14025509E+00 0.10840147E+04</pdfrwt>
<pdfrwt beam="2">  1       -2 0.23464395E+00 0.10840147E+04</pdfrwt>
<totfact> 0.22704464E+00</totfact>
</mgrwt>
</event>
<event>
 4    1  0.3565372E-007  0.8472216E+03  0.7818608E-02  0.9616711E-01
         -2   -1    0    0    0  501 -0.00000000000E+00  0.00000000000E+00  0.12660311917E+04  0.12660311917E+04  0.25500000000E-02 0.  1.
          2   -1    0    0  501    0  0.00000000000E+00 -0.00000000000E+00 -0.40767413063E+03  0.40767413064E+03  0.25500000000E-02 0. -1.
    8880023    1    1    2    0    0  0.12777012131E+03 -0.51734808029E+03  0.33422628155E+03  0.91076432386E+03  0.65864270000E+03 0. -1.
    8880022    1    1    2    0    0 -0.12777012131E+03  0.51734808029E+03  0.52413077947E+03  0.76294099843E+03  0.15294330000E+03 0. -1.
<mgrwt>
<rscale>  0 0.76199957E+03</rscale>
<asrwt>0</asrwt>
<pdfrwt beam="1">  1        2 0.62719097E-01 0.84722160E+03</pdfrwt>
<pdfrwt beam="2">  1       -2 0.19477403E+00 0.84722160E+03</pdfrwt>
<totfact> 0.11304859E+01</totfact>
</mgrwt>
</event>
<event>
 4    1  0.3565372E-007  0.9497548E+03  0.7818608E-02  0.9450467E-01
          2   -1    0    0  501    0  0.00000000000E+00  0.00000000000E+00  0.17975141576E+04  0.17975141576E+04  0.25500000000E-02 0. -1.
         -2   -1    0    0    0  501 -0.00000000000E+00 -0.00000000000E+00 -0.94248643842E+03  0.94248643842E+03  0.25500000000E-02 0.  1.
    8880023    1    1    2    0    0 -0.49334127452E+03 -0.47417116038E+03  0.15078182980E+04  0.17820073312E+04  0.65864270000E+03 0. -1.
    8880022    1    1    2    0    0  0.49334127452E+03  0.47417116038E+03 -0.65279057885E+03  0.95799326476E+03  0.15294330000E+03 0.  0.
<mgrwt>
<rscale>  0 0.88036306E+03</rscale>
<asrwt>0</asrwt>
<pdfrwt beam="1">  1        2 0.27654064E+00 0.94975476E+03</pdfrwt>
<pdfrwt beam="2">  1       -2 0.14499791E+00 0.94975476E+03</pdfrwt>
<totfact> 0.28421987E+00</totfact>
</mgrwt>
</event>
<event>
 4    1  0.3565372E-007  0.9876569E+03  0.7818608E-02  0.9397887E-01
          2   -1    0    0  501    0  0.00000000000E+00  0.00000000000E+00  0.16547308915E+04  0.16547308915E+04  0.25500000000E-02 0. -1.
         -2   -1    0    0    0  501 -0.00000000000E+00 -0.00000000000E+00 -0.91115201823E+03  0.91115201824E+03  0.25500000000E-02 0.  1.
    8880023    1    1    2    0    0  0.72803668691E+03 -0.10778944712E+03 -0.50440076772E+03  0.11090024000E+04  0.65864270000E+03 0.  0.
    8880022    1    1    2    0    0 -0.72803668691E+03  0.10778944712E+03  0.12479796409E+04  0.14568805097E+04  0.15294330000E+03 0.  0.
<mgrwt>
<rscale>  0 0.92249754E+03</rscale>
<asrwt>0</asrwt>
<pdfrwt beam="1">  1        2 0.25457398E+00 0.98765692E+03</pdfrwt>
<pdfrwt beam="2">  1       -2 0.14017724E+00 0.98765692E+03</pdfrwt>
<totfact> 0.37045836E+00</totfact>
</mgrwt>
</event>
<event>
 4    1  0.3565372E-007  0.8126620E+03  0.7818608E-02  0.9684058E-01
          2   -1    0    0  501    0  0.00000000000E+00  0.00000000000E+00  0.12379164063E+04  0.12379164063E+04  0.25500000000E-02 0. -1.
         -2   -1    0    0    0  501 -0.00000000000E+00 -0.00000000000E+00 -0.53320751962E+03  0.53320751963E+03  0.25500000000E-02 0.  1.
    8880023    1    1    2    0    0 -0.26394787453E+02  0.47530267144E+03  0.91931542628E+03  0.12270127846E+04  0.65864270000E+03 0.  0.
    8880022    1    1    2    0    0  0.26394787453E+02 -0.47530267144E+03 -0.21460653960E+03  0.54411114134E+03  0.15294330000E+03 0.  0.
<mgrwt>
<rscale>  0 0.71973923E+03</rscale>
<asrwt>0</asrwt>
<pdfrwt beam="1">  1        2 0.19044868E+00 0.81266200E+03</pdfrwt>
<pdfrwt beam="2">  1       -2 0.82031927E-01 0.81266200E+03</pdfrwt>
<totfact> 0.23787403E+01</totfact>
</mgrwt>
</event>
<event>
 4    1  0.3565372E-007  0.9475516E+03  0.7818608E-02  0.9453646E-01
          2   -1    0    0  501    0  0.00000000000E+00  0.00000000000E+00  0.26091034757E+04  0.26091034757E+04  0.25500000000E-02 0. -1.
         -2   -1    0    0    0  501 -0.00000000000E+00 -0.00000000000E+00 -0.50452182639E+03  0.50452182639E+03  0.25500000000E-02 0.  1.
    8880023    1    1    2    0    0 -0.49807697298E+02  0.67938423678E+03  0.22127805465E+04  0.24071251943E+04  0.65864270000E+03 0. -1.
    8880022    1    1    2    0    0  0.49807697298E+02 -0.67938423678E+03 -0.10819889720E+03  0.70650010776E+03  0.15294330000E+03 0.  0.
<mgrwt>
<rscale>  0 0.87789337E+03</rscale>
<asrwt>0</asrwt>
<pdfrwt beam="1">  1        2 0.40140054E+00 0.94755156E+03</pdfrwt>
<pdfrwt beam="2">  1       -2 0.77618742E-01 0.94755156E+03</pdfrwt>
<totfact> 0.45359313E+00</totfact>
</mgrwt>
</event>
<event>
 4    1  0.3565372E-007  0.1313959E+04  0.7818608E-02  0.9053598E-01
         -2   -1    0    0    0  501 -0.00000000000E+00  0.00000000000E+00  0.49208627724E+03  0.49208627725E+03  0.25500000000E-02 0.  1.
          2   -1    0    0  501    0  0.00000000000E+00 -0.00000000000E+00 -0.35282667410E+04  0.35282667410E+04  0.25500000000E-02 0. -1.
    8880023    1    1    2    0    0  0.11254661553E+04 -0.16126123725E+03 -0.23249779555E+04  0.26705826992E+04  0.65864270000E+03 0.  0.
    8880022    1    1    2    0    0 -0.11254661553E+04  0.16126123725E+03 -0.71120250828E+03  0.13497703191E+04  0.15294330000E+03 0.  0.
<mgrwt>
<rscale>  0 0.12701248E+04</rscale>
<asrwt>0</asrwt>
<pdfrwt beam="1">  1        2 0.54281025E+00 0.13139595E+04</pdfrwt>
<pdfrwt beam="2">  1       -2 0.75705584E-01 0.13139595E+04</pdfrwt>
<totfact> 0.12018100E+00</totfact>
</mgrwt>
</event>
<event>
 4    1  0.3565372E-007  0.6947765E+03  0.7818608E-02  0.1001960E+00
          2   -1    0    0  501    0  0.00000000000E+00  0.00000000000E+00  0.21367336948E+04  0.21367336948E+04  0.25500000000E-02 0. -1.
         -2   -1    0    0    0  501 -0.00000000000E+00 -0.00000000000E+00 -0.17415598189E+03  0.17415598191E+03  0.25500000000E-02 0.  1.
    8880023    1    1    2    0    0 -0.20384803677E+03 -0.85733331795E+02  0.58780799128E+03  0.91007289112E+03  0.65864270000E+03 0.  1.
    8880022    1    1    2    0    0  0.20384803677E+03  0.85733331795E+02  0.13747697216E+04  0.14008167856E+04  0.15294330000E+03 0.  0.
<mgrwt>
<rscale>  0 0.54799053E+03</rscale>
<asrwt>0</asrwt>
<pdfrwt beam="1">  1        2 0.32872826E+00 0.69477653E+03</pdfrwt>
<pdfrwt beam="2">  1       -2 0.26793228E-01 0.69477653E+03</pdfrwt>
<totfact> 0.73451879E+01</totfact>
</mgrwt>
</event>
<event>
 4    1  0.3565372E-007  0.8808667E+03  0.7818608E-02  0.9557472E-01
          2   -1    0    0  501    0  0.00000000000E+00  0.00000000000E+00  0.41592323351E+03  0.41592323352E+03  0.25500000000E-02 0. -1.
         -2   -1    0    0    0  501 -0.00000000000E+00 -0.00000000000E+00 -0.19476874695E+04  0.19476874695E+04  0.25500000000E-02 0.  1.
    8880023    1    1    2    0    0 -0.29815413421E+03 -0.50320980246E+03 -0.15225113721E+04  0.17589676170E+04  0.65864270000E+03 0.  0.
    8880022    1    1    2    0    0  0.29815413421E+03  0.50320980246E+03 -0.92528638928E+01  0.60464308608E+03  0.15294330000E+03 0.  0.
<mgrwt>
<rscale>  0 0.80176061E+03</rscale>
<asrwt>0</asrwt>
<pdfrwt beam="1">  1        2 0.63988191E-01 0.88086673E+03</pdfrwt>
<pdfrwt beam="2">  1       -2 0.29964422E+00 0.88086673E+03</pdfrwt>
<totfact> 0.24843666E+00</totfact>
</mgrwt>
</event>
<event>
 4    1  0.3565372E-007  0.6599085E+03  0.7818608E-02  0.1024250E+00
          2   -1    0    0  501    0  0.00000000000E+00  0.00000000000E+00  0.29601207693E+03  0.29601207694E+03  0.25500000000E-02 0. -1.
         -2   -1    0    0    0  501 -0.00000000000E+00 -0.00000000000E+00 -0.12423416605E+04  0.12423416605E+04  0.25500000000E-02 0.  1.
    8880023    1    1    2    0    0 -0.29926994221E+02 -0.27809340572E+02 -0.88237773366E+02  0.66578156727E+03  0.65864270000E+03 0. -1.
    8880022    1    1    2    0    0  0.29926994221E+02  0.27809340572E+02 -0.85809181023E+03  0.87257217020E+03  0.15294330000E+03 0.  0.
<mgrwt>
<rscale>  0 0.46183495E+03</rscale>
<asrwt>0</asrwt>
<pdfrwt beam="1">  1        2 0.45540320E-01 0.65990847E+03</pdfrwt>
<pdfrwt beam="2">  1       -2 0.19112948E+00 0.65990847E+03</pdfrwt>
<totfact> 0.17390863E+01</totfact>
</mgrwt>
</event>
<event>
 4    1  0.3565372E-007  0.6780736E+03  0.7818608E-02  0.1010435E+00
          2   -1    0    0  501    0  0.00000000000E+00  0.00000000000E+00  0.25318024240E+03  0.25318024241E+03  0.25500000000E-02 0. -1.
         -2   -1    0    0    0  501 -0.00000000000E+00 -0.00000000000E+00 -0.15534121074E+04  0.15534121074E+04  0.25500000000E-02 0.  1.
    8880023    1    1    2    0    0 -0.15769873837E+03 -0.33237849599E+02 -0.23378140133E+03  0.71724305267E+03  0.65864270000E+03 0. -1.
    8880022    1    1    2    0    0  0.15769873837E+03  0.33237849599E+02 -0.10664504637E+04  0.10893492971E+04  0.15294330000E+03 0.  0.
<mgrwt>
<rscale>  0 0.51302126E+03</rscale>
<asrwt>0</asrwt>
<pdfrwt beam="1">  1        2 0.38950808E-01 0.67807363E+03</pdfrwt>
<pdfrwt beam="2">  1       -2 0.23898647E+00 0.67807363E+03</pdfrwt>
<totfact> 0.10292766E+01</totfact>
</mgrwt>
</event>
<event>
 4    1  0.3565372E-007  0.7243497E+03  0.7818608E-02  0.9908134E-01
         -2   -1    0    0    0  501 -0.00000000000E+00  0.00000000000E+00  0.40223818796E+03  0.40223818797E+03  0.25500000000E-02 0.  1.
          2   -1    0    0  501    0  0.00000000000E+00 -0.00000000000E+00 -0.13442716871E+04  0.13442716871E+04  0.25500000000E-02 0. -1.
    8880023    1    1    2    0    0 -0.25775279580E+03 -0.15631933703E+03 -0.11430437871E+04  0.13532300412E+04  0.65864270000E+03 0. -1.
    8880022    1    1    2    0    0  0.25775279580E+03  0.15631933703E+03  0.20101028795E+03  0.39327983390E+03  0.15294330000E+03 0.  0.
<mgrwt>
<rscale>  0 0.59868700E+03</rscale>
<asrwt>0</asrwt>
<pdfrwt beam="1">  1        2 0.20681103E+00 0.72434967E+03</pdfrwt>
<pdfrwt beam="2">  1       -2 0.61882799E-01 0.72434967E+03</pdfrwt>
<totfact> 0.38659626E+01</totfact>
</mgrwt>
</event>
<event>
 4    1  0.3565372E-007  0.6708833E+03  0.7818608E-02  0.1015037E+00
         -2   -1    0    0    0  501 -0.00000000000E+00  0.00000000000E+00  0.10309688564E+04  0.10309688564E+04  0.25500000000E-02 0.  1.
          2   -1    0    0  501    0  0.00000000000E+00 -0.00000000000E+00 -0.30759815543E+03  0.30759815544E+03  0.25500000000E-02 0. -1.
    8880023    1    1    2    0    0 -0.68901732377E+02  0.10736284366E+03  0.92775126114E+02  0.67726778988E+03  0.65864270000E+03 0. -1.
    8880022    1    1    2    0    0  0.68901732377E+02 -0.10736284366E+03  0.63059557483E+03  0.66129922193E+03  0.15294330000E+03 0.  0.
<mgrwt>
<rscale>  0 0.49520770E+03</rscale>
<asrwt>0</asrwt>
<pdfrwt beam="1">  1        2 0.47322793E-01 0.67088332E+03</pdfrwt>
<pdfrwt beam="2">  1       -2 0.15861059E+00 0.67088332E+03</pdfrwt>
<totfact> 0.28055642E+01</totfact>
</mgrwt>
</event>
<event>
 4    1  0.3565372E-007  0.1001152E+04  0.7818608E-02  0.9380051E-01
          2   -1    0    0  501    0  0.00000000000E+00  0.00000000000E+00  0.13193227827E+04  0.13193227827E+04  0.25500000000E-02 0. -1.
         -2   -1    0    0    0  501 -0.00000000000E+00 -0.00000000000E+00 -0.10007428355E+04  0.10007428355E+04  0.25500000000E-02 0.  1.
    8880023    1    1    2    0    0 -0.10510904937E+03 -0.74662452494E+03  0.90745932996E+03  0.13512175011E+04  0.65864270000E+03 0.  0.
    8880022    1    1    2    0    0  0.10510904937E+03  0.74662452494E+03 -0.58887938272E+03  0.96884811705E+03  0.15294330000E+03 0.  0.
<mgrwt>
<rscale>  0 0.93735714E+03</rscale>
<asrwt>0</asrwt>
<pdfrwt beam="1">  1        2 0.20297274E+00 0.10011525E+04</pdfrwt>
<pdfrwt beam="2">  1       -2 0.15396044E+00 0.10011525E+04</pdfrwt>
<totfact> 0.44644850E+00</totfact>
</mgrwt>
</event>
<event>
 4    1  0.3565372E-007  0.6730728E+03  0.7818608E-02  0.1013550E+00
          2   -1    0    0  501    0  0.00000000000E+00  0.00000000000E+00  0.85816382329E+03  0.85816382330E+03  0.25500000000E-02 0. -1.
         -2   -1    0    0    0  501 -0.00000000000E+00 -0.00000000000E+00 -0.59409693545E+03  0.59409693545E+03  0.25500000000E-02 0.  1.
    8880023    1    1    2    0    0  0.96787919667E+02  0.99241438841E+02  0.69928030928E+03  0.97057710760E+03  0.65864270000E+03 0. -1.
    8880022    1    1    2    0    0 -0.96787919667E+02 -0.99241438841E+02 -0.43521342144E+03  0.48168365115E+03  0.15294330000E+03 0.  0.
<mgrwt>
<rscale>  0 0.50087972E+03</rscale>
<asrwt>0</asrwt>
<pdfrwt beam="1">  1        2 0.13202520E+00 0.67307278E+03</pdfrwt>
<pdfrwt beam="2">  1       -2 0.91399528E-01 0.67307278E+03</pdfrwt>
<totfact> 0.32647827E+01</totfact>
</mgrwt>
</event>
<event>
 4    1  0.3565372E-007  0.8187501E+03  0.7818608E-02  0.9671631E-01
         -2   -1    0    0    0  501 -0.00000000000E+00  0.00000000000E+00  0.44292986474E+03  0.44292986475E+03  0.25500000000E-02 0.  1.
          2   -1    0    0  501    0  0.00000000000E+00 -0.00000000000E+00 -0.24900437120E+04  0.24900437120E+04  0.25500000000E-02 0. -1.
    8880023    1    1    2    0    0 -0.48323182445E+03  0.55031699280E+02 -0.22422603488E+04  0.23870658060E+04  0.65864270000E+03 0. -1.
    8880022    1    1    2    0    0  0.48323182445E+03 -0.55031699280E+02  0.19514650155E+03  0.54590777075E+03  0.15294330000E+03 0.  0.
<mgrwt>
<rscale>  0 0.72731278E+03</rscale>
<asrwt>0</asrwt>
<pdfrwt beam="1">  1        2 0.38308364E+00 0.81875008E+03</pdfrwt>
<pdfrwt beam="2">  1       -2 0.68143057E-01 0.81875008E+03</pdfrwt>
<totfact> 0.72124214E+00</totfact>
</mgrwt>
</event>
<event>
 4    1  0.3565372E-007  0.8631128E+03  0.7818608E-02  0.9588050E-01
          2   -1    0    0  501    0  0.00000000000E+00  0.00000000000E+00  0.23704872061E+04  0.23704872061E+04  0.25500000000E-02 0. -1.
         -2   -1    0    0    0  501 -0.00000000000E+00 -0.00000000000E+00 -0.57449392727E+03  0.57449392727E+03  0.25500000000E-02 0.  1.
    8880023    1    1    2    0    0 -0.39448879703E+03  0.39437555663E+03  0.21150764034E+04  0.22844062443E+04  0.65864270000E+03 0.  0.
    8880022    1    1    2    0    0  0.39448879703E+03 -0.39437555663E+03 -0.31908312456E+03  0.66057488905E+03  0.15294330000E+03 0.  0.
<mgrwt>
<rscale>  0 0.78092173E+03</rscale>
<asrwt>0</asrwt>
<pdfrwt beam="1">  1        2 0.36469033E+00 0.86311280E+03</pdfrwt>
<pdfrwt beam="2">  1       -2 0.88383682E-01 0.86311280E+03</pdfrwt>
<totfact> 0.46762325E+00</totfact>
</mgrwt>
</event>
<event>
 4    1  0.3565372E-007  0.9707760E+03  0.7818608E-02  0.9420832E-01
         -2   -1    0    0    0  501 -0.00000000000E+00  0.00000000000E+00  0.36876919629E+03  0.36876919630E+03  0.25500000000E-02 0.  1.
          2   -1    0    0  501    0  0.00000000000E+00 -0.00000000000E+00 -0.22031376311E+04  0.22031376311E+04  0.25500000000E-02 0. -1.
    8880023    1    1    2    0    0 -0.70955035368E+03 -0.71652818853E+02 -0.14567440239E+04  0.17505739597E+04  0.65864270000E+03 0.  1.
    8880022    1    1    2    0    0  0.70955035368E+03  0.71652818853E+02 -0.37762441088E+03  0.82133286770E+03  0.15294330000E+03 0.  0.
<mgrwt>
<rscale>  0 0.90380960E+03</rscale>
<asrwt>0</asrwt>
<pdfrwt beam="1">  1        2 0.33894424E+00 0.97077600E+03</pdfrwt>
<pdfrwt beam="2">  1       -2 0.56733724E-01 0.97077600E+03</pdfrwt>
<totfact> 0.15136516E+01</totfact>
</mgrwt>
</event>
<event>
 4    1  0.3565372E-007  0.7227073E+03  0.7818608E-02  0.9913530E-01
          2   -1    0    0  501    0  0.00000000000E+00  0.00000000000E+00  0.17297859197E+04  0.17297859197E+04  0.25500000000E-02 0. -1.
         -2   -1    0    0    0  501 -0.00000000000E+00 -0.00000000000E+00 -0.31570825220E+03  0.31570825221E+03  0.25500000000E-02 0.  1.
    8880023    1    1    2    0    0  0.26277209840E+03  0.13945053169E+03  0.15294963994E+04  0.16916456687E+04  0.65864270000E+03 0.  0.
    8880022    1    1    2    0    0 -0.26277209840E+03 -0.13945053169E+03 -0.11541873192E+03  0.35384850315E+03  0.15294330000E+03 0.  0.
<mgrwt>
<rscale>  0 0.59610041E+03</rscale>
<asrwt>0</asrwt>
<pdfrwt beam="1">  1        2 0.26612090E+00 0.72270729E+03</pdfrwt>
<pdfrwt beam="2">  1       -2 0.48570502E-01 0.72270729E+03</pdfrwt>
<totfact> 0.39022472E+01</totfact>
</mgrwt>
</event>
<event>
 4    1  0.3565372E-007  0.7308725E+03  0.7818608E-02  0.9887380E-01
          2   -1    0    0  501    0  0.00000000000E+00  0.00000000000E+00  0.31570145791E+04  0.31570145791E+04  0.25500000000E-02 0. -1.
         -2   -1    0    0    0  501 -0.00000000000E+00 -0.00000000000E+00 -0.21300153522E+03  0.21300153523E+03  0.25500000000E-02 0.  1.
    8880023    1    1    2    0    0  0.28754782926E+03  0.13296854556E+03  0.29280238245E+04  0.30178631698E+04  0.65864270000E+03 0. -1.
    8880022    1    1    2    0    0 -0.28754782926E+03 -0.13296854556E+03  0.15989219374E+02  0.35215294458E+03  0.15294330000E+03 0.  0.
<mgrwt>
<rscale>  0 0.60876828E+03</rscale>
<asrwt>0</asrwt>
<pdfrwt beam="1">  1        2 0.48569457E+00 0.73087249E+03</pdfrwt>
<pdfrwt beam="2">  1       -2 0.32769465E-01 0.73087249E+03</pdfrwt>
<totfact> 0.12853466E+01</totfact>
</mgrwt>
</event>
<event>
 4    1  0.3565372E-007  0.7469807E+03  0.7818608E-02  0.9840060E-01
          2   -1    0    0  501    0  0.00000000000E+00  0.00000000000E+00  0.35532108800E+03  0.35532108801E+03  0.25500000000E-02 0. -1.
         -2   -1    0    0    0  501 -0.00000000000E+00 -0.00000000000E+00 -0.10676866159E+04  0.10676866159E+04  0.25500000000E-02 0.  1.
    8880023    1    1    2    0    0  0.22133939263E+03  0.27418755063E+03 -0.18320791161E+03  0.76911981173E+03  0.65864270000E+03 0.  0.
    8880022    1    1    2    0    0 -0.22133939263E+03 -0.27418755063E+03 -0.52915761627E+03  0.65388789216E+03  0.15294330000E+03 0.  0.
<mgrwt>
<rscale>  0 0.63256287E+03</rscale>
<asrwt>0</asrwt>
<pdfrwt beam="1">  1        2 0.54664783E-01 0.74698069E+03</pdfrwt>
<pdfrwt beam="2">  1       -2 0.16425948E+00 0.74698069E+03</pdfrwt>
<totfact> 0.21593106E+01</totfact>
</mgrwt>
</event>
<event>
 4    1  0.3565372E-007  0.6678150E+03  0.7818608E-02  0.1017280E+00
          2   -1    0    0  501    0  0.00000000000E+00  0.00000000000E+00  0.58831270903E+03  0.58831270903E+03  0.25500000000E-02 0. -1.
         -2   -1    0    0    0  501 -0.00000000000E+00 -0.00000000000E+00 -0.72890030559E+03  0.72890030559E+03  0.25500000000E-02 0.  1.
    8880023    1    1    2    0    0 -0.70490451875E+02 -0.84839801969E+02  0.37662587569E+03  0.76669677990E+03  0.65864270000E+03 0. -1.
    8880022    1    1    2    0    0  0.70490451875E+02  0.84839801969E+02 -0.51721347225E+03  0.55051623472E+03  0.15294330000E+03 0.  0.
<mgrwt>
<rscale>  0 0.48681039E+03</rscale>
<asrwt>0</asrwt>
<pdfrwt beam="1">  1        2 0.90509647E-01 0.66781502E+03</pdfrwt>
<pdfrwt beam="2">  1       -2 0.11213851E+00 0.66781502E+03</pdfrwt>
<totfact> 0.32471982E+01</totfact>
</mgrwt>
</event>
<event>
 4    1  0.3565372E-007  0.7517100E+03  0.7818608E-02  0.9827062E-01
          2   -1    0    0  501    0  0.00000000000E+00  0.00000000000E+00  0.12164532152E+04  0.12164532152E+04  0.25500000000E-02 0. -1.
         -2   -1    0    0    0  501 -0.00000000000E+00 -0.00000000000E+00 -0.48646804759E+03  0.48646804760E+03  0.25500000000E-02 0.  1.
    8880023    1    1    2    0    0 -0.34337110321E+02  0.36066420204E+03  0.98136873921E+03  0.12361846595E+04  0.65864270000E+03 0.  0.
    8880022    1    1    2    0    0  0.34337110321E+02 -0.36066420204E+03 -0.25138357161E+03  0.46673660331E+03  0.15294330000E+03 0.  0.
<mgrwt>
<rscale>  0 0.63930228E+03</rscale>
<asrwt>0</asrwt>
<pdfrwt beam="1">  1        2 0.18714665E+00 0.75170999E+03</pdfrwt>
<pdfrwt beam="2">  1       -2 0.74841239E-01 0.75170999E+03</pdfrwt>
<totfact> 0.30263387E+01</totfact>
</mgrwt>
</event>
<event>
 4    1  0.3565372E-007  0.6648145E+03  0.7818608E-02  0.1019690E+00
         -2   -1    0    0    0  501 -0.00000000000E+00  0.00000000000E+00  0.16897438514E+03  0.16897438516E+03  0.25500000000E-02 0.  1.
          2   -1    0    0  501    0  0.00000000000E+00 -0.00000000000E+00 -0.31680300201E+04  0.31680300201E+04  0.25500000000E-02 0. -1.
    8880023    1    1    2    0    0 -0.83977385208E+02  0.33405662618E+02 -0.30733582295E+04  0.31444409921E+04  0.65864270000E+03 0. -1.
    8880022    1    1    2    0    0  0.83977385208E+02 -0.33405662618E+02  0.74302594554E+02  0.19256341318E+03  0.15294330000E+03 0.  0.
<mgrwt>
<rscale>  0 0.47798816E+03</rscale>
<asrwt>0</asrwt>
<pdfrwt beam="1">  1        2 0.48738919E+00 0.66481452E+03</pdfrwt>
<pdfrwt beam="2">  1       -2 0.25996061E-01 0.66481452E+03</pdfrwt>
<totfact> 0.19640616E+01</totfact>
</mgrwt>
</event>
<event>
 4    1  0.3565372E-007  0.7128917E+03  0.7818608E-02  0.9947416E-01
          2   -1    0    0  501    0  0.00000000000E+00  0.00000000000E+00  0.30682697995E+04  0.30682697995E+04  0.25500000000E-02 0. -1.
         -2   -1    0    0    0  501 -0.00000000000E+00 -0.00000000000E+00 -0.13897032704E+03  0.13897032706E+03  0.25500000000E-02 0.  1.
    8880023    1    1    2    0    0  0.20909961402E+03  0.17516184540E+03  0.27621213349E+04  0.28526354123E+04  0.65864270000E+03 0. -1.
    8880022    1    1    2    0    0 -0.20909961402E+03 -0.17516184540E+03  0.16717813758E+03  0.35460471425E+03  0.15294330000E+03 0.  0.
<mgrwt>
<rscale>  0 0.58017335E+03</rscale>
<asrwt>0</asrwt>
<pdfrwt beam="1">  1        2 0.47204149E+00 0.71289167E+03</pdfrwt>
<pdfrwt beam="2">  1       -2 0.21380051E-01 0.71289167E+03</pdfrwt>
<totfact> 0.31871204E+01</totfact>
</mgrwt>
</event>
<event>
 4    1  0.3565372E-007  0.7184562E+03  0.7818608E-02  0.9927845E-01
          2   -1    0    0  501    0  0.00000000000E+00  0.00000000000E+00  0.65498405411E+03  0.65498405411E+03  0.25500000000E-02 0. -1.
         -2   -1    0    0    0  501 -0.00000000000E+00 -0.00000000000E+00 -0.10830835891E+04  0.10830835891E+04  0.25500000000E-02 0.  1.
    8880023    1    1    2    0    0  0.20465135513E+03  0.20121380723E+03  0.41828902219E+03  0.83135136117E+03  0.65864270000E+03 0. -1.
    8880022    1    1    2    0    0 -0.20465135513E+03 -0.20121380723E+03 -0.84638855716E+03  0.90671628202E+03  0.15294330000E+03 0.  0.
<mgrwt>
<rscale>  0 0.58930598E+03</rscale>
<asrwt>0</asrwt>
<pdfrwt beam="1">  1        2 0.10076678E+00 0.71845625E+03</pdfrwt>
<pdfrwt beam="2">  1       -2 0.16662824E+00 0.71845625E+03</pdfrwt>
<totfact> 0.10234779E+01</totfact>
</mgrwt>
</event>
<event>
 4    1  0.3565372E-007  0.7226691E+03  0.7818608E-02  0.9913656E-01
          2   -1    0    0  501    0  0.00000000000E+00  0.00000000000E+00  0.33564190203E+03  0.33564190204E+03  0.25500000000E-02 0. -1.
         -2   -1    0    0    0  501 -0.00000000000E+00 -0.00000000000E+00 -0.14649813896E+04  0.14649813896E+04  0.25500000000E-02 0.  1.
    8880023    1    1    2    0    0  0.19999582882E+02 -0.29671605706E+03 -0.12510290999E+04  0.14447575634E+04  0.65864270000E+03 0.  1.
    8880022    1    1    2    0    0 -0.19999582882E+02  0.29671605706E+03  0.12168961229E+03  0.35586572831E+03  0.15294330000E+03 0.  0.
<mgrwt>
<rscale>  0 0.59603999E+03</rscale>
<asrwt>0</asrwt>
<pdfrwt beam="1">  1        2 0.51637216E-01 0.72266909E+03</pdfrwt>
<pdfrwt beam="2">  1       -2 0.22538175E+00 0.72266909E+03</pdfrwt>
<totfact> 0.90769729E+00</totfact>
</mgrwt>
</event>
<event>
 4    1  0.3565372E-007  0.9447868E+03  0.7818608E-02  0.9457655E-01
         -2   -1    0    0    0  501 -0.00000000000E+00  0.00000000000E+00  0.13017361126E+04  0.13017361126E+04  0.25500000000E-02 0.  1.
          2   -1    0    0  501    0  0.00000000000E+00 -0.00000000000E+00 -0.55259937979E+03  0.55259937979E+03  0.25500000000E-02 0. -1.
    8880023    1    1    2    0    0 -0.15429642758E+03  0.65954874064E+03  0.19210957219E+03  0.96412044001E+03  0.65864270000E+03 0.  0.
    8880022    1    1    2    0    0  0.15429642758E+03 -0.65954874064E+03  0.55702716067E+03  0.89021505244E+03  0.15294330000E+03 0.  0.
<mgrwt>
<rscale>  0 0.87479073E+03</rscale>
<asrwt>0</asrwt>
<pdfrwt beam="1">  1        2 0.85015289E-01 0.94478682E+03</pdfrwt>
<pdfrwt beam="2">  1       -2 0.20026710E+00 0.94478682E+03</pdfrwt>
<totfact> 0.72495205E+00</totfact>
</mgrwt>
</event>
<event>
 4    1  0.3565372E-007  0.6697784E+03  0.7818608E-02  0.1015822E+00
         -2   -1    0    0    0  501 -0.00000000000E+00  0.00000000000E+00  0.78506628457E+03  0.78506628457E+03  0.25500000000E-02 0.  1.
          2   -1    0    0  501    0  0.00000000000E+00 -0.00000000000E+00 -0.34581370213E+03  0.34581370214E+03  0.25500000000E-02 0. -1.
    8880023    1    1    2    0    0  0.12052414419E+03 -0.16335872890E+02  0.22003273905E+02  0.67013974692E+03  0.65864270000E+03 0.  0.
    8880022    1    1    2    0    0 -0.12052414419E+03  0.16335872890E+02  0.41724930853E+03  0.46074023979E+03  0.15294330000E+03 0.  1.
<mgrwt>
<rscale>  0 0.49224847E+03</rscale>
<asrwt>0</asrwt>
<pdfrwt beam="1">  1        2 0.53202108E-01 0.66977842E+03</pdfrwt>
<pdfrwt beam="2">  1       -2 0.12077943E+00 0.66977842E+03</pdfrwt>
<totfact> 0.49726016E+01</totfact>
</mgrwt>
</event>
<event>
 4    1  0.3565372E-007  0.6927832E+03  0.7818608E-02  0.1002857E+00
         -2   -1    0    0    0  501 -0.00000000000E+00  0.00000000000E+00  0.18256436805E+03  0.18256436807E+03  0.25500000000E-02 0.  1.
          2   -1    0    0  501    0  0.00000000000E+00 -0.00000000000E+00 -0.19554256965E+04  0.19554256965E+04  0.25500000000E-02 0. -1.
    8880023    1    1    2    0    0  0.21476880655E+03  0.35657535018E+01 -0.17392784341E+04  0.18721746800E+04  0.65864270000E+03 0.  0.
    8880022    1    1    2    0    0 -0.21476880655E+03 -0.35657535018E+01 -0.33582894349E+02  0.26581538457E+03  0.15294330000E+03 0.  0.
<mgrwt>
<rscale>  0 0.54415114E+03</rscale>
<asrwt>0</asrwt>
<pdfrwt beam="1">  1        2 0.30083471E+00 0.69278320E+03</pdfrwt>
<pdfrwt beam="2">  1       -2 0.28086827E-01 0.69278320E+03</pdfrwt>
<totfact> 0.84639719E+01</totfact>
</mgrwt>
</event>
<event>
 4    1  0.3565372E-007  0.2416569E+04  0.7818608E-02  0.8441507E-01
          2   -1    0    0  501    0  0.00000000000E+00  0.00000000000E+00  0.24551116531E+04  0.24551116531E+04  0.25500000000E-02 0. -1.
         -2   -1    0    0    0  501 -0.00000000000E+00 -0.00000000000E+00 -0.23917258928E+04  0.23917258928E+04  0.25500000000E-02 0.  1.
    8880023    1    1    2    0    0 -0.21529980289E+04 -0.87783569065E+03 -0.45682485435E+03  0.24593688552E+04  0.65864270000E+03 0.  0.
    8880022    1    1    2    0    0  0.21529980289E+04  0.87783569065E+03  0.52021061471E+03  0.23874686907E+04  0.15294330000E+03 0.  0.
<mgrwt>
<rscale>  0 0.23946567E+04</rscale>
<asrwt>0</asrwt>
<pdfrwt beam="1">  1        2 0.37770949E+00 0.24165691E+04</pdfrwt>
<pdfrwt beam="2">  1       -2 0.36795783E+00 0.24165691E+04</pdfrwt>
<totfact> 0.37548233E-02</totfact>
</mgrwt>
</event>
<event>
 4    1  0.3565372E-007  0.1219927E+04  0.7818608E-02  0.9137992E-01
         -2   -1    0    0    0  501 -0.00000000000E+00  0.00000000000E+00  0.69774288280E+03  0.69774288281E+03  0.25500000000E-02 0.  1.
          2   -1    0    0  501    0  0.00000000000E+00 -0.00000000000E+00 -0.32148569687E+04  0.32148569687E+04  0.25500000000E-02 0. -1.
    8880023    1    1    2    0    0  0.48698051129E+03 -0.90402464004E+03 -0.25991388584E+04  0.28711920138E+04  0.65864270000E+03 0. -1.
    8880022    1    1    2    0    0 -0.48698051129E+03  0.90402464004E+03  0.82024772558E+02  0.10414078377E+04  0.15294330000E+03 0.  0.
<mgrwt>
<rscale>  0 0.11717033E+04</rscale>
<asrwt>0</asrwt>
<pdfrwt beam="1">  1        2 0.49459337E+00 0.12199265E+04</pdfrwt>
<pdfrwt beam="2">  1       -2 0.10734506E+00 0.12199265E+04</pdfrwt>
<totfact> 0.87563272E-01</totfact>
</mgrwt>
</event>
<event>
 4    1  0.3565372E-007  0.7167426E+03  0.7818608E-02  0.9933766E-01
         -2   -1    0    0    0  501 -0.00000000000E+00  0.00000000000E+00  0.43541407414E+03  0.43541407415E+03  0.25500000000E-02 0.  1.
          2   -1    0    0  501    0  0.00000000000E+00 -0.00000000000E+00 -0.25880290119E+04  0.25880290119E+04  0.25500000000E-02 0. -1.
    8880023    1    1    2    0    0  0.13647147078E+03  0.24755856542E+03 -0.24699102900E+04  0.25718041824E+04  0.65864270000E+03 0. -1.
    8880022    1    1    2    0    0 -0.13647147078E+03 -0.24755856542E+03  0.31729535230E+03  0.45163890361E+03  0.15294330000E+03 0.  0.
<mgrwt>
<rscale>  0 0.58652382E+03</rscale>
<asrwt>0</asrwt>
<pdfrwt beam="1">  1        2 0.39815830E+00 0.71674257E+03</pdfrwt>
<pdfrwt beam="2">  1       -2 0.66986782E-01 0.71674257E+03</pdfrwt>
<totfact> 0.66965566E+00</totfact>
</mgrwt>
</event>
<event>
 4    1  0.3565372E-007  0.1204123E+04  0.7818608E-02  0.9153125E-01
          2   -1    0    0  501    0  0.00000000000E+00  0.00000000000E+00  0.21689378961E+04  0.21689378961E+04  0.25500000000E-02 0. -1.
         -2   -1    0    0    0  501 -0.00000000000E+00 -0.00000000000E+00 -0.61485190444E+03  0.61485190444E+03  0.25500000000E-02 0.  1.
    8880023    1    1    2    0    0 -0.21028548771E+03  0.98584017574E+03  0.12117701331E+04  0.17083026372E+04  0.65864270000E+03 0.  0.
    8880022    1    1    2    0    0  0.21028548771E+03 -0.98584017574E+03  0.34231585849E+03  0.10754871633E+04  0.15294330000E+03 0.  0.
<mgrwt>
<rscale>  0 0.11550630E+04</rscale>
<asrwt>0</asrwt>
<pdfrwt beam="1">  1        2 0.33368276E+00 0.12041225E+04</pdfrwt>
<pdfrwt beam="2">  1       -2 0.94592598E-01 0.12041225E+04</pdfrwt>
<totfact> 0.49618556E+00</totfact>
</mgrwt>
</event>
<event>
 4    1  0.3565372E-007  0.1029236E+04  0.7818608E-02  0.9344269E-01
         -2   -1    0    0    0  501 -0.00000000000E+00  0.00000000000E+00  0.10909534115E+04  0.10909534115E+04  0.25500000000E-02 0.  1.
          2   -1    0    0  501    0  0.00000000000E+00 -0.00000000000E+00 -0.19272393549E+04  0.19272393549E+04  0.25500000000E-02 0. -1.
    8880023    1    1    2    0    0 -0.23734622081E+02 -0.79054008116E+03 -0.16037310853E+04  0.19055919166E+04  0.65864270000E+03 0. -1.
    8880022    1    1    2    0    0  0.23734622081E+02  0.79054008116E+03  0.76744514191E+03  0.11126008498E+04  0.15294330000E+03 0.  0.
<mgrwt>
<rscale>  0 0.96807551E+03</rscale>
<asrwt>0</asrwt>
<pdfrwt beam="1">  1        2 0.29649836E+00 0.10292362E+04</pdfrwt>
<pdfrwt beam="2">  1       -2 0.16783899E+00 0.10292362E+04</pdfrwt>
<totfact> 0.16076981E+00</totfact>
</mgrwt>
</event>
<event>
 4    1  0.3565372E-007  0.8948909E+03  0.7818608E-02  0.9534284E-01
         -2   -1    0    0    0  501 -0.00000000000E+00  0.00000000000E+00  0.51512833805E+03  0.51512833806E+03  0.25500000000E-02 0.  1.
          2   -1    0    0  501    0  0.00000000000E+00 -0.00000000000E+00 -0.14763783878E+04  0.14763783878E+04  0.25500000000E-02 0. -1.
    8880023    1    1    2    0    0  0.46268346052E+03 -0.39108001599E+03 -0.62726739220E+02  0.89708662548E+03  0.65864270000E+03 0.  0.
    8880022    1    1    2    0    0 -0.46268346052E+03  0.39108001599E+03 -0.89852331057E+03  0.10944201004E+04  0.15294330000E+03 0.  0.
<mgrwt>
<rscale>  0 0.81802743E+03</rscale>
<asrwt>0</asrwt>
<pdfrwt beam="1">  1        2 0.22713513E+00 0.89489093E+03</pdfrwt>
<pdfrwt beam="2">  1       -2 0.79250515E-01 0.89489093E+03</pdfrwt>
<totfact> 0.18614931E+01</totfact>
</mgrwt>
</event>
<event>
 4    1  0.3565372E-007  0.9030828E+03  0.7818608E-02  0.9521101E-01
          2   -1    0    0  501    0  0.00000000000E+00  0.00000000000E+00  0.38890111220E+04  0.38890111220E+04  0.25500000000E-02 0. -1.
         -2   -1    0    0    0  501 -0.00000000000E+00 -0.00000000000E+00 -0.46235239084E+03  0.46235239084E+03  0.25500000000E-02 0.  1.
    8880023    1    1    2    0    0  0.33002182579E+03  0.52233507519E+03  0.35837287263E+04  0.36957638082E+04  0.65864270000E+03 0. -1.
    8880022    1    1    2    0    0 -0.33002182579E+03 -0.52233507519E+03 -0.15706999516E+03  0.65559970459E+03  0.15294330000E+03 0.  0.
<mgrwt>
<rscale>  0 0.82745868E+03</rscale>
<asrwt>0</asrwt>
<pdfrwt beam="1">  1        2 0.59830939E+00 0.90308280E+03</pdfrwt>
<pdfrwt beam="2">  1       -2 0.71131139E-01 0.90308280E+03</pdfrwt>
<totfact> 0.80475029E-01</totfact>
</mgrwt>
</event>
<event>
 4    1  0.3565372E-007  0.6652570E+03  0.7818608E-02  0.1019319E+00
          2   -1    0    0  501    0  0.00000000000E+00  0.00000000000E+00  0.44802248976E+03  0.44802248977E+03  0.25500000000E-02 0. -1.
         -2   -1    0    0    0  501 -0.00000000000E+00 -0.00000000000E+00 -0.47455679897E+03  0.47455679898E+03  0.25500000000E-02 0.  1.
    8880023    1    1    2    0    0  0.92414099681E+02 -0.14708839841E+02  0.13778190796E+03  0.67937528378E+03  0.65864270000E+03 0. -1.
    8880022    1    1    2    0    0 -0.92414099681E+02  0.14708839841E+02 -0.16431621717E+03  0.24320400496E+03  0.15294330000E+03 0.  0.
<mgrwt>
<rscale>  0 0.47933261E+03</rscale>
<asrwt>0</asrwt>
<pdfrwt beam="1">  1        2 0.68926537E-01 0.66525703E+03</pdfrwt>
<pdfrwt beam="2">  1       -2 0.73008738E-01 0.66525703E+03</pdfrwt>
<totfact> 0.12022332E+02</totfact>
</mgrwt>
</event>
<event>
 4    1  0.3565372E-007  0.6604655E+03  0.7818608E-02  0.1023684E+00
          2   -1    0    0  501    0  0.00000000000E+00  0.00000000000E+00  0.25737593243E+03  0.25737593245E+03  0.25500000000E-02 0. -1.
         -2   -1    0    0    0  501 -0.00000000000E+00 -0.00000000000E+00 -0.17369395092E+04  0.17369395092E+04  0.25500000000E-02 0.  1.
    8880023    1    1    2    0    0 -0.33041654856E+02 -0.36232140061E+02 -0.17957502955E+03  0.68444277805E+03  0.65864270000E+03 0. -1.
    8880022    1    1    2    0    0  0.33041654856E+02  0.36232140061E+02 -0.12999885472E+04  0.13098726636E+04  0.15294330000E+03 0.  0.
<mgrwt>
<rscale>  0 0.46380137E+03</rscale>
<asrwt>0</asrwt>
<pdfrwt beam="1">  1        2 0.39596299E-01 0.66046554E+03</pdfrwt>
<pdfrwt beam="2">  1       -2 0.26722145E+00 0.66046554E+03</pdfrwt>
<totfact> 0.68428217E+00</totfact>
</mgrwt>
</event>
<event>
 4    1  0.3565372E-007  0.8500875E+03  0.7818608E-02  0.9611445E-01
         -2   -1    0    0    0  501 -0.00000000000E+00  0.00000000000E+00  0.44829847242E+03  0.44829847242E+03  0.25500000000E-02 0.  1.
          2   -1    0    0  501    0  0.00000000000E+00 -0.00000000000E+00 -0.12416442102E+04  0.12416442102E+04  0.25500000000E-02 0. -1.
    8880023    1    1    2    0    0 -0.53664883273E+03  0.29097344410E+02 -0.74278582527E+03  0.11288842339E+04  0.65864270000E+03 0.  0.
    8880022    1    1    2    0    0  0.53664883273E+03 -0.29097344410E+02 -0.50559912540E+02  0.56105844873E+03  0.15294330000E+03 0.  0.
<mgrwt>
<rscale>  0 0.76543288E+03</rscale>
<asrwt>0</asrwt>
<pdfrwt beam="1">  1        2 0.19102218E+00 0.85008754E+03</pdfrwt>
<pdfrwt beam="2">  1       -2 0.68968996E-01 0.85008754E+03</pdfrwt>
<totfact> 0.34668697E+01</totfact>
</mgrwt>
</event>
<event>
 4    1  0.3565372E-007  0.6820868E+03  0.7818608E-02  0.1008167E+00
          2   -1    0    0  501    0  0.00000000000E+00  0.00000000000E+00  0.16580724171E+04  0.16580724171E+04  0.25500000000E-02 0. -1.
         -2   -1    0    0    0  501 -0.00000000000E+00 -0.00000000000E+00 -0.37853652212E+03  0.37853652213E+03  0.25500000000E-02 0.  1.
    8880023    1    1    2    0    0 -0.17634850140E+03  0.18259725257E+02  0.15412537801E+04  0.16854392995E+04  0.65864270000E+03 0. -1.
    8880022    1    1    2    0    0  0.17634850140E+03 -0.18259725257E+02 -0.26171788505E+03  0.35116963975E+03  0.15294330000E+03 0.  0.
<mgrwt>
<rscale>  0 0.52209670E+03</rscale>
<asrwt>0</asrwt>
<pdfrwt beam="1">  1        2 0.25508807E+00 0.68208681E+03</pdfrwt>
<pdfrwt beam="2">  1       -2 0.58236387E-01 0.68208681E+03</pdfrwt>
<totfact> 0.29541916E+01</totfact>
</mgrwt>
</event>
<event>
 4    1  0.3565372E-007  0.8106057E+03  0.7818608E-02  0.9688317E-01
          2   -1    0    0  501    0  0.00000000000E+00  0.00000000000E+00  0.25367880841E+04  0.25367880841E+04  0.25500000000E-02 0. -1.
         -2   -1    0    0    0  501 -0.00000000000E+00 -0.00000000000E+00 -0.27268354755E+03  0.27268354756E+03  0.25500000000E-02 0.  1.
    8880023    1    1    2    0    0 -0.76970100864E+02  0.46620483796E+03  0.21530038364E+04  0.23005449514E+04  0.65864270000E+03 0.  0.
    8880022    1    1    2    0    0  0.76970100864E+02 -0.46620483796E+03  0.11110070017E+03  0.50892668033E+03  0.15294330000E+03 0.  0.
<mgrwt>
<rscale>  0 0.71716689E+03</rscale>
<asrwt>0</asrwt>
<pdfrwt beam="1">  1        2 0.39027509E+00 0.81060567E+03</pdfrwt>
<pdfrwt beam="2">  1       -2 0.41951316E-01 0.81060567E+03</pdfrwt>
<totfact> 0.18516167E+01</totfact>
</mgrwt>
</event>
<event>
 4    1  0.3565372E-007  0.9181865E+03  0.7818608E-02  0.9497445E-01
          2   -1    0    0  501    0  0.00000000000E+00  0.00000000000E+00  0.25317197358E+04  0.25317197358E+04  0.25500000000E-02 0. -1.
         -2   -1    0    0    0  501 -0.00000000000E+00 -0.00000000000E+00 -0.40482470812E+03  0.40482470813E+03  0.25500000000E-02 0.  1.
    8880023    1    1    2    0    0  0.41276777577E+03 -0.48875243293E+03  0.20840959858E+04  0.22773937871E+04  0.65864270000E+03 0. -1.
    8880022    1    1    2    0    0 -0.41276777577E+03  0.48875243293E+03  0.42799041920E+02  0.65915065684E+03  0.15294330000E+03 0.  0.
<mgrwt>
<rscale>  0 0.84472429E+03</rscale>
<asrwt>0</asrwt>
<pdfrwt beam="1">  1        2 0.38949534E+00 0.91818646E+03</pdfrwt>
<pdfrwt beam="2">  1       -2 0.62280725E-01 0.91818646E+03</pdfrwt>
<totfact> 0.81678024E+00</totfact>
</mgrwt>
</event>
<event>
 4    1  0.3565372E-007  0.7175284E+03  0.7818608E-02  0.9931040E-01
         -2   -1    0    0    0  501 -0.00000000000E+00  0.00000000000E+00  0.18302254654E+03  0.18302254656E+03  0.25500000000E-02 0.  1.
          2   -1    0    0  501    0  0.00000000000E+00 -0.00000000000E+00 -0.19663927453E+04  0.19663927453E+04  0.25500000000E-02 0. -1.
    8880023    1    1    2    0    0 -0.27007275808E+03  0.89985995364E+02 -0.16510399159E+04  0.18002165937E+04  0.65864270000E+03 0. -1.
    8880022    1    1    2    0    0  0.27007275808E+03 -0.89985995364E+02 -0.13233028282E+03  0.34919869814E+03  0.15294330000E+03 0.  0.
<mgrwt>
<rscale>  0 0.58780281E+03</rscale>
<asrwt>0</asrwt>
<pdfrwt beam="1">  1        2 0.30252195E+00 0.71752838E+03</pdfrwt>
<pdfrwt beam="2">  1       -2 0.28157316E-01 0.71752838E+03</pdfrwt>
<totfact> 0.82863505E+01</totfact>
</mgrwt>
</event>
<event>
 4    1  0.3565372E-007  0.9634922E+03  0.7818608E-02  0.9430962E-01
         -2   -1    0    0    0  501 -0.00000000000E+00  0.00000000000E+00  0.38838907767E+03  0.38838907768E+03  0.25500000000E-02 0.  1.
          2   -1    0    0  501    0  0.00000000000E+00 -0.00000000000E+00 -0.18595799738E+04  0.18595799738E+04  0.25500000000E-02 0. -1.
    8880023    1    1    2    0    0 -0.21874651739E+03  0.66832401430E+03 -0.99495160734E+03  0.13850075574E+04  0.65864270000E+03 0. -1.
    8880022    1    1    2    0    0  0.21874651739E+03 -0.66832401430E+03 -0.47623928876E+03  0.86296149400E+03  0.15294330000E+03 0.  1.
<mgrwt>
<rscale>  0 0.89570862E+03</rscale>
<asrwt>0</asrwt>
<pdfrwt beam="1">  1        2 0.28608922E+00 0.96349221E+03</pdfrwt>
<pdfrwt beam="2">  1       -2 0.59752167E-01 0.96349221E+03</pdfrwt>
<totfact> 0.21008424E+01</totfact>
</mgrwt>
</event>
<event>
 4    1  0.3565372E-007  0.6602363E+03  0.7818608E-02  0.1023916E+00
          2   -1    0    0  501    0  0.00000000000E+00  0.00000000000E+00  0.81640386629E+03  0.81640386630E+03  0.25500000000E-02 0. -1.
         -2   -1    0    0    0  501 -0.00000000000E+00 -0.00000000000E+00 -0.29530308032E+03  0.29530308033E+03  0.25500000000E-02 0.  1.
    8880023    1    1    2    0    0 -0.20732327448E+02  0.40889680210E+02  0.63463399763E+03  0.91579053968E+03  0.65864270000E+03 0. -1.
    8880022    1    1    2    0    0  0.20732327448E+02 -0.40889680210E+02 -0.11353321165E+03  0.19591640695E+03  0.15294330000E+03 0.  0.
<mgrwt>
<rscale>  0 0.46299695E+03</rscale>
<asrwt>0</asrwt>
<pdfrwt beam="1">  1        2 0.12560059E+00 0.66023632E+03</pdfrwt>
<pdfrwt beam="2">  1       -2 0.45431243E-01 0.66023632E+03</pdfrwt>
<totfact> 0.15653524E+02</totfact>
</mgrwt>
</event>
<event>
 4    1  0.3565372E-007  0.7377353E+03  0.7818608E-02  0.9866594E-01
          2   -1    0    0  501    0  0.00000000000E+00  0.00000000000E+00  0.22909035375E+04  0.22909035375E+04  0.25500000000E-02 0. -1.
         -2   -1    0    0    0  501 -0.00000000000E+00 -0.00000000000E+00 -0.49338949449E+03  0.49338949450E+03  0.25500000000E-02 0.  1.
    8880023    1    1    2    0    0 -0.63438623277E+02  0.32621875675E+03  0.21519666589E+04  0.22749096341E+04  0.65864270000E+03 0. -1.
    8880022    1    1    2    0    0  0.63438623277E+02 -0.32621875675E+03 -0.35445261584E+03  0.50938339791E+03  0.15294330000E+03 0.  0.
<mgrwt>
<rscale>  0 0.61907967E+03</rscale>
<asrwt>0</asrwt>
<pdfrwt beam="1">  1        2 0.35244669E+00 0.73773528E+03</pdfrwt>
<pdfrwt beam="2">  1       -2 0.75906077E-01 0.73773528E+03</pdfrwt>
<totfact> 0.74569513E+00</totfact>
</mgrwt>
</event>
<event>
 4    1  0.3565372E-007  0.8031542E+03  0.7818608E-02  0.9704017E-01
         -2   -1    0    0    0  501 -0.00000000000E+00  0.00000000000E+00  0.56599469024E+03  0.56599469025E+03  0.25500000000E-02 0.  1.
          2   -1    0    0  501    0  0.00000000000E+00 -0.00000000000E+00 -0.10143095649E+04  0.10143095650E+04  0.25500000000E-02 0. -1.
    8880023    1    1    2    0    0 -0.22383822240E+03  0.40142614687E+03 -0.67157602407E+03  0.10469341257E+04  0.65864270000E+03 0. -1.
    8880022    1    1    2    0    0  0.22383822240E+03 -0.40142614687E+03  0.22326114936E+03  0.53337012949E+03  0.15294330000E+03 0.  0.
<mgrwt>
<rscale>  0 0.70778123E+03</rscale>
<asrwt>0</asrwt>
<pdfrwt beam="1">  1        2 0.15604763E+00 0.80315422E+03</pdfrwt>
<pdfrwt beam="2">  1       -2 0.87076106E-01 0.80315422E+03</pdfrwt>
<totfact> 0.28436624E+01</totfact>
</mgrwt>
</event>
<event>
 4    1  0.3565372E-007  0.6860213E+03  0.7818608E-02  0.1006104E+00
          2   -1    0    0  501    0  0.00000000000E+00  0.00000000000E+00  0.61119552874E+03  0.61119552875E+03  0.25500000000E-02 0. -1.
         -2   -1    0    0    0  501 -0.00000000000E+00 -0.00000000000E+00 -0.62476450046E+03  0.62476450046E+03  0.25500000000E-02 0.  1.
    8880023    1    1    2    0    0 -0.15989813432E+02 -0.19120491571E+03  0.37089843914E+03  0.77986591946E+03  0.65864270000E+03 0. -1.
    8880022    1    1    2    0    0  0.15989813432E+02  0.19120491571E+03 -0.38446741085E+03  0.45609410975E+03  0.15294330000E+03 0.  0.
<mgrwt>
<rscale>  0 0.53052853E+03</rscale>
<asrwt>0</asrwt>
<pdfrwt beam="1">  1        2 0.94030082E-01 0.68602128E+03</pdfrwt>
<pdfrwt beam="2">  1       -2 0.96117615E-01 0.68602128E+03</pdfrwt>
<totfact> 0.44743512E+01</totfact>
</mgrwt>
</event>
<event>
 4    1  0.3565372E-007  0.1006976E+04  0.7818608E-02  0.9372488E-01
         -2   -1    0    0    0  501 -0.00000000000E+00  0.00000000000E+00  0.66414827199E+03  0.66414827200E+03  0.25500000000E-02 0.  1.
          2   -1    0    0  501    0  0.00000000000E+00 -0.00000000000E+00 -0.12722592840E+04  0.12722592840E+04  0.25500000000E-02 0. -1.
    8880023    1    1    2    0    0 -0.54603938307E+03 -0.53106592176E+03 -0.57326697053E+03  0.11587213845E+04  0.65864270000E+03 0.  0.
    8880022    1    1    2    0    0  0.54603938307E+03  0.53106592176E+03 -0.34844041495E+02  0.77768617152E+03  0.15294330000E+03 0.  0.
<mgrwt>
<rscale>  0 0.94374850E+03</rscale>
<asrwt>0</asrwt>
<pdfrwt beam="1">  1        2 0.19573220E+00 0.10069758E+04</pdfrwt>
<pdfrwt beam="2">  1       -2 0.10217666E+00 0.10069758E+04</pdfrwt>
<totfact> 0.13379666E+01</totfact>
</mgrwt>
</event>
<event>
 4    1  0.3565372E-007  0.6949317E+03  0.7818608E-02  0.1001891E+00
          2   -1    0    0  501    0  0.00000000000E+00  0.00000000000E+00  0.53741242700E+03  0.53741242701E+03  0.25500000000E-02 0. -1.
         -2   -1    0    0    0  501 -0.00000000000E+00 -0.00000000000E+00 -0.52544882226E+03  0.52544882227E+03  0.25500000000E-02 0.  1.
    8880023    1    1    2    0    0  0.16728896304E+03 -0.14537625400E+03  0.21296979258E+03  0.72683298714E+03  0.65864270000E+03 0. -1.
    8880022    1    1    2    0    0 -0.16728896304E+03  0.14537625400E+03 -0.20100618784E+03  0.33602826213E+03  0.15294330000E+03 0.  1.
<mgrwt>
<rscale>  0 0.54828638E+03</rscale>
<asrwt>0</asrwt>
<pdfrwt beam="1">  1        2 0.82678835E-01 0.69493169E+03</pdfrwt>
<pdfrwt beam="2">  1       -2 0.80838280E-01 0.69493169E+03</pdfrwt>
<totfact> 0.77539749E+01</totfact>
</mgrwt>
</event>
<event>
 4    1  0.3565372E-007  0.8060083E+03  0.7818608E-02  0.9697952E-01
          2   -1    0    0  501    0  0.00000000000E+00  0.00000000000E+00  0.29738485956E+04  0.29738485956E+04  0.25500000000E-02 0. -1.
         -2   -1    0    0    0  501 -0.00000000000E+00 -0.00000000000E+00 -0.23268826471E+03  0.23268826473E+03  0.25500000000E-02 0.  1.
    8880023    1    1    2    0    0 -0.37810809324E+03  0.26995070427E+03  0.25617530888E+04  0.26855591982E+04  0.65864270000E+03 0.  0.
    8880022    1    1    2    0    0  0.37810809324E+03 -0.26995070427E+03  0.17940724211E+03  0.52097766213E+03  0.15294330000E+03 0.  0.
<mgrwt>
<rscale>  0 0.71138835E+03</rscale>
<asrwt>0</asrwt>
<pdfrwt beam="1">  1        2 0.45751513E+00 0.80600826E+03</pdfrwt>
<pdfrwt beam="2">  1       -2 0.35798198E-01 0.80600826E+03</pdfrwt>
<totfact> 0.13936893E+01</totfact>
</mgrwt>
</event>
<event>
 4    1  0.3565372E-007  0.8648450E+03  0.7818608E-02  0.9585003E-01
         -2   -1    0    0    0  501 -0.00000000000E+00  0.00000000000E+00  0.69365657629E+03  0.69365657629E+03  0.25500000000E-02 0.  1.
          2   -1    0    0  501    0  0.00000000000E+00 -0.00000000000E+00 -0.79091988749E+03  0.79091988749E+03  0.25500000000E-02 0. -1.
    8880023    1    1    2    0    0  0.35926521639E+03 -0.43020366640E+03 -0.21639761721E+03  0.89150705286E+03  0.65864270000E+03 0.  0.
    8880022    1    1    2    0    0 -0.35926521639E+03  0.43020366640E+03  0.11913430601E+03  0.59306941093E+03  0.15294330000E+03 0.  0.
<mgrwt>
<rscale>  0 0.78296816E+03</rscale>
<asrwt>0</asrwt>
<pdfrwt beam="1">  1        2 0.12167998E+00 0.86484501E+03</pdfrwt>
<pdfrwt beam="2">  1       -2 0.10671640E+00 0.86484501E+03</pdfrwt>
<totfact> 0.24830902E+01</totfact>
</mgrwt>
</event>
<event>
 4    1  0.3565372E-007  0.1741528E+04  0.7818608E-02  0.8755590E-01
          2   -1    0    0  501    0  0.00000000000E+00  0.00000000000E+00  0.26094801736E+04  0.26094801736E+04  0.25500000000E-02 0. -1.
         -2   -1    0    0    0  501 -0.00000000000E+00 -0.00000000000E+00 -0.17831198663E+04  0.17831198663E+04  0.25500000000E-02 0.  1.
    8880023    1    1    2    0    0  0.72657517210E+03  0.14391655988E+04  0.17987437581E+04  0.25036769790E+04  0.65864270000E+03 0. -1.
    8880022    1    1    2    0    0 -0.72657517210E+03 -0.14391655988E+04 -0.97238345084E+03  0.18889230609E+04  0.15294330000E+03 0.  0.
<mgrwt>
<rscale>  0 0.17101621E+04</rscale>
<asrwt>0</asrwt>
<pdfrwt beam="1">  1        2 0.40145849E+00 0.17415279E+04</pdfrwt>
<pdfrwt beam="2">  1       -2 0.27432613E+00 0.17415279E+04</pdfrwt>
<totfact> 0.12489347E-01</totfact>
</mgrwt>
</event>
<event>
 4    1  0.3565372E-007  0.7171944E+03  0.7818608E-02  0.9932196E-01
          2   -1    0    0  501    0  0.00000000000E+00  0.00000000000E+00  0.10195017971E+04  0.10195017971E+04  0.25500000000E-02 0. -1.
         -2   -1    0    0    0  501 -0.00000000000E+00 -0.00000000000E+00 -0.37786356957E+03  0.37786356958E+03  0.25500000000E-02 0.  1.
    8880023    1    1    2    0    0  0.22409588361E+01 -0.28381789799E+03  0.76824661351E+03  0.10509855787E+04  0.65864270000E+03 0.  0.
    8880022    1    1    2    0    0 -0.22409588361E+01  0.28381789799E+03 -0.12660838600E+03  0.34637978800E+03  0.15294330000E+03 0.  0.
<mgrwt>
<rscale>  0 0.58725991E+03</rscale>
<asrwt>0</asrwt>
<pdfrwt beam="1">  1        2 0.15684643E+00 0.71719441E+03</pdfrwt>
<pdfrwt beam="2">  1       -2 0.58132858E-01 0.71719441E+03</pdfrwt>
<totfact> 0.68959607E+01</totfact>
</mgrwt>
</event>
<event>
 4    1  0.3565372E-007  0.7548958E+03  0.7818608E-02  0.9818506E-01
         -2   -1    0    0    0  501 -0.00000000000E+00  0.00000000000E+00  0.55754814949E+03  0.55754814949E+03  0.25500000000E-02 0.  1.
          2   -1    0    0  501    0  0.00000000000E+00 -0.00000000000E+00 -0.14792088785E+04  0.14792088785E+04  0.25500000000E-02 0. -1.
    8880023    1    1    2    0    0  0.30106352787E+03 -0.21311540275E+03 -0.12892591295E+04  0.14940069384E+04  0.65864270000E+03 0.  0.
    8880022    1    1    2    0    0 -0.30106352787E+03  0.21311540275E+03  0.36759840049E+03  0.54275008960E+03  0.15294330000E+03 0.  0.
<mgrwt>
<rscale>  0 0.64378818E+03</rscale>
<asrwt>0</asrwt>
<pdfrwt beam="1">  1        2 0.22757059E+00 0.75489577E+03</pdfrwt>
<pdfrwt beam="2">  1       -2 0.85776639E-01 0.75489577E+03</pdfrwt>
<totfact> 0.15749822E+01</totfact>
</mgrwt>
</event>
<event>
 4    1  0.3565372E-007  0.7042547E+03  0.7818608E-02  0.9979988E-01
         -2   -1    0    0    0  501 -0.00000000000E+00  0.00000000000E+00  0.33767942682E+03  0.33767942683E+03  0.25500000000E-02 0.  1.
          2   -1    0    0  501    0  0.00000000000E+00 -0.00000000000E+00 -0.15865140876E+04  0.15865140876E+04  0.25500000000E-02 0. -1.
    8880023    1    1    2    0    0  0.15096691772E+03 -0.19842757562E+03 -0.14201752178E+04  0.15852042041E+04  0.65864270000E+03 0.  0.
    8880022    1    1    2    0    0 -0.15096691772E+03  0.19842757562E+03  0.17134055707E+03  0.33898931034E+03  0.15294330000E+03 0.  0.
<mgrwt>
<rscale>  0 0.56536477E+03</rscale>
<asrwt>0</asrwt>
<pdfrwt beam="1">  1        2 0.24407909E+00 0.70425473E+03</pdfrwt>
<pdfrwt beam="2">  1       -2 0.51950682E-01 0.70425473E+03</pdfrwt>
<totfact> 0.40860283E+01</totfact>
</mgrwt>
</event>
<event>
 4    1  0.3565372E-007  0.6671191E+03  0.7818608E-02  0.1017818E+00
         -2   -1    0    0    0  501 -0.00000000000E+00  0.00000000000E+00  0.27063857051E+03  0.27063857052E+03  0.25500000000E-02 0.  1.
          2   -1    0    0  501    0  0.00000000000E+00 -0.00000000000E+00 -0.11367805282E+04  0.11367805282E+04  0.25500000000E-02 0. -1.
    8880023    1    1    2    0    0  0.64273817997E+02 -0.84300390171E+02 -0.98276693724E+03  0.11878041668E+04  0.65864270000E+03 0. -1.
    8880022    1    1    2    0    0 -0.64273817997E+02  0.84300390171E+02  0.11662497954E+03  0.21961493194E+03  0.15294330000E+03 0.  0.
<mgrwt>
<rscale>  0 0.48482281E+03</rscale>
<asrwt>0</asrwt>
<pdfrwt beam="1">  1        2 0.17488931E+00 0.66711909E+03</pdfrwt>
<pdfrwt beam="2">  1       -2 0.41636704E-01 0.66711909E+03</pdfrwt>
<totfact> 0.11537443E+02</totfact>
</mgrwt>
</event>
<event>
 4    1  0.3565372E-007  0.6838259E+03  0.7818608E-02  0.1007237E+00
         -2   -1    0    0    0  501 -0.00000000000E+00  0.00000000000E+00  0.12426281163E+03  0.12426281165E+03  0.25500000000E-02 0.  1.
          2   -1    0    0  501    0  0.00000000000E+00 -0.00000000000E+00 -0.20399324610E+04  0.20399324610E+04  0.25500000000E-02 0. -1.
    8880023    1    1    2    0    0 -0.14788836373E+03 -0.10925541087E+03 -0.95741829401E+03  0.11765490678E+04  0.65864270000E+03 0.  1.
    8880022    1    1    2    0    0  0.14788836373E+03  0.10925541087E+03 -0.95825135534E+03  0.98764620485E+03  0.15294330000E+03 0.  0.
<mgrwt>
<rscale>  0 0.52587567E+03</rscale>
<asrwt>0</asrwt>
<pdfrwt beam="1">  1        2 0.31383574E+00 0.68382594E+03</pdfrwt>
<pdfrwt beam="2">  1       -2 0.19117357E-01 0.68382594E+03</pdfrwt>
<totfact> 0.15135573E+02</totfact>
</mgrwt>
</event>
<event>
 4    1  0.3565372E-007  0.8740283E+03  0.7818608E-02  0.9569081E-01
          2   -1    0    0  501    0  0.00000000000E+00  0.00000000000E+00  0.28149059823E+04  0.28149059823E+04  0.25500000000E-02 0. -1.
         -2   -1    0    0    0  501 -0.00000000000E+00 -0.00000000000E+00 -0.64185868739E+03  0.64185868739E+03  0.25500000000E-02 0.  1.
    8880023    1    1    2    0    0 -0.32444997147E+03 -0.47418092772E+03  0.25880738827E+04  0.27316756698E+04  0.65864270000E+03 0. -1.
    8880022    1    1    2    0    0  0.32444997147E+03  0.47418092772E+03 -0.41502658780E+03  0.72508899992E+03  0.15294330000E+03 0.  0.
<mgrwt>
<rscale>  0 0.79376855E+03</rscale>
<asrwt>0</asrwt>
<pdfrwt beam="1">  1        2 0.43306246E+00 0.87402834E+03</pdfrwt>
<pdfrwt beam="2">  1       -2 0.98747491E-01 0.87402834E+03</pdfrwt>
<totfact> 0.19971573E+00</totfact>
</mgrwt>
</event>
<event>
 4    1  0.3565372E-007  0.6951101E+03  0.7818608E-02  0.1001812E+00
          2   -1    0    0  501    0  0.00000000000E+00  0.00000000000E+00  0.10908846725E+04  0.10908846725E+04  0.25500000000E-02 0. -1.
         -2   -1    0    0    0  501 -0.00000000000E+00 -0.00000000000E+00 -0.23487139516E+03  0.23487139517E+03  0.25500000000E-02 0.  1.
    8880023    1    1    2    0    0 -0.22193741700E+03  0.10562950265E+02  0.78151540990E+03  0.10459179390E+04  0.65864270000E+03 0. -1.
    8880022    1    1    2    0    0  0.22193741700E+03 -0.10562950265E+02  0.74497867436E+02  0.27983812865E+03  0.15294330000E+03 0.  0.
<mgrwt>
<rscale>  0 0.54862596E+03</rscale>
<asrwt>0</asrwt>
<pdfrwt beam="1">  1        2 0.16782841E+00 0.69511006E+03</pdfrwt>
<pdfrwt beam="2">  1       -2 0.36134061E-01 0.69511006E+03</pdfrwt>
<totfact> 0.16151948E+02</totfact>
</mgrwt>
</event>
<event>
 4    1  0.3565372E-007  0.7205263E+03  0.7818608E-02  0.9920809E-01
         -2   -1    0    0    0  501 -0.00000000000E+00  0.00000000000E+00  0.30602356160E+03  0.30602356161E+03  0.25500000000E-02 0.  1.
          2   -1    0    0  501    0  0.00000000000E+00 -0.00000000000E+00 -0.15757280310E+04  0.15757280310E+04  0.25500000000E-02 0. -1.
    8880023    1    1    2    0    0  0.24864440100E+03  0.15337521650E+03 -0.13606776672E+04  0.15396759125E+04  0.65864270000E+03 0. -1.
    8880022    1    1    2    0    0 -0.24864440100E+03 -0.15337521650E+03  0.90973197825E+02  0.34207568011E+03  0.15294330000E+03 0.  0.
<mgrwt>
<rscale>  0 0.59263307E+03</rscale>
<asrwt>0</asrwt>
<pdfrwt beam="1">  1        2 0.24241969E+00 0.72052634E+03</pdfrwt>
<pdfrwt beam="2">  1       -2 0.47080549E-01 0.72052634E+03</pdfrwt>
<totfact> 0.50488618E+01</totfact>
</mgrwt>
</event>
<event>
 4    1  0.3565372E-007  0.7750728E+03  0.7818608E-02  0.9767541E-01
          2   -1    0    0  501    0  0.00000000000E+00  0.00000000000E+00  0.19829809044E+04  0.19829809044E+04  0.25500000000E-02 0. -1.
         -2   -1    0    0    0  501 -0.00000000000E+00 -0.00000000000E+00 -0.36568933510E+03  0.36568933510E+03  0.25500000000E-02 0.  1.
    8880023    1    1    2    0    0 -0.32258588946E+03 -0.25073094083E+03  0.17320607989E+04  0.18975701510E+04  0.65864270000E+03 0. -1.
    8880022    1    1    2    0    0  0.32258588946E+03  0.25073094083E+03 -0.11476922956E+03  0.45110008849E+03  0.15294330000E+03 0.  0.
<mgrwt>
<rscale>  0 0.67133955E+03</rscale>
<asrwt>0</asrwt>
<pdfrwt beam="1">  1        2 0.30507399E+00 0.77507281E+03</pdfrwt>
<pdfrwt beam="2">  1       -2 0.56259897E-01 0.77507281E+03</pdfrwt>
<totfact> 0.20858272E+01</totfact>
</mgrwt>
</event>
<event>
 4    1  0.3565372E-007  0.8314884E+03  0.7818608E-02  0.9646443E-01
         -2   -1    0    0    0  501 -0.00000000000E+00  0.00000000000E+00  0.26093961606E+03  0.26093961607E+03  0.25500000000E-02 0.  1.
          2   -1    0    0  501    0  0.00000000000E+00 -0.00000000000E+00 -0.20387050265E+04  0.20387050265E+04  0.25500000000E-02 0. -1.
    8880023    1    1    2    0    0 -0.50535847839E+03 -0.46642596717E+02 -0.65653803300E+03  0.10594409462E+04  0.65864270000E+03 0.  1.
    8880022    1    1    2    0    0  0.50535847839E+03  0.46642596717E+02 -0.11212273775E+04  0.12402036964E+04  0.15294330000E+03 0.  0.
<mgrwt>
<rscale>  0 0.74297058E+03</rscale>
<asrwt>0</asrwt>
<pdfrwt beam="1">  1        2 0.31364692E+00 0.83148838E+03</pdfrwt>
<pdfrwt beam="2">  1       -2 0.40144558E-01 0.83148838E+03</pdfrwt>
<totfact> 0.38159060E+01</totfact>
</mgrwt>
</event>
<event>
 4    1  0.3565372E-007  0.1330297E+04  0.7818608E-02  0.9039828E-01
         -2   -1    0    0    0  501 -0.00000000000E+00  0.00000000000E+00  0.80984539748E+03  0.80984539748E+03  0.25500000000E-02 0.  1.
          2   -1    0    0  501    0  0.00000000000E+00 -0.00000000000E+00 -0.28068385186E+04  0.28068385186E+04  0.25500000000E-02 0. -1.
    8880023    1    1    2    0    0 -0.15339538373E+02  0.11557011127E+04 -0.30604852815E+02  0.13306491749E+04  0.65864270000E+03 0.  0.
    8880022    1    1    2    0    0  0.15339538373E+02 -0.11557011127E+04 -0.19663882683E+04  0.22860347412E+04  0.15294330000E+03 0.  0.
<mgrwt>
<rscale>  0 0.12871371E+04</rscale>
<asrwt>0</asrwt>
<pdfrwt beam="1">  1        2 0.43182131E+00 0.13302972E+04</pdfrwt>
<pdfrwt beam="2">  1       -2 0.12459160E+00 0.13302972E+04</pdfrwt>
<totfact> 0.10723601E+00</totfact>
</mgrwt>
</event>
<event>
 4    1  0.3565372E-007  0.9615224E+03  0.7818608E-02  0.9433726E-01
         -2   -1    0    0    0  501 -0.00000000000E+00  0.00000000000E+00  0.34987789998E+03  0.34987789999E+03  0.25500000000E-02 0.  1.
          2   -1    0    0  501    0  0.00000000000E+00 -0.00000000000E+00 -0.22896504090E+04  0.22896504090E+04  0.25500000000E-02 0. -1.
    8880023    1    1    2    0    0  0.44203005427E+03 -0.54343773881E+03 -0.15484070397E+04  0.18226600648E+04  0.65864270000E+03 0.  0.
    8880022    1    1    2    0    0 -0.44203005427E+03  0.54343773881E+03 -0.39136546933E+03  0.81686824423E+03  0.15294330000E+03 0.  0.
<mgrwt>
<rscale>  0 0.89351372E+03</rscale>
<asrwt>0</asrwt>
<pdfrwt beam="1">  1        2 0.35225390E+00 0.96152241E+03</pdfrwt>
<pdfrwt beam="2">  1       -2 0.53827371E-01 0.96152241E+03</pdfrwt>
<totfact> 0.15131286E+01</totfact>
</mgrwt>
</event>
<event>
 4    1  0.3565372E-007  0.9529494E+03  0.7818608E-02  0.9445883E-01
         -2   -1    0    0    0  501 -0.00000000000E+00  0.00000000000E+00  0.83585428125E+03  0.83585428126E+03  0.25500000000E-02 0.  1.
          2   -1    0    0  501    0  0.00000000000E+00 -0.00000000000E+00 -0.14263491964E+04  0.14263491964E+04  0.25500000000E-02 0. -1.
    8880023    1    1    2    0    0 -0.60036350105E+03 -0.33744029517E+03  0.41048596962E+03  0.10375987778E+04  0.65864270000E+03 0.  0.
    8880022    1    1    2    0    0  0.60036350105E+03  0.33744029517E+03 -0.10009808848E+04  0.12246046998E+04  0.15294330000E+03 0.  0.
<mgrwt>
<rscale>  0 0.88393975E+03</rscale>
<asrwt>0</asrwt>
<pdfrwt beam="1">  1        2 0.21943834E+00 0.95294937E+03</pdfrwt>
<pdfrwt beam="2">  1       -2 0.12859297E+00 0.95294937E+03</pdfrwt>
<totfact> 0.62284658E+00</totfact>
</mgrwt>
</event>
<event>
 4    1  0.3565372E-007  0.9116855E+03  0.7818608E-02  0.9507527E-01
         -2   -1    0    0    0  501 -0.00000000000E+00  0.00000000000E+00  0.68233914621E+03  0.68233914621E+03  0.25500000000E-02 0.  1.
          2   -1    0    0  501    0  0.00000000000E+00 -0.00000000000E+00 -0.12107317847E+04  0.12107317847E+04  0.25500000000E-02 0. -1.
    8880023    1    1    2    0    0 -0.62019468769E+03 -0.11277728731E+03 -0.77753082062E+03  0.11982172384E+04  0.65864270000E+03 0. -1.
    8880022    1    1    2    0    0  0.62019468769E+03  0.11277728731E+03  0.24913818212E+03  0.69485369250E+03  0.15294330000E+03 0.  1.
<mgrwt>
<rscale>  0 0.83731143E+03</rscale>
<asrwt>0</asrwt>
<pdfrwt beam="1">  1        2 0.18626643E+00 0.91168546E+03</pdfrwt>
<pdfrwt beam="2">  1       -2 0.10497525E+00 0.91168546E+03</pdfrwt>
<totfact> 0.13754123E+01</totfact>
</mgrwt>
</event>
<event>
 4    1  0.3565372E-007  0.7128807E+03  0.7818608E-02  0.9947455E-01
         -2   -1    0    0    0  501 -0.00000000000E+00  0.00000000000E+00  0.18690378179E+04  0.18690378179E+04  0.25500000000E-02 0.  1.
          2   -1    0    0  501    0  0.00000000000E+00 -0.00000000000E+00 -0.23110349694E+03  0.23110349695E+03  0.25500000000E-02 0. -1.
    8880023    1    1    2    0    0  0.12016951471E+03  0.24484288440E+03  0.38788512782E+03  0.81157490656E+03  0.65864270000E+03 0. -1.
    8880022    1    1    2    0    0 -0.12016951471E+03 -0.24484288440E+03  0.12500491932E+04  0.12885664083E+04  0.15294330000E+03 0.  0.
<mgrwt>
<rscale>  0 0.58015514E+03</rscale>
<asrwt>0</asrwt>
<pdfrwt beam="1">  1        2 0.35554383E-01 0.71288074E+03</pdfrwt>
<pdfrwt beam="2">  1       -2 0.28754429E+00 0.71288074E+03</pdfrwt>
<totfact> 0.57909096E+00</totfact>
</mgrwt>
</event>
<event>
 4    1  0.3565372E-007  0.7248995E+03  0.7818608E-02  0.9906343E-01
          2   -1    0    0  501    0  0.00000000000E+00  0.00000000000E+00  0.32528612487E+04  0.32528612487E+04  0.25500000000E-02 0. -1.
         -2   -1    0    0    0  501 -0.00000000000E+00 -0.00000000000E+00 -0.17817135832E+03  0.17817135834E+03  0.25500000000E-02 0.  1.
    8880023    1    1    2    0    0  0.24686669897E+03  0.17528811380E+03  0.29964945530E+04  0.30829302461E+04  0.65864270000E+03 0. -1.
    8880022    1    1    2    0    0 -0.24686669897E+03 -0.17528811380E+03  0.78195337391E+02  0.34810236095E+03  0.15294330000E+03 0.  0.
<mgrwt>
<rscale>  0 0.59954840E+03</rscale>
<asrwt>0</asrwt>
<pdfrwt beam="1">  1        2 0.50044016E+00 0.72489951E+03</pdfrwt>
<pdfrwt beam="2">  1       -2 0.27410980E-01 0.72489951E+03</pdfrwt>
<totfact> 0.15571419E+01</totfact>
</mgrwt>
</event>
<event>
 4    1  0.3565372E-007  0.7607778E+03  0.7818608E-02  0.9803098E-01
         -2   -1    0    0    0  501 -0.00000000000E+00  0.00000000000E+00  0.17231579849E+03  0.17231579851E+03  0.25500000000E-02 0.  1.
          2   -1    0    0  501    0  0.00000000000E+00 -0.00000000000E+00 -0.33943408709E+04  0.33943408709E+04  0.25500000000E-02 0. -1.
    8880023    1    1    2    0    0  0.33565663196E+03  0.17974218784E+03 -0.30102683439E+04  0.31049151901E+04  0.65864270000E+03 0. -1.
    8880022    1    1    2    0    0 -0.33565663196E+03 -0.17974218784E+03 -0.21175672844E+03  0.46174147931E+03  0.15294330000E+03 0.  0.
<mgrwt>
<rscale>  0 0.65196549E+03</rscale>
<asrwt>0</asrwt>
<pdfrwt beam="1">  1        2 0.52220624E+00 0.76077778E+03</pdfrwt>
<pdfrwt beam="2">  1       -2 0.26510125E-01 0.76077778E+03</pdfrwt>
<totfact> 0.13288943E+01</totfact>
</mgrwt>
</event>
<event>
 4    1  0.3565372E-007  0.8807877E+03  0.7818608E-02  0.9557605E-01
          2   -1    0    0  501    0  0.00000000000E+00  0.00000000000E+00  0.10284378164E+04  0.10284378164E+04  0.25500000000E-02 0. -1.
         -2   -1    0    0    0  501 -0.00000000000E+00 -0.00000000000E+00 -0.80920500671E+03  0.80920500671E+03  0.25500000000E-02 0.  1.
    8880023    1    1    2    0    0  0.55504037330E+02 -0.58214784279E+03  0.65062493053E+03  0.10950341618E+04  0.65864270000E+03 0. -1.
    8880022    1    1    2    0    0 -0.55504037330E+02  0.58214784279E+03 -0.43139212080E+03  0.74260866136E+03  0.15294330000E+03 0.  0.
<mgrwt>
<rscale>  0 0.80166851E+03</rscale>
<asrwt>0</asrwt>
<pdfrwt beam="1">  1        2 0.15822120E+00 0.88078772E+03</pdfrwt>
<pdfrwt beam="2">  1       -2 0.12449308E+00 0.88078772E+03</pdfrwt>
<totfact> 0.11739410E+01</totfact>
</mgrwt>
</event>
<event>
 4    1  0.3565372E-007  0.6761929E+03  0.7818608E-02  0.1011565E+00
         -2   -1    0    0    0  501 -0.00000000000E+00  0.00000000000E+00  0.47867152867E+03  0.47867152867E+03  0.25500000000E-02 0.  1.
          2   -1    0    0  501    0  0.00000000000E+00 -0.00000000000E+00 -0.19616568746E+04  0.19616568746E+04  0.25500000000E-02 0. -1.
    8880023    1    1    2    0    0  0.14744496099E+03  0.41067711374E+02 -0.18746471858E+04  0.19928720107E+04  0.65864270000E+03 0. -1.
    8880022    1    1    2    0    0 -0.14744496099E+03 -0.41067711374E+02  0.39166183988E+03  0.44745639259E+03  0.15294330000E+03 0.  0.
<mgrwt>
<rscale>  0 0.50857476E+03</rscale>
<asrwt>0</asrwt>
<pdfrwt beam="1">  1        2 0.30179336E+00 0.67619286E+03</pdfrwt>
<pdfrwt beam="2">  1       -2 0.73641775E-01 0.67619286E+03</pdfrwt>
<totfact> 0.12207066E+01</totfact>
</mgrwt>
</event>
<event>
 4    1  0.3565372E-007  0.9685574E+03  0.7818608E-02  0.9423902E-01
          2   -1    0    0  501    0  0.00000000000E+00  0.00000000000E+00  0.66585175323E+03  0.66585175324E+03  0.25500000000E-02 0. -1.
         -2   -1    0    0    0  501 -0.00000000000E+00 -0.00000000000E+00 -0.22449507614E+04  0.22449507614E+04  0.25500000000E-02 0.  1.
    8880023    1    1    2    0    0 -0.57272802028E+03  0.41985223517E+03  0.20011087026E+03  0.98901357486E+03  0.65864270000E+03 0. -1.
    8880022    1    1    2    0    0  0.57272802028E+03 -0.41985223517E+03 -0.17792098785E+04  0.19217889398E+04  0.15294330000E+03 0.  0.
<mgrwt>
<rscale>  0 0.90134462E+03</rscale>
<asrwt>0</asrwt>
<pdfrwt beam="1">  1        2 0.10243873E+00 0.96855743E+03</pdfrwt>
<pdfrwt beam="2">  1       -2 0.34537704E+00 0.96855743E+03</pdfrwt>
<totfact> 0.73821469E-01</totfact>
</mgrwt>
</event>
<event>
 4    1  0.3565372E-007  0.6877191E+03  0.7818608E-02  0.1005256E+00
         -2   -1    0    0    0  501 -0.00000000000E+00  0.00000000000E+00  0.22421794681E+03  0.22421794682E+03  0.25500000000E-02 0.  1.
          2   -1    0    0  501    0  0.00000000000E+00 -0.00000000000E+00 -0.47883902021E+04  0.47883902021E+04  0.25500000000E-02 0. -1.
    8880023    1    1    2    0    0 -0.19084553419E+03  0.52204969848E+02 -0.46847636957E+04  0.47349729110E+04  0.65864270000E+03 0. -1.
    8880022    1    1    2    0    0  0.19084553419E+03 -0.52204969848E+02  0.12059144046E+03  0.27763523790E+03  0.15294330000E+03 0.  0.
<mgrwt>
<rscale>  0 0.53404421E+03</rscale>
<asrwt>0</asrwt>
<pdfrwt beam="1">  1        2 0.73667534E+00 0.68771912E+03</pdfrwt>
<pdfrwt beam="2">  1       -2 0.34495072E-01 0.68771912E+03</pdfrwt>
<totfact> 0.57086692E-01</totfact>
</mgrwt>
</event>
<event>
 4    1  0.3565372E-007  0.6623393E+03  0.7818608E-02  0.1021878E+00
         -2   -1    0    0    0  501 -0.00000000000E+00  0.00000000000E+00  0.32590419115E+03  0.32590419116E+03  0.25500000000E-02 0.  1.
          2   -1    0    0  501    0  0.00000000000E+00 -0.00000000000E+00 -0.20072899792E+04  0.20072899792E+04  0.25500000000E-02 0. -1.
    8880023    1    1    2    0    0  0.97090546500E+01  0.69201387654E+02 -0.19258044353E+04  0.20365205687E+04  0.65864270000E+03 0. -1.
    8880022    1    1    2    0    0 -0.97090546500E+01 -0.69201387654E+02  0.24441864719E+03  0.29667360163E+03  0.15294330000E+03 0.  0.
<mgrwt>
<rscale>  0 0.47014868E+03</rscale>
<asrwt>0</asrwt>
<pdfrwt beam="1">  1        2 0.30881384E+00 0.66233927E+03</pdfrwt>
<pdfrwt beam="2">  1       -2 0.50139108E-01 0.66233927E+03</pdfrwt>
<totfact> 0.26060021E+01</totfact>
</mgrwt>
</event>
<event>
 4    1  0.3565372E-007  0.8023328E+03  0.7818608E-02  0.9705775E-01
          2   -1    0    0  501    0  0.00000000000E+00  0.00000000000E+00  0.24030416033E+04  0.24030416033E+04  0.25500000000E-02 0. -1.
         -2   -1    0    0    0  501 -0.00000000000E+00 -0.00000000000E+00 -0.70988581075E+03  0.70988581075E+03  0.25500000000E-02 0.  1.
    8880023    1    1    2    0    0  0.15061317411E+03 -0.43271632375E+03  0.22423303193E+04  0.23815505899E+04  0.65864270000E+03 0.  0.
    8880022    1    1    2    0    0 -0.15061317411E+03  0.43271632375E+03 -0.54917452676E+03  0.73137682416E+03  0.15294330000E+03 0.  0.
<mgrwt>
<rscale>  0 0.70674016E+03</rscale>
<asrwt>0</asrwt>
<pdfrwt beam="1">  1        2 0.36969871E+00 0.80233282E+03</pdfrwt>
<pdfrwt beam="2">  1       -2 0.10921320E+00 0.80233282E+03</pdfrwt>
<totfact> 0.27467860E+00</totfact>
</mgrwt>
</event>
<event>
 4    1  0.3565372E-007  0.9220328E+03  0.7818608E-02  0.9491549E-01
          2   -1    0    0  501    0  0.00000000000E+00  0.00000000000E+00  0.53009314052E+03  0.53009314053E+03  0.25500000000E-02 0. -1.
         -2   -1    0    0    0  501 -0.00000000000E+00 -0.00000000000E+00 -0.13372406920E+04  0.13372406920E+04  0.25500000000E-02 0.  1.
    8880023    1    1    2    0    0 -0.52567624846E+01  0.64521823110E+03 -0.15073517876E+03  0.93427271162E+03  0.65864270000E+03 0. -1.
    8880022    1    1    2    0    0  0.52567624846E+01 -0.64521823110E+03 -0.65641237272E+03  0.93306112092E+03  0.15294330000E+03 0.  0.
<mgrwt>
<rscale>  0 0.84909740E+03</rscale>
<asrwt>0</asrwt>
<pdfrwt beam="1">  1        2 0.81552792E-01 0.92203276E+03</pdfrwt>
<pdfrwt beam="2">  1       -2 0.20572934E+00 0.92203276E+03</pdfrwt>
<totfact> 0.70338603E+00</totfact>
</mgrwt>
</event>
<event>
 4    1  0.3565372E-007  0.9952939E+03  0.7818608E-02  0.9387741E-01
         -2   -1    0    0    0  501 -0.00000000000E+00  0.00000000000E+00  0.25798921771E+03  0.25798921773E+03  0.25500000000E-02 0.  1.
          2   -1    0    0  501    0  0.00000000000E+00 -0.00000000000E+00 -0.29918231427E+04  0.29918231427E+04  0.25500000000E-02 0. -1.
    8880023    1    1    2    0    0 -0.49451467701E+03 -0.55879779121E+03 -0.15668287927E+04  0.18562226184E+04  0.65864270000E+03 0. -1.
    8880022    1    1    2    0    0  0.49451467701E+03  0.55879779121E+03 -0.11670051323E+04  0.13935897420E+04  0.15294330000E+03 0.  1.
<mgrwt>
<rscale>  0 0.93091476E+03</rscale>
<asrwt>0</asrwt>
<pdfrwt beam="1">  1        2 0.46028046E+00 0.99529390E+03</pdfrwt>
<pdfrwt beam="2">  1       -2 0.39690651E-01 0.99529390E+03</pdfrwt>
<totfact> 0.10827808E+01</totfact>
</mgrwt>
</event>
<event>
 4    1  0.3565372E-007  0.7152505E+03  0.7818608E-02  0.9938997E-01
         -2   -1    0    0    0  501 -0.00000000000E+00  0.00000000000E+00  0.17357537239E+04  0.17357537239E+04  0.25500000000E-02 0.  1.
          2   -1    0    0  501    0  0.00000000000E+00 -0.00000000000E+00 -0.36876466613E+03  0.36876466614E+03  0.25500000000E-02 0. -1.
    8880023    1    1    2    0    0 -0.22551612625E+03  0.16405957819E+03  0.14777361562E+02  0.71540313465E+03  0.65864270000E+03 0. -1.
    8880022    1    1    2    0    0  0.22551612625E+03 -0.16405957819E+03  0.13522116962E+04  0.13891152554E+04  0.15294330000E+03 0.  0.
<mgrwt>
<rscale>  0 0.58407990E+03</rscale>
<asrwt>0</asrwt>
<pdfrwt beam="1">  1        2 0.56733025E-01 0.71525050E+03</pdfrwt>
<pdfrwt beam="2">  1       -2 0.26703904E+00 0.71525050E+03</pdfrwt>
<totfact> 0.45654814E+00</totfact>
</mgrwt>
</event>
<event>
 4    1  0.3565372E-007  0.7477467E+03  0.7818608E-02  0.9837930E-01
          2   -1    0    0  501    0  0.00000000000E+00  0.00000000000E+00  0.23540125672E+04  0.23540125673E+04  0.25500000000E-02 0. -1.
         -2   -1    0    0    0  501 -0.00000000000E+00 -0.00000000000E+00 -0.13901413310E+03  0.13901413312E+03  0.25500000000E-02 0.  1.
    8880023    1    1    2    0    0  0.69255275225E+02 -0.34715801071E+03  0.16162953756E+04  0.17808806599E+04  0.65864270000E+03 0.  0.
    8880022    1    1    2    0    0 -0.69255275225E+02  0.34715801071E+03  0.59870305857E+03  0.71214604043E+03  0.15294330000E+03 0. -1.
<mgrwt>
<rscale>  0 0.63366130E+03</rscale>
<asrwt>0</asrwt>
<pdfrwt beam="1">  1        2 0.36215574E+00 0.74774674E+03</pdfrwt>
<pdfrwt beam="2">  1       -2 0.21386792E-01 0.74774674E+03</pdfrwt>
<totfact> 0.82904460E+01</totfact>
</mgrwt>
</event>
<event>
 4    1  0.3565372E-007  0.7118811E+03  0.7818608E-02  0.9951081E-01
         -2   -1    0    0    0  501 -0.00000000000E+00  0.00000000000E+00  0.58552380012E+03  0.58552380013E+03  0.25500000000E-02 0.  1.
          2   -1    0    0  501    0  0.00000000000E+00 -0.00000000000E+00 -0.18300241936E+04  0.18300241936E+04  0.25500000000E-02 0. -1.
    8880023    1    1    2    0    0 -0.22547736340E+03  0.14874290638E+03 -0.17121532394E+04  0.18542500951E+04  0.65864270000E+03 0. -1.
    8880022    1    1    2    0    0  0.22547736340E+03 -0.14874290638E+03  0.46765284598E+03  0.56129789861E+03  0.15294330000E+03 0.  0.
<mgrwt>
<rscale>  0 0.57848290E+03</rscale>
<asrwt>0</asrwt>
<pdfrwt beam="1">  1        2 0.28154218E+00 0.71188110E+03</pdfrwt>
<pdfrwt beam="2">  1       -2 0.90080585E-01 0.71188110E+03</pdfrwt>
<totfact> 0.90860880E+00</totfact>
</mgrwt>
</event>
<event>
 4    1  0.3565372E-007  0.9332071E+03  0.7818608E-02  0.9474699E-01
          2   -1    0    0  501    0  0.00000000000E+00  0.00000000000E+00  0.18472474725E+04  0.18472474725E+04  0.25500000000E-02 0. -1.
         -2   -1    0    0    0  501 -0.00000000000E+00 -0.00000000000E+00 -0.71598447794E+03  0.71598447794E+03  0.25500000000E-02 0.  1.
    8880023    1    1    2    0    0  0.31995069086E+03 -0.57852992372E+03  0.15182105419E+04  0.17820883179E+04  0.65864270000E+03 0.  0.
    8880022    1    1    2    0    0 -0.31995069086E+03  0.57852992372E+03 -0.38694754731E+03  0.78114363251E+03  0.15294330000E+03 0.  0.
<mgrwt>
<rscale>  0 0.86175173E+03</rscale>
<asrwt>0</asrwt>
<pdfrwt beam="1">  1        2 0.28419192E+00 0.93320712E+03</pdfrwt>
<pdfrwt beam="2">  1       -2 0.11015146E+00 0.93320712E+03</pdfrwt>
<totfact> 0.53513287E+00</totfact>
</mgrwt>
</event>
<event>
 4    1  0.3565372E-007  0.6722241E+03  0.7818608E-02  0.1014116E+00
          2   -1    0    0  501    0  0.00000000000E+00  0.00000000000E+00  0.82815212423E+03  0.82815212423E+03  0.25500000000E-02 0. -1.
         -2   -1    0    0    0  501 -0.00000000000E+00 -0.00000000000E+00 -0.82388614326E+03  0.82388614327E+03  0.25500000000E-02 0.  1.
    8880023    1    1    2    0    0 -0.13654381921E+02 -0.13374816670E+03  0.67406360224E+03  0.95197004174E+03  0.65864270000E+03 0. -1.
    8880022    1    1    2    0    0  0.13654381921E+02  0.13374816670E+03 -0.66979762127E+03  0.70006822576E+03  0.15294330000E+03 0.  0.
<mgrwt>
<rscale>  0 0.49870985E+03</rscale>
<asrwt>0</asrwt>
<pdfrwt beam="1">  1        2 0.12740802E+00 0.67222409E+03</pdfrwt>
<pdfrwt beam="2">  1       -2 0.12675171E+00 0.67222409E+03</pdfrwt>
<totfact> 0.15588411E+01</totfact>
</mgrwt>
</event>
<event>
 4    1  0.3565372E-007  0.6785861E+03  0.7818608E-02  0.1010135E+00
          2   -1    0    0  501    0  0.00000000000E+00  0.00000000000E+00  0.12537516513E+04  0.12537516513E+04  0.25500000000E-02 0. -1.
         -2   -1    0    0    0  501 -0.00000000000E+00 -0.00000000000E+00 -0.27118950991E+03  0.27118950992E+03  0.25500000000E-02 0.  1.
    8880023    1    1    2    0    0 -0.16144128291E+03  0.24609326680E+02  0.10843155760E+04  0.12791479122E+04  0.65864270000E+03 0. -1.
    8880022    1    1    2    0    0  0.16144128291E+03 -0.24609326680E+02 -0.10175343459E+03  0.24579324899E+03  0.15294330000E+03 0.  0.
<mgrwt>
<rscale>  0 0.51421020E+03</rscale>
<asrwt>0</asrwt>
<pdfrwt beam="1">  1        2 0.19288486E+00 0.67858611E+03</pdfrwt>
<pdfrwt beam="2">  1       -2 0.41721464E-01 0.67858611E+03</pdfrwt>
<totfact> 0.97911409E+01</totfact>
</mgrwt>
</event>
<event>
 4    1  0.3565372E-007  0.1244491E+04  0.7818608E-02  0.9115042E-01
         -2   -1    0    0    0  501 -0.00000000000E+00  0.00000000000E+00  0.11785843010E+04  0.11785843010E+04  0.25500000000E-02 0.  1.
          2   -1    0    0  501    0  0.00000000000E+00 -0.00000000000E+00 -0.21622012504E+04  0.21622012504E+04  0.25500000000E-02 0. -1.
    8880023    1    1    2    0    0 -0.52128514817E+03 -0.91826463401E+03 -0.16621159733E+04  0.20763881763E+04  0.65864270000E+03 0.  0.
    8880022    1    1    2    0    0  0.52128514817E+03  0.91826463401E+03  0.67849902381E+03  0.12643973751E+04  0.15294330000E+03 0.  0.
<mgrwt>
<rscale>  0 0.11975065E+04</rscale>
<asrwt>0</asrwt>
<pdfrwt beam="1">  1        2 0.33264635E+00 0.12444912E+04</pdfrwt>
<pdfrwt beam="2">  1       -2 0.18132066E+00 0.12444912E+04</pdfrwt>
<totfact> 0.93149168E-01</totfact>
</mgrwt>
</event>
<event>
 4    1  0.3565372E-007  0.7759475E+03  0.7818608E-02  0.9765444E-01
          2   -1    0    0  501    0  0.00000000000E+00  0.00000000000E+00  0.12331231129E+04  0.12331231129E+04  0.25500000000E-02 0. -1.
         -2   -1    0    0    0  501 -0.00000000000E+00 -0.00000000000E+00 -0.31329730440E+03  0.31329730441E+03  0.25500000000E-02 0.  1.
    8880023    1    1    2    0    0 -0.41016150720E+03  0.72056569842E+01  0.74281330453E+03  0.10741816397E+04  0.65864270000E+03 0.  0.
    8880022    1    1    2    0    0  0.41016150720E+03 -0.72056569842E+01  0.17701250398E+03  0.47223877759E+03  0.15294330000E+03 0.  0.
<mgrwt>
<rscale>  0 0.67250458E+03</rscale>
<asrwt>0</asrwt>
<pdfrwt beam="1">  1        2 0.18971125E+00 0.77594754E+03</pdfrwt>
<pdfrwt beam="2">  1       -2 0.48199585E-01 0.77594754E+03</pdfrwt>
<totfact> 0.74870821E+01</totfact>
</mgrwt>
</event>
<event>
 4    1  0.3565372E-007  0.8720004E+03  0.7818608E-02  0.9572564E-01
         -2   -1    0    0    0  501 -0.00000000000E+00  0.00000000000E+00  0.12856644244E+04  0.12856644244E+04  0.25500000000E-02 0.  1.
          2   -1    0    0  501    0  0.00000000000E+00 -0.00000000000E+00 -0.11886170033E+04  0.11886170033E+04  0.25500000000E-02 0. -1.
    8880023    1    1    2    0    0  0.42207727749E+03 -0.38525991296E+03 -0.93886763648E+03  0.12813497078E+04  0.65864270000E+03 0. -1.
    8880022    1    1    2    0    0 -0.42207727749E+03  0.38525991296E+03  0.10359150576E+04  0.11929317199E+04  0.15294330000E+03 0.  0.
<mgrwt>
<rscale>  0 0.79139034E+03</rscale>
<asrwt>0</asrwt>
<pdfrwt beam="1">  1        2 0.18286416E+00 0.87200036E+03</pdfrwt>
<pdfrwt beam="2">  1       -2 0.19779453E+00 0.87200036E+03</pdfrwt>
<totfact> 0.26679930E+00</totfact>
</mgrwt>
</event>
<event>
 4    1  0.3565372E-007  0.7332062E+03  0.7818608E-02  0.9880198E-01
          2   -1    0    0  501    0  0.00000000000E+00  0.00000000000E+00  0.37116216089E+04  0.37116216089E+04  0.25500000000E-02 0. -1.
         -2   -1    0    0    0  501 -0.00000000000E+00 -0.00000000000E+00 -0.23665479961E+03  0.23665479963E+03  0.25500000000E-02 0.  1.
    8880023    1    1    2    0    0  0.21280089030E+03 -0.24186137359E+03  0.35138673465E+04  0.35895480326E+04  0.65864270000E+03 0. -1.
    8880022    1    1    2    0    0 -0.21280089030E+03  0.24186137359E+03 -0.38900537179E+02  0.35872837601E+03  0.15294330000E+03 0.  0.
<mgrwt>
<rscale>  0 0.61230651E+03</rscale>
<asrwt>0</asrwt>
<pdfrwt beam="1">  1        2 0.57101865E+00 0.73320621E+03</pdfrwt>
<pdfrwt beam="2">  1       -2 0.36408435E-01 0.73320621E+03</pdfrwt>
<totfact> 0.44561252E+00</totfact>
</mgrwt>
</event>
<event>
 4    1  0.3565372E-007  0.8613711E+03  0.7818608E-02  0.9591129E-01
         -2   -1    0    0    0  501 -0.00000000000E+00  0.00000000000E+00  0.10743502128E+04  0.10743502128E+04  0.25500000000E-02 0.  1.
          2   -1    0    0  501    0  0.00000000000E+00 -0.00000000000E+00 -0.12734835400E+04  0.12734835400E+04  0.25500000000E-02 0. -1.
    8880023    1    1    2    0    0 -0.53412704130E+03 -0.15118926041E+03 -0.10263764584E+04  0.13399286284E+04  0.65864270000E+03 0.  0.
    8880022    1    1    2    0    0  0.53412704130E+03  0.15118926041E+03  0.82724313119E+03  0.10079051244E+04  0.15294330000E+03 0.  1.
<mgrwt>
<rscale>  0 0.77886099E+03</rscale>
<asrwt>0</asrwt>
<pdfrwt beam="1">  1        2 0.19592054E+00 0.86137106E+03</pdfrwt>
<pdfrwt beam="2">  1       -2 0.16528465E+00 0.86137106E+03</pdfrwt>
<totfact> 0.39794887E+00</totfact>
</mgrwt>
</event>
<event>
 4    1  0.3565372E-007  0.8119067E+03  0.7818608E-02  0.9685619E-01
         -2   -1    0    0    0  501 -0.00000000000E+00  0.00000000000E+00  0.54617272044E+03  0.54617272045E+03  0.25500000000E-02 0.  1.
          2   -1    0    0  501    0  0.00000000000E+00 -0.00000000000E+00 -0.18061127707E+04  0.18061127707E+04  0.25500000000E-02 0. -1.
    8880023    1    1    2    0    0 -0.23850525191E+03  0.41048449976E+03 -0.15682218511E+04  0.17659309897E+04  0.65864270000E+03 0. -1.
    8880022    1    1    2    0    0  0.23850525191E+03 -0.41048449976E+03  0.30828180081E+03  0.58635450152E+03  0.15294330000E+03 0.  0.
<mgrwt>
<rscale>  0 0.71879526E+03</rscale>
<asrwt>0</asrwt>
<pdfrwt beam="1">  1        2 0.27786350E+00 0.81190670E+03</pdfrwt>
<pdfrwt beam="2">  1       -2 0.84026573E-01 0.81190670E+03</pdfrwt>
<totfact> 0.10823525E+01</totfact>
</mgrwt>
</event>
<event>
 4    1  0.3565372E-007  0.6834892E+03  0.7818608E-02  0.1007415E+00
          2   -1    0    0  501    0  0.00000000000E+00  0.00000000000E+00  0.11866160993E+04  0.11866160993E+04  0.25500000000E-02 0. -1.
         -2   -1    0    0    0  501 -0.00000000000E+00 -0.00000000000E+00 -0.27120889880E+03  0.27120889882E+03  0.25500000000E-02 0.  1.
    8880023    1    1    2    0    0  0.17676399830E+03  0.45845419152E+02  0.99459795863E+03  0.12068067862E+04  0.65864270000E+03 0. -1.
    8880022    1    1    2    0    0 -0.17676399830E+03 -0.45845419152E+02 -0.79190758125E+02  0.25101821197E+03  0.15294330000E+03 0.  0.
<mgrwt>
<rscale>  0 0.52515068E+03</rscale>
<asrwt>0</asrwt>
<pdfrwt beam="1">  1        2 0.18255632E+00 0.68348922E+03</pdfrwt>
<pdfrwt beam="2">  1       -2 0.41724446E-01 0.68348922E+03</pdfrwt>
<totfact> 0.10714352E+02</totfact>
</mgrwt>
</event>
<event>
 4    1  0.3565372E-007  0.6754326E+03  0.7818608E-02  0.1012035E+00
          2   -1    0    0  501    0  0.00000000000E+00  0.00000000000E+00  0.20176108624E+04  0.20176108624E+04  0.25500000000E-02 0. -1.
         -2   -1    0    0    0  501 -0.00000000000E+00 -0.00000000000E+00 -0.19296058236E+03  0.19296058238E+03  0.25500000000E-02 0.  1.
    8880023    1    1    2    0    0 -0.52612869152E+02  0.14011040181E+03  0.18731076476E+04  0.19911658656E+04  0.65864270000E+03 0.  0.
    8880022    1    1    2    0    0  0.52612869152E+02 -0.14011040181E+03 -0.48457367526E+02  0.21940557919E+03  0.15294330000E+03 0.  1.
<mgrwt>
<rscale>  0 0.50673824E+03</rscale>
<asrwt>0</asrwt>
<pdfrwt beam="1">  1        2 0.31040166E+00 0.67543264E+03</pdfrwt>
<pdfrwt beam="2">  1       -2 0.29686244E-01 0.67543264E+03</pdfrwt>
<totfact> 0.70852036E+01</totfact>
</mgrwt>
</event>
<event>
 4    1  0.3565372E-007  0.9371593E+03  0.7818608E-02  0.9468835E-01
         -2   -1    0    0    0  501 -0.00000000000E+00  0.00000000000E+00  0.20733859651E+04  0.20733859651E+04  0.25500000000E-02 0.  1.
          2   -1    0    0  501    0  0.00000000000E+00 -0.00000000000E+00 -0.97494568459E+03  0.97494568460E+03  0.25500000000E-02 0. -1.
    8880023    1    1    2    0    0 -0.26245679777E+03 -0.61284081729E+03 -0.67012865531E+03  0.11521024516E+04  0.65864270000E+03 0. -1.
    8880022    1    1    2    0    0  0.26245679777E+03  0.61284081729E+03  0.17685689359E+04  0.18962291982E+04  0.15294330000E+03 0.  0.
<mgrwt>
<rscale>  0 0.86621022E+03</rscale>
<asrwt>0</asrwt>
<pdfrwt beam="1">  1        2 0.14999164E+00 0.93715935E+03</pdfrwt>
<pdfrwt beam="2">  1       -2 0.31898245E+00 0.93715935E+03</pdfrwt>
<totfact> 0.64572696E-01</totfact>
</mgrwt>
</event>
<event>
 4    1  0.3565372E-007  0.1122026E+04  0.7818608E-02  0.9236921E-01
         -2   -1    0    0    0  501 -0.00000000000E+00  0.00000000000E+00  0.10823767536E+04  0.10823767536E+04  0.25500000000E-02 0.  1.
          2   -1    0    0  501    0  0.00000000000E+00 -0.00000000000E+00 -0.15588598549E+04  0.15588598549E+04  0.25500000000E-02 0. -1.
    8880023    1    1    2    0    0 -0.86034840194E+03  0.29143101392E+03  0.56047597659E+03  0.12542228411E+04  0.65864270000E+03 0.  0.
    8880022    1    1    2    0    0  0.86034840194E+03 -0.29143101392E+03 -0.10369590779E+04  0.13870137674E+04  0.15294330000E+03 0.  0.
<mgrwt>
<rscale>  0 0.10680339E+04</rscale>
<asrwt>0</asrwt>
<pdfrwt beam="1">  1        2 0.23982459E+00 0.11220257E+04</pdfrwt>
<pdfrwt beam="2">  1       -2 0.16651950E+00 0.11220257E+04</pdfrwt>
<totfact> 0.25989570E+00</totfact>
</mgrwt>
</event>
<event>
 4    1  0.3565372E-007  0.6668106E+03  0.7818608E-02  0.1018060E+00
         -2   -1    0    0    0  501 -0.00000000000E+00  0.00000000000E+00  0.77020697426E+03  0.77020697426E+03  0.25500000000E-02 0.  1.
          2   -1    0    0  501    0  0.00000000000E+00 -0.00000000000E+00 -0.11637682653E+04  0.11637682653E+04  0.25500000000E-02 0. -1.
    8880023    1    1    2    0    0 -0.50479835915E+02 -0.90983478162E+02 -0.10544990420E+04  0.12476396287E+04  0.65864270000E+03 0. -1.
    8880022    1    1    2    0    0  0.50479835915E+02  0.90983478162E+02  0.66093775097E+03  0.68633561091E+03  0.15294330000E+03 0.  0.
<mgrwt>
<rscale>  0 0.48393105E+03</rscale>
<asrwt>0</asrwt>
<pdfrwt beam="1">  1        2 0.17904127E+00 0.66681063E+03</pdfrwt>
<pdfrwt beam="2">  1       -2 0.11849338E+00 0.66681063E+03</pdfrwt>
<totfact> 0.11242961E+01</totfact>
</mgrwt>
</event>
<event>
 4    1  0.3565372E-007  0.9662551E+03  0.7818608E-02  0.9427102E-01
         -2   -1    0    0    0  501 -0.00000000000E+00  0.00000000000E+00  0.14568401959E+04  0.14568401959E+04  0.25500000000E-02 0.  1.
          2   -1    0    0  501    0  0.00000000000E+00 -0.00000000000E+00 -0.10732632536E+04  0.10732632536E+04  0.25500000000E-02 0. -1.
    8880023    1    1    2    0    0  0.32848762986E+03  0.62604673278E+03 -0.72388856400E+03  0.12073373571E+04  0.65864270000E+03 0. -1.
    8880022    1    1    2    0    0 -0.32848762986E+03 -0.62604673278E+03  0.11074655062E+04  0.13227660924E+04  0.15294330000E+03 0.  0.
<mgrwt>
<rscale>  0 0.89878423E+03</rscale>
<asrwt>0</asrwt>
<pdfrwt beam="1">  1        2 0.16511742E+00 0.96625506E+03</pdfrwt>
<pdfrwt beam="2">  1       -2 0.22412926E+00 0.96625506E+03</pdfrwt>
<totfact> 0.21027616E+00</totfact>
</mgrwt>
</event>
<event>
 4    1  0.3565372E-007  0.8799723E+03  0.7818608E-02  0.9558979E-01
         -2   -1    0    0    0  501 -0.00000000000E+00  0.00000000000E+00  0.38034846453E+03  0.38034846453E+03  0.25500000000E-02 0.  1.
          2   -1    0    0  501    0  0.00000000000E+00 -0.00000000000E+00 -0.17062681240E+04  0.17062681240E+04  0.25500000000E-02 0. -1.
    8880023    1    1    2    0    0  0.39975605781E+02 -0.58218807012E+03 -0.11691607859E+04  0.14633140973E+04  0.65864270000E+03 0.  0.
    8880022    1    1    2    0    0 -0.39975605781E+02  0.58218807012E+03 -0.15675887361E+03  0.62330249118E+03  0.15294330000E+03 0.  0.
<mgrwt>
<rscale>  0 0.80071759E+03</rscale>
<asrwt>0</asrwt>
<pdfrwt beam="1">  1        2 0.26250278E+00 0.87997227E+03</pdfrwt>
<pdfrwt beam="2">  1       -2 0.58515149E-01 0.87997227E+03</pdfrwt>
<totfact> 0.26887555E+01</totfact>
</mgrwt>
</event>
<event>
 4    1  0.3565372E-007  0.9438681E+03  0.7818608E-02  0.9458992E-01
          2   -1    0    0  501    0  0.00000000000E+00  0.00000000000E+00  0.23280918840E+04  0.23280918840E+04  0.25500000000E-02 0. -1.
         -2   -1    0    0    0  501 -0.00000000000E+00 -0.00000000000E+00 -0.48307047477E+03  0.48307047477E+03  0.25500000000E-02 0.  1.
    8880023    1    1    2    0    0  0.16612209042E+03  0.65534738289E+03  0.18941224460E+04  0.21162671825E+04  0.65864270000E+03 0. -1.
    8880022    1    1    2    0    0 -0.16612209042E+03 -0.65534738289E+03 -0.49101036723E+02  0.69489517627E+03  0.15294330000E+03 0.  0.
<mgrwt>
<rscale>  0 0.87375883E+03</rscale>
<asrwt>0</asrwt>
<pdfrwt beam="1">  1        2 0.35816799E+00 0.94386808E+03</pdfrwt>
<pdfrwt beam="2">  1       -2 0.74318533E-01 0.94386808E+03</pdfrwt>
<totfact> 0.72263926E+00</totfact>
</mgrwt>
</event>
<event>
 4    1  0.4545624E-007  0.1017588E+04  0.7818608E-02  0.9358901E-01
          2   -1    0    0  501    0  0.00000000000E+00  0.00000000000E+00  0.45454274780E+04  0.45454274780E+04  0.25500000000E-02 0. -1.
         -2   -1    0    0    0  501 -0.00000000000E+00 -0.00000000000E+00 -0.90930347468E+03  0.90930347468E+03  0.25500000000E-02 0.  1.
    8880023    1    1    2    0    0  0.77457627614E+03 -0.41303576530E+02  0.43022211860E+04  0.44209265694E+04  0.65864270000E+03 0. -1.
    8880022    1    1    2    0    0 -0.77457627614E+03  0.41303576530E+02 -0.66609718268E+03  0.10338043832E+04  0.15294330000E+03 0.  1.
<mgrwt>
<rscale>  0 0.95536561E+03</rscale>
<asrwt>0</asrwt>
<pdfrwt beam="1">  1        2 0.69929652E+00 0.10175876E+04</pdfrwt>
<pdfrwt beam="2">  1       -2 0.13989285E+00 0.10175876E+04</pdfrwt>
<totfact> 0.42642160E-02</totfact>
</mgrwt>
</event>
<event>
 4    1  0.3565372E-007  0.9634179E+03  0.7818608E-02  0.9431066E-01
         -2   -1    0    0    0  501 -0.00000000000E+00  0.00000000000E+00  0.37140643309E+03  0.37140643310E+03  0.25500000000E-02 0.  1.
          2   -1    0    0  501    0  0.00000000000E+00 -0.00000000000E+00 -0.35746201096E+04  0.35746201096E+04  0.25500000000E-02 0. -1.
    8880023    1    1    2    0    0  0.69958446711E+03 -0.70323228698E+02 -0.30656153902E+04  0.32134361220E+04  0.65864270000E+03 0. -1.
    8880022    1    1    2    0    0 -0.69958446711E+03  0.70323228698E+02 -0.13759828630E+03  0.73259042071E+03  0.15294330000E+03 0.  0.
<mgrwt>
<rscale>  0 0.89562582E+03</rscale>
<asrwt>0</asrwt>
<pdfrwt beam="1">  1        2 0.54994153E+00 0.96341787E+03</pdfrwt>
<pdfrwt beam="2">  1       -2 0.57139454E-01 0.96341787E+03</pdfrwt>
<totfact> 0.21612063E+00</totfact>
</mgrwt>
</event>
<event>
 4    1  0.3565372E-007  0.9419586E+03  0.7818608E-02  0.9461779E-01
         -2   -1    0    0    0  501 -0.00000000000E+00  0.00000000000E+00  0.85795573161E+03  0.85795573161E+03  0.25500000000E-02 0.  1.
          2   -1    0    0  501    0  0.00000000000E+00 -0.00000000000E+00 -0.10571721300E+04  0.10571721300E+04  0.25500000000E-02 0. -1.
    8880023    1    1    2    0    0  0.57325291943E+03  0.35335106631E+03 -0.59988005826E+03  0.11167551998E+04  0.65864270000E+03 0.  0.
    8880022    1    1    2    0    0 -0.57325291943E+03 -0.35335106631E+03  0.40066365991E+03  0.79837266178E+03  0.15294330000E+03 0.  0.
<mgrwt>
<rscale>  0 0.87161280E+03</rscale>
<asrwt>0</asrwt>
<pdfrwt beam="1">  1        2 0.16264187E+00 0.94195865E+03</pdfrwt>
<pdfrwt beam="2">  1       -2 0.13199319E+00 0.94195865E+03</pdfrwt>
<totfact> 0.96536246E+00</totfact>
</mgrwt>
</event>
<event>
 4    1  0.3565372E-007  0.1242346E+04  0.7818608E-02  0.9117019E-01
         -2   -1    0    0    0  501 -0.00000000000E+00  0.00000000000E+00  0.16036869471E+04  0.16036869471E+04  0.25500000000E-02 0.  1.
          2   -1    0    0  501    0  0.00000000000E+00 -0.00000000000E+00 -0.12014334035E+04  0.12014334035E+04  0.25500000000E-02 0. -1.
    8880023    1    1    2    0    0 -0.96148026124E+03  0.43031188394E+03 -0.56690779795E+03  0.13655794623E+04  0.65864270000E+03 0. -1.
    8880022    1    1    2    0    0  0.96148026124E+03 -0.43031188394E+03  0.96916134158E+03  0.14395408884E+04  0.15294330000E+03 0.  1.
<mgrwt>
<rscale>  0 0.11952556E+04</rscale>
<asrwt>0</asrwt>
<pdfrwt beam="1">  1        2 0.18483591E+00 0.12423457E+04</pdfrwt>
<pdfrwt beam="2">  1       -2 0.24672107E+00 0.12423457E+04</pdfrwt>
<totfact> 0.12318520E+00</totfact>
</mgrwt>
</event>
<event>
 4    1  0.3565372E-007  0.7406040E+03  0.7818608E-02  0.9858191E-01
         -2   -1    0    0    0  501 -0.00000000000E+00  0.00000000000E+00  0.54262645717E+03  0.54262645717E+03  0.25500000000E-02 0.  1.
          2   -1    0    0  501    0  0.00000000000E+00 -0.00000000000E+00 -0.11585908816E+04  0.11585908816E+04  0.25500000000E-02 0. -1.
    8880023    1    1    2    0    0 -0.27232712100E+03 -0.20130080160E+03 -0.94793210789E+03  0.12029420439E+04  0.65864270000E+03 0. -1.
    8880022    1    1    2    0    0  0.27232712100E+03  0.20130080160E+03  0.33196768349E+03  0.49827529484E+03  0.15294330000E+03 0.  0.
<mgrwt>
<rscale>  0 0.62331016E+03</rscale>
<asrwt>0</asrwt>
<pdfrwt beam="1">  1        2 0.17824475E+00 0.74060400E+03</pdfrwt>
<pdfrwt beam="2">  1       -2 0.83480994E-01 0.74060400E+03</pdfrwt>
<totfact> 0.25668713E+01</totfact>
</mgrwt>
</event>
<event>
 4    1  0.3565372E-007  0.7917572E+03  0.7818608E-02  0.9728911E-01
         -2   -1    0    0    0  501 -0.00000000000E+00  0.00000000000E+00  0.20674825129E+03  0.20674825130E+03  0.25500000000E-02 0.  1.
          2   -1    0    0  501    0  0.00000000000E+00 -0.00000000000E+00 -0.34787203320E+04  0.34787203320E+04  0.25500000000E-02 0. -1.
    8880023    1    1    2    0    0  0.39481600897E+03 -0.19284588378E+03 -0.30834354617E+04  0.31834656694E+04  0.65864270000E+03 0. -1.
    8880022    1    1    2    0    0 -0.39481600897E+03  0.19284588378E+03 -0.18853661907E+03  0.50200291392E+03  0.15294330000E+03 0.  0.
<mgrwt>
<rscale>  0 0.69321257E+03</rscale>
<asrwt>0</asrwt>
<pdfrwt beam="1">  1        2 0.53518770E+00 0.79175717E+03</pdfrwt>
<pdfrwt beam="2">  1       -2 0.31807426E-01 0.79175717E+03</pdfrwt>
<totfact> 0.82818928E+00</totfact>
</mgrwt>
</event>
<event>
 4    1  0.3565372E-007  0.7177479E+03  0.7818608E-02  0.9930281E-01
          2   -1    0    0  501    0  0.00000000000E+00  0.00000000000E+00  0.17686514658E+04  0.17686514658E+04  0.25500000000E-02 0. -1.
         -2   -1    0    0    0  501 -0.00000000000E+00 -0.00000000000E+00 -0.41587908296E+03  0.41587908297E+03  0.25500000000E-02 0.  1.
    8880023    1    1    2    0    0 -0.15032518255E+03 -0.24239265853E+03  0.16154394278E+04  0.17677122539E+04  0.65864270000E+03 0.  0.
    8880022    1    1    2    0    0  0.15032518255E+03  0.24239265853E+03 -0.26266704497E+03  0.41681829487E+03  0.15294330000E+03 0.  0.
<mgrwt>
<rscale>  0 0.58815914E+03</rscale>
<asrwt>0</asrwt>
<pdfrwt beam="1">  1        2 0.27210023E+00 0.71774791E+03</pdfrwt>
<pdfrwt beam="2">  1       -2 0.63981396E-01 0.71774791E+03</pdfrwt>
<totfact> 0.20963664E+01</totfact>
</mgrwt>
</event>
<event>
 4    1  0.3565372E-007  0.8700049E+03  0.7818608E-02  0.9576009E-01
          2   -1    0    0  501    0  0.00000000000E+00  0.00000000000E+00  0.25375223391E+04  0.25375223391E+04  0.25500000000E-02 0. -1.
         -2   -1    0    0    0  501 -0.00000000000E+00 -0.00000000000E+00 -0.27274466996E+03  0.27274466997E+03  0.25500000000E-02 0.  1.
    8880023    1    1    2    0    0  0.42450634273E+03  0.37801139695E+03  0.19665378995E+04  0.21503906082E+04  0.65864270000E+03 0. -1.
    8880022    1    1    2    0    0 -0.42450634273E+03 -0.37801139695E+03  0.29823976961E+03  0.65987640088E+03  0.15294330000E+03 0.  0.
<mgrwt>
<rscale>  0 0.78904647E+03</rscale>
<asrwt>0</asrwt>
<pdfrwt beam="1">  1        2 0.39038805E+00 0.87000486E+03</pdfrwt>
<pdfrwt beam="2">  1       -2 0.41960719E-01 0.87000486E+03</pdfrwt>
<totfact> 0.18338299E+01</totfact>
</mgrwt>
</event>
<event>
 4    1  0.3565372E-007  0.1678761E+04  0.7818608E-02  0.8792743E-01
         -2   -1    0    0    0  501 -0.00000000000E+00  0.00000000000E+00  0.20929963218E+04  0.20929963218E+04  0.25500000000E-02 0.  1.
          2   -1    0    0  501    0  0.00000000000E+00 -0.00000000000E+00 -0.23121242945E+04  0.23121242945E+04  0.25500000000E-02 0. -1.
    8880023    1    1    2    0    0  0.15258307602E+04 -0.23720754845E+03 -0.16065251211E+04  0.23236092832E+04  0.65864270000E+03 0.  0.
    8880022    1    1    2    0    0 -0.15258307602E+04  0.23720754845E+03  0.13873971483E+04  0.20815113331E+04  0.15294330000E+03 0.  0.
<mgrwt>
<rscale>  0 0.16460558E+04</rscale>
<asrwt>0</asrwt>
<pdfrwt beam="1">  1        2 0.35571143E+00 0.16787606E+04</pdfrwt>
<pdfrwt beam="2">  1       -2 0.32199944E+00 0.16787606E+04</pdfrwt>
<totfact> 0.95306191E-02</totfact>
</mgrwt>
</event>
<event>
 4    1  0.3565372E-007  0.6723907E+03  0.7818608E-02  0.1014004E+00
          2   -1    0    0  501    0  0.00000000000E+00  0.00000000000E+00  0.82841792518E+03  0.82841792518E+03  0.25500000000E-02 0. -1.
         -2   -1    0    0    0  501 -0.00000000000E+00 -0.00000000000E+00 -0.50093379173E+03  0.50093379174E+03  0.25500000000E-02 0.  1.
    8880023    1    1    2    0    0 -0.13401865987E+03  0.18384598783E+02  0.65804485759E+03  0.94081466588E+03  0.65864270000E+03 0. -1.
    8880022    1    1    2    0    0  0.13401865987E+03 -0.18384598783E+02 -0.33056072415E+03  0.38853705104E+03  0.15294330000E+03 0.  0.
<mgrwt>
<rscale>  0 0.49913852E+03</rscale>
<asrwt>0</asrwt>
<pdfrwt beam="1">  1        2 0.12744891E+00 0.67239066E+03</pdfrwt>
<pdfrwt beam="2">  1       -2 0.77066738E-01 0.67239066E+03</pdfrwt>
<totfact> 0.50419355E+01</totfact>
</mgrwt>
</event>
<event>
 4    1  0.3565372E-007  0.9553040E+03  0.7818608E-02  0.9442523E-01
         -2   -1    0    0    0  501 -0.00000000000E+00  0.00000000000E+00  0.34787554009E+03  0.34787554009E+03  0.25500000000E-02 0.  1.
          2   -1    0    0  501    0  0.00000000000E+00 -0.00000000000E+00 -0.31782649050E+04  0.31782649050E+04  0.25500000000E-02 0. -1.
    8880023    1    1    2    0    0 -0.64391788244E+03 -0.25330881279E+03 -0.26172269519E+04  0.27861232417E+04  0.65864270000E+03 0. -1.
    8880022    1    1    2    0    0  0.64391788244E+03  0.25330881279E+03 -0.21316241300E+03  0.74001720337E+03  0.15294330000E+03 0.  0.
<mgrwt>
<rscale>  0 0.88657283E+03</rscale>
<asrwt>0</asrwt>
<pdfrwt beam="1">  1        2 0.48896381E+00 0.95530404E+03</pdfrwt>
<pdfrwt beam="2">  1       -2 0.53519316E-01 0.95530404E+03</pdfrwt>
<totfact> 0.45607127E+00</totfact>
</mgrwt>
</event>
<event>
 4    1  0.3565372E-007  0.6652642E+03  0.7818608E-02  0.1019313E+00
          2   -1    0    0  501    0  0.00000000000E+00  0.00000000000E+00  0.84524698471E+03  0.84524698471E+03  0.25500000000E-02 0. -1.
         -2   -1    0    0    0  501 -0.00000000000E+00 -0.00000000000E+00 -0.25867917212E+03  0.25867917214E+03  0.25500000000E-02 0.  1.
    8880023    1    1    2    0    0  0.89613207757E+02 -0.27124965347E+02  0.63341563923E+03  0.91858144388E+03  0.65864270000E+03 0. -1.
    8880022    1    1    2    0    0 -0.89613207757E+02  0.27124965347E+02 -0.46847826650E+02  0.18534471297E+03  0.15294330000E+03 0.  0.
<mgrwt>
<rscale>  0 0.47935434E+03</rscale>
<asrwt>0</asrwt>
<pdfrwt beam="1">  1        2 0.13003800E+00 0.66526423E+03</pdfrwt>
<pdfrwt beam="2">  1       -2 0.39796795E-01 0.66526423E+03</pdfrwt>
<totfact> 0.19386202E+02</totfact>
</mgrwt>
</event>
<event>
 4    1  0.3565372E-007  0.8055498E+03  0.7818608E-02  0.9698922E-01
         -2   -1    0    0    0  501 -0.00000000000E+00  0.00000000000E+00  0.54383894223E+03  0.54383894223E+03  0.25500000000E-02 0.  1.
          2   -1    0    0  501    0  0.00000000000E+00 -0.00000000000E+00 -0.83217709363E+03  0.83217709363E+03  0.25500000000E-02 0. -1.
    8880023    1    1    2    0    0 -0.12360743875E+03  0.44701401778E+03 -0.36017585195E+03  0.88240420533E+03  0.65864270000E+03 0. -1.
    8880022    1    1    2    0    0  0.12360743875E+03 -0.44701401778E+03  0.71837700550E+02  0.49361183053E+03  0.15294330000E+03 0.  0.
<mgrwt>
<rscale>  0 0.71081001E+03</rscale>
<asrwt>0</asrwt>
<pdfrwt beam="1">  1        2 0.12802724E+00 0.80554984E+03</pdfrwt>
<pdfrwt beam="2">  1       -2 0.83667530E-01 0.80554984E+03</pdfrwt>
<totfact> 0.41193541E+01</totfact>
</mgrwt>
</event>
<event>
 4    1  0.3565372E-007  0.7754059E+03  0.7818608E-02  0.9766741E-01
          2   -1    0    0  501    0  0.00000000000E+00  0.00000000000E+00  0.91049834066E+03  0.91049834067E+03  0.25500000000E-02 0. -1.
         -2   -1    0    0    0  501 -0.00000000000E+00 -0.00000000000E+00 -0.71426166245E+03  0.71426166245E+03  0.25500000000E-02 0.  1.
    8880023    1    1    2    0    0 -0.30289663717E+03  0.27513210030E+03  0.63750826617E+03  0.10038281930E+04  0.65864270000E+03 0. -1.
    8880022    1    1    2    0    0  0.30289663717E+03 -0.27513210030E+03 -0.44127158796E+03  0.62093181009E+03  0.15294330000E+03 0.  0.
<mgrwt>
<rscale>  0 0.67178339E+03</rscale>
<asrwt>0</asrwt>
<pdfrwt beam="1">  1        2 0.14007667E+00 0.77540586E+03</pdfrwt>
<pdfrwt beam="2">  1       -2 0.10988641E+00 0.77540586E+03</pdfrwt>
<totfact> 0.19247837E+01</totfact>
</mgrwt>
</event>
<event>
 4    1  0.3565372E-007  0.1463502E+04  0.7818608E-02  0.8935848E-01
          2   -1    0    0  501    0  0.00000000000E+00  0.00000000000E+00  0.21517842967E+04  0.21517842967E+04  0.25500000000E-02 0. -1.
         -2   -1    0    0    0  501 -0.00000000000E+00 -0.00000000000E+00 -0.99982978371E+03  0.99982978371E+03  0.25500000000E-02 0.  1.
    8880023    1    1    2    0    0 -0.60766234744E+03 -0.11570542061E+04  0.11069916615E+04  0.18350119099E+04  0.65864270000E+03 0.  1.
    8880022    1    1    2    0    0  0.60766234744E+03  0.11570542061E+04  0.44962851436E+02  0.13166021705E+04  0.15294330000E+03 0.  0.
<mgrwt>
<rscale>  0 0.14250998E+04</rscale>
<asrwt>0</asrwt>
<pdfrwt beam="1">  1        2 0.33104374E+00 0.14635020E+04</pdfrwt>
<pdfrwt beam="2">  1       -2 0.15381997E+00 0.14635020E+04</pdfrwt>
<totfact> 0.14586545E+00</totfact>
</mgrwt>
</event>
<event>
 4    1  0.3565372E-007  0.1134074E+04  0.7818608E-02  0.9224035E-01
         -2   -1    0    0    0  501 -0.00000000000E+00  0.00000000000E+00  0.17398425748E+04  0.17398425748E+04  0.25500000000E-02 0.  1.
          2   -1    0    0  501    0  0.00000000000E+00 -0.00000000000E+00 -0.74351367419E+03  0.74351367420E+03  0.25500000000E-02 0. -1.
    8880023    1    1    2    0    0 -0.68037700860E+03 -0.62401904135E+03  0.24662298511E+02  0.11343416915E+04  0.65864270000E+03 0.  0.
    8880022    1    1    2    0    0  0.68037700860E+03  0.62401904135E+03  0.97166660214E+03  0.13490145576E+04  0.15294330000E+03 0.  0.
<mgrwt>
<rscale>  0 0.10808753E+04</rscale>
<asrwt>0</asrwt>
<pdfrwt beam="1">  1        2 0.11438672E+00 0.11340736E+04</pdfrwt>
<pdfrwt beam="2">  1       -2 0.26766809E+00 0.11340736E+04</pdfrwt>
<totfact> 0.18715003E+00</totfact>
</mgrwt>
</event>
<event>
 4    1  0.3565372E-007  0.7429286E+03  0.7818608E-02  0.9851497E-01
         -2   -1    0    0    0  501 -0.00000000000E+00  0.00000000000E+00  0.84276621464E+03  0.84276621464E+03  0.25500000000E-02 0.  1.
          2   -1    0    0  501    0  0.00000000000E+00 -0.00000000000E+00 -0.15659912670E+04  0.15659912670E+04  0.25500000000E-02 0. -1.
    8880023    1    1    2    0    0  0.29313921636E+03 -0.17944925320E+03 -0.14280935317E+04  0.16097807230E+04  0.65864270000E+03 0. -1.
    8880022    1    1    2    0    0 -0.29313921636E+03  0.17944925320E+03  0.70486847934E+03  0.79897675862E+03  0.15294330000E+03 0.  0.
<mgrwt>
<rscale>  0 0.62670645E+03</rscale>
<asrwt>0</asrwt>
<pdfrwt beam="1">  1        2 0.24092173E+00 0.74292856E+03</pdfrwt>
<pdfrwt beam="2">  1       -2 0.12965634E+00 0.74292856E+03</pdfrwt>
<totfact> 0.52367582E+00</totfact>
</mgrwt>
</event>
<event>
 4    1  0.3565372E-007  0.8421544E+03  0.7818608E-02  0.9626131E-01
          2   -1    0    0  501    0  0.00000000000E+00  0.00000000000E+00  0.22808970369E+04  0.22808970369E+04  0.25500000000E-02 0. -1.
         -2   -1    0    0    0  501 -0.00000000000E+00 -0.00000000000E+00 -0.49992825327E+03  0.49992825328E+03  0.25500000000E-02 0.  1.
    8880023    1    1    2    0    0 -0.27061521374E+03 -0.44964563923E+03  0.20167425368E+04  0.21855146902E+04  0.65864270000E+03 0. -1.
    8880022    1    1    2    0    0  0.27061521374E+03  0.44964563923E+03 -0.23577375320E+03  0.59531060003E+03  0.15294330000E+03 0.  0.
<mgrwt>
<rscale>  0 0.75590523E+03</rscale>
<asrwt>0</asrwt>
<pdfrwt beam="1">  1        2 0.35090724E+00 0.84215438E+03</pdfrwt>
<pdfrwt beam="2">  1       -2 0.76912038E-01 0.84215438E+03</pdfrwt>
<totfact> 0.72151955E+00</totfact>
</mgrwt>
</event>
<event>
 4    1  0.3565372E-007  0.8476704E+03  0.7818608E-02  0.9615883E-01
          2   -1    0    0  501    0  0.00000000000E+00  0.00000000000E+00  0.33192345298E+04  0.33192345298E+04  0.25500000000E-02 0. -1.
         -2   -1    0    0    0  501 -0.00000000000E+00 -0.00000000000E+00 -0.14989630040E+03  0.14989630042E+03  0.25500000000E-02 0.  1.
    8880023    1    1    2    0    0  0.22233276903E+03 -0.48508039866E+03  0.20915794073E+04  0.22568228723E+04  0.65864270000E+03 0.  1.
    8880022    1    1    2    0    0 -0.22233276903E+03  0.48508039866E+03  0.10777588221E+04  0.12123079580E+04  0.15294330000E+03 0. -1.
<mgrwt>
<rscale>  0 0.76253781E+03</rscale>
<asrwt>0</asrwt>
<pdfrwt beam="1">  1        2 0.51065145E+00 0.84767037E+03</pdfrwt>
<pdfrwt beam="2">  1       -2 0.23060970E-01 0.84767037E+03</pdfrwt>
<totfact> 0.18879606E+01</totfact>
</mgrwt>
</event>
<event>
 4    1  0.3565372E-007  0.8022682E+03  0.7818608E-02  0.9705913E-01
          2   -1    0    0  501    0  0.00000000000E+00  0.00000000000E+00  0.13371975514E+04  0.13371975514E+04  0.25500000000E-02 0. -1.
         -2   -1    0    0    0  501 -0.00000000000E+00 -0.00000000000E+00 -0.69798465211E+03  0.69798465212E+03  0.25500000000E-02 0.  1.
    8880023    1    1    2    0    0 -0.42759730153E+03  0.16427011894E+03  0.11041399042E+04  0.13648293881E+04  0.65864270000E+03 0. -1.
    8880022    1    1    2    0    0  0.42759730153E+03 -0.16427011894E+03 -0.46492700492E+03  0.67035281544E+03  0.15294330000E+03 0.  0.
<mgrwt>
<rscale>  0 0.70665826E+03</rscale>
<asrwt>0</asrwt>
<pdfrwt beam="1">  1        2 0.20572270E+00 0.80226824E+03</pdfrwt>
<pdfrwt beam="2">  1       -2 0.10738225E+00 0.80226824E+03</pdfrwt>
<totfact> 0.11119771E+01</totfact>
</mgrwt>
</event>
<event>
 4    1  0.3565372E-007  0.6669592E+03  0.7818608E-02  0.1017943E+00
          2   -1    0    0  501    0  0.00000000000E+00  0.00000000000E+00  0.13644623522E+04  0.13644623522E+04  0.25500000000E-02 0. -1.
         -2   -1    0    0    0  501 -0.00000000000E+00 -0.00000000000E+00 -0.78497321098E+03  0.78497321099E+03  0.25500000000E-02 0.  1.
    8880023    1    1    2    0    0  0.10497457834E+03 -0.21567344236E+01  0.12699771144E+04  0.14344603135E+04  0.65864270000E+03 0.  0.
    8880022    1    1    2    0    0 -0.10497457834E+03  0.21567344236E+01 -0.69048797317E+03  0.71497524972E+03  0.15294330000E+03 0.  1.
<mgrwt>
<rscale>  0 0.48436129E+03</rscale>
<asrwt>0</asrwt>
<pdfrwt beam="1">  1        2 0.20991728E+00 0.66695916E+03</pdfrwt>
<pdfrwt beam="2">  1       -2 0.12076511E+00 0.66695916E+03</pdfrwt>
<totfact> 0.82042215E+00</totfact>
</mgrwt>
</event>
<event>
 4    1  0.3565372E-007  0.6642474E+03  0.7818608E-02  0.1020173E+00
         -2   -1    0    0    0  501 -0.00000000000E+00  0.00000000000E+00  0.53695189407E+03  0.53695189408E+03  0.25500000000E-02 0.  1.
          2   -1    0    0  501    0  0.00000000000E+00 -0.00000000000E+00 -0.50875704178E+03  0.50875704178E+03  0.25500000000E-02 0. -1.
    8880023    1    1    2    0    0  0.57476807447E+02  0.64115736102E+02 -0.25584516879E+03  0.71181554329E+03  0.65864270000E+03 0. -1.
    8880022    1    1    2    0    0 -0.57476807447E+02 -0.64115736102E+02  0.28404002109E+03  0.33389339257E+03  0.15294330000E+03 0.  0.
<mgrwt>
<rscale>  0 0.47624116E+03</rscale>
<asrwt>0</asrwt>
<pdfrwt beam="1">  1        2 0.78270315E-01 0.66424741E+03</pdfrwt>
<pdfrwt beam="2">  1       -2 0.82607983E-01 0.66424741E+03</pdfrwt>
<totfact> 0.78878606E+01</totfact>
</mgrwt>
</event>
<event>
 4    1  0.3565372E-007  0.8084202E+03  0.7818608E-02  0.9692877E-01
         -2   -1    0    0    0  501 -0.00000000000E+00  0.00000000000E+00  0.10129318003E+04  0.10129318003E+04  0.25500000000E-02 0.  1.
          2   -1    0    0  501    0  0.00000000000E+00 -0.00000000000E+00 -0.83400629138E+03  0.83400629139E+03  0.25500000000E-02 0. -1.
    8880023    1    1    2    0    0 -0.46590274955E+03  0.51649911470E+02 -0.54216157391E+03  0.97338710896E+03  0.65864270000E+03 0.  0.
    8880022    1    1    2    0    0  0.46590274955E+03 -0.51649911470E+02  0.72108708281E+03  0.87355098272E+03  0.15294330000E+03 0.  0.
<mgrwt>
<rscale>  0 0.71442481E+03</rscale>
<asrwt>0</asrwt>
<pdfrwt beam="1">  1        2 0.12830866E+00 0.80842024E+03</pdfrwt>
<pdfrwt beam="2">  1       -2 0.15583566E+00 0.80842024E+03</pdfrwt>
<totfact> 0.89035843E+00</totfact>
</mgrwt>
</event>
<event>
 4    1  0.3565372E-007  0.1322278E+04  0.7818608E-02  0.9046557E-01
          2   -1    0    0  501    0  0.00000000000E+00  0.00000000000E+00  0.20874228936E+04  0.20874228936E+04  0.25500000000E-02 0. -1.
         -2   -1    0    0    0  501 -0.00000000000E+00 -0.00000000000E+00 -0.75951339421E+03  0.75951339421E+03  0.25500000000E-02 0.  1.
    8880023    1    1    2    0    0  0.95848456972E+03  0.62921815879E+03  0.95680768984E+03  0.16321456195E+04  0.65864270000E+03 0. -1.
    8880022    1    1    2    0    0 -0.95848456972E+03 -0.62921815879E+03  0.37110180958E+03  0.12147906683E+04  0.15294330000E+03 0.  1.
<mgrwt>
<rscale>  0 0.12787894E+04</rscale>
<asrwt>0</asrwt>
<pdfrwt beam="1">  1        2 0.32114198E+00 0.13222777E+04</pdfrwt>
<pdfrwt beam="2">  1       -2 0.11684822E+00 0.13222777E+04</pdfrwt>
<totfact> 0.32687145E+00</totfact>
</mgrwt>
</event>
<event>
 4    1  0.3565372E-007  0.9703141E+03  0.7818608E-02  0.9421470E-01
         -2   -1    0    0    0  501 -0.00000000000E+00  0.00000000000E+00  0.75780462362E+03  0.75780462362E+03  0.25500000000E-02 0.  1.
          2   -1    0    0  501    0  0.00000000000E+00 -0.00000000000E+00 -0.13632782308E+04  0.13632782308E+04  0.25500000000E-02 0. -1.
    8880023    1    1    2    0    0  0.71191256890E+03 -0.29660105193E+02  0.24531622853E+03  0.10008443864E+04  0.65864270000E+03 0. -1.
    8880022    1    1    2    0    0 -0.71191256890E+03  0.29660105193E+02 -0.85078983570E+03  0.11202384680E+04  0.15294330000E+03 0.  0.
<mgrwt>
<rscale>  0 0.90329657E+03</rscale>
<asrwt>0</asrwt>
<pdfrwt beam="1">  1        2 0.20973511E+00 0.97031409E+03</pdfrwt>
<pdfrwt beam="2">  1       -2 0.11658533E+00 0.97031409E+03</pdfrwt>
<totfact> 0.86317210E+00</totfact>
</mgrwt>
</event>
<event>
 4    1  0.3565372E-007  0.1237925E+04  0.7818608E-02  0.9121110E-01
          2   -1    0    0  501    0  0.00000000000E+00  0.00000000000E+00  0.13302659025E+04  0.13302659025E+04  0.25500000000E-02 0. -1.
         -2   -1    0    0    0  501 -0.00000000000E+00 -0.00000000000E+00 -0.25900801450E+04  0.25900801450E+04  0.25500000000E-02 0.  1.
    8880023    1    1    2    0    0  0.17699803940E+03  0.10331117895E+04  0.88938228481E+03  0.15242897790E+04  0.65864270000E+03 0.  0.
    8880022    1    1    2    0    0 -0.17699803940E+03 -0.10331117895E+04 -0.21491965273E+04  0.23960562685E+04  0.15294330000E+03 0.  0.
<mgrwt>
<rscale>  0 0.11906163E+04</rscale>
<asrwt>0</asrwt>
<pdfrwt beam="1">  1        2 0.20465629E+00 0.12379251E+04</pdfrwt>
<pdfrwt beam="2">  1       -2 0.39847387E+00 0.12379251E+04</pdfrwt>
<totfact> 0.11791889E-01</totfact>
</mgrwt>
</event>
<event>
 4    1  0.3565372E-007  0.7056552E+03  0.7818608E-02  0.9974503E-01
         -2   -1    0    0    0  501 -0.00000000000E+00  0.00000000000E+00  0.18672529874E+03  0.18672529876E+03  0.25500000000E-02 0.  1.
          2   -1    0    0  501    0  0.00000000000E+00 -0.00000000000E+00 -0.13916608208E+04  0.13916608208E+04  0.25500000000E-02 0. -1.
    8880023    1    1    2    0    0 -0.22254353728E+03  0.12088592380E+03 -0.97559672146E+03  0.12040507472E+04  0.65864270000E+03 0.  0.
    8880022    1    1    2    0    0  0.22254353728E+03 -0.12088592380E+03 -0.22933880065E+03  0.37433537244E+03  0.15294330000E+03 0.  0.
<mgrwt>
<rscale>  0 0.56782491E+03</rscale>
<asrwt>0</asrwt>
<pdfrwt beam="1">  1        2 0.21410166E+00 0.70565518E+03</pdfrwt>
<pdfrwt beam="2">  1       -2 0.28726970E-01 0.70565518E+03</pdfrwt>
<totfact> 0.16547672E+02</totfact>
</mgrwt>
</event>
<event>
 4    1  0.3565372E-007  0.6599784E+03  0.7818608E-02  0.1024179E+00
         -2   -1    0    0    0  501 -0.00000000000E+00  0.00000000000E+00  0.83287608892E+03  0.83287608892E+03  0.25500000000E-02 0.  1.
          2   -1    0    0  501    0  0.00000000000E+00 -0.00000000000E+00 -0.35902676608E+03  0.35902676609E+03  0.25500000000E-02 0. -1.
    8880023    1    1    2    0    0  0.37510863846E+02 -0.18819783614E+02 -0.33016908746E+02  0.66080373159E+03  0.65864270000E+03 0. -1.
    8880022    1    1    2    0    0 -0.37510863846E+02  0.18819783614E+02  0.50686623158E+03  0.53109912342E+03  0.15294330000E+03 0.  0.
<mgrwt>
<rscale>  0 0.46208385E+03</rscale>
<asrwt>0</asrwt>
<pdfrwt beam="1">  1        2 0.55234888E-01 0.65997837E+03</pdfrwt>
<pdfrwt beam="2">  1       -2 0.12813478E+00 0.65997837E+03</pdfrwt>
<totfact> 0.41168186E+01</totfact>
</mgrwt>
</event>
<event>
 4    1  0.3565372E-007  0.1060837E+04  0.7818608E-02  0.9305966E-01
          2   -1    0    0  501    0  0.00000000000E+00  0.00000000000E+00  0.30513422805E+04  0.30513422805E+04  0.25500000000E-02 0. -1.
         -2   -1    0    0    0  501 -0.00000000000E+00 -0.00000000000E+00 -0.30474825361E+03  0.30474825362E+03  0.25500000000E-02 0.  1.
    8880023    1    1    2    0    0 -0.10926356700E+02 -0.83153159644E+03  0.17772848983E+04  0.20698106187E+04  0.65864270000E+03 0.  0.
    8880022    1    1    2    0    0  0.10926356700E+02  0.83153159644E+03  0.96930912858E+03  0.12862799155E+04  0.15294330000E+03 0.  0.
<mgrwt>
<rscale>  0 0.10023544E+04</rscale>
<asrwt>0</asrwt>
<pdfrwt beam="1">  1        2 0.46943729E+00 0.10608366E+04</pdfrwt>
<pdfrwt beam="2">  1       -2 0.46884345E-01 0.10608366E+04</pdfrwt>
<totfact> 0.70816483E+00</totfact>
</mgrwt>
</event>
<event>
 4    1  0.3565372E-007  0.9597975E+03  0.7818608E-02  0.9436156E-01
         -2   -1    0    0    0  501 -0.00000000000E+00  0.00000000000E+00  0.31330384131E+03  0.31330384132E+03  0.25500000000E-02 0.  1.
          2   -1    0    0  501    0  0.00000000000E+00 -0.00000000000E+00 -0.25722743311E+04  0.25722743311E+04  0.25500000000E-02 0. -1.
    8880023    1    1    2    0    0  0.83184358481E+02  0.69316765486E+03 -0.17889971050E+04  0.20302024242E+04  0.65864270000E+03 0. -1.
    8880022    1    1    2    0    0 -0.83184358481E+02 -0.69316765486E+03 -0.46997338480E+03  0.85537574824E+03  0.15294330000E+03 0.  0.
<mgrwt>
<rscale>  0 0.89159022E+03</rscale>
<asrwt>0</asrwt>
<pdfrwt beam="1">  1        2 0.39573450E+00 0.95979750E+03</pdfrwt>
<pdfrwt beam="2">  1       -2 0.48200592E-01 0.95979750E+03</pdfrwt>
<totfact> 0.13122110E+01</totfact>
</mgrwt>
</event>
<event>
 4    1  0.3565372E-007  0.7518930E+03  0.7818608E-02  0.9826567E-01
          2   -1    0    0  501    0  0.00000000000E+00  0.00000000000E+00  0.10212651792E+04  0.10212651792E+04  0.25500000000E-02 0. -1.
         -2   -1    0    0    0  501 -0.00000000000E+00 -0.00000000000E+00 -0.98545414322E+03  0.98545414322E+03  0.25500000000E-02 0.  1.
    8880023    1    1    2    0    0  0.52828168767E+02  0.35880634771E+03  0.83025314290E+03  0.11201175376E+04  0.65864270000E+03 0. -1.
    8880022    1    1    2    0    0 -0.52828168767E+02 -0.35880634771E+03 -0.79444210690E+03  0.88660178480E+03  0.15294330000E+03 0.  0.
<mgrwt>
<rscale>  0 0.63956106E+03</rscale>
<asrwt>0</asrwt>
<pdfrwt beam="1">  1        2 0.15711772E+00 0.75189296E+03</pdfrwt>
<pdfrwt beam="2">  1       -2 0.15160833E+00 0.75189296E+03</pdfrwt>
<totfact> 0.72416604E+00</totfact>
</mgrwt>
</event>
<event>
 4    1  0.3565372E-007  0.8335219E+03  0.7818608E-02  0.9642518E-01
         -2   -1    0    0    0  501 -0.00000000000E+00  0.00000000000E+00  0.46295758783E+03  0.46295758783E+03  0.25500000000E-02 0.  1.
          2   -1    0    0  501    0  0.00000000000E+00 -0.00000000000E+00 -0.16787006111E+04  0.16787006111E+04  0.25500000000E-02 0. -1.
    8880023    1    1    2    0    0 -0.28354705775E+03 -0.42491139143E+03 -0.13547236645E+04  0.15906083861E+04  0.65864270000E+03 0. -1.
    8880022    1    1    2    0    0  0.28354705775E+03  0.42491139143E+03  0.13898064126E+03  0.55104981280E+03  0.15294330000E+03 0.  0.
<mgrwt>
<rscale>  0 0.74544838E+03</rscale>
<asrwt>0</asrwt>
<pdfrwt beam="1">  1        2 0.25826163E+00 0.83352194E+03</pdfrwt>
<pdfrwt beam="2">  1       -2 0.71224245E-01 0.83352194E+03</pdfrwt>
<totfact> 0.18343030E+01</totfact>
</mgrwt>
</event>
<event>
 4    1  0.3565372E-007  0.7752384E+03  0.7818608E-02  0.9767143E-01
          2   -1    0    0  501    0  0.00000000000E+00  0.00000000000E+00  0.45353530828E+03  0.45353530829E+03  0.25500000000E-02 0. -1.
         -2   -1    0    0    0  501 -0.00000000000E+00 -0.00000000000E+00 -0.10061550098E+04  0.10061550098E+04  0.25500000000E-02 0.  1.
    8880023    1    1    2    0    0  0.31304658378E+03  0.26303272348E+03 -0.26026203162E+02  0.77567515543E+03  0.65864270000E+03 0. -1.
    8880022    1    1    2    0    0 -0.31304658378E+03 -0.26303272348E+03 -0.52659349837E+03  0.68401516268E+03  0.15294330000E+03 0.  0.
<mgrwt>
<rscale>  0 0.67156027E+03</rscale>
<asrwt>0</asrwt>
<pdfrwt beam="1">  1        2 0.69774663E-01 0.77523840E+03</pdfrwt>
<pdfrwt beam="2">  1       -2 0.15479308E+00 0.77523840E+03</pdfrwt>
<totfact> 0.19208434E+01</totfact>
</mgrwt>
</event>
<event>
 4    1  0.3565372E-007  0.7458281E+03  0.7818608E-02  0.9843284E-01
         -2   -1    0    0    0  501 -0.00000000000E+00  0.00000000000E+00  0.41436011734E+03  0.41436011735E+03  0.25500000000E-02 0.  1.
          2   -1    0    0  501    0  0.00000000000E+00 -0.00000000000E+00 -0.12904409673E+04  0.12904409673E+04  0.25500000000E-02 0. -1.
    8880023    1    1    2    0    0 -0.17920793556E+02  0.34946852149E+03 -0.10477535625E+04  0.12860976388E+04  0.65864270000E+03 0. -1.
    8880022    1    1    2    0    0  0.17920793556E+02 -0.34946852149E+03  0.17167271257E+03  0.41870344590E+03  0.15294330000E+03 0.  0.
<mgrwt>
<rscale>  0 0.63090511E+03</rscale>
<asrwt>0</asrwt>
<pdfrwt beam="1">  1        2 0.19852938E+00 0.74582814E+03</pdfrwt>
<pdfrwt beam="2">  1       -2 0.63747711E-01 0.74582814E+03</pdfrwt>
<totfact> 0.38877343E+01</totfact>
</mgrwt>
</event>
<event>
 4    1  0.3565372E-007  0.7616687E+03  0.7818608E-02  0.9800807E-01
         -2   -1    0    0    0  501 -0.00000000000E+00  0.00000000000E+00  0.53036890142E+03  0.53036890142E+03  0.25500000000E-02 0.  1.
          2   -1    0    0  501    0  0.00000000000E+00 -0.00000000000E+00 -0.18527272010E+04  0.18527272010E+04  0.25500000000E-02 0. -1.
    8880023    1    1    2    0    0 -0.38234269465E+03 -0.11958080327E+02 -0.16754888672E+04  0.18404896311E+04  0.65864270000E+03 0. -1.
    8880022    1    1    2    0    0  0.38234269465E+03  0.11958080327E+02  0.35313056767E+03  0.54260647127E+03  0.15294330000E+03 0.  0.
<mgrwt>
<rscale>  0 0.65319278E+03</rscale>
<asrwt>0</asrwt>
<pdfrwt beam="1">  1        2 0.28503495E+00 0.76166865E+03</pdfrwt>
<pdfrwt beam="2">  1       -2 0.81595217E-01 0.76166865E+03</pdfrwt>
<totfact> 0.10985568E+01</totfact>
</mgrwt>
</event>
<event>
 4    1  0.3652049E-007  0.8065693E+03  0.7818608E-02  0.9696768E-01
          2   -1    0    0  501    0  0.00000000000E+00  0.00000000000E+00  0.26022647282E+04  0.26022647282E+04  0.25500000000E-02 0. -1.
         -2   -1    0    0    0  501 -0.00000000000E+00 -0.00000000000E+00 -0.88816351102E+03  0.88816351102E+03  0.25500000000E-02 0.  1.
    8880023    1    1    2    0    0  0.30088972599E+03  0.35525935024E+03  0.24650967313E+04  0.25936954204E+04  0.65864270000E+03 0. -1.
    8880022    1    1    2    0    0 -0.30088972599E+03 -0.35525935024E+03 -0.75099551408E+03  0.89673281881E+03  0.15294330000E+03 0.  0.
<mgrwt>
<rscale>  0 0.71209561E+03</rscale>
<asrwt>0</asrwt>
<pdfrwt beam="1">  1        2 0.40034842E+00 0.80656930E+03</pdfrwt>
<pdfrwt beam="2">  1       -2 0.13664054E+00 0.80656930E+03</pdfrwt>
<totfact> 0.12101372E+00</totfact>
</mgrwt>
</event>
<event>
 4    1  0.3565372E-007  0.8041094E+03  0.7818608E-02  0.9701980E-01
          2   -1    0    0  501    0  0.00000000000E+00  0.00000000000E+00  0.10989231015E+04  0.10989231015E+04  0.25500000000E-02 0. -1.
         -2   -1    0    0    0  501 -0.00000000000E+00 -0.00000000000E+00 -0.53088687502E+03  0.53088687503E+03  0.25500000000E-02 0.  1.
    8880023    1    1    2    0    0  0.33700064218E+03  0.31497993618E+03  0.76081631507E+03  0.11069929831E+04  0.65864270000E+03 0. -1.
    8880022    1    1    2    0    0 -0.33700064218E+03 -0.31497993618E+03 -0.19278008863E+03  0.52281699342E+03  0.15294330000E+03 0.  0.
<mgrwt>
<rscale>  0 0.70899024E+03</rscale>
<asrwt>0</asrwt>
<pdfrwt beam="1">  1        2 0.16906509E+00 0.80410944E+03</pdfrwt>
<pdfrwt beam="2">  1       -2 0.81674905E-01 0.80410944E+03</pdfrwt>
<totfact> 0.29129445E+01</totfact>
</mgrwt>
</event>
<event>
 4    1  0.3565372E-007  0.6980749E+03  0.7818608E-02  0.1000528E+00
          2   -1    0    0  501    0  0.00000000000E+00  0.00000000000E+00  0.34520713270E+03  0.34520713271E+03  0.25500000000E-02 0. -1.
         -2   -1    0    0    0  501 -0.00000000000E+00 -0.00000000000E+00 -0.10164221915E+04  0.10164221915E+04  0.25500000000E-02 0.  1.
    8880023    1    1    2    0    0 -0.24713147967E+01 -0.23128377963E+03 -0.72513154290E+02  0.70183093258E+03  0.65864270000E+03 0. -1.
    8880022    1    1    2    0    0  0.24713147967E+01  0.23128377963E+03 -0.59870190452E+03  0.65979839164E+03  0.15294330000E+03 0.  0.
<mgrwt>
<rscale>  0 0.55419192E+03</rscale>
<asrwt>0</asrwt>
<pdfrwt beam="1">  1        2 0.53108790E-01 0.69807485E+03</pdfrwt>
<pdfrwt beam="2">  1       -2 0.15637264E+00 0.69807485E+03</pdfrwt>
<totfact> 0.25584761E+01</totfact>
</mgrwt>
</event>
<event>
 4    1  0.3565372E-007  0.6704459E+03  0.7818608E-02  0.1015345E+00
          2   -1    0    0  501    0  0.00000000000E+00  0.00000000000E+00  0.49967776448E+03  0.49967776449E+03  0.25500000000E-02 0. -1.
         -2   -1    0    0    0  501 -0.00000000000E+00 -0.00000000000E+00 -0.21654293501E+04  0.21654293501E+04  0.25500000000E-02 0.  1.
    8880023    1    1    2    0    0  0.45295436475E+02  0.11677225261E+03  0.26745173148E+03  0.72182274173E+03  0.65864270000E+03 0. -1.
    8880022    1    1    2    0    0 -0.45295436475E+02 -0.11677225261E+03 -0.19332033171E+04  0.19432843728E+04  0.15294330000E+03 0.  0.
<mgrwt>
<rscale>  0 0.49404423E+03</rscale>
<asrwt>0</asrwt>
<pdfrwt beam="1">  1        2 0.76873503E-01 0.67044585E+03</pdfrwt>
<pdfrwt beam="2">  1       -2 0.33314297E+00 0.67044585E+03</pdfrwt>
<totfact> 0.13027482E+00</totfact>
</mgrwt>
</event>
<event>
 4    1  0.3565372E-007  0.6637387E+03  0.7818608E-02  0.1020616E+00
          2   -1    0    0  501    0  0.00000000000E+00  0.00000000000E+00  0.28597077122E+04  0.28597077122E+04  0.25500000000E-02 0. -1.
         -2   -1    0    0    0  501 -0.00000000000E+00 -0.00000000000E+00 -0.20124456745E+03  0.20124456747E+03  0.25500000000E-02 0.  1.
    8880023    1    1    2    0    0  0.69034526359E+02 -0.44420132604E+02  0.27740874873E+04  0.28523868089E+04  0.65864270000E+03 0. -1.
    8880022    1    1    2    0    0 -0.69034526359E+02  0.44420132604E+02 -0.11562434254E+03  0.20856547081E+03  0.15294330000E+03 0.  1.
<mgrwt>
<rscale>  0 0.47465033E+03</rscale>
<asrwt>0</asrwt>
<pdfrwt beam="1">  1        2 0.43995502E+00 0.66373874E+03</pdfrwt>
<pdfrwt beam="2">  1       -2 0.30960704E-01 0.66373874E+03</pdfrwt>
<totfact> 0.22001127E+01</totfact>
</mgrwt>
</event>
<event>
 4    1  0.3565372E-007  0.8017285E+03  0.7818608E-02  0.9707071E-01
          2   -1    0    0  501    0  0.00000000000E+00  0.00000000000E+00  0.12485030991E+04  0.12485030991E+04  0.25500000000E-02 0. -1.
         -2   -1    0    0    0  501 -0.00000000000E+00 -0.00000000000E+00 -0.88633116595E+03  0.88633116595E+03  0.25500000000E-02 0.  1.
    8880023    1    1    2    0    0  0.14433957302E+03  0.43373311190E+03  0.10337289661E+04  0.13081911582E+04  0.65864270000E+03 0. -1.
    8880022    1    1    2    0    0 -0.14433957302E+03 -0.43373311190E+03 -0.67155703292E+03  0.82664310690E+03  0.15294330000E+03 0.  0.
<mgrwt>
<rscale>  0 0.70597335E+03</rscale>
<asrwt>0</asrwt>
<pdfrwt beam="1">  1        2 0.19207740E+00 0.80172846E+03</pdfrwt>
<pdfrwt beam="2">  1       -2 0.13635864E+00 0.80172846E+03</pdfrwt>
<totfact> 0.69129647E+00</totfact>
</mgrwt>
</event>
<event>
 4    1  0.3565372E-007  0.7414233E+03  0.7818608E-02  0.9855820E-01
          2   -1    0    0  501    0  0.00000000000E+00  0.00000000000E+00  0.92189719239E+03  0.92189719239E+03  0.25500000000E-02 0. -1.
         -2   -1    0    0    0  501 -0.00000000000E+00 -0.00000000000E+00 -0.54927905413E+03  0.54927905413E+03  0.25500000000E-02 0.  1.
    8880023    1    1    2    0    0  0.26416316089E+03  0.21474676424E+03  0.66586441142E+03  0.99653598479E+03  0.65864270000E+03 0. -1.
    8880022    1    1    2    0    0 -0.26416316089E+03 -0.21474676424E+03 -0.29324627316E+03  0.47464026174E+03  0.15294330000E+03 0.  0.
<mgrwt>
<rscale>  0 0.62451041E+03</rscale>
<asrwt>0</asrwt>
<pdfrwt beam="1">  1        2 0.14183033E+00 0.74142333E+03</pdfrwt>
<pdfrwt beam="2">  1       -2 0.84504471E-01 0.74142333E+03</pdfrwt>
<totfact> 0.35159527E+01</totfact>
</mgrwt>
</event>
<event>
 4    1  0.3565372E-007  0.6792332E+03  0.7818608E-02  0.1009761E+00
          2   -1    0    0  501    0  0.00000000000E+00  0.00000000000E+00  0.21303731788E+04  0.21303731788E+04  0.25500000000E-02 0. -1.
         -2   -1    0    0    0  501 -0.00000000000E+00 -0.00000000000E+00 -0.10891766425E+03  0.10891766428E+03  0.25500000000E-02 0.  1.
    8880023    1    1    2    0    0 -0.15967342709E+03  0.45297502684E+02  0.17965606537E+04  0.19206738025E+04  0.65864270000E+03 0.  0.
    8880022    1    1    2    0    0  0.15967342709E+03 -0.45297502684E+02  0.22489486083E+03  0.31861704052E+03  0.15294330000E+03 0.  0.
<mgrwt>
<rscale>  0 0.51569816E+03</rscale>
<asrwt>0</asrwt>
<pdfrwt beam="1">  1        2 0.32774973E+00 0.67923315E+03</pdfrwt>
<pdfrwt beam="2">  1       -2 0.16756563E-01 0.67923315E+03</pdfrwt>
<totfact> 0.16961521E+02</totfact>
</mgrwt>
</event>
<event>
 4    1  0.3565372E-007  0.6823218E+03  0.7818608E-02  0.1008040E+00
          2   -1    0    0  501    0  0.00000000000E+00  0.00000000000E+00  0.11146900962E+04  0.11146900962E+04  0.25500000000E-02 0. -1.
         -2   -1    0    0    0  501 -0.00000000000E+00 -0.00000000000E+00 -0.22498693759E+03  0.22498693761E+03  0.25500000000E-02 0.  1.
    8880023    1    1    2    0    0 -0.17646291419E+03  0.24771813617E+02  0.86766863769E+03  0.11038169567E+04  0.65864270000E+03 0. -1.
    8880022    1    1    2    0    0  0.17646291419E+03 -0.24771813617E+02  0.22034520905E+02  0.23586007708E+03  0.15294330000E+03 0.  0.
<mgrwt>
<rscale>  0 0.52261234E+03</rscale>
<asrwt>0</asrwt>
<pdfrwt beam="1">  1        2 0.17149079E+00 0.68232178E+03</pdfrwt>
<pdfrwt beam="2">  1       -2 0.34613374E-01 0.68232178E+03</pdfrwt>
<totfact> 0.16970500E+02</totfact>
</mgrwt>
</event>
<event>
 4    1  0.3565372E-007  0.7614281E+03  0.7818608E-02  0.9801424E-01
         -2   -1    0    0    0  501 -0.00000000000E+00  0.00000000000E+00  0.88734673335E+03  0.88734673335E+03  0.25500000000E-02 0.  1.
          2   -1    0    0  501    0  0.00000000000E+00 -0.00000000000E+00 -0.63939802537E+03  0.63939802537E+03  0.25500000000E-02 0. -1.
    8880023    1    1    2    0    0  0.37655334550E+03 -0.64576611867E+02 -0.31952976583E+03  0.82575543493E+03  0.65864270000E+03 0. -1.
    8880022    1    1    2    0    0 -0.37655334550E+03  0.64576611867E+02  0.56747847381E+03  0.70098932379E+03  0.15294330000E+03 0.  0.
<mgrwt>
<rscale>  0 0.65286168E+03</rscale>
<asrwt>0</asrwt>
<pdfrwt beam="1">  1        2 0.98368927E-01 0.76142811E+03</pdfrwt>
<pdfrwt beam="2">  1       -2 0.13651488E+00 0.76142811E+03</pdfrwt>
<totfact> 0.17818153E+01</totfact>
</mgrwt>
</event>
<event>
 4    1  0.3565372E-007  0.7240409E+03  0.7818608E-02  0.9909143E-01
         -2   -1    0    0    0  501 -0.00000000000E+00  0.00000000000E+00  0.51627389804E+03  0.51627389805E+03  0.25500000000E-02 0.  1.
          2   -1    0    0  501    0  0.00000000000E+00 -0.00000000000E+00 -0.15379263528E+04  0.15379263528E+04  0.25500000000E-02 0. -1.
    8880023    1    1    2    0    0 -0.44023564473E+02 -0.29746748292E+03 -0.13822442403E+04  0.15603955664E+04  0.65864270000E+03 0.  0.
    8880022    1    1    2    0    0  0.44023564473E+02  0.29746748292E+03  0.36059178549E+03  0.49380468447E+03  0.15294330000E+03 0.  0.
<mgrwt>
<rscale>  0 0.59820223E+03</rscale>
<asrwt>0</asrwt>
<pdfrwt beam="1">  1        2 0.23660405E+00 0.72404087E+03</pdfrwt>
<pdfrwt beam="2">  1       -2 0.79426754E-01 0.72404087E+03</pdfrwt>
<totfact> 0.17454891E+01</totfact>
</mgrwt>
</event>
<event>
 4    1  0.4297926E-007  0.7425630E+03  0.7818608E-02  0.9852543E-01
         -2   -1    0    0    0  501 -0.00000000000E+00  0.00000000000E+00  0.16996918600E+04  0.16996918600E+04  0.25500000000E-02 0.  1.
          2   -1    0    0  501    0  0.00000000000E+00 -0.00000000000E+00 -0.10505062356E+04  0.10505062356E+04  0.25500000000E-02 0. -1.
    8880023    1    1    2    0    0  0.11873342058E+03  0.32170166594E+03 -0.89389775707E+03  0.11620899248E+04  0.65864270000E+03 0.  0.
    8880022    1    1    2    0    0 -0.11873342058E+03 -0.32170166594E+03  0.15430833815E+04  0.15881081708E+04  0.15294330000E+03 0.  0.
<mgrwt>
<rscale>  0 0.62617416E+03</rscale>
<asrwt>0</asrwt>
<pdfrwt beam="1">  1        2 0.16161635E+00 0.74256299E+03</pdfrwt>
<pdfrwt beam="2">  1       -2 0.26149105E+00 0.74256299E+03</pdfrwt>
<totfact> 0.13275059E+00</totfact>
</mgrwt>
</event>
<event>
 4    1  0.3565372E-007  0.7540260E+03  0.7818608E-02  0.9820826E-01
         -2   -1    0    0    0  501 -0.00000000000E+00  0.00000000000E+00  0.43766312281E+03  0.43766312282E+03  0.25500000000E-02 0.  1.
          2   -1    0    0  501    0  0.00000000000E+00 -0.00000000000E+00 -0.11122432982E+04  0.11122432982E+04  0.25500000000E-02 0. -1.
    8880023    1    1    2    0    0  0.36015673801E+03 -0.70937662860E+02 -0.83143465382E+03  0.11224254175E+04  0.65864270000E+03 0. -1.
    8880022    1    1    2    0    0 -0.36015673801E+03  0.70937662860E+02  0.15685447846E+03  0.42748100352E+03  0.15294330000E+03 0.  0.
<mgrwt>
<rscale>  0 0.64256760E+03</rscale>
<asrwt>0</asrwt>
<pdfrwt beam="1">  1        2 0.17111435E+00 0.75402602E+03</pdfrwt>
<pdfrwt beam="2">  1       -2 0.67332789E-01 0.75402602E+03</pdfrwt>
<totfact> 0.44031393E+01</totfact>
</mgrwt>
</event>
<event>
 4    1  0.3869832E-007  0.6640859E+03  0.7818608E-02  0.1020313E+00
         -2   -1    0    0    0  501 -0.00000000000E+00  0.00000000000E+00  0.10315680741E+04  0.10315680741E+04  0.25500000000E-02 0.  1.
          2   -1    0    0  501    0  0.00000000000E+00 -0.00000000000E+00 -0.23665301034E+04  0.23665301034E+04  0.25500000000E-02 0. -1.
    8880023    1    1    2    0    0 -0.61644127912E+01 -0.84627961119E+02 -0.23120227398E+04  0.24055060273E+04  0.65864270000E+03 0. -1.
    8880022    1    1    2    0    0  0.61644127912E+01  0.84627961119E+02  0.97706071046E+03  0.99259215025E+03  0.15294330000E+03 0.  0.
<mgrwt>
<rscale>  0 0.47573858E+03</rscale>
<asrwt>0</asrwt>
<pdfrwt beam="1">  1        2 0.36408155E+00 0.66408591E+03</pdfrwt>
<pdfrwt beam="2">  1       -2 0.15870278E+00 0.66408591E+03</pdfrwt>
<totfact> 0.11440700E+00</totfact>
</mgrwt>
</event>
<event>
 4    1  0.3565372E-007  0.9402890E+03  0.7818608E-02  0.9464226E-01
          2   -1    0    0  501    0  0.00000000000E+00  0.00000000000E+00  0.23020912247E+04  0.23020912247E+04  0.25500000000E-02 0. -1.
         -2   -1    0    0    0  501 -0.00000000000E+00 -0.00000000000E+00 -0.44813746980E+03  0.44813746981E+03  0.25500000000E-02 0.  1.
    8880023    1    1    2    0    0  0.16469441986E+03 -0.65054506305E+03  0.18347755160E+04  0.20616848769E+04  0.65864270000E+03 0. -1.
    8880022    1    1    2    0    0 -0.16469441986E+03  0.65054506305E+03  0.19178238885E+02  0.68854381767E+03  0.15294330000E+03 0.  0.
<mgrwt>
<rscale>  0 0.86973464E+03</rscale>
<asrwt>0</asrwt>
<pdfrwt beam="1">  1        2 0.35416787E+00 0.94028896E+03</pdfrwt>
<pdfrwt beam="2">  1       -2 0.68944228E-01 0.94028896E+03</pdfrwt>
<totfact> 0.88193378E+00</totfact>
</mgrwt>
</event>
<event>
 4    1  0.3565372E-007  0.9269226E+03  0.7818608E-02  0.9484125E-01
          2   -1    0    0  501    0  0.00000000000E+00  0.00000000000E+00  0.24592746296E+04  0.24592746296E+04  0.25500000000E-02 0. -1.
         -2   -1    0    0    0  501 -0.00000000000E+00 -0.00000000000E+00 -0.36617822275E+03  0.36617822276E+03  0.25500000000E-02 0.  1.
    8880023    1    1    2    0    0  0.57806822623E+03 -0.30201402787E+03  0.19223192337E+04  0.21341267042E+04  0.65864270000E+03 0.  0.
    8880022    1    1    2    0    0 -0.57806822623E+03  0.30201402787E+03  0.17077717315E+03  0.69132614813E+03  0.15294330000E+03 0.  0.
<mgrwt>
<rscale>  0 0.85464396E+03</rscale>
<asrwt>0</asrwt>
<pdfrwt beam="1">  1        2 0.37834995E+00 0.92692263E+03</pdfrwt>
<pdfrwt beam="2">  1       -2 0.56335110E-01 0.92692263E+03</pdfrwt>
<totfact> 0.11091038E+01</totfact>
</mgrwt>
</event>
<event>
 4    1  0.3565372E-007  0.1249182E+04  0.7818608E-02  0.9110736E-01
         -2   -1    0    0    0  501 -0.00000000000E+00  0.00000000000E+00  0.31718776336E+04  0.31718776336E+04  0.25500000000E-02 0.  1.
          2   -1    0    0  501    0  0.00000000000E+00 -0.00000000000E+00 -0.68937027425E+03  0.68937027426E+03  0.25500000000E-02 0. -1.
    8880023    1    1    2    0    0  0.55397856282E+03 -0.90540217924E+03  0.24933756802E+04  0.27887950522E+04  0.65864270000E+03 0.  0.
    8880022    1    1    2    0    0 -0.55397856282E+03  0.90540217924E+03 -0.10868320847E+02  0.10724528557E+04  0.15294330000E+03 0.  0.
<mgrwt>
<rscale>  0 0.12024257E+04</rscale>
<asrwt>0</asrwt>
<pdfrwt beam="1">  1        2 0.10605697E+00 0.12491820E+04</pdfrwt>
<pdfrwt beam="2">  1       -2 0.48798117E+00 0.12491820E+04</pdfrwt>
<totfact> 0.80204820E-02</totfact>
</mgrwt>
</event>
<event>
 4    1  0.3565372E-007  0.8624669E+03  0.7818608E-02  0.9589190E-01
          2   -1    0    0  501    0  0.00000000000E+00  0.00000000000E+00  0.11415088631E+04  0.11415088631E+04  0.25500000000E-02 0. -1.
         -2   -1    0    0    0  501 -0.00000000000E+00 -0.00000000000E+00 -0.73751693807E+03  0.73751693808E+03  0.25500000000E-02 0.  1.
    8880023    1    1    2    0    0 -0.57136012562E+02 -0.55387222675E+03  0.80198380671E+03  0.11777211894E+04  0.65864270000E+03 0. -1.
    8880022    1    1    2    0    0  0.57136012562E+02  0.55387222675E+03 -0.39799188173E+03  0.70130461173E+03  0.15294330000E+03 0.  0.
<mgrwt>
<rscale>  0 0.78015791E+03</rscale>
<asrwt>0</asrwt>
<pdfrwt beam="1">  1        2 0.17561675E+00 0.86246691E+03</pdfrwt>
<pdfrwt beam="2">  1       -2 0.11346414E+00 0.86246691E+03</pdfrwt>
<totfact> 0.12595494E+01</totfact>
</mgrwt>
</event>
<event>
 4    1  0.3565372E-007  0.1499657E+04  0.7818608E-02  0.8909878E-01
          2   -1    0    0  501    0  0.00000000000E+00  0.00000000000E+00  0.22738876164E+04  0.22738876164E+04  0.25500000000E-02 0. -1.
         -2   -1    0    0    0  501 -0.00000000000E+00 -0.00000000000E+00 -0.10628588504E+04  0.10628588504E+04  0.25500000000E-02 0.  1.
    8880023    1    1    2    0    0 -0.89518758356E+03  0.10068760310E+04  0.12905185211E+04  0.19784863939E+04  0.65864270000E+03 0.  0.
    8880022    1    1    2    0    0  0.89518758356E+03 -0.10068760310E+04 -0.79489754992E+02  0.13582600729E+04  0.15294330000E+03 0.  0.
<mgrwt>
<rscale>  0 0.14623569E+04</rscale>
<asrwt>0</asrwt>
<pdfrwt beam="1">  1        2 0.34982886E+00 0.14996567E+04</pdfrwt>
<pdfrwt beam="2">  1       -2 0.16351675E+00 0.14996567E+04</pdfrwt>
<totfact> 0.10494979E+00</totfact>
</mgrwt>
</event>
<event>
 4    1  0.3565372E-007  0.7027880E+03  0.7818608E-02  0.9985826E-01
          2   -1    0    0  501    0  0.00000000000E+00  0.00000000000E+00  0.16719687888E+04  0.16719687888E+04  0.25500000000E-02 0. -1.
         -2   -1    0    0    0  501 -0.00000000000E+00 -0.00000000000E+00 -0.23033702247E+03  0.23033702249E+03  0.25500000000E-02 0.  1.
    8880023    1    1    2    0    0 -0.18206105178E+03 -0.16417840434E+03  0.14520331714E+04  0.16131680980E+04  0.65864270000E+03 0. -1.
    8880022    1    1    2    0    0  0.18206105178E+03  0.16417840434E+03 -0.10401405120E+02  0.28913771333E+03  0.15294330000E+03 0.  0.
<mgrwt>
<rscale>  0 0.56276119E+03</rscale>
<asrwt>0</asrwt>
<pdfrwt beam="1">  1        2 0.25722597E+00 0.70278801E+03</pdfrwt>
<pdfrwt beam="2">  1       -2 0.35436465E-01 0.70278801E+03</pdfrwt>
<totfact> 0.78102043E+01</totfact>
</mgrwt>
</event>
<event>
 4    1  0.3565372E-007  0.8991463E+03  0.7818608E-02  0.9527403E-01
          2   -1    0    0  501    0  0.00000000000E+00  0.00000000000E+00  0.14866892698E+04  0.14866892698E+04  0.25500000000E-02 0. -1.
         -2   -1    0    0    0  501 -0.00000000000E+00 -0.00000000000E+00 -0.45179224631E+03  0.45179224632E+03  0.25500000000E-02 0.  1.
    8880023    1    1    2    0    0 -0.52278775244E+03 -0.31835028835E+03  0.93944597666E+03  0.13003933595E+04  0.65864270000E+03 0. -1.
    8880022    1    1    2    0    0  0.52278775244E+03  0.31835028835E+03  0.95451046800E+02  0.63808815656E+03  0.15294330000E+03 0.  0.
<mgrwt>
<rscale>  0 0.82293283E+03</rscale>
<asrwt>0</asrwt>
<pdfrwt beam="1">  1        2 0.22872143E+00 0.89914634E+03</pdfrwt>
<pdfrwt beam="2">  1       -2 0.69506499E-01 0.89914634E+03</pdfrwt>
<totfact> 0.24559101E+01</totfact>
</mgrwt>
</event>
<event>
 4    1  0.3565372E-007  0.1249729E+04  0.7818608E-02  0.9110235E-01
         -2   -1    0    0    0  501 -0.00000000000E+00  0.00000000000E+00  0.22225584823E+04  0.22225584823E+04  0.25500000000E-02 0.  1.
          2   -1    0    0  501    0  0.00000000000E+00 -0.00000000000E+00 -0.13212260002E+04  0.13212260002E+04  0.25500000000E-02 0. -1.
    8880023    1    1    2    0    0  0.96454148788E+03 -0.44460303289E+03  0.17675638246E+04  0.21647411437E+04  0.65864270000E+03 0.  1.
    8880022    1    1    2    0    0 -0.96454148788E+03  0.44460303289E+03 -0.86623134246E+03  0.13790433388E+04  0.15294330000E+03 0.  0.
<mgrwt>
<rscale>  0 0.12029991E+04</rscale>
<asrwt>0</asrwt>
<pdfrwt beam="1">  1        2 0.20326554E+00 0.12497289E+04</pdfrwt>
<pdfrwt beam="2">  1       -2 0.34193207E+00 0.12497289E+04</pdfrwt>
<totfact> 0.27342459E-01</totfact>
</mgrwt>
</event>
<event>
 4    1  0.3565372E-007  0.6733178E+03  0.7818608E-02  0.1013388E+00
          2   -1    0    0  501    0  0.00000000000E+00  0.00000000000E+00  0.42412784092E+03  0.42412784092E+03  0.25500000000E-02 0. -1.
         -2   -1    0    0    0  501 -0.00000000000E+00 -0.00000000000E+00 -0.25504915921E+04  0.25504915921E+04  0.25500000000E-02 0.  1.
    8880023    1    1    2    0    0 -0.11744038647E+03 -0.75857504172E+02  0.14919198080E+03  0.68964850374E+03  0.65864270000E+03 0. -1.
    8880022    1    1    2    0    0  0.11744038647E+03  0.75857504172E+02 -0.22755557320E+04  0.22849709293E+04  0.15294330000E+03 0.  0.
<mgrwt>
<rscale>  0 0.50149962E+03</rscale>
<asrwt>0</asrwt>
<pdfrwt beam="1">  1        2 0.65250438E-01 0.67331776E+03</pdfrwt>
<pdfrwt beam="2">  1       -2 0.39238331E+00 0.67331776E+03</pdfrwt>
<totfact> 0.66774521E-01</totfact>
</mgrwt>
</event>
<event>
 4    1  0.3565372E-007  0.7721589E+03  0.7818608E-02  0.9774589E-01
         -2   -1    0    0    0  501 -0.00000000000E+00  0.00000000000E+00  0.80537667888E+03  0.80537667889E+03  0.25500000000E-02 0.  1.
          2   -1    0    0  501    0  0.00000000000E+00 -0.00000000000E+00 -0.59852137349E+03  0.59852137350E+03  0.25500000000E-02 0. -1.
    8880023    1    1    2    0    0 -0.39866039761E+03  0.59068220086E+02 -0.21420341060E+03  0.80131920894E+03  0.65864270000E+03 0. -1.
    8880022    1    1    2    0    0  0.39866039761E+03 -0.59068220086E+02  0.42105871598E+03  0.60257884344E+03  0.15294330000E+03 0.  0.
<mgrwt>
<rscale>  0 0.66744255E+03</rscale>
<asrwt>0</asrwt>
<pdfrwt beam="1">  1        2 0.92080211E-01 0.77215890E+03</pdfrwt>
<pdfrwt beam="2">  1       -2 0.12390410E+00 0.77215890E+03</pdfrwt>
<totfact> 0.24656992E+01</totfact>
</mgrwt>
</event>
<event>
 4    1  0.3565372E-007  0.7125979E+03  0.7818608E-02  0.9948478E-01
          2   -1    0    0  501    0  0.00000000000E+00  0.00000000000E+00  0.26308197131E+04  0.26308197131E+04  0.25500000000E-02 0. -1.
         -2   -1    0    0    0  501 -0.00000000000E+00 -0.00000000000E+00 -0.22761064784E+03  0.22761064785E+03  0.25500000000E-02 0.  1.
    8880023    1    1    2    0    0  0.27063148902E+03 -0.27279245773E+02  0.24421180635E+04  0.25439607706E+04  0.65864270000E+03 0. -1.
    8880022    1    1    2    0    0 -0.27063148902E+03  0.27279245773E+02 -0.38908998220E+02  0.31446959035E+03  0.15294330000E+03 0.  0.
<mgrwt>
<rscale>  0 0.57968301E+03</rscale>
<asrwt>0</asrwt>
<pdfrwt beam="1">  1        2 0.40474148E+00 0.71259790E+03</pdfrwt>
<pdfrwt beam="2">  1       -2 0.35017024E-01 0.71259790E+03</pdfrwt>
<totfact> 0.23549586E+01</totfact>
</mgrwt>
</event>
<event>
 4    1  0.3565372E-007  0.7615343E+03  0.7818608E-02  0.9801151E-01
         -2   -1    0    0    0  501 -0.00000000000E+00  0.00000000000E+00  0.12447731238E+03  0.12447731241E+03  0.25500000000E-02 0.  1.
          2   -1    0    0  501    0  0.00000000000E+00 -0.00000000000E+00 -0.28879349300E+04  0.28879349300E+04  0.25500000000E-02 0. -1.
    8880023    1    1    2    0    0  0.33094143134E+03  0.19131670149E+03 -0.14784097921E+04  0.16630183495E+04  0.65864270000E+03 0.  0.
    8880022    1    1    2    0    0 -0.33094143134E+03 -0.19131670149E+03 -0.12850478256E+04  0.13493938929E+04  0.15294330000E+03 0.  0.
<mgrwt>
<rscale>  0 0.65300790E+03</rscale>
<asrwt>0</asrwt>
<pdfrwt beam="1">  1        2 0.44429763E+00 0.76153432E+03</pdfrwt>
<pdfrwt beam="2">  1       -2 0.19150358E-01 0.76153432E+03</pdfrwt>
<totfact> 0.49418687E+01</totfact>
</mgrwt>
</event>
<event>
 4    1  0.3565372E-007  0.6956455E+03  0.7818608E-02  0.1001577E+00
         -2   -1    0    0    0  501 -0.00000000000E+00  0.00000000000E+00  0.89602850627E+02  0.89602850663E+02  0.25500000000E-02 0.  1.
          2   -1    0    0  501    0  0.00000000000E+00 -0.00000000000E+00 -0.34408305347E+04  0.34408305347E+04  0.25500000000E-02 0. -1.
    8880023    1    1    2    0    0 -0.13490867488E+03  0.17863953963E+03 -0.30358889865E+04  0.31145697264E+04  0.65864270000E+03 0.  0.
    8880022    1    1    2    0    0  0.13490867488E+03 -0.17863953963E+03 -0.31533869752E+03  0.41586365896E+03  0.15294330000E+03 0.  0.
<mgrwt>
<rscale>  0 0.54964201E+03</rscale>
<asrwt>0</asrwt>
<pdfrwt beam="1">  1        2 0.52935844E+00 0.69564549E+03</pdfrwt>
<pdfrwt beam="2">  1       -2 0.13785057E-01 0.69564549E+03</pdfrwt>
<totfact> 0.39095740E+01</totfact>
</mgrwt>
</event>
<event>
 4    1  0.3565372E-007  0.1210376E+04  0.7818608E-02  0.9147101E-01
          2   -1    0    0  501    0  0.00000000000E+00  0.00000000000E+00  0.11347848308E+04  0.11347848308E+04  0.25500000000E-02 0. -1.
         -2   -1    0    0    0  501 -0.00000000000E+00 -0.00000000000E+00 -0.13244034424E+04  0.13244034424E+04  0.25500000000E-02 0.  1.
    8880023    1    1    2    0    0  0.87584843264E+03 -0.51389741283E+03 -0.60289116990E+03  0.13522163277E+04  0.65864270000E+03 0.  1.
    8880022    1    1    2    0    0 -0.87584843264E+03  0.51389741283E+03  0.41327255829E+03  0.11069719456E+04  0.15294330000E+03 0.  0.
<mgrwt>
<rscale>  0 0.11616518E+04</rscale>
<asrwt>0</asrwt>
<pdfrwt beam="1">  1        2 0.17458228E+00 0.12103765E+04</pdfrwt>
<pdfrwt beam="2">  1       -2 0.20375438E+00 0.12103765E+04</pdfrwt>
<totfact> 0.25299041E+00</totfact>
</mgrwt>
</event>
<event>
 4    1  0.3565372E-007  0.8594382E+03  0.7818608E-02  0.9594564E-01
          2   -1    0    0  501    0  0.00000000000E+00  0.00000000000E+00  0.14555869012E+04  0.14555869012E+04  0.25500000000E-02 0. -1.
         -2   -1    0    0    0  501 -0.00000000000E+00 -0.00000000000E+00 -0.86570471802E+03  0.86570471802E+03  0.25500000000E-02 0.  1.
    8880023    1    1    2    0    0 -0.26948023774E+03  0.48187567061E+03 -0.56748612577E+03  0.10298905134E+04  0.65864270000E+03 0.  1.
    8880022    1    1    2    0    0  0.26948023774E+03 -0.48187567061E+03  0.11573683090E+04  0.12914011058E+04  0.15294330000E+03 0.  0.
<mgrwt>
<rscale>  0 0.77657043E+03</rscale>
<asrwt>0</asrwt>
<pdfrwt beam="1">  1        2 0.22393645E+00 0.85943817E+03</pdfrwt>
<pdfrwt beam="2">  1       -2 0.13318534E+00 0.85943817E+03</pdfrwt>
<totfact> 0.55456296E+00</totfact>
</mgrwt>
</event>
<event>
 4    1  0.3565372E-007  0.8529684E+03  0.7818608E-02  0.9606196E-01
          2   -1    0    0  501    0  0.00000000000E+00  0.00000000000E+00  0.14515618620E+04  0.14515618620E+04  0.25500000000E-02 0. -1.
         -2   -1    0    0    0  501 -0.00000000000E+00 -0.00000000000E+00 -0.84612217245E+03  0.84612217245E+03  0.25500000000E-02 0.  1.
    8880023    1    1    2    0    0 -0.18305802998E+03  0.51013200543E+03  0.12042111483E+04  0.14756963106E+04  0.65864270000E+03 0. -1.
    8880022    1    1    2    0    0  0.18305802998E+03 -0.51013200543E+03 -0.59877145873E+03  0.82198772382E+03  0.15294330000E+03 0.  0.
<mgrwt>
<rscale>  0 0.76887457E+03</rscale>
<asrwt>0</asrwt>
<pdfrwt beam="1">  1        2 0.22331721E+00 0.85296841E+03</pdfrwt>
<pdfrwt beam="2">  1       -2 0.13017264E+00 0.85296841E+03</pdfrwt>
<totfact> 0.59134312E+00</totfact>
</mgrwt>
</event>
<event>
 4    1  0.3565372E-007  0.7224921E+03  0.7818608E-02  0.9914242E-01
         -2   -1    0    0    0  501 -0.00000000000E+00  0.00000000000E+00  0.16239575127E+03  0.16239575129E+03  0.25500000000E-02 0.  1.
          2   -1    0    0  501    0  0.00000000000E+00 -0.00000000000E+00 -0.17943635765E+04  0.17943635765E+04  0.25500000000E-02 0. -1.
    8880023    1    1    2    0    0  0.89398241649E+02 -0.28318303046E+03 -0.12911317365E+04  0.14795323726E+04  0.65864270000E+03 0. -1.
    8880022    1    1    2    0    0 -0.89398241649E+02  0.28318303046E+03 -0.34083608876E+03  0.47722695520E+03  0.15294330000E+03 0.  0.
<mgrwt>
<rscale>  0 0.59576001E+03</rscale>
<asrwt>0</asrwt>
<pdfrwt beam="1">  1        2 0.27605592E+00 0.72249213E+03</pdfrwt>
<pdfrwt beam="2">  1       -2 0.24983963E-01 0.72249213E+03</pdfrwt>
<totfact> 0.12771911E+02</totfact>
</mgrwt>
</event>
<event>
 4    1  0.3565372E-007  0.9696092E+03  0.7818608E-02  0.9422445E-01
         -2   -1    0    0    0  501 -0.00000000000E+00  0.00000000000E+00  0.44777077049E+03  0.44777077050E+03  0.25500000000E-02 0.  1.
          2   -1    0    0  501    0  0.00000000000E+00 -0.00000000000E+00 -0.16397206996E+04  0.16397206996E+04  0.25500000000E-02 0. -1.
    8880023    1    1    2    0    0  0.67657890839E+03 -0.22039221846E+03 -0.82144415009E+03  0.12707920551E+04  0.65864270000E+03 0. -1.
    8880022    1    1    2    0    0 -0.67657890839E+03  0.22039221846E+03 -0.37050577902E+03  0.81669941505E+03  0.15294330000E+03 0.  1.
<mgrwt>
<rscale>  0 0.90251345E+03</rscale>
<asrwt>0</asrwt>
<pdfrwt beam="1">  1        2 0.25226472E+00 0.96960918E+03</pdfrwt>
<pdfrwt beam="2">  1       -2 0.68887812E-01 0.96960918E+03</pdfrwt>
<totfact> 0.20438187E+01</totfact>
</mgrwt>
</event>
<event>
 4    1  0.3565372E-007  0.6755501E+03  0.7818608E-02  0.1011962E+00
          2   -1    0    0  501    0  0.00000000000E+00  0.00000000000E+00  0.17430832621E+04  0.17430832621E+04  0.25500000000E-02 0. -1.
         -2   -1    0    0    0  501 -0.00000000000E+00 -0.00000000000E+00 -0.28432206933E+03  0.28432206934E+03  0.25500000000E-02 0.  1.
    8880023    1    1    2    0    0 -0.14796882505E+03  0.25747893958E+02  0.16225952755E+04  0.17576072831E+04  0.65864270000E+03 0. -1.
    8880022    1    1    2    0    0  0.14796882505E+03 -0.25747893958E+02 -0.16383408271E+03  0.26979804837E+03  0.15294330000E+03 0.  0.
<mgrwt>
<rscale>  0 0.50702355E+03</rscale>
<asrwt>0</asrwt>
<pdfrwt beam="1">  1        2 0.26816665E+00 0.67555010E+03</pdfrwt>
<pdfrwt beam="2">  1       -2 0.43741857E-01 0.67555010E+03</pdfrwt>
<totfact> 0.47601286E+01</totfact>
</mgrwt>
</event>
<event>
 4    1  0.3565372E-007  0.9175709E+03  0.7818608E-02  0.9498394E-01
         -2   -1    0    0    0  501 -0.00000000000E+00  0.00000000000E+00  0.80631473313E+03  0.80631473313E+03  0.25500000000E-02 0.  1.
          2   -1    0    0  501    0  0.00000000000E+00 -0.00000000000E+00 -0.11706519895E+04  0.11706519895E+04  0.25500000000E-02 0. -1.
    8880023    1    1    2    0    0  0.42962437629E+03 -0.47280979908E+03  0.37207820567E+03  0.99014070121E+03  0.65864270000E+03 0.  1.
    8880022    1    1    2    0    0 -0.42962437629E+03  0.47280979908E+03 -0.73641546204E+03  0.98682602142E+03  0.15294330000E+03 0.  0.
<mgrwt>
<rscale>  0 0.84402359E+03</rscale>
<asrwt>0</asrwt>
<pdfrwt beam="1">  1        2 0.18010031E+00 0.91757093E+03</pdfrwt>
<pdfrwt beam="2">  1       -2 0.12404842E+00 0.91757093E+03</pdfrwt>
<totfact> 0.96452214E+00</totfact>
</mgrwt>
</event>
<event>
 4    1  0.3565372E-007  0.8020776E+03  0.7818608E-02  0.9706322E-01
         -2   -1    0    0    0  501 -0.00000000000E+00  0.00000000000E+00  0.20990799066E+03  0.20990799067E+03  0.25500000000E-02 0.  1.
          2   -1    0    0  501    0  0.00000000000E+00 -0.00000000000E+00 -0.20355233764E+04  0.20355233764E+04  0.25500000000E-02 0. -1.
    8880023    1    1    2    0    0  0.34289845316E+03  0.30321428665E+03 -0.93029078973E+03  0.12283197517E+04  0.65864270000E+03 0.  1.
    8880022    1    1    2    0    0 -0.34289845316E+03 -0.30321428665E+03 -0.89532459603E+03  0.10171116153E+04  0.15294330000E+03 0. -1.
<mgrwt>
<rscale>  0 0.70641641E+03</rscale>
<asrwt>0</asrwt>
<pdfrwt beam="1">  1        2 0.31315743E+00 0.80207759E+03</pdfrwt>
<pdfrwt beam="2">  1       -2 0.32293538E-01 0.80207759E+03</pdfrwt>
<totfact> 0.58334859E+01</totfact>
</mgrwt>
</event>
<event>
 4    1  0.3565372E-007  0.7966236E+03  0.7818608E-02  0.9718145E-01
         -2   -1    0    0    0  501 -0.00000000000E+00  0.00000000000E+00  0.17834826125E+04  0.17834826125E+04  0.25500000000E-02 0.  1.
          2   -1    0    0  501    0  0.00000000000E+00 -0.00000000000E+00 -0.29477129281E+03  0.29477129282E+03  0.25500000000E-02 0. -1.
    8880023    1    1    2    0    0  0.42734395614E+03 -0.13481864830E+03  0.40079304843E+03  0.89176465433E+03  0.65864270000E+03 0. -1.
    8880022    1    1    2    0    0 -0.42734395614E+03  0.13481864830E+03  0.10879182713E+04  0.11864892510E+04  0.15294330000E+03 0.  0.
<mgrwt>
<rscale>  0 0.69946669E+03</rscale>
<asrwt>0</asrwt>
<pdfrwt beam="1">  1        2 0.45349431E-01 0.79662358E+03</pdfrwt>
<pdfrwt beam="2">  1       -2 0.27438193E+00 0.79662358E+03</pdfrwt>
<totfact> 0.52414301E+00</totfact>
</mgrwt>
</event>
<event>
 4    1  0.3565372E-007  0.6640619E+03  0.7818608E-02  0.1020334E+00
          2   -1    0    0  501    0  0.00000000000E+00  0.00000000000E+00  0.21576714396E+04  0.21576714396E+04  0.25500000000E-02 0. -1.
         -2   -1    0    0    0  501 -0.00000000000E+00 -0.00000000000E+00 -0.88124484884E+02  0.88124484921E+02  0.25500000000E-02 0.  1.
    8880023    1    1    2    0    0  0.60191362050E+02 -0.59540223938E+02  0.18473217448E+04  0.19630526925E+04  0.65864270000E+03 0.  0.
    8880022    1    1    2    0    0 -0.60191362050E+02  0.59540223938E+02  0.22222520989E+03  0.28274323203E+03  0.15294330000E+03 0.  0.
<mgrwt>
<rscale>  0 0.47566375E+03</rscale>
<asrwt>0</asrwt>
<pdfrwt beam="1">  1        2 0.33194944E+00 0.66406193E+03</pdfrwt>
<pdfrwt beam="2">  1       -2 0.13557613E-01 0.66406193E+03</pdfrwt>
<totfact> 0.23477404E+02</totfact>
</mgrwt>
</event>
<event>
 4    1  0.3565372E-007  0.1285892E+04  0.7818608E-02  0.9077840E-01
          2   -1    0    0  501    0  0.00000000000E+00  0.00000000000E+00  0.20095240533E+04  0.20095240533E+04  0.25500000000E-02 0. -1.
         -2   -1    0    0    0  501 -0.00000000000E+00 -0.00000000000E+00 -0.88607869399E+03  0.88607869399E+03  0.25500000000E-02 0.  1.
    8880023    1    1    2    0    0 -0.33444443409E+03  0.10525467372E+04 -0.36885288039E+02  0.12864207881E+04  0.65864270000E+03 0.  0.
    8880022    1    1    2    0    0  0.33444443409E+03 -0.10525467372E+04  0.11603306473E+04  0.16091819591E+04  0.15294330000E+03 0.  0.
<mgrwt>
<rscale>  0 0.12408422E+04</rscale>
<asrwt>0</asrwt>
<pdfrwt beam="1">  1        2 0.30915755E+00 0.12858919E+04</pdfrwt>
<pdfrwt beam="2">  1       -2 0.13631980E+00 0.12858919E+04</pdfrwt>
<totfact> 0.24528750E+00</totfact>
</mgrwt>
</event>
<event>
 4    1  0.3565372E-007  0.1203320E+04  0.7818608E-02  0.9153902E-01
         -2   -1    0    0    0  501 -0.00000000000E+00  0.00000000000E+00  0.17467983635E+04  0.17467983635E+04  0.25500000000E-02 0.  1.
          2   -1    0    0  501    0  0.00000000000E+00 -0.00000000000E+00 -0.96246508727E+03  0.96246508727E+03  0.25500000000E-02 0. -1.
    8880023    1    1    2    0    0  0.84081626620E+03 -0.55425328049E+03 -0.28061118793E+03  0.12356057371E+04  0.65864270000E+03 0.  0.
    8880022    1    1    2    0    0 -0.84081626620E+03  0.55425328049E+03  0.10649444642E+04  0.14736577137E+04  0.15294330000E+03 0.  0.
<mgrwt>
<rscale>  0 0.11542171E+04</rscale>
<asrwt>0</asrwt>
<pdfrwt beam="1">  1        2 0.14807155E+00 0.12033199E+04</pdfrwt>
<pdfrwt beam="2">  1       -2 0.26873821E+00 0.12033199E+04</pdfrwt>
<totfact> 0.12822755E+00</totfact>
</mgrwt>
</event>
<event>
 4    1  0.3565372E-007  0.6792055E+03  0.7818608E-02  0.1009777E+00
          2   -1    0    0  501    0  0.00000000000E+00  0.00000000000E+00  0.11745280037E+04  0.11745280037E+04  0.25500000000E-02 0. -1.
         -2   -1    0    0    0  501 -0.00000000000E+00 -0.00000000000E+00 -0.33728727477E+03  0.33728727478E+03  0.25500000000E-02 0.  1.
    8880023    1    1    2    0    0  0.16572362930E+03  0.67502729362E+01  0.10172709911E+04  0.12231763418E+04  0.65864270000E+03 0.  0.
    8880022    1    1    2    0    0 -0.16572362930E+03 -0.67502729362E+01 -0.18003026215E+03  0.28863893673E+03  0.15294330000E+03 0.  0.
<mgrwt>
<rscale>  0 0.51563484E+03</rscale>
<asrwt>0</asrwt>
<pdfrwt beam="1">  1        2 0.18069662E+00 0.67920549E+03</pdfrwt>
<pdfrwt beam="2">  1       -2 0.51890349E-01 0.67920549E+03</pdfrwt>
<totfact> 0.70388234E+01</totfact>
</mgrwt>
</event>
<event>
 4    1  0.3565372E-007  0.1150234E+04  0.7818608E-02  0.9207085E-01
          2   -1    0    0  501    0  0.00000000000E+00  0.00000000000E+00  0.37855357090E+04  0.37855357090E+04  0.25500000000E-02 0. -1.
         -2   -1    0    0    0  501 -0.00000000000E+00 -0.00000000000E+00 -0.47907696471E+03  0.47907696472E+03  0.25500000000E-02 0.  1.
    8880023    1    1    2    0    0 -0.67695815495E+02  0.94055633836E+03  0.42056331023E+03  0.12247092117E+04  0.65864270000E+03 0.  0.
    8880022    1    1    2    0    0  0.67695815495E+02 -0.94055633836E+03  0.28858954341E+04  0.30399034620E+04  0.15294330000E+03 0.  0.
<mgrwt>
<rscale>  0 0.10980599E+04</rscale>
<asrwt>0</asrwt>
<pdfrwt beam="1">  1        2 0.58239009E+00 0.11502344E+04</pdfrwt>
<pdfrwt beam="2">  1       -2 0.73704151E-01 0.11502344E+04</pdfrwt>
<totfact> 0.85210136E-01</totfact>
</mgrwt>
</event>
<event>
 4    1  0.3565372E-007  0.7108627E+03  0.7818608E-02  0.9954811E-01
          2   -1    0    0  501    0  0.00000000000E+00  0.00000000000E+00  0.57163735842E+03  0.57163735843E+03  0.25500000000E-02 0. -1.
         -2   -1    0    0    0  501 -0.00000000000E+00 -0.00000000000E+00 -0.48246196674E+03  0.48246196675E+03  0.25500000000E-02 0.  1.
    8880023    1    1    2    0    0 -0.21629724933E+03  0.15726135848E+03  0.17928185217E+03  0.73312197056E+03  0.65864270000E+03 0. -1.
    8880022    1    1    2    0    0  0.21629724933E+03 -0.15726135848E+03 -0.90106460490E+02  0.32097735462E+03  0.15294330000E+03 0.  0.
<mgrwt>
<rscale>  0 0.57676880E+03</rscale>
<asrwt>0</asrwt>
<pdfrwt beam="1">  1        2 0.87944209E-01 0.71086274E+03</pdfrwt>
<pdfrwt beam="2">  1       -2 0.74224918E-01 0.71086274E+03</pdfrwt>
<totfact> 0.87106567E+01</totfact>
</mgrwt>
</event>
<event>
 4    1  0.3565372E-007  0.8414121E+03  0.7818608E-02  0.9627523E-01
          2   -1    0    0  501    0  0.00000000000E+00  0.00000000000E+00  0.39332020856E+03  0.39332020857E+03  0.25500000000E-02 0. -1.
         -2   -1    0    0    0  501 -0.00000000000E+00 -0.00000000000E+00 -0.12245854598E+04  0.12245854598E+04  0.25500000000E-02 0.  1.
    8880023    1    1    2    0    0 -0.12717101253E+03  0.50792875476E+03 -0.53602223115E+03  0.99764428776E+03  0.65864270000E+03 0.  1.
    8880022    1    1    2    0    0  0.12717101253E+03 -0.50792875476E+03 -0.29524302006E+03  0.62026138058E+03  0.15294330000E+03 0. -1.
<mgrwt>
<rscale>  0 0.75500982E+03</rscale>
<asrwt>0</asrwt>
<pdfrwt beam="1">  1        2 0.60510802E-01 0.84141208E+03</pdfrwt>
<pdfrwt beam="2">  1       -2 0.18839776E+00 0.84141208E+03</pdfrwt>
<totfact> 0.12987071E+01</totfact>
</mgrwt>
</event>
<event>
 4    1  0.3565372E-007  0.1240377E+04  0.7818608E-02  0.9118838E-01
         -2   -1    0    0    0  501 -0.00000000000E+00  0.00000000000E+00  0.66927857951E+03  0.66927857951E+03  0.25500000000E-02 0.  1.
          2   -1    0    0  501    0  0.00000000000E+00 -0.00000000000E+00 -0.21542940657E+04  0.21542940657E+04  0.25500000000E-02 0. -1.
    8880023    1    1    2    0    0 -0.90654371557E+03 -0.53188714401E+03 -0.11954426008E+04  0.17226777587E+04  0.65864270000E+03 0.  0.
    8880022    1    1    2    0    0  0.90654371557E+03  0.53188714401E+03 -0.28957288538E+03  0.11008948865E+04  0.15294330000E+03 0.  0.
<mgrwt>
<rscale>  0 0.11931900E+04</rscale>
<asrwt>0</asrwt>
<pdfrwt beam="1">  1        2 0.33142985E+00 0.12403772E+04</pdfrwt>
<pdfrwt beam="2">  1       -2 0.10296594E+00 0.12403772E+04</pdfrwt>
<totfact> 0.41170229E+00</totfact>
</mgrwt>
</event>
<event>
 4    1  0.3565372E-007  0.9676578E+03  0.7818608E-02  0.9425151E-01
          2   -1    0    0  501    0  0.00000000000E+00  0.00000000000E+00  0.16622402997E+04  0.16622402997E+04  0.25500000000E-02 0. -1.
         -2   -1    0    0    0  501 -0.00000000000E+00 -0.00000000000E+00 -0.84502542745E+03  0.84502542745E+03  0.25500000000E-02 0.  1.
    8880023    1    1    2    0    0  0.33739989293E+03 -0.62346829236E+03 -0.43442608065E+03  0.10607014779E+04  0.65864270000E+03 0.  1.
    8880022    1    1    2    0    0 -0.33739989293E+03  0.62346829236E+03  0.12516409529E+04  0.14465642493E+04  0.15294330000E+03 0.  0.
<mgrwt>
<rscale>  0 0.90034445E+03</rscale>
<asrwt>0</asrwt>
<pdfrwt beam="1">  1        2 0.25572927E+00 0.96765779E+03</pdfrwt>
<pdfrwt beam="2">  1       -2 0.13000391E+00 0.96765779E+03</pdfrwt>
<totfact> 0.44637495E+00</totfact>
</mgrwt>
</event>
<event>
 4    1  0.3565372E-007  0.7671026E+03  0.7818608E-02  0.9787055E-01
          2   -1    0    0  501    0  0.00000000000E+00  0.00000000000E+00  0.18543754901E+04  0.18543754901E+04  0.25500000000E-02 0. -1.
         -2   -1    0    0    0  501 -0.00000000000E+00 -0.00000000000E+00 -0.70920270642E+03  0.70920270642E+03  0.25500000000E-02 0.  1.
    8880023    1    1    2    0    0  0.32853104198E+03 -0.21611001521E+03  0.17008675100E+04  0.18658501218E+04  0.65864270000E+03 0. -1.
    8880022    1    1    2    0    0 -0.32853104198E+03  0.21611001521E+03 -0.55569472638E+03  0.69772807465E+03  0.15294330000E+03 0.  0.
<mgrwt>
<rscale>  0 0.66061903E+03</rscale>
<asrwt>0</asrwt>
<pdfrwt beam="1">  1        2 0.28528853E+00 0.76710259E+03</pdfrwt>
<pdfrwt beam="2">  1       -2 0.10910811E+00 0.76710259E+03</pdfrwt>
<totfact> 0.55547371E+00</totfact>
</mgrwt>
</event>
<event>
 4    1  0.3565372E-007  0.6931967E+03  0.7818608E-02  0.1002669E+00
         -2   -1    0    0    0  501 -0.00000000000E+00  0.00000000000E+00  0.30773041212E+03  0.30773041213E+03  0.25500000000E-02 0.  1.
          2   -1    0    0  501    0  0.00000000000E+00 -0.00000000000E+00 -0.15314247106E+04  0.15314247106E+04  0.25500000000E-02 0. -1.
    8880023    1    1    2    0    0  0.11355720049E+03 -0.18389191256E+03 -0.13709161535E+04  0.15362072710E+04  0.65864270000E+03 0.  0.
    8880022    1    1    2    0    0 -0.11355720049E+03  0.18389191256E+03  0.14722185499E+03  0.30294785176E+03  0.15294330000E+03 0.  0.
<mgrwt>
<rscale>  0 0.54495362E+03</rscale>
<asrwt>0</asrwt>
<pdfrwt beam="1">  1        2 0.23560380E+00 0.69319671E+03</pdfrwt>
<pdfrwt beam="2">  1       -2 0.47343141E-01 0.69319671E+03</pdfrwt>
<totfact> 0.52984973E+01</totfact>
</mgrwt>
</event>
<event>
 4    1  0.3565372E-007  0.7321273E+03  0.7818608E-02  0.9883503E-01
          2   -1    0    0  501    0  0.00000000000E+00  0.00000000000E+00  0.70523741997E+03  0.70523741998E+03  0.25500000000E-02 0. -1.
         -2   -1    0    0    0  501 -0.00000000000E+00 -0.00000000000E+00 -0.11512466199E+04  0.11512466200E+04  0.25500000000E-02 0.  1.
    8880023    1    1    2    0    0 -0.31754095442E+03  0.36984523919E+02  0.47291993979E+03  0.87158682210E+03  0.65864270000E+03 0. -1.
    8880022    1    1    2    0    0  0.31754095442E+03 -0.36984523919E+02 -0.91892913977E+03  0.98489721782E+03  0.15294330000E+03 0.  0.
<mgrwt>
<rscale>  0 0.61067491E+03</rscale>
<asrwt>0</asrwt>
<pdfrwt beam="1">  1        2 0.10849806E+00 0.73212726E+03</pdfrwt>
<pdfrwt beam="2">  1       -2 0.17711486E+00 0.73212726E+03</pdfrwt>
<totfact> 0.78613572E+00</totfact>
</mgrwt>
</event>
<event>
 4    1  0.3565372E-007  0.6991057E+03  0.7818608E-02  0.1000093E+00
          2   -1    0    0  501    0  0.00000000000E+00  0.00000000000E+00  0.21186433532E+04  0.21186433532E+04  0.25500000000E-02 0. -1.
         -2   -1    0    0    0  501 -0.00000000000E+00 -0.00000000000E+00 -0.11451816353E+03  0.11451816356E+03  0.25500000000E-02 0.  1.
    8880023    1    1    2    0    0  0.20121448881E+03  0.12021368985E+03  0.15386026997E+04  0.16899843418E+04  0.65864270000E+03 0. -1.
    8880022    1    1    2    0    0 -0.20121448881E+03 -0.12021368985E+03  0.46552249002E+03  0.54317717502E+03  0.15294330000E+03 0. -1.
<mgrwt>
<rscale>  0 0.55609416E+03</rscale>
<asrwt>0</asrwt>
<pdfrwt beam="1">  1        2 0.32594515E+00 0.69910572E+03</pdfrwt>
<pdfrwt beam="2">  1       -2 0.17618178E-01 0.69910572E+03</pdfrwt>
<totfact> 0.15762434E+02</totfact>
</mgrwt>
</event>
<event>
 4    1  0.3565372E-007  0.7485047E+03  0.7818608E-02  0.9835832E-01
         -2   -1    0    0    0  501 -0.00000000000E+00  0.00000000000E+00  0.25455211254E+03  0.25455211255E+03  0.25500000000E-02 0.  1.
          2   -1    0    0  501    0  0.00000000000E+00 -0.00000000000E+00 -0.12790666335E+04  0.12790666335E+04  0.25500000000E-02 0. -1.
    8880023    1    1    2    0    0  0.26300294271E+03  0.23932944223E+03 -0.60165144426E+03  0.96033525211E+03  0.65864270000E+03 0.  1.
    8880022    1    1    2    0    0 -0.26300294271E+03 -0.23932944223E+03 -0.42286307670E+03  0.57328349396E+03  0.15294330000E+03 0. -1.
<mgrwt>
<rscale>  0 0.63474555E+03</rscale>
<asrwt>0</asrwt>
<pdfrwt beam="1">  1        2 0.19677948E+00 0.74850473E+03</pdfrwt>
<pdfrwt beam="2">  1       -2 0.39161864E-01 0.74850473E+03</pdfrwt>
<totfact> 0.10646351E+02</totfact>
</mgrwt>
</event>
<event>
 4    1  0.3565372E-007  0.7659282E+03  0.7818608E-02  0.9789995E-01
          2   -1    0    0  501    0  0.00000000000E+00  0.00000000000E+00  0.24530819426E+04  0.24530819426E+04  0.25500000000E-02 0. -1.
         -2   -1    0    0    0  501 -0.00000000000E+00 -0.00000000000E+00 -0.17064803424E+03  0.17064803426E+03  0.25500000000E-02 0.  1.
    8880023    1    1    2    0    0  0.12131277366E+03  0.37164359070E+03  0.19271297221E+04  0.20737586455E+04  0.65864270000E+03 0.  0.
    8880022    1    1    2    0    0 -0.12131277366E+03 -0.37164359070E+03  0.35530418625E+03  0.54997133138E+03  0.15294330000E+03 0.  0.
<mgrwt>
<rscale>  0 0.65902245E+03</rscale>
<asrwt>0</asrwt>
<pdfrwt beam="1">  1        2 0.37739719E+00 0.76592816E+03</pdfrwt>
<pdfrwt beam="2">  1       -2 0.26253546E-01 0.76592816E+03</pdfrwt>
<totfact> 0.50411085E+01</totfact>
</mgrwt>
</event>
<event>
 4    1  0.3565372E-007  0.6812600E+03  0.7818608E-02  0.1008620E+00
          2   -1    0    0  501    0  0.00000000000E+00  0.00000000000E+00  0.13863398850E+03  0.13863398853E+03  0.25500000000E-02 0. -1.
         -2   -1    0    0    0  501 -0.00000000000E+00 -0.00000000000E+00 -0.16139265159E+04  0.16139265159E+04  0.25500000000E-02 0.  1.
    8880023    1    1    2    0    0 -0.17405545950E+03 -0.31141735480E+01 -0.87390022001E+03  0.11080689518E+04  0.65864270000E+03 0. -1.
    8880022    1    1    2    0    0  0.17405545950E+03  0.31141735480E+01 -0.60139230734E+03  0.64449155262E+03  0.15294330000E+03 0.  0.
<mgrwt>
<rscale>  0 0.52026915E+03</rscale>
<asrwt>0</asrwt>
<pdfrwt beam="1">  1        2 0.21328307E-01 0.68126001E+03</pdfrwt>
<pdfrwt beam="2">  1       -2 0.24829637E+00 0.68126001E+03</pdfrwt>
<totfact> 0.17909555E+01</totfact>
</mgrwt>
</event>
<event>
 4    1  0.3565372E-007  0.8088626E+03  0.7818608E-02  0.9691951E-01
          2   -1    0    0  501    0  0.00000000000E+00  0.00000000000E+00  0.23977078796E+04  0.23977078796E+04  0.25500000000E-02 0. -1.
         -2   -1    0    0    0  501 -0.00000000000E+00 -0.00000000000E+00 -0.44621482501E+03  0.44621482501E+03  0.25500000000E-02 0.  1.
    8880023    1    1    2    0    0 -0.29263865908E+03  0.36716628113E+03  0.21610727512E+04  0.23074865341E+04  0.65864270000E+03 0.  0.
    8880022    1    1    2    0    0  0.29263865908E+03 -0.36716628113E+03 -0.20957969662E+03  0.53643617051E+03  0.15294330000E+03 0.  0.
<mgrwt>
<rscale>  0 0.71498051E+03</rscale>
<asrwt>0</asrwt>
<pdfrwt beam="1">  1        2 0.36887813E+00 0.80886258E+03</pdfrwt>
<pdfrwt beam="2">  1       -2 0.68648435E-01 0.80886258E+03</pdfrwt>
<totfact> 0.80154673E+00</totfact>
</mgrwt>
</event>
<event>
 4    1  0.3565372E-007  0.7822059E+03  0.7818608E-02  0.9750681E-01
         -2   -1    0    0    0  501 -0.00000000000E+00  0.00000000000E+00  0.56937572005E+03  0.56937572006E+03  0.25500000000E-02 0.  1.
          2   -1    0    0  501    0  0.00000000000E+00 -0.00000000000E+00 -0.10319318256E+04  0.10319318256E+04  0.25500000000E-02 0. -1.
    8880023    1    1    2    0    0  0.19314621743E+03 -0.37514053963E+03 -0.73743364720E+03  0.10750137097E+04  0.65864270000E+03 0.  0.
    8880022    1    1    2    0    0 -0.19314621743E+03  0.37514053963E+03  0.27487754169E+03  0.52629383591E+03  0.15294330000E+03 0.  0.
<mgrwt>
<rscale>  0 0.68077826E+03</rscale>
<asrwt>0</asrwt>
<pdfrwt beam="1">  1        2 0.15875874E+00 0.78220591E+03</pdfrwt>
<pdfrwt beam="2">  1       -2 0.87596265E-01 0.78220591E+03</pdfrwt>
<totfact> 0.27393608E+01</totfact>
</mgrwt>
</event>
<event>
 4    1  0.3565372E-007  0.1236063E+04  0.7818608E-02  0.9122840E-01
         -2   -1    0    0    0  501 -0.00000000000E+00  0.00000000000E+00  0.94245763544E+03  0.94245763545E+03  0.25500000000E-02 0.  1.
          2   -1    0    0  501    0  0.00000000000E+00 -0.00000000000E+00 -0.25547166413E+04  0.25547166413E+04  0.25500000000E-02 0. -1.
    8880023    1    1    2    0    0 -0.95868207342E+03  0.41829354785E+03 -0.20166991348E+04  0.23653596802E+04  0.65864270000E+03 0.  0.
    8880022    1    1    2    0    0  0.95868207342E+03 -0.41829354785E+03  0.40444012895E+03  0.11318145966E+04  0.15294330000E+03 0.  0.
<mgrwt>
<rscale>  0 0.11886611E+04</rscale>
<asrwt>0</asrwt>
<pdfrwt beam="1">  1        2 0.39303333E+00 0.12360627E+04</pdfrwt>
<pdfrwt beam="2">  1       -2 0.14499348E+00 0.12360627E+04</pdfrwt>
<totfact> 0.10329195E+00</totfact>
</mgrwt>
</event>
<event>
 4    1  0.3565372E-007  0.6712394E+03  0.7818608E-02  0.1014790E+00
          2   -1    0    0  501    0  0.00000000000E+00  0.00000000000E+00  0.27750878714E+04  0.27750878714E+04  0.25500000000E-02 0. -1.
         -2   -1    0    0    0  501 -0.00000000000E+00 -0.00000000000E+00 -0.24028997229E+03  0.24028997231E+03  0.25500000000E-02 0.  1.
    8880023    1    1    2    0    0 -0.48237432321E+02 -0.12010505727E+03  0.26833016101E+04  0.27659844200E+04  0.65864270000E+03 0. -1.
    8880022    1    1    2    0    0  0.48237432321E+02  0.12010505727E+03 -0.14850371091E+03  0.24939342379E+03  0.15294330000E+03 0.  0.
<mgrwt>
<rscale>  0 0.49614689E+03</rscale>
<asrwt>0</asrwt>
<pdfrwt beam="1">  1        2 0.42693660E+00 0.67123936E+03</pdfrwt>
<pdfrwt beam="2">  1       -2 0.36967688E-01 0.67123936E+03</pdfrwt>
<totfact> 0.17630885E+01</totfact>
</mgrwt>
</event>
<event>
 4    1  0.3565372E-007  0.7241641E+03  0.7818608E-02  0.9908740E-01
         -2   -1    0    0    0  501 -0.00000000000E+00  0.00000000000E+00  0.27279093266E+03  0.27279093267E+03  0.25500000000E-02 0.  1.
          2   -1    0    0  501    0  0.00000000000E+00 -0.00000000000E+00 -0.11595899196E+04  0.11595899196E+04  0.25500000000E-02 0. -1.
    8880023    1    1    2    0    0  0.19603609777E+03  0.22841477220E+03 -0.36519020088E+03  0.81103486292E+03  0.65864270000E+03 0.  1.
    8880022    1    1    2    0    0 -0.19603609777E+03 -0.22841477220E+03 -0.52160878605E+03  0.62134598935E+03  0.15294330000E+03 0. -1.
<mgrwt>
<rscale>  0 0.59839579E+03</rscale>
<asrwt>0</asrwt>
<pdfrwt beam="1">  1        2 0.17839845E+00 0.72416412E+03</pdfrwt>
<pdfrwt beam="2">  1       -2 0.41967836E-01 0.72416412E+03</pdfrwt>
<totfact> 0.10955355E+02</totfact>
</mgrwt>
</event>
<event>
 4    1  0.3565372E-007  0.8553167E+03  0.7818608E-02  0.9601949E-01
          2   -1    0    0  501    0  0.00000000000E+00  0.00000000000E+00  0.35180971507E+04  0.35180971507E+04  0.25500000000E-02 0. -1.
         -2   -1    0    0    0  501 -0.00000000000E+00 -0.00000000000E+00 -0.68617415485E+03  0.68617415486E+03  0.25500000000E-02 0.  1.
    8880023    1    1    2    0    0 -0.21930686338E+03 -0.49966091333E+03  0.33371764991E+04  0.34450419041E+04  0.65864270000E+03 0. -1.
    8880022    1    1    2    0    0  0.21930686338E+03  0.49966091333E+03 -0.50525350318E+03  0.75922940152E+03  0.15294330000E+03 0.  0.
<mgrwt>
<rscale>  0 0.77167319E+03</rscale>
<asrwt>0</asrwt>
<pdfrwt beam="1">  1        2 0.54124572E+00 0.85531675E+03</pdfrwt>
<pdfrwt beam="2">  1       -2 0.10556525E+00 0.85531675E+03</pdfrwt>
<totfact> 0.60933785E-01</totfact>
</mgrwt>
</event>
<event>
 4    1  0.3565372E-007  0.6781079E+03  0.7818608E-02  0.1010415E+00
          2   -1    0    0  501    0  0.00000000000E+00  0.00000000000E+00  0.39976808562E+03  0.39976808563E+03  0.25500000000E-02 0. -1.
         -2   -1    0    0    0  501 -0.00000000000E+00 -0.00000000000E+00 -0.70120533358E+03  0.70120533359E+03  0.25500000000E-02 0.  1.
    8880023    1    1    2    0    0 -0.27983519374E+02  0.15886173363E+03  0.55610872053E+02  0.68038437895E+03  0.65864270000E+03 0. -1.
    8880022    1    1    2    0    0  0.27983519374E+02 -0.15886173363E+03 -0.35704812001E+03  0.42058904026E+03  0.15294330000E+03 0.  0.
<mgrwt>
<rscale>  0 0.51310107E+03</rscale>
<asrwt>0</asrwt>
<pdfrwt beam="1">  1        2 0.61502783E-01 0.67810791E+03</pdfrwt>
<pdfrwt beam="2">  1       -2 0.10787774E+00 0.67810791E+03</pdfrwt>
<totfact> 0.55663591E+01</totfact>
</mgrwt>
</event>
<event>
 4    1  0.3565372E-007  0.8523734E+03  0.7818608E-02  0.9607276E-01
          2   -1    0    0  501    0  0.00000000000E+00  0.00000000000E+00  0.28649846254E+04  0.28649846254E+04  0.25500000000E-02 0. -1.
         -2   -1    0    0    0  501 -0.00000000000E+00 -0.00000000000E+00 -0.28412491834E+03  0.28412491835E+03  0.25500000000E-02 0.  1.
    8880023    1    1    2    0    0 -0.54052077861E+03 -0.23821483170E+02  0.24178687715E+04  0.25637140593E+04  0.65864270000E+03 0.  0.
    8880022    1    1    2    0    0  0.54052077861E+03  0.23821483170E+02  0.16299093555E+03  0.58539548448E+03  0.15294330000E+03 0.  0.
<mgrwt>
<rscale>  0 0.76816448E+03</rscale>
<asrwt>0</asrwt>
<pdfrwt beam="1">  1        2 0.44076687E+00 0.85237338E+03</pdfrwt>
<pdfrwt beam="2">  1       -2 0.43711525E-01 0.85237338E+03</pdfrwt>
<totfact> 0.10907868E+01</totfact>
</mgrwt>
</event>
<event>
 4    1  0.3565372E-007  0.7729699E+03  0.7818608E-02  0.9772618E-01
          2   -1    0    0  501    0  0.00000000000E+00  0.00000000000E+00  0.14233517312E+04  0.14233517312E+04  0.25500000000E-02 0. -1.
         -2   -1    0    0    0  501 -0.00000000000E+00 -0.00000000000E+00 -0.39490496947E+03  0.39490496948E+03  0.25500000000E-02 0.  1.
    8880023    1    1    2    0    0  0.40454305830E+03  0.41524407735E+01  0.11346293617E+04  0.13729043388E+04  0.65864270000E+03 0.  0.
    8880022    1    1    2    0    0 -0.40454305830E+03 -0.41524407735E+01 -0.10618259987E+03  0.44535236197E+03  0.15294330000E+03 0.  0.
<mgrwt>
<rscale>  0 0.66852973E+03</rscale>
<asrwt>0</asrwt>
<pdfrwt beam="1">  1        2 0.21897719E+00 0.77296994E+03</pdfrwt>
<pdfrwt beam="2">  1       -2 0.60754611E-01 0.77296994E+03</pdfrwt>
<totfact> 0.36068855E+01</totfact>
</mgrwt>
</event>
<event>
 4    1  0.3565372E-007  0.7565747E+03  0.7818608E-02  0.9814057E-01
         -2   -1    0    0    0  501 -0.00000000000E+00  0.00000000000E+00  0.39187808723E+03  0.39187808724E+03  0.25500000000E-02 0.  1.
          2   -1    0    0  501    0  0.00000000000E+00 -0.00000000000E+00 -0.85836547668E+03  0.85836547668E+03  0.25500000000E-02 0. -1.
    8880023    1    1    2    0    0 -0.19504548217E+03 -0.31709990576E+03 -0.28087010661E+03  0.80702745517E+03  0.65864270000E+03 0.  0.
    8880022    1    1    2    0    0  0.19504548217E+03  0.31709990576E+03 -0.18561728284E+03  0.44321610875E+03  0.15294330000E+03 0.  1.
<mgrwt>
<rscale>  0 0.64613579E+03</rscale>
<asrwt>0</asrwt>
<pdfrwt beam="1">  1        2 0.13205623E+00 0.75657471E+03</pdfrwt>
<pdfrwt beam="2">  1       -2 0.60288937E-01 0.75657471E+03</pdfrwt>
<totfact> 0.81307851E+01</totfact>
</mgrwt>
</event>
<event>
 4    1  0.3565372E-007  0.7326934E+03  0.7818608E-02  0.9881766E-01
         -2   -1    0    0    0  501 -0.00000000000E+00  0.00000000000E+00  0.17816876431E+03  0.17816876433E+03  0.25500000000E-02 0.  1.
          2   -1    0    0  501    0  0.00000000000E+00 -0.00000000000E+00 -0.20281795464E+04  0.20281795464E+04  0.25500000000E-02 0. -1.
    8880023    1    1    2    0    0  0.18822505319E+03  0.26000137274E+03 -0.16328899863E+04  0.17897400085E+04  0.65864270000E+03 0.  0.
    8880022    1    1    2    0    0 -0.18822505319E+03 -0.26000137274E+03 -0.21712079577E+03  0.41660830218E+03  0.15294330000E+03 0.  0.
<mgrwt>
<rscale>  0 0.61153190E+03</rscale>
<asrwt>0</asrwt>
<pdfrwt beam="1">  1        2 0.31202761E+00 0.73269338E+03</pdfrwt>
<pdfrwt beam="2">  1       -2 0.27410581E-01 0.73269338E+03</pdfrwt>
<totfact> 0.80414056E+01</totfact>
</mgrwt>
</event>
<event>
 4    1  0.3565372E-007  0.6889778E+03  0.7818608E-02  0.1004642E+00
         -2   -1    0    0    0  501 -0.00000000000E+00  0.00000000000E+00  0.42778931145E+03  0.42778931146E+03  0.25500000000E-02 0.  1.
          2   -1    0    0  501    0  0.00000000000E+00 -0.00000000000E+00 -0.73366637592E+03  0.73366637593E+03  0.25500000000E-02 0. -1.
    8880023    1    1    2    0    0 -0.18699913034E+03  0.76886524726E+02 -0.49228707825E+03  0.84678036474E+03  0.65864270000E+03 0. -1.
    8880022    1    1    2    0    0  0.18699913034E+03 -0.76886524726E+02  0.18641001378E+03  0.31467532265E+03  0.15294330000E+03 0.  0.
<mgrwt>
<rscale>  0 0.53660725E+03</rscale>
<asrwt>0</asrwt>
<pdfrwt beam="1">  1        2 0.11287175E+00 0.68897781E+03</pdfrwt>
<pdfrwt beam="2">  1       -2 0.65813740E-01 0.68897781E+03</pdfrwt>
<totfact> 0.83378098E+01</totfact>
</mgrwt>
</event>
<event>
 4    1  0.3565372E-007  0.6681551E+03  0.7818608E-02  0.1017021E+00
          2   -1    0    0  501    0  0.00000000000E+00  0.00000000000E+00  0.14759063297E+04  0.14759063297E+04  0.25500000000E-02 0. -1.
         -2   -1    0    0    0  501 -0.00000000000E+00 -0.00000000000E+00 -0.11109029999E+04  0.11109029999E+04  0.25500000000E-02 0.  1.
    8880023    1    1    2    0    0  0.97429618989E+02  0.55932943205E+02  0.13911379777E+04  0.15432744746E+04  0.65864270000E+03 0. -1.
    8880022    1    1    2    0    0 -0.97429618989E+02 -0.55932943205E+02 -0.10261346480E+04  0.10435348550E+04  0.15294330000E+03 0.  0.
<mgrwt>
<rscale>  0 0.48776978E+03</rscale>
<asrwt>0</asrwt>
<pdfrwt beam="1">  1        2 0.22706251E+00 0.66815510E+03</pdfrwt>
<pdfrwt beam="2">  1       -2 0.17090815E+00 0.66815510E+03</pdfrwt>
<totfact> 0.28684002E+00</totfact>
</mgrwt>
</event>
<event>
 4    1  0.3565372E-007  0.7279791E+03  0.7818608E-02  0.9896458E-01
          2   -1    0    0  501    0  0.00000000000E+00  0.00000000000E+00  0.11689396709E+04  0.11689396709E+04  0.25500000000E-02 0. -1.
         -2   -1    0    0    0  501 -0.00000000000E+00 -0.00000000000E+00 -0.34757680091E+03  0.34757680092E+03  0.25500000000E-02 0.  1.
    8880023    1    1    2    0    0 -0.24589562271E+03  0.18888820186E+03  0.90435876883E+03  0.11609558127E+04  0.65864270000E+03 0.  0.
    8880022    1    1    2    0    0  0.24589562271E+03 -0.18888820186E+03 -0.82995898831E+02  0.35556065911E+03  0.15294330000E+03 0.  0.
<mgrwt>
<rscale>  0 0.60433272E+03</rscale>
<asrwt>0</asrwt>
<pdfrwt beam="1">  1        2 0.17983687E+00 0.72797913E+03</pdfrwt>
<pdfrwt beam="2">  1       -2 0.53473354E-01 0.72797913E+03</pdfrwt>
<totfact> 0.66379810E+01</totfact>
</mgrwt>
</event>
<event>
 4    1  0.3565372E-007  0.8110206E+03  0.7818608E-02  0.9687455E-01
         -2   -1    0    0    0  501 -0.00000000000E+00  0.00000000000E+00  0.21693256187E+03  0.21693256188E+03  0.25500000000E-02 0.  1.
          2   -1    0    0  501    0  0.00000000000E+00 -0.00000000000E+00 -0.21144305661E+04  0.21144305661E+04  0.25500000000E-02 0. -1.
    8880023    1    1    2    0    0  0.35988104334E+03  0.30729430844E+03 -0.14545607084E+04  0.16653832045E+04  0.65864270000E+03 0. -1.
    8880022    1    1    2    0    0 -0.35988104334E+03 -0.30729430844E+03 -0.44293729588E+03  0.66597992346E+03  0.15294330000E+03 0.  0.
<mgrwt>
<rscale>  0 0.71768650E+03</rscale>
<asrwt>0</asrwt>
<pdfrwt beam="1">  1        2 0.32529700E+00 0.81102057E+03</pdfrwt>
<pdfrwt beam="2">  1       -2 0.33374242E-01 0.81102057E+03</pdfrwt>
<totfact> 0.49572415E+01</totfact>
</mgrwt>
</event>
<event>
 4    1  0.3860295E-007  0.7046956E+03  0.7818608E-02  0.9978252E-01
         -2   -1    0    0    0  501 -0.00000000000E+00  0.00000000000E+00  0.92740570025E+03  0.92740570026E+03  0.25500000000E-02 0.  1.
          2   -1    0    0  501    0  0.00000000000E+00 -0.00000000000E+00 -0.19154567572E+04  0.19154567572E+04  0.25500000000E-02 0. -1.
    8880023    1    1    2    0    0 -0.22750861106E+03 -0.10500270300E+03 -0.18247841439E+04  0.19561270699E+04  0.65864270000E+03 0. -1.
    8880022    1    1    2    0    0  0.22750861106E+03  0.10500270300E+03  0.83673308692E+03  0.88673538753E+03  0.15294330000E+03 0.  0.
<mgrwt>
<rscale>  0 0.56614197E+03</rscale>
<asrwt>0</asrwt>
<pdfrwt beam="1">  1        2 0.29468565E+00 0.70469564E+03</pdfrwt>
<pdfrwt beam="2">  1       -2 0.14267780E+00 0.70469564E+03</pdfrwt>
<totfact> 0.26568003E+00</totfact>
</mgrwt>
</event>
<event>
 4    1  0.3565372E-007  0.6796842E+03  0.7818608E-02  0.1009503E+00
         -2   -1    0    0    0  501 -0.00000000000E+00  0.00000000000E+00  0.20497631494E+03  0.20497631496E+03  0.25500000000E-02 0.  1.
          2   -1    0    0  501    0  0.00000000000E+00 -0.00000000000E+00 -0.10935673430E+04  0.10935673430E+04  0.25500000000E-02 0. -1.
    8880023    1    1    2    0    0 -0.13552152346E+03  0.98966444165E+02 -0.81200243311E+03  0.10589233202E+04  0.65864270000E+03 0. -1.
    8880022    1    1    2    0    0  0.13552152346E+03 -0.98966444165E+02 -0.76588594963E+02  0.23962033779E+03  0.15294330000E+03 0.  0.
<mgrwt>
<rscale>  0 0.51672703E+03</rscale>
<asrwt>0</asrwt>
<pdfrwt beam="1">  1        2 0.16824112E+00 0.67968423E+03</pdfrwt>
<pdfrwt beam="2">  1       -2 0.31534819E-01 0.67968423E+03</pdfrwt>
<totfact> 0.20835838E+02</totfact>
</mgrwt>
</event>
<event>
 4    1  0.3565372E-007  0.8776768E+03  0.7818608E-02  0.9562862E-01
         -2   -1    0    0    0  501 -0.00000000000E+00  0.00000000000E+00  0.47418454549E+03  0.47418454550E+03  0.25500000000E-02 0.  1.
          2   -1    0    0  501    0  0.00000000000E+00 -0.00000000000E+00 -0.12147142069E+04  0.12147142069E+04  0.25500000000E-02 0. -1.
    8880023    1    1    2    0    0 -0.52253651223E+02  0.57773344764E+03 -0.62625108918E+03  0.10781961851E+04  0.65864270000E+03 0. -1.
    8880022    1    1    2    0    0  0.52253651223E+02 -0.57773344764E+03 -0.11427857219E+03  0.61070256727E+03  0.15294330000E+03 0.  1.
<mgrwt>
<rscale>  0 0.79803769E+03</rscale>
<asrwt>0</asrwt>
<pdfrwt beam="1">  1        2 0.18687911E+00 0.87767681E+03</pdfrwt>
<pdfrwt beam="2">  1       -2 0.72951469E-01 0.87767681E+03</pdfrwt>
<totfact> 0.31715506E+01</totfact>
</mgrwt>
</event>
<event>
 4    1  0.3565372E-007  0.8180245E+03  0.7818608E-02  0.9673098E-01
          2   -1    0    0  501    0  0.00000000000E+00  0.00000000000E+00  0.14635661148E+04  0.14635661148E+04  0.25500000000E-02 0. -1.
         -2   -1    0    0    0  501 -0.00000000000E+00 -0.00000000000E+00 -0.10284284702E+04  0.10284284702E+04  0.25500000000E-02 0.  1.
    8880023    1    1    2    0    0 -0.43731447130E+03  0.21002349135E+03  0.12721971081E+04  0.15124977692E+04  0.65864270000E+03 0. -1.
    8880022    1    1    2    0    0  0.43731447130E+03 -0.21002349135E+03 -0.83705946345E+03  0.97949681576E+03  0.15294330000E+03 0.  0.
<mgrwt>
<rscale>  0 0.72641334E+03</rscale>
<asrwt>0</asrwt>
<pdfrwt beam="1">  1        2 0.22516402E+00 0.81802446E+03</pdfrwt>
<pdfrwt beam="2">  1       -2 0.15821976E+00 0.81802446E+03</pdfrwt>
<totfact> 0.35122635E+00</totfact>
</mgrwt>
</event>
<event>
 4    1  0.3565372E-007  0.1026273E+04  0.7818608E-02  0.9347963E-01
         -2   -1    0    0    0  501 -0.00000000000E+00  0.00000000000E+00  0.27767573055E+03  0.27767573057E+03  0.25500000000E-02 0.  1.
          2   -1    0    0  501    0  0.00000000000E+00 -0.00000000000E+00 -0.33916112116E+04  0.33916112116E+04  0.25500000000E-02 0. -1.
    8880023    1    1    2    0    0  0.26263557277E+03 -0.74192278329E+03 -0.23389576386E+04  0.25542043579E+04  0.65864270000E+03 0. -1.
    8880022    1    1    2    0    0 -0.26263557277E+03  0.74192278329E+03 -0.77497784245E+03  0.11150825843E+04  0.15294330000E+03 0.  1.
<mgrwt>
<rscale>  0 0.96484677E+03</rscale>
<asrwt>0</asrwt>
<pdfrwt beam="1">  1        2 0.52178631E+00 0.10262734E+04</pdfrwt>
<pdfrwt beam="2">  1       -2 0.42719345E-01 0.10262734E+04</pdfrwt>
<totfact> 0.51680044E+00</totfact>
</mgrwt>
</event>
<event>
 4    1  0.4004181E-007  0.7951426E+03  0.7818608E-02  0.9721399E-01
          2   -1    0    0  501    0  0.00000000000E+00  0.00000000000E+00  0.17291708153E+04  0.17291708153E+04  0.25500000000E-02 0. -1.
         -2   -1    0    0    0  501 -0.00000000000E+00 -0.00000000000E+00 -0.13302979458E+04  0.13302979458E+04  0.25500000000E-02 0.  1.
    8880023    1    1    2    0    0 -0.42104174555E+03 -0.14548322403E+03  0.15904742535E+04  0.17781619941E+04  0.65864270000E+03 0. -1.
    8880022    1    1    2    0    0  0.42104174555E+03  0.14548322403E+03 -0.11916013840E+04  0.12813067670E+04  0.15294330000E+03 0.  0.
<mgrwt>
<rscale>  0 0.69756884E+03</rscale>
<asrwt>0</asrwt>
<pdfrwt beam="1">  1        2 0.26602628E+00 0.79514258E+03</pdfrwt>
<pdfrwt beam="2">  1       -2 0.20466122E+00 0.79514258E+03</pdfrwt>
<totfact> 0.12056026E+00</totfact>
</mgrwt>
</event>
<event>
 4    1  0.3565372E-007  0.8970799E+03  0.7818608E-02  0.9530736E-01
         -2   -1    0    0    0  501 -0.00000000000E+00  0.00000000000E+00  0.18789584793E+04  0.18789584793E+04  0.25500000000E-02 0.  1.
          2   -1    0    0  501    0  0.00000000000E+00 -0.00000000000E+00 -0.89255846383E+03  0.89255846383E+03  0.25500000000E-02 0. -1.
    8880023    1    1    2    0    0  0.34302949539E+03 -0.50326232316E+03 -0.59063324006E+03  0.10740577411E+04  0.65864270000E+03 0. -1.
    8880022    1    1    2    0    0 -0.34302949539E+03  0.50326232316E+03  0.15770332555E+04  0.16974592021E+04  0.15294330000E+03 0.  0.
<mgrwt>
<rscale>  0 0.82055248E+03</rscale>
<asrwt>0</asrwt>
<pdfrwt beam="1">  1        2 0.13731669E+00 0.89707993E+03</pdfrwt>
<pdfrwt beam="2">  1       -2 0.28907053E+00 0.89707993E+03</pdfrwt>
<totfact> 0.11186748E+00</totfact>
</mgrwt>
</event>
<event>
 4    1  0.3565372E-007  0.1104764E+04  0.7818608E-02  0.9255771E-01
          2   -1    0    0  501    0  0.00000000000E+00  0.00000000000E+00  0.25357564294E+04  0.25357564294E+04  0.25500000000E-02 0. -1.
         -2   -1    0    0    0  501 -0.00000000000E+00 -0.00000000000E+00 -0.10635120199E+04  0.10635120200E+04  0.25500000000E-02 0.  1.
    8880023    1    1    2    0    0 -0.82400080710E+03  0.32819994877E+03  0.21868283261E+04  0.24500450752E+04  0.65864270000E+03 0.  0.
    8880022    1    1    2    0    0  0.82400080710E+03 -0.32819994877E+03 -0.71458391672E+03  0.11492233741E+04  0.15294330000E+03 0.  0.
<mgrwt>
<rscale>  0 0.10495867E+04</rscale>
<asrwt>0</asrwt>
<pdfrwt beam="1">  1        2 0.39011637E+00 0.11047637E+04</pdfrwt>
<pdfrwt beam="2">  1       -2 0.16361724E+00 0.11047637E+04</pdfrwt>
<totfact> 0.77865409E-01</totfact>
</mgrwt>
</event>
<event>
 4    1  0.3565372E-007  0.7111210E+03  0.7818608E-02  0.9953862E-01
          2   -1    0    0  501    0  0.00000000000E+00  0.00000000000E+00  0.29917077137E+03  0.29917077138E+03  0.25500000000E-02 0. -1.
         -2   -1    0    0    0  501 -0.00000000000E+00 -0.00000000000E+00 -0.14416897001E+04  0.14416897001E+04  0.25500000000E-02 0.  1.
    8880023    1    1    2    0    0 -0.23504409607E+03  0.12898501562E+03 -0.18495852375E+03  0.73478073132E+03  0.65864270000E+03 0. -1.
    8880022    1    1    2    0    0  0.23504409607E+03 -0.12898501562E+03 -0.95756040496E+03  0.10060797401E+04  0.15294330000E+03 0.  0.
<mgrwt>
<rscale>  0 0.57720451E+03</rscale>
<asrwt>0</asrwt>
<pdfrwt beam="1">  1        2 0.46026273E-01 0.71112099E+03</pdfrwt>
<pdfrwt beam="2">  1       -2 0.22179841E+00 0.71112099E+03</pdfrwt>
<totfact> 0.10872186E+01</totfact>
</mgrwt>
</event>
<event>
 4    1  0.3565372E-007  0.9086041E+03  0.7818608E-02  0.9512358E-01
          2   -1    0    0  501    0  0.00000000000E+00  0.00000000000E+00  0.21213221154E+04  0.21213221154E+04  0.25500000000E-02 0. -1.
         -2   -1    0    0    0  501 -0.00000000000E+00 -0.00000000000E+00 -0.42092666147E+03  0.42092666148E+03  0.25500000000E-02 0.  1.
    8880023    1    1    2    0    0  0.48983831840E+03  0.38962756630E+03  0.23056954652E+03  0.93740265662E+03  0.65864270000E+03 0.  0.
    8880022    1    1    2    0    0 -0.48983831840E+03 -0.38962756630E+03  0.14698259074E+04  0.16048461202E+04  0.15294330000E+03 0.  0.
<mgrwt>
<rscale>  0 0.83378815E+03</rscale>
<asrwt>0</asrwt>
<pdfrwt beam="1">  1        2 0.32635724E+00 0.90860411E+03</pdfrwt>
<pdfrwt beam="2">  1       -2 0.64757949E-01 0.90860411E+03</pdfrwt>
<totfact> 0.12779949E+01</totfact>
</mgrwt>
</event>
<event>
 4    1  0.3565372E-007  0.7207223E+03  0.7818608E-02  0.9920150E-01
          2   -1    0    0  501    0  0.00000000000E+00  0.00000000000E+00  0.26858609641E+04  0.26858609641E+04  0.25500000000E-02 0. -1.
         -2   -1    0    0    0  501 -0.00000000000E+00 -0.00000000000E+00 -0.14966382412E+03  0.14966382414E+03  0.25500000000E-02 0.  1.
    8880023    1    1    2    0    0  0.28175347741E+01 -0.29261311541E+03  0.23465806679E+04  0.24547670788E+04  0.65864270000E+03 0.  0.
    8880022    1    1    2    0    0 -0.28175347741E+01  0.29261311541E+03  0.18961647208E+03  0.38075770946E+03  0.15294330000E+03 0.  0.
<mgrwt>
<rscale>  0 0.59294612E+03</rscale>
<asrwt>0</asrwt>
<pdfrwt beam="1">  1        2 0.41320936E+00 0.72072226E+03</pdfrwt>
<pdfrwt beam="2">  1       -2 0.23025205E-01 0.72072226E+03</pdfrwt>
<totfact> 0.47273723E+01</totfact>
</mgrwt>
</event>
<event>
 4    1  0.3565372E-007  0.8225980E+03  0.7818608E-02  0.9663910E-01
         -2   -1    0    0    0  501 -0.00000000000E+00  0.00000000000E+00  0.95811719127E+03  0.95811719127E+03  0.25500000000E-02 0.  1.
          2   -1    0    0  501    0  0.00000000000E+00 -0.00000000000E+00 -0.59705366405E+03  0.59705366406E+03  0.25500000000E-02 0. -1.
    8880023    1    1    2    0    0  0.49245294508E+03 -0.18638009297E+02 -0.14173113346E+03  0.83471863461E+03  0.65864270000E+03 0. -1.
    8880022    1    1    2    0    0 -0.49245294508E+03  0.18638009297E+02  0.50279466068E+03  0.72045222072E+03  0.15294330000E+03 0.  0.
<mgrwt>
<rscale>  0 0.73206851E+03</rscale>
<asrwt>0</asrwt>
<pdfrwt beam="1">  1        2 0.91854410E-01 0.82259801E+03</pdfrwt>
<pdfrwt beam="2">  1       -2 0.14740264E+00 0.82259801E+03</pdfrwt>
<totfact> 0.15774241E+01</totfact>
</mgrwt>
</event>
<event>
 4    1  0.3647838E-007  0.7734592E+03  0.7818608E-02  0.9771432E-01
          2   -1    0    0  501    0  0.00000000000E+00  0.00000000000E+00  0.17435717308E+04  0.17435717308E+04  0.25500000000E-02 0. -1.
         -2   -1    0    0    0  501 -0.00000000000E+00 -0.00000000000E+00 -0.91608820893E+03  0.91608820893E+03  0.25500000000E-02 0.  1.
    8880023    1    1    2    0    0  0.25509439368E+03 -0.31520743141E+03  0.15981596288E+04  0.17754867727E+04  0.65864270000E+03 0. -1.
    8880022    1    1    2    0    0 -0.25509439368E+03  0.31520743141E+03 -0.77067610695E+03  0.88417316706E+03  0.15294330000E+03 0.  0.
<mgrwt>
<rscale>  0 0.66918458E+03</rscale>
<asrwt>0</asrwt>
<pdfrwt beam="1">  1        2 0.26824181E+00 0.77345917E+03</pdfrwt>
<pdfrwt beam="2">  1       -2 0.14093665E+00 0.77345917E+03</pdfrwt>
<totfact> 0.33628519E+00</totfact>
</mgrwt>
</event>
<event>
 4    1  0.3565372E-007  0.9359682E+03  0.7818608E-02  0.9470597E-01
         -2   -1    0    0    0  501 -0.00000000000E+00  0.00000000000E+00  0.17690383456E+03  0.17690383458E+03  0.25500000000E-02 0.  1.
          2   -1    0    0  501    0  0.00000000000E+00 -0.00000000000E+00 -0.39830248928E+04  0.39830248928E+04  0.25500000000E-02 0. -1.
    8880023    1    1    2    0    0 -0.53565671631E+03 -0.39407896258E+03 -0.16332130916E+04  0.18823978207E+04  0.65864270000E+03 0.  1.
    8880022    1    1    2    0    0  0.53565671631E+03  0.39407896258E+03 -0.21729079666E+04  0.22775309067E+04  0.15294330000E+03 0.  0.
<mgrwt>
<rscale>  0 0.86486746E+03</rscale>
<asrwt>0</asrwt>
<pdfrwt beam="1">  1        2 0.61277299E+00 0.93596824E+03</pdfrwt>
<pdfrwt beam="2">  1       -2 0.27215978E-01 0.93596824E+03</pdfrwt>
<totfact> 0.46158217E+00</totfact>
</mgrwt>
</event>
<event>
 4    1  0.3565372E-007  0.7029654E+03  0.7818608E-02  0.9985115E-01
          2   -1    0    0  501    0  0.00000000000E+00  0.00000000000E+00  0.71414230151E+03  0.71414230151E+03  0.25500000000E-02 0. -1.
         -2   -1    0    0    0  501 -0.00000000000E+00 -0.00000000000E+00 -0.39422629363E+03  0.39422629364E+03  0.25500000000E-02 0.  1.
    8880023    1    1    2    0    0  0.16486928268E+02  0.24510883235E+03  0.39908898122E+03  0.80835164359E+03  0.65864270000E+03 0.  0.
    8880022    1    1    2    0    0 -0.16486928268E+02 -0.24510883235E+03 -0.79172973343E+02  0.30001695156E+03  0.15294330000E+03 0.  0.
<mgrwt>
<rscale>  0 0.56307761E+03</rscale>
<asrwt>0</asrwt>
<pdfrwt beam="1">  1        2 0.10986805E+00 0.70296541E+03</pdfrwt>
<pdfrwt beam="2">  1       -2 0.60650199E-01 0.70296541E+03</pdfrwt>
<totfact> 0.10262084E+02</totfact>
</mgrwt>
</event>
<event>
 4    1  0.3565372E-007  0.1029298E+04  0.7818608E-02  0.9344192E-01
          2   -1    0    0  501    0  0.00000000000E+00  0.00000000000E+00  0.24313429281E+04  0.24313429281E+04  0.25500000000E-02 0. -1.
         -2   -1    0    0    0  501 -0.00000000000E+00 -0.00000000000E+00 -0.49258906609E+03  0.49258906609E+03  0.25500000000E-02 0.  1.
    8880023    1    1    2    0    0  0.54479045112E+03  0.57345212377E+03  0.18452280873E+04  0.21128939572E+04  0.65864270000E+03 0. -1.
    8880022    1    1    2    0    0 -0.54479045112E+03 -0.57345212377E+03  0.93525774696E+02  0.81103803699E+03  0.15294330000E+03 0.  0.
<mgrwt>
<rscale>  0 0.96814272E+03</rscale>
<asrwt>0</asrwt>
<pdfrwt beam="1">  1        2 0.37405276E+00 0.10292979E+04</pdfrwt>
<pdfrwt beam="2">  1       -2 0.75782933E-01 0.10292979E+04</pdfrwt>
<totfact> 0.59845727E+00</totfact>
</mgrwt>
</event>
<event>
 4    1  0.3565372E-007  0.6609866E+03  0.7818608E-02  0.1023168E+00
         -2   -1    0    0    0  501 -0.00000000000E+00  0.00000000000E+00  0.39507568803E+03  0.39507568804E+03  0.25500000000E-02 0.  1.
          2   -1    0    0  501    0  0.00000000000E+00 -0.00000000000E+00 -0.18941191640E+04  0.18941191640E+04  0.25500000000E-02 0. -1.
    8880023    1    1    2    0    0 -0.51237449747E+02  0.21627711954E+02 -0.18161898689E+04  0.19327309384E+04  0.65864270000E+03 0. -1.
    8880022    1    1    2    0    0  0.51237449747E+02 -0.21627711954E+02  0.31714639291E+03  0.35646391364E+03  0.15294330000E+03 0.  0.
<mgrwt>
<rscale>  0 0.46560628E+03</rscale>
<asrwt>0</asrwt>
<pdfrwt beam="1">  1        2 0.29140294E+00 0.66098657E+03</pdfrwt>
<pdfrwt beam="2">  1       -2 0.60780876E-01 0.66098657E+03</pdfrwt>
<totfact> 0.20148720E+01</totfact>
</mgrwt>
</event>
<event>
 4    1  0.3883418E-007  0.7414229E+03  0.7818608E-02  0.9855821E-01
          2   -1    0    0  501    0  0.00000000000E+00  0.00000000000E+00  0.11261937979E+04  0.11261937979E+04  0.25500000000E-02 0. -1.
         -2   -1    0    0    0  501 -0.00000000000E+00 -0.00000000000E+00 -0.17680747813E+04  0.17680747813E+04  0.25500000000E-02 0.  1.
    8880023    1    1    2    0    0 -0.16899360699E+03  0.29553163044E+03  0.98064118196E+03  0.12293759058E+04  0.65864270000E+03 0. -1.
    8880022    1    1    2    0    0  0.16899360699E+03 -0.29553163044E+03 -0.16225221653E+04  0.16648926733E+04  0.15294330000E+03 0.  0.
<mgrwt>
<rscale>  0 0.62450985E+03</rscale>
<asrwt>0</asrwt>
<pdfrwt beam="1">  1        2 0.17326059E+00 0.74142295E+03</pdfrwt>
<pdfrwt beam="2">  1       -2 0.27201150E+00 0.74142295E+03</pdfrwt>
<totfact> 0.10313654E+00</totfact>
</mgrwt>
</event>
<event>
 4    1  0.3565372E-007  0.6950837E+03  0.7818608E-02  0.1001824E+00
          2   -1    0    0  501    0  0.00000000000E+00  0.00000000000E+00  0.11495139316E+04  0.11495139316E+04  0.25500000000E-02 0. -1.
         -2   -1    0    0    0  501 -0.00000000000E+00 -0.00000000000E+00 -0.26007017486E+03  0.26007017487E+03  0.25500000000E-02 0.  1.
    8880023    1    1    2    0    0  0.13543320880E+03 -0.17603707548E+03  0.90303828853E+03  0.11395699026E+04  0.65864270000E+03 0.  0.
    8880022    1    1    2    0    0 -0.13543320880E+03  0.17603707548E+03 -0.13594531819E+02  0.27001420388E+03  0.15294330000E+03 0.  0.
<mgrwt>
<rscale>  0 0.54857589E+03</rscale>
<asrwt>0</asrwt>
<pdfrwt beam="1">  1        2 0.17684830E+00 0.69508374E+03</pdfrwt>
<pdfrwt beam="2">  1       -2 0.40010795E-01 0.69508374E+03</pdfrwt>
<totfact> 0.12225694E+02</totfact>
</mgrwt>
</event>
<event>
 4    1  0.3975628E-007  0.1051300E+04  0.7818608E-02  0.9317320E-01
          2   -1    0    0  501    0  0.00000000000E+00  0.00000000000E+00  0.19887901097E+04  0.19887901097E+04  0.25500000000E-02 0. -1.
         -2   -1    0    0    0  501 -0.00000000000E+00 -0.00000000000E+00 -0.11208096180E+04  0.11208096180E+04  0.25500000000E-02 0.  1.
    8880023    1    1    2    0    0  0.70081433238E+03 -0.42459446340E+03  0.16566531048E+04  0.19620731135E+04  0.65864270000E+03 0.  0.
    8880022    1    1    2    0    0 -0.70081433238E+03  0.42459446340E+03 -0.78867261304E+03  0.11475266142E+04  0.15294330000E+03 0.  1.
<mgrwt>
<rscale>  0 0.99203829E+03</rscale>
<asrwt>0</asrwt>
<pdfrwt beam="1">  1        2 0.30596771E+00 0.10512999E+04</pdfrwt>
<pdfrwt beam="2">  1       -2 0.17243225E+00 0.10512999E+04</pdfrwt>
<totfact> 0.13749138E+00</totfact>
</mgrwt>
</event>
<event>
 4    1  0.3565372E-007  0.8761546E+03  0.7818608E-02  0.9565449E-01
         -2   -1    0    0    0  501 -0.00000000000E+00  0.00000000000E+00  0.68929062101E+03  0.68929062101E+03  0.25500000000E-02 0.  1.
          2   -1    0    0  501    0  0.00000000000E+00 -0.00000000000E+00 -0.98473899256E+03  0.98473899256E+03  0.25500000000E-02 0. -1.
    8880023    1    1    2    0    0 -0.54355695995E+03  0.19591434014E+03  0.19883916074E+03  0.89843409079E+03  0.65864270000E+03 0.  1.
    8880022    1    1    2    0    0  0.54355695995E+03 -0.19591434014E+03 -0.49428753229E+03  0.77559552279E+03  0.15294330000E+03 0.  0.
<mgrwt>
<rscale>  0 0.79625792E+03</rscale>
<asrwt>0</asrwt>
<pdfrwt beam="1">  1        2 0.15149831E+00 0.87615455E+03</pdfrwt>
<pdfrwt beam="2">  1       -2 0.10604471E+00 0.87615455E+03</pdfrwt>
<totfact> 0.18569194E+01</totfact>
</mgrwt>
</event>
<event>
 4    1  0.3565372E-007  0.7870561E+03  0.7818608E-02  0.9739516E-01
         -2   -1    0    0    0  501 -0.00000000000E+00  0.00000000000E+00  0.22169743072E+03  0.22169743074E+03  0.25500000000E-02 0.  1.
          2   -1    0    0  501    0  0.00000000000E+00 -0.00000000000E+00 -0.24556476250E+04  0.24556476250E+04  0.25500000000E-02 0. -1.
    8880023    1    1    2    0    0  0.38074902864E+03  0.20168598398E+03 -0.20289981649E+04  0.21763020972E+04  0.65864270000E+03 0. -1.
    8880022    1    1    2    0    0 -0.38074902864E+03 -0.20168598398E+03 -0.20495202942E+03  0.50104295856E+03  0.15294330000E+03 0.  0.
<mgrwt>
<rscale>  0 0.68712001E+03</rscale>
<asrwt>0</asrwt>
<pdfrwt beam="1">  1        2 0.37779192E+00 0.78705608E+03</pdfrwt>
<pdfrwt beam="2">  1       -2 0.34107299E-01 0.78705608E+03</pdfrwt>
<totfact> 0.30818533E+01</totfact>
</mgrwt>
</event>
<event>
 4    1  0.3565372E-007  0.6745412E+03  0.7818608E-02  0.1012597E+00
         -2   -1    0    0    0  501 -0.00000000000E+00  0.00000000000E+00  0.32404841607E+03  0.32404841608E+03  0.25500000000E-02 0.  1.
          2   -1    0    0  501    0  0.00000000000E+00 -0.00000000000E+00 -0.11628194498E+04  0.11628194498E+04  0.25500000000E-02 0. -1.
    8880023    1    1    2    0    0 -0.11991685450E+03  0.82556870310E+02 -0.10103219386E+04  0.12148071101E+04  0.65864270000E+03 0. -1.
    8880022    1    1    2    0    0  0.11991685450E+03 -0.82556870310E+02  0.17155090492E+03  0.27206075576E+03  0.15294330000E+03 0.  0.
<mgrwt>
<rscale>  0 0.50455421E+03</rscale>
<asrwt>0</asrwt>
<pdfrwt beam="1">  1        2 0.17889530E+00 0.67454125E+03</pdfrwt>
<pdfrwt beam="2">  1       -2 0.49853603E-01 0.67454125E+03</pdfrwt>
<totfact> 0.77647825E+01</totfact>
</mgrwt>
</event>
<event>
 4    1  0.3565372E-007  0.7470801E+03  0.7818608E-02  0.9839783E-01
         -2   -1    0    0    0  501 -0.00000000000E+00  0.00000000000E+00  0.68952784819E+03  0.68952784819E+03  0.25500000000E-02 0.  1.
          2   -1    0    0  501    0  0.00000000000E+00 -0.00000000000E+00 -0.46504186574E+03  0.46504186575E+03  0.25500000000E-02 0. -1.
    8880023    1    1    2    0    0 -0.19838124954E+03 -0.29148474014E+03  0.12379017327E+03  0.75726658923E+03  0.65864270000E+03 0.  0.
    8880022    1    1    2    0    0  0.19838124954E+03  0.29148474014E+03  0.10069580917E+03  0.39730312471E+03  0.15294330000E+03 0.  1.
<mgrwt>
<rscale>  0 0.63270558E+03</rscale>
<asrwt>0</asrwt>
<pdfrwt beam="1">  1        2 0.71544903E-01 0.74708010E+03</pdfrwt>
<pdfrwt beam="2">  1       -2 0.10608121E+00 0.74708010E+03</pdfrwt>
<totfact> 0.48596650E+01</totfact>
</mgrwt>
</event>
<event>
 4    1  0.3565372E-007  0.6599555E+03  0.7818608E-02  0.1024202E+00
         -2   -1    0    0    0  501 -0.00000000000E+00  0.00000000000E+00  0.22917138024E+03  0.22917138026E+03  0.25500000000E-02 0.  1.
          2   -1    0    0  501    0  0.00000000000E+00 -0.00000000000E+00 -0.75500015053E+03  0.75500015053E+03  0.25500000000E-02 0. -1.
    8880023    1    1    2    0    0 -0.15945872660E+02  0.38428339649E+02 -0.48918812537E+03  0.82149025339E+03  0.65864270000E+03 0. -1.
    8880022    1    1    2    0    0  0.15945872660E+02 -0.38428339649E+02 -0.36640644918E+02  0.16268127740E+03  0.15294330000E+03 0.  1.
<mgrwt>
<rscale>  0 0.46200234E+03</rscale>
<asrwt>0</asrwt>
<pdfrwt beam="1">  1        2 0.11615387E+00 0.65995546E+03</pdfrwt>
<pdfrwt beam="2">  1       -2 0.35257136E-01 0.65995546E+03</pdfrwt>
<totfact> 0.28412597E+02</totfact>
</mgrwt>
</event>
<event>
 4    1  0.3565372E-007  0.6690005E+03  0.7818608E-02  0.1016390E+00
         -2   -1    0    0    0  501 -0.00000000000E+00  0.00000000000E+00  0.92822186886E+03  0.92822186886E+03  0.25500000000E-02 0.  1.
          2   -1    0    0  501    0  0.00000000000E+00 -0.00000000000E+00 -0.27309376754E+03  0.27309376755E+03  0.25500000000E-02 0. -1.
    8880023    1    1    2    0    0  0.10626231406E+03  0.49596527878E+02  0.18635473369E+03  0.69447086908E+03  0.65864270000E+03 0. -1.
    8880022    1    1    2    0    0 -0.10626231406E+03 -0.49596527878E+02  0.46877336762E+03  0.50684476734E+03  0.15294330000E+03 0.  0.
<mgrwt>
<rscale>  0 0.49012255E+03</rscale>
<asrwt>0</asrwt>
<pdfrwt beam="1">  1        2 0.42014425E-01 0.66900052E+03</pdfrwt>
<pdfrwt beam="2">  1       -2 0.14280337E+00 0.66900052E+03</pdfrwt>
<totfact> 0.42261479E+01</totfact>
</mgrwt>
</event>
<event>
 4    1  0.3565372E-007  0.1182515E+04  0.7818608E-02  0.9174310E-01
         -2   -1    0    0    0  501 -0.00000000000E+00  0.00000000000E+00  0.68256482727E+03  0.68256482727E+03  0.25500000000E-02 0.  1.
          2   -1    0    0  501    0  0.00000000000E+00 -0.00000000000E+00 -0.32934678532E+04  0.32934678532E+04  0.25500000000E-02 0. -1.
    8880023    1    1    2    0    0  0.72844480393E+03 -0.65870997136E+03 -0.27298808799E+04  0.29749941989E+04  0.65864270000E+03 0.  1.
    8880022    1    1    2    0    0 -0.72844480393E+03  0.65870997136E+03  0.11897785402E+03  0.10010384815E+04  0.15294330000E+03 0.  0.
<mgrwt>
<rscale>  0 0.11322576E+04</rscale>
<asrwt>0</asrwt>
<pdfrwt beam="1">  1        2 0.50668735E+00 0.11825146E+04</pdfrwt>
<pdfrwt beam="2">  1       -2 0.10500998E+00 0.11825146E+04</pdfrwt>
<totfact> 0.82507253E-01</totfact>
</mgrwt>
</event>
<event>
 4    1  0.3565372E-007  0.8501397E+03  0.7818608E-02  0.9611350E-01
          2   -1    0    0  501    0  0.00000000000E+00  0.00000000000E+00  0.17237069813E+04  0.17237069813E+04  0.25500000000E-02 0. -1.
         -2   -1    0    0    0  501 -0.00000000000E+00 -0.00000000000E+00 -0.30867095248E+03  0.30867095249E+03  0.25500000000E-02 0.  1.
    8880023    1    1    2    0    0  0.90791551366E+02 -0.52979633943E+03  0.11020356880E+04  0.13918405552E+04  0.65864270000E+03 0.  0.
    8880022    1    1    2    0    0 -0.90791551366E+02  0.52979633943E+03  0.31300034081E+03  0.64053737864E+03  0.15294330000E+03 0.  0.
<mgrwt>
<rscale>  0 0.76549525E+03</rscale>
<asrwt>0</asrwt>
<pdfrwt beam="1">  1        2 0.26518569E+00 0.85013968E+03</pdfrwt>
<pdfrwt beam="2">  1       -2 0.47487839E-01 0.85013968E+03</pdfrwt>
<totfact> 0.40577762E+01</totfact>
</mgrwt>
</event>
<event>
 4    1  0.3565372E-007  0.6994314E+03  0.7818608E-02  0.9999568E-01
         -2   -1    0    0    0  501 -0.00000000000E+00  0.00000000000E+00  0.12448651841E+04  0.12448651841E+04  0.25500000000E-02 0.  1.
          2   -1    0    0  501    0  0.00000000000E+00 -0.00000000000E+00 -0.74522790369E+03  0.74522790369E+03  0.25500000000E-02 0. -1.
    8880023    1    1    2    0    0 -0.22385564703E+03  0.72681887556E+02 -0.55869079709E+03  0.89517574839E+03  0.65864270000E+03 0. -1.
    8880022    1    1    2    0    0  0.22385564703E+03 -0.72681887556E+02  0.10583280775E+04  0.10949173394E+04  0.15294330000E+03 0.  0.
<mgrwt>
<rscale>  0 0.55669166E+03</rscale>
<asrwt>0</asrwt>
<pdfrwt beam="1">  1        2 0.11465045E+00 0.69943135E+03</pdfrwt>
<pdfrwt beam="2">  1       -2 0.19151772E+00 0.69943135E+03</pdfrwt>
<totfact> 0.58790414E+00</totfact>
</mgrwt>
</event>
<event>
 4    1  0.3565372E-007  0.1657203E+04  0.7818608E-02  0.8805932E-01
          2   -1    0    0  501    0  0.00000000000E+00  0.00000000000E+00  0.22207029413E+04  0.22207029413E+04  0.25500000000E-02 0. -1.
         -2   -1    0    0    0  501 -0.00000000000E+00 -0.00000000000E+00 -0.11527380915E+04  0.11527380915E+04  0.25500000000E-02 0.  1.
    8880023    1    1    2    0    0 -0.14871516899E+04 -0.31763257403E+03  0.39588758120E+03  0.17038332618E+04  0.65864270000E+03 0.  0.
    8880022    1    1    2    0    0  0.14871516899E+04  0.31763257403E+03  0.67207726858E+03  0.16696077710E+04  0.15294330000E+03 0.  0.
<mgrwt>
<rscale>  0 0.16240095E+04</rscale>
<asrwt>0</asrwt>
<pdfrwt beam="1">  1        2 0.34164660E+00 0.16572027E+04</pdfrwt>
<pdfrwt beam="2">  1       -2 0.17734432E+00 0.16572027E+04</pdfrwt>
<totfact> 0.88182351E-01</totfact>
</mgrwt>
</event>
<event>
 4    1  0.3565372E-007  0.9663291E+03  0.7818608E-02  0.9426999E-01
         -2   -1    0    0    0  501 -0.00000000000E+00  0.00000000000E+00  0.71324835251E+03  0.71324835251E+03  0.25500000000E-02 0.  1.
          2   -1    0    0  501    0  0.00000000000E+00 -0.00000000000E+00 -0.19822142624E+04  0.19822142624E+04  0.25500000000E-02 0. -1.
    8880023    1    1    2    0    0 -0.38313156679E+03  0.59429947397E+03 -0.16238781941E+04  0.18896487128E+04  0.65864270000E+03 0.  0.
    8880022    1    1    2    0    0  0.38313156679E+03 -0.59429947397E+03  0.35491228426E+03  0.80581390207E+03  0.15294330000E+03 0.  0.
<mgrwt>
<rscale>  0 0.89886657E+03</rscale>
<asrwt>0</asrwt>
<pdfrwt beam="1">  1        2 0.30495604E+00 0.96632907E+03</pdfrwt>
<pdfrwt beam="2">  1       -2 0.10973052E+00 0.96632907E+03</pdfrwt>
<totfact> 0.45346737E+00</totfact>
</mgrwt>
</event>
<event>
 4    1  0.3565372E-007  0.7827841E+03  0.7818608E-02  0.9749337E-01
         -2   -1    0    0    0  501 -0.00000000000E+00  0.00000000000E+00  0.23348508306E+03  0.23348508307E+03  0.25500000000E-02 0.  1.
          2   -1    0    0  501    0  0.00000000000E+00 -0.00000000000E+00 -0.17166358631E+04  0.17166358631E+04  0.25500000000E-02 0. -1.
    8880023    1    1    2    0    0  0.41638077447E+03  0.74617143423E+02 -0.11466686719E+04  0.13883803214E+04  0.65864270000E+03 0. -1.
    8880022    1    1    2    0    0 -0.41638077447E+03 -0.74617143423E+02 -0.33648210818E+03  0.56174062483E+03  0.15294330000E+03 0.  1.
<mgrwt>
<rscale>  0 0.68153731E+03</rscale>
<asrwt>0</asrwt>
<pdfrwt beam="1">  1        2 0.26409782E+00 0.78278405E+03</pdfrwt>
<pdfrwt beam="2">  1       -2 0.35920783E-01 0.78278405E+03</pdfrwt>
<totfact> 0.71344457E+01</totfact>
</mgrwt>
</event>
<event>
 4    1  0.3565372E-007  0.8526772E+03  0.7818608E-02  0.9606724E-01
         -2   -1    0    0    0  501 -0.00000000000E+00  0.00000000000E+00  0.33906525799E+03  0.33906525800E+03  0.25500000000E-02 0.  1.
          2   -1    0    0  501    0  0.00000000000E+00 -0.00000000000E+00 -0.22188543205E+04  0.22188543205E+04  0.25500000000E-02 0. -1.
    8880023    1    1    2    0    0 -0.32774064007E+03 -0.43108499208E+03 -0.17971550749E+04  0.19891769069E+04  0.65864270000E+03 0.  0.
    8880022    1    1    2    0    0  0.32774064007E+03  0.43108499208E+03 -0.82633987609E+02  0.56874267158E+03  0.15294330000E+03 0.  0.
<mgrwt>
<rscale>  0 0.76852710E+03</rscale>
<asrwt>0</asrwt>
<pdfrwt beam="1">  1        2 0.34136219E+00 0.85267720E+03</pdfrwt>
<pdfrwt beam="2">  1       -2 0.52163887E-01 0.85267720E+03</pdfrwt>
<totfact> 0.17914884E+01</totfact>
</mgrwt>
</event>
<event>
 4    1  0.3565372E-007  0.9463416E+03  0.7818608E-02  0.9455397E-01
          2   -1    0    0  501    0  0.00000000000E+00  0.00000000000E+00  0.19868929132E+04  0.19868929132E+04  0.25500000000E-02 0. -1.
         -2   -1    0    0    0  501 -0.00000000000E+00 -0.00000000000E+00 -0.51800348279E+03  0.51800348280E+03  0.25500000000E-02 0.  1.
    8880023    1    1    2    0    0  0.35163118841E+03 -0.58147036847E+03  0.15370814901E+04  0.18050434885E+04  0.65864270000E+03 0. -1.
    8880022    1    1    2    0    0 -0.35163118841E+03  0.58147036847E+03 -0.68192059680E+02  0.69985290746E+03  0.15294330000E+03 0.  0.
<mgrwt>
<rscale>  0 0.87653606E+03</rscale>
<asrwt>0</asrwt>
<pdfrwt beam="1">  1        2 0.30567583E+00 0.94634163E+03</pdfrwt>
<pdfrwt beam="2">  1       -2 0.79692844E-01 0.94634163E+03</pdfrwt>
<totfact> 0.95516675E+00</totfact>
</mgrwt>
</event>
<event>
 4    1  0.3565372E-007  0.6757563E+03  0.7818608E-02  0.1011834E+00
         -2   -1    0    0    0  501 -0.00000000000E+00  0.00000000000E+00  0.59824442931E+03  0.59824442932E+03  0.25500000000E-02 0.  1.
          2   -1    0    0  501    0  0.00000000000E+00 -0.00000000000E+00 -0.45666805683E+03  0.45666805683E+03  0.25500000000E-02 0. -1.
    8880023    1    1    2    0    0  0.30723912649E+02  0.14796062562E+03 -0.15042193229E+03  0.69229565181E+03  0.65864270000E+03 0. -1.
    8880022    1    1    2    0    0 -0.30723912649E+02 -0.14796062562E+03  0.29199830477E+03  0.36261683434E+03  0.15294330000E+03 0.  0.
<mgrwt>
<rscale>  0 0.50752290E+03</rscale>
<asrwt>0</asrwt>
<pdfrwt beam="1">  1        2 0.70256624E-01 0.67575625E+03</pdfrwt>
<pdfrwt beam="2">  1       -2 0.92037605E-01 0.67575625E+03</pdfrwt>
<totfact> 0.69703063E+01</totfact>
</mgrwt>
</event>
<event>
 4    1  0.3565372E-007  0.7396976E+03  0.7818608E-02  0.9860829E-01
         -2   -1    0    0    0  501 -0.00000000000E+00  0.00000000000E+00  0.47139482963E+03  0.47139482963E+03  0.25500000000E-02 0.  1.
          2   -1    0    0  501    0  0.00000000000E+00 -0.00000000000E+00 -0.65665081400E+03  0.65665081401E+03  0.25500000000E-02 0. -1.
    8880023    1    1    2    0    0 -0.29415327384E+03  0.16375646682E+03 -0.16399825870E+03  0.75765953043E+03  0.65864270000E+03 0. -1.
    8880022    1    1    2    0    0  0.29415327384E+03 -0.16375646682E+03 -0.21257725679E+02  0.37038611321E+03  0.15294330000E+03 0.  1.
<mgrwt>
<rscale>  0 0.62197827E+03</rscale>
<asrwt>0</asrwt>
<pdfrwt beam="1">  1        2 0.10102320E+00 0.73969760E+03</pdfrwt>
<pdfrwt beam="2">  1       -2 0.72522282E-01 0.73969760E+03</pdfrwt>
<totfact> 0.77340386E+01</totfact>
</mgrwt>
</event>
<event>
 4    1  0.3565372E-007  0.1079183E+04  0.7818608E-02  0.9284595E-01
         -2   -1    0    0    0  501 -0.00000000000E+00  0.00000000000E+00  0.65821492498E+03  0.65821492498E+03  0.25500000000E-02 0.  1.
          2   -1    0    0  501    0  0.00000000000E+00 -0.00000000000E+00 -0.15507752257E+04  0.15507752257E+04  0.25500000000E-02 0. -1.
    8880023    1    1    2    0    0 -0.75044184058E+03 -0.40946713412E+03 -0.78372552664E+03  0.13337399287E+04  0.65864270000E+03 0.  0.
    8880022    1    1    2    0    0  0.75044184058E+03  0.40946713412E+03 -0.10883477406E+03  0.87525022198E+03  0.15294330000E+03 0.  0.
<mgrwt>
<rscale>  0 0.10221356E+04</rscale>
<asrwt>0</asrwt>
<pdfrwt beam="1">  1        2 0.23858080E+00 0.10791833E+04</pdfrwt>
<pdfrwt beam="2">  1       -2 0.10126384E+00 0.10791833E+04</pdfrwt>
<totfact> 0.94131028E+00</totfact>
</mgrwt>
</event>
<event>
 4    1  0.3565372E-007  0.7178839E+03  0.7818608E-02  0.9929812E-01
         -2   -1    0    0    0  501 -0.00000000000E+00  0.00000000000E+00  0.85534741653E+02  0.85534741691E+02  0.25500000000E-02 0.  1.
          2   -1    0    0  501    0  0.00000000000E+00 -0.00000000000E+00 -0.31729585173E+04  0.31729585173E+04  0.25500000000E-02 0. -1.
    8880023    1    1    2    0    0 -0.22888513666E+03 -0.17075906271E+03 -0.21473134793E+04  0.22641361372E+04  0.65864270000E+03 0.  0.
    8880022    1    1    2    0    0  0.22888513666E+03  0.17075906271E+03 -0.94011029640E+03  0.99435712181E+03  0.15294330000E+03 0. -1.
<mgrwt>
<rscale>  0 0.58837962E+03</rscale>
<asrwt>0</asrwt>
<pdfrwt beam="1">  1        2 0.48814737E+00 0.71788388E+03</pdfrwt>
<pdfrwt beam="2">  1       -2 0.13159193E-01 0.71788388E+03</pdfrwt>
<totfact> 0.62896094E+01</totfact>
</mgrwt>
</event>
<event>
 4    1  0.3565372E-007  0.7861641E+03  0.7818608E-02  0.9741552E-01
          2   -1    0    0  501    0  0.00000000000E+00  0.00000000000E+00  0.43906110525E+03  0.43906110526E+03  0.25500000000E-02 0. -1.
         -2   -1    0    0    0  501 -0.00000000000E+00 -0.00000000000E+00 -0.10136575190E+04  0.10136575190E+04  0.25500000000E-02 0.  1.
    8880023    1    1    2    0    0 -0.40423618963E+03  0.14434971597E+03 -0.96182976932E+02  0.79202595211E+03  0.65864270000E+03 0. -1.
    8880022    1    1    2    0    0  0.40423618963E+03 -0.14434971597E+03 -0.47841343685E+03  0.66069267219E+03  0.15294330000E+03 0.  0.
<mgrwt>
<rscale>  0 0.68595806E+03</rscale>
<asrwt>0</asrwt>
<pdfrwt beam="1">  1        2 0.67547863E-01 0.78616407E+03</pdfrwt>
<pdfrwt beam="2">  1       -2 0.15594731E+00 0.78616407E+03</pdfrwt>
<totfact> 0.19522364E+01</totfact>
</mgrwt>
</event>
<event>
 4    1  0.3565372E-007  0.8004329E+03  0.7818608E-02  0.9709861E-01
         -2   -1    0    0    0  501 -0.00000000000E+00  0.00000000000E+00  0.14516927774E+04  0.14516927774E+04  0.25500000000E-02 0.  1.
          2   -1    0    0  501    0  0.00000000000E+00 -0.00000000000E+00 -0.33484913172E+03  0.33484913173E+03  0.25500000000E-02 0. -1.
    8880023    1    1    2    0    0  0.45363177412E+03 -0.33178471017E+02  0.10207269510E+04  0.12971415930E+04  0.65864270000E+03 0.  0.
    8880022    1    1    2    0    0 -0.45363177412E+03  0.33178471017E+02  0.96116694625E+02  0.48940031613E+03  0.15294330000E+03 0.  0.
<mgrwt>
<rscale>  0 0.70432704E+03</rscale>
<asrwt>0</asrwt>
<pdfrwt beam="1">  1        2 0.51515251E-01 0.80043289E+03</pdfrwt>
<pdfrwt beam="2">  1       -2 0.22333735E+00 0.80043289E+03</pdfrwt>
<totfact> 0.92959110E+00</totfact>
</mgrwt>
</event>
<event>
 4    1  0.3565372E-007  0.6782737E+03  0.7818608E-02  0.1010317E+00
          2   -1    0    0  501    0  0.00000000000E+00  0.00000000000E+00  0.17262738777E+04  0.17262738777E+04  0.25500000000E-02 0. -1.
         -2   -1    0    0    0  501 -0.00000000000E+00 -0.00000000000E+00 -0.18062834854E+03  0.18062834856E+03  0.25500000000E-02 0.  1.
    8880023    1    1    2    0    0  0.15355650318E+03 -0.51627554310E+02  0.15414394053E+04  0.16840696691E+04  0.65864270000E+03 0.  0.
    8880022    1    1    2    0    0 -0.15355650318E+03  0.51627554310E+02  0.42061238872E+01  0.22283255715E+03  0.15294330000E+03 0.  0.
<mgrwt>
<rscale>  0 0.51348652E+03</rscale>
<asrwt>0</asrwt>
<pdfrwt beam="1">  1        2 0.26558060E+00 0.67827370E+03</pdfrwt>
<pdfrwt beam="2">  1       -2 0.27788976E-01 0.67827370E+03</pdfrwt>
<totfact> 0.11517242E+02</totfact>
</mgrwt>
</event>
<event>
 4    1  0.3565372E-007  0.7252715E+03  0.7818608E-02  0.9905136E-01
          2   -1    0    0  501    0  0.00000000000E+00  0.00000000000E+00  0.30961408847E+04  0.30961408847E+04  0.25500000000E-02 0. -1.
         -2   -1    0    0    0  501 -0.00000000000E+00 -0.00000000000E+00 -0.15355021544E+03  0.15355021546E+03  0.25500000000E-02 0.  1.
    8880023    1    1    2    0    0  0.11629839311E+03 -0.28050538560E+03  0.27795596057E+04  0.28726243046E+04  0.65864270000E+03 0.  0.
    8880022    1    1    2    0    0 -0.11629839311E+03  0.28050538560E+03  0.16303106355E+03  0.37706679552E+03  0.15294330000E+03 0.  0.
<mgrwt>
<rscale>  0 0.60012997E+03</rscale>
<asrwt>0</asrwt>
<pdfrwt beam="1">  1        2 0.47632932E+00 0.72527153E+03</pdfrwt>
<pdfrwt beam="2">  1       -2 0.23623112E-01 0.72527153E+03</pdfrwt>
<totfact> 0.25599899E+01</totfact>
</mgrwt>
</event>
<event>
 4    1  0.3565372E-007  0.6649714E+03  0.7818608E-02  0.1019557E+00
         -2   -1    0    0    0  501 -0.00000000000E+00  0.00000000000E+00  0.72490424361E+02  0.72490424406E+02  0.25500000000E-02 0.  1.
          2   -1    0    0  501    0  0.00000000000E+00 -0.00000000000E+00 -0.30619199836E+04  0.30619199836E+04  0.25500000000E-02 0. -1.
    8880023    1    1    2    0    0 -0.36727580683E+02  0.83831889189E+02 -0.27845626204E+04  0.28628614871E+04  0.65864270000E+03 0. -1.
    8880022    1    1    2    0    0  0.36727580683E+02 -0.83831889189E+02 -0.20486693882E+03  0.27154892094E+03  0.15294330000E+03 0.  0.
<mgrwt>
<rscale>  0 0.47846651E+03</rscale>
<asrwt>0</asrwt>
<pdfrwt beam="1">  1        2 0.47106451E+00 0.66497136E+03</pdfrwt>
<pdfrwt beam="2">  1       -2 0.11152375E-01 0.66497136E+03</pdfrwt>
<totfact> 0.97775452E+01</totfact>
</mgrwt>
</event>
<event>
 4    1  0.3565372E-007  0.1091958E+04  0.7818608E-02  0.9270063E-01
          2   -1    0    0  501    0  0.00000000000E+00  0.00000000000E+00  0.12795307959E+04  0.12795307959E+04  0.25500000000E-02 0. -1.
         -2   -1    0    0    0  501 -0.00000000000E+00 -0.00000000000E+00 -0.15822324775E+04  0.15822324775E+04  0.25500000000E-02 0.  1.
    8880023    1    1    2    0    0  0.19188148595E+03  0.84955470227E+03  0.86779350824E+03  0.13947894020E+04  0.65864270000E+03 0.  0.
    8880022    1    1    2    0    0 -0.19188148595E+03 -0.84955470227E+03 -0.11704951898E+04  0.14669738714E+04  0.15294330000E+03 0.  0.
<mgrwt>
<rscale>  0 0.10358622E+04</rscale>
<asrwt>0</asrwt>
<pdfrwt beam="1">  1        2 0.19685089E+00 0.10919578E+04</pdfrwt>
<pdfrwt beam="2">  1       -2 0.24342038E+00 0.10919578E+04</pdfrwt>
<totfact> 0.11803034E+00</totfact>
</mgrwt>
</event>
<event>
 4    1  0.3565372E-007  0.1158661E+04  0.7818608E-02  0.9198394E-01
         -2   -1    0    0    0  501 -0.00000000000E+00  0.00000000000E+00  0.87428481313E+03  0.87428481313E+03  0.25500000000E-02 0.  1.
          2   -1    0    0  501    0  0.00000000000E+00 -0.00000000000E+00 -0.16624391486E+04  0.16624391486E+04  0.25500000000E-02 0. -1.
    8880023    1    1    2    0    0 -0.89766573266E+03 -0.32074941333E+03 -0.10201930431E+04  0.15437901428E+04  0.65864270000E+03 0.  0.
    8880022    1    1    2    0    0  0.89766573266E+03  0.32074941333E+03  0.23203870764E+03  0.99293381885E+03  0.15294330000E+03 0.  0.
<mgrwt>
<rscale>  0 0.11070024E+04</rscale>
<asrwt>0</asrwt>
<pdfrwt beam="1">  1        2 0.25575987E+00 0.11586605E+04</pdfrwt>
<pdfrwt beam="2">  1       -2 0.13450536E+00 0.11586605E+04</pdfrwt>
<totfact> 0.40059228E+00</totfact>
</mgrwt>
</event>
<event>
 4    1  0.3565372E-007  0.7197633E+03  0.7818608E-02  0.9923388E-01
          2   -1    0    0  501    0  0.00000000000E+00  0.00000000000E+00  0.51813046596E+03  0.51813046596E+03  0.25500000000E-02 0. -1.
         -2   -1    0    0    0  501 -0.00000000000E+00 -0.00000000000E+00 -0.74877933567E+03  0.74877933568E+03  0.25500000000E-02 0.  1.
    8880023    1    1    2    0    0  0.18814423642E+02  0.28964641388E+03  0.17937792199E+03  0.74177872224E+03  0.65864270000E+03 0.  0.
    8880022    1    1    2    0    0 -0.18814423642E+02 -0.28964641388E+03 -0.41002679171E+03  0.52513107940E+03  0.15294330000E+03 0.  0.
<mgrwt>
<rscale>  0 0.59141092E+03</rscale>
<asrwt>0</asrwt>
<pdfrwt beam="1">  1        2 0.79712379E-01 0.71976332E+03</pdfrwt>
<pdfrwt beam="2">  1       -2 0.11519682E+00 0.71976332E+03</pdfrwt>
<totfact> 0.35187862E+01</totfact>
</mgrwt>
</event>
<event>
 4    1  0.3565372E-007  0.6805145E+03  0.7818608E-02  0.1009034E+00
          2   -1    0    0  501    0  0.00000000000E+00  0.00000000000E+00  0.29590489661E+04  0.29590489661E+04  0.25500000000E-02 0. -1.
         -2   -1    0    0    0  501 -0.00000000000E+00 -0.00000000000E+00 -0.19131709847E+03  0.19131709849E+03  0.25500000000E-02 0.  1.
    8880023    1    1    2    0    0  0.16917933482E+03  0.25848747465E+02  0.28315157676E+04  0.29121438071E+04  0.65864270000E+03 0. -1.
    8880022    1    1    2    0    0 -0.16917933482E+03 -0.25848747465E+02 -0.63783899889E+02  0.23822225752E+03  0.15294330000E+03 0.  0.
<mgrwt>
<rscale>  0 0.51860329E+03</rscale>
<asrwt>0</asrwt>
<pdfrwt beam="1">  1        2 0.45523826E+00 0.68051452E+03</pdfrwt>
<pdfrwt beam="2">  1       -2 0.29433402E-01 0.68051452E+03</pdfrwt>
<totfact> 0.21001934E+01</totfact>
</mgrwt>
</event>
<event>
 4    1  0.3565372E-007  0.6602691E+03  0.7818608E-02  0.1023882E+00
          2   -1    0    0  501    0  0.00000000000E+00  0.00000000000E+00  0.18851278147E+04  0.18851278147E+04  0.25500000000E-02 0. -1.
         -2   -1    0    0    0  501 -0.00000000000E+00 -0.00000000000E+00 -0.20923625344E+03  0.20923625345E+03  0.25500000000E-02 0.  1.
    8880023    1    1    2    0    0 -0.17778121239E+02  0.42766535253E+02  0.17834414413E+04  0.19017409442E+04  0.65864270000E+03 0. -1.
    8880022    1    1    2    0    0  0.17778121239E+02 -0.42766535253E+02 -0.10754988009E+03  0.19262312388E+03  0.15294330000E+03 0.  0.
<mgrwt>
<rscale>  0 0.46311228E+03</rscale>
<asrwt>0</asrwt>
<pdfrwt beam="1">  1        2 0.29001968E+00 0.66026907E+03</pdfrwt>
<pdfrwt beam="2">  1       -2 0.32190191E-01 0.66026907E+03</pdfrwt>
<totfact> 0.72056140E+01</totfact>
</mgrwt>
</event>
<event>
 4    1  0.3565372E-007  0.6702291E+03  0.7818608E-02  0.1015499E+00
          2   -1    0    0  501    0  0.00000000000E+00  0.00000000000E+00  0.55711302691E+03  0.55711302692E+03  0.25500000000E-02 0. -1.
         -2   -1    0    0    0  501 -0.00000000000E+00 -0.00000000000E+00 -0.63779365586E+03  0.63779365587E+03  0.25500000000E-02 0.  1.
    8880023    1    1    2    0    0 -0.50990030024E+02 -0.11312317606E+03  0.32430793001E+03  0.74456878517E+03  0.65864270000E+03 0.  0.
    8880022    1    1    2    0    0  0.50990030024E+02  0.11312317606E+03 -0.40498855896E+03  0.45033789761E+03  0.15294330000E+03 0.  0.
<mgrwt>
<rscale>  0 0.49346382E+03</rscale>
<asrwt>0</asrwt>
<pdfrwt beam="1">  1        2 0.85709697E-01 0.67022910E+03</pdfrwt>
<pdfrwt beam="2">  1       -2 0.98122100E-01 0.67022910E+03</pdfrwt>
<totfact> 0.47682558E+01</totfact>
</mgrwt>
</event>
<event>
 4    1  0.4037458E-007  0.6756357E+03  0.7818608E-02  0.1011909E+00
         -2   -1    0    0    0  501 -0.00000000000E+00  0.00000000000E+00  0.65221195893E+03  0.65221195894E+03  0.25500000000E-02 0.  1.
          2   -1    0    0  501    0  0.00000000000E+00 -0.00000000000E+00 -0.27690081052E+04  0.27690081052E+04  0.25500000000E-02 0. -1.
    8880023    1    1    2    0    0 -0.14764517696E+03  0.29569601359E+02 -0.27086548507E+04  0.27916473212E+04  0.65864270000E+03 0. -1.
    8880022    1    1    2    0    0  0.14764517696E+03 -0.29569601359E+02  0.59185870443E+03  0.62957274292E+03  0.15294330000E+03 0.  0.
<mgrwt>
<rscale>  0 0.50723123E+03</rscale>
<asrwt>0</asrwt>
<pdfrwt beam="1">  1        2 0.42600124E+00 0.67563575E+03</pdfrwt>
<pdfrwt beam="2">  1       -2 0.10034030E+00 0.67563575E+03</pdfrwt>
<totfact> 0.21295144E+00</totfact>
</mgrwt>
</event>
<event>
 4    1  0.3565372E-007  0.1018784E+04  0.7818608E-02  0.9357385E-01
          2   -1    0    0  501    0  0.00000000000E+00  0.00000000000E+00  0.20761303339E+04  0.20761303339E+04  0.25500000000E-02 0. -1.
         -2   -1    0    0    0  501 -0.00000000000E+00 -0.00000000000E+00 -0.49793579479E+03  0.49793579480E+03  0.25500000000E-02 0.  1.
    8880023    1    1    2    0    0  0.20881427512E+03 -0.74866964150E+03  0.14492209926E+04  0.17714856266E+04  0.65864270000E+03 0.  0.
    8880022    1    1    2    0    0 -0.20881427512E+03  0.74866964150E+03  0.12897354648E+03  0.80258050207E+03  0.15294330000E+03 0.  0.
<mgrwt>
<rscale>  0 0.95667243E+03</rscale>
<asrwt>0</asrwt>
<pdfrwt beam="1">  1        2 0.31940466E+00 0.10187835E+04</pdfrwt>
<pdfrwt beam="2">  1       -2 0.76605507E-01 0.10187835E+04</pdfrwt>
<totfact> 0.92422567E+00</totfact>
</mgrwt>
</event>
<event>
 4    1  0.3565372E-007  0.7837247E+03  0.7818608E-02  0.9747159E-01
         -2   -1    0    0    0  501 -0.00000000000E+00  0.00000000000E+00  0.44566419285E+03  0.44566419286E+03  0.25500000000E-02 0.  1.
          2   -1    0    0  501    0  0.00000000000E+00 -0.00000000000E+00 -0.16009371302E+04  0.16009371302E+04  0.25500000000E-02 0. -1.
    8880023    1    1    2    0    0 -0.32145681771E+03 -0.27763235638E+03 -0.13451808057E+04  0.15568351927E+04  0.65864270000E+03 0.  0.
    8880022    1    1    2    0    0  0.32145681771E+03  0.27763235638E+03  0.18990786836E+03  0.48976613035E+03  0.15294330000E+03 0.  0.
<mgrwt>
<rscale>  0 0.68277048E+03</rscale>
<asrwt>0</asrwt>
<pdfrwt beam="1">  1        2 0.24629802E+00 0.78372471E+03</pdfrwt>
<pdfrwt beam="2">  1       -2 0.68563723E-01 0.78372471E+03</pdfrwt>
<totfact> 0.22129103E+01</totfact>
</mgrwt>
</event>
<event>
 4    1  0.3565372E-007  0.6714417E+03  0.7818608E-02  0.1014650E+00
         -2   -1    0    0    0  501 -0.00000000000E+00  0.00000000000E+00  0.27992600767E+03  0.27992600768E+03  0.25500000000E-02 0.  1.
          2   -1    0    0  501    0  0.00000000000E+00 -0.00000000000E+00 -0.12272806697E+04  0.12272806697E+04  0.25500000000E-02 0. -1.
    8880023    1    1    2    0    0  0.29825857673E+02  0.12702010475E+03 -0.10761610488E+04  0.12684464900E+04  0.65864270000E+03 0. -1.
    8880022    1    1    2    0    0 -0.29825857673E+02 -0.12702010475E+03  0.12880638675E+03  0.23876018738E+03  0.15294330000E+03 0.  0.
<mgrwt>
<rscale>  0 0.49667751E+03</rscale>
<asrwt>0</asrwt>
<pdfrwt beam="1">  1        2 0.18881241E+00 0.67144165E+03</pdfrwt>
<pdfrwt beam="2">  1       -2 0.43065540E-01 0.67144165E+03</pdfrwt>
<totfact> 0.95378564E+01</totfact>
</mgrwt>
</event>
<event>
 4    1  0.3565372E-007  0.1033758E+04  0.7818608E-02  0.9338666E-01
         -2   -1    0    0    0  501 -0.00000000000E+00  0.00000000000E+00  0.90708767772E+03  0.90708767773E+03  0.25500000000E-02 0.  1.
          2   -1    0    0  501    0  0.00000000000E+00 -0.00000000000E+00 -0.13723737644E+04  0.13723737644E+04  0.25500000000E-02 0. -1.
    8880023    1    1    2    0    0 -0.33895882600E+03  0.72107746626E+03 -0.88964561729E+03  0.13638641167E+04  0.65864270000E+03 0.  0.
    8880022    1    1    2    0    0  0.33895882600E+03 -0.72107746626E+03  0.42435953066E+03  0.91559732543E+03  0.15294330000E+03 0.  0.
<mgrwt>
<rscale>  0 0.97299822E+03</rscale>
<asrwt>0</asrwt>
<pdfrwt beam="1">  1        2 0.21113442E+00 0.10337582E+04</pdfrwt>
<pdfrwt beam="2">  1       -2 0.13955195E+00 0.10337582E+04</pdfrwt>
<totfact> 0.53746189E+00</totfact>
</mgrwt>
</event>
<event>
 4    1  0.3565372E-007  0.6743852E+03  0.7818608E-02  0.1012697E+00
          2   -1    0    0  501    0  0.00000000000E+00  0.00000000000E+00  0.23354280140E+04  0.23354280140E+04  0.25500000000E-02 0. -1.
         -2   -1    0    0    0  501 -0.00000000000E+00 -0.00000000000E+00 -0.88018121425E+02  0.88018121462E+02  0.25500000000E-02 0.  1.
    8880023    1    1    2    0    0 -0.29772644126E+02  0.14177036260E+03  0.19111969554E+04  0.20266892348E+04  0.65864270000E+03 0.  0.
    8880022    1    1    2    0    0  0.29772644126E+02 -0.14177036260E+03  0.33621293721E+03  0.39675690065E+03  0.15294330000E+03 0.  0.
<mgrwt>
<rscale>  0 0.50416845E+03</rscale>
<asrwt>0</asrwt>
<pdfrwt beam="1">  1        2 0.35929655E+00 0.67438524E+03</pdfrwt>
<pdfrwt beam="2">  1       -2 0.13541252E-01 0.67438524E+03</pdfrwt>
<totfact> 0.18752978E+02</totfact>
</mgrwt>
</event>
<event>
 4    1  0.3565372E-007  0.6801988E+03  0.7818608E-02  0.1009211E+00
         -2   -1    0    0    0  501 -0.00000000000E+00  0.00000000000E+00  0.24798016935E+03  0.24798016936E+03  0.25500000000E-02 0.  1.
          2   -1    0    0  501    0  0.00000000000E+00 -0.00000000000E+00 -0.91373295170E+03  0.91373295170E+03  0.25500000000E-02 0. -1.
    8880023    1    1    2    0    0 -0.12772760729E+03 -0.11200809248E+03 -0.63596519831E+03  0.93119390793E+03  0.65864270000E+03 0. -1.
    8880022    1    1    2    0    0  0.12772760729E+03  0.11200809248E+03 -0.29787584039E+02  0.23051921314E+03  0.15294330000E+03 0.  0.
<mgrwt>
<rscale>  0 0.51789241E+03</rscale>
<asrwt>0</asrwt>
<pdfrwt beam="1">  1        2 0.14057430E+00 0.68019877E+03</pdfrwt>
<pdfrwt beam="2">  1       -2 0.38150796E-01 0.68019877E+03</pdfrwt>
<totfact> 0.18885452E+02</totfact>
</mgrwt>
</event>
<event>
 4    1  0.3565372E-007  0.6858880E+03  0.7818608E-02  0.1006172E+00
         -2   -1    0    0    0  501 -0.00000000000E+00  0.00000000000E+00  0.10659841630E+03  0.10659841633E+03  0.25500000000E-02 0.  1.
          2   -1    0    0  501    0  0.00000000000E+00 -0.00000000000E+00 -0.20850087208E+04  0.20850087208E+04  0.25500000000E-02 0. -1.
    8880023    1    1    2    0    0 -0.19137375268E+03 -0.28588396619E+01 -0.15999171128E+04  0.17407403770E+04  0.65864270000E+03 0.  1.
    8880022    1    1    2    0    0  0.19137375268E+03  0.28588396619E+01 -0.37849319169E+03  0.45086676008E+03  0.15294330000E+03 0. -1.
<mgrwt>
<rscale>  0 0.53024950E+03</rscale>
<asrwt>0</asrwt>
<pdfrwt beam="1">  1        2 0.32077054E+00 0.68588796E+03</pdfrwt>
<pdfrwt beam="2">  1       -2 0.16399758E-01 0.68588796E+03</pdfrwt>
<totfact> 0.18617215E+02</totfact>
</mgrwt>
</event>
<event>
 4    1  0.3565372E-007  0.6801874E+03  0.7818608E-02  0.1009218E+00
          2   -1    0    0  501    0  0.00000000000E+00  0.00000000000E+00  0.59539275258E+03  0.59539275259E+03  0.25500000000E-02 0. -1.
         -2   -1    0    0    0  501 -0.00000000000E+00 -0.00000000000E+00 -0.45406574058E+03  0.45406574059E+03  0.25500000000E-02 0.  1.
    8880023    1    1    2    0    0  0.15862493814E+03 -0.60686023084E+02  0.32726662631E+03  0.75482336699E+03  0.65864270000E+03 0.  0.
    8880022    1    1    2    0    0 -0.15862493814E+03  0.60686023084E+02 -0.18593961431E+03  0.29463512618E+03  0.15294330000E+03 0.  0.
<mgrwt>
<rscale>  0 0.51786671E+03</rscale>
<asrwt>0</asrwt>
<pdfrwt beam="1">  1        2 0.91598884E-01 0.68018738E+03</pdfrwt>
<pdfrwt beam="2">  1       -2 0.69856268E-01 0.68018738E+03</pdfrwt>
<totfact> 0.94960010E+01</totfact>
</mgrwt>
</event>
<event>
 4    1  0.3565372E-007  0.8338314E+03  0.7818608E-02  0.9641923E-01
          2   -1    0    0  501    0  0.00000000000E+00  0.00000000000E+00  0.38176485364E+03  0.38176485365E+03  0.25500000000E-02 0. -1.
         -2   -1    0    0    0  501 -0.00000000000E+00 -0.00000000000E+00 -0.12694381695E+04  0.12694381695E+04  0.25500000000E-02 0.  1.
    8880023    1    1    2    0    0 -0.40209523965E+03  0.31588608439E+03 -0.68914615912E+03  0.10817565507E+04  0.65864270000E+03 0. -1.
    8880022    1    1    2    0    0  0.40209523965E+03 -0.31588608439E+03 -0.19852715678E+03  0.56944647251E+03  0.15294330000E+03 0.  0.
<mgrwt>
<rscale>  0 0.74582494E+03</rscale>
<asrwt>0</asrwt>
<pdfrwt beam="1">  1        2 0.58733055E-01 0.83383140E+03</pdfrwt>
<pdfrwt beam="2">  1       -2 0.19529818E+00 0.83383140E+03</pdfrwt>
<totfact> 0.12092176E+01</totfact>
</mgrwt>
</event>
<event>
 4    1  0.3565372E-007  0.8557244E+03  0.7818608E-02  0.9601215E-01
         -2   -1    0    0    0  501 -0.00000000000E+00  0.00000000000E+00  0.27131991693E+03  0.27131991694E+03  0.25500000000E-02 0.  1.
          2   -1    0    0  501    0  0.00000000000E+00 -0.00000000000E+00 -0.18671705113E+04  0.18671705113E+04  0.25500000000E-02 0. -1.
    8880023    1    1    2    0    0  0.53963424437E+03  0.85141051320E+02 -0.93238495406E+03  0.12655457420E+04  0.65864270000E+03 0. -1.
    8880022    1    1    2    0    0 -0.53963424437E+03 -0.85141051320E+02 -0.66346564026E+03  0.87294468618E+03  0.15294330000E+03 0.  1.
<mgrwt>
<rscale>  0 0.77215845E+03</rscale>
<asrwt>0</asrwt>
<pdfrwt beam="1">  1        2 0.28725699E+00 0.85572444E+03</pdfrwt>
<pdfrwt beam="2">  1       -2 0.41741527E-01 0.85572444E+03</pdfrwt>
<totfact> 0.43764355E+01</totfact>
</mgrwt>
</event>
<event>
 4    1  0.3565372E-007  0.6803184E+03  0.7818608E-02  0.1009144E+00
         -2   -1    0    0    0  501 -0.00000000000E+00  0.00000000000E+00  0.11562101813E+03  0.11562101816E+03  0.25500000000E-02 0.  1.
          2   -1    0    0  501    0  0.00000000000E+00 -0.00000000000E+00 -0.17971071691E+04  0.17971071691E+04  0.25500000000E-02 0. -1.
    8880023    1    1    2    0    0 -0.18851049513E+02 -0.16931488885E+03 -0.13162168426E+04  0.14816409405E+04  0.65864270000E+03 0.  0.
    8880022    1    1    2    0    0  0.18851049513E+02  0.16931488885E+03 -0.36526930840E+03  0.43108724677E+03  0.15294330000E+03 0. -1.
<mgrwt>
<rscale>  0 0.51816209E+03</rscale>
<asrwt>0</asrwt>
<pdfrwt beam="1">  1        2 0.27647801E+00 0.68031838E+03</pdfrwt>
<pdfrwt beam="2">  1       -2 0.17787850E-01 0.68031838E+03</pdfrwt>
<totfact> 0.23242372E+02</totfact>
</mgrwt>
</event>
<event>
 4    1  0.3565372E-007  0.6887560E+03  0.7818608E-02  0.1004749E+00
         -2   -1    0    0    0  501 -0.00000000000E+00  0.00000000000E+00  0.16918041513E+04  0.16918041513E+04  0.25500000000E-02 0.  1.
          2   -1    0    0  501    0  0.00000000000E+00 -0.00000000000E+00 -0.46092006662E+03  0.46092006663E+03  0.25500000000E-02 0. -1.
    8880023    1    1    2    0    0  0.39869587688E+02  0.19744645617E+03 -0.18601226604E+03  0.71343216668E+03  0.65864270000E+03 0. -1.
    8880022    1    1    2    0    0 -0.39869587688E+02 -0.19744645617E+03  0.14168963507E+04  0.14392920512E+04  0.15294330000E+03 0.  0.
<mgrwt>
<rscale>  0 0.53615827E+03</rscale>
<asrwt>0</asrwt>
<pdfrwt beam="1">  1        2 0.70910779E-01 0.68875605E+03</pdfrwt>
<pdfrwt beam="2">  1       -2 0.26027756E+00 0.68875605E+03</pdfrwt>
<totfact> 0.39114734E+00</totfact>
</mgrwt>
</event>
<event>
 4    1  0.3565372E-007  0.6679589E+03  0.7818608E-02  0.1017170E+00
          2   -1    0    0  501    0  0.00000000000E+00  0.00000000000E+00  0.20857784675E+04  0.20857784675E+04  0.25500000000E-02 0. -1.
         -2   -1    0    0    0  501 -0.00000000000E+00 -0.00000000000E+00 -0.54065277368E+03  0.54065277369E+03  0.25500000000E-02 0.  1.
    8880023    1    1    2    0    0 -0.55307909286E+02  0.96436269129E+02  0.20134621712E+04  0.21213672572E+04  0.65864270000E+03 0. -1.
    8880022    1    1    2    0    0  0.55307909286E+02 -0.96436269129E+02 -0.46833647739E+03  0.50506398397E+03  0.15294330000E+03 0.  0.
<mgrwt>
<rscale>  0 0.48721729E+03</rscale>
<asrwt>0</asrwt>
<pdfrwt beam="1">  1        2 0.32088900E+00 0.66795892E+03</pdfrwt>
<pdfrwt beam="2">  1       -2 0.83177348E-01 0.66795892E+03</pdfrwt>
<totfact> 0.79710650E+00</totfact>
</mgrwt>
</event>
<event>
 4    1  0.3565372E-007  0.9150861E+03  0.7818608E-02  0.9502235E-01
          2   -1    0    0  501    0  0.00000000000E+00  0.00000000000E+00  0.21079235472E+04  0.21079235472E+04  0.25500000000E-02 0. -1.
         -2   -1    0    0    0  501 -0.00000000000E+00 -0.00000000000E+00 -0.45588246221E+03  0.45588246221E+03  0.25500000000E-02 0.  1.
    8880023    1    1    2    0    0  0.54551522447E+03  0.32555420365E+03  0.16764350764E+04  0.19099259597E+04  0.65864270000E+03 0. -1.
    8880022    1    1    2    0    0 -0.54551522447E+03 -0.32555420365E+03 -0.24393991431E+02  0.65388004976E+03  0.15294330000E+03 0.  1.
<mgrwt>
<rscale>  0 0.84119250E+03</rscale>
<asrwt>0</asrwt>
<pdfrwt beam="1">  1        2 0.32429592E+00 0.91508612E+03</pdfrwt>
<pdfrwt beam="2">  1       -2 0.70135765E-01 0.91508612E+03</pdfrwt>
<totfact> 0.10923364E+01</totfact>
</mgrwt>
</event>
<event>
 4    1  0.3565372E-007  0.7269172E+03  0.7818608E-02  0.9899840E-01
         -2   -1    0    0    0  501 -0.00000000000E+00  0.00000000000E+00  0.21774444849E+03  0.21774444851E+03  0.25500000000E-02 0.  1.
          2   -1    0    0  501    0  0.00000000000E+00 -0.00000000000E+00 -0.24369817768E+04  0.24369817768E+04  0.25500000000E-02 0. -1.
    8880023    1    1    2    0    0 -0.22998645174E+03 -0.20421727044E+03 -0.21928758291E+04  0.23102192687E+04  0.65864270000E+03 0. -1.
    8880022    1    1    2    0    0  0.22998645174E+03  0.20421727044E+03 -0.26361499306E+02  0.34450695667E+03  0.15294330000E+03 0.  0.
<mgrwt>
<rscale>  0 0.60269061E+03</rscale>
<asrwt>0</asrwt>
<pdfrwt beam="1">  1        2 0.37492025E+00 0.72691724E+03</pdfrwt>
<pdfrwt beam="2">  1       -2 0.33499148E-01 0.72691724E+03</pdfrwt>
<totfact> 0.32942991E+01</totfact>
</mgrwt>
</event>
<event>
 4    1  0.3565372E-007  0.6694464E+03  0.7818608E-02  0.1016063E+00
         -2   -1    0    0    0  501 -0.00000000000E+00  0.00000000000E+00  0.18203055142E+03  0.18203055144E+03  0.25500000000E-02 0.  1.
          2   -1    0    0  501    0  0.00000000000E+00 -0.00000000000E+00 -0.20733034535E+04  0.20733034535E+04  0.25500000000E-02 0. -1.
    8880023    1    1    2    0    0 -0.11270871635E+03 -0.40559326810E+02 -0.19423377245E+04  0.20544669275E+04  0.65864270000E+03 0. -1.
    8880022    1    1    2    0    0  0.11270871635E+03  0.40559326810E+02  0.51064822381E+02  0.20086707752E+03  0.15294330000E+03 0.  0.
<mgrwt>
<rscale>  0 0.49134559E+03</rscale>
<asrwt>0</asrwt>
<pdfrwt beam="1">  1        2 0.31896975E+00 0.66944643E+03</pdfrwt>
<pdfrwt beam="2">  1       -2 0.28004702E-01 0.66944643E+03</pdfrwt>
<totfact> 0.73616456E+01</totfact>
</mgrwt>
</event>
<event>
 4    1  0.3565372E-007  0.7902534E+03  0.7818608E-02  0.9732280E-01
         -2   -1    0    0    0  501 -0.00000000000E+00  0.00000000000E+00  0.38739543167E+03  0.38739543168E+03  0.25500000000E-02 0.  1.
          2   -1    0    0  501    0  0.00000000000E+00 -0.00000000000E+00 -0.14383025693E+04  0.14383025693E+04  0.25500000000E-02 0. -1.
    8880023    1    1    2    0    0  0.23277475546E+02  0.43606009392E+03 -0.11064558214E+04  0.13596856024E+04  0.65864270000E+03 0.  0.
    8880022    1    1    2    0    0 -0.23277475546E+02 -0.43606009392E+03  0.55548683747E+02  0.46601239861E+03  0.15294330000E+03 0.  0.
<mgrwt>
<rscale>  0 0.69126931E+03</rscale>
<asrwt>0</asrwt>
<pdfrwt beam="1">  1        2 0.22127732E+00 0.79025341E+03</pdfrwt>
<pdfrwt beam="2">  1       -2 0.59599298E-01 0.79025341E+03</pdfrwt>
<totfact> 0.36775819E+01</totfact>
</mgrwt>
</event>
<event>
 4    1  0.3565372E-007  0.7345726E+03  0.7818608E-02  0.9876048E-01
         -2   -1    0    0    0  501 -0.00000000000E+00  0.00000000000E+00  0.44637078309E+03  0.44637078310E+03  0.25500000000E-02 0.  1.
          2   -1    0    0  501    0  0.00000000000E+00 -0.00000000000E+00 -0.97031981200E+03  0.97031981201E+03  0.25500000000E-02 0. -1.
    8880023    1    1    2    0    0  0.24161251992E+03 -0.21773860648E+03 -0.70157695367E+03  0.10157790797E+04  0.65864270000E+03 0. -1.
    8880022    1    1    2    0    0 -0.24161251992E+03  0.21773860648E+03  0.17762792476E+03  0.40091151543E+03  0.15294330000E+03 0.  0.
<mgrwt>
<rscale>  0 0.61436260E+03</rscale>
<asrwt>0</asrwt>
<pdfrwt beam="1">  1        2 0.14927997E+00 0.73457261E+03</pdfrwt>
<pdfrwt beam="2">  1       -2 0.68672428E-01 0.73457261E+03</pdfrwt>
<totfact> 0.51872079E+01</totfact>
</mgrwt>
</event>
<event>
 4    1  0.3565372E-007  0.7013106E+03  0.7818608E-02  0.9991807E-01
         -2   -1    0    0    0  501 -0.00000000000E+00  0.00000000000E+00  0.43254324848E+03  0.43254324849E+03  0.25500000000E-02 0.  1.
          2   -1    0    0  501    0  0.00000000000E+00 -0.00000000000E+00 -0.74098960611E+03  0.74098960612E+03  0.25500000000E-02 0. -1.
    8880023    1    1    2    0    0 -0.11049503784E+02  0.24063316715E+03 -0.47132833524E+03  0.84497752546E+03  0.65864270000E+03 0. -1.
    8880022    1    1    2    0    0  0.11049503784E+02 -0.24063316715E+03  0.16288197761E+03  0.32855532915E+03  0.15294330000E+03 0.  0.
<mgrwt>
<rscale>  0 0.56010948E+03</rscale>
<asrwt>0</asrwt>
<pdfrwt beam="1">  1        2 0.11399840E+00 0.70131064E+03</pdfrwt>
<pdfrwt beam="2">  1       -2 0.66545115E-01 0.70131064E+03</pdfrwt>
<totfact> 0.80314912E+01</totfact>
</mgrwt>
</event>
<event>
 4    1  0.3565372E-007  0.7191611E+03  0.7818608E-02  0.9925435E-01
         -2   -1    0    0    0  501 -0.00000000000E+00  0.00000000000E+00  0.64891188353E+03  0.64891188353E+03  0.25500000000E-02 0.  1.
          2   -1    0    0  501    0  0.00000000000E+00 -0.00000000000E+00 -0.63149352008E+03  0.63149352009E+03  0.25500000000E-02 0. -1.
    8880023    1    1    2    0    0  0.22727797292E+03 -0.17812120661E+03 -0.34055579120E+03  0.79572036194E+03  0.65864270000E+03 0. -1.
    8880022    1    1    2    0    0 -0.22727797292E+03  0.17812120661E+03  0.35797415465E+03  0.48468504168E+03  0.15294330000E+03 0.  0.
<mgrwt>
<rscale>  0 0.59044285E+03</rscale>
<asrwt>0</asrwt>
<pdfrwt beam="1">  1        2 0.97152849E-01 0.71916107E+03</pdfrwt>
<pdfrwt beam="2">  1       -2 0.99832598E-01 0.71916107E+03</pdfrwt>
<totfact> 0.39226339E+01</totfact>
</mgrwt>
</event>
<event>
 4    1  0.3565372E-007  0.7257443E+03  0.7818608E-02  0.9903608E-01
         -2   -1    0    0    0  501 -0.00000000000E+00  0.00000000000E+00  0.16710589435E+04  0.16710589435E+04  0.25500000000E-02 0.  1.
          2   -1    0    0  501    0  0.00000000000E+00 -0.00000000000E+00 -0.54486687757E+03  0.54486687758E+03  0.25500000000E-02 0. -1.
    8880023    1    1    2    0    0  0.26468320691E+03 -0.15112035402E+03 -0.27329137545E+03  0.77549528921E+03  0.65864270000E+03 0. -1.
    8880022    1    1    2    0    0 -0.26468320691E+03  0.15112035402E+03  0.13994834414E+04  0.14404305319E+04  0.15294330000E+03 0.  0.
<mgrwt>
<rscale>  0 0.60086755E+03</rscale>
<asrwt>0</asrwt>
<pdfrwt beam="1">  1        2 0.83825674E-01 0.72574429E+03</pdfrwt>
<pdfrwt beam="2">  1       -2 0.25708599E+00 0.72574429E+03</pdfrwt>
<totfact> 0.33485122E+00</totfact>
</mgrwt>
</event>
<event>
 4    1  0.3565372E-007  0.7238072E+03  0.7818608E-02  0.9909908E-01
         -2   -1    0    0    0  501 -0.00000000000E+00  0.00000000000E+00  0.52529362798E+03  0.52529362799E+03  0.25500000000E-02 0.  1.
          2   -1    0    0  501    0  0.00000000000E+00 -0.00000000000E+00 -0.64491091262E+03  0.64491091263E+03  0.25500000000E-02 0. -1.
    8880023    1    1    2    0    0  0.25659188015E+03  0.15571528720E+03 -0.30529231197E+03  0.78555728349E+03  0.65864270000E+03 0. -1.
    8880022    1    1    2    0    0 -0.25659188015E+03 -0.15571528720E+03  0.18567502733E+03  0.38464725713E+03  0.15294330000E+03 0.  0.
<mgrwt>
<rscale>  0 0.59783491E+03</rscale>
<asrwt>0</asrwt>
<pdfrwt beam="1">  1        2 0.99217064E-01 0.72380719E+03</pdfrwt>
<pdfrwt beam="2">  1       -2 0.80814404E-01 0.72380719E+03</pdfrwt>
<totfact> 0.62213472E+01</totfact>
</mgrwt>
</event>
<event>
 4    1  0.3565372E-007  0.7235512E+03  0.7818608E-02  0.9910748E-01
          2   -1    0    0  501    0  0.00000000000E+00  0.00000000000E+00  0.21465076903E+04  0.21465076903E+04  0.25500000000E-02 0. -1.
         -2   -1    0    0    0  501 -0.00000000000E+00 -0.00000000000E+00 -0.27129137571E+03  0.27129137572E+03  0.25500000000E-02 0.  1.
    8880023    1    1    2    0    0  0.14729849512E+03 -0.26080496523E+03  0.19442077142E+04  0.20744806383E+04  0.65864270000E+03 0. -1.
    8880022    1    1    2    0    0 -0.14729849512E+03  0.26080496523E+03 -0.68991399615E+02  0.34331842769E+03  0.15294330000E+03 0.  0.
<mgrwt>
<rscale>  0 0.59743198E+03</rscale>
<asrwt>0</asrwt>
<pdfrwt beam="1">  1        2 0.33023196E+00 0.72355116E+03</pdfrwt>
<pdfrwt beam="2">  1       -2 0.41737134E-01 0.72355116E+03</pdfrwt>
<totfact> 0.31277637E+01</totfact>
</mgrwt>
</event>
<event>
 4    1  0.3565372E-007  0.6638971E+03  0.7818608E-02  0.1020477E+00
         -2   -1    0    0    0  501 -0.00000000000E+00  0.00000000000E+00  0.92328602399E+03  0.92328602400E+03  0.25500000000E-02 0.  1.
          2   -1    0    0  501    0  0.00000000000E+00 -0.00000000000E+00 -0.13995353385E+04  0.13995353385E+04  0.25500000000E-02 0. -1.
    8880023    1    1    2    0    0  0.14188760470E+02 -0.82145404391E+02 -0.13113065933E+04  0.14697905892E+04  0.65864270000E+03 0. -1.
    8880022    1    1    2    0    0 -0.14188760470E+02  0.82145404391E+02  0.83505727874E+03  0.85303077329E+03  0.15294330000E+03 0.  0.
<mgrwt>
<rscale>  0 0.47514815E+03</rscale>
<asrwt>0</asrwt>
<pdfrwt beam="1">  1        2 0.21531313E+00 0.66389713E+03</pdfrwt>
<pdfrwt beam="2">  1       -2 0.14204400E+00 0.66389713E+03</pdfrwt>
<totfact> 0.51984679E+00</totfact>
</mgrwt>
</event>
<event>
 4    1  0.3565372E-007  0.1120166E+04  0.7818608E-02  0.9238929E-01
         -2   -1    0    0    0  501 -0.00000000000E+00  0.00000000000E+00  0.18183324288E+04  0.18183324288E+04  0.25500000000E-02 0.  1.
          2   -1    0    0  501    0  0.00000000000E+00 -0.00000000000E+00 -0.10914053581E+04  0.10914053581E+04  0.25500000000E-02 0. -1.
    8880023    1    1    2    0    0 -0.89661036484E+03  0.13057953812E+03 -0.61917996470E+03  0.12799043703E+04  0.65864270000E+03 0.  0.
    8880022    1    1    2    0    0  0.89661036484E+03 -0.13057953812E+03  0.13461070354E+04  0.16298334166E+04  0.15294330000E+03 0.  0.
<mgrwt>
<rscale>  0 0.10660491E+04</rscale>
<asrwt>0</asrwt>
<pdfrwt beam="1">  1        2 0.16790852E+00 0.11201658E+04</pdfrwt>
<pdfrwt beam="2">  1       -2 0.27974345E+00 0.11201658E+04</pdfrwt>
<totfact> 0.91816278E-01</totfact>
</mgrwt>
</event>
<event>
 4    1  0.3565372E-007  0.8997952E+03  0.7818608E-02  0.9526360E-01
          2   -1    0    0  501    0  0.00000000000E+00  0.00000000000E+00  0.16942142711E+04  0.16942142711E+04  0.25500000000E-02 0. -1.
         -2   -1    0    0    0  501 -0.00000000000E+00 -0.00000000000E+00 -0.40887713823E+03  0.40887713823E+03  0.25500000000E-02 0.  1.
    8880023    1    1    2    0    0  0.55352131907E+03  0.26350585599E+03  0.33139722352E+03  0.95888242909E+03  0.65864270000E+03 0.  0.
    8880022    1    1    2    0    0 -0.55352131907E+03 -0.26350585599E+03  0.95393990936E+03  0.11442089802E+04  0.15294330000E+03 0.  0.
<mgrwt>
<rscale>  0 0.82367961E+03</rscale>
<asrwt>0</asrwt>
<pdfrwt beam="1">  1        2 0.26064835E+00 0.89979520E+03</pdfrwt>
<pdfrwt beam="2">  1       -2 0.62904175E-01 0.89979520E+03</pdfrwt>
<totfact> 0.23369030E+01</totfact>
</mgrwt>
</event>
<event>
 4    1  0.3565372E-007  0.7797797E+03  0.7818608E-02  0.9756355E-01
          2   -1    0    0  501    0  0.00000000000E+00  0.00000000000E+00  0.20101962195E+04  0.20101962195E+04  0.25500000000E-02 0. -1.
         -2   -1    0    0    0  501 -0.00000000000E+00 -0.00000000000E+00 -0.76368002278E+03  0.76368002279E+03  0.25500000000E-02 0.  1.
    8880023    1    1    2    0    0 -0.65037238631E+02  0.41233029400E+03  0.18596565093E+04  0.20165263828E+04  0.65864270000E+03 0. -1.
    8880022    1    1    2    0    0  0.65037238631E+02 -0.41233029400E+03 -0.61314031256E+03  0.75734985949E+03  0.15294330000E+03 0.  0.
<mgrwt>
<rscale>  0 0.67758326E+03</rscale>
<asrwt>0</asrwt>
<pdfrwt beam="1">  1        2 0.30926096E+00 0.77977966E+03</pdfrwt>
<pdfrwt beam="2">  1       -2 0.11748923E+00 0.77977966E+03</pdfrwt>
<totfact> 0.38059243E+00</totfact>
</mgrwt>
</event>
<event>
 4    1  0.3565372E-007  0.8071291E+03  0.7818608E-02  0.9695588E-01
         -2   -1    0    0    0  501 -0.00000000000E+00  0.00000000000E+00  0.20725179107E+03  0.20725179108E+03  0.25500000000E-02 0.  1.
          2   -1    0    0  501    0  0.00000000000E+00 -0.00000000000E+00 -0.32751279275E+04  0.32751279275E+04  0.25500000000E-02 0. -1.
    8880023    1    1    2    0    0 -0.10152258931E+03  0.45534638482E+03 -0.28183578991E+04  0.29316545874E+04  0.65864270000E+03 0. -1.
    8880022    1    1    2    0    0  0.10152258931E+03 -0.45534638482E+03 -0.24951823732E+03  0.55072513115E+03  0.15294330000E+03 0.  0.
<mgrwt>
<rscale>  0 0.71280071E+03</rscale>
<asrwt>0</asrwt>
<pdfrwt beam="1">  1        2 0.50386580E+00 0.80712909E+03</pdfrwt>
<pdfrwt beam="2">  1       -2 0.31884893E-01 0.80712909E+03</pdfrwt>
<totfact> 0.11221475E+01</totfact>
</mgrwt>
</event>
<event>
 4    1  0.3565372E-007  0.9266300E+03  0.7818608E-02  0.9484567E-01
          2   -1    0    0  501    0  0.00000000000E+00  0.00000000000E+00  0.17047181077E+04  0.17047181077E+04  0.25500000000E-02 0. -1.
         -2   -1    0    0    0  501 -0.00000000000E+00 -0.00000000000E+00 -0.56782221152E+03  0.56782221152E+03  0.25500000000E-02 0.  1.
    8880023    1    1    2    0    0  0.47087190198E+03 -0.45068025002E+03  0.12875285058E+04  0.15863079447E+04  0.65864270000E+03 0.  0.
    8880022    1    1    2    0    0 -0.47087190198E+03  0.45068025002E+03 -0.15063260958E+03  0.68623237458E+03  0.15294330000E+03 0.  0.
<mgrwt>
<rscale>  0 0.85431249E+03</rscale>
<asrwt>0</asrwt>
<pdfrwt beam="1">  1        2 0.26226433E+00 0.92663005E+03</pdfrwt>
<pdfrwt beam="2">  1       -2 0.87357263E-01 0.92663005E+03</pdfrwt>
<totfact> 0.11100477E+01</totfact>
</mgrwt>
</event>
<event>
 4    1  0.3565372E-007  0.1148059E+04  0.7818608E-02  0.9209345E-01
          2   -1    0    0  501    0  0.00000000000E+00  0.00000000000E+00  0.41651903603E+04  0.41651903603E+04  0.25500000000E-02 0. -1.
         -2   -1    0    0    0  501 -0.00000000000E+00 -0.00000000000E+00 -0.57705571935E+03  0.57705571935E+03  0.25500000000E-02 0.  1.
    8880023    1    1    2    0    0 -0.87513768231E+03  0.34403968286E+03  0.13013444086E+03  0.11554109422E+04  0.65864270000E+03 0.  0.
    8880022    1    1    2    0    0  0.87513768231E+03 -0.34403968286E+03  0.34580002001E+04  0.35868351375E+04  0.15294330000E+03 0.  0.
<mgrwt>
<rscale>  0 0.10957493E+04</rscale>
<asrwt>0</asrwt>
<pdfrwt beam="1">  1        2 0.64079852E+00 0.11480590E+04</pdfrwt>
<pdfrwt beam="2">  1       -2 0.88777802E-01 0.11480590E+04</pdfrwt>
<totfact> 0.27978158E-01</totfact>
</mgrwt>
</event>
<event>
 4    1  0.3565372E-007  0.9164747E+03  0.7818608E-02  0.9500086E-01
         -2   -1    0    0    0  501 -0.00000000000E+00  0.00000000000E+00  0.34766242209E+04  0.34766242209E+04  0.25500000000E-02 0.  1.
          2   -1    0    0  501    0  0.00000000000E+00 -0.00000000000E+00 -0.92230026719E+03  0.92230026720E+03  0.25500000000E-02 0. -1.
    8880023    1    1    2    0    0 -0.55674342047E+03 -0.31008449933E+03 -0.65300802540E+03  0.11253200969E+04  0.65864270000E+03 0. -1.
    8880022    1    1    2    0    0  0.55674342047E+03  0.31008449933E+03  0.32073319792E+04  0.32736043913E+04  0.15294330000E+03 0.  0.
<mgrwt>
<rscale>  0 0.84277505E+03</rscale>
<asrwt>0</asrwt>
<pdfrwt beam="1">  1        2 0.14189235E+00 0.91647468E+03</pdfrwt>
<pdfrwt beam="2">  1       -2 0.53486526E+00 0.91647468E+03</pdfrwt>
<totfact> 0.29506544E-02</totfact>
</mgrwt>
</event>
<event>
 4    1  0.3565372E-007  0.9158580E+03  0.7818608E-02  0.9501039E-01
          2   -1    0    0  501    0  0.00000000000E+00  0.00000000000E+00  0.18327333737E+04  0.18327333737E+04  0.25500000000E-02 0. -1.
         -2   -1    0    0    0  501 -0.00000000000E+00 -0.00000000000E+00 -0.47968870091E+03  0.47968870091E+03  0.25500000000E-02 0.  1.
    8880023    1    1    2    0    0  0.64896117618E+02  0.63306728727E+03  0.13812590495E+04  0.16573088017E+04  0.65864270000E+03 0. -1.
    8880022    1    1    2    0    0 -0.64896117618E+02 -0.63306728727E+03 -0.28214376636E+02  0.65511327292E+03  0.15294330000E+03 0.  0.
<mgrwt>
<rscale>  0 0.84207238E+03</rscale>
<asrwt>0</asrwt>
<pdfrwt beam="1">  1        2 0.28195898E+00 0.91585801E+03</pdfrwt>
<pdfrwt beam="2">  1       -2 0.73798261E-01 0.91585801E+03</pdfrwt>
<totfact> 0.13829521E+01</totfact>
</mgrwt>
</event>
<event>
 4    1  0.3565372E-007  0.1028742E+04  0.7818608E-02  0.9344885E-01
          2   -1    0    0  501    0  0.00000000000E+00  0.00000000000E+00  0.15323946327E+04  0.15323946327E+04  0.25500000000E-02 0. -1.
         -2   -1    0    0    0  501 -0.00000000000E+00 -0.00000000000E+00 -0.12687004633E+04  0.12687004633E+04  0.25500000000E-02 0.  1.
    8880023    1    1    2    0    0  0.18251084606E+03  0.76888798758E+03  0.11905987090E+04  0.15734784519E+04  0.65864270000E+03 0. -1.
    8880022    1    1    2    0    0 -0.18251084606E+03 -0.76888798758E+03 -0.92690453965E+03  0.12276166442E+04  0.15294330000E+03 0.  0.
<mgrwt>
<rscale>  0 0.96753663E+03</rscale>
<asrwt>0</asrwt>
<pdfrwt beam="1">  1        2 0.23575302E+00 0.10287415E+04</pdfrwt>
<pdfrwt beam="2">  1       -2 0.19518469E+00 0.10287415E+04</pdfrwt>
<totfact> 0.17240802E+00</totfact>
</mgrwt>
</event>
<event>
 4    1  0.3565372E-007  0.8553535E+03  0.7818608E-02  0.9601883E-01
         -2   -1    0    0    0  501 -0.00000000000E+00  0.00000000000E+00  0.21720468905E+04  0.21720468905E+04  0.25500000000E-02 0.  1.
          2   -1    0    0  501    0  0.00000000000E+00 -0.00000000000E+00 -0.44071095949E+03  0.44071095950E+03  0.25500000000E-02 0. -1.
    8880023    1    1    2    0    0  0.54252265744E+03  0.59064374356E+02  0.70929809852E+02  0.85828939079E+03  0.65864270000E+03 0. -1.
    8880022    1    1    2    0    0 -0.54252265744E+03 -0.59064374356E+02  0.16604061212E+04  0.17544684592E+04  0.15294330000E+03 0.  0.
<mgrwt>
<rscale>  0 0.77171697E+03</rscale>
<asrwt>0</asrwt>
<pdfrwt beam="1">  1        2 0.67801687E-01 0.85535352E+03</pdfrwt>
<pdfrwt beam="2">  1       -2 0.33416105E+00 0.85535352E+03</pdfrwt>
<totfact> 0.14385282E+00</totfact>
</mgrwt>
</event>
<event>
 4    1  0.3565372E-007  0.6720525E+03  0.7818608E-02  0.1014232E+00
         -2   -1    0    0    0  501 -0.00000000000E+00  0.00000000000E+00  0.39845476904E+03  0.39845476905E+03  0.25500000000E-02 0.  1.
          2   -1    0    0  501    0  0.00000000000E+00 -0.00000000000E+00 -0.86078300556E+03  0.86078300557E+03  0.25500000000E-02 0. -1.
    8880023    1    1    2    0    0 -0.13148267358E+03  0.23592842085E+02 -0.68379552250E+03  0.95876526768E+03  0.65864270000E+03 0. -1.
    8880022    1    1    2    0    0  0.13148267358E+03 -0.23592842085E+02  0.22146728599E+03  0.30047250694E+03  0.15294330000E+03 0.  0.
<mgrwt>
<rscale>  0 0.49826675E+03</rscale>
<asrwt>0</asrwt>
<pdfrwt beam="1">  1        2 0.13242815E+00 0.67205247E+03</pdfrwt>
<pdfrwt beam="2">  1       -2 0.61300734E-01 0.67205247E+03</pdfrwt>
<totfact> 0.78698406E+01</totfact>
</mgrwt>
</event>
<event>
 4    1  0.3565372E-007  0.7880824E+03  0.7818608E-02  0.9737183E-01
         -2   -1    0    0    0  501 -0.00000000000E+00  0.00000000000E+00  0.15740754547E+04  0.15740754547E+04  0.25500000000E-02 0.  1.
          2   -1    0    0  501    0  0.00000000000E+00 -0.00000000000E+00 -0.39260447265E+03  0.39260447266E+03  0.25500000000E-02 0. -1.
    8880023    1    1    2    0    0 -0.11244196964E+03 -0.41787608928E+03  0.10322490581E+03  0.79481394676E+03  0.65864270000E+03 0.  0.
    8880022    1    1    2    0    0  0.11244196964E+03  0.41787608928E+03  0.10782460762E+04  0.11718659806E+04  0.15294330000E+03 0.  0.
<mgrwt>
<rscale>  0 0.68845452E+03</rscale>
<asrwt>0</asrwt>
<pdfrwt beam="1">  1        2 0.60400688E-01 0.78808237E+03</pdfrwt>
<pdfrwt beam="2">  1       -2 0.24216545E+00 0.78808237E+03</pdfrwt>
<totfact> 0.59613138E+00</totfact>
</mgrwt>
</event>
<event>
 4    1  0.3565372E-007  0.7675497E+03  0.7818608E-02  0.9785940E-01
         -2   -1    0    0    0  501 -0.00000000000E+00  0.00000000000E+00  0.26711460432E+03  0.26711460433E+03  0.25500000000E-02 0.  1.
          2   -1    0    0  501    0  0.00000000000E+00 -0.00000000000E+00 -0.13620055737E+04  0.13620055737E+04  0.25500000000E-02 0. -1.
    8880023    1    1    2    0    0  0.32843165429E+03 -0.21784177223E+03 -0.57497092481E+03  0.95902250230E+03  0.65864270000E+03 0.  0.
    8880022    1    1    2    0    0 -0.32843165429E+03  0.21784177223E+03 -0.51992004459E+03  0.67009767576E+03  0.15294330000E+03 0.  1.
<mgrwt>
<rscale>  0 0.66122571E+03</rscale>
<asrwt>0</asrwt>
<pdfrwt beam="1">  1        2 0.20953931E+00 0.76754973E+03</pdfrwt>
<pdfrwt beam="2">  1       -2 0.41094555E-01 0.76754973E+03</pdfrwt>
<totfact> 0.86702538E+01</totfact>
</mgrwt>
</event>
<event>
 4    1  0.3565372E-007  0.8977250E+03  0.7818608E-02  0.9529694E-01
         -2   -1    0    0    0  501 -0.00000000000E+00  0.00000000000E+00  0.19001382670E+04  0.19001382670E+04  0.25500000000E-02 0.  1.
          2   -1    0    0  501    0  0.00000000000E+00 -0.00000000000E+00 -0.70005245174E+03  0.70005245174E+03  0.25500000000E-02 0. -1.
    8880023    1    1    2    0    0 -0.28130907508E+03 -0.54126257732E+03 -0.32166491234E+03  0.95361338886E+03  0.65864270000E+03 0.  0.
    8880022    1    1    2    0    0  0.28130907508E+03  0.54126257732E+03  0.15217507276E+04  0.16465773299E+04  0.15294330000E+03 0.  0.
<mgrwt>
<rscale>  0 0.82129589E+03</rscale>
<asrwt>0</asrwt>
<pdfrwt beam="1">  1        2 0.10770038E+00 0.89772500E+03</pdfrwt>
<pdfrwt beam="2">  1       -2 0.29232896E+00 0.89772500E+03</pdfrwt>
<totfact> 0.14764423E+00</totfact>
</mgrwt>
</event>
<event>
 4    1  0.3565372E-007  0.6837321E+03  0.7818608E-02  0.1007287E+00
          2   -1    0    0  501    0  0.00000000000E+00  0.00000000000E+00  0.16205121023E+04  0.16205121023E+04  0.25500000000E-02 0. -1.
         -2   -1    0    0    0  501 -0.00000000000E+00 -0.00000000000E+00 -0.33986280424E+03  0.33986280425E+03  0.25500000000E-02 0.  1.
    8880023    1    1    2    0    0 -0.13706787477E+03 -0.12203208587E+03  0.14921288751E+04  0.16413220946E+04  0.65864270000E+03 0. -1.
    8880022    1    1    2    0    0  0.13706787477E+03  0.12203208587E+03 -0.21147957702E+03  0.31905281191E+03  0.15294330000E+03 0.  0.
<mgrwt>
<rscale>  0 0.52567402E+03</rscale>
<asrwt>0</asrwt>
<pdfrwt beam="1">  1        2 0.24930956E+00 0.68373214E+03</pdfrwt>
<pdfrwt beam="2">  1       -2 0.52286585E-01 0.68373214E+03</pdfrwt>
<totfact> 0.38723306E+01</totfact>
</mgrwt>
</event>
<event>
 4    1  0.3565372E-007  0.1016645E+04  0.7818608E-02  0.9360098E-01
          2   -1    0    0  501    0  0.00000000000E+00  0.00000000000E+00  0.22093374085E+04  0.22093374085E+04  0.25500000000E-02 0. -1.
         -2   -1    0    0    0  501 -0.00000000000E+00 -0.00000000000E+00 -0.54275051326E+03  0.54275051327E+03  0.25500000000E-02 0.  1.
    8880023    1    1    2    0    0  0.58216510693E+03 -0.51072523557E+03  0.16787553682E+04  0.19625968181E+04  0.65864270000E+03 0. -1.
    8880022    1    1    2    0    0 -0.58216510693E+03  0.51072523557E+03 -0.12168472966E+02  0.78949110364E+03  0.15294330000E+03 0.  0.
<mgrwt>
<rscale>  0 0.95433500E+03</rscale>
<asrwt>0</asrwt>
<pdfrwt beam="1">  1        2 0.33989807E+00 0.10166448E+04</pdfrwt>
<pdfrwt beam="2">  1       -2 0.83500077E-01 0.10166448E+04</pdfrwt>
<totfact> 0.64193897E+00</totfact>
</mgrwt>
</event>
<event>
 4    1  0.3565372E-007  0.7250407E+03  0.7818608E-02  0.9905885E-01
          2   -1    0    0  501    0  0.00000000000E+00  0.00000000000E+00  0.31928274445E+04  0.31928274445E+04  0.25500000000E-02 0. -1.
         -2   -1    0    0    0  501 -0.00000000000E+00 -0.00000000000E+00 -0.42025453656E+03  0.42025453657E+03  0.25500000000E-02 0.  1.
    8880023    1    1    2    0    0  0.45500826282E+02  0.29967230419E+03  0.30744432152E+04  0.31587790529E+04  0.65864270000E+03 0. -1.
    8880022    1    1    2    0    0 -0.45500826282E+02 -0.29967230419E+03 -0.30187030730E+03  0.45430292816E+03  0.15294330000E+03 0.  0.
<mgrwt>
<rscale>  0 0.59976925E+03</rscale>
<asrwt>0</asrwt>
<pdfrwt beam="1">  1        2 0.49120420E+00 0.72504070E+03</pdfrwt>
<pdfrwt beam="2">  1       -2 0.64654546E-01 0.72504070E+03</pdfrwt>
<totfact> 0.31255270E+00</totfact>
</mgrwt>
</event>
<event>
 4    1  0.3565372E-007  0.9649354E+03  0.7818608E-02  0.9428943E-01
          2   -1    0    0  501    0  0.00000000000E+00  0.00000000000E+00  0.27062375934E+04  0.27062375934E+04  0.25500000000E-02 0. -1.
         -2   -1    0    0    0  501 -0.00000000000E+00 -0.00000000000E+00 -0.33797117481E+03  0.33797117482E+03  0.25500000000E-02 0.  1.
    8880023    1    1    2    0    0  0.46699736651E+03 -0.52839709928E+03  0.20291802701E+04  0.22469251901E+04  0.65864270000E+03 0. -1.
    8880022    1    1    2    0    0 -0.46699736651E+03  0.52839709928E+03  0.33908614844E+03  0.79728357812E+03  0.15294330000E+03 0.  0.
<mgrwt>
<rscale>  0 0.89731557E+03</rscale>
<asrwt>0</asrwt>
<pdfrwt beam="1">  1        2 0.41634424E+00 0.96493536E+03</pdfrwt>
<pdfrwt beam="2">  1       -2 0.51995566E-01 0.96493536E+03</pdfrwt>
<totfact> 0.93876728E+00</totfact>
</mgrwt>
</event>
<event>
 4    1  0.3565372E-007  0.8685613E+03  0.7818608E-02  0.9578512E-01
         -2   -1    0    0    0  501 -0.00000000000E+00  0.00000000000E+00  0.87931560136E+03  0.87931560137E+03  0.25500000000E-02 0.  1.
          2   -1    0    0  501    0  0.00000000000E+00 -0.00000000000E+00 -0.11870142673E+04  0.11870142673E+04  0.25500000000E-02 0. -1.
    8880023    1    1    2    0    0  0.48697669900E+03  0.28886367471E+03 -0.88737505711E+03  0.12417057728E+04  0.65864270000E+03 0. -1.
    8880022    1    1    2    0    0 -0.48697669900E+03 -0.28886367471E+03  0.57967639119E+03  0.82462409585E+03  0.15294330000E+03 0.  0.
<mgrwt>
<rscale>  0 0.78734855E+03</rscale>
<asrwt>0</asrwt>
<pdfrwt beam="1">  1        2 0.18261758E+00 0.86856130E+03</pdfrwt>
<pdfrwt beam="2">  1       -2 0.13527932E+00 0.86856130E+03</pdfrwt>
<totfact> 0.76096252E+00</totfact>
</mgrwt>
</event>
<event>
 4    1  0.3565372E-007  0.1473960E+04  0.7818608E-02  0.8928246E-01
         -2   -1    0    0    0  501 -0.00000000000E+00  0.00000000000E+00  0.47855431719E+03  0.47855431720E+03  0.25500000000E-02 0.  1.
          2   -1    0    0  501    0  0.00000000000E+00 -0.00000000000E+00 -0.42123630601E+04  0.42123630601E+04  0.25500000000E-02 0. -1.
    8880023    1    1    2    0    0 -0.13092279895E+04 -0.15706729862E+03 -0.15790511163E+04  0.21600834935E+04  0.65864270000E+03 0.  0.
    8880022    1    1    2    0    0  0.13092279895E+04  0.15706729862E+03 -0.21547576266E+04  0.25308338838E+04  0.15294330000E+03 0.  0.
<mgrwt>
<rscale>  0 0.14358839E+04</rscale>
<asrwt>0</asrwt>
<pdfrwt beam="1">  1        2 0.64805583E+00 0.14739601E+04</pdfrwt>
<pdfrwt beam="2">  1       -2 0.73623744E-01 0.14739601E+04</pdfrwt>
<totfact> 0.37116543E-01</totfact>
</mgrwt>
</event>
<event>
 4    1  0.3565372E-007  0.6944677E+03  0.7818608E-02  0.1002097E+00
          2   -1    0    0  501    0  0.00000000000E+00  0.00000000000E+00  0.66828121521E+03  0.66828121522E+03  0.25500000000E-02 0. -1.
         -2   -1    0    0    0  501 -0.00000000000E+00 -0.00000000000E+00 -0.34668530069E+03  0.34668530070E+03  0.25500000000E-02 0.  1.
    8880023    1    1    2    0    0  0.20130132397E+03  0.89179322735E+02  0.23925892032E+03  0.73452720293E+03  0.65864270000E+03 0.  0.
    8880022    1    1    2    0    0 -0.20130132397E+03 -0.89179322735E+02  0.82336994205E+02  0.28043931298E+03  0.15294330000E+03 0. -1.
<mgrwt>
<rscale>  0 0.54740038E+03</rscale>
<asrwt>0</asrwt>
<pdfrwt beam="1">  1        2 0.10281249E+00 0.69446770E+03</pdfrwt>
<pdfrwt beam="2">  1       -2 0.53336200E-01 0.69446770E+03</pdfrwt>
<totfact> 0.14591742E+02</totfact>
</mgrwt>
</event>
<event>
 4    1  0.3565372E-007  0.8767669E+03  0.7818608E-02  0.9564407E-01
          2   -1    0    0  501    0  0.00000000000E+00  0.00000000000E+00  0.10393300609E+04  0.10393300609E+04  0.25500000000E-02 0. -1.
         -2   -1    0    0    0  501 -0.00000000000E+00 -0.00000000000E+00 -0.88256159110E+03  0.88256159110E+03  0.25500000000E-02 0.  1.
    8880023    1    1    2    0    0  0.33328986799E+03  0.47310439735E+03  0.69352300516E+03  0.11178972546E+04  0.65864270000E+03 0.  0.
    8880022    1    1    2    0    0 -0.33328986799E+03 -0.47310439735E+03 -0.53675453532E+03  0.80399439743E+03  0.15294330000E+03 0.  0.
<mgrwt>
<rscale>  0 0.79697405E+03</rscale>
<asrwt>0</asrwt>
<pdfrwt beam="1">  1        2 0.15989693E+00 0.87676685E+03</pdfrwt>
<pdfrwt beam="2">  1       -2 0.13577871E+00 0.87676685E+03</pdfrwt>
<totfact> 0.92758513E+00</totfact>
</mgrwt>
</event>
<event>
 4    1  0.4168544E-007  0.8805300E+03  0.7818608E-02  0.9558039E-01
          2   -1    0    0  501    0  0.00000000000E+00  0.00000000000E+00  0.15256683574E+04  0.15256683574E+04  0.25500000000E-02 0. -1.
         -2   -1    0    0    0  501 -0.00000000000E+00 -0.00000000000E+00 -0.17753495125E+04  0.17753495125E+04  0.25500000000E-02 0.  1.
    8880023    1    1    2    0    0 -0.22163007106E+03  0.54074295191E+03  0.13383147348E+04  0.16020047952E+04  0.65864270000E+03 0. -1.
    8880022    1    1    2    0    0  0.22163007106E+03 -0.54074295191E+03 -0.15879958899E+04  0.16990130747E+04  0.15294330000E+03 0.  0.
<mgrwt>
<rscale>  0 0.80136800E+03</rscale>
<asrwt>0</asrwt>
<pdfrwt beam="1">  1        2 0.23471821E+00 0.88052997E+03</pdfrwt>
<pdfrwt beam="2">  1       -2 0.27313069E+00 0.88052997E+03</pdfrwt>
<totfact> 0.58185148E-01</totfact>
</mgrwt>
</event>
<event>
 4    1  0.3565372E-007  0.8381618E+03  0.7818608E-02  0.9633656E-01
          2   -1    0    0  501    0  0.00000000000E+00  0.00000000000E+00  0.52291175013E+03  0.52291175014E+03  0.25500000000E-02 0. -1.
         -2   -1    0    0    0  501 -0.00000000000E+00 -0.00000000000E+00 -0.15132030867E+04  0.15132030867E+04  0.25500000000E-02 0.  1.
    8880023    1    1    2    0    0  0.50182442656E+03 -0.12991234072E+03  0.75058413714E+02  0.84151586028E+03  0.65864270000E+03 0.  0.
    8880022    1    1    2    0    0 -0.50182442656E+03  0.12991234072E+03 -0.10653497503E+04  0.11945989765E+04  0.15294330000E+03 0.  0.
<mgrwt>
<rscale>  0 0.75108088E+03</rscale>
<asrwt>0</asrwt>
<pdfrwt beam="1">  1        2 0.80447963E-01 0.83816178E+03</pdfrwt>
<pdfrwt beam="2">  1       -2 0.23280047E+00 0.83816178E+03</pdfrwt>
<totfact> 0.48694126E+00</totfact>
</mgrwt>
</event>
<event>
 4    1  0.3565372E-007  0.7283489E+03  0.7818608E-02  0.9895286E-01
         -2   -1    0    0    0  501 -0.00000000000E+00  0.00000000000E+00  0.27766631379E+03  0.27766631380E+03  0.25500000000E-02 0.  1.
          2   -1    0    0  501    0  0.00000000000E+00 -0.00000000000E+00 -0.25787458625E+04  0.25787458625E+04  0.25500000000E-02 0. -1.
    8880023    1    1    2    0    0 -0.28812095595E+03  0.11691149669E+03 -0.23901249308E+04  0.24986375036E+04  0.65864270000E+03 0. -1.
    8880022    1    1    2    0    0  0.28812095595E+03 -0.11691149669E+03  0.89045382118E+02  0.35777467268E+03  0.15294330000E+03 0.  0.
<mgrwt>
<rscale>  0 0.60490278E+03</rscale>
<asrwt>0</asrwt>
<pdfrwt beam="1">  1        2 0.39673012E+00 0.72834895E+03</pdfrwt>
<pdfrwt beam="2">  1       -2 0.42717896E-01 0.72834895E+03</pdfrwt>
<totfact> 0.17119498E+01</totfact>
</mgrwt>
</event>
<event>
 4    1  0.3565372E-007  0.1076627E+04  0.7818608E-02  0.9287536E-01
         -2   -1    0    0    0  501 -0.00000000000E+00  0.00000000000E+00  0.46744918737E+03  0.46744918738E+03  0.25500000000E-02 0.  1.
          2   -1    0    0  501    0  0.00000000000E+00 -0.00000000000E+00 -0.28894515887E+04  0.28894515887E+04  0.25500000000E-02 0. -1.
    8880023    1    1    2    0    0 -0.22225804817E+03 -0.82214199332E+03 -0.22215804943E+04  0.24687134698E+04  0.65864270000E+03 0.  0.
    8880022    1    1    2    0    0  0.22225804817E+03  0.82214199332E+03 -0.20042190701E+03  0.88818730624E+03  0.15294330000E+03 0.  0.
<mgrwt>
<rscale>  0 0.10193846E+04</rscale>
<asrwt>0</asrwt>
<pdfrwt beam="1">  1        2 0.44453100E+00 0.10766273E+04</pdfrwt>
<pdfrwt beam="2">  1       -2 0.71915261E-01 0.10766273E+04</pdfrwt>
<totfact> 0.36031619E+00</totfact>
</mgrwt>
</event>
<event>
 4    1  0.3565372E-007  0.1043715E+04  0.7818608E-02  0.9326475E-01
         -2   -1    0    0    0  501 -0.00000000000E+00  0.00000000000E+00  0.86672692783E+03  0.86672692783E+03  0.25500000000E-02 0.  1.
          2   -1    0    0  501    0  0.00000000000E+00 -0.00000000000E+00 -0.11531719601E+04  0.11531719601E+04  0.25500000000E-02 0. -1.
    8880023    1    1    2    0    0 -0.56341205523E+03  0.58146162910E+03 -0.51635281753E+03  0.11644574739E+04  0.65864270000E+03 0. -1.
    8880022    1    1    2    0    0  0.56341205523E+03 -0.58146162910E+03  0.22990778527E+03  0.85544141403E+03  0.15294330000E+03 0.  1.
<mgrwt>
<rscale>  0 0.98381618E+03</rscale>
<asrwt>0</asrwt>
<pdfrwt beam="1">  1        2 0.17741107E+00 0.10437150E+04</pdfrwt>
<pdfrwt beam="2">  1       -2 0.13334260E+00 0.10437150E+04</pdfrwt>
<totfact> 0.81294054E+00</totfact>
</mgrwt>
</event>
<event>
 4    1  0.3565372E-007  0.6607835E+03  0.7818608E-02  0.1023368E+00
          2   -1    0    0  501    0  0.00000000000E+00  0.00000000000E+00  0.23150235977E+04  0.23150235977E+04  0.25500000000E-02 0. -1.
         -2   -1    0    0    0  501 -0.00000000000E+00 -0.00000000000E+00 -0.19462314550E+03  0.19462314551E+03  0.25500000000E-02 0.  1.
    8880023    1    1    2    0    0 -0.17399397369E+02 -0.50218210143E+02  0.22222175484E+04  0.23183799616E+04  0.65864270000E+03 0. -1.
    8880022    1    1    2    0    0  0.17399397369E+02  0.50218210143E+02 -0.10181709619E+03  0.19126678162E+03  0.15294330000E+03 0.  0.
<mgrwt>
<rscale>  0 0.46490662E+03</rscale>
<asrwt>0</asrwt>
<pdfrwt beam="1">  1        2 0.35615746E+00 0.66078348E+03</pdfrwt>
<pdfrwt beam="2">  1       -2 0.29942024E-01 0.66078348E+03</pdfrwt>
<totfact> 0.48000230E+01</totfact>
</mgrwt>
</event>
<event>
 4    1  0.3565372E-007  0.8027170E+03  0.7818608E-02  0.9704952E-01
          2   -1    0    0  501    0  0.00000000000E+00  0.00000000000E+00  0.11538232418E+04  0.11538232418E+04  0.25500000000E-02 0. -1.
         -2   -1    0    0    0  501 -0.00000000000E+00 -0.00000000000E+00 -0.57941327746E+03  0.57941327747E+03  0.25500000000E-02 0.  1.
    8880023    1    1    2    0    0 -0.98297947498E+02 -0.44819844525E+03  0.85605915462E+03  0.11735381610E+04  0.65864270000E+03 0.  0.
    8880022    1    1    2    0    0  0.98297947498E+02  0.44819844525E+03 -0.28164919032E+03  0.55969835825E+03  0.15294330000E+03 0.  0.
<mgrwt>
<rscale>  0 0.70722721E+03</rscale>
<asrwt>0</asrwt>
<pdfrwt beam="1">  1        2 0.17751126E+00 0.80271697E+03</pdfrwt>
<pdfrwt beam="2">  1       -2 0.89140506E-01 0.80271697E+03</pdfrwt>
<totfact> 0.22097925E+01</totfact>
</mgrwt>
</event>
<event>
 4    1  0.3565372E-007  0.9087783E+03  0.7818608E-02  0.9512084E-01
         -2   -1    0    0    0  501 -0.00000000000E+00  0.00000000000E+00  0.58074558002E+03  0.58074558002E+03  0.25500000000E-02 0.  1.
          2   -1    0    0  501    0  0.00000000000E+00 -0.00000000000E+00 -0.24545658306E+04  0.24545658306E+04  0.25500000000E-02 0. -1.
    8880023    1    1    2    0    0  0.45709446166E+03  0.42793973934E+03 -0.21499219494E+04  0.23341041884E+04  0.65864270000E+03 0.  0.
    8880022    1    1    2    0    0 -0.45709446166E+03 -0.42793973934E+03  0.27610169885E+03  0.70120722223E+03  0.15294330000E+03 0.  0.
<mgrwt>
<rscale>  0 0.83398748E+03</rscale>
<asrwt>0</asrwt>
<pdfrwt beam="1">  1        2 0.37762551E+00 0.90877829E+03</pdfrwt>
<pdfrwt beam="2">  1       -2 0.89345475E-01 0.90877829E+03</pdfrwt>
<totfact> 0.40610469E+00</totfact>
</mgrwt>
</event>
<event>
 4    1  0.3565372E-007  0.7329614E+03  0.7818608E-02  0.9880946E-01
         -2   -1    0    0    0  501 -0.00000000000E+00  0.00000000000E+00  0.44109728123E+03  0.44109728124E+03  0.25500000000E-02 0.  1.
          2   -1    0    0  501    0  0.00000000000E+00 -0.00000000000E+00 -0.14252243718E+04  0.14252243718E+04  0.25500000000E-02 0. -1.
    8880023    1    1    2    0    0 -0.77792869925E+02 -0.31204246885E+03 -0.12312247533E+04  0.14328806064E+04  0.65864270000E+03 0. -1.
    8880022    1    1    2    0    0  0.77792869925E+02  0.31204246885E+03  0.24709766269E+03  0.43344104662E+03  0.15294330000E+03 0.  0.
<mgrwt>
<rscale>  0 0.61193696E+03</rscale>
<asrwt>0</asrwt>
<pdfrwt beam="1">  1        2 0.21926529E+00 0.73296142E+03</pdfrwt>
<pdfrwt beam="2">  1       -2 0.67861121E-01 0.73296142E+03</pdfrwt>
<totfact> 0.28513230E+01</totfact>
</mgrwt>
</event>
<event>
 4    1  0.3565372E-007  0.7848372E+03  0.7818608E-02  0.9744595E-01
          2   -1    0    0  501    0  0.00000000000E+00  0.00000000000E+00  0.35033687102E+04  0.35033687102E+04  0.25500000000E-02 0. -1.
         -2   -1    0    0    0  501 -0.00000000000E+00 -0.00000000000E+00 -0.44460417068E+03  0.44460417068E+03  0.25500000000E-02 0.  1.
    8880023    1    1    2    0    0  0.41668674442E+03  0.92365368116E+02 -0.68680254517E+02  0.78783652354E+03  0.65864270000E+03 0.  1.
    8880022    1    1    2    0    0 -0.41668674442E+03 -0.92365368116E+02  0.31274447940E+04  0.31601363573E+04  0.15294330000E+03 0.  0.
<mgrwt>
<rscale>  0 0.68422603E+03</rscale>
<asrwt>0</asrwt>
<pdfrwt beam="1">  1        2 0.53897982E+00 0.78483719E+03</pdfrwt>
<pdfrwt beam="2">  1       -2 0.68400639E-01 0.78483719E+03</pdfrwt>
<totfact> 0.17065193E+00</totfact>
</mgrwt>
</event>
<event>
 4    1  0.3565372E-007  0.6815565E+03  0.7818608E-02  0.1008457E+00
         -2   -1    0    0    0  501 -0.00000000000E+00  0.00000000000E+00  0.12250114053E+04  0.12250114053E+04  0.25500000000E-02 0.  1.
          2   -1    0    0  501    0  0.00000000000E+00 -0.00000000000E+00 -0.39906454383E+03  0.39906454384E+03  0.25500000000E-02 0. -1.
    8880023    1    1    2    0    0  0.10206360849E+03 -0.14245006184E+03 -0.82310606794E+02  0.68650873450E+03  0.65864270000E+03 0. -1.
    8880022    1    1    2    0    0 -0.10206360849E+03  0.14245006184E+03  0.90825746831E+03  0.93756721468E+03  0.15294330000E+03 0.  0.
<mgrwt>
<rscale>  0 0.52092679E+03</rscale>
<asrwt>0</asrwt>
<pdfrwt beam="1">  1        2 0.61394546E-01 0.68155646E+03</pdfrwt>
<pdfrwt beam="2">  1       -2 0.18846329E+00 0.68155646E+03</pdfrwt>
<totfact> 0.12958394E+01</totfact>
</mgrwt>
</event>
<event>
 4    1  0.3565372E-007  0.2049310E+04  0.7818608E-02  0.8595880E-01
          2   -1    0    0  501    0  0.00000000000E+00  0.00000000000E+00  0.40152411359E+04  0.40152411359E+04  0.25500000000E-02 0. -1.
         -2   -1    0    0    0  501 -0.00000000000E+00 -0.00000000000E+00 -0.13608542614E+04  0.13608542614E+04  0.25500000000E-02 0.  1.
    8880023    1    1    2    0    0  0.19012797462E+04 -0.38858049140E+03  0.27471139112E+04  0.34272882165E+04  0.65864270000E+03 0.  0.
    8880022    1    1    2    0    0 -0.19012797462E+04  0.38858049140E+03 -0.92727036714E+02  0.19488071808E+04  0.15294330000E+03 0.  0.
<mgrwt>
<rscale>  0 0.20231349E+04</rscale>
<asrwt>0</asrwt>
<pdfrwt beam="1">  1        2 0.61772940E+00 0.20493096E+04</pdfrwt>
<pdfrwt beam="2">  1       -2 0.20936220E+00 0.20493096E+04</pdfrwt>
<totfact> 0.34218337E-02</totfact>
</mgrwt>
</event>
<event>
 4    1  0.3565372E-007  0.6840649E+03  0.7818608E-02  0.1007112E+00
          2   -1    0    0  501    0  0.00000000000E+00  0.00000000000E+00  0.16401316683E+04  0.16401316683E+04  0.25500000000E-02 0. -1.
         -2   -1    0    0    0  501 -0.00000000000E+00 -0.00000000000E+00 -0.25388489680E+03  0.25388489682E+03  0.25500000000E-02 0.  1.
    8880023    1    1    2    0    0 -0.17748866182E+03 -0.51306538708E+02  0.14847303693E+04  0.16347382242E+04  0.65864270000E+03 0. -1.
    8880022    1    1    2    0    0  0.17748866182E+03  0.51306538708E+02 -0.98483597819E+02  0.25927834087E+03  0.15294330000E+03 0.  0.
<mgrwt>
<rscale>  0 0.52638830E+03</rscale>
<asrwt>0</asrwt>
<pdfrwt beam="1">  1        2 0.25232795E+00 0.68406490E+03</pdfrwt>
<pdfrwt beam="2">  1       -2 0.39059214E-01 0.68406490E+03</pdfrwt>
<totfact> 0.67564527E+01</totfact>
</mgrwt>
</event>
<event>
 4    1  0.3565372E-007  0.7615370E+03  0.7818608E-02  0.9801145E-01
          2   -1    0    0  501    0  0.00000000000E+00  0.00000000000E+00  0.15770316847E+04  0.15770316847E+04  0.25500000000E-02 0. -1.
         -2   -1    0    0    0  501 -0.00000000000E+00 -0.00000000000E+00 -0.24006196477E+03  0.24006196478E+03  0.25500000000E-02 0.  1.
    8880023    1    1    2    0    0  0.31336877570E+03  0.21892540281E+03  0.11124122192E+04  0.13481095925E+04  0.65864270000E+03 0.  0.
    8880022    1    1    2    0    0 -0.31336877570E+03 -0.21892540281E+03  0.22455750069E+03  0.46898405699E+03  0.15294330000E+03 0. -1.
<mgrwt>
<rscale>  0 0.65301152E+03</rscale>
<asrwt>0</asrwt>
<pdfrwt beam="1">  1        2 0.24262027E+00 0.76153695E+03</pdfrwt>
<pdfrwt beam="2">  1       -2 0.36932609E-01 0.76153695E+03</pdfrwt>
<totfact> 0.80885619E+01</totfact>
</mgrwt>
</event>
<event>
 4    1  0.6535859E-007  0.8170129E+03  0.7818608E-02  0.9675150E-01
          2   -1    0    0  501    0  0.00000000000E+00  0.00000000000E+00  0.19868785107E+04  0.19868785107E+04  0.25500000000E-02 0. -1.
         -2   -1    0    0    0  501 -0.00000000000E+00 -0.00000000000E+00 -0.10604586816E+04  0.10604586816E+04  0.25500000000E-02 0.  1.
    8880023    1    1    2    0    0  0.38829982701E+03 -0.28796386907E+03  0.18339851961E+04  0.20077379937E+04  0.65864270000E+03 0.  0.
    8880022    1    1    2    0    0 -0.38829982701E+03  0.28796386907E+03 -0.90756536697E+03  0.10395991987E+04  0.15294330000E+03 0.  0.
<mgrwt>
<rscale>  0 0.72515808E+03</rscale>
<asrwt>0</asrwt>
<pdfrwt beam="1">  1        2 0.30567361E+00 0.81701294E+03</pdfrwt>
<pdfrwt beam="2">  1       -2 0.16314749E+00 0.81701294E+03</pdfrwt>
<totfact> 0.16652232E+00</totfact>
</mgrwt>
</event>
<event>
 4    1  0.3565372E-007  0.9013957E+03  0.7818608E-02  0.9523795E-01
         -2   -1    0    0    0  501 -0.00000000000E+00  0.00000000000E+00  0.58088452298E+03  0.58088452298E+03  0.25500000000E-02 0.  1.
          2   -1    0    0  501    0  0.00000000000E+00 -0.00000000000E+00 -0.16613064330E+04  0.16613064330E+04  0.25500000000E-02 0. -1.
    8880023    1    1    2    0    0  0.33836773594E+03  0.51401493759E+03 -0.12905453441E+04  0.15741732981E+04  0.65864270000E+03 0. -1.
    8880022    1    1    2    0    0 -0.33836773594E+03 -0.51401493759E+03  0.21012343408E+03  0.66801765796E+03  0.15294330000E+03 0.  0.
<mgrwt>
<rscale>  0 0.82552040E+03</rscale>
<asrwt>0</asrwt>
<pdfrwt beam="1">  1        2 0.25558560E+00 0.90139574E+03</pdfrwt>
<pdfrwt beam="2">  1       -2 0.89366850E-01 0.90139574E+03</pdfrwt>
<totfact> 0.11162482E+01</totfact>
</mgrwt>
</event>
<event>
 4    1  0.3565372E-007  0.6986193E+03  0.7818608E-02  0.1000298E+00
          2   -1    0    0  501    0  0.00000000000E+00  0.00000000000E+00  0.11292685312E+04  0.11292685312E+04  0.25500000000E-02 0. -1.
         -2   -1    0    0    0  501 -0.00000000000E+00 -0.00000000000E+00 -0.65863170512E+03  0.65863170512E+03  0.25500000000E-02 0.  1.
    8880023    1    1    2    0    0 -0.99893926963E+02  0.21042790945E+03  0.98222919836E+03  0.12053394153E+04  0.65864270000E+03 0. -1.
    8880022    1    1    2    0    0  0.99893926963E+02 -0.21042790945E+03 -0.51159237231E+03  0.58256082098E+03  0.15294330000E+03 0.  0.
<mgrwt>
<rscale>  0 0.55519860E+03</rscale>
<asrwt>0</asrwt>
<pdfrwt beam="1">  1        2 0.17373362E+00 0.69861929E+03</pdfrwt>
<pdfrwt beam="2">  1       -2 0.10132796E+00 0.69861929E+03</pdfrwt>
<totfact> 0.17139530E+01</totfact>
</mgrwt>
</event>
<event>
 4    1  0.3565372E-007  0.7391653E+03  0.7818608E-02  0.9862385E-01
         -2   -1    0    0    0  501 -0.00000000000E+00  0.00000000000E+00  0.75074304120E+02  0.75074304164E+02  0.25500000000E-02 0.  1.
          2   -1    0    0  501    0  0.00000000000E+00 -0.00000000000E+00 -0.42273422482E+04  0.42273422482E+04  0.25500000000E-02 0. -1.
    8880023    1    1    2    0    0 -0.23402180293E+03  0.24039336898E+03 -0.31172027481E+04  0.32036414211E+04  0.65864270000E+03 0. -1.
    8880022    1    1    2    0    0  0.23402180293E+03 -0.24039336898E+03 -0.10350651960E+04  0.10987751313E+04  0.15294330000E+03 0.  1.
<mgrwt>
<rscale>  0 0.62119411E+03</rscale>
<asrwt>0</asrwt>
<pdfrwt beam="1">  1        2 0.65036016E+00 0.73916533E+03</pdfrwt>
<pdfrwt beam="2">  1       -2 0.11549896E-01 0.73916533E+03</pdfrwt>
<totfact> 0.13321031E+01</totfact>
</mgrwt>
</event>
<event>
 4    1  0.3565372E-007  0.7150738E+03  0.7818608E-02  0.9939621E-01
          2   -1    0    0  501    0  0.00000000000E+00  0.00000000000E+00  0.96017499842E+03  0.96017499843E+03  0.25500000000E-02 0. -1.
         -2   -1    0    0    0  501 -0.00000000000E+00 -0.00000000000E+00 -0.90680862301E+03  0.90680862301E+03  0.25500000000E-02 0.  1.
    8880023    1    1    2    0    0  0.26239807762E+03  0.93099600923E+02  0.78952257690E+03  0.10652119003E+04  0.65864270000E+03 0. -1.
    8880022    1    1    2    0    0 -0.26239807762E+03 -0.93099600923E+02 -0.73615620149E+03  0.80177172115E+03  0.15294330000E+03 0.  0.
<mgrwt>
<rscale>  0 0.58378906E+03</rscale>
<asrwt>0</asrwt>
<pdfrwt beam="1">  1        2 0.14771923E+00 0.71507377E+03</pdfrwt>
<pdfrwt beam="2">  1       -2 0.13950902E+00 0.71507377E+03</pdfrwt>
<totfact> 0.98993117E+00</totfact>
</mgrwt>
</event>
<event>
 4    1  0.3565372E-007  0.1062237E+04  0.7818608E-02  0.9304314E-01
         -2   -1    0    0    0  501 -0.00000000000E+00  0.00000000000E+00  0.17620678234E+04  0.17620678234E+04  0.25500000000E-02 0.  1.
          2   -1    0    0  501    0  0.00000000000E+00 -0.00000000000E+00 -0.77540986756E+03  0.77540986756E+03  0.25500000000E-02 0. -1.
    8880023    1    1    2    0    0 -0.59915333856E+03  0.57926837202E+03 -0.19846351665E+03  0.10806176677E+04  0.65864270000E+03 0.  0.
    8880022    1    1    2    0    0  0.59915333856E+03 -0.57926837202E+03  0.11851214725E+04  0.14568600233E+04  0.15294330000E+03 0.  0.
<mgrwt>
<rscale>  0 0.10038668E+04</rscale>
<asrwt>0</asrwt>
<pdfrwt beam="1">  1        2 0.11929383E+00 0.10622367E+04</pdfrwt>
<pdfrwt beam="2">  1       -2 0.27108735E+00 0.10622367E+04</pdfrwt>
<totfact> 0.17016945E+00</totfact>
</mgrwt>
</event>
<event>
 4    1  0.3765531E-007  0.7633627E+03  0.7818608E-02  0.9796478E-01
          2   -1    0    0  501    0  0.00000000000E+00  0.00000000000E+00  0.36687938160E+04  0.36687938160E+04  0.25500000000E-02 0. -1.
         -2   -1    0    0    0  501 -0.00000000000E+00 -0.00000000000E+00 -0.83691670524E+03  0.83691670524E+03  0.25500000000E-02 0.  1.
    8880023    1    1    2    0    0 -0.37299789703E+03 -0.98918805468E+02  0.35744179336E+04  0.36550220425E+04  0.65864270000E+03 0. -1.
    8880022    1    1    2    0    0  0.37299789703E+03  0.98918805468E+02 -0.74254082281E+03  0.85068847871E+03  0.15294330000E+03 0.  0.
<mgrwt>
<rscale>  0 0.65551874E+03</rscale>
<asrwt>0</asrwt>
<pdfrwt beam="1">  1        2 0.56442982E+00 0.76336267E+03</pdfrwt>
<pdfrwt beam="2">  1       -2 0.12875642E+00 0.76336267E+03</pdfrwt>
<totfact> 0.29955685E-01</totfact>
</mgrwt>
</event>
<event>
 4    1  0.3565372E-007  0.6983230E+03  0.7818608E-02  0.1000423E+00
         -2   -1    0    0    0  501 -0.00000000000E+00  0.00000000000E+00  0.17247850020E+03  0.17247850021E+03  0.25500000000E-02 0.  1.
          2   -1    0    0  501    0  0.00000000000E+00 -0.00000000000E+00 -0.15819532354E+04  0.15819532354E+04  0.25500000000E-02 0. -1.
    8880023    1    1    2    0    0  0.22986411195E+03 -0.31737571557E+02 -0.12556889147E+04  0.14368053592E+04  0.65864270000E+03 0. -1.
    8880022    1    1    2    0    0 -0.22986411195E+03  0.31737571557E+02 -0.15378582051E+03  0.31762637644E+03  0.15294330000E+03 0.  0.
<mgrwt>
<rscale>  0 0.55465129E+03</rscale>
<asrwt>0</asrwt>
<pdfrwt beam="1">  1        2 0.24337741E+00 0.69832298E+03</pdfrwt>
<pdfrwt beam="2">  1       -2 0.26535155E-01 0.69832298E+03</pdfrwt>
<totfact> 0.14999752E+02</totfact>
</mgrwt>
</event>
<event>
 4    1  0.3565372E-007  0.1057232E+04  0.7818608E-02  0.9310237E-01
          2   -1    0    0  501    0  0.00000000000E+00  0.00000000000E+00  0.16672162188E+04  0.16672162188E+04  0.25500000000E-02 0. -1.
         -2   -1    0    0    0  501 -0.00000000000E+00 -0.00000000000E+00 -0.65562125559E+03  0.65562125559E+03  0.25500000000E-02 0.  1.
    8880023    1    1    2    0    0  0.50473968954E+03  0.65510929261E+03  0.68848649855E+02  0.10594718884E+04  0.65864270000E+03 0. -1.
    8880022    1    1    2    0    0 -0.50473968954E+03 -0.65510929261E+03  0.94274631332E+03  0.12633655859E+04  0.15294330000E+03 0.  0.
<mgrwt>
<rscale>  0 0.99845851E+03</rscale>
<asrwt>0</asrwt>
<pdfrwt beam="1">  1        2 0.25649480E+00 0.10572325E+04</pdfrwt>
<pdfrwt beam="2">  1       -2 0.10086481E+00 0.10572325E+04</pdfrwt>
<totfact> 0.82009988E+00</totfact>
</mgrwt>
</event>
<event>
 4    1  0.3565372E-007  0.7532826E+03  0.7818608E-02  0.9822819E-01
         -2   -1    0    0    0  501 -0.00000000000E+00  0.00000000000E+00  0.19087490131E+03  0.19087490133E+03  0.25500000000E-02 0.  1.
          2   -1    0    0  501    0  0.00000000000E+00 -0.00000000000E+00 -0.20328040541E+04  0.20328040541E+04  0.25500000000E-02 0. -1.
    8880023    1    1    2    0    0 -0.90428336287E+02  0.35418514740E+03 -0.15751061345E+04  0.17459650466E+04  0.65864270000E+03 0.  0.
    8880022    1    1    2    0    0  0.90428336287E+02 -0.35418514740E+03 -0.26682301833E+03  0.47771390891E+03  0.15294330000E+03 0.  0.
<mgrwt>
<rscale>  0 0.64152183E+03</rscale>
<asrwt>0</asrwt>
<pdfrwt beam="1">  1        2 0.31273907E+00 0.75328256E+03</pdfrwt>
<pdfrwt beam="2">  1       -2 0.29365371E-01 0.75328256E+03</pdfrwt>
<totfact> 0.70269231E+01</totfact>
</mgrwt>
</event>
<event>
 4    1  0.3565372E-007  0.7576648E+03  0.7818608E-02  0.9811191E-01
          2   -1    0    0  501    0  0.00000000000E+00  0.00000000000E+00  0.48138384615E+03  0.48138384615E+03  0.25500000000E-02 0. -1.
         -2   -1    0    0    0  501 -0.00000000000E+00 -0.00000000000E+00 -0.93899633156E+03  0.93899633156E+03  0.25500000000E-02 0.  1.
    8880023    1    1    2    0    0  0.11802011081E+03 -0.35541096472E+03  0.63918317504E+02  0.76035613891E+03  0.65864270000E+03 0. -1.
    8880022    1    1    2    0    0 -0.11802011081E+03  0.35541096472E+03 -0.52153080292E+03  0.66002403881E+03  0.15294330000E+03 0.  0.
<mgrwt>
<rscale>  0 0.64765411E+03</rscale>
<asrwt>0</asrwt>
<pdfrwt beam="1">  1        2 0.74059053E-01 0.75766477E+03</pdfrwt>
<pdfrwt beam="2">  1       -2 0.14446097E+00 0.75766477E+03</pdfrwt>
<totfact> 0.21560785E+01</totfact>
</mgrwt>
</event>
<event>
 4    1  0.3565372E-007  0.8051582E+03  0.7818608E-02  0.9699752E-01
          2   -1    0    0  501    0  0.00000000000E+00  0.00000000000E+00  0.21225298765E+04  0.21225298765E+04  0.25500000000E-02 0. -1.
         -2   -1    0    0    0  501 -0.00000000000E+00 -0.00000000000E+00 -0.27743040689E+03  0.27743040690E+03  0.25500000000E-02 0.  1.
    8880023    1    1    2    0    0  0.10324357200E+03  0.45145360525E+03  0.17159208129E+04  0.18954324138E+04  0.65864270000E+03 0. -1.
    8880022    1    1    2    0    0 -0.10324357200E+03 -0.45145360525E+03  0.12917865671E+03  0.50452786961E+03  0.15294330000E+03 0.  0.
<mgrwt>
<rscale>  0 0.71031567E+03</rscale>
<asrwt>0</asrwt>
<pdfrwt beam="1">  1        2 0.32654306E+00 0.80515824E+03</pdfrwt>
<pdfrwt beam="2">  1       -2 0.42681601E-01 0.80515824E+03</pdfrwt>
<totfact> 0.30523238E+01</totfact>
</mgrwt>
</event>
<event>
 4    1  0.3565372E-007  0.7349120E+03  0.7818608E-02  0.9875024E-01
         -2   -1    0    0    0  501 -0.00000000000E+00  0.00000000000E+00  0.30741007293E+03  0.30741007294E+03  0.25500000000E-02 0.  1.
          2   -1    0    0  501    0  0.00000000000E+00 -0.00000000000E+00 -0.10868020526E+04  0.10868020526E+04  0.25500000000E-02 0. -1.
    8880023    1    1    2    0    0  0.20752674535E+02  0.32535336065E+03 -0.29799565937E+03  0.79303032858E+03  0.65864270000E+03 0.  1.
    8880022    1    1    2    0    0 -0.20752674535E+02 -0.32535336065E+03 -0.48139632032E+03  0.60118179698E+03  0.15294330000E+03 0. -1.
<mgrwt>
<rscale>  0 0.61487161E+03</rscale>
<asrwt>0</asrwt>
<pdfrwt beam="1">  1        2 0.16720031E+00 0.73491203E+03</pdfrwt>
<pdfrwt beam="2">  1       -2 0.47293858E-01 0.73491203E+03</pdfrwt>
<totfact> 0.95534719E+01</totfact>
</mgrwt>
</event>
<event>
 4    1  0.3565372E-007  0.6944573E+03  0.7818608E-02  0.1002102E+00
          2   -1    0    0  501    0  0.00000000000E+00  0.00000000000E+00  0.10807671569E+04  0.10807671569E+04  0.25500000000E-02 0. -1.
         -2   -1    0    0    0  501 -0.00000000000E+00 -0.00000000000E+00 -0.28938441275E+03  0.28938441277E+03  0.25500000000E-02 0.  1.
    8880023    1    1    2    0    0  0.15496798963E+03  0.15635088668E+03  0.84811444751E+03  0.10961610283E+04  0.65864270000E+03 0.  0.
    8880022    1    1    2    0    0 -0.15496798963E+03 -0.15635088668E+03 -0.56731703389E+02  0.27399054137E+03  0.15294330000E+03 0.  0.
<mgrwt>
<rscale>  0 0.54738041E+03</rscale>
<asrwt>0</asrwt>
<pdfrwt beam="1">  1        2 0.16627187E+00 0.69445726E+03</pdfrwt>
<pdfrwt beam="2">  1       -2 0.44520678E-01 0.69445726E+03</pdfrwt>
<totfact> 0.10908343E+02</totfact>
</mgrwt>
</event>
<event>
 4    1  0.3565372E-007  0.1025204E+04  0.7818608E-02  0.9349302E-01
          2   -1    0    0  501    0  0.00000000000E+00  0.00000000000E+00  0.17523546655E+04  0.17523546655E+04  0.25500000000E-02 0. -1.
         -2   -1    0    0    0  501 -0.00000000000E+00 -0.00000000000E+00 -0.11394614054E+04  0.11394614054E+04  0.25500000000E-02 0.  1.
    8880023    1    1    2    0    0  0.66709911896E+02 -0.78280381022E+03  0.14224467768E+04  0.17533958642E+04  0.65864270000E+03 0.  0.
    8880022    1    1    2    0    0 -0.66709911896E+02  0.78280381022E+03 -0.80955351665E+03  0.11384202067E+04  0.15294330000E+03 0.  0.
<mgrwt>
<rscale>  0 0.96368020E+03</rscale>
<asrwt>0</asrwt>
<pdfrwt beam="1">  1        2 0.26959302E+00 0.10252035E+04</pdfrwt>
<pdfrwt beam="2">  1       -2 0.17530176E+00 0.10252035E+04</pdfrwt>
<totfact> 0.17777764E+00</totfact>
</mgrwt>
</event>
<event>
 4    1  0.3565372E-007  0.8489941E+03  0.7818608E-02  0.9613449E-01
          2   -1    0    0  501    0  0.00000000000E+00  0.00000000000E+00  0.17319837547E+04  0.17319837547E+04  0.25500000000E-02 0. -1.
         -2   -1    0    0    0  501 -0.00000000000E+00 -0.00000000000E+00 -0.57091815402E+03  0.57091815402E+03  0.25500000000E-02 0.  1.
    8880023    1    1    2    0    0  0.86064344003E+02  0.52874726119E+03  0.14462578614E+04  0.16770368945E+04  0.65864270000E+03 0. -1.
    8880022    1    1    2    0    0 -0.86064344003E+02 -0.52874726119E+03 -0.28519226068E+03  0.62586501428E+03  0.15294330000E+03 0.  0.
<mgrwt>
<rscale>  0 0.76412407E+03</rscale>
<asrwt>0</asrwt>
<pdfrwt beam="1">  1        2 0.26645904E+00 0.84899408E+03</pdfrwt>
<pdfrwt beam="2">  1       -2 0.87833563E-01 0.84899408E+03</pdfrwt>
<totfact> 0.10687963E+01</totfact>
</mgrwt>
</event>
<event>
 4    1  0.3565372E-007  0.6813996E+03  0.7818608E-02  0.1008543E+00
         -2   -1    0    0    0  501 -0.00000000000E+00  0.00000000000E+00  0.30710285889E+03  0.30710285890E+03  0.25500000000E-02 0.  1.
          2   -1    0    0  501    0  0.00000000000E+00 -0.00000000000E+00 -0.18115502751E+04  0.18115502751E+04  0.25500000000E-02 0. -1.
    8880023    1    1    2    0    0  0.13070538193E+03  0.11580742654E+03 -0.16895319807E+04  0.18217639191E+04  0.65864270000E+03 0. -1.
    8880022    1    1    2    0    0 -0.13070538193E+03 -0.11580742654E+03  0.18508456447E+03  0.29688921491E+03  0.15294330000E+03 0.  0.
<mgrwt>
<rscale>  0 0.52057923E+03</rscale>
<asrwt>0</asrwt>
<pdfrwt beam="1">  1        2 0.27870004E+00 0.68139964E+03</pdfrwt>
<pdfrwt beam="2">  1       -2 0.47246595E-01 0.68139964E+03</pdfrwt>
<totfact> 0.37434901E+01</totfact>
</mgrwt>
</event>
<event>
 4    1  0.3565372E-007  0.7189203E+03  0.7818608E-02  0.9926256E-01
          2   -1    0    0  501    0  0.00000000000E+00  0.00000000000E+00  0.32926082115E+04  0.32926082115E+04  0.25500000000E-02 0. -1.
         -2   -1    0    0    0  501 -0.00000000000E+00 -0.00000000000E+00 -0.12737835871E+03  0.12737835873E+03  0.25500000000E-02 0.  1.
    8880023    1    1    2    0    0  0.83008132121E+02 -0.27594529904E+03  0.29322704251E+04  0.30191151369E+04  0.65864270000E+03 0. -1.
    8880022    1    1    2    0    0 -0.83008132121E+02  0.27594529904E+03  0.23295942773E+03  0.40087143331E+03  0.15294330000E+03 0.  0.
<mgrwt>
<rscale>  0 0.59005493E+03</rscale>
<asrwt>0</asrwt>
<pdfrwt beam="1">  1        2 0.50655509E+00 0.71892028E+03</pdfrwt>
<pdfrwt beam="2">  1       -2 0.19596671E-01 0.71892028E+03</pdfrwt>
<totfact> 0.26743533E+01</totfact>
</mgrwt>
</event>
<event>
 4    1  0.3565372E-007  0.8521284E+03  0.7818608E-02  0.9607722E-01
         -2   -1    0    0    0  501 -0.00000000000E+00  0.00000000000E+00  0.16869853482E+03  0.16869853484E+03  0.25500000000E-02 0.  1.
          2   -1    0    0  501    0  0.00000000000E+00 -0.00000000000E+00 -0.32005291448E+04  0.32005291448E+04  0.25500000000E-02 0. -1.
    8880023    1    1    2    0    0 -0.14185575807E+02  0.54047329818E+03 -0.22538943960E+04  0.24095980518E+04  0.65864270000E+03 0. -1.
    8880022    1    1    2    0    0  0.14185575807E+02 -0.54047329818E+03 -0.77793621393E+03  0.95962962781E+03  0.15294330000E+03 0.  0.
<mgrwt>
<rscale>  0 0.76787201E+03</rscale>
<asrwt>0</asrwt>
<pdfrwt beam="1">  1        2 0.49238905E+00 0.85212841E+03</pdfrwt>
<pdfrwt beam="2">  1       -2 0.25953623E-01 0.85212841E+03</pdfrwt>
<totfact> 0.18197271E+01</totfact>
</mgrwt>
</event>
<event>
 4    1  0.3565372E-007  0.7486729E+03  0.7818608E-02  0.9835367E-01
          2   -1    0    0  501    0  0.00000000000E+00  0.00000000000E+00  0.10281842950E+04  0.10281842950E+04  0.25500000000E-02 0. -1.
         -2   -1    0    0    0  501 -0.00000000000E+00 -0.00000000000E+00 -0.85326795011E+03  0.85326795012E+03  0.25500000000E-02 0.  1.
    8880023    1    1    2    0    0  0.34500762063E+03 -0.87582214932E+02  0.83162847890E+03  0.11189803554E+04  0.65864270000E+03 0.  0.
    8880022    1    1    2    0    0 -0.34500762063E+03  0.87582214932E+02 -0.65671213399E+03  0.76247188971E+03  0.15294330000E+03 0.  0.
<mgrwt>
<rscale>  0 0.63498575E+03</rscale>
<asrwt>0</asrwt>
<pdfrwt beam="1">  1        2 0.15818220E+00 0.74867290E+03</pdfrwt>
<pdfrwt beam="2">  1       -2 0.13127199E+00 0.74867290E+03</pdfrwt>
<totfact> 0.10421781E+01</totfact>
</mgrwt>
</event>
<event>
 4    1  0.3565372E-007  0.6658855E+03  0.7818608E-02  0.1018802E+00
          2   -1    0    0  501    0  0.00000000000E+00  0.00000000000E+00  0.25148247379E+03  0.25148247381E+03  0.25500000000E-02 0. -1.
         -2   -1    0    0    0  501 -0.00000000000E+00 -0.00000000000E+00 -0.87659745787E+03  0.87659745788E+03  0.25500000000E-02 0.  1.
    8880023    1    1    2    0    0  0.86534791480E+02  0.45880929471E+02 -0.24992314012E+03  0.71124195043E+03  0.65864270000E+03 0. -1.
    8880022    1    1    2    0    0 -0.86534791480E+02 -0.45880929471E+02 -0.37519184396E+03  0.41683798125E+03  0.15294330000E+03 0.  0.
<mgrwt>
<rscale>  0 0.48121506E+03</rscale>
<asrwt>0</asrwt>
<pdfrwt beam="1">  1        2 0.38689612E-01 0.66588553E+03</pdfrwt>
<pdfrwt beam="2">  1       -2 0.13486115E+00 0.66588553E+03</pdfrwt>
<totfact> 0.53685362E+01</totfact>
</mgrwt>
</event>
<event>
 4    1  0.3565372E-007  0.9851667E+03  0.7818608E-02  0.9401227E-01
         -2   -1    0    0    0  501 -0.00000000000E+00  0.00000000000E+00  0.15843404686E+04  0.15843404686E+04  0.25500000000E-02 0.  1.
          2   -1    0    0  501    0  0.00000000000E+00 -0.00000000000E+00 -0.80407968674E+03  0.80407968674E+03  0.25500000000E-02 0. -1.
    8880023    1    1    2    0    0 -0.52797269888E+03  0.50792531984E+03 -0.33910969214E+03  0.10418967755E+04  0.65864270000E+03 0. -1.
    8880022    1    1    2    0    0  0.52797269888E+03 -0.50792531984E+03  0.11193704740E+04  0.13465233798E+04  0.15294330000E+03 0.  0.
<mgrwt>
<rscale>  0 0.91974808E+03</rscale>
<asrwt>0</asrwt>
<pdfrwt beam="1">  1        2 0.12370457E+00 0.98516674E+03</pdfrwt>
<pdfrwt beam="2">  1       -2 0.24374469E+00 0.98516674E+03</pdfrwt>
<totfact> 0.23990267E+00</totfact>
</mgrwt>
</event>
<event>
 4    1  0.3565372E-007  0.6915291E+03  0.7818608E-02  0.1003434E+00
          2   -1    0    0  501    0  0.00000000000E+00  0.00000000000E+00  0.24321043269E+04  0.24321043269E+04  0.25500000000E-02 0. -1.
         -2   -1    0    0    0  501 -0.00000000000E+00 -0.00000000000E+00 -0.13438124021E+03  0.13438124023E+03  0.25500000000E-02 0.  1.
    8880023    1    1    2    0    0  0.17356792744E+03  0.11948396189E+03  0.21679391844E+04  0.22755598775E+04  0.65864270000E+03 0.  0.
    8880022    1    1    2    0    0 -0.17356792744E+03 -0.11948396189E+03  0.12978390231E+03  0.29092568965E+03  0.15294330000E+03 0.  1.
<mgrwt>
<rscale>  0 0.54169728E+03</rscale>
<asrwt>0</asrwt>
<pdfrwt beam="1">  1        2 0.37416986E+00 0.69152907E+03</pdfrwt>
<pdfrwt beam="2">  1       -2 0.20674039E-01 0.69152907E+03</pdfrwt>
<totfact> 0.80137415E+01</totfact>
</mgrwt>
</event>
<event>
 4    1  0.3565372E-007  0.1081080E+04  0.7818608E-02  0.9282419E-01
         -2   -1    0    0    0  501 -0.00000000000E+00  0.00000000000E+00  0.13769620719E+04  0.13769620719E+04  0.25500000000E-02 0.  1.
          2   -1    0    0  501    0  0.00000000000E+00 -0.00000000000E+00 -0.17313122943E+04  0.17313122943E+04  0.25500000000E-02 0. -1.
    8880023    1    1    2    0    0 -0.36450391167E+03 -0.77592616630E+03  0.10166999654E+04  0.14840530796E+04  0.65864270000E+03 0.  0.
    8880022    1    1    2    0    0  0.36450391167E+03  0.77592616630E+03 -0.13710501878E+04  0.16242212866E+04  0.15294330000E+03 0.  0.
<mgrwt>
<rscale>  0 0.10241764E+04</rscale>
<asrwt>0</asrwt>
<pdfrwt beam="1">  1        2 0.26635574E+00 0.10810804E+04</pdfrwt>
<pdfrwt beam="2">  1       -2 0.21184032E+00 0.10810804E+04</pdfrwt>
<totfact> 0.10341324E+00</totfact>
</mgrwt>
</event>
<event>
 4    1  0.3565372E-007  0.1136270E+04  0.7818608E-02  0.9221709E-01
         -2   -1    0    0    0  501 -0.00000000000E+00  0.00000000000E+00  0.87735895584E+03  0.87735895585E+03  0.25500000000E-02 0.  1.
          2   -1    0    0  501    0  0.00000000000E+00 -0.00000000000E+00 -0.14261820837E+04  0.14261820837E+04  0.25500000000E-02 0. -1.
    8880023    1    1    2    0    0 -0.16630522789E+03 -0.91084687533E+03 -0.72615143908E+03  0.13484826947E+04  0.65864270000E+03 0.  0.
    8880022    1    1    2    0    0  0.16630522789E+03  0.91084687533E+03  0.17732831123E+03  0.95505834486E+03  0.15294330000E+03 0.  0.
<mgrwt>
<rscale>  0 0.10832137E+04</rscale>
<asrwt>0</asrwt>
<pdfrwt beam="1">  1        2 0.21941263E+00 0.11362701E+04</pdfrwt>
<pdfrwt beam="2">  1       -2 0.13497830E+00 0.11362701E+04</pdfrwt>
<totfact> 0.54028932E+00</totfact>
</mgrwt>
</event>
<event>
 4    1  0.3565372E-007  0.7507984E+03  0.7818608E-02  0.9829540E-01
         -2   -1    0    0    0  501 -0.00000000000E+00  0.00000000000E+00  0.48064461743E+03  0.48064461744E+03  0.25500000000E-02 0.  1.
          2   -1    0    0  501    0  0.00000000000E+00 -0.00000000000E+00 -0.21730756936E+04  0.21730756936E+04  0.25500000000E-02 0. -1.
    8880023    1    1    2    0    0  0.36023461648E+03 -0.10910440707E+02 -0.20125257639E+04  0.21480126102E+04  0.65864270000E+03 0. -1.
    8880022    1    1    2    0    0 -0.36023461648E+03  0.10910440707E+02  0.32009468774E+03  0.50570770091E+03  0.15294330000E+03 0.  0.
<mgrwt>
<rscale>  0 0.63801086E+03</rscale>
<asrwt>0</asrwt>
<pdfrwt beam="1">  1        2 0.33431933E+00 0.75079839E+03</pdfrwt>
<pdfrwt beam="2">  1       -2 0.73945327E-01 0.75079839E+03</pdfrwt>
<totfact> 0.91603967E+00</totfact>
</mgrwt>
</event>
<event>
 4    1  0.3565372E-007  0.8207969E+03  0.7818608E-02  0.9667511E-01
          2   -1    0    0  501    0  0.00000000000E+00  0.00000000000E+00  0.17485167300E+04  0.17485167300E+04  0.25500000000E-02 0. -1.
         -2   -1    0    0    0  501 -0.00000000000E+00 -0.00000000000E+00 -0.91250826801E+03  0.91250826801E+03  0.25500000000E-02 0.  1.
    8880023    1    1    2    0    0  0.59508073781E+02 -0.48616473495E+03  0.15663931693E+04  0.17684159939E+04  0.65864270000E+03 0.  0.
    8880022    1    1    2    0    0 -0.59508073781E+02  0.48616473495E+03 -0.73038470737E+03  0.89260900406E+03  0.15294330000E+03 0.  0.
<mgrwt>
<rscale>  0 0.72984540E+03</rscale>
<asrwt>0</asrwt>
<pdfrwt beam="1">  1        2 0.26900257E+00 0.82079691E+03</pdfrwt>
<pdfrwt beam="2">  1       -2 0.14038589E+00 0.82079691E+03</pdfrwt>
<totfact> 0.33512240E+00</totfact>
</mgrwt>
</event>
<event>
 4    1  0.3565372E-007  0.6618793E+03  0.7818608E-02  0.1022309E+00
         -2   -1    0    0    0  501 -0.00000000000E+00  0.00000000000E+00  0.59569195540E+03  0.59569195541E+03  0.25500000000E-02 0.  1.
          2   -1    0    0  501    0  0.00000000000E+00 -0.00000000000E+00 -0.27679448281E+04  0.27679448281E+04  0.25500000000E-02 0. -1.
    8880023    1    1    2    0    0  0.45043405987E+02  0.47382545398E+02 -0.27157577263E+04  0.27952503015E+04  0.65864270000E+03 0. -1.
    8880022    1    1    2    0    0 -0.45043405987E+02 -0.47382545398E+02  0.54350485358E+03  0.56838648199E+03  0.15294330000E+03 0.  0.
<mgrwt>
<rscale>  0 0.46862640E+03</rscale>
<asrwt>0</asrwt>
<pdfrwt beam="1">  1        2 0.42583766E+00 0.66187931E+03</pdfrwt>
<pdfrwt beam="2">  1       -2 0.91644918E-01 0.66187931E+03</pdfrwt>
<totfact> 0.26445015E+00</totfact>
</mgrwt>
</event>
<event>
 4    1  0.3565372E-007  0.6843616E+03  0.7818608E-02  0.1006957E+00
         -2   -1    0    0    0  501 -0.00000000000E+00  0.00000000000E+00  0.50936711872E+03  0.50936711872E+03  0.25500000000E-02 0.  1.
          2   -1    0    0  501    0  0.00000000000E+00 -0.00000000000E+00 -0.82769256776E+03  0.82769256777E+03  0.25500000000E-02 0. -1.
    8880023    1    1    2    0    0  0.18345078290E+03 -0.29772178360E+02 -0.63886358308E+03  0.93621442864E+03  0.65864270000E+03 0. -1.
    8880022    1    1    2    0    0 -0.18345078290E+03  0.29772178360E+02  0.32053813403E+03  0.40084525784E+03  0.15294330000E+03 0.  0.
<mgrwt>
<rscale>  0 0.52702261E+03</rscale>
<asrwt>0</asrwt>
<pdfrwt beam="1">  1        2 0.12733732E+00 0.68436158E+03</pdfrwt>
<pdfrwt beam="2">  1       -2 0.78364172E-01 0.68436158E+03</pdfrwt>
<totfact> 0.48581261E+01</totfact>
</mgrwt>
</event>
<event>
 4    1  0.3565372E-007  0.9467223E+03  0.7818608E-02  0.9454846E-01
         -2   -1    0    0    0  501 -0.00000000000E+00  0.00000000000E+00  0.11444011511E+04  0.11444011511E+04  0.25500000000E-02 0.  1.
          2   -1    0    0  501    0  0.00000000000E+00 -0.00000000000E+00 -0.95613708466E+03  0.95613708467E+03  0.25500000000E-02 0. -1.
    8880023    1    1    2    0    0  0.63637857818E+03  0.23978176768E+03 -0.54209479422E+03  0.10909399448E+04  0.65864270000E+03 0.  0.
    8880022    1    1    2    0    0 -0.63637857818E+03 -0.23978176768E+03  0.73035886070E+03  0.10095982910E+04  0.15294330000E+03 0.  0.
<mgrwt>
<rscale>  0 0.87696323E+03</rscale>
<asrwt>0</asrwt>
<pdfrwt beam="1">  1        2 0.14709801E+00 0.94672234E+03</pdfrwt>
<pdfrwt beam="2">  1       -2 0.17606172E+00 0.94672234E+03</pdfrwt>
<totfact> 0.51784305E+00</totfact>
</mgrwt>
</event>
<event>
 4    1  0.3565372E-007  0.9529016E+03  0.7818608E-02  0.9445952E-01
          2   -1    0    0  501    0  0.00000000000E+00  0.00000000000E+00  0.86532337354E+03  0.86532337355E+03  0.25500000000E-02 0. -1.
         -2   -1    0    0    0  501 -0.00000000000E+00 -0.00000000000E+00 -0.14185014772E+04  0.14185014772E+04  0.25500000000E-02 0.  1.
    8880023    1    1    2    0    0 -0.67766671026E+03  0.12238886153E+03  0.45292633558E+03  0.10550657209E+04  0.65864270000E+03 0. -1.
    8880022    1    1    2    0    0  0.67766671026E+03 -0.12238886153E+03 -0.10061044393E+04  0.12287591299E+04  0.15294330000E+03 0.  0.
<mgrwt>
<rscale>  0 0.88388628E+03</rscale>
<asrwt>0</asrwt>
<pdfrwt beam="1">  1        2 0.13312667E+00 0.95290157E+03</pdfrwt>
<pdfrwt beam="2">  1       -2 0.21823100E+00 0.95290157E+03</pdfrwt>
<totfact> 0.31383122E+00</totfact>
</mgrwt>
</event>
<event>
 4    1  0.3565372E-007  0.7714217E+03  0.7818608E-02  0.9776388E-01
          2   -1    0    0  501    0  0.00000000000E+00  0.00000000000E+00  0.27156844161E+04  0.27156844161E+04  0.25500000000E-02 0. -1.
         -2   -1    0    0    0  501 -0.00000000000E+00 -0.00000000000E+00 -0.25798406622E+03  0.25798406623E+03  0.25500000000E-02 0.  1.
    8880023    1    1    2    0    0  0.19111846100E+03  0.35320667937E+03  0.24226523533E+04  0.25425058221E+04  0.65864270000E+03 0. -1.
    8880022    1    1    2    0    0 -0.19111846100E+03 -0.35320667937E+03  0.35047996628E+02  0.43116266022E+03  0.15294330000E+03 0.  0.
<mgrwt>
<rscale>  0 0.66645261E+03</rscale>
<asrwt>0</asrwt>
<pdfrwt beam="1">  1        2 0.41779762E+00 0.77142169E+03</pdfrwt>
<pdfrwt beam="2">  1       -2 0.39689855E-01 0.77142169E+03</pdfrwt>
<totfact> 0.16368273E+01</totfact>
</mgrwt>
</event>
<event>
 4    1  0.3565372E-007  0.6675671E+03  0.7818608E-02  0.1017470E+00
         -2   -1    0    0    0  501 -0.00000000000E+00  0.00000000000E+00  0.41431433100E+03  0.41431433101E+03  0.25500000000E-02 0.  1.
          2   -1    0    0  501    0  0.00000000000E+00 -0.00000000000E+00 -0.51469591925E+03  0.51469591926E+03  0.25500000000E-02 0. -1.
    8880023    1    1    2    0    0 -0.74490252420E+02  0.79289224613E+02 -0.22414117591E+03  0.70419106203E+03  0.65864270000E+03 0. -1.
    8880022    1    1    2    0    0  0.74490252420E+02 -0.79289224613E+02  0.12375958766E+03  0.22481918823E+03  0.15294330000E+03 0.  0.
<mgrwt>
<rscale>  0 0.48610601E+03</rscale>
<asrwt>0</asrwt>
<pdfrwt beam="1">  1        2 0.79183987E-01 0.66756706E+03</pdfrwt>
<pdfrwt beam="2">  1       -2 0.63740667E-01 0.66756706E+03</pdfrwt>
<totfact> 0.13753866E+02</totfact>
</mgrwt>
</event>
<event>
 4    1  0.3565372E-007  0.1036045E+04  0.7818608E-02  0.9335848E-01
         -2   -1    0    0    0  501 -0.00000000000E+00  0.00000000000E+00  0.16054124225E+04  0.16054124225E+04  0.25500000000E-02 0.  1.
          2   -1    0    0  501    0  0.00000000000E+00 -0.00000000000E+00 -0.89661808419E+03  0.89661808420E+03  0.25500000000E-02 0. -1.
    8880023    1    1    2    0    0 -0.79577282746E+03 -0.79528124423E+02 -0.41347328122E+03  0.11155041354E+04  0.65864270000E+03 0. -1.
    8880022    1    1    2    0    0  0.79577282746E+03  0.79528124423E+02  0.11222676195E+04  0.13865263713E+04  0.15294330000E+03 0.  0.
<mgrwt>
<rscale>  0 0.97548540E+03</rscale>
<asrwt>0</asrwt>
<pdfrwt beam="1">  1        2 0.13794124E+00 0.10360450E+04</pdfrwt>
<pdfrwt beam="2">  1       -2 0.24698653E+00 0.10360450E+04</pdfrwt>
<totfact> 0.19620564E+00</totfact>
</mgrwt>
</event>
<event>
 4    1  0.3565372E-007  0.6906366E+03  0.7818608E-02  0.1003851E+00
          2   -1    0    0  501    0  0.00000000000E+00  0.00000000000E+00  0.17947467669E+04  0.17947467669E+04  0.25500000000E-02 0. -1.
         -2   -1    0    0    0  501 -0.00000000000E+00 -0.00000000000E+00 -0.32737140110E+03  0.32737140111E+03  0.25500000000E-02 0.  1.
    8880023    1    1    2    0    0  0.20583950615E+03  0.28263723035E+02  0.16614515670E+04  0.17992777040E+04  0.65864270000E+03 0.  0.
    8880022    1    1    2    0    0 -0.20583950615E+03 -0.28263723035E+02 -0.19407620120E+03  0.32284046403E+03  0.15294330000E+03 0.  0.
<mgrwt>
<rscale>  0 0.53993215E+03</rscale>
<asrwt>0</asrwt>
<pdfrwt beam="1">  1        2 0.27611488E+00 0.69063662E+03</pdfrwt>
<pdfrwt beam="2">  1       -2 0.50364832E-01 0.69063662E+03</pdfrwt>
<totfact> 0.33552776E+01</totfact>
</mgrwt>
</event>
<event>
 4    1  0.3565372E-007  0.1206039E+04  0.7818608E-02  0.9151274E-01
          2   -1    0    0  501    0  0.00000000000E+00  0.00000000000E+00  0.16394229593E+04  0.16394229593E+04  0.25500000000E-02 0. -1.
         -2   -1    0    0    0  501 -0.00000000000E+00 -0.00000000000E+00 -0.87660613033E+03  0.87660613034E+03  0.25500000000E-02 0.  1.
    8880023    1    1    2    0    0  0.86167195633E+03 -0.52748531595E+03  0.87219700819E+03  0.14883739941E+04  0.65864270000E+03 0.  0.
    8880022    1    1    2    0    0 -0.86167195633E+03  0.52748531595E+03 -0.10938017920E+03  0.10276550956E+04  0.15294330000E+03 0.  0.
<mgrwt>
<rscale>  0 0.11570824E+04</rscale>
<asrwt>0</asrwt>
<pdfrwt beam="1">  1        2 0.25221891E+00 0.12060388E+04</pdfrwt>
<pdfrwt beam="2">  1       -2 0.13486248E+00 0.12060388E+04</pdfrwt>
<totfact> 0.40788337E+00</totfact>
</mgrwt>
</event>
<event>
 4    1  0.3565372E-007  0.6792450E+03  0.7818608E-02  0.1009754E+00
          2   -1    0    0  501    0  0.00000000000E+00  0.00000000000E+00  0.19369121753E+04  0.19369121753E+04  0.25500000000E-02 0. -1.
         -2   -1    0    0    0  501 -0.00000000000E+00 -0.00000000000E+00 -0.51700002947E+03  0.51700002948E+03  0.25500000000E-02 0.  1.
    8880023    1    1    2    0    0  0.12862588538E+03  0.10497122745E+03  0.18485911486E+04  0.19694321562E+04  0.65864270000E+03 0. -1.
    8880022    1    1    2    0    0 -0.12862588538E+03 -0.10497122745E+03 -0.42867900280E+03  0.48448004854E+03  0.15294330000E+03 0.  0.
<mgrwt>
<rscale>  0 0.51572530E+03</rscale>
<asrwt>0</asrwt>
<pdfrwt beam="1">  1        2 0.29798649E+00 0.67924501E+03</pdfrwt>
<pdfrwt beam="2">  1       -2 0.79538464E-01 0.67924501E+03</pdfrwt>
<totfact> 0.10603808E+01</totfact>
</mgrwt>
</event>
<event>
 4    1  0.3565372E-007  0.7059235E+03  0.7818608E-02  0.9973462E-01
          2   -1    0    0  501    0  0.00000000000E+00  0.00000000000E+00  0.29525034727E+04  0.29525034727E+04  0.25500000000E-02 0. -1.
         -2   -1    0    0    0  501 -0.00000000000E+00 -0.00000000000E+00 -0.88764532912E+02  0.88764532949E+02  0.25500000000E-02 0.  1.
    8880023    1    1    2    0    0  0.24251698822E+03 -0.75519805148E+02  0.22762613110E+04  0.23832107529E+04  0.65864270000E+03 0.  0.
    8880022    1    1    2    0    0 -0.24251698822E+03  0.75519805148E+02  0.58747762874E+03  0.65805725270E+03  0.15294330000E+03 0.  0.
<mgrwt>
<rscale>  0 0.56829341E+03</rscale>
<asrwt>0</asrwt>
<pdfrwt beam="1">  1        2 0.45423124E+00 0.70592346E+03</pdfrwt>
<pdfrwt beam="2">  1       -2 0.13656084E-01 0.70592346E+03</pdfrwt>
<totfact> 0.81063998E+01</totfact>
</mgrwt>
</event>
<event>
 4    1  0.3565372E-007  0.8810169E+03  0.7818608E-02  0.9557219E-01
          2   -1    0    0  501    0  0.00000000000E+00  0.00000000000E+00  0.13667497783E+04  0.13667497783E+04  0.25500000000E-02 0. -1.
         -2   -1    0    0    0  501 -0.00000000000E+00 -0.00000000000E+00 -0.15125586186E+04  0.15125586186E+04  0.25500000000E-02 0.  1.
    8880023    1    1    2    0    0  0.36352362188E+03 -0.45850979771E+03  0.11503676254E+04  0.14489777562E+04  0.65864270000E+03 0. -1.
    8880022    1    1    2    0    0 -0.36352362188E+03  0.45850979771E+03 -0.12961764657E+04  0.14303306406E+04  0.15294330000E+03 0.  0.
<mgrwt>
<rscale>  0 0.80193571E+03</rscale>
<asrwt>0</asrwt>
<pdfrwt beam="1">  1        2 0.21026920E+00 0.88101695E+03</pdfrwt>
<pdfrwt beam="2">  1       -2 0.23270133E+00 0.88101695E+03</pdfrwt>
<totfact> 0.12597307E+00</totfact>
</mgrwt>
</event>
<event>
 4    1  0.3565372E-007  0.1176973E+04  0.7818608E-02  0.9179838E-01
         -2   -1    0    0    0  501 -0.00000000000E+00  0.00000000000E+00  0.12869094072E+04  0.12869094072E+04  0.25500000000E-02 0.  1.
          2   -1    0    0  501    0  0.00000000000E+00 -0.00000000000E+00 -0.13233422598E+04  0.13233422598E+04  0.25500000000E-02 0. -1.
    8880023    1    1    2    0    0  0.65079539105E+03 -0.72658124559E+03 -0.74681006786E+03  0.13939119166E+04  0.65864270000E+03 0. -1.
    8880022    1    1    2    0    0 -0.65079539105E+03  0.72658124559E+03  0.71037721522E+03  0.12163397504E+04  0.15294330000E+03 0.  0.
<mgrwt>
<rscale>  0 0.11263980E+04</rscale>
<asrwt>0</asrwt>
<pdfrwt beam="1">  1        2 0.20359112E+00 0.11769729E+04</pdfrwt>
<pdfrwt beam="2">  1       -2 0.19798606E+00 0.11769729E+04</pdfrwt>
<totfact> 0.21372834E+00</totfact>
</mgrwt>
</event>
<event>
 4    1  0.3565372E-007  0.6631695E+03  0.7818608E-02  0.1021121E+00
          2   -1    0    0  501    0  0.00000000000E+00  0.00000000000E+00  0.41780991488E+04  0.41780991488E+04  0.25500000000E-02 0. -1.
         -2   -1    0    0    0  501 -0.00000000000E+00 -0.00000000000E+00 -0.14512253648E+03  0.14512253651E+03  0.25500000000E-02 0.  1.
    8880023    1    1    2    0    0  0.75082994433E+02 -0.18605553247E+02  0.40893672630E+04  0.41427911414E+04  0.65864270000E+03 0. -1.
    8880022    1    1    2    0    0 -0.75082994433E+02  0.18605553247E+02 -0.56390650766E+02  0.18043054390E+03  0.15294330000E+03 0.  0.
<mgrwt>
<rscale>  0 0.47284213E+03</rscale>
<asrwt>0</asrwt>
<pdfrwt beam="1">  1        2 0.64278434E+00 0.66316953E+03</pdfrwt>
<pdfrwt beam="2">  1       -2 0.22326549E-01 0.66316953E+03</pdfrwt>
<totfact> 0.48490490E+00</totfact>
</mgrwt>
</event>
<event>
 4    1  0.3565372E-007  0.8463569E+03  0.7818608E-02  0.9618308E-01
         -2   -1    0    0    0  501 -0.00000000000E+00  0.00000000000E+00  0.92378400080E+03  0.92378400080E+03  0.25500000000E-02 0.  1.
          2   -1    0    0  501    0  0.00000000000E+00 -0.00000000000E+00 -0.64721127664E+03  0.64721127664E+03  0.25500000000E-02 0. -1.
    8880023    1    1    2    0    0  0.24066842324E+03  0.47390771399E+03  0.49022472331E+03  0.97807990314E+03  0.65864270000E+03 0.  1.
    8880022    1    1    2    0    0 -0.24066842324E+03 -0.47390771399E+03 -0.21365199916E+03  0.59291537430E+03  0.15294330000E+03 0.  0.
<mgrwt>
<rscale>  0 0.76096179E+03</rscale>
<asrwt>0</asrwt>
<pdfrwt beam="1">  1        2 0.99570965E-01 0.84635691E+03</pdfrwt>
<pdfrwt beam="2">  1       -2 0.14212062E+00 0.84635691E+03</pdfrwt>
<totfact> 0.15695139E+01</totfact>
</mgrwt>
</event>
<event>
 4    1  0.3565372E-007  0.7890830E+03  0.7818608E-02  0.9734918E-01
         -2   -1    0    0    0  501 -0.00000000000E+00  0.00000000000E+00  0.61930297165E+03  0.61930297166E+03  0.25500000000E-02 0.  1.
          2   -1    0    0  501    0  0.00000000000E+00 -0.00000000000E+00 -0.75765875477E+03  0.75765875477E+03  0.25500000000E-02 0. -1.
    8880023    1    1    2    0    0  0.29603339051E+03 -0.31812899333E+03 -0.35811353131E+03  0.86654332394E+03  0.65864270000E+03 0. -1.
    8880022    1    1    2    0    0 -0.29603339051E+03  0.31812899333E+03  0.21975774820E+03  0.51041840249E+03  0.15294330000E+03 0.  0.
<mgrwt>
<rscale>  0 0.68975326E+03</rscale>
<asrwt>0</asrwt>
<pdfrwt beam="1">  1        2 0.11656289E+00 0.78908303E+03</pdfrwt>
<pdfrwt beam="2">  1       -2 0.95277380E-01 0.78908303E+03</pdfrwt>
<totfact> 0.34613760E+01</totfact>
</mgrwt>
</event>
<event>
 4    1  0.3565372E-007  0.8198680E+03  0.7818608E-02  0.9669377E-01
         -2   -1    0    0    0  501 -0.00000000000E+00  0.00000000000E+00  0.21362202481E+03  0.21362202483E+03  0.25500000000E-02 0.  1.
          2   -1    0    0  501    0  0.00000000000E+00 -0.00000000000E+00 -0.31090524482E+04  0.31090524482E+04  0.25500000000E-02 0. -1.
    8880023    1    1    2    0    0 -0.49999573851E+01 -0.48820932612E+03 -0.26122835655E+04  0.27379205574E+04  0.65864270000E+03 0.  0.
    8880022    1    1    2    0    0  0.49999573851E+01  0.48820932612E+03 -0.28314685783E+03  0.58475391559E+03  0.15294330000E+03 0.  0.
<mgrwt>
<rscale>  0 0.72869687E+03</rscale>
<asrwt>0</asrwt>
<pdfrwt beam="1">  1        2 0.47831573E+00 0.81986801E+03</pdfrwt>
<pdfrwt beam="2">  1       -2 0.32864929E-01 0.81986801E+03</pdfrwt>
<totfact> 0.13495478E+01</totfact>
</mgrwt>
</event>
<event>
 4    1  0.3565372E-007  0.1027674E+04  0.7818608E-02  0.9346214E-01
          2   -1    0    0  501    0  0.00000000000E+00  0.00000000000E+00  0.16115200931E+04  0.16115200931E+04  0.25500000000E-02 0. -1.
         -2   -1    0    0    0  501 -0.00000000000E+00 -0.00000000000E+00 -0.55783178347E+03  0.55783178347E+03  0.25500000000E-02 0.  1.
    8880023    1    1    2    0    0  0.37339502909E+03 -0.69489598424E+03  0.30730636777E+03  0.10726377238E+04  0.65864270000E+03 0.  1.
    8880022    1    1    2    0    0 -0.37339502909E+03  0.69489598424E+03  0.74638194188E+03  0.10967141528E+04  0.15294330000E+03 0. -1.
<mgrwt>
<rscale>  0 0.96637376E+03</rscale>
<asrwt>0</asrwt>
<pdfrwt beam="1">  1        2 0.24792617E+00 0.10276743E+04</pdfrwt>
<pdfrwt beam="2">  1       -2 0.85820274E-01 0.10276743E+04</pdfrwt>
<totfact> 0.12884110E+01</totfact>
</mgrwt>
</event>
<event>
 4    1  0.3565372E-007  0.7543090E+03  0.7818608E-02  0.9820070E-01
          2   -1    0    0  501    0  0.00000000000E+00  0.00000000000E+00  0.22795443857E+04  0.22795443857E+04  0.25500000000E-02 0. -1.
         -2   -1    0    0    0  501 -0.00000000000E+00 -0.00000000000E+00 -0.16727177708E+03  0.16727177710E+03  0.25500000000E-02 0.  1.
    8880023    1    1    2    0    0  0.28443325685E+03 -0.23295827432E+03  0.17612700666E+04  0.19159995535E+04  0.65864270000E+03 0. -1.
    8880022    1    1    2    0    0 -0.28443325685E+03  0.23295827432E+03  0.35100254194E+03  0.53081660924E+03  0.15294330000E+03 0.  0.
<mgrwt>
<rscale>  0 0.64296504E+03</rscale>
<asrwt>0</asrwt>
<pdfrwt beam="1">  1        2 0.35069911E+00 0.75430898E+03</pdfrwt>
<pdfrwt beam="2">  1       -2 0.25734121E-01 0.75430898E+03</pdfrwt>
<totfact> 0.65456795E+01</totfact>
</mgrwt>
</event>
<event>
 4    1  0.3565372E-007  0.1006791E+04  0.7818608E-02  0.9372726E-01
         -2   -1    0    0    0  501 -0.00000000000E+00  0.00000000000E+00  0.51553548081E+03  0.51553548081E+03  0.25500000000E-02 0.  1.
          2   -1    0    0  501    0  0.00000000000E+00 -0.00000000000E+00 -0.27152547897E+04  0.27152547897E+04  0.25500000000E-02 0. -1.
    8880023    1    1    2    0    0 -0.65814566106E+03 -0.38296572189E+03 -0.22371146187E+04  0.24532245064E+04  0.65864270000E+03 0.  0.
    8880022    1    1    2    0    0  0.65814566106E+03  0.38296572189E+03  0.37395309802E+02  0.77756576412E+03  0.15294330000E+03 0.  0.
<mgrwt>
<rscale>  0 0.94354617E+03</rscale>
<asrwt>0</asrwt>
<pdfrwt beam="1">  1        2 0.41773150E+00 0.10067913E+04</pdfrwt>
<pdfrwt beam="2">  1       -2 0.79313152E-01 0.10067913E+04</pdfrwt>
<totfact> 0.37152618E+00</totfact>
</mgrwt>
</event>
<event>
 4    1  0.3565372E-007  0.1230559E+04  0.7818608E-02  0.9127975E-01
          2   -1    0    0  501    0  0.00000000000E+00  0.00000000000E+00  0.11681329817E+04  0.11681329817E+04  0.25500000000E-02 0. -1.
         -2   -1    0    0    0  501 -0.00000000000E+00 -0.00000000000E+00 -0.12387486010E+04  0.12387486010E+04  0.25500000000E-02 0.  1.
    8880023    1    1    2    0    0  0.85739304663E+03  0.58765742365E+03 -0.41907066670E+03  0.12999594278E+04  0.65864270000E+03 0.  0.
    8880022    1    1    2    0    0 -0.85739304663E+03 -0.58765742365E+03  0.34845504743E+03  0.11069221549E+04  0.15294330000E+03 0.  0.
<mgrwt>
<rscale>  0 0.11828802E+04</rscale>
<asrwt>0</asrwt>
<pdfrwt beam="1">  1        2 0.17971277E+00 0.12305585E+04</pdfrwt>
<pdfrwt beam="2">  1       -2 0.19057671E+00 0.12305585E+04</pdfrwt>
<totfact> 0.29454741E+00</totfact>
</mgrwt>
</event>
<event>
 4    1  0.3565372E-007  0.1367092E+04  0.7818608E-02  0.9009684E-01
         -2   -1    0    0    0  501 -0.00000000000E+00  0.00000000000E+00  0.81205323544E+03  0.81205323545E+03  0.25500000000E-02 0.  1.
          2   -1    0    0  501    0  0.00000000000E+00 -0.00000000000E+00 -0.35994632387E+04  0.35994632387E+04  0.25500000000E-02 0. -1.
    8880023    1    1    2    0    0  0.70290344781E+02 -0.11959052585E+04 -0.28924634327E+04  0.31992632020E+04  0.65864270000E+03 0. -1.
    8880022    1    1    2    0    0 -0.70290344781E+02  0.11959052585E+04  0.10505342942E+03  0.12122532722E+04  0.15294330000E+03 0.  0.
<mgrwt>
<rscale>  0 0.13253708E+04</rscale>
<asrwt>0</asrwt>
<pdfrwt beam="1">  1        2 0.55376357E+00 0.13670919E+04</pdfrwt>
<pdfrwt beam="2">  1       -2 0.12493127E+00 0.13670919E+04</pdfrwt>
<totfact> 0.32360822E-01</totfact>
</mgrwt>
</event>
<event>
 4    1  0.3565372E-007  0.1202799E+04  0.7818608E-02  0.9154406E-01
         -2   -1    0    0    0  501 -0.00000000000E+00  0.00000000000E+00  0.13723011215E+04  0.13723011215E+04  0.25500000000E-02 0.  1.
          2   -1    0    0  501    0  0.00000000000E+00 -0.00000000000E+00 -0.10212698966E+04  0.10212698966E+04  0.25500000000E-02 0. -1.
    8880023    1    1    2    0    0 -0.64993168013E+03  0.76844267230E+03 -0.22535780316E+03  0.12237285954E+04  0.65864270000E+03 0.  0.
    8880022    1    1    2    0    0  0.64993168013E+03 -0.76844267230E+03  0.57638902803E+03  0.11698424228E+04  0.15294330000E+03 0.  0.
<mgrwt>
<rscale>  0 0.11536680E+04</rscale>
<asrwt>0</asrwt>
<pdfrwt beam="1">  1        2 0.15711845E+00 0.12027990E+04</pdfrwt>
<pdfrwt beam="2">  1       -2 0.21112325E+00 0.12027990E+04</pdfrwt>
<totfact> 0.26727456E+00</totfact>
</mgrwt>
</event>
<event>
 4    1  0.3565372E-007  0.6798450E+03  0.7818608E-02  0.1009411E+00
          2   -1    0    0  501    0  0.00000000000E+00  0.00000000000E+00  0.10003766050E+04  0.10003766050E+04  0.25500000000E-02 0. -1.
         -2   -1    0    0    0  501 -0.00000000000E+00 -0.00000000000E+00 -0.22163803915E+03  0.22163803916E+03  0.25500000000E-02 0.  1.
    8880023    1    1    2    0    0  0.15606425755E+02 -0.16773618612E+03  0.71301704036E+03  0.98518145271E+03  0.65864270000E+03 0.  0.
    8880022    1    1    2    0    0 -0.15606425755E+02  0.16773618612E+03  0.65721525538E+02  0.23683319149E+03  0.15294330000E+03 0.  0.
<mgrwt>
<rscale>  0 0.51709205E+03</rscale>
<asrwt>0</asrwt>
<pdfrwt beam="1">  1        2 0.15390409E+00 0.67984498E+03</pdfrwt>
<pdfrwt beam="2">  1       -2 0.34098160E-01 0.67984498E+03</pdfrwt>
<totfact> 0.20561063E+02</totfact>
</mgrwt>
</event>
<event>
 4    1  0.3565372E-007  0.7820833E+03  0.7818608E-02  0.9750966E-01
          2   -1    0    0  501    0  0.00000000000E+00  0.00000000000E+00  0.11543975784E+04  0.11543975784E+04  0.25500000000E-02 0. -1.
         -2   -1    0    0    0  501 -0.00000000000E+00 -0.00000000000E+00 -0.47669517492E+03  0.47669517493E+03  0.25500000000E-02 0.  1.
    8880023    1    1    2    0    0 -0.28670776703E+03  0.30926163589E+03  0.84586469877E+03  0.11520162317E+04  0.65864270000E+03 0. -1.
    8880022    1    1    2    0    0  0.28670776703E+03 -0.30926163589E+03 -0.16816229524E+03  0.47907652172E+03  0.15294330000E+03 0.  0.
<mgrwt>
<rscale>  0 0.68061718E+03</rscale>
<asrwt>0</asrwt>
<pdfrwt beam="1">  1        2 0.17759963E+00 0.78208331E+03</pdfrwt>
<pdfrwt beam="2">  1       -2 0.73337719E-01 0.78208331E+03</pdfrwt>
<totfact> 0.34357009E+01</totfact>
</mgrwt>
</event>
<event>
 4    1  0.3565372E-007  0.7982719E+03  0.7818608E-02  0.9714545E-01
          2   -1    0    0  501    0  0.00000000000E+00  0.00000000000E+00  0.98349086834E+03  0.98349086834E+03  0.25500000000E-02 0. -1.
         -2   -1    0    0    0  501 -0.00000000000E+00 -0.00000000000E+00 -0.85267946133E+03  0.85267946133E+03  0.25500000000E-02 0.  1.
    8880023    1    1    2    0    0  0.44762674405E+03 -0.55300852780E+02  0.72245797851E+03  0.10766539013E+04  0.65864270000E+03 0. -1.
    8880022    1    1    2    0    0 -0.44762674405E+03  0.55300852780E+02 -0.59164657150E+03  0.75951642833E+03  0.15294330000E+03 0.  1.
<mgrwt>
<rscale>  0 0.70157355E+03</rscale>
<asrwt>0</asrwt>
<pdfrwt beam="1">  1        2 0.15130629E+00 0.79827194E+03</pdfrwt>
<pdfrwt beam="2">  1       -2 0.13118146E+00 0.79827194E+03</pdfrwt>
<totfact> 0.11084534E+01</totfact>
</mgrwt>
</event>
<event>
 4    1  0.3565372E-007  0.6814805E+03  0.7818608E-02  0.1008498E+00
         -2   -1    0    0    0  501 -0.00000000000E+00  0.00000000000E+00  0.14638748992E+04  0.14638748992E+04  0.25500000000E-02 0.  1.
          2   -1    0    0  501    0  0.00000000000E+00 -0.00000000000E+00 -0.24288568141E+03  0.24288568142E+03  0.25500000000E-02 0. -1.
    8880023    1    1    2    0    0  0.15217389358E+03 -0.86305072342E+02  0.27874230022E+03  0.73628318981E+03  0.65864270000E+03 0. -1.
    8880022    1    1    2    0    0 -0.15217389358E+03  0.86305072342E+02  0.94224691752E+03  0.97047739077E+03  0.15294330000E+03 0.  0.
<mgrwt>
<rscale>  0 0.52075853E+03</rscale>
<asrwt>0</asrwt>
<pdfrwt beam="1">  1        2 0.37367028E-01 0.68148050E+03</pdfrwt>
<pdfrwt beam="2">  1       -2 0.22521152E+00 0.68148050E+03</pdfrwt>
<totfact> 0.13094478E+01</totfact>
</mgrwt>
</event>
<event>
 4    1  0.3565372E-007  0.6857275E+03  0.7818608E-02  0.1006253E+00
          2   -1    0    0  501    0  0.00000000000E+00  0.00000000000E+00  0.14001275722E+04  0.14001275722E+04  0.25500000000E-02 0. -1.
         -2   -1    0    0    0  501 -0.00000000000E+00 -0.00000000000E+00 -0.16074802155E+03  0.16074802157E+03  0.25500000000E-02 0.  1.
    8880023    1    1    2    0    0  0.42934076505E+02  0.18592635920E+03  0.76623595866E+03  0.10282702449E+04  0.65864270000E+03 0.  0.
    8880022    1    1    2    0    0 -0.42934076505E+02 -0.18592635920E+03  0.47314359196E+03  0.53260534882E+03  0.15294330000E+03 0.  1.
<mgrwt>
<rscale>  0 0.52991300E+03</rscale>
<asrwt>0</asrwt>
<pdfrwt beam="1">  1        2 0.21540425E+00 0.68572746E+03</pdfrwt>
<pdfrwt beam="2">  1       -2 0.24730464E-01 0.68572746E+03</pdfrwt>
<totfact> 0.21529334E+02</totfact>
</mgrwt>
</event>
<event>
 4    1  0.3565372E-007  0.7437474E+03  0.7818608E-02  0.9849163E-01
         -2   -1    0    0    0  501 -0.00000000000E+00  0.00000000000E+00  0.44546930854E+03  0.44546930854E+03  0.25500000000E-02 0.  1.
          2   -1    0    0  501    0  0.00000000000E+00 -0.00000000000E+00 -0.16961702798E+04  0.16961702798E+04  0.25500000000E-02 0. -1.
    8880023    1    1    2    0    0 -0.25283257923E+03  0.23542661515E+03 -0.15101211923E+04  0.16833378228E+04  0.65864270000E+03 0. -1.
    8880022    1    1    2    0    0  0.25283257923E+03 -0.23542661515E+03  0.25942022096E+03  0.45830176554E+03  0.15294330000E+03 0.  0.
<mgrwt>
<rscale>  0 0.62789633E+03</rscale>
<asrwt>0</asrwt>
<pdfrwt beam="1">  1        2 0.26094927E+00 0.74374741E+03</pdfrwt>
<pdfrwt beam="2">  1       -2 0.68533741E-01 0.74374741E+03</pdfrwt>
<totfact> 0.19733157E+01</totfact>
</mgrwt>
</event>
<event>
 4    1  0.3565372E-007  0.9031616E+03  0.7818608E-02  0.9520975E-01
          2   -1    0    0  501    0  0.00000000000E+00  0.00000000000E+00  0.28426153485E+04  0.28426153485E+04  0.25500000000E-02 0. -1.
         -2   -1    0    0    0  501 -0.00000000000E+00 -0.00000000000E+00 -0.34930773052E+03  0.34930773053E+03  0.25500000000E-02 0.  1.
    8880023    1    1    2    0    0  0.60798281077E+03 -0.11066858000E+03  0.23795999120E+04  0.25452301625E+04  0.65864270000E+03 0. -1.
    8880022    1    1    2    0    0 -0.60798281077E+03  0.11066858000E+03  0.11370770594E+03  0.64669291646E+03  0.15294330000E+03 0.  0.
<mgrwt>
<rscale>  0 0.82754914E+03</rscale>
<asrwt>0</asrwt>
<pdfrwt beam="1">  1        2 0.43732545E+00 0.90316158E+03</pdfrwt>
<pdfrwt beam="2">  1       -2 0.53739650E-01 0.90316158E+03</pdfrwt>
<totfact> 0.73436636E+00</totfact>
</mgrwt>
</event>
<event>
 4    1  0.3565372E-007  0.6736262E+03  0.7818608E-02  0.1013187E+00
          2   -1    0    0  501    0  0.00000000000E+00  0.00000000000E+00  0.21097367307E+04  0.21097367307E+04  0.25500000000E-02 0. -1.
         -2   -1    0    0    0  501 -0.00000000000E+00 -0.00000000000E+00 -0.45550610844E+03  0.45550610844E+03  0.25500000000E-02 0.  1.
    8880023    1    1    2    0    0 -0.14128691934E+03 -0.30595778683E+00  0.20282417649E+04  0.21371796720E+04  0.65864270000E+03 0. -1.
    8880022    1    1    2    0    0  0.14128691934E+03  0.30595778683E+00 -0.37401114267E+03  0.42806316712E+03  0.15294330000E+03 0.  0.
<mgrwt>
<rscale>  0 0.50227616E+03</rscale>
<asrwt>0</asrwt>
<pdfrwt beam="1">  1        2 0.32457488E+00 0.67362623E+03</pdfrwt>
<pdfrwt beam="2">  1       -2 0.70077864E-01 0.67362623E+03</pdfrwt>
<totfact> 0.11307586E+01</totfact>
</mgrwt>
</event>
<event>
 4    1  0.3565372E-007  0.6853263E+03  0.7818608E-02  0.1006458E+00
          2   -1    0    0  501    0  0.00000000000E+00  0.00000000000E+00  0.20781016981E+04  0.20781016981E+04  0.25500000000E-02 0. -1.
         -2   -1    0    0    0  501 -0.00000000000E+00 -0.00000000000E+00 -0.10955167488E+03  0.10955167491E+03  0.25500000000E-02 0.  1.
    8880023    1    1    2    0    0 -0.16925912178E+03 -0.84931311038E+02  0.12051464606E+04  0.13863802421E+04  0.65864270000E+03 0. -1.
    8880022    1    1    2    0    0  0.16925912178E+03  0.84931311038E+02  0.76340356265E+03  0.80127313095E+03  0.15294330000E+03 0.  0.
<mgrwt>
<rscale>  0 0.52906915E+03</rscale>
<asrwt>0</asrwt>
<pdfrwt beam="1">  1        2 0.31970795E+00 0.68532633E+03</pdfrwt>
<pdfrwt beam="2">  1       -2 0.16854104E-01 0.68532633E+03</pdfrwt>
<totfact> 0.17924095E+02</totfact>
</mgrwt>
</event>
<event>
 4    1  0.3565372E-007  0.1058052E+04  0.7818608E-02  0.9309264E-01
          2   -1    0    0  501    0  0.00000000000E+00  0.00000000000E+00  0.11168113837E+04  0.11168113837E+04  0.25500000000E-02 0. -1.
         -2   -1    0    0    0  501 -0.00000000000E+00 -0.00000000000E+00 -0.12254947077E+04  0.12254947077E+04  0.25500000000E-02 0.  1.
    8880023    1    1    2    0    0  0.82761091962E+03  0.26906336055E+02  0.62207748504E+03  0.12273770361E+04  0.65864270000E+03 0.  0.
    8880022    1    1    2    0    0 -0.82761091962E+03 -0.26906336055E+02 -0.73076080900E+03  0.11149290552E+04  0.15294330000E+03 0.  0.
<mgrwt>
<rscale>  0 0.99934462E+03</rscale>
<asrwt>0</asrwt>
<pdfrwt beam="1">  1        2 0.17181713E+00 0.10580520E+04</pdfrwt>
<pdfrwt beam="2">  1       -2 0.18853765E+00 0.10580520E+04</pdfrwt>
<totfact> 0.33234875E+00</totfact>
</mgrwt>
</event>
<event>
 4    1  0.3565372E-007  0.8138562E+03  0.7818608E-02  0.9681600E-01
          2   -1    0    0  501    0  0.00000000000E+00  0.00000000000E+00  0.14899155199E+04  0.14899155199E+04  0.25500000000E-02 0. -1.
         -2   -1    0    0    0  501 -0.00000000000E+00 -0.00000000000E+00 -0.35621527965E+03  0.35621527965E+03  0.25500000000E-02 0.  1.
    8880023    1    1    2    0    0  0.38154901778E+03 -0.28804877093E+03  0.10636970197E+04  0.13393331563E+04  0.65864270000E+03 0.  0.
    8880022    1    1    2    0    0 -0.38154901778E+03  0.28804877093E+03  0.70003220571E+02  0.50679764335E+03  0.15294330000E+03 0.  0.
<mgrwt>
<rscale>  0 0.72122976E+03</rscale>
<asrwt>0</asrwt>
<pdfrwt beam="1">  1        2 0.22921777E+00 0.81385622E+03</pdfrwt>
<pdfrwt beam="2">  1       -2 0.54802352E-01 0.81385622E+03</pdfrwt>
<totfact> 0.40912284E+01</totfact>
</mgrwt>
</event>
<event>
 4    1  0.3565372E-007  0.7890942E+03  0.7818608E-02  0.9734892E-01
         -2   -1    0    0    0  501 -0.00000000000E+00  0.00000000000E+00  0.33817912254E+03  0.33817912255E+03  0.25500000000E-02 0.  1.
          2   -1    0    0  501    0  0.00000000000E+00 -0.00000000000E+00 -0.16809698602E+04  0.16809698602E+04  0.25500000000E-02 0. -1.
    8880023    1    1    2    0    0 -0.38788085199E+03 -0.19597939173E+03 -0.13438998936E+04  0.15584404409E+04  0.65864270000E+03 0. -1.
    8880022    1    1    2    0    0  0.38788085199E+03  0.19597939173E+03  0.11091559991E+01  0.46070854188E+03  0.15294330000E+03 0.  0.
<mgrwt>
<rscale>  0 0.68976777E+03</rscale>
<asrwt>0</asrwt>
<pdfrwt beam="1">  1        2 0.25861074E+00 0.78909422E+03</pdfrwt>
<pdfrwt beam="2">  1       -2 0.52027558E-01 0.78909422E+03</pdfrwt>
<totfact> 0.35797199E+01</totfact>
</mgrwt>
</event>
<event>
 4    1  0.3565372E-007  0.7846439E+03  0.7818608E-02  0.9745039E-01
         -2   -1    0    0    0  501 -0.00000000000E+00  0.00000000000E+00  0.25140588516E+03  0.25140588517E+03  0.25500000000E-02 0.  1.
          2   -1    0    0  501    0  0.00000000000E+00 -0.00000000000E+00 -0.23972757163E+04  0.23972757163E+04  0.25500000000E-02 0. -1.
    8880023    1    1    2    0    0  0.42628269138E+03 -0.11788753781E+02 -0.20367789680E+04  0.21826897806E+04  0.65864270000E+03 0. -1.
    8880022    1    1    2    0    0 -0.42628269138E+03  0.11788753781E+02 -0.10909086317E+03  0.46599182088E+03  0.15294330000E+03 0.  0.
<mgrwt>
<rscale>  0 0.68397341E+03</rscale>
<asrwt>0</asrwt>
<pdfrwt beam="1">  1        2 0.36881163E+00 0.78464394E+03</pdfrwt>
<pdfrwt beam="2">  1       -2 0.38677830E-01 0.78464394E+03</pdfrwt>
<totfact> 0.26125413E+01</totfact>
</mgrwt>
</event>
<event>
 4    1  0.3565372E-007  0.8794229E+03  0.7818608E-02  0.9559906E-01
         -2   -1    0    0    0  501 -0.00000000000E+00  0.00000000000E+00  0.99395257168E+03  0.99395257169E+03  0.25500000000E-02 0.  1.
          2   -1    0    0  501    0  0.00000000000E+00 -0.00000000000E+00 -0.12829566439E+04  0.12829566439E+04  0.25500000000E-02 0. -1.
    8880023    1    1    2    0    0  0.17524439498E+03 -0.55575518665E+03 -0.10087664945E+04  0.13382804161E+04  0.65864270000E+03 0. -1.
    8880022    1    1    2    0    0 -0.17524439498E+03  0.55575518665E+03  0.71976242235E+03  0.93862879942E+03  0.15294330000E+03 0.  0.
<mgrwt>
<rscale>  0 0.80007662E+03</rscale>
<asrwt>0</asrwt>
<pdfrwt beam="1">  1        2 0.19737795E+00 0.87942290E+03</pdfrwt>
<pdfrwt beam="2">  1       -2 0.15291578E+00 0.87942290E+03</pdfrwt>
<totfact> 0.48407336E+00</totfact>
</mgrwt>
</event>
<event>
 4    1  0.3565372E-007  0.9909068E+03  0.7818608E-02  0.9393552E-01
         -2   -1    0    0    0  501 -0.00000000000E+00  0.00000000000E+00  0.40879333865E+03  0.40879333866E+03  0.25500000000E-02 0.  1.
          2   -1    0    0  501    0  0.00000000000E+00 -0.00000000000E+00 -0.24671036852E+04  0.24671036852E+04  0.25500000000E-02 0. -1.
    8880023    1    1    2    0    0  0.70021831923E+03  0.24037534003E+03 -0.18386528723E+04  0.20886695741E+04  0.65864270000E+03 0.  0.
    8880022    1    1    2    0    0 -0.70021831923E+03 -0.24037534003E+03 -0.21965747427E+03  0.78722744978E+03  0.15294330000E+03 0.  0.
<mgrwt>
<rscale>  0 0.92608212E+03</rscale>
<asrwt>0</asrwt>
<pdfrwt beam="1">  1        2 0.37955441E+00 0.99090676E+03</pdfrwt>
<pdfrwt beam="2">  1       -2 0.62891284E-01 0.99090676E+03</pdfrwt>
<totfact> 0.86258566E+00</totfact>
</mgrwt>
</event>
<event>
 4    1  0.3565372E-007  0.7584772E+03  0.7818608E-02  0.9809066E-01
          2   -1    0    0  501    0  0.00000000000E+00  0.00000000000E+00  0.15304670929E+04  0.15304670929E+04  0.25500000000E-02 0. -1.
         -2   -1    0    0    0  501 -0.00000000000E+00 -0.00000000000E+00 -0.24290602608E+03  0.24290602609E+03  0.25500000000E-02 0.  1.
    8880023    1    1    2    0    0 -0.19339483103E+03  0.32260793294E+03  0.10733452130E+04  0.13142897670E+04  0.65864270000E+03 0. -1.
    8880022    1    1    2    0    0  0.19339483103E+03 -0.32260793294E+03  0.21421585384E+03  0.45908335203E+03  0.15294330000E+03 0.  0.
<mgrwt>
<rscale>  0 0.64878276E+03</rscale>
<asrwt>0</asrwt>
<pdfrwt beam="1">  1        2 0.23545647E+00 0.75847719E+03</pdfrwt>
<pdfrwt beam="2">  1       -2 0.37370159E-01 0.75847719E+03</pdfrwt>
<totfact> 0.83934478E+01</totfact>
</mgrwt>
</event>
<event>
 4    1  0.3565372E-007  0.6969005E+03  0.7818608E-02  0.1001031E+00
         -2   -1    0    0    0  501 -0.00000000000E+00  0.00000000000E+00  0.72592229857E+03  0.72592229858E+03  0.25500000000E-02 0.  1.
          2   -1    0    0  501    0  0.00000000000E+00 -0.00000000000E+00 -0.12595054846E+04  0.12595054846E+04  0.25500000000E-02 0. -1.
    8880023    1    1    2    0    0  0.14301366526E+02  0.22727863927E+03 -0.11307559910E+04  0.13282618064E+04  0.65864270000E+03 0. -1.
    8880022    1    1    2    0    0 -0.14301366526E+02 -0.22727863927E+03  0.59717280499E+03  0.65716597674E+03  0.15294330000E+03 0.  0.
<mgrwt>
<rscale>  0 0.55200456E+03</rscale>
<asrwt>0</asrwt>
<pdfrwt beam="1">  1        2 0.19377007E+00 0.69690051E+03</pdfrwt>
<pdfrwt beam="2">  1       -2 0.11168035E+00 0.69690051E+03</pdfrwt>
<totfact> 0.11363073E+01</totfact>
</mgrwt>
</event>
<event>
 4    1  0.3565372E-007  0.6851917E+03  0.7818608E-02  0.1006527E+00
          2   -1    0    0  501    0  0.00000000000E+00  0.00000000000E+00  0.16279716869E+04  0.16279716869E+04  0.25500000000E-02 0. -1.
         -2   -1    0    0    0  501 -0.00000000000E+00 -0.00000000000E+00 -0.64930580987E+03  0.64930580987E+03  0.25500000000E-02 0.  1.
    8880023    1    1    2    0    0 -0.76824661408E+02  0.17255576908E+03  0.15290859966E+04  0.16755869757E+04  0.65864270000E+03 0. -1.
    8880022    1    1    2    0    0  0.76824661408E+02 -0.17255576908E+03 -0.55042011957E+03  0.60169052102E+03  0.15294330000E+03 0.  0.
<mgrwt>
<rscale>  0 0.52878509E+03</rscale>
<asrwt>0</asrwt>
<pdfrwt beam="1">  1        2 0.25045718E+00 0.68519175E+03</pdfrwt>
<pdfrwt beam="2">  1       -2 0.99893203E-01 0.68519175E+03</pdfrwt>
<totfact> 0.92391459E+00</totfact>
</mgrwt>
</event>
<event>
 4    1  0.3565372E-007  0.7444317E+03  0.7818608E-02  0.9847221E-01
          2   -1    0    0  501    0  0.00000000000E+00  0.00000000000E+00  0.13159321720E+04  0.13159321720E+04  0.25500000000E-02 0. -1.
         -2   -1    0    0    0  501 -0.00000000000E+00 -0.00000000000E+00 -0.32951623522E+03  0.32951623523E+03  0.25500000000E-02 0.  1.
    8880023    1    1    2    0    0 -0.31570331581E+03  0.14387433184E+03  0.10222692901E+04  0.12645999821E+04  0.65864270000E+03 0. -1.
    8880022    1    1    2    0    0  0.31570331581E+03 -0.14387433184E+03 -0.35853353323E+02  0.38084842515E+03  0.15294330000E+03 0.  0.
<mgrwt>
<rscale>  0 0.62888819E+03</rscale>
<asrwt>0</asrwt>
<pdfrwt beam="1">  1        2 0.20245110E+00 0.74443174E+03</pdfrwt>
<pdfrwt beam="2">  1       -2 0.50694806E-01 0.74443174E+03</pdfrwt>
<totfact> 0.60664716E+01</totfact>
</mgrwt>
</event>
<event>
 4    1  0.3565372E-007  0.8178381E+03  0.7818608E-02  0.9673476E-01
          2   -1    0    0  501    0  0.00000000000E+00  0.00000000000E+00  0.20851282013E+04  0.20851282013E+04  0.25500000000E-02 0. -1.
         -2   -1    0    0    0  501 -0.00000000000E+00 -0.00000000000E+00 -0.29533943874E+03  0.29533943875E+03  0.25500000000E-02 0.  1.
    8880023    1    1    2    0    0 -0.32986720766E+03  0.35529784780E+03  0.16680048743E+04  0.18577134877E+04  0.65864270000E+03 0. -1.
    8880022    1    1    2    0    0  0.32986720766E+03 -0.35529784780E+03  0.12178388823E+03  0.52275415234E+03  0.15294330000E+03 0.  0.
<mgrwt>
<rscale>  0 0.72618218E+03</rscale>
<asrwt>0</asrwt>
<pdfrwt beam="1">  1        2 0.32078895E+00 0.81783809E+03</pdfrwt>
<pdfrwt beam="2">  1       -2 0.45436838E-01 0.81783809E+03</pdfrwt>
<totfact> 0.28215542E+01</totfact>
</mgrwt>
</event>
<event>
 4    1  0.3565372E-007  0.7345247E+03  0.7818608E-02  0.9876193E-01
         -2   -1    0    0    0  501 -0.00000000000E+00  0.00000000000E+00  0.83160889340E+03  0.83160889341E+03  0.25500000000E-02 0.  1.
          2   -1    0    0  501    0  0.00000000000E+00 -0.00000000000E+00 -0.82928607487E+03  0.82928607487E+03  0.25500000000E-02 0. -1.
    8880023    1    1    2    0    0  0.20528489817E+03 -0.25213966561E+03 -0.60742736801E+03  0.95314978575E+03  0.65864270000E+03 0. -1.
    8880022    1    1    2    0    0 -0.20528489817E+03  0.25213966561E+03  0.60975018654E+03  0.70774518253E+03  0.15294330000E+03 0.  0.
<mgrwt>
<rscale>  0 0.61429067E+03</rscale>
<asrwt>0</asrwt>
<pdfrwt beam="1">  1        2 0.12758247E+00 0.73452468E+03</pdfrwt>
<pdfrwt beam="2">  1       -2 0.12793983E+00 0.73452468E+03</pdfrwt>
<totfact> 0.15093774E+01</totfact>
</mgrwt>
</event>
<event>
 4    1  0.3565372E-007  0.9785022E+03  0.7818608E-02  0.9410240E-01
         -2   -1    0    0    0  501 -0.00000000000E+00  0.00000000000E+00  0.21461132325E+03  0.21461132327E+03  0.25500000000E-02 0.  1.
          2   -1    0    0  501    0  0.00000000000E+00 -0.00000000000E+00 -0.37146609139E+04  0.37146609139E+04  0.25500000000E-02 0. -1.
    8880023    1    1    2    0    0 -0.50569874743E+03  0.51761488176E+03 -0.14446263716E+04  0.17448243318E+04  0.65864270000E+03 0.  0.
    8880022    1    1    2    0    0  0.50569874743E+03 -0.51761488176E+03 -0.20554232191E+04  0.21844479054E+04  0.15294330000E+03 0.  0.
<mgrwt>
<rscale>  0 0.91237745E+03</rscale>
<asrwt>0</asrwt>
<pdfrwt beam="1">  1        2 0.57148625E+00 0.97850222E+03</pdfrwt>
<pdfrwt beam="2">  1       -2 0.33017129E-01 0.97850222E+03</pdfrwt>
<totfact> 0.51040566E+00</totfact>
</mgrwt>
</event>
<event>
 4    1  0.3565372E-007  0.7419590E+03  0.7818608E-02  0.9854277E-01
          2   -1    0    0  501    0  0.00000000000E+00  0.00000000000E+00  0.30150290256E+04  0.30150290256E+04  0.25500000000E-02 0. -1.
         -2   -1    0    0    0  501 -0.00000000000E+00 -0.00000000000E+00 -0.24174727247E+03  0.24174727248E+03  0.25500000000E-02 0.  1.
    8880023    1    1    2    0    0 -0.32548888431E+03 -0.10368181716E+03  0.27851750194E+04  0.28823086282E+04  0.65864270000E+03 0.  0.
    8880022    1    1    2    0    0  0.32548888431E+03  0.10368181716E+03 -0.11893266273E+02  0.37446766992E+03  0.15294330000E+03 0.  0.
<mgrwt>
<rscale>  0 0.62529322E+03</rscale>
<asrwt>0</asrwt>
<pdfrwt beam="1">  1        2 0.46385060E+00 0.74195899E+03</pdfrwt>
<pdfrwt beam="2">  1       -2 0.37191890E-01 0.74195899E+03</pdfrwt>
<totfact> 0.12353862E+01</totfact>
</mgrwt>
</event>
<event>
 4    1  0.3565372E-007  0.8432249E+03  0.7818608E-02  0.9624129E-01
          2   -1    0    0  501    0  0.00000000000E+00  0.00000000000E+00  0.29068218770E+04  0.29068218770E+04  0.25500000000E-02 0. -1.
         -2   -1    0    0    0  501 -0.00000000000E+00 -0.00000000000E+00 -0.18344925497E+03  0.18344925498E+03  0.25500000000E-02 0.  1.
    8880023    1    1    2    0    0  0.50847127935E+03 -0.13665632408E+03  0.20832787737E+04  0.22474604886E+04  0.65864270000E+03 0.  0.
    8880022    1    1    2    0    0 -0.50847127935E+03  0.13665632408E+03  0.64009384838E+03  0.84281064338E+03  0.15294330000E+03 0.  0.
<mgrwt>
<rscale>  0 0.75719532E+03</rscale>
<asrwt>0</asrwt>
<pdfrwt beam="1">  1        2 0.44720336E+00 0.84322488E+03</pdfrwt>
<pdfrwt beam="2">  1       -2 0.28222963E-01 0.84322488E+03</pdfrwt>
<totfact> 0.23780690E+01</totfact>
</mgrwt>
</event>
<event>
 4    1  0.3565372E-007  0.6908624E+03  0.7818608E-02  0.1003745E+00
          2   -1    0    0  501    0  0.00000000000E+00  0.00000000000E+00  0.10613271543E+04  0.10613271543E+04  0.25500000000E-02 0. -1.
         -2   -1    0    0    0  501 -0.00000000000E+00 -0.00000000000E+00 -0.22691811178E+03  0.22691811180E+03  0.25500000000E-02 0.  1.
    8880023    1    1    2    0    0 -0.28682319399E+02  0.20653793177E+03  0.74149716184E+03  0.10134637833E+04  0.65864270000E+03 0. -1.
    8880022    1    1    2    0    0  0.28682319399E+02 -0.20653793177E+03  0.92911880634E+02  0.27478148279E+03  0.15294330000E+03 0.  1.
<mgrwt>
<rscale>  0 0.54038015E+03</rscale>
<asrwt>0</asrwt>
<pdfrwt beam="1">  1        2 0.16328110E+00 0.69086236E+03</pdfrwt>
<pdfrwt beam="2">  1       -2 0.34910478E-01 0.69086236E+03</pdfrwt>
<totfact> 0.17992325E+02</totfact>
</mgrwt>
</event>
<event>
 4    1  0.3565372E-007  0.1188388E+04  0.7818608E-02  0.9168494E-01
          2   -1    0    0  501    0  0.00000000000E+00  0.00000000000E+00  0.44133646070E+04  0.44133646070E+04  0.25500000000E-02 0. -1.
         -2   -1    0    0    0  501 -0.00000000000E+00 -0.00000000000E+00 -0.52926048125E+03  0.52926048126E+03  0.25500000000E-02 0.  1.
    8880023    1    1    2    0    0 -0.14262884718E+03 -0.97883191786E+03  0.37487323618E+04  0.39325894062E+04  0.65864270000E+03 0.  0.
    8880022    1    1    2    0    0  0.14262884718E+03  0.97883191786E+03  0.13537176396E+03  0.10100356820E+04  0.15294330000E+03 0.  0.
<mgrwt>
<rscale>  0 0.11384625E+04</rscale>
<asrwt>0</asrwt>
<pdfrwt beam="1">  1        2 0.67897917E+00 0.11883876E+04</pdfrwt>
<pdfrwt beam="2">  1       -2 0.81424690E-01 0.11883876E+04</pdfrwt>
<totfact> 0.20432814E-01</totfact>
</mgrwt>
</event>
<event>
 4    1  0.3565372E-007  0.6776895E+03  0.7818608E-02  0.1010662E+00
          2   -1    0    0  501    0  0.00000000000E+00  0.00000000000E+00  0.72561239021E+03  0.72561239021E+03  0.25500000000E-02 0. -1.
         -2   -1    0    0    0  501 -0.00000000000E+00 -0.00000000000E+00 -0.27861818637E+03  0.27861818639E+03  0.25500000000E-02 0.  1.
    8880023    1    1    2    0    0 -0.91237689497E+02 -0.13087598476E+03  0.32157760912E+03  0.75011679379E+03  0.65864270000E+03 0.  1.
    8880022    1    1    2    0    0  0.91237689497E+02  0.13087598476E+03  0.12541659472E+03  0.25411378281E+03  0.15294330000E+03 0. -1.
<mgrwt>
<rscale>  0 0.51212386E+03</rscale>
<asrwt>0</asrwt>
<pdfrwt beam="1">  1        2 0.11163267E+00 0.67768949E+03</pdfrwt>
<pdfrwt beam="2">  1       -2 0.42864337E-01 0.67768949E+03</pdfrwt>
<totfact> 0.20458561E+02</totfact>
</mgrwt>
</event>
<event>
 4    1  0.3565372E-007  0.7246640E+03  0.7818608E-02  0.9907109E-01
          2   -1    0    0  501    0  0.00000000000E+00  0.00000000000E+00  0.16668841008E+04  0.16668841008E+04  0.25500000000E-02 0. -1.
         -2   -1    0    0    0  501 -0.00000000000E+00 -0.00000000000E+00 -0.29717041555E+03  0.29717041556E+03  0.25500000000E-02 0.  1.
    8880023    1    1    2    0    0 -0.27860998590E+03  0.11706459765E+03  0.14455017337E+04  0.16169765343E+04  0.65864270000E+03 0.  0.
    8880022    1    1    2    0    0  0.27860998590E+03 -0.11706459765E+03 -0.75788048478E+02  0.34707798198E+03  0.15294330000E+03 0.  0.
<mgrwt>
<rscale>  0 0.59917965E+03</rscale>
<asrwt>0</asrwt>
<pdfrwt beam="1">  1        2 0.25644371E+00 0.72466396E+03</pdfrwt>
<pdfrwt beam="2">  1       -2 0.45718525E-01 0.72466396E+03</pdfrwt>
<totfact> 0.47693043E+01</totfact>
</mgrwt>
</event>
<event>
 4    1  0.3565372E-007  0.7127882E+03  0.7818608E-02  0.9947789E-01
         -2   -1    0    0    0  501 -0.00000000000E+00  0.00000000000E+00  0.89995941549E+02  0.89995941585E+02  0.25500000000E-02 0.  1.
          2   -1    0    0  501    0  0.00000000000E+00 -0.00000000000E+00 -0.30854789368E+04  0.30854789368E+04  0.25500000000E-02 0. -1.
    8880023    1    1    2    0    0  0.17477725962E+03 -0.20906876582E+03 -0.17111339800E+04  0.18536576122E+04  0.65864270000E+03 0.  1.
    8880022    1    1    2    0    0 -0.17477725962E+03  0.20906876582E+03 -0.12843490153E+04  0.13218172663E+04  0.15294330000E+03 0. -1.
<mgrwt>
<rscale>  0 0.58000078E+03</rscale>
<asrwt>0</asrwt>
<pdfrwt beam="1">  1        2 0.47468899E+00 0.71278822E+03</pdfrwt>
<pdfrwt beam="2">  1       -2 0.13845532E-01 0.71278822E+03</pdfrwt>
<totfact> 0.65591020E+01</totfact>
</mgrwt>
</event>
<event>
 4    1  0.3565372E-007  0.1312606E+04  0.7818608E-02  0.9054749E-01
         -2   -1    0    0    0  501 -0.00000000000E+00  0.00000000000E+00  0.15503018347E+04  0.15503018347E+04  0.25500000000E-02 0.  1.
          2   -1    0    0  501    0  0.00000000000E+00 -0.00000000000E+00 -0.17321390000E+04  0.17321390000E+04  0.25500000000E-02 0. -1.
    8880023    1    1    2    0    0  0.76547728481E+03  0.83855181447E+03 -0.11784310025E+04  0.17639825546E+04  0.65864270000E+03 0.  0.
    8880022    1    1    2    0    0 -0.76547728481E+03 -0.83855181447E+03  0.99659383710E+03  0.15184582801E+04  0.15294330000E+03 0.  0.
<mgrwt>
<rscale>  0 0.12687145E+04</rscale>
<asrwt>0</asrwt>
<pdfrwt beam="1">  1        2 0.26648292E+00 0.13126061E+04</pdfrwt>
<pdfrwt beam="2">  1       -2 0.23850797E+00 0.13126061E+04</pdfrwt>
<totfact> 0.68227216E-01</totfact>
</mgrwt>
</event>
<event>
 4    1  0.3565372E-007  0.6686427E+03  0.7818608E-02  0.1016655E+00
         -2   -1    0    0    0  501 -0.00000000000E+00  0.00000000000E+00  0.36794454574E+03  0.36794454575E+03  0.25500000000E-02 0.  1.
          2   -1    0    0  501    0  0.00000000000E+00 -0.00000000000E+00 -0.56716891285E+03  0.56716891286E+03  0.25500000000E-02 0. -1.
    8880023    1    1    2    0    0  0.76233513626E+02  0.86379140329E+02 -0.28305398765E+03  0.72608723351E+03  0.65864270000E+03 0. -1.
    8880022    1    1    2    0    0 -0.76233513626E+02 -0.86379140329E+02  0.83829620535E+02  0.20902622510E+03  0.15294330000E+03 0. -1.
<mgrwt>
<rscale>  0 0.48913237E+03</rscale>
<asrwt>0</asrwt>
<pdfrwt beam="1">  1        2 0.87256756E-01 0.66864274E+03</pdfrwt>
<pdfrwt beam="2">  1       -2 0.56606853E-01 0.66864274E+03</pdfrwt>
<totfact> 0.15760809E+02</totfact>
</mgrwt>
</event>
<event>
 4    1  0.3565372E-007  0.1100882E+04  0.7818608E-02  0.9260074E-01
         -2   -1    0    0    0  501 -0.00000000000E+00  0.00000000000E+00  0.13269910493E+04  0.13269910493E+04  0.25500000000E-02 0.  1.
          2   -1    0    0  501    0  0.00000000000E+00 -0.00000000000E+00 -0.12265736968E+04  0.12265736968E+04  0.25500000000E-02 0. -1.
    8880023    1    1    2    0    0 -0.86442202063E+03 -0.17580196911E+03 -0.73931746093E+03  0.13260966316E+04  0.65864270000E+03 0.  0.
    8880022    1    1    2    0    0  0.86442202063E+03  0.17580196911E+03  0.83973481341E+03  0.12274681144E+04  0.15294330000E+03 0.  0.
<mgrwt>
<rscale>  0 0.10454306E+04</rscale>
<asrwt>0</asrwt>
<pdfrwt beam="1">  1        2 0.18870365E+00 0.11008824E+04</pdfrwt>
<pdfrwt beam="2">  1       -2 0.20415247E+00 0.11008824E+04</pdfrwt>
<totfact> 0.22384575E+00</totfact>
</mgrwt>
</event>
<event>
 4    1  0.3565372E-007  0.8987149E+03  0.7818608E-02  0.9528098E-01
          2   -1    0    0  501    0  0.00000000000E+00  0.00000000000E+00  0.24777558390E+04  0.24777558390E+04  0.25500000000E-02 0. -1.
         -2   -1    0    0    0  501 -0.00000000000E+00 -0.00000000000E+00 -0.35887819214E+03  0.35887819215E+03  0.25500000000E-02 0.  1.
    8880023    1    1    2    0    0 -0.61112148815E+03 -0.20216412240E+02  0.20035413999E+04  0.21958748880E+04  0.65864270000E+03 0. -1.
    8880022    1    1    2    0    0  0.61112148815E+03  0.20216412240E+02  0.11533624697E+03  0.64075914311E+03  0.15294330000E+03 0.  0.
<mgrwt>
<rscale>  0 0.82243605E+03</rscale>
<asrwt>0</asrwt>
<pdfrwt beam="1">  1        2 0.38119322E+00 0.89871485E+03</pdfrwt>
<pdfrwt beam="2">  1       -2 0.55212028E-01 0.89871485E+03</pdfrwt>
<totfact> 0.11332710E+01</totfact>
</mgrwt>
</event>
<event>
 4    1  0.3565372E-007  0.8323056E+03  0.7818608E-02  0.9644863E-01
         -2   -1    0    0    0  501 -0.00000000000E+00  0.00000000000E+00  0.48448129905E+03  0.48448129905E+03  0.25500000000E-02 0.  1.
          2   -1    0    0  501    0  0.00000000000E+00 -0.00000000000E+00 -0.24559985057E+04  0.24559985057E+04  0.25500000000E-02 0. -1.
    8880023    1    1    2    0    0  0.42198511830E+03 -0.28434309693E+03 -0.22074314328E+04  0.23591282656E+04  0.65864270000E+03 0.  0.
    8880022    1    1    2    0    0 -0.42198511830E+03  0.28434309693E+03  0.23591422622E+03  0.58135153907E+03  0.15294330000E+03 0.  0.
<mgrwt>
<rscale>  0 0.74396703E+03</rscale>
<asrwt>0</asrwt>
<pdfrwt beam="1">  1        2 0.37784592E+00 0.83230562E+03</pdfrwt>
<pdfrwt beam="2">  1       -2 0.74535586E-01 0.83230562E+03</pdfrwt>
<totfact> 0.61799615E+00</totfact>
</mgrwt>
</event>
<event>
 4    1  0.3565372E-007  0.1240198E+04  0.7818608E-02  0.9119004E-01
          2   -1    0    0  501    0  0.00000000000E+00  0.00000000000E+00  0.47399784528E+04  0.47399784528E+04  0.25500000000E-02 0. -1.
         -2   -1    0    0    0  501 -0.00000000000E+00 -0.00000000000E+00 -0.40056423883E+03  0.40056423884E+03  0.25500000000E-02 0.  1.
    8880023    1    1    2    0    0 -0.64858571855E+03  0.82681098819E+03  0.36968909379E+04  0.38993708027E+04  0.65864270000E+03 0.  0.
    8880022    1    1    2    0    0  0.64858571855E+03 -0.82681098819E+03  0.64252327613E+03  0.12411718889E+04  0.15294330000E+03 0.  0.
<mgrwt>
<rscale>  0 0.11930015E+04</rscale>
<asrwt>0</asrwt>
<pdfrwt beam="1">  1        2 0.72922748E+00 0.12401976E+04</pdfrwt>
<pdfrwt beam="2">  1       -2 0.61625266E-01 0.12401976E+04</pdfrwt>
<totfact> 0.17635440E-01</totfact>
</mgrwt>
</event>
<event>
 4    1  0.3565372E-007  0.7662577E+03  0.7818608E-02  0.9789168E-01
         -2   -1    0    0    0  501 -0.00000000000E+00  0.00000000000E+00  0.46584081113E+03  0.46584081114E+03  0.25500000000E-02 0.  1.
          2   -1    0    0  501    0  0.00000000000E+00 -0.00000000000E+00 -0.15407968250E+04  0.15407968250E+04  0.25500000000E-02 0. -1.
    8880023    1    1    2    0    0  0.34626740895E+03  0.18286484673E+03 -0.13154208889E+04  0.15223281485E+04  0.65864270000E+03 0. -1.
    8880022    1    1    2    0    0 -0.34626740895E+03 -0.18286484673E+03  0.24046487500E+03  0.48430948761E+03  0.15294330000E+03 0.  0.
<mgrwt>
<rscale>  0 0.65947091E+03</rscale>
<asrwt>0</asrwt>
<pdfrwt beam="1">  1        2 0.23704566E+00 0.76625771E+03</pdfrwt>
<pdfrwt beam="2">  1       -2 0.71667818E-01 0.76625771E+03</pdfrwt>
<totfact> 0.21733210E+01</totfact>
</mgrwt>
</event>
<event>
 4    1  0.3565372E-007  0.8632646E+03  0.7818608E-02  0.9587783E-01
         -2   -1    0    0    0  501 -0.00000000000E+00  0.00000000000E+00  0.52210268235E+03  0.52210268236E+03  0.25500000000E-02 0.  1.
          2   -1    0    0  501    0  0.00000000000E+00 -0.00000000000E+00 -0.10541065879E+04  0.10541065879E+04  0.25500000000E-02 0. -1.
    8880023    1    1    2    0    0  0.42329417370E+03  0.36364480924E+03 -0.13324081013E+03  0.87348659092E+03  0.65864270000E+03 0.  0.
    8880022    1    1    2    0    0 -0.42329417370E+03 -0.36364480924E+03 -0.39876309539E+03  0.70272267932E+03  0.15294330000E+03 0.  0.
<mgrwt>
<rscale>  0 0.78110115E+03</rscale>
<asrwt>0</asrwt>
<pdfrwt beam="1">  1        2 0.16217024E+00 0.86326457E+03</pdfrwt>
<pdfrwt beam="2">  1       -2 0.80323490E-01 0.86326457E+03</pdfrwt>
<totfact> 0.32075620E+01</totfact>
</mgrwt>
</event>
<event>
 4    1  0.3565372E-007  0.7177915E+03  0.7818608E-02  0.9930131E-01
          2   -1    0    0  501    0  0.00000000000E+00  0.00000000000E+00  0.92908719757E+03  0.92908719757E+03  0.25500000000E-02 0. -1.
         -2   -1    0    0    0  501 -0.00000000000E+00 -0.00000000000E+00 -0.80284707475E+03  0.80284707475E+03  0.25500000000E-02 0.  1.
    8880023    1    1    2    0    0  0.26578366087E+03 -0.10379516043E+03  0.74442214187E+03  0.10341126250E+04  0.65864270000E+03 0. -1.
    8880022    1    1    2    0    0 -0.26578366087E+03  0.10379516043E+03 -0.61818201905E+03  0.69782164727E+03  0.15294330000E+03 0.  0.
<mgrwt>
<rscale>  0 0.58822978E+03</rscale>
<asrwt>0</asrwt>
<pdfrwt beam="1">  1        2 0.14293649E+00 0.71779147E+03</pdfrwt>
<pdfrwt beam="2">  1       -2 0.12351494E+00 0.71779147E+03</pdfrwt>
<totfact> 0.14124217E+01</totfact>
</mgrwt>
</event>
<event>
 4    1  0.3565372E-007  0.7390450E+03  0.7818608E-02  0.9862738E-01
         -2   -1    0    0    0  501 -0.00000000000E+00  0.00000000000E+00  0.94230095773E+03  0.94230095773E+03  0.25500000000E-02 0.  1.
          2   -1    0    0  501    0  0.00000000000E+00 -0.00000000000E+00 -0.52622471714E+03  0.52622471715E+03  0.25500000000E-02 0. -1.
    8880023    1    1    2    0    0 -0.29033193872E+03 -0.16758477405E+03 -0.18650613535E+03  0.76221521627E+03  0.65864270000E+03 0. -1.
    8880022    1    1    2    0    0  0.29033193872E+03  0.16758477405E+03  0.60258237593E+03  0.70631045860E+03  0.15294330000E+03 0.  0.
<mgrwt>
<rscale>  0 0.62101661E+03</rscale>
<asrwt>0</asrwt>
<pdfrwt beam="1">  1        2 0.80957650E-01 0.73904499E+03</pdfrwt>
<pdfrwt beam="2">  1       -2 0.14496938E+00 0.73904499E+03</pdfrwt>
<totfact> 0.19292725E+01</totfact>
</mgrwt>
</event>
<event>
 4    1  0.3565372E-007  0.6941437E+03  0.7818608E-02  0.1002242E+00
          2   -1    0    0  501    0  0.00000000000E+00  0.00000000000E+00  0.17188140285E+04  0.17188140285E+04  0.25500000000E-02 0. -1.
         -2   -1    0    0    0  501 -0.00000000000E+00 -0.00000000000E+00 -0.20311224474E+03  0.20311224476E+03  0.25500000000E-02 0.  1.
    8880023    1    1    2    0    0  0.10724925349E+03 -0.19110974990E+03  0.15016422924E+04  0.16543171157E+04  0.65864270000E+03 0.  0.
    8880022    1    1    2    0    0 -0.10724925349E+03  0.19110974990E+03  0.14059491383E+02  0.26760915753E+03  0.15294330000E+03 0.  0.
<mgrwt>
<rscale>  0 0.54677954E+03</rscale>
<asrwt>0</asrwt>
<pdfrwt beam="1">  1        2 0.26443292E+00 0.69414375E+03</pdfrwt>
<pdfrwt beam="2">  1       -2 0.31248038E-01 0.69414375E+03</pdfrwt>
<totfact> 0.93435473E+01</totfact>
</mgrwt>
</event>
<event>
 4    1  0.3565372E-007  0.6960082E+03  0.7818608E-02  0.1001418E+00
         -2   -1    0    0    0  501 -0.00000000000E+00  0.00000000000E+00  0.19832001468E+03  0.19832001470E+03  0.25500000000E-02 0.  1.
          2   -1    0    0  501    0  0.00000000000E+00 -0.00000000000E+00 -0.18385115303E+04  0.18385115303E+04  0.25500000000E-02 0. -1.
    8880023    1    1    2    0    0  0.22437058463E+03  0.16585302313E+02 -0.16210048883E+04  0.17641100549E+04  0.65864270000E+03 0.  0.
    8880022    1    1    2    0    0 -0.22437058463E+03 -0.16585302313E+02 -0.19186627316E+02  0.27272149014E+03  0.15294330000E+03 0.  0.
<mgrwt>
<rscale>  0 0.55032755E+03</rscale>
<asrwt>0</asrwt>
<pdfrwt beam="1">  1        2 0.28284792E+00 0.69600822E+03</pdfrwt>
<pdfrwt beam="2">  1       -2 0.30510773E-01 0.69600822E+03</pdfrwt>
<totfact> 0.84057710E+01</totfact>
</mgrwt>
</event>
<event>
 4    1  0.3565372E-007  0.7239638E+03  0.7818608E-02  0.9909395E-01
         -2   -1    0    0    0  501 -0.00000000000E+00  0.00000000000E+00  0.21273343504E+03  0.21273343505E+03  0.25500000000E-02 0.  1.
          2   -1    0    0  501    0  0.00000000000E+00 -0.00000000000E+00 -0.18935688644E+04  0.18935688644E+04  0.25500000000E-02 0. -1.
    8880023    1    1    2    0    0 -0.28586169407E+03 -0.92717485149E+02 -0.16049337835E+04  0.17606635385E+04  0.65864270000E+03 0. -1.
    8880022    1    1    2    0    0  0.28586169407E+03  0.92717485149E+02 -0.75901645838E+02  0.34563876091E+03  0.15294330000E+03 0.  0.
<mgrwt>
<rscale>  0 0.59808120E+03</rscale>
<asrwt>0</asrwt>
<pdfrwt beam="1">  1        2 0.29131828E+00 0.72396384E+03</pdfrwt>
<pdfrwt beam="2">  1       -2 0.32728222E-01 0.72396384E+03</pdfrwt>
<totfact> 0.68589561E+01</totfact>
</mgrwt>
</event>
<event>
 4    1  0.3565372E-007  0.7287085E+03  0.7818608E-02  0.9894150E-01
          2   -1    0    0  501    0  0.00000000000E+00  0.00000000000E+00  0.80781950874E+03  0.80781950874E+03  0.25500000000E-02 0. -1.
         -2   -1    0    0    0  501 -0.00000000000E+00 -0.00000000000E+00 -0.17080634112E+04  0.17080634112E+04  0.25500000000E-02 0.  1.
    8880023    1    1    2    0    0 -0.26119836785E+03  0.17023900403E+03  0.61981863789E+03  0.95665628938E+03  0.65864270000E+03 0. -1.
    8880022    1    1    2    0    0  0.26119836785E+03 -0.17023900403E+03 -0.15200625403E+04  0.15592266306E+04  0.15294330000E+03 0.  0.
<mgrwt>
<rscale>  0 0.60545616E+03</rscale>
<asrwt>0</asrwt>
<pdfrwt beam="1">  1        2 0.12427993E+00 0.72870852E+03</pdfrwt>
<pdfrwt beam="2">  1       -2 0.26277898E+00 0.72870852E+03</pdfrwt>
<totfact> 0.18943517E+00</totfact>
</mgrwt>
</event>
<event>
 4    1  0.3565372E-007  0.1285893E+04  0.7818608E-02  0.9077839E-01
          2   -1    0    0  501    0  0.00000000000E+00  0.00000000000E+00  0.24293688872E+04  0.24293688872E+04  0.25500000000E-02 0. -1.
         -2   -1    0    0    0  501 -0.00000000000E+00 -0.00000000000E+00 -0.67745215454E+03  0.67745215455E+03  0.25500000000E-02 0.  1.
    8880023    1    1    2    0    0  0.89706301192E+01 -0.11043683706E+04  0.14773001962E+04  0.19585545808E+04  0.65864270000E+03 0.  0.
    8880022    1    1    2    0    0 -0.89706301192E+01  0.11043683706E+04  0.27461653646E+03  0.11482664609E+04  0.15294330000E+03 0.  0.
<mgrwt>
<rscale>  0 0.12408432E+04</rscale>
<asrwt>0</asrwt>
<pdfrwt beam="1">  1        2 0.37374907E+00 0.12858928E+04</pdfrwt>
<pdfrwt beam="2">  1       -2 0.10422341E+00 0.12858928E+04</pdfrwt>
<totfact> 0.27834509E+00</totfact>
</mgrwt>
</event>
<event>
 4    1  0.3565372E-007  0.8988009E+03  0.7818608E-02  0.9527959E-01
          2   -1    0    0  501    0  0.00000000000E+00  0.00000000000E+00  0.56065226861E+03  0.56065226862E+03  0.25500000000E-02 0. -1.
         -2   -1    0    0    0  501 -0.00000000000E+00 -0.00000000000E+00 -0.13292370231E+04  0.13292370231E+04  0.25500000000E-02 0.  1.
    8880023    1    1    2    0    0 -0.43799283354E+03  0.42684316773E+03 -0.87055102833E+03  0.12512801890E+04  0.65864270000E+03 0.  0.
    8880022    1    1    2    0    0  0.43799283354E+03 -0.42684316773E+03  0.10196627388E+03  0.63860910273E+03  0.15294330000E+03 0.  0.
<mgrwt>
<rscale>  0 0.82253510E+03</rscale>
<asrwt>0</asrwt>
<pdfrwt beam="1">  1        2 0.86254195E-01 0.89880088E+03</pdfrwt>
<pdfrwt beam="2">  1       -2 0.20449800E+00 0.89880088E+03</pdfrwt>
<totfact> 0.67173644E+00</totfact>
</mgrwt>
</event>
<event>
 4    1  0.3565372E-007  0.6782307E+03  0.7818608E-02  0.1010343E+00
         -2   -1    0    0    0  501 -0.00000000000E+00  0.00000000000E+00  0.22659495952E+04  0.22659495952E+04  0.25500000000E-02 0.  1.
          2   -1    0    0  501    0  0.00000000000E+00 -0.00000000000E+00 -0.61062295123E+03  0.61062295124E+03  0.25500000000E-02 0. -1.
    8880023    1    1    2    0    0  0.16116959950E+03 -0.14528666633E+02 -0.41446101080E+03  0.79484266223E+03  0.65864270000E+03 0. -1.
    8880022    1    1    2    0    0 -0.16116959950E+03  0.14528666633E+02  0.20697876548E+04  0.20817298842E+04  0.15294330000E+03 0.  0.
<mgrwt>
<rscale>  0 0.51338673E+03</rscale>
<asrwt>0</asrwt>
<pdfrwt beam="1">  1        2 0.93941994E-01 0.67823073E+03</pdfrwt>
<pdfrwt beam="2">  1       -2 0.34860762E+00 0.67823073E+03</pdfrwt>
<totfact> 0.82446399E-01</totfact>
</mgrwt>
</event>
<event>
 4    1  0.3565372E-007  0.6840474E+03  0.7818608E-02  0.1007121E+00
         -2   -1    0    0    0  501 -0.00000000000E+00  0.00000000000E+00  0.21362898413E+03  0.21362898415E+03  0.25500000000E-02 0.  1.
          2   -1    0    0  501    0  0.00000000000E+00 -0.00000000000E+00 -0.17168037720E+04  0.17168037721E+04  0.25500000000E-02 0. -1.
    8880023    1    1    2    0    0  0.18458943843E+03 -0.61158490033E+01 -0.15425560763E+04  0.16874241076E+04  0.65864270000E+03 0. -1.
    8880022    1    1    2    0    0 -0.18458943843E+03  0.61158490033E+01  0.39381288342E+02  0.24300864856E+03  0.15294330000E+03 0.  0.
<mgrwt>
<rscale>  0 0.52635085E+03</rscale>
<asrwt>0</asrwt>
<pdfrwt beam="1">  1        2 0.26412365E+00 0.68404742E+03</pdfrwt>
<pdfrwt beam="2">  1       -2 0.32865999E-01 0.68404742E+03</pdfrwt>
<totfact> 0.85311107E+01</totfact>
</mgrwt>
</event>
<event>
 4    1  0.3565372E-007  0.7333022E+03  0.7818608E-02  0.9879905E-01
          2   -1    0    0  501    0  0.00000000000E+00  0.00000000000E+00  0.29866719586E+04  0.29866719586E+04  0.25500000000E-02 0. -1.
         -2   -1    0    0    0  501 -0.00000000000E+00 -0.00000000000E+00 -0.11156038447E+03  0.11156038450E+03  0.25500000000E-02 0.  1.
    8880023    1    1    2    0    0  0.15839858222E+03 -0.28077006454E+03  0.23623204145E+04  0.24735177151E+04  0.65864270000E+03 0.  1.
    8880022    1    1    2    0    0 -0.15839858222E+03  0.28077006454E+03  0.51279115961E+03  0.62471462795E+03  0.15294330000E+03 0.  0.
<mgrwt>
<rscale>  0 0.61245135E+03</rscale>
<asrwt>0</asrwt>
<pdfrwt beam="1">  1        2 0.45948803E+00 0.73330222E+03</pdfrwt>
<pdfrwt beam="2">  1       -2 0.17163135E-01 0.73330222E+03</pdfrwt>
<totfact> 0.52256694E+01</totfact>
</mgrwt>
</event>
<event>
 4    1  0.6670015E-007  0.9295370E+03  0.7818608E-02  0.9480188E-01
          2   -1    0    0  501    0  0.00000000000E+00  0.00000000000E+00  0.35253503034E+04  0.35253503034E+04  0.25500000000E-02 0. -1.
         -2   -1    0    0    0  501 -0.00000000000E+00 -0.00000000000E+00 -0.94260095611E+03  0.94260095611E+03  0.25500000000E-02 0.  1.
    8880023    1    1    2    0    0  0.36746214529E+03 -0.54332348937E+03  0.33327333951E+04  0.34599351051E+04  0.65864270000E+03 0.  0.
    8880022    1    1    2    0    0 -0.36746214529E+03  0.54332348937E+03 -0.74998404789E+03  0.10080161543E+04  0.15294330000E+03 0.  0.
<mgrwt>
<rscale>  0 0.85760360E+03</rscale>
<asrwt>0</asrwt>
<pdfrwt beam="1">  1        2 0.54236159E+00 0.92953701E+03</pdfrwt>
<pdfrwt beam="2">  1       -2 0.14501553E+00 0.92953701E+03</pdfrwt>
<totfact> 0.26748456E-01</totfact>
</mgrwt>
</event>
<event>
 4    1  0.3565372E-007  0.7108725E+03  0.7818608E-02  0.9954775E-01
         -2   -1    0    0    0  501 -0.00000000000E+00  0.00000000000E+00  0.13044066482E+03  0.13044066485E+03  0.25500000000E-02 0.  1.
          2   -1    0    0  501    0  0.00000000000E+00 -0.00000000000E+00 -0.23411442289E+04  0.23411442289E+04  0.25500000000E-02 0. -1.
    8880023    1    1    2    0    0  0.26392578711E+03 -0.43275169894E+02 -0.19224475562E+04  0.20496693329E+04  0.65864270000E+03 0.  1.
    8880022    1    1    2    0    0 -0.26392578711E+03  0.43275169894E+02 -0.28825600786E+03  0.42191556088E+03  0.15294330000E+03 0. -1.
<mgrwt>
<rscale>  0 0.57678534E+03</rscale>
<asrwt>0</asrwt>
<pdfrwt beam="1">  1        2 0.36017600E+00 0.71087254E+03</pdfrwt>
<pdfrwt beam="2">  1       -2 0.20067796E-01 0.71087254E+03</pdfrwt>
<totfact> 0.94678020E+01</totfact>
</mgrwt>
</event>
<event>
 4    1  0.3565372E-007  0.7520824E+03  0.7818608E-02  0.9826054E-01
          2   -1    0    0  501    0  0.00000000000E+00  0.00000000000E+00  0.23472556626E+04  0.23472556626E+04  0.25500000000E-02 0. -1.
         -2   -1    0    0    0  501 -0.00000000000E+00 -0.00000000000E+00 -0.23820226606E+03  0.23820226608E+03  0.25500000000E-02 0.  1.
    8880023    1    1    2    0    0  0.11264271482E+03  0.34515109465E+03  0.20543791638E+04  0.21877160726E+04  0.65864270000E+03 0.  0.
    8880022    1    1    2    0    0 -0.11264271482E+03 -0.34515109465E+03  0.54674232733E+02  0.39774185608E+03  0.15294330000E+03 0.  0.
<mgrwt>
<rscale>  0 0.63982878E+03</rscale>
<asrwt>0</asrwt>
<pdfrwt beam="1">  1        2 0.36111626E+00 0.75208235E+03</pdfrwt>
<pdfrwt beam="2">  1       -2 0.36646503E-01 0.75208235E+03</pdfrwt>
<totfact> 0.31060894E+01</totfact>
</mgrwt>
</event>
<event>
 4    1  0.3565372E-007  0.6708163E+03  0.7818608E-02  0.1015084E+00
          2   -1    0    0  501    0  0.00000000000E+00  0.00000000000E+00  0.22610773673E+03  0.22610773675E+03  0.25500000000E-02 0. -1.
         -2   -1    0    0    0  501 -0.00000000000E+00 -0.00000000000E+00 -0.88095612431E+03  0.88095612432E+03  0.25500000000E-02 0.  1.
    8880023    1    1    2    0    0  0.80770073645E+02 -0.98288060514E+02 -0.39042075706E+03  0.77615908256E+03  0.65864270000E+03 0. -1.
    8880022    1    1    2    0    0 -0.80770073645E+02  0.98288060514E+02 -0.26442763052E+03  0.33090477850E+03  0.15294330000E+03 0.  1.
<mgrwt>
<rscale>  0 0.49503022E+03</rscale>
<asrwt>0</asrwt>
<pdfrwt beam="1">  1        2 0.34785806E-01 0.67081633E+03</pdfrwt>
<pdfrwt beam="2">  1       -2 0.13553171E+00 0.67081633E+03</pdfrwt>
<totfact> 0.59672660E+01</totfact>
</mgrwt>
</event>
<event>
 4    1  0.3565372E-007  0.1006833E+04  0.7818608E-02  0.9372672E-01
         -2   -1    0    0    0  501 -0.00000000000E+00  0.00000000000E+00  0.30077400368E+03  0.30077400369E+03  0.25500000000E-02 0.  1.
          2   -1    0    0  501    0  0.00000000000E+00 -0.00000000000E+00 -0.34156941036E+04  0.34156941036E+04  0.25500000000E-02 0. -1.
    8880023    1    1    2    0    0 -0.27285248316E+03 -0.71095343228E+03 -0.25905115096E+04  0.27792918789E+04  0.65864270000E+03 0.  0.
    8880022    1    1    2    0    0  0.27285248316E+03  0.71095343228E+03 -0.52440859030E+03  0.93717622837E+03  0.15294330000E+03 0.  0.
<mgrwt>
<rscale>  0 0.94359236E+03</rscale>
<asrwt>0</asrwt>
<pdfrwt beam="1">  1        2 0.52549137E+00 0.10068334E+04</pdfrwt>
<pdfrwt beam="2">  1       -2 0.46272926E-01 0.10068334E+04</pdfrwt>
<totfact> 0.42565383E+00</totfact>
</mgrwt>
</event>
<event>
 4    1  0.3565372E-007  0.7071488E+03  0.7818608E-02  0.9968745E-01
         -2   -1    0    0    0  501 -0.00000000000E+00  0.00000000000E+00  0.60566648051E+03  0.60566648051E+03  0.25500000000E-02 0.  1.
          2   -1    0    0  501    0  0.00000000000E+00 -0.00000000000E+00 -0.14538345140E+04  0.14538345140E+04  0.25500000000E-02 0. -1.
    8880023    1    1    2    0    0  0.23246126694E+03 -0.11050322088E+03 -0.13218585814E+04  0.14991229162E+04  0.65864270000E+03 0.  0.
    8880022    1    1    2    0    0 -0.23246126694E+03  0.11050322088E+03  0.47369054790E+03  0.56037807830E+03  0.15294330000E+03 0.  0.
<mgrwt>
<rscale>  0 0.57042211E+03</rscale>
<asrwt>0</asrwt>
<pdfrwt beam="1">  1        2 0.22366685E+00 0.70714879E+03</pdfrwt>
<pdfrwt beam="2">  1       -2 0.93179459E-01 0.70714879E+03</pdfrwt>
<totfact> 0.13532101E+01</totfact>
</mgrwt>
</event>
<event>
 4    1  0.3565372E-007  0.7194957E+03  0.7818608E-02  0.9924296E-01
         -2   -1    0    0    0  501 -0.00000000000E+00  0.00000000000E+00  0.58952824713E+03  0.58952824713E+03  0.25500000000E-02 0.  1.
          2   -1    0    0  501    0  0.00000000000E+00 -0.00000000000E+00 -0.61714564614E+03  0.61714564614E+03  0.25500000000E-02 0. -1.
    8880023    1    1    2    0    0  0.17027507243E+03 -0.23424405608E+03 -0.30114306385E+03  0.77997514657E+03  0.65864270000E+03 0. -1.
    8880022    1    1    2    0    0 -0.17027507243E+03  0.23424405608E+03  0.27352566484E+03  0.42669874671E+03  0.15294330000E+03 0.  0.
<mgrwt>
<rscale>  0 0.59098114E+03</rscale>
<asrwt>0</asrwt>
<pdfrwt beam="1">  1        2 0.94945484E-01 0.71949572E+03</pdfrwt>
<pdfrwt beam="2">  1       -2 0.90696653E-01 0.71949572E+03</pdfrwt>
<totfact> 0.50481121E+01</totfact>
</mgrwt>
</event>
<event>
 4    1  0.3565372E-007  0.9285390E+03  0.7818608E-02  0.9481688E-01
          2   -1    0    0  501    0  0.00000000000E+00  0.00000000000E+00  0.19410129849E+04  0.19410129849E+04  0.25500000000E-02 0. -1.
         -2   -1    0    0    0  501 -0.00000000000E+00 -0.00000000000E+00 -0.48960247633E+03  0.48960247634E+03  0.25500000000E-02 0.  1.
    8880023    1    1    2    0    0  0.63182335191E+03  0.17080306903E+03  0.14919056041E+04  0.17572612140E+04  0.65864270000E+03 0.  0.
    8880022    1    1    2    0    0 -0.63182335191E+03 -0.17080306903E+03 -0.40495095596E+02  0.67335424718E+03  0.15294330000E+03 0.  0.
<mgrwt>
<rscale>  0 0.85647425E+03</rscale>
<asrwt>0</asrwt>
<pdfrwt beam="1">  1        2 0.29861738E+00 0.92853898E+03</pdfrwt>
<pdfrwt beam="2">  1       -2 0.75323457E-01 0.92853898E+03</pdfrwt>
<totfact> 0.11509106E+01</totfact>
</mgrwt>
</event>
<event>
 4    1  0.3565372E-007  0.1067414E+04  0.7818608E-02  0.9298234E-01
         -2   -1    0    0    0  501 -0.00000000000E+00  0.00000000000E+00  0.88938808984E+03  0.88938808985E+03  0.25500000000E-02 0.  1.
          2   -1    0    0  501    0  0.00000000000E+00 -0.00000000000E+00 -0.30234799570E+04  0.30234799570E+04  0.25500000000E-02 0. -1.
    8880023    1    1    2    0    0  0.83594379326E+03  0.82226213657E+02 -0.26900066023E+04  0.28940471493E+04  0.65864270000E+03 0. -1.
    8880022    1    1    2    0    0 -0.83594379326E+03 -0.82226213657E+02  0.55591473508E+03  0.10188208976E+04  0.15294330000E+03 0.  0.
<mgrwt>
<rscale>  0 0.10094559E+04</rscale>
<asrwt>0</asrwt>
<pdfrwt beam="1">  1        2 0.46515076E+00 0.10674143E+04</pdfrwt>
<pdfrwt beam="2">  1       -2 0.13682894E+00 0.10674143E+04</pdfrwt>
<totfact> 0.64549824E-01</totfact>
</mgrwt>
</event>
<event>
 4    1  0.3565372E-007  0.7434064E+03  0.7818608E-02  0.9850133E-01
          2   -1    0    0  501    0  0.00000000000E+00  0.00000000000E+00  0.95650970061E+03  0.95650970062E+03  0.25500000000E-02 0. -1.
         -2   -1    0    0    0  501 -0.00000000000E+00 -0.00000000000E+00 -0.10672860400E+04  0.10672860400E+04  0.25500000000E-02 0.  1.
    8880023    1    1    2    0    0  0.32500207452E+03 -0.11496289613E+03  0.76717107858E+03  0.10682717285E+04  0.65864270000E+03 0.  0.
    8880022    1    1    2    0    0 -0.32500207452E+03  0.11496289613E+03 -0.87794741802E+03  0.95552401212E+03  0.15294330000E+03 0.  0.
<mgrwt>
<rscale>  0 0.62740115E+03</rscale>
<asrwt>0</asrwt>
<pdfrwt beam="1">  1        2 0.14715534E+00 0.74340636E+03</pdfrwt>
<pdfrwt beam="2">  1       -2 0.16419785E+00 0.74340636E+03</pdfrwt>
<totfact> 0.64340180E+00</totfact>
</mgrwt>
</event>
<event>
 4    1  0.3565372E-007  0.7620414E+03  0.7818608E-02  0.9799851E-01
          2   -1    0    0  501    0  0.00000000000E+00  0.00000000000E+00  0.47642398263E+04  0.47642398263E+04  0.25500000000E-02 0. -1.
         -2   -1    0    0    0  501 -0.00000000000E+00 -0.00000000000E+00 -0.17400170932E+03  0.17400170934E+03  0.25500000000E-02 0.  1.
    8880023    1    1    2    0    0  0.37546073779E+03  0.76981465929E+02  0.44307970802E+04  0.44958502960E+04  0.65864270000E+03 0. -1.
    8880022    1    1    2    0    0 -0.37546073779E+03 -0.76981465929E+02  0.15944103680E+03  0.44239123968E+03  0.15294330000E+03 0.  0.
<mgrwt>
<rscale>  0 0.65370547E+03</rscale>
<asrwt>0</asrwt>
<pdfrwt beam="1">  1        2 0.73296001E+00 0.76204141E+03</pdfrwt>
<pdfrwt beam="2">  1       -2 0.26769492E-01 0.76204141E+03</pdfrwt>
<totfact> 0.95108066E-01</totfact>
</mgrwt>
</event>
<event>
 4    1  0.3565372E-007  0.1024457E+04  0.7818608E-02  0.9350237E-01
         -2   -1    0    0    0  501 -0.00000000000E+00  0.00000000000E+00  0.10770993707E+04  0.10770993707E+04  0.25500000000E-02 0.  1.
          2   -1    0    0  501    0  0.00000000000E+00 -0.00000000000E+00 -0.11255903705E+04  0.11255903705E+04  0.25500000000E-02 0. -1.
    8880023    1    1    2    0    0  0.17462629802E+03 -0.76498852693E+03 -0.64024872611E+03  0.12080688837E+04  0.65864270000E+03 0. -1.
    8880022    1    1    2    0    0 -0.17462629802E+03  0.76498852693E+03  0.59175772632E+03  0.99462085740E+03  0.15294330000E+03 0.  0.
<mgrwt>
<rscale>  0 0.96286594E+03</rscale>
<asrwt>0</asrwt>
<pdfrwt beam="1">  1        2 0.17316775E+00 0.10244569E+04</pdfrwt>
<pdfrwt beam="2">  1       -2 0.16570760E+00 0.10244569E+04</pdfrwt>
<totfact> 0.47524979E+00</totfact>
</mgrwt>
</event>
<event>
 4    1  0.3565372E-007  0.9719073E+03  0.7818608E-02  0.9419271E-01
          2   -1    0    0  501    0  0.00000000000E+00  0.00000000000E+00  0.49345238992E+03  0.49345238992E+03  0.25500000000E-02 0. -1.
         -2   -1    0    0    0  501 -0.00000000000E+00 -0.00000000000E+00 -0.17672066567E+04  0.17672066567E+04  0.25500000000E-02 0.  1.
    8880023    1    1    2    0    0  0.69205706600E+03 -0.17846745877E+03 -0.25135648651E+03  0.10038844087E+04  0.65864270000E+03 0.  0.
    8880022    1    1    2    0    0 -0.69205706600E+03  0.17846745877E+03 -0.10223977803E+04  0.12567746380E+04  0.15294330000E+03 0.  0.
<mgrwt>
<rscale>  0 0.90506574E+03</rscale>
<asrwt>0</asrwt>
<pdfrwt beam="1">  1        2 0.75915753E-01 0.97190731E+03</pdfrwt>
<pdfrwt beam="2">  1       -2 0.27187794E+00 0.97190731E+03</pdfrwt>
<totfact> 0.29696647E+00</totfact>
</mgrwt>
</event>
<event>
 4    1  0.3565372E-007  0.6611414E+03  0.7818608E-02  0.1023016E+00
         -2   -1    0    0    0  501 -0.00000000000E+00  0.00000000000E+00  0.90598333056E+02  0.90598333092E+02  0.25500000000E-02 0.  1.
          2   -1    0    0  501    0  0.00000000000E+00 -0.00000000000E+00 -0.18909525724E+04  0.18909525724E+04  0.25500000000E-02 0. -1.
    8880023    1    1    2    0    0  0.41181050068E+02  0.40023907159E+02 -0.15099136240E+04  0.16483164594E+04  0.65864270000E+03 0. -1.
    8880022    1    1    2    0    0 -0.41181050068E+02 -0.40023907159E+02 -0.29044061538E+03  0.33323444616E+03  0.15294330000E+03 0.  0.
<mgrwt>
<rscale>  0 0.46613662E+03</rscale>
<asrwt>0</asrwt>
<pdfrwt beam="1">  1        2 0.29091575E+00 0.66114144E+03</pdfrwt>
<pdfrwt beam="2">  1       -2 0.13938207E-01 0.66114144E+03</pdfrwt>
<totfact> 0.31321998E+02</totfact>
</mgrwt>
</event>
<event>
 4    1  0.3565372E-007  0.6689245E+03  0.7818608E-02  0.1016446E+00
         -2   -1    0    0    0  501 -0.00000000000E+00  0.00000000000E+00  0.16875260490E+03  0.16875260492E+03  0.25500000000E-02 0.  1.
          2   -1    0    0  501    0  0.00000000000E+00 -0.00000000000E+00 -0.11173446165E+04  0.11173446165E+04  0.25500000000E-02 0. -1.
    8880023    1    1    2    0    0  0.11618050995E+03 -0.12325979302E+02 -0.80086085974E+03  0.10434740838E+04  0.65864270000E+03 0.  0.
    8880022    1    1    2    0    0 -0.11618050995E+03  0.12325979302E+02 -0.14773115185E+03  0.24262313760E+03  0.15294330000E+03 0.  1.
<mgrwt>
<rscale>  0 0.48991294E+03</rscale>
<asrwt>0</asrwt>
<pdfrwt beam="1">  1        2 0.17189917E+00 0.66892455E+03</pdfrwt>
<pdfrwt beam="2">  1       -2 0.25961940E-01 0.66892455E+03</pdfrwt>
<totfact> 0.28838456E+02</totfact>
</mgrwt>
</event>
<event>
 4    1  0.3565372E-007  0.6812269E+03  0.7818608E-02  0.1008638E+00
         -2   -1    0    0    0  501 -0.00000000000E+00  0.00000000000E+00  0.31709646864E+03  0.31709646865E+03  0.25500000000E-02 0.  1.
          2   -1    0    0  501    0  0.00000000000E+00 -0.00000000000E+00 -0.13659947790E+04  0.13659947790E+04  0.25500000000E-02 0. -1.
    8880023    1    1    2    0    0  0.71259748878E+02  0.15868813547E+03 -0.12185069926E+04  0.13960047899E+04  0.65864270000E+03 0. -1.
    8880022    1    1    2    0    0 -0.71259748878E+02 -0.15868813547E+03  0.16960868220E+03  0.28708645778E+03  0.15294330000E+03 0.  0.
<mgrwt>
<rscale>  0 0.52019551E+03</rscale>
<asrwt>0</asrwt>
<pdfrwt beam="1">  1        2 0.21015304E+00 0.68122689E+03</pdfrwt>
<pdfrwt beam="2">  1       -2 0.48784073E-01 0.68122689E+03</pdfrwt>
<totfact> 0.61805045E+01</totfact>
</mgrwt>
</event>
<event>
 4    1  0.3565372E-007  0.1049531E+04  0.7818608E-02  0.9319445E-01
          2   -1    0    0  501    0  0.00000000000E+00  0.00000000000E+00  0.86042925528E+03  0.86042925529E+03  0.25500000000E-02 0. -1.
         -2   -1    0    0    0  501 -0.00000000000E+00 -0.00000000000E+00 -0.12956845839E+04  0.12956845839E+04  0.25500000000E-02 0.  1.
    8880023    1    1    2    0    0 -0.29730944615E+03  0.76112579635E+03  0.24985415899E+03  0.10788617574E+04  0.65864270000E+03 0.  0.
    8880022    1    1    2    0    0  0.29730944615E+03 -0.76112579635E+03 -0.68510948763E+03  0.10772520818E+04  0.15294330000E+03 0.  0.
<mgrwt>
<rscale>  0 0.99012237E+03</rscale>
<asrwt>0</asrwt>
<pdfrwt beam="1">  1        2 0.13237373E+00 0.10495311E+04</pdfrwt>
<pdfrwt beam="2">  1       -2 0.19933609E+00 0.10495311E+04</pdfrwt>
<totfact> 0.41411922E+00</totfact>
</mgrwt>
</event>
<event>
 4    1  0.3565372E-007  0.6980304E+03  0.7818608E-02  0.1000547E+00
         -2   -1    0    0    0  501 -0.00000000000E+00  0.00000000000E+00  0.12941135563E+04  0.12941135563E+04  0.25500000000E-02 0.  1.
          2   -1    0    0  501    0  0.00000000000E+00 -0.00000000000E+00 -0.48117034885E+03  0.48117034885E+03  0.25500000000E-02 0. -1.
    8880023    1    1    2    0    0 -0.23098012443E+03  0.91849737547E+01 -0.19918090172E+03  0.72589215418E+03  0.65864270000E+03 0. -1.
    8880022    1    1    2    0    0  0.23098012443E+03 -0.91849737547E+01  0.10121241092E+04  0.10493917510E+04  0.15294330000E+03 0.  0.
<mgrwt>
<rscale>  0 0.55410945E+03</rscale>
<asrwt>0</asrwt>
<pdfrwt beam="1">  1        2 0.74026209E-01 0.69803036E+03</pdfrwt>
<pdfrwt beam="2">  1       -2 0.19909439E+00 0.69803036E+03</pdfrwt>
<totfact> 0.88993732E+00</totfact>
</mgrwt>
</event>
<event>
 4    1  0.3565372E-007  0.6794125E+03  0.7818608E-02  0.1009658E+00
         -2   -1    0    0    0  501 -0.00000000000E+00  0.00000000000E+00  0.12113851253E+04  0.12113851253E+04  0.25500000000E-02 0.  1.
          2   -1    0    0  501    0  0.00000000000E+00 -0.00000000000E+00 -0.90283332391E+03  0.90283332392E+03  0.25500000000E-02 0. -1.
    8880023    1    1    2    0    0 -0.15097461974E+03  0.70694832436E+02 -0.76148902497E+03  0.10205228251E+04  0.65864270000E+03 0. -1.
    8880022    1    1    2    0    0  0.15097461974E+03 -0.70694832436E+02  0.10700408263E+04  0.10936956241E+04  0.15294330000E+03 0.  0.
<mgrwt>
<rscale>  0 0.51610799E+03</rscale>
<asrwt>0</asrwt>
<pdfrwt beam="1">  1        2 0.13889744E+00 0.67941247E+03</pdfrwt>
<pdfrwt beam="2">  1       -2 0.18636694E+00 0.67941247E+03</pdfrwt>
<totfact> 0.49376772E+00</totfact>
</mgrwt>
</event>
<event>
 4    1  0.3565372E-007  0.9680788E+03  0.7818608E-02  0.9424566E-01
         -2   -1    0    0    0  501 -0.00000000000E+00  0.00000000000E+00  0.68211338781E+03  0.68211338782E+03  0.25500000000E-02 0.  1.
          2   -1    0    0  501    0  0.00000000000E+00 -0.00000000000E+00 -0.19244623369E+04  0.19244623369E+04  0.25500000000E-02 0. -1.
    8880023    1    1    2    0    0  0.70668574770E+03  0.62941973317E+02 -0.15425465400E+04  0.18211607487E+04  0.65864270000E+03 0.  0.
    8880022    1    1    2    0    0 -0.70668574770E+03 -0.62941973317E+02  0.30019759094E+03  0.78541497607E+03  0.15294330000E+03 0.  0.
<mgrwt>
<rscale>  0 0.90081259E+03</rscale>
<asrwt>0</asrwt>
<pdfrwt beam="1">  1        2 0.29607113E+00 0.96807884E+03</pdfrwt>
<pdfrwt beam="2">  1       -2 0.10494052E+00 0.96807884E+03</pdfrwt>
<totfact> 0.54337780E+00</totfact>
</mgrwt>
</event>
<event>
 4    1  0.3565372E-007  0.6768195E+03  0.7818608E-02  0.1011183E+00
         -2   -1    0    0    0  501 -0.00000000000E+00  0.00000000000E+00  0.10557649059E+03  0.10557649062E+03  0.25500000000E-02 0.  1.
          2   -1    0    0  501    0  0.00000000000E+00 -0.00000000000E+00 -0.31121799910E+04  0.31121799910E+04  0.25500000000E-02 0. -1.
    8880023    1    1    2    0    0  0.15351082712E+03 -0.26623272172E+02 -0.28940249315E+04  0.29721145474E+04  0.65864270000E+03 0.  0.
    8880022    1    1    2    0    0 -0.15351082712E+03  0.26623272172E+02 -0.11257856899E+03  0.24564193427E+03  0.15294330000E+03 0.  0.
<mgrwt>
<rscale>  0 0.51007113E+03</rscale>
<asrwt>0</asrwt>
<pdfrwt beam="1">  1        2 0.47879685E+00 0.67681946E+03</pdfrwt>
<pdfrwt beam="2">  1       -2 0.16242539E-01 0.67681946E+03</pdfrwt>
<totfact> 0.48477416E+01</totfact>
</mgrwt>
</event>
<event>
 4    1  0.3565372E-007  0.7132249E+03  0.7818608E-02  0.9946215E-01
          2   -1    0    0  501    0  0.00000000000E+00  0.00000000000E+00  0.19981878945E+04  0.19981878945E+04  0.25500000000E-02 0. -1.
         -2   -1    0    0    0  501 -0.00000000000E+00 -0.00000000000E+00 -0.16807038089E+03  0.16807038091E+03  0.25500000000E-02 0.  1.
    8880023    1    1    2    0    0 -0.17073187535E+02 -0.27310814815E+03  0.16663623453E+04  0.18125819227E+04  0.65864270000E+03 0. -1.
    8880022    1    1    2    0    0  0.17073187535E+02  0.27310814815E+03  0.16375516829E+03  0.35367635272E+03  0.15294330000E+03 0.  0.
<mgrwt>
<rscale>  0 0.58072853E+03</rscale>
<asrwt>0</asrwt>
<pdfrwt beam="1">  1        2 0.30741351E+00 0.71322490E+03</pdfrwt>
<pdfrwt beam="2">  1       -2 0.25856983E-01 0.71322490E+03</pdfrwt>
<totfact> 0.93059843E+01</totfact>
</mgrwt>
</event>
<event>
 4    1  0.3565373E-007  0.8014677E+03  0.7818608E-02  0.9707631E-01
         -2   -1    0    0    0  501 -0.00000000000E+00  0.00000000000E+00  0.13195500139E+04  0.13195500139E+04  0.25500000000E-02 0.  1.
          2   -1    0    0  501    0  0.00000000000E+00 -0.00000000000E+00 -0.17693672582E+04  0.17693672582E+04  0.25500000000E-02 0. -1.
    8880023    1    1    2    0    0 -0.26920453660E+03  0.36887561437E+03 -0.16288324155E+04  0.18153362073E+04  0.65864270000E+03 0.  0.
    8880022    1    1    2    0    0  0.26920453660E+03 -0.36887561437E+03  0.11790151712E+04  0.12735810647E+04  0.15294330000E+03 0.  0.
<mgrwt>
<rscale>  0 0.70564229E+03</rscale>
<asrwt>0</asrwt>
<pdfrwt beam="1">  1        2 0.27221035E+00 0.80146772E+03</pdfrwt>
<pdfrwt beam="2">  1       -2 0.20300769E+00 0.80146772E+03</pdfrwt>
<totfact> 0.11732134E+00</totfact>
</mgrwt>
</event>
<event>
 4    1  0.3565372E-007  0.7186119E+03  0.7818608E-02  0.9927311E-01
          2   -1    0    0  501    0  0.00000000000E+00  0.00000000000E+00  0.84567614877E+03  0.84567614877E+03  0.25500000000E-02 0. -1.
         -2   -1    0    0    0  501 -0.00000000000E+00 -0.00000000000E+00 -0.54644362796E+03  0.54644362797E+03  0.25500000000E-02 0.  1.
    8880023    1    1    2    0    0  0.19890879334E+03 -0.20743213904E+03  0.60958704074E+03  0.94233718322E+03  0.65864270000E+03 0.  0.
    8880022    1    1    2    0    0 -0.19890879334E+03  0.20743213904E+03 -0.31035451994E+03  0.44978259352E+03  0.15294330000E+03 0. -1.
<mgrwt>
<rscale>  0 0.58955735E+03</rscale>
<asrwt>0</asrwt>
<pdfrwt beam="1">  1        2 0.13010402E+00 0.71861186E+03</pdfrwt>
<pdfrwt beam="2">  1       -2 0.84068251E-01 0.71861186E+03</pdfrwt>
<totfact> 0.40161717E+01</totfact>
</mgrwt>
</event>
<event>
 4    1  0.3565372E-007  0.1670508E+04  0.7818608E-02  0.8797765E-01
         -2   -1    0    0    0  501 -0.00000000000E+00  0.00000000000E+00  0.17132212185E+04  0.17132212185E+04  0.25500000000E-02 0.  1.
          2   -1    0    0  501    0  0.00000000000E+00 -0.00000000000E+00 -0.27008575583E+04  0.27008575583E+04  0.25500000000E-02 0. -1.
    8880023    1    1    2    0    0  0.58294716507E+03 -0.14201974297E+04 -0.19716616961E+04  0.25841919794E+04  0.65864270000E+03 0.  0.
    8880022    1    1    2    0    0 -0.58294716507E+03  0.14201974297E+04  0.98402535623E+03  0.18298867974E+04  0.15294330000E+03 0.  0.
<mgrwt>
<rscale>  0 0.16376184E+04</rscale>
<asrwt>0</asrwt>
<pdfrwt beam="1">  1        2 0.41551655E+00 0.16705084E+04</pdfrwt>
<pdfrwt beam="2">  1       -2 0.26357250E+00 0.16705084E+04</pdfrwt>
<totfact> 0.12936005E-01</totfact>
</mgrwt>
</event>
<event>
 4    1  0.3565372E-007  0.7505929E+03  0.7818608E-02  0.9830100E-01
          2   -1    0    0  501    0  0.00000000000E+00  0.00000000000E+00  0.95842873872E+03  0.95842873872E+03  0.25500000000E-02 0. -1.
         -2   -1    0    0    0  501 -0.00000000000E+00 -0.00000000000E+00 -0.42129644857E+03  0.42129644858E+03  0.25500000000E-02 0.  1.
    8880023    1    1    2    0    0  0.18175416203E+03  0.31071683229E+03  0.62746243453E+03  0.97831428401E+03  0.65864270000E+03 0. -1.
    8880022    1    1    2    0    0 -0.18175416203E+03 -0.31071683229E+03 -0.90330144377E+02  0.40141090329E+03  0.15294330000E+03 0.  0.
<mgrwt>
<rscale>  0 0.63771928E+03</rscale>
<asrwt>0</asrwt>
<pdfrwt beam="1">  1        2 0.14745057E+00 0.75059292E+03</pdfrwt>
<pdfrwt beam="2">  1       -2 0.64814839E-01 0.75059292E+03</pdfrwt>
<totfact> 0.59744854E+01</totfact>
</mgrwt>
</event>
<event>
 4    1  0.3565372E-007  0.6659126E+03  0.7818608E-02  0.1018780E+00
          2   -1    0    0  501    0  0.00000000000E+00  0.00000000000E+00  0.97008314013E+03  0.97008314013E+03  0.25500000000E-02 0. -1.
         -2   -1    0    0    0  501 -0.00000000000E+00 -0.00000000000E+00 -0.41564663470E+03  0.41564663470E+03  0.25500000000E-02 0.  1.
    8880023    1    1    2    0    0 -0.12927574364E+02  0.97273827412E+02  0.82474381604E+03  0.10600197583E+04  0.65864270000E+03 0. -1.
    8880022    1    1    2    0    0  0.12927574364E+02 -0.97273827412E+02 -0.27030731060E+03  0.32571001651E+03  0.15294330000E+03 0.  0.
<mgrwt>
<rscale>  0 0.48129531E+03</rscale>
<asrwt>0</asrwt>
<pdfrwt beam="1">  1        2 0.14924356E+00 0.66591255E+03</pdfrwt>
<pdfrwt beam="2">  1       -2 0.63945637E-01 0.66591255E+03</pdfrwt>
<totfact> 0.60883790E+01</totfact>
</mgrwt>
</event>
<event>
 4    1  0.3565372E-007  0.6636592E+03  0.7818608E-02  0.1020686E+00
          2   -1    0    0  501    0  0.00000000000E+00  0.00000000000E+00  0.14106950318E+04  0.14106950318E+04  0.25500000000E-02 0. -1.
         -2   -1    0    0    0  501 -0.00000000000E+00 -0.00000000000E+00 -0.29177902352E+03  0.29177902353E+03  0.25500000000E-02 0.  1.
    8880023    1    1    2    0    0  0.70197965924E+02  0.41299308238E+02  0.12951733616E+04  0.14553067134E+04  0.65864270000E+03 0. -1.
    8880022    1    1    2    0    0 -0.70197965924E+02 -0.41299308238E+02 -0.17625735333E+03  0.24716734189E+03  0.15294330000E+03 0.  0.
<mgrwt>
<rscale>  0 0.47439960E+03</rscale>
<asrwt>0</asrwt>
<pdfrwt beam="1">  1        2 0.21703001E+00 0.66365925E+03</pdfrwt>
<pdfrwt beam="2">  1       -2 0.44889081E-01 0.66365925E+03</pdfrwt>
<totfact> 0.69039767E+01</totfact>
</mgrwt>
</event>
<event>
 4    1  0.3565372E-007  0.8138526E+03  0.7818608E-02  0.9681607E-01
          2   -1    0    0  501    0  0.00000000000E+00  0.00000000000E+00  0.10608544716E+04  0.10608544716E+04  0.25500000000E-02 0. -1.
         -2   -1    0    0    0  501 -0.00000000000E+00 -0.00000000000E+00 -0.78908407538E+03  0.78908407538E+03  0.25500000000E-02 0.  1.
    8880023    1    1    2    0    0  0.32591251215E+03 -0.34975258521E+03  0.78593753368E+03  0.11313946480E+04  0.65864270000E+03 0. -1.
    8880022    1    1    2    0    0 -0.32591251215E+03  0.34975258521E+03 -0.51416713748E+03  0.71854389895E+03  0.15294330000E+03 0.  0.
<mgrwt>
<rscale>  0 0.72122523E+03</rscale>
<asrwt>0</asrwt>
<pdfrwt beam="1">  1        2 0.16320838E+00 0.81385259E+03</pdfrwt>
<pdfrwt beam="2">  1       -2 0.12139755E+00 0.81385259E+03</pdfrwt>
<totfact> 0.12013288E+01</totfact>
</mgrwt>
</event>
<event>
 4    1  0.3565372E-007  0.7951515E+03  0.7818608E-02  0.9721379E-01
         -2   -1    0    0    0  501 -0.00000000000E+00  0.00000000000E+00  0.13579399001E+04  0.13579399001E+04  0.25500000000E-02 0.  1.
          2   -1    0    0  501    0  0.00000000000E+00 -0.00000000000E+00 -0.53367407407E+03  0.53367407408E+03  0.25500000000E-02 0. -1.
    8880023    1    1    2    0    0  0.30866743185E+03 -0.32121673474E+03 -0.15026820344E+03  0.80922587291E+03  0.65864270000E+03 0. -1.
    8880022    1    1    2    0    0 -0.30866743185E+03  0.32121673474E+03  0.97453402942E+03  0.10823881012E+04  0.15294330000E+03 0.  0.
<mgrwt>
<rscale>  0 0.69758034E+03</rscale>
<asrwt>0</asrwt>
<pdfrwt beam="1">  1        2 0.82103705E-01 0.79515155E+03</pdfrwt>
<pdfrwt beam="2">  1       -2 0.20891383E+00 0.79515155E+03</pdfrwt>
<totfact> 0.67441663E+00</totfact>
</mgrwt>
</event>
<event>
 4    1  0.3565372E-007  0.7413597E+03  0.7818608E-02  0.9856004E-01
         -2   -1    0    0    0  501 -0.00000000000E+00  0.00000000000E+00  0.29532420476E+03  0.29532420477E+03  0.25500000000E-02 0.  1.
          2   -1    0    0  501    0  0.00000000000E+00 -0.00000000000E+00 -0.12345720010E+04  0.12345720010E+04  0.25500000000E-02 0. -1.
    8880023    1    1    2    0    0  0.33023304315E+03 -0.82159543153E+02 -0.88240974287E+03  0.11525021535E+04  0.65864270000E+03 0.  1.
    8880022    1    1    2    0    0 -0.33023304315E+03  0.82159543153E+02 -0.56838053338E+02  0.37739405221E+03  0.15294330000E+03 0.  0.
<mgrwt>
<rscale>  0 0.62441737E+03</rscale>
<asrwt>0</asrwt>
<pdfrwt beam="1">  1        2 0.18993415E+00 0.74135974E+03</pdfrwt>
<pdfrwt beam="2">  1       -2 0.45434494E-01 0.74135974E+03</pdfrwt>
<totfact> 0.84391772E+01</totfact>
</mgrwt>
</event>
<event>
 4    1  0.3565372E-007  0.9558900E+03  0.7818608E-02  0.9441690E-01
          2   -1    0    0  501    0  0.00000000000E+00  0.00000000000E+00  0.10252620439E+04  0.10252620439E+04  0.25500000000E-02 0. -1.
         -2   -1    0    0    0  501 -0.00000000000E+00 -0.00000000000E+00 -0.81701989607E+03  0.81701989607E+03  0.25500000000E-02 0.  1.
    8880023    1    1    2    0    0 -0.67785862064E+03  0.14290989877E+03  0.49574826349E+03  0.10767971470E+04  0.65864270000E+03 0.  0.
    8880022    1    1    2    0    0  0.67785862064E+03 -0.14290989877E+03 -0.28750611566E+03  0.76548479299E+03  0.15294330000E+03 0.  0.
<mgrwt>
<rscale>  0 0.88722770E+03</rscale>
<asrwt>0</asrwt>
<pdfrwt beam="1">  1        2 0.15773262E+00 0.95589003E+03</pdfrwt>
<pdfrwt beam="2">  1       -2 0.12569537E+00 0.95589003E+03</pdfrwt>
<totfact> 0.11430729E+01</totfact>
</mgrwt>
</event>
<event>
 4    1  0.3565372E-007  0.6978096E+03  0.7818608E-02  0.1000641E+00
         -2   -1    0    0    0  501 -0.00000000000E+00  0.00000000000E+00  0.18988500677E+03  0.18988500679E+03  0.25500000000E-02 0.  1.
          2   -1    0    0  501    0  0.00000000000E+00 -0.00000000000E+00 -0.34646700754E+04  0.34646700754E+04  0.25500000000E-02 0. -1.
    8880023    1    1    2    0    0  0.18477133859E+03  0.13779563487E+03 -0.33035467668E+04  0.33764418448E+04  0.65864270000E+03 0. -1.
    8880022    1    1    2    0    0 -0.18477133859E+03 -0.13779563487E+03  0.28761698122E+02  0.27811323745E+03  0.15294330000E+03 0.  0.
<mgrwt>
<rscale>  0 0.55369985E+03</rscale>
<asrwt>0</asrwt>
<pdfrwt beam="1">  1        2 0.53302612E+00 0.69780964E+03</pdfrwt>
<pdfrwt beam="2">  1       -2 0.29213081E-01 0.69780964E+03</pdfrwt>
<totfact> 0.10099943E+01</totfact>
</mgrwt>
</event>
<event>
 4    1  0.3565372E-007  0.1180315E+04  0.7818608E-02  0.9176499E-01
         -2   -1    0    0    0  501 -0.00000000000E+00  0.00000000000E+00  0.10036191479E+04  0.10036191479E+04  0.25500000000E-02 0.  1.
          2   -1    0    0  501    0  0.00000000000E+00 -0.00000000000E+00 -0.12933988017E+04  0.12933988017E+04  0.25500000000E-02 0. -1.
    8880023    1    1    2    0    0  0.97262517564E+03  0.11547501143E+03 -0.50299403340E+03  0.12830227646E+04  0.65864270000E+03 0. -1.
    8880022    1    1    2    0    0 -0.97262517564E+03 -0.11547501143E+03  0.21321437956E+03  0.10139951850E+04  0.15294330000E+03 0.  0.
<mgrwt>
<rscale>  0 0.11299328E+04</rscale>
<asrwt>0</asrwt>
<pdfrwt beam="1">  1        2 0.19898443E+00 0.11803154E+04</pdfrwt>
<pdfrwt beam="2">  1       -2 0.15440295E+00 0.11803154E+04</pdfrwt>
<totfact> 0.45059703E+00</totfact>
</mgrwt>
</event>
<event>
 4    1  0.3565372E-007  0.8104608E+03  0.7818608E-02  0.9688618E-01
         -2   -1    0    0    0  501 -0.00000000000E+00  0.00000000000E+00  0.31489492482E+03  0.31489492483E+03  0.25500000000E-02 0.  1.
          2   -1    0    0  501    0  0.00000000000E+00 -0.00000000000E+00 -0.13891754468E+04  0.13891754468E+04  0.25500000000E-02 0. -1.
    8880023    1    1    2    0    0 -0.21864896837E+02  0.47176104546E+03 -0.79113362878E+03  0.11325807621E+04  0.65864270000E+03 0. -1.
    8880022    1    1    2    0    0  0.21864896837E+02 -0.47176104546E+03 -0.28314689320E+03  0.57148960959E+03  0.15294330000E+03 0.  1.
<mgrwt>
<rscale>  0 0.71698542E+03</rscale>
<asrwt>0</asrwt>
<pdfrwt beam="1">  1        2 0.21371930E+00 0.81046083E+03</pdfrwt>
<pdfrwt beam="2">  1       -2 0.48445374E-01 0.81046083E+03</pdfrwt>
<totfact> 0.60053024E+01</totfact>
</mgrwt>
</event>
<event>
 4    1  0.3565372E-007  0.8815994E+03  0.7818608E-02  0.9556240E-01
         -2   -1    0    0    0  501 -0.00000000000E+00  0.00000000000E+00  0.82391195922E+03  0.82391195922E+03  0.25500000000E-02 0.  1.
          2   -1    0    0  501    0  0.00000000000E+00 -0.00000000000E+00 -0.11281076696E+04  0.11281076696E+04  0.25500000000E-02 0. -1.
    8880023    1    1    2    0    0  0.51917274311E+03  0.27178480691E+03 -0.78367150081E+03  0.11795586233E+04  0.65864270000E+03 0.  0.
    8880022    1    1    2    0    0 -0.51917274311E+03 -0.27178480691E+03  0.47947579039E+03  0.77246100552E+03  0.15294330000E+03 0.  0.
<mgrwt>
<rscale>  0 0.80261447E+03</rscale>
<asrwt>0</asrwt>
<pdfrwt beam="1">  1        2 0.17355503E+00 0.88159941E+03</pdfrwt>
<pdfrwt beam="2">  1       -2 0.12675569E+00 0.88159941E+03</pdfrwt>
<totfact> 0.97289276E+00</totfact>
</mgrwt>
</event>
<event>
 4    1  0.3565372E-007  0.8161834E+03  0.7818608E-02  0.9676838E-01
         -2   -1    0    0    0  501 -0.00000000000E+00  0.00000000000E+00  0.20717234027E+03  0.20717234029E+03  0.25500000000E-02 0.  1.
          2   -1    0    0  501    0  0.00000000000E+00 -0.00000000000E+00 -0.23788954730E+04  0.23788954730E+04  0.25500000000E-02 0. -1.
    8880023    1    1    2    0    0  0.83049366312E+02 -0.47481363683E+03 -0.88687456137E+03  0.12052808307E+04  0.65864270000E+03 0.  1.
    8880022    1    1    2    0    0 -0.83049366312E+02  0.47481363683E+03 -0.12848485714E+04  0.13807869826E+04  0.15294330000E+03 0.  0.
<mgrwt>
<rscale>  0 0.72412742E+03</rscale>
<asrwt>0</asrwt>
<pdfrwt beam="1">  1        2 0.36598390E+00 0.81618343E+03</pdfrwt>
<pdfrwt beam="2">  1       -2 0.31872669E-01 0.81618343E+03</pdfrwt>
<totfact> 0.38540364E+01</totfact>
</mgrwt>
</event>
<event>
 4    1  0.3565372E-007  0.8071048E+03  0.7818608E-02  0.9695639E-01
          2   -1    0    0  501    0  0.00000000000E+00  0.00000000000E+00  0.18084812759E+04  0.18084812759E+04  0.25500000000E-02 0. -1.
         -2   -1    0    0    0  501 -0.00000000000E+00 -0.00000000000E+00 -0.44512327161E+03  0.44512327162E+03  0.25500000000E-02 0.  1.
    8880023    1    1    2    0    0 -0.24619858453E+03  0.39622497259E+03  0.27152718296E+01  0.80710937976E+03  0.65864270000E+03 0.  0.
    8880022    1    1    2    0    0  0.24619858453E+03 -0.39622497259E+03  0.13606427324E+04  0.14464951677E+04  0.15294330000E+03 0. -1.
<mgrwt>
<rscale>  0 0.71277014E+03</rscale>
<asrwt>0</asrwt>
<pdfrwt beam="1">  1        2 0.27822789E+00 0.80710481E+03</pdfrwt>
<pdfrwt beam="2">  1       -2 0.68480503E-01 0.80710481E+03</pdfrwt>
<totfact> 0.17021969E+01</totfact>
</mgrwt>
</event>
<event>
 4    1  0.3565372E-007  0.7226534E+03  0.7818608E-02  0.9913708E-01
          2   -1    0    0  501    0  0.00000000000E+00  0.00000000000E+00  0.49936719664E+03  0.49936719665E+03  0.25500000000E-02 0. -1.
         -2   -1    0    0    0  501 -0.00000000000E+00 -0.00000000000E+00 -0.58033908346E+03  0.58033908346E+03  0.25500000000E-02 0.  1.
    8880023    1    1    2    0    0  0.25713130893E+03 -0.14933613337E+03 -0.15054007438E+03  0.73816685852E+03  0.65864270000E+03 0. -1.
    8880022    1    1    2    0    0 -0.25713130893E+03  0.14933613337E+03  0.69568187558E+02  0.34153942159E+03  0.15294330000E+03 0.  0.
<mgrwt>
<rscale>  0 0.59601524E+03</rscale>
<asrwt>0</asrwt>
<pdfrwt beam="1">  1        2 0.76825723E-01 0.72265344E+03</pdfrwt>
<pdfrwt beam="2">  1       -2 0.89282936E-01 0.72265344E+03</pdfrwt>
<totfact> 0.67262643E+01</totfact>
</mgrwt>
</event>
<event>
 4    1  0.3565372E-007  0.7962771E+03  0.7818608E-02  0.9718904E-01
         -2   -1    0    0    0  501 -0.00000000000E+00  0.00000000000E+00  0.22768635499E+04  0.22768635499E+04  0.25500000000E-02 0.  1.
          2   -1    0    0  501    0  0.00000000000E+00 -0.00000000000E+00 -0.73687262069E+03  0.73687262069E+03  0.25500000000E-02 0. -1.
    8880023    1    1    2    0    0  0.30719001476E+03 -0.32539412778E+03 -0.48627502738E+03  0.93301696238E+03  0.65864270000E+03 0. -1.
    8880022    1    1    2    0    0 -0.30719001476E+03  0.32539412778E+03  0.20262659566E+04  0.20807192082E+04  0.15294330000E+03 0.  0.
<mgrwt>
<rscale>  0 0.69902313E+03</rscale>
<asrwt>0</asrwt>
<pdfrwt beam="1">  1        2 0.11336502E+00 0.79627712E+03</pdfrwt>
<pdfrwt beam="2">  1       -2 0.35028670E+00 0.79627712E+03</pdfrwt>
<totfact> 0.62229973E-01</totfact>
</mgrwt>
</event>
<event>
 4    1  0.3565372E-007  0.6944101E+03  0.7818608E-02  0.1002123E+00
          2   -1    0    0  501    0  0.00000000000E+00  0.00000000000E+00  0.46467824417E+03  0.46467824418E+03  0.25500000000E-02 0. -1.
         -2   -1    0    0    0  501 -0.00000000000E+00 -0.00000000000E+00 -0.10151331568E+04  0.10151331569E+04  0.25500000000E-02 0.  1.
    8880023    1    1    2    0    0  0.13603321632E+03 -0.17288762940E+03  0.16678733557E+03  0.71415921888E+03  0.65864270000E+03 0.  0.
    8880022    1    1    2    0    0 -0.13603321632E+03  0.17288762940E+03 -0.71724224825E+03  0.76565218215E+03  0.15294330000E+03 0.  1.
<mgrwt>
<rscale>  0 0.54729012E+03</rscale>
<asrwt>0</asrwt>
<pdfrwt beam="1">  1        2 0.71488961E-01 0.69441009E+03</pdfrwt>
<pdfrwt beam="2">  1       -2 0.15617433E+00 0.69441009E+03</pdfrwt>
<totfact> 0.18374000E+01</totfact>
</mgrwt>
</event>
<event>
 4    1  0.3565372E-007  0.7520005E+03  0.7818608E-02  0.9826276E-01
         -2   -1    0    0    0  501 -0.00000000000E+00  0.00000000000E+00  0.10972353409E+04  0.10972353409E+04  0.25500000000E-02 0.  1.
          2   -1    0    0  501    0  0.00000000000E+00 -0.00000000000E+00 -0.14532393844E+04  0.14532393844E+04  0.25500000000E-02 0. -1.
    8880023    1    1    2    0    0  0.19614215175E+03 -0.30532409522E+03 -0.13144044316E+04  0.15143195710E+04  0.65864270000E+03 0. -1.
    8880022    1    1    2    0    0 -0.19614215175E+03  0.30532409522E+03  0.95840038815E+03  0.10361551543E+04  0.15294330000E+03 0.  0.
<mgrwt>
<rscale>  0 0.63971310E+03</rscale>
<asrwt>0</asrwt>
<pdfrwt beam="1">  1        2 0.22357529E+00 0.75200050E+03</pdfrwt>
<pdfrwt beam="2">  1       -2 0.16880544E+00 0.75200050E+03</pdfrwt>
<totfact> 0.30120408E+00</totfact>
</mgrwt>
</event>
<event>
 4    1  0.3565372E-007  0.1053675E+04  0.7818608E-02  0.9314477E-01
          2   -1    0    0  501    0  0.00000000000E+00  0.00000000000E+00  0.18890574739E+04  0.18890574739E+04  0.25500000000E-02 0. -1.
         -2   -1    0    0    0  501 -0.00000000000E+00 -0.00000000000E+00 -0.58502238667E+03  0.58502238668E+03  0.25500000000E-02 0.  1.
    8880023    1    1    2    0    0  0.66869978245E+03 -0.47881156386E+03  0.12513414139E+04  0.16358745224E+04  0.65864270000E+03 0.  0.
    8880022    1    1    2    0    0 -0.66869978245E+03  0.47881156386E+03  0.52693673365E+02  0.83820533818E+03  0.15294330000E+03 0.  0.
<mgrwt>
<rscale>  0 0.99460930E+03</rscale>
<asrwt>0</asrwt>
<pdfrwt beam="1">  1        2 0.29062422E+00 0.10536746E+04</pdfrwt>
<pdfrwt beam="2">  1       -2 0.90003445E-01 0.10536746E+04</pdfrwt>
<totfact> 0.80887723E+00</totfact>
</mgrwt>
</event>
<event>
 4    1  0.3565372E-007  0.1250475E+04  0.7818608E-02  0.9109553E-01
          2   -1    0    0  501    0  0.00000000000E+00  0.00000000000E+00  0.24846507862E+04  0.24846507862E+04  0.25500000000E-02 0. -1.
         -2   -1    0    0    0  501 -0.00000000000E+00 -0.00000000000E+00 -0.72500491475E+03  0.72500491475E+03  0.25500000000E-02 0.  1.
    8880023    1    1    2    0    0 -0.28580493698E+03  0.10238131850E+04  0.17309268774E+04  0.21353678748E+04  0.65864270000E+03 0.  0.
    8880022    1    1    2    0    0  0.28580493698E+03 -0.10238131850E+04  0.28718994061E+02  0.10742878261E+04  0.15294330000E+03 0.  0.
<mgrwt>
<rscale>  0 0.12037815E+04</rscale>
<asrwt>0</asrwt>
<pdfrwt beam="1">  1        2 0.38225397E+00 0.12504752E+04</pdfrwt>
<pdfrwt beam="2">  1       -2 0.11153922E+00 0.12504752E+04</pdfrwt>
<totfact> 0.22026645E+00</totfact>
</mgrwt>
</event>
<event>
 4    1  0.3565372E-007  0.9252847E+03  0.7818608E-02  0.9486603E-01
         -2   -1    0    0    0  501 -0.00000000000E+00  0.00000000000E+00  0.78198074441E+03  0.78198074442E+03  0.25500000000E-02 0.  1.
          2   -1    0    0  501    0  0.00000000000E+00 -0.00000000000E+00 -0.13687421964E+04  0.13687421964E+04  0.25500000000E-02 0. -1.
    8880023    1    1    2    0    0  0.29629432028E+02  0.64920232345E+03 -0.10024896796E+04  0.13642350692E+04  0.65864270000E+03 0. -1.
    8880022    1    1    2    0    0 -0.29629432028E+02 -0.64920232345E+03  0.41572822761E+03  0.78648787166E+03  0.15294330000E+03 0.  0.
<mgrwt>
<rscale>  0 0.85278766E+03</rscale>
<asrwt>0</asrwt>
<pdfrwt beam="1">  1        2 0.21057572E+00 0.92528469E+03</pdfrwt>
<pdfrwt beam="2">  1       -2 0.12030473E+00 0.92528469E+03</pdfrwt>
<totfact> 0.79664659E+00</totfact>
</mgrwt>
</event>
<event>
 4    1  0.3565372E-007  0.6701958E+03  0.7818608E-02  0.1015523E+00
         -2   -1    0    0    0  501 -0.00000000000E+00  0.00000000000E+00  0.21628444370E+03  0.21628444371E+03  0.25500000000E-02 0.  1.
          2   -1    0    0  501    0  0.00000000000E+00 -0.00000000000E+00 -0.96164643942E+03  0.96164643943E+03  0.25500000000E-02 0. -1.
    8880023    1    1    2    0    0 -0.27443875362E+02  0.12082655906E+03 -0.71285562025E+03  0.97843015349E+03  0.65864270000E+03 0.  0.
    8880022    1    1    2    0    0  0.27443875362E+02 -0.12082655906E+03 -0.32506375470E+02  0.19950072965E+03  0.15294330000E+03 0.  0.
<mgrwt>
<rscale>  0 0.49337446E+03</rscale>
<asrwt>0</asrwt>
<pdfrwt beam="1">  1        2 0.14794560E+00 0.67019581E+03</pdfrwt>
<pdfrwt beam="2">  1       -2 0.33274530E-01 0.67019581E+03</pdfrwt>
<totfact> 0.22815049E+02</totfact>
</mgrwt>
</event>
<event>
 4    1  0.3565372E-007  0.9706810E+03  0.7818608E-02  0.9420963E-01
          2   -1    0    0  501    0  0.00000000000E+00  0.00000000000E+00  0.12620569004E+04  0.12620569004E+04  0.25500000000E-02 0. -1.
         -2   -1    0    0    0  501 -0.00000000000E+00 -0.00000000000E+00 -0.87585336539E+03  0.87585336540E+03  0.25500000000E-02 0.  1.
    8880023    1    1    2    0    0 -0.57856838508E+03 -0.41673734311E+03  0.83603496346E+03  0.12810839378E+04  0.65864270000E+03 0.  0.
    8880022    1    1    2    0    0  0.57856838508E+03  0.41673734311E+03 -0.44983142843E+03  0.85682632801E+03  0.15294330000E+03 0.  0.
<mgrwt>
<rscale>  0 0.90370409E+03</rscale>
<asrwt>0</asrwt>
<pdfrwt beam="1">  1        2 0.19416260E+00 0.97068100E+03</pdfrwt>
<pdfrwt beam="2">  1       -2 0.13474667E+00 0.97068100E+03</pdfrwt>
<totfact> 0.68635249E+00</totfact>
</mgrwt>
</event>
<event>
 4    1  0.3565372E-007  0.8053525E+03  0.7818608E-02  0.9699340E-01
          2   -1    0    0  501    0  0.00000000000E+00  0.00000000000E+00  0.18859237279E+04  0.18859237279E+04  0.25500000000E-02 0. -1.
         -2   -1    0    0    0  501 -0.00000000000E+00 -0.00000000000E+00 -0.24412276481E+03  0.24412276482E+03  0.25500000000E-02 0.  1.
    8880023    1    1    2    0    0 -0.33390696117E+03 -0.32138547239E+03  0.69039541481E+03  0.10607726032E+04  0.65864270000E+03 0.  0.
    8880022    1    1    2    0    0  0.33390696117E+03  0.32138547239E+03  0.95140554829E+03  0.10692738896E+04  0.15294330000E+03 0.  1.
<mgrwt>
<rscale>  0 0.71056096E+03</rscale>
<asrwt>0</asrwt>
<pdfrwt beam="1">  1        2 0.29014211E+00 0.80535252E+03</pdfrwt>
<pdfrwt beam="2">  1       -2 0.37557349E-01 0.80535252E+03</pdfrwt>
<totfact> 0.52798966E+01</totfact>
</mgrwt>
</event>
<event>
 4    1  0.3565372E-007  0.7876739E+03  0.7818608E-02  0.9738110E-01
         -2   -1    0    0    0  501 -0.00000000000E+00  0.00000000000E+00  0.26638985918E+03  0.26638985919E+03  0.25500000000E-02 0.  1.
          2   -1    0    0  501    0  0.00000000000E+00 -0.00000000000E+00 -0.19356720477E+04  0.19356720477E+04  0.25500000000E-02 0. -1.
    8880023    1    1    2    0    0  0.12028271428E+03 -0.41491200486E+03 -0.15337229772E+04  0.17241624866E+04  0.65864270000E+03 0. -1.
    8880022    1    1    2    0    0 -0.12028271428E+03  0.41491200486E+03 -0.13555921131E+03  0.47789942029E+03  0.15294330000E+03 0.  0.
<mgrwt>
<rscale>  0 0.68792362E+03</rscale>
<asrwt>0</asrwt>
<pdfrwt beam="1">  1        2 0.29779569E+00 0.78767386E+03</pdfrwt>
<pdfrwt beam="2">  1       -2 0.40983057E-01 0.78767386E+03</pdfrwt>
<totfact> 0.41934647E+01</totfact>
</mgrwt>
</event>
<event>
 4    1  0.3565372E-007  0.7287090E+03  0.7818608E-02  0.9894149E-01
         -2   -1    0    0    0  501 -0.00000000000E+00  0.00000000000E+00  0.45939610287E+03  0.45939610288E+03  0.25500000000E-02 0.  1.
          2   -1    0    0  501    0  0.00000000000E+00 -0.00000000000E+00 -0.19012689218E+04  0.19012689218E+04  0.25500000000E-02 0. -1.
    8880023    1    1    2    0    0  0.30600971357E+03 -0.59704539395E+02 -0.17504688800E+04  0.18960902096E+04  0.65864270000E+03 0. -1.
    8880022    1    1    2    0    0 -0.30600971357E+03  0.59704539395E+02  0.30859606111E+03  0.46457481504E+03  0.15294330000E+03 0.  0.
<mgrwt>
<rscale>  0 0.60545687E+03</rscale>
<asrwt>0</asrwt>
<pdfrwt beam="1">  1        2 0.29250291E+00 0.72870898E+03</pdfrwt>
<pdfrwt beam="2">  1       -2 0.70676324E-01 0.72870898E+03</pdfrwt>
<totfact> 0.14292358E+01</totfact>
</mgrwt>
</event>
<event>
 4    1  0.3565372E-007  0.6677301E+03  0.7818608E-02  0.1017345E+00
         -2   -1    0    0    0  501 -0.00000000000E+00  0.00000000000E+00  0.24830896863E+03  0.24830896864E+03  0.25500000000E-02 0.  1.
          2   -1    0    0  501    0  0.00000000000E+00 -0.00000000000E+00 -0.94782385531E+03  0.94782385531E+03  0.25500000000E-02 0. -1.
    8880023    1    1    2    0    0  0.10963637305E+03  0.57594903336E+01 -0.74703442519E+03  0.10019600515E+04  0.65864270000E+03 0. -1.
    8880022    1    1    2    0    0 -0.10963637305E+03 -0.57594903336E+01  0.47519538517E+02  0.19417277250E+03  0.15294330000E+03 0.  0.
<mgrwt>
<rscale>  0 0.48656967E+03</rscale>
<asrwt>0</asrwt>
<pdfrwt beam="1">  1        2 0.14581905E+00 0.66773012E+03</pdfrwt>
<pdfrwt beam="2">  1       -2 0.38201380E-01 0.66773012E+03</pdfrwt>
<totfact> 0.17902255E+02</totfact>
</mgrwt>
</event>
<event>
 4    1  0.3565372E-007  0.1284025E+04  0.7818608E-02  0.9079479E-01
          2   -1    0    0  501    0  0.00000000000E+00  0.00000000000E+00  0.27750642626E+04  0.27750642626E+04  0.25500000000E-02 0. -1.
         -2   -1    0    0    0  501 -0.00000000000E+00 -0.00000000000E+00 -0.60805654628E+03  0.60805654629E+03  0.25500000000E-02 0.  1.
    8880023    1    1    2    0    0 -0.71283567418E+02  0.10999220976E+04  0.49812435028E+03  0.13772610655E+04  0.65864270000E+03 0.  0.
    8880022    1    1    2    0    0  0.71283567418E+02 -0.10999220976E+04  0.16688833661E+04  0.20058597435E+04  0.15294330000E+03 0.  0.
<mgrwt>
<rscale>  0 0.12388919E+04</rscale>
<asrwt>0</asrwt>
<pdfrwt beam="1">  1        2 0.42693297E+00 0.12840250E+04</pdfrwt>
<pdfrwt beam="2">  1       -2 0.93547160E-01 0.12840250E+04</pdfrwt>
<totfact> 0.22624794E+00</totfact>
</mgrwt>
</event>
<event>
 4    1  0.3565372E-007  0.1134975E+04  0.7818608E-02  0.9223080E-01
          2   -1    0    0  501    0  0.00000000000E+00  0.00000000000E+00  0.12406488445E+04  0.12406488445E+04  0.25500000000E-02 0. -1.
         -2   -1    0    0    0  501 -0.00000000000E+00 -0.00000000000E+00 -0.94998018443E+03  0.94998018443E+03  0.25500000000E-02 0.  1.
    8880023    1    1    2    0    0 -0.47898440271E+03 -0.79052635646E+03 -0.16826370036E+03  0.11473799970E+04  0.65864270000E+03 0.  1.
    8880022    1    1    2    0    0  0.47898440271E+03  0.79052635646E+03  0.45893236047E+03  0.10432490320E+04  0.15294330000E+03 0. -1.
<mgrwt>
<rscale>  0 0.10818350E+04</rscale>
<asrwt>0</asrwt>
<pdfrwt beam="1">  1        2 0.19086905E+00 0.11349750E+04</pdfrwt>
<pdfrwt beam="2">  1       -2 0.14615080E+00 0.11349750E+04</pdfrwt>
<totfact> 0.56269848E+00</totfact>
</mgrwt>
</event>
<event>
 4    1  0.3565372E-007  0.6624201E+03  0.7818608E-02  0.1021803E+00
         -2   -1    0    0    0  501 -0.00000000000E+00  0.00000000000E+00  0.64743086145E+03  0.64743086146E+03  0.25500000000E-02 0.  1.
          2   -1    0    0  501    0  0.00000000000E+00 -0.00000000000E+00 -0.66070381010E+03  0.66070381011E+03  0.25500000000E-02 0. -1.
    8880023    1    1    2    0    0 -0.42153721605E+02 -0.56685622271E+02 -0.47599183332E+03  0.81570131033E+03  0.65864270000E+03 0. -1.
    8880022    1    1    2    0    0  0.42153721605E+02  0.56685622271E+02  0.46271888467E+03  0.49243336124E+03  0.15294330000E+03 0.  0.
<mgrwt>
<rscale>  0 0.47041398E+03</rscale>
<asrwt>0</asrwt>
<pdfrwt beam="1">  1        2 0.10164674E+00 0.66242011E+03</pdfrwt>
<pdfrwt beam="2">  1       -2 0.99604748E-01 0.66242011E+03</pdfrwt>
<totfact> 0.37487029E+01</totfact>
</mgrwt>
</event>
<event>
 4    1  0.3565372E-007  0.6714746E+03  0.7818608E-02  0.1014627E+00
          2   -1    0    0  501    0  0.00000000000E+00  0.00000000000E+00  0.83927748779E+03  0.83927748780E+03  0.25500000000E-02 0. -1.
         -2   -1    0    0    0  501 -0.00000000000E+00 -0.00000000000E+00 -0.13454944524E+04  0.13454944524E+04  0.25500000000E-02 0.  1.
    8880023    1    1    2    0    0 -0.11884991342E+03  0.54246404451E+02  0.69526012418E+03  0.96657375345E+03  0.65864270000E+03 0. -1.
    8880022    1    1    2    0    0  0.11884991342E+03 -0.54246404451E+02 -0.12014770888E+04  0.12181981867E+04  0.15294330000E+03 0.  0.
<mgrwt>
<rscale>  0 0.49676380E+03</rscale>
<asrwt>0</asrwt>
<pdfrwt beam="1">  1        2 0.12911961E+00 0.67147463E+03</pdfrwt>
<pdfrwt beam="2">  1       -2 0.20699915E+00 0.67147463E+03</pdfrwt>
<totfact> 0.40036196E+00</totfact>
</mgrwt>
</event>
<event>
 4    1  0.3565372E-007  0.8413026E+03  0.7818608E-02  0.9627729E-01
         -2   -1    0    0    0  501 -0.00000000000E+00  0.00000000000E+00  0.21824923670E+03  0.21824923672E+03  0.25500000000E-02 0.  1.
          2   -1    0    0  501    0  0.00000000000E+00 -0.00000000000E+00 -0.32294201058E+04  0.32294201058E+04  0.25500000000E-02 0. -1.
    8880023    1    1    2    0    0 -0.51543093095E+03 -0.91163393637E+02 -0.26816511323E+04  0.28105235830E+04  0.65864270000E+03 0. -1.
    8880022    1    1    2    0    0  0.51543093095E+03  0.91163393637E+02 -0.32951973677E+03  0.63714575950E+03  0.15294330000E+03 0.  0.
<mgrwt>
<rscale>  0 0.75487766E+03</rscale>
<asrwt>0</asrwt>
<pdfrwt beam="1">  1        2 0.49683383E+00 0.84130257E+03</pdfrwt>
<pdfrwt beam="2">  1       -2 0.33576808E-01 0.84130257E+03</pdfrwt>
<totfact> 0.10832407E+01</totfact>
</mgrwt>
</event>
<event>
 4    1  0.3565372E-007  0.6668205E+03  0.7818608E-02  0.1018053E+00
          2   -1    0    0  501    0  0.00000000000E+00  0.00000000000E+00  0.11768976891E+04  0.11768976891E+04  0.25500000000E-02 0. -1.
         -2   -1    0    0    0  501 -0.00000000000E+00 -0.00000000000E+00 -0.24019249715E+03  0.24019249717E+03  0.25500000000E-02 0.  1.
    8880023    1    1    2    0    0 -0.10352716918E+03 -0.11019643624E+02  0.10164206573E+04  0.12156317148E+04  0.65864270000E+03 0. -1.
    8880022    1    1    2    0    0  0.10352716918E+03  0.11019643624E+02 -0.79715465297E+02  0.20145847147E+03  0.15294330000E+03 0.  0.
<mgrwt>
<rscale>  0 0.48395955E+03</rscale>
<asrwt>0</asrwt>
<pdfrwt beam="1">  1        2 0.18106118E+00 0.66682045E+03</pdfrwt>
<pdfrwt beam="2">  1       -2 0.36952692E-01 0.66682045E+03</pdfrwt>
<totfact> 0.13762417E+02</totfact>
</mgrwt>
</event>
<event>
 4    1  0.3565372E-007  0.7395959E+03  0.7818608E-02  0.9861126E-01
          2   -1    0    0  501    0  0.00000000000E+00  0.00000000000E+00  0.65106455904E+03  0.65106455904E+03  0.25500000000E-02 0. -1.
         -2   -1    0    0    0  501 -0.00000000000E+00 -0.00000000000E+00 -0.53309904769E+03  0.53309904770E+03  0.25500000000E-02 0.  1.
    8880023    1    1    2    0    0  0.31531496275E+03 -0.11733835851E+03  0.26609866708E+03  0.78600923849E+03  0.65864270000E+03 0. -1.
    8880022    1    1    2    0    0 -0.31531496275E+03  0.11733835851E+03 -0.14813315574E+03  0.39815436825E+03  0.15294330000E+03 0.  0.
<mgrwt>
<rscale>  0 0.62182849E+03</rscale>
<asrwt>0</asrwt>
<pdfrwt beam="1">  1        2 0.10016378E+00 0.73959585E+03</pdfrwt>
<pdfrwt beam="2">  1       -2 0.82015238E-01 0.73959585E+03</pdfrwt>
<totfact> 0.59410153E+01</totfact>
</mgrwt>
</event>
<event>
 4    1  0.3565372E-007  0.7283139E+03  0.7818608E-02  0.9895397E-01
          2   -1    0    0  501    0  0.00000000000E+00  0.00000000000E+00  0.76876382594E+03  0.76876382595E+03  0.25500000000E-02 0. -1.
         -2   -1    0    0    0  501 -0.00000000000E+00 -0.00000000000E+00 -0.40634223985E+03  0.40634223986E+03  0.25500000000E-02 0.  1.
    8880023    1    1    2    0    0  0.24897833332E+03  0.18612027485E+03  0.39252923275E+03  0.82735746325E+03  0.65864270000E+03 0. -1.
    8880022    1    1    2    0    0 -0.24897833332E+03 -0.18612027485E+03 -0.30107646658E+02  0.34774860255E+03  0.15294330000E+03 0.  0.
<mgrwt>
<rscale>  0 0.60484883E+03</rscale>
<asrwt>0</asrwt>
<pdfrwt beam="1">  1        2 0.11827135E+00 0.72831393E+03</pdfrwt>
<pdfrwt beam="2">  1       -2 0.62514192E-01 0.72831393E+03</pdfrwt>
<totfact> 0.87387239E+01</totfact>
</mgrwt>
</event>
<event>
 4    1  0.3565372E-007  0.6703582E+03  0.7818608E-02  0.1015407E+00
          2   -1    0    0  501    0  0.00000000000E+00  0.00000000000E+00  0.40852653373E+03  0.40852653374E+03  0.25500000000E-02 0. -1.
         -2   -1    0    0    0  501 -0.00000000000E+00 -0.00000000000E+00 -0.70783004202E+03  0.70783004202E+03  0.25500000000E-02 0.  1.
    8880023    1    1    2    0    0  0.40001659642E+02  0.11819395733E+03  0.93403100117E+02  0.67683401931E+03  0.65864270000E+03 0. -1.
    8880022    1    1    2    0    0 -0.40001659642E+02 -0.11819395733E+03 -0.39270660841E+03  0.43952255645E+03  0.15294330000E+03 0.  0.
<mgrwt>
<rscale>  0 0.49380991E+03</rscale>
<asrwt>0</asrwt>
<pdfrwt beam="1">  1        2 0.62850236E-01 0.67035823E+03</pdfrwt>
<pdfrwt beam="2">  1       -2 0.10889693E+00 0.67035823E+03</pdfrwt>
<totfact> 0.53133544E+01</totfact>
</mgrwt>
</event>
<event>
 4    1  0.3565372E-007  0.7341370E+03  0.7818608E-02  0.9877367E-01
          2   -1    0    0  501    0  0.00000000000E+00  0.00000000000E+00  0.58639160347E+03  0.58639160348E+03  0.25500000000E-02 0. -1.
         -2   -1    0    0    0  501 -0.00000000000E+00 -0.00000000000E+00 -0.81439372097E+03  0.81439372098E+03  0.25500000000E-02 0.  1.
    8880023    1    1    2    0    0  0.15325134963E+03 -0.28576380327E+03  0.27425746837E+03  0.78369272846E+03  0.65864270000E+03 0. -1.
    8880022    1    1    2    0    0 -0.15325134963E+03  0.28576380327E+03 -0.50225958587E+03  0.61709259600E+03  0.15294330000E+03 0.  0.
<mgrwt>
<rscale>  0 0.61370834E+03</rscale>
<asrwt>0</asrwt>
<pdfrwt beam="1">  1        2 0.90214093E-01 0.73413700E+03</pdfrwt>
<pdfrwt beam="2">  1       -2 0.12529134E+00 0.73413700E+03</pdfrwt>
<totfact> 0.24656321E+01</totfact>
</mgrwt>
</event>
<event>
 4    1  0.3565372E-007  0.6951693E+03  0.7818608E-02  0.1001786E+00
         -2   -1    0    0    0  501 -0.00000000000E+00  0.00000000000E+00  0.57825692161E+03  0.57825692161E+03  0.25500000000E-02 0.  1.
          2   -1    0    0  501    0  0.00000000000E+00 -0.00000000000E+00 -0.59676256675E+03  0.59676256675E+03  0.25500000000E-02 0. -1.
    8880023    1    1    2    0    0  0.86112441512E+02  0.20502404714E+03 -0.32435474977E+03  0.76711565129E+03  0.65864270000E+03 0. -1.
    8880022    1    1    2    0    0 -0.86112441512E+02 -0.20502404714E+03  0.30584910463E+03  0.40790383708E+03  0.15294330000E+03 0.  0.
<mgrwt>
<rscale>  0 0.54873870E+03</rscale>
<asrwt>0</asrwt>
<pdfrwt beam="1">  1        2 0.91809626E-01 0.69516935E+03</pdfrwt>
<pdfrwt beam="2">  1       -2 0.88962603E-01 0.69516935E+03</pdfrwt>
<totfact> 0.55064114E+01</totfact>
</mgrwt>
</event>
<event>
 4    1  0.3565372E-007  0.1264240E+04  0.7818608E-02  0.9097073E-01
          2   -1    0    0  501    0  0.00000000000E+00  0.00000000000E+00  0.34560024347E+04  0.34560024347E+04  0.25500000000E-02 0. -1.
         -2   -1    0    0    0  501 -0.00000000000E+00 -0.00000000000E+00 -0.59145638491E+03  0.59145638491E+03  0.25500000000E-02 0.  1.
    8880023    1    1    2    0    0  0.10255290467E+04 -0.33583111193E+03  0.26507350008E+04  0.29367837190E+04  0.65864270000E+03 0.  0.
    8880022    1    1    2    0    0 -0.10255290467E+04  0.33583111193E+03  0.21381104897E+03  0.11106751006E+04  0.15294330000E+03 0.  0.
<mgrwt>
<rscale>  0 0.12182008E+04</rscale>
<asrwt>0</asrwt>
<pdfrwt beam="1">  1        2 0.53169266E+00 0.12642399E+04</pdfrwt>
<pdfrwt beam="2">  1       -2 0.90993294E-01 0.12642399E+04</pdfrwt>
<totfact> 0.89149509E-01</totfact>
</mgrwt>
</event>
<event>
 4    1  0.3565372E-007  0.6716907E+03  0.7818608E-02  0.1014479E+00
          2   -1    0    0  501    0  0.00000000000E+00  0.00000000000E+00  0.10450101593E+04  0.10450101593E+04  0.25500000000E-02 0. -1.
         -2   -1    0    0    0  501 -0.00000000000E+00 -0.00000000000E+00 -0.38659764333E+03  0.38659764333E+03  0.25500000000E-02 0.  1.
    8880023    1    1    2    0    0  0.12484702020E+03  0.42087386862E+02  0.89601798719E+03  0.11198288111E+04  0.65864270000E+03 0. -1.
    8880022    1    1    2    0    0 -0.12484702020E+03 -0.42087386862E+02 -0.23760547122E+03  0.31177899152E+03  0.15294330000E+03 0.  0.
<mgrwt>
<rscale>  0 0.49732769E+03</rscale>
<asrwt>0</asrwt>
<pdfrwt beam="1">  1        2 0.16077079E+00 0.67169065E+03</pdfrwt>
<pdfrwt beam="2">  1       -2 0.59476562E-01 0.67169065E+03</pdfrwt>
<totfact> 0.63608901E+01</totfact>
</mgrwt>
</event>
<event>
 4    1  0.3565372E-007  0.1384816E+04  0.7818608E-02  0.8995572E-01
          2   -1    0    0  501    0  0.00000000000E+00  0.00000000000E+00  0.17886695984E+04  0.17886695984E+04  0.25500000000E-02 0. -1.
         -2   -1    0    0    0  501 -0.00000000000E+00 -0.00000000000E+00 -0.98745957257E+03  0.98745957257E+03  0.25500000000E-02 0.  1.
    8880023    1    1    2    0    0  0.99556149226E+03  0.70196968457E+03  0.16869404265E+03  0.13950526905E+04  0.65864270000E+03 0.  0.
    8880022    1    1    2    0    0 -0.99556149226E+03 -0.70196968457E+03  0.63251598314E+03  0.13810764805E+04  0.15294330000E+03 0.  0.
<mgrwt>
<rscale>  0 0.13437509E+04</rscale>
<asrwt>0</asrwt>
<pdfrwt beam="1">  1        2 0.27517994E+00 0.13848156E+04</pdfrwt>
<pdfrwt beam="2">  1       -2 0.15191686E+00 0.13848156E+04</pdfrwt>
<totfact> 0.24212307E+00</totfact>
</mgrwt>
</event>
<event>
 4    1  0.3565372E-007  0.6946334E+03  0.7818608E-02  0.1002024E+00
          2   -1    0    0  501    0  0.00000000000E+00  0.00000000000E+00  0.18931581826E+04  0.18931581826E+04  0.25500000000E-02 0. -1.
         -2   -1    0    0    0  501 -0.00000000000E+00 -0.00000000000E+00 -0.22664284962E+03  0.22664284964E+03  0.25500000000E-02 0.  1.
    8880023    1    1    2    0    0  0.10862597955E+03 -0.19210867196E+03  0.17119194591E+04  0.18474803886E+04  0.65864270000E+03 0. -1.
    8880022    1    1    2    0    0 -0.10862597955E+03  0.19210867196E+03 -0.45404126176E+02  0.27232064366E+03  0.15294330000E+03 0.  0.
<mgrwt>
<rscale>  0 0.54771721E+03</rscale>
<asrwt>0</asrwt>
<pdfrwt beam="1">  1        2 0.29125511E+00 0.69463339E+03</pdfrwt>
<pdfrwt beam="2">  1       -2 0.34868130E-01 0.69463339E+03</pdfrwt>
<totfact> 0.61090212E+01</totfact>
</mgrwt>
</event>
<event>
 4    1  0.3565372E-007  0.1150570E+04  0.7818608E-02  0.9206737E-01
         -2   -1    0    0    0  501 -0.00000000000E+00  0.00000000000E+00  0.11146814769E+04  0.11146814769E+04  0.25500000000E-02 0.  1.
          2   -1    0    0  501    0  0.00000000000E+00 -0.00000000000E+00 -0.21106640949E+04  0.21106640949E+04  0.25500000000E-02 0. -1.
    8880023    1    1    2    0    0 -0.39140000277E+03  0.85837416055E+03 -0.16898157840E+04  0.20443306366E+04  0.65864270000E+03 0. -1.
    8880022    1    1    2    0    0  0.39140000277E+03 -0.85837416055E+03  0.69383316607E+03  0.11810149351E+04  0.15294330000E+03 0.  0.
<mgrwt>
<rscale>  0 0.10984159E+04</rscale>
<asrwt>0</asrwt>
<pdfrwt beam="1">  1        2 0.32471755E+00 0.11505696E+04</pdfrwt>
<pdfrwt beam="2">  1       -2 0.17148946E+00 0.11505696E+04</pdfrwt>
<totfact> 0.11799491E+00</totfact>
</mgrwt>
</event>
<event>
 4    1  0.3565372E-007  0.9281713E+03  0.7818608E-02  0.9482242E-01
          2   -1    0    0  501    0  0.00000000000E+00  0.00000000000E+00  0.29592296495E+04  0.29592296495E+04  0.25500000000E-02 0. -1.
         -2   -1    0    0    0  501 -0.00000000000E+00 -0.00000000000E+00 -0.26378811932E+03  0.26378811933E+03  0.25500000000E-02 0.  1.
    8880023    1    1    2    0    0 -0.26948862585E+03  0.59587554220E+03  0.22019564786E+04  0.23895845499E+04  0.65864270000E+03 0.  0.
    8880022    1    1    2    0    0  0.26948862585E+03 -0.59587554220E+03  0.49348505156E+03  0.83343321890E+03  0.15294330000E+03 0.  0.
<mgrwt>
<rscale>  0 0.85605805E+03</rscale>
<asrwt>0</asrwt>
<pdfrwt beam="1">  1        2 0.45526609E+00 0.92817131E+03</pdfrwt>
<pdfrwt beam="2">  1       -2 0.40582789E-01 0.92817131E+03</pdfrwt>
<totfact> 0.10954373E+01</totfact>
</mgrwt>
</event>
<event>
 4    1  0.3565372E-007  0.8372520E+03  0.7818608E-02  0.9635384E-01
         -2   -1    0    0    0  501 -0.00000000000E+00  0.00000000000E+00  0.91292678840E+03  0.91292678841E+03  0.25500000000E-02 0.  1.
          2   -1    0    0  501    0  0.00000000000E+00 -0.00000000000E+00 -0.62439300534E+03  0.62439300535E+03  0.25500000000E-02 0. -1.
    8880023    1    1    2    0    0  0.27598298334E+03  0.43705157703E+03 -0.13976097632E+03  0.84883686586E+03  0.65864270000E+03 0. -1.
    8880022    1    1    2    0    0 -0.27598298334E+03 -0.43705157703E+03  0.42829475938E+03  0.68848292790E+03  0.15294330000E+03 0.  0.
<mgrwt>
<rscale>  0 0.74997869E+03</rscale>
<asrwt>0</asrwt>
<pdfrwt beam="1">  1        2 0.96060463E-01 0.83725199E+03</pdfrwt>
<pdfrwt beam="2">  1       -2 0.14045027E+00 0.83725199E+03</pdfrwt>
<totfact> 0.16930247E+01</totfact>
</mgrwt>
</event>
<event>
 4    1  0.3565372E-007  0.8205800E+03  0.7818608E-02  0.9667947E-01
          2   -1    0    0  501    0  0.00000000000E+00  0.00000000000E+00  0.12434405369E+04  0.12434405369E+04  0.25500000000E-02 0. -1.
         -2   -1    0    0    0  501 -0.00000000000E+00 -0.00000000000E+00 -0.61427102241E+03  0.61427102241E+03  0.25500000000E-02 0.  1.
    8880023    1    1    2    0    0 -0.39841894405E+03 -0.28425975888E+03  0.94806680706E+03  0.12538668759E+04  0.65864270000E+03 0.  0.
    8880022    1    1    2    0    0  0.39841894405E+03  0.28425975888E+03 -0.31889729258E+03  0.60384468344E+03  0.15294330000E+03 0.  0.
<mgrwt>
<rscale>  0 0.72957728E+03</rscale>
<asrwt>0</asrwt>
<pdfrwt beam="1">  1        2 0.19129854E+00 0.82057996E+03</pdfrwt>
<pdfrwt beam="2">  1       -2 0.94503235E-01 0.82057996E+03</pdfrwt>
<totfact> 0.17038850E+01</totfact>
</mgrwt>
</event>
<event>
 4    1  0.3565372E-007  0.6596166E+03  0.7818608E-02  0.1024553E+00
          2   -1    0    0  501    0  0.00000000000E+00  0.00000000000E+00  0.10470251240E+04  0.10470251240E+04  0.25500000000E-02 0. -1.
         -2   -1    0    0    0  501 -0.00000000000E+00 -0.00000000000E+00 -0.33653810540E+03  0.33653810541E+03  0.25500000000E-02 0.  1.
    8880023    1    1    2    0    0  0.34700465284E+02 -0.89323687080E+01  0.91357385042E+03  0.11268146680E+04  0.65864270000E+03 0. -1.
    8880022    1    1    2    0    0 -0.34700465284E+02  0.89323687080E+01 -0.20308683185E+03  0.25674856142E+03  0.15294330000E+03 0.  0.
<mgrwt>
<rscale>  0 0.46078898E+03</rscale>
<asrwt>0</asrwt>
<pdfrwt beam="1">  1        2 0.16108079E+00 0.65961664E+03</pdfrwt>
<pdfrwt beam="2">  1       -2 0.51775093E-01 0.65961664E+03</pdfrwt>
<totfact> 0.84668359E+01</totfact>
</mgrwt>
</event>
<event>
 4    1  0.3565372E-007  0.1040339E+04  0.7818608E-02  0.9330587E-01
         -2   -1    0    0    0  501 -0.00000000000E+00  0.00000000000E+00  0.12128571065E+04  0.12128571065E+04  0.25500000000E-02 0.  1.
          2   -1    0    0  501    0  0.00000000000E+00 -0.00000000000E+00 -0.15286935547E+04  0.15286935547E+04  0.25500000000E-02 0. -1.
    8880023    1    1    2    0    0 -0.54149785699E+03 -0.59604914514E+03 -0.11645986473E+04  0.15616000538E+04  0.65864270000E+03 0. -1.
    8880022    1    1    2    0    0  0.54149785699E+03  0.59604914514E+03  0.84876219902E+03  0.11799506075E+04  0.15294330000E+03 0.  0.
<mgrwt>
<rscale>  0 0.98015113E+03</rscale>
<asrwt>0</asrwt>
<pdfrwt beam="1">  1        2 0.23518362E+00 0.10403388E+04</pdfrwt>
<pdfrwt beam="2">  1       -2 0.18659340E+00 0.10403388E+04</pdfrwt>
<totfact> 0.19747687E+00</totfact>
</mgrwt>
</event>
<event>
 4    1  0.3565372E-007  0.7821272E+03  0.7818608E-02  0.9750864E-01
         -2   -1    0    0    0  501 -0.00000000000E+00  0.00000000000E+00  0.44898690539E+03  0.44898690539E+03  0.25500000000E-02 0.  1.
          2   -1    0    0  501    0  0.00000000000E+00 -0.00000000000E+00 -0.22216221619E+04  0.22216221619E+04  0.25500000000E-02 0. -1.
    8880023    1    1    2    0    0 -0.37540574626E+03  0.19231046819E+03 -0.20144271294E+04  0.21609349034E+04  0.65864270000E+03 0.  0.
    8880022    1    1    2    0    0  0.37540574626E+03 -0.19231046819E+03  0.24179187296E+03  0.50967416390E+03  0.15294330000E+03 0.  0.
<mgrwt>
<rscale>  0 0.68067488E+03</rscale>
<asrwt>0</asrwt>
<pdfrwt beam="1">  1        2 0.34178802E+00 0.78212723E+03</pdfrwt>
<pdfrwt beam="2">  1       -2 0.69074909E-01 0.78212723E+03</pdfrwt>
<totfact> 0.99530100E+00</totfact>
</mgrwt>
</event>
<event>
 4    1  0.3565372E-007  0.7536711E+03  0.7818608E-02  0.9821777E-01
         -2   -1    0    0    0  501 -0.00000000000E+00  0.00000000000E+00  0.49514886172E+03  0.49514886172E+03  0.25500000000E-02 0.  1.
          2   -1    0    0  501    0  0.00000000000E+00 -0.00000000000E+00 -0.13402098008E+04  0.13402098008E+04  0.25500000000E-02 0. -1.
    8880023    1    1    2    0    0 -0.18155928530E+03 -0.31819211063E+03 -0.11217762031E+04  0.13514444308E+04  0.65864270000E+03 0. -1.
    8880022    1    1    2    0    0  0.18155928530E+03  0.31819211063E+03  0.27671526402E+03  0.48391423176E+03  0.15294330000E+03 0.  0.
<mgrwt>
<rscale>  0 0.64206872E+03</rscale>
<asrwt>0</asrwt>
<pdfrwt beam="1">  1        2 0.20618612E+00 0.75367115E+03</pdfrwt>
<pdfrwt beam="2">  1       -2 0.76176749E-01 0.75367115E+03</pdfrwt>
<totfact> 0.24660243E+01</totfact>
</mgrwt>
</event>
<event>
 4    1  0.3565372E-007  0.7742857E+03  0.7818608E-02  0.9769435E-01
         -2   -1    0    0    0  501 -0.00000000000E+00  0.00000000000E+00  0.89348644527E+03  0.89348644527E+03  0.25500000000E-02 0.  1.
          2   -1    0    0  501    0  0.00000000000E+00 -0.00000000000E+00 -0.58695645424E+03  0.58695645425E+03  0.25500000000E-02 0. -1.
    8880023    1    1    2    0    0  0.31670781232E+03 -0.25574250495E+03 -0.21289395100E+03  0.80302061484E+03  0.65864270000E+03 0. -1.
    8880022    1    1    2    0    0 -0.31670781232E+03  0.25574250495E+03  0.51942394202E+03  0.67742228468E+03  0.15294330000E+03 0.  0.
<mgrwt>
<rscale>  0 0.67028927E+03</rscale>
<asrwt>0</asrwt>
<pdfrwt beam="1">  1        2 0.90300993E-01 0.77428565E+03</pdfrwt>
<pdfrwt beam="2">  1       -2 0.13745945E+00 0.77428565E+03</pdfrwt>
<totfact> 0.19400410E+01</totfact>
</mgrwt>
</event>
<event>
 4    1  0.3565372E-007  0.8901892E+03  0.7818608E-02  0.9541968E-01
          2   -1    0    0  501    0  0.00000000000E+00  0.00000000000E+00  0.33888857950E+04  0.33888857950E+04  0.25500000000E-02 0. -1.
         -2   -1    0    0    0  501 -0.00000000000E+00 -0.00000000000E+00 -0.47494704699E+03  0.47494704700E+03  0.25500000000E-02 0.  1.
    8880023    1    1    2    0    0 -0.57387169426E+03 -0.17116618100E+03  0.30944416475E+04  0.32199388036E+04  0.65864270000E+03 0. -1.
    8880022    1    1    2    0    0  0.57387169426E+03  0.17116618100E+03 -0.18050289946E+03  0.64389403842E+03  0.15294330000E+03 0.  0.
<mgrwt>
<rscale>  0 0.81259145E+03</rscale>
<asrwt>0</asrwt>
<pdfrwt beam="1">  1        2 0.52136706E+00 0.89018919E+03</pdfrwt>
<pdfrwt beam="2">  1       -2 0.73068774E-01 0.89018919E+03</pdfrwt>
<totfact> 0.17273049E+00</totfact>
</mgrwt>
</event>
<event>
 4    1  0.3565372E-007  0.7874947E+03  0.7818608E-02  0.9738517E-01
          2   -1    0    0  501    0  0.00000000000E+00  0.00000000000E+00  0.69075295247E+03  0.69075295247E+03  0.25500000000E-02 0. -1.
         -2   -1    0    0    0  501 -0.00000000000E+00 -0.00000000000E+00 -0.65062685675E+03  0.65062685675E+03  0.25500000000E-02 0.  1.
    8880023    1    1    2    0    0  0.38613592266E+03  0.19296821664E+03  0.26539370391E+03  0.83101245944E+03  0.65864270000E+03 0. -1.
    8880022    1    1    2    0    0 -0.38613592266E+03 -0.19296821664E+03 -0.22526760819E+03  0.51036734978E+03  0.15294330000E+03 0.  0.
<mgrwt>
<rscale>  0 0.68769066E+03</rscale>
<asrwt>0</asrwt>
<pdfrwt beam="1">  1        2 0.10626969E+00 0.78749469E+03</pdfrwt>
<pdfrwt beam="2">  1       -2 0.10009644E+00 0.78749469E+03</pdfrwt>
<totfact> 0.34689283E+01</totfact>
</mgrwt>
</event>
<event>
 4    1  0.3565372E-007  0.6852087E+03  0.7818608E-02  0.1006518E+00
         -2   -1    0    0    0  501 -0.00000000000E+00  0.00000000000E+00  0.23211220274E+03  0.23211220275E+03  0.25500000000E-02 0.  1.
          2   -1    0    0  501    0  0.00000000000E+00 -0.00000000000E+00 -0.11265913579E+04  0.11265913579E+04  0.25500000000E-02 0. -1.
    8880023    1    1    2    0    0 -0.10299863712E+03  0.15840475314E+03 -0.87982966103E+03  0.11151731811E+04  0.65864270000E+03 0. -1.
    8880022    1    1    2    0    0  0.10299863712E+03 -0.15840475314E+03 -0.14649494085E+02  0.24353037954E+03  0.15294330000E+03 0.  0.
<mgrwt>
<rscale>  0 0.52882095E+03</rscale>
<asrwt>0</asrwt>
<pdfrwt beam="1">  1        2 0.17332174E+00 0.68520872E+03</pdfrwt>
<pdfrwt beam="2">  1       -2 0.35709570E-01 0.68520872E+03</pdfrwt>
<totfact> 0.15726347E+02</totfact>
</mgrwt>
</event>
<event>
 4    1  0.3565372E-007  0.1223530E+04  0.7818608E-02  0.9134582E-01
         -2   -1    0    0    0  501 -0.00000000000E+00  0.00000000000E+00  0.89623583164E+03  0.89623583164E+03  0.25500000000E-02 0.  1.
          2   -1    0    0  501    0  0.00000000000E+00 -0.00000000000E+00 -0.16797803201E+04  0.16797803201E+04  0.25500000000E-02 0. -1.
    8880023    1    1    2    0    0 -0.79513837407E+02 -0.10280530037E+04  0.74631335927E+02  0.12258040101E+04  0.65864270000E+03 0.  0.
    8880022    1    1    2    0    0  0.79513837407E+02  0.10280530037E+04 -0.85817582434E+03  0.13502121416E+04  0.15294330000E+03 0.  0.
<mgrwt>
<rscale>  0 0.11754930E+04</rscale>
<asrwt>0</asrwt>
<pdfrwt beam="1">  1        2 0.25842774E+00 0.12235300E+04</pdfrwt>
<pdfrwt beam="2">  1       -2 0.13788244E+00 0.12235300E+04</pdfrwt>
<totfact> 0.36512369E+00</totfact>
</mgrwt>
</event>
<event>
 4    1  0.3565372E-007  0.1753627E+04  0.7818608E-02  0.8748632E-01
          2   -1    0    0  501    0  0.00000000000E+00  0.00000000000E+00  0.19507275112E+04  0.19507275112E+04  0.25500000000E-02 0. -1.
         -2   -1    0    0    0  501 -0.00000000000E+00 -0.00000000000E+00 -0.16110332920E+04  0.16110332920E+04  0.25500000000E-02 0.  1.
    8880023    1    1    2    0    0  0.12839190496E+04  0.99646801381E+03 -0.35240793913E+03  0.17886861632E+04  0.65864270000E+03 0.  0.
    8880022    1    1    2    0    0 -0.12839190496E+04 -0.99646801381E+03  0.69210215833E+03  0.17730746400E+04  0.15294330000E+03 0.  0.
<mgrwt>
<rscale>  0 0.17225059E+04</rscale>
<asrwt>0</asrwt>
<pdfrwt beam="1">  1        2 0.30011193E+00 0.17536268E+04</pdfrwt>
<pdfrwt beam="2">  1       -2 0.24785128E+00 0.17536268E+04</pdfrwt>
<totfact> 0.43110842E-01</totfact>
</mgrwt>
</event>
<event>
 4    1  0.3565372E-007  0.6742647E+03  0.7818608E-02  0.1012774E+00
          2   -1    0    0  501    0  0.00000000000E+00  0.00000000000E+00  0.99418843412E+03  0.99418843412E+03  0.25500000000E-02 0. -1.
         -2   -1    0    0    0  501 -0.00000000000E+00 -0.00000000000E+00 -0.19776971740E+03  0.19776971741E+03  0.25500000000E-02 0.  1.
    8880023    1    1    2    0    0  0.94081918009E+02  0.10941313369E+03  0.64257711782E+03  0.93141730697E+03  0.65864270000E+03 0. -1.
    8880022    1    1    2    0    0 -0.94081918009E+02 -0.10941313369E+03  0.15384159891E+03  0.26054084457E+03  0.15294330000E+03 0.  1.
<mgrwt>
<rscale>  0 0.50386958E+03</rscale>
<asrwt>0</asrwt>
<pdfrwt beam="1">  1        2 0.15295207E+00 0.67426467E+03</pdfrwt>
<pdfrwt beam="2">  1       -2 0.30426110E-01 0.67426467E+03</pdfrwt>
<totfact> 0.25698755E+02</totfact>
</mgrwt>
</event>
<event>
 4    1  0.3565372E-007  0.9665734E+03  0.7818608E-02  0.9426659E-01
          2   -1    0    0  501    0  0.00000000000E+00  0.00000000000E+00  0.16739430420E+04  0.16739430420E+04  0.25500000000E-02 0. -1.
         -2   -1    0    0    0  501 -0.00000000000E+00 -0.00000000000E+00 -0.56850879557E+03  0.56850879558E+03  0.25500000000E-02 0.  1.
    8880023    1    1    2    0    0 -0.29991926431E+03 -0.64070451626E+03  0.11678883826E+04  0.15159905418E+04  0.65864270000E+03 0.  0.
    8880022    1    1    2    0    0  0.29991926431E+03  0.64070451626E+03 -0.62454136119E+02  0.72646129586E+03  0.15294330000E+03 0.  0.
<mgrwt>
<rscale>  0 0.89913834E+03</rscale>
<asrwt>0</asrwt>
<pdfrwt beam="1">  1        2 0.25752970E+00 0.96657335E+03</pdfrwt>
<pdfrwt beam="2">  1       -2 0.87462893E-01 0.96657335E+03</pdfrwt>
<totfact> 0.11461155E+01</totfact>
</mgrwt>
</event>
<event>
 4    1  0.3565372E-007  0.6948001E+03  0.7818608E-02  0.1001950E+00
         -2   -1    0    0    0  501 -0.00000000000E+00  0.00000000000E+00  0.16973150455E+03  0.16973150457E+03  0.25500000000E-02 0.  1.
          2   -1    0    0  501    0  0.00000000000E+00 -0.00000000000E+00 -0.42551578144E+04  0.42551578144E+04  0.25500000000E-02 0. -1.
    8880023    1    1    2    0    0 -0.77631171906E+02 -0.20714826147E+03 -0.40971976347E+04  0.41556919598E+04  0.65864270000E+03 0. -1.
    8880022    1    1    2    0    0  0.77631171906E+02  0.20714826147E+03  0.11771324803E+02  0.26919735917E+03  0.15294330000E+03 0.  0.
<mgrwt>
<rscale>  0 0.54803553E+03</rscale>
<asrwt>0</asrwt>
<pdfrwt beam="1">  1        2 0.65463958E+00 0.69480012E+03</pdfrwt>
<pdfrwt beam="2">  1       -2 0.26112542E-01 0.69480012E+03</pdfrwt>
<totfact> 0.31248215E+00</totfact>
</mgrwt>
</event>
<event>
 4    1  0.3565372E-007  0.6743623E+03  0.7818608E-02  0.1012711E+00
          2   -1    0    0  501    0  0.00000000000E+00  0.00000000000E+00  0.19920727863E+04  0.19920727863E+04  0.25500000000E-02 0. -1.
         -2   -1    0    0    0  501 -0.00000000000E+00 -0.00000000000E+00 -0.35916691493E+03  0.35916691493E+03  0.25500000000E-02 0.  1.
    8880023    1    1    2    0    0  0.13074026980E+03 -0.62139104690E+02  0.18970962745E+04  0.20133898697E+04  0.65864270000E+03 0. -1.
    8880022    1    1    2    0    0 -0.13074026980E+03  0.62139104690E+02 -0.26419040318E+03  0.33784983147E+03  0.15294330000E+03 0.  0.
<mgrwt>
<rscale>  0 0.50411160E+03</rscale>
<asrwt>0</asrwt>
<pdfrwt beam="1">  1        2 0.30647274E+00 0.67436229E+03</pdfrwt>
<pdfrwt beam="2">  1       -2 0.55256448E-01 0.67436229E+03</pdfrwt>
<totfact> 0.21716613E+01</totfact>
</mgrwt>
</event>
<event>
 4    1  0.3565372E-007  0.8172323E+03  0.7818608E-02  0.9674705E-01
         -2   -1    0    0    0  501 -0.00000000000E+00  0.00000000000E+00  0.33787599767E+03  0.33787599768E+03  0.25500000000E-02 0.  1.
          2   -1    0    0  501    0  0.00000000000E+00 -0.00000000000E+00 -0.16518480257E+04  0.16518480257E+04  0.25500000000E-02 0. -1.
    8880023    1    1    2    0    0  0.29189386513E+01 -0.48378698477E+03 -0.12280294964E+04  0.14751016972E+04  0.65864270000E+03 0. -1.
    8880022    1    1    2    0    0 -0.29189386513E+01  0.48378698477E+03 -0.85942531647E+02  0.51462232617E+03  0.15294330000E+03 0.  0.
<mgrwt>
<rscale>  0 0.72543039E+03</rscale>
<asrwt>0</asrwt>
<pdfrwt beam="1">  1        2 0.25413046E+00 0.81723226E+03</pdfrwt>
<pdfrwt beam="2">  1       -2 0.51980924E-01 0.81723226E+03</pdfrwt>
<totfact> 0.37096463E+01</totfact>
</mgrwt>
</event>
<event>
 4    1  0.3565372E-007  0.7180337E+03  0.7818608E-02  0.9929296E-01
         -2   -1    0    0    0  501 -0.00000000000E+00  0.00000000000E+00  0.62993792232E+03  0.62993792232E+03  0.25500000000E-02 0.  1.
          2   -1    0    0  501    0  0.00000000000E+00 -0.00000000000E+00 -0.93362571941E+03  0.93362571941E+03  0.25500000000E-02 0. -1.
    8880023    1    1    2    0    0  0.54369970028E+02  0.28072432610E+03 -0.73264006696E+03  0.10258332783E+04  0.65864270000E+03 0.  0.
    8880022    1    1    2    0    0 -0.54369970028E+02 -0.28072432610E+03  0.42895226987E+03  0.53773036342E+03  0.15294330000E+03 0.  0.
<mgrwt>
<rscale>  0 0.58862243E+03</rscale>
<asrwt>0</asrwt>
<pdfrwt beam="1">  1        2 0.14363473E+00 0.71803374E+03</pdfrwt>
<pdfrwt beam="2">  1       -2 0.96913527E-01 0.71803374E+03</pdfrwt>
<totfact> 0.25224370E+01</totfact>
</mgrwt>
</event>
<event>
 4    1  0.3565372E-007  0.8852526E+03  0.7818608E-02  0.9550133E-01
          2   -1    0    0  501    0  0.00000000000E+00  0.00000000000E+00  0.25678741115E+04  0.25678741115E+04  0.25500000000E-02 0. -1.
         -2   -1    0    0    0  501 -0.00000000000E+00 -0.00000000000E+00 -0.51105728687E+03  0.51105728688E+03  0.25500000000E-02 0.  1.
    8880023    1    1    2    0    0  0.29345070636E+03  0.51356457476E+03  0.22663069714E+04  0.24330678956E+04  0.65864270000E+03 0. -1.
    8880022    1    1    2    0    0 -0.29345070636E+03 -0.51356457476E+03 -0.20949014687E+03  0.64586350273E+03  0.15294330000E+03 0.  0.
<mgrwt>
<rscale>  0 0.80686502E+03</rscale>
<asrwt>0</asrwt>
<pdfrwt beam="1">  1        2 0.39505755E+00 0.88525256E+03</pdfrwt>
<pdfrwt beam="2">  1       -2 0.78624198E-01 0.88525256E+03</pdfrwt>
<totfact> 0.46977471E+00</totfact>
</mgrwt>
</event>
<event>
 4    1  0.3565372E-007  0.7233922E+03  0.7818608E-02  0.9911271E-01
         -2   -1    0    0    0  501 -0.00000000000E+00  0.00000000000E+00  0.12048962073E+04  0.12048962073E+04  0.25500000000E-02 0.  1.
          2   -1    0    0  501    0  0.00000000000E+00 -0.00000000000E+00 -0.11432560282E+04  0.11432560282E+04  0.25500000000E-02 0. -1.
    8880023    1    1    2    0    0  0.27231160309E+03 -0.12382452733E+03 -0.10002264975E+04  0.12344024365E+04  0.65864270000E+03 0. -1.
    8880022    1    1    2    0    0 -0.27231160309E+03  0.12382452733E+03  0.10618666766E+04  0.11137497989E+04  0.15294330000E+03 0.  0.
<mgrwt>
<rscale>  0 0.59718163E+03</rscale>
<asrwt>0</asrwt>
<pdfrwt beam="1">  1        2 0.17588554E+00 0.72339224E+03</pdfrwt>
<pdfrwt beam="2">  1       -2 0.18536865E+00 0.72339224E+03</pdfrwt>
<totfact> 0.35105437E+00</totfact>
</mgrwt>
</event>
<event>
 4    1  0.3565372E-007  0.7084702E+03  0.7818608E-02  0.9963726E-01
         -2   -1    0    0    0  501 -0.00000000000E+00  0.00000000000E+00  0.16286037892E+03  0.16286037894E+03  0.25500000000E-02 0.  1.
          2   -1    0    0  501    0  0.00000000000E+00 -0.00000000000E+00 -0.32850499485E+04  0.32850499485E+04  0.25500000000E-02 0. -1.
    8880023    1    1    2    0    0 -0.21674422020E+03 -0.14540197700E+03 -0.30575702114E+04  0.31385770018E+04  0.65864270000E+03 0.  0.
    8880022    1    1    2    0    0  0.21674422020E+03  0.14540197700E+03 -0.64619358141E+02  0.30933332566E+03  0.15294330000E+03 0.  0.
<mgrwt>
<rscale>  0 0.57269792E+03</rscale>
<asrwt>0</asrwt>
<pdfrwt beam="1">  1        2 0.50539225E+00 0.70847018E+03</pdfrwt>
<pdfrwt beam="2">  1       -2 0.25055445E-01 0.70847018E+03</pdfrwt>
<totfact> 0.17527880E+01</totfact>
</mgrwt>
</event>
<event>
 4    1  0.3565372E-007  0.1125570E+04  0.7818608E-02  0.9233107E-01
         -2   -1    0    0    0  501 -0.00000000000E+00  0.00000000000E+00  0.80682767750E+03  0.80682767750E+03  0.25500000000E-02 0.  1.
          2   -1    0    0  501    0  0.00000000000E+00 -0.00000000000E+00 -0.20029138048E+04  0.20029138048E+04  0.25500000000E-02 0. -1.
    8880023    1    1    2    0    0  0.16321721376E+03  0.89803038246E+03 -0.14636272552E+04  0.18463784485E+04  0.65864270000E+03 0.  0.
    8880022    1    1    2    0    0 -0.16321721376E+03 -0.89803038246E+03  0.26754112792E+03  0.96336303377E+03  0.15294330000E+03 0.  0.
<mgrwt>
<rscale>  0 0.10718149E+04</rscale>
<asrwt>0</asrwt>
<pdfrwt beam="1">  1        2 0.30814058E+00 0.11255704E+04</pdfrwt>
<pdfrwt beam="2">  1       -2 0.12412734E+00 0.11255704E+04</pdfrwt>
<totfact> 0.31957407E+00</totfact>
</mgrwt>
</event>
<event>
 4    1  0.3565372E-007  0.1753465E+04  0.7818608E-02  0.8748724E-01
         -2   -1    0    0    0  501 -0.00000000000E+00  0.00000000000E+00  0.10887583807E+04  0.10887583807E+04  0.25500000000E-02 0.  1.
          2   -1    0    0  501    0  0.00000000000E+00 -0.00000000000E+00 -0.31467913016E+04  0.31467913017E+04  0.25500000000E-02 0. -1.
    8880023    1    1    2    0    0 -0.14601018844E+04 -0.71339391589E+03 -0.19158315174E+04  0.25971232164E+04  0.65864270000E+03 0.  0.
    8880022    1    1    2    0    0  0.14601018844E+04  0.71339391589E+03 -0.14220140358E+03  0.16384264659E+04  0.15294330000E+03 0.  0.
<mgrwt>
<rscale>  0 0.17223406E+04</rscale>
<asrwt>0</asrwt>
<pdfrwt beam="1">  1        2 0.48412174E+00 0.17534647E+04</pdfrwt>
<pdfrwt beam="2">  1       -2 0.16750129E+00 0.17534647E+04</pdfrwt>
<totfact> 0.28707158E-01</totfact>
</mgrwt>
</event>
<event>
 4    1  0.3565372E-007  0.1324290E+04  0.7818608E-02  0.9044863E-01
          2   -1    0    0  501    0  0.00000000000E+00  0.00000000000E+00  0.95293394903E+03  0.95293394904E+03  0.25500000000E-02 0. -1.
         -2   -1    0    0    0  501 -0.00000000000E+00 -0.00000000000E+00 -0.21837073930E+04  0.21837073930E+04  0.25500000000E-02 0.  1.
    8880023    1    1    2    0    0 -0.65587304932E+03 -0.94327360530E+03  0.15130334757E+03  0.13329056458E+04  0.65864270000E+03 0.  0.
    8880022    1    1    2    0    0  0.65587304932E+03  0.94327360530E+03 -0.13820767915E+04  0.18037356963E+04  0.15294330000E+03 0.  0.
<mgrwt>
<rscale>  0 0.12808848E+04</rscale>
<asrwt>0</asrwt>
<pdfrwt beam="1">  1        2 0.14660522E+00 0.13242903E+04</pdfrwt>
<pdfrwt beam="2">  1       -2 0.33595498E+00 0.13242903E+04</pdfrwt>
<totfact> 0.49847366E-01</totfact>
</mgrwt>
</event>
<event>
 4    1  0.3565372E-007  0.1321441E+04  0.7818608E-02  0.9047262E-01
          2   -1    0    0  501    0  0.00000000000E+00  0.00000000000E+00  0.14676013446E+04  0.14676013446E+04  0.25500000000E-02 0. -1.
         -2   -1    0    0    0  501 -0.00000000000E+00 -0.00000000000E+00 -0.11255919843E+04  0.11255919843E+04  0.25500000000E-02 0.  1.
    8880023    1    1    2    0    0 -0.10842499252E+04 -0.36986107959E+03 -0.16387880280E+03  0.13315635872E+04  0.65864270000E+03 0.  0.
    8880022    1    1    2    0    0  0.10842499252E+04  0.36986107959E+03  0.50588816315E+03  0.12616297417E+04  0.15294330000E+03 0.  0.
<mgrwt>
<rscale>  0 0.12779177E+04</rscale>
<asrwt>0</asrwt>
<pdfrwt beam="1">  1        2 0.22578482E+00 0.13214406E+04</pdfrwt>
<pdfrwt beam="2">  1       -2 0.17316800E+00 0.13214406E+04</pdfrwt>
<totfact> 0.25715340E+00</totfact>
</mgrwt>
</event>
<event>
 4    1  0.3565372E-007  0.6751325E+03  0.7818608E-02  0.1012223E+00
          2   -1    0    0  501    0  0.00000000000E+00  0.00000000000E+00  0.73717666194E+03  0.73717666195E+03  0.25500000000E-02 0. -1.
         -2   -1    0    0    0  501 -0.00000000000E+00 -0.00000000000E+00 -0.35370095432E+03  0.35370095433E+03  0.25500000000E-02 0.  1.
    8880023    1    1    2    0    0  0.52021849784E+02 -0.13887896662E+03  0.50728330691E+03  0.84447628738E+03  0.65864270000E+03 0. -1.
    8880022    1    1    2    0    0 -0.52021849784E+02  0.13887896662E+03 -0.12380759928E+03  0.24640132889E+03  0.15294330000E+03 0.  0.
<mgrwt>
<rscale>  0 0.50600655E+03</rscale>
<asrwt>0</asrwt>
<pdfrwt beam="1">  1        2 0.11341179E+00 0.67513247E+03</pdfrwt>
<pdfrwt beam="2">  1       -2 0.54415532E-01 0.67513247E+03</pdfrwt>
<totfact> 0.12386660E+02</totfact>
</mgrwt>
</event>
<event>
 4    1  0.3565372E-007  0.9005799E+03  0.7818608E-02  0.9525101E-01
          2   -1    0    0  501    0  0.00000000000E+00  0.00000000000E+00  0.21726354020E+04  0.21726354020E+04  0.25500000000E-02 0. -1.
         -2   -1    0    0    0  501 -0.00000000000E+00 -0.00000000000E+00 -0.62934287848E+03  0.62934287848E+03  0.25500000000E-02 0.  1.
    8880023    1    1    2    0    0 -0.43483585462E+03 -0.43376464870E+03 -0.22124081586E+03  0.92735737221E+03  0.65864270000E+03 0.  1.
    8880022    1    1    2    0    0  0.43483585462E+03  0.43376464870E+03  0.17645333394E+04  0.18746209082E+04  0.15294330000E+03 0.  0.
<mgrwt>
<rscale>  0 0.82458236E+03</rscale>
<asrwt>0</asrwt>
<pdfrwt beam="1">  1        2 0.33425160E+00 0.90057992E+03</pdfrwt>
<pdfrwt beam="2">  1       -2 0.96821983E-01 0.90057992E+03</pdfrwt>
<totfact> 0.48481032E+00</totfact>
</mgrwt>
</event>
<event>
 4    1  0.3565372E-007  0.8556166E+03  0.7818608E-02  0.9601409E-01
         -2   -1    0    0    0  501 -0.00000000000E+00  0.00000000000E+00  0.31701209711E+03  0.31701209712E+03  0.25500000000E-02 0.  1.
          2   -1    0    0  501    0  0.00000000000E+00 -0.00000000000E+00 -0.17695736582E+04  0.17695736582E+04  0.25500000000E-02 0. -1.
    8880023    1    1    2    0    0 -0.12316496556E+03  0.53207133758E+03 -0.11794145582E+04  0.14570855924E+04  0.65864270000E+03 0.  0.
    8880022    1    1    2    0    0  0.12316496556E+03 -0.53207133758E+03 -0.27314700288E+03  0.62950016300E+03  0.15294330000E+03 0.  0.
<mgrwt>
<rscale>  0 0.77203008E+03</rscale>
<asrwt>0</asrwt>
<pdfrwt beam="1">  1        2 0.27224210E+00 0.85561657E+03</pdfrwt>
<pdfrwt beam="2">  1       -2 0.48771093E-01 0.85561657E+03</pdfrwt>
<totfact> 0.36261128E+01</totfact>
</mgrwt>
</event>
<event>
 4    1  0.3565372E-007  0.7088491E+03  0.7818608E-02  0.9962300E-01
         -2   -1    0    0    0  501 -0.00000000000E+00  0.00000000000E+00  0.30403141380E+03  0.30403141381E+03  0.25500000000E-02 0.  1.
          2   -1    0    0  501    0  0.00000000000E+00 -0.00000000000E+00 -0.11485051167E+04  0.11485051167E+04  0.25500000000E-02 0. -1.
    8880023    1    1    2    0    0  0.24810737178E+03 -0.84258853149E+02 -0.89841391543E+03  0.11443839356E+04  0.65864270000E+03 0. -1.
    8880022    1    1    2    0    0 -0.24810737178E+03  0.84258853149E+02  0.53940212484E+02  0.30815259500E+03  0.15294330000E+03 0.  0.
<mgrwt>
<rscale>  0 0.57334683E+03</rscale>
<asrwt>0</asrwt>
<pdfrwt beam="1">  1        2 0.17669309E+00 0.70884909E+03</pdfrwt>
<pdfrwt beam="2">  1       -2 0.46774064E-01 0.70884909E+03</pdfrwt>
<totfact> 0.89798459E+01</totfact>
</mgrwt>
</event>
<event>
 4    1  0.3565372E-007  0.7730264E+03  0.7818608E-02  0.9772481E-01
          2   -1    0    0  501    0  0.00000000000E+00  0.00000000000E+00  0.69467194160E+03  0.69467194160E+03  0.25500000000E-02 0. -1.
         -2   -1    0    0    0  501 -0.00000000000E+00 -0.00000000000E+00 -0.80792623899E+03  0.80792623899E+03  0.25500000000E-02 0.  1.
    8880023    1    1    2    0    0 -0.35968771266E+03  0.18543021308E+03  0.36743162137E+03  0.85590643017E+03  0.65864270000E+03 0. -1.
    8880022    1    1    2    0    0  0.35968771266E+03 -0.18543021308E+03 -0.48068591876E+03  0.64669175042E+03  0.15294330000E+03 0.  0.
<mgrwt>
<rscale>  0 0.66860534E+03</rscale>
<asrwt>0</asrwt>
<pdfrwt beam="1">  1        2 0.10687261E+00 0.77302640E+03</pdfrwt>
<pdfrwt beam="2">  1       -2 0.12429634E+00 0.77302640E+03</pdfrwt>
<totfact> 0.20355857E+01</totfact>
</mgrwt>
</event>
<event>
 4    1  0.3565372E-007  0.7732711E+03  0.7818608E-02  0.9771887E-01
         -2   -1    0    0    0  501 -0.00000000000E+00  0.00000000000E+00  0.19228458679E+03  0.19228458681E+03  0.25500000000E-02 0.  1.
          2   -1    0    0  501    0  0.00000000000E+00 -0.00000000000E+00 -0.19490684747E+04  0.19490684747E+04  0.25500000000E-02 0. -1.
    8880023    1    1    2    0    0 -0.38251877218E+03 -0.13348164811E+03 -0.12948801379E+04  0.15081985079E+04  0.65864270000E+03 0. -1.
    8880022    1    1    2    0    0  0.38251877218E+03  0.13348164811E+03 -0.46190374997E+03  0.63315455357E+03  0.15294330000E+03 0.  1.
<mgrwt>
<rscale>  0 0.66893291E+03</rscale>
<asrwt>0</asrwt>
<pdfrwt beam="1">  1        2 0.29985667E+00 0.77327108E+03</pdfrwt>
<pdfrwt beam="2">  1       -2 0.29582246E-01 0.77327108E+03</pdfrwt>
<totfact> 0.76846923E+01</totfact>
</mgrwt>
</event>
<event>
 4    1  0.3565372E-007  0.9778823E+03  0.7818608E-02  0.9411084E-01
         -2   -1    0    0    0  501 -0.00000000000E+00  0.00000000000E+00  0.16723659554E+04  0.16723659554E+04  0.25500000000E-02 0.  1.
          2   -1    0    0  501    0  0.00000000000E+00 -0.00000000000E+00 -0.52040194917E+03  0.52040194917E+03  0.25500000000E-02 0. -1.
    8880023    1    1    2    0    0  0.70009935780E+02  0.71940411207E+03  0.21794601310E+03  0.10018754106E+04  0.65864270000E+03 0. -1.
    8880022    1    1    2    0    0 -0.70009935780E+02 -0.71940411207E+03  0.93401799313E+03  0.11908924939E+04  0.15294330000E+03 0.  0.
<mgrwt>
<rscale>  0 0.91169098E+03</rscale>
<asrwt>0</asrwt>
<pdfrwt beam="1">  1        2 0.80061838E-01 0.97788234E+03</pdfrwt>
<pdfrwt beam="2">  1       -2 0.25728707E+00 0.97788234E+03</pdfrwt>
<totfact> 0.34170414E+00</totfact>
</mgrwt>
</event>
<event>
 4    1  0.3565372E-007  0.9725376E+03  0.7818608E-02  0.9418403E-01
         -2   -1    0    0    0  501 -0.00000000000E+00  0.00000000000E+00  0.16774268210E+04  0.16774268210E+04  0.25500000000E-02 0.  1.
          2   -1    0    0  501    0  0.00000000000E+00 -0.00000000000E+00 -0.86716896371E+03  0.86716896371E+03  0.25500000000E-02 0. -1.
    8880023    1    1    2    0    0  0.67634836350E+03 -0.23360683390E+03 -0.46217870810E+03  0.10767723186E+04  0.65864270000E+03 0.  0.
    8880022    1    1    2    0    0 -0.67634836350E+03  0.23360683390E+03  0.12724365654E+04  0.14678234661E+04  0.15294330000E+03 0.  0.
<mgrwt>
<rscale>  0 0.90576538E+03</rscale>
<asrwt>0</asrwt>
<pdfrwt beam="1">  1        2 0.13341061E+00 0.97253764E+03</pdfrwt>
<pdfrwt beam="2">  1       -2 0.25806566E+00 0.97253764E+03</pdfrwt>
<totfact> 0.17733491E+00</totfact>
</mgrwt>
</event>
<event>
 4    1  0.3565372E-007  0.8134795E+03  0.7818608E-02  0.9682374E-01
         -2   -1    0    0    0  501 -0.00000000000E+00  0.00000000000E+00  0.87337605339E+03  0.87337605339E+03  0.25500000000E-02 0.  1.
          2   -1    0    0  501    0  0.00000000000E+00 -0.00000000000E+00 -0.18891394197E+04  0.18891394197E+04  0.25500000000E-02 0. -1.
    8880023    1    1    2    0    0 -0.43925045773E+03 -0.18707682081E+03 -0.17173185341E+04  0.19002452092E+04  0.65864270000E+03 0.  0.
    8880022    1    1    2    0    0  0.43925045773E+03  0.18707682081E+03  0.70155516776E+03  0.86227026386E+03  0.15294330000E+03 0.  1.
<mgrwt>
<rscale>  0 0.72075984E+03</rscale>
<asrwt>0</asrwt>
<pdfrwt beam="1">  1        2 0.29063683E+00 0.81347951E+03</pdfrwt>
<pdfrwt beam="2">  1       -2 0.13436555E+00 0.81347951E+03</pdfrwt>
<totfact> 0.31466546E+00</totfact>
</mgrwt>
</event>
<event>
 4    1  0.3565372E-007  0.9616887E+03  0.7818608E-02  0.9433492E-01
          2   -1    0    0  501    0  0.00000000000E+00  0.00000000000E+00  0.11438124881E+04  0.11438124881E+04  0.25500000000E-02 0. -1.
         -2   -1    0    0    0  501 -0.00000000000E+00 -0.00000000000E+00 -0.12985804206E+04  0.12985804206E+04  0.25500000000E-02 0.  1.
    8880023    1    1    2    0    0 -0.14382094776E+02  0.70059123583E+03  0.79812231680E+03  0.12497377178E+04  0.65864270000E+03 0.  0.
    8880022    1    1    2    0    0  0.14382094776E+02 -0.70059123583E+03 -0.95289024930E+03  0.11926551910E+04  0.15294330000E+03 0.  0.
<mgrwt>
<rscale>  0 0.89369907E+03</rscale>
<asrwt>0</asrwt>
<pdfrwt beam="1">  1        2 0.17597115E+00 0.96168869E+03</pdfrwt>
<pdfrwt beam="2">  1       -2 0.19978160E+00 0.96168869E+03</pdfrwt>
<totfact> 0.27237376E+00</totfact>
</mgrwt>
</event>
<event>
 4    1  0.3565372E-007  0.8951515E+03  0.7818608E-02  0.9533860E-01
         -2   -1    0    0    0  501 -0.00000000000E+00  0.00000000000E+00  0.13347460132E+04  0.13347460132E+04  0.25500000000E-02 0.  1.
          2   -1    0    0  501    0  0.00000000000E+00 -0.00000000000E+00 -0.72939976484E+03  0.72939976484E+03  0.25500000000E-02 0. -1.
    8880023    1    1    2    0    0  0.58539144062E+03  0.15748932431E+03 -0.31721593933E+03  0.94969583786E+03  0.65864270000E+03 0. -1.
    8880022    1    1    2    0    0 -0.58539144062E+03 -0.15748932431E+03  0.92256218768E+03  0.11144499402E+04  0.15294330000E+03 0.  0.
<mgrwt>
<rscale>  0 0.81832821E+03</rscale>
<asrwt>0</asrwt>
<pdfrwt beam="1">  1        2 0.11221535E+00 0.89515151E+03</pdfrwt>
<pdfrwt beam="2">  1       -2 0.20534554E+00 0.89515151E+03</pdfrwt>
<totfact> 0.47921688E+00</totfact>
</mgrwt>
</event>
<event>
 4    1  0.3565372E-007  0.7287768E+03  0.7818608E-02  0.9893935E-01
         -2   -1    0    0    0  501 -0.00000000000E+00  0.00000000000E+00  0.32638812477E+03  0.32638812478E+03  0.25500000000E-02 0.  1.
          2   -1    0    0  501    0  0.00000000000E+00 -0.00000000000E+00 -0.12980830574E+04  0.12980830574E+04  0.25500000000E-02 0. -1.
    8880023    1    1    2    0    0  0.27197173332E+03  0.15276386157E+03 -0.10404719500E+04  0.12703139400E+04  0.65864270000E+03 0. -1.
    8880022    1    1    2    0    0 -0.27197173332E+03 -0.15276386157E+03  0.68777017300E+02  0.35415724227E+03  0.15294330000E+03 0.  0.
<mgrwt>
<rscale>  0 0.60556114E+03</rscale>
<asrwt>0</asrwt>
<pdfrwt beam="1">  1        2 0.19970508E+00 0.72877680E+03</pdfrwt>
<pdfrwt beam="2">  1       -2 0.50213558E-01 0.72877680E+03</pdfrwt>
<totfact> 0.63430645E+01</totfact>
</mgrwt>
</event>
<event>
 4    1  0.3565372E-007  0.7628662E+03  0.7818608E-02  0.9797743E-01
          2   -1    0    0  501    0  0.00000000000E+00  0.00000000000E+00  0.82443012502E+03  0.82443012502E+03  0.25500000000E-02 0. -1.
         -2   -1    0    0    0  501 -0.00000000000E+00 -0.00000000000E+00 -0.62275971362E+03  0.62275971363E+03  0.25500000000E-02 0.  1.
    8880023    1    1    2    0    0  0.27186030774E+03  0.27248217266E+03  0.52134139402E+03  0.92399221681E+03  0.65864270000E+03 0. -1.
    8880022    1    1    2    0    0 -0.27186030774E+03 -0.27248217266E+03 -0.31967098263E+03  0.52319762183E+03  0.15294330000E+03 0.  0.
<mgrwt>
<rscale>  0 0.65483804E+03</rscale>
<asrwt>0</asrwt>
<pdfrwt beam="1">  1        2 0.12683540E+00 0.76286615E+03</pdfrwt>
<pdfrwt beam="2">  1       -2 0.95809187E-01 0.76286615E+03</pdfrwt>
<totfact> 0.30626926E+01</totfact>
</mgrwt>
</event>
<event>
 4    1  0.3565372E-007  0.7886436E+03  0.7818608E-02  0.9735911E-01
         -2   -1    0    0    0  501 -0.00000000000E+00  0.00000000000E+00  0.18294826591E+03  0.18294826592E+03  0.25500000000E-02 0.  1.
          2   -1    0    0  501    0  0.00000000000E+00 -0.00000000000E+00 -0.24499088542E+04  0.24499088542E+04  0.25500000000E-02 0. -1.
    8880023    1    1    2    0    0  0.37976067537E+03 -0.20959560854E+03 -0.18538789928E+04  0.20146528277E+04  0.65864270000E+03 0. -1.
    8880022    1    1    2    0    0 -0.37976067537E+03  0.20959560854E+03 -0.41308159542E+03  0.61820429242E+03  0.15294330000E+03 0.  0.
<mgrwt>
<rscale>  0 0.68918319E+03</rscale>
<asrwt>0</asrwt>
<pdfrwt beam="1">  1        2 0.37690903E+00 0.78864358E+03</pdfrwt>
<pdfrwt beam="2">  1       -2 0.28145889E-01 0.78864358E+03</pdfrwt>
<totfact> 0.44441462E+01</totfact>
</mgrwt>
</event>
<event>
 4    1  0.3565372E-007  0.1298970E+04  0.7818608E-02  0.9066450E-01
         -2   -1    0    0    0  501 -0.00000000000E+00  0.00000000000E+00  0.84656458971E+03  0.84656458971E+03  0.25500000000E-02 0.  1.
          2   -1    0    0  501    0  0.00000000000E+00 -0.00000000000E+00 -0.19999302786E+04  0.19999302786E+04  0.25500000000E-02 0. -1.
    8880023    1    1    2    0    0 -0.31953735006E+03  0.10730375016E+04 -0.10189387502E+03  0.13029605389E+04  0.65864270000E+03 0.  0.
    8880022    1    1    2    0    0  0.31953735006E+03 -0.10730375016E+04 -0.10514718139E+04  0.15435343295E+04  0.15294330000E+03 0.  0.
<mgrwt>
<rscale>  0 0.12544959E+04</rscale>
<asrwt>0</asrwt>
<pdfrwt beam="1">  1        2 0.30768158E+00 0.12989703E+04</pdfrwt>
<pdfrwt beam="2">  1       -2 0.13024071E+00 0.12989703E+04</pdfrwt>
<totfact> 0.27880083E+00</totfact>
</mgrwt>
</event>
<event>
 4    1  0.3565372E-007  0.7327255E+03  0.7818608E-02  0.9881667E-01
         -2   -1    0    0    0  501 -0.00000000000E+00  0.00000000000E+00  0.18829709541E+04  0.18829709541E+04  0.25500000000E-02 0.  1.
          2   -1    0    0  501    0  0.00000000000E+00 -0.00000000000E+00 -0.16334206047E+03  0.16334206049E+03  0.25500000000E-02 0. -1.
    8880023    1    1    2    0    0  0.31075836591E+03 -0.80657731884E+02  0.13322396378E+04  0.15204437150E+04  0.65864270000E+03 0.  1.
    8880022    1    1    2    0    0 -0.31075836591E+03  0.80657731884E+02  0.38738925581E+03  0.52586929957E+03  0.15294330000E+03 0.  0.
<mgrwt>
<rscale>  0 0.61158045E+03</rscale>
<asrwt>0</asrwt>
<pdfrwt beam="1">  1        2 0.25129548E-01 0.73272549E+03</pdfrwt>
<pdfrwt beam="2">  1       -2 0.28968784E+00 0.73272549E+03</pdfrwt>
<totfact> 0.83094970E+00</totfact>
</mgrwt>
</event>
<event>
 4    1  0.3565372E-007  0.7918692E+03  0.7818608E-02  0.9728660E-01
         -2   -1    0    0    0  501 -0.00000000000E+00  0.00000000000E+00  0.83369851127E+03  0.83369851128E+03  0.25500000000E-02 0.  1.
          2   -1    0    0  501    0  0.00000000000E+00 -0.00000000000E+00 -0.93040941115E+03  0.93040941115E+03  0.25500000000E-02 0. -1.
    8880023    1    1    2    0    0 -0.43814303063E+03  0.35739982543E+02 -0.66180455019E+03  0.10320087841E+04  0.65864270000E+03 0.  0.
    8880022    1    1    2    0    0  0.43814303063E+03 -0.35739982543E+02  0.56509365031E+03  0.73209913829E+03  0.15294330000E+03 0.  0.
<mgrwt>
<rscale>  0 0.69335716E+03</rscale>
<asrwt>0</asrwt>
<pdfrwt beam="1">  1        2 0.14313991E+00 0.79186922E+03</pdfrwt>
<pdfrwt beam="2">  1       -2 0.12826131E+00 0.79186922E+03</pdfrwt>
<totfact> 0.12718444E+01</totfact>
</mgrwt>
</event>
<event>
 4    1  0.3565372E-007  0.1330585E+04  0.7818608E-02  0.9039588E-01
          2   -1    0    0  501    0  0.00000000000E+00  0.00000000000E+00  0.32511357868E+04  0.32511357868E+04  0.25500000000E-02 0. -1.
         -2   -1    0    0    0  501 -0.00000000000E+00 -0.00000000000E+00 -0.77873845843E+03  0.77873845843E+03  0.25500000000E-02 0.  1.
    8880023    1    1    2    0    0 -0.63687680566E+03 -0.96490100361E+03  0.25339387692E+04  0.28620450564E+04  0.65864270000E+03 0.  0.
    8880022    1    1    2    0    0  0.63687680566E+03  0.96490100361E+03 -0.61541440851E+02  0.11678291888E+04  0.15294330000E+03 0.  0.
<mgrwt>
<rscale>  0 0.12874365E+04</rscale>
<asrwt>0</asrwt>
<pdfrwt beam="1">  1        2 0.50017473E+00 0.13305849E+04</pdfrwt>
<pdfrwt beam="2">  1       -2 0.11980592E+00 0.13305849E+04</pdfrwt>
<totfact> 0.62389973E-01</totfact>
</mgrwt>
</event>
<event>
 4    1  0.3565372E-007  0.8442552E+03  0.7818608E-02  0.9622208E-01
         -2   -1    0    0    0  501 -0.00000000000E+00  0.00000000000E+00  0.27483226102E+03  0.27483226103E+03  0.25500000000E-02 0.  1.
          2   -1    0    0  501    0  0.00000000000E+00 -0.00000000000E+00 -0.28699225967E+04  0.28699225967E+04  0.25500000000E-02 0. -1.
    8880023    1    1    2    0    0 -0.19768640777E+03 -0.48977205418E+03 -0.24271922098E+04  0.25698305022E+04  0.65864270000E+03 0.  0.
    8880022    1    1    2    0    0  0.19768640777E+03  0.48977205418E+03 -0.16789812597E+03  0.57492435554E+03  0.15294330000E+03 0.  0.
<mgrwt>
<rscale>  0 0.75843563E+03</rscale>
<asrwt>0</asrwt>
<pdfrwt beam="1">  1        2 0.44152653E+00 0.84425517E+03</pdfrwt>
<pdfrwt beam="2">  1       -2 0.42281888E-01 0.84425517E+03</pdfrwt>
<totfact> 0.11585706E+01</totfact>
</mgrwt>
</event>
<event>
 4    1  0.3565372E-007  0.9010533E+03  0.7818608E-02  0.9524343E-01
         -2   -1    0    0    0  501 -0.00000000000E+00  0.00000000000E+00  0.57851362635E+03  0.57851362635E+03  0.25500000000E-02 0.  1.
          2   -1    0    0  501    0  0.00000000000E+00 -0.00000000000E+00 -0.17233153439E+04  0.17233153439E+04  0.25500000000E-02 0. -1.
    8880023    1    1    2    0    0  0.68894105022E+02 -0.61101591984E+03 -0.13610805789E+04  0.16323104486E+04  0.65864270000E+03 0.  0.
    8880022    1    1    2    0    0 -0.68894105022E+02  0.61101591984E+03  0.21627886134E+03  0.66951852168E+03  0.15294330000E+03 0.  0.
<mgrwt>
<rscale>  0 0.82512672E+03</rscale>
<asrwt>0</asrwt>
<pdfrwt beam="1">  1        2 0.26512543E+00 0.90105330E+03</pdfrwt>
<pdfrwt beam="2">  1       -2 0.89002097E-01 0.90105330E+03</pdfrwt>
<totfact> 0.10416271E+01</totfact>
</mgrwt>
</event>
<event>
 4    1  0.3565372E-007  0.7526484E+03  0.7818608E-02  0.9824526E-01
         -2   -1    0    0    0  501 -0.00000000000E+00  0.00000000000E+00  0.48152692280E+03  0.48152692281E+03  0.25500000000E-02 0.  1.
          2   -1    0    0  501    0  0.00000000000E+00 -0.00000000000E+00 -0.17072821757E+04  0.17072821757E+04  0.25500000000E-02 0. -1.
    8880023    1    1    2    0    0  0.34979237280E+03 -0.10156113276E+03 -0.15200578573E+04  0.16961885106E+04  0.65864270000E+03 0.  0.
    8880022    1    1    2    0    0 -0.34979237280E+03  0.10156113276E+03  0.29430260433E+03  0.49262058796E+03  0.15294330000E+03 0.  0.
<mgrwt>
<rscale>  0 0.64062798E+03</rscale>
<asrwt>0</asrwt>
<pdfrwt beam="1">  1        2 0.26265879E+00 0.75264837E+03</pdfrwt>
<pdfrwt beam="2">  1       -2 0.74081066E-01 0.75264837E+03</pdfrwt>
<totfact> 0.16388157E+01</totfact>
</mgrwt>
</event>
<event>
 4    1  0.3565372E-007  0.9041109E+03  0.7818608E-02  0.9519464E-01
          2   -1    0    0  501    0  0.00000000000E+00  0.00000000000E+00  0.42936204025E+04  0.42936204025E+04  0.25500000000E-02 0. -1.
         -2   -1    0    0    0  501 -0.00000000000E+00 -0.00000000000E+00 -0.33256213493E+03  0.33256213494E+03  0.25500000000E-02 0.  1.
    8880023    1    1    2    0    0 -0.61935841117E+03  0.11878030456E+01  0.36669845101E+03  0.97564553635E+03  0.65864270000E+03 0.  0.
    8880022    1    1    2    0    0  0.61935841117E+03 -0.11878030456E+01  0.35943598166E+04  0.36505370011E+04  0.15294330000E+03 0.  0.
<mgrwt>
<rscale>  0 0.82863885E+03</rscale>
<asrwt>0</asrwt>
<pdfrwt beam="1">  1        2 0.66055698E+00 0.90411087E+03</pdfrwt>
<pdfrwt beam="2">  1       -2 0.51163406E-01 0.90411087E+03</pdfrwt>
<totfact> 0.75494756E-01</totfact>
</mgrwt>
</event>
<event>
 4    1  0.3565372E-007  0.7459954E+03  0.7818608E-02  0.9842815E-01
         -2   -1    0    0    0  501 -0.00000000000E+00  0.00000000000E+00  0.28599148217E+03  0.28599148218E+03  0.25500000000E-02 0.  1.
          2   -1    0    0  501    0  0.00000000000E+00 -0.00000000000E+00 -0.13256999694E+04  0.13256999695E+04  0.25500000000E-02 0. -1.
    8880023    1    1    2    0    0  0.23652565384E+03 -0.25836907806E+03 -0.96915376866E+03  0.12230160257E+04  0.65864270000E+03 0. -1.
    8880022    1    1    2    0    0 -0.23652565384E+03  0.25836907806E+03 -0.70554718621E+02  0.38867542598E+03  0.15294330000E+03 0.  0.
<mgrwt>
<rscale>  0 0.63114612E+03</rscale>
<asrwt>0</asrwt>
<pdfrwt beam="1">  1        2 0.20395384E+00 0.74599542E+03</pdfrwt>
<pdfrwt beam="2">  1       -2 0.43998690E-01 0.74599542E+03</pdfrwt>
<totfact> 0.79633744E+01</totfact>
</mgrwt>
</event>
<event>
 4    1  0.3565372E-007  0.6719637E+03  0.7818608E-02  0.1014293E+00
          2   -1    0    0  501    0  0.00000000000E+00  0.00000000000E+00  0.31923167574E+03  0.31923167575E+03  0.25500000000E-02 0. -1.
         -2   -1    0    0    0  501 -0.00000000000E+00 -0.00000000000E+00 -0.65191266046E+03  0.65191266046E+03  0.25500000000E-02 0.  1.
    8880023    1    1    2    0    0  0.10172658739E+03  0.85887555895E+02 -0.12995689986E+03  0.68441505896E+03  0.65864270000E+03 0.  1.
    8880022    1    1    2    0    0 -0.10172658739E+03 -0.85887555895E+02 -0.20272408486E+03  0.28672927726E+03  0.15294330000E+03 0.  0.
<mgrwt>
<rscale>  0 0.49803691E+03</rscale>
<asrwt>0</asrwt>
<pdfrwt beam="1">  1        2 0.49112566E-01 0.67196367E+03</pdfrwt>
<pdfrwt beam="2">  1       -2 0.10029426E+00 0.67196367E+03</pdfrwt>
<totfact> 0.85202581E+01</totfact>
</mgrwt>
</event>
<event>
 4    1  0.3565372E-007  0.7791677E+03  0.7818608E-02  0.9757796E-01
         -2   -1    0    0    0  501 -0.00000000000E+00  0.00000000000E+00  0.42135467310E+03  0.42135467310E+03  0.25500000000E-02 0.  1.
          2   -1    0    0  501    0  0.00000000000E+00 -0.00000000000E+00 -0.88797832927E+03  0.88797832927E+03  0.25500000000E-02 0. -1.
    8880023    1    1    2    0    0 -0.23933110426E+03  0.34060629569E+03 -0.31865187909E+03  0.84180832286E+03  0.65864270000E+03 0. -1.
    8880022    1    1    2    0    0  0.23933110426E+03 -0.34060629569E+03 -0.14797177708E+03  0.46752467951E+03  0.15294330000E+03 0.  1.
<mgrwt>
<rscale>  0 0.67677487E+03</rscale>
<asrwt>0</asrwt>
<pdfrwt beam="1">  1        2 0.13661205E+00 0.77916765E+03</pdfrwt>
<pdfrwt beam="2">  1       -2 0.64823796E-01 0.77916765E+03</pdfrwt>
<totfact> 0.66378000E+01</totfact>
</mgrwt>
</event>
<event>
 4    1  0.3565372E-007  0.9429893E+03  0.7818608E-02  0.9460274E-01
         -2   -1    0    0    0  501 -0.00000000000E+00  0.00000000000E+00  0.51699503220E+03  0.51699503220E+03  0.25500000000E-02 0.  1.
          2   -1    0    0  501    0  0.00000000000E+00 -0.00000000000E+00 -0.13197491645E+04  0.13197491645E+04  0.25500000000E-02 0. -1.
    8880023    1    1    2    0    0 -0.24165903685E+03 -0.63009480691E+03 -0.33153608995E+03  0.99957237907E+03  0.65864270000E+03 0. -1.
    8880022    1    1    2    0    0  0.24165903685E+03  0.63009480691E+03 -0.47121804234E+03  0.83717181763E+03  0.15294330000E+03 0.  0.
<mgrwt>
<rscale>  0 0.87277136E+03</rscale>
<asrwt>0</asrwt>
<pdfrwt beam="1">  1        2 0.20303833E+00 0.94298927E+03</pdfrwt>
<pdfrwt beam="2">  1       -2 0.79537698E-01 0.94298927E+03</pdfrwt>
<totfact> 0.22571701E+01</totfact>
</mgrwt>
</event>
<event>
 4    1  0.3565372E-007  0.7304635E+03  0.7818608E-02  0.9888651E-01
          2   -1    0    0  501    0  0.00000000000E+00  0.00000000000E+00  0.85339229097E+03  0.85339229098E+03  0.25500000000E-02 0. -1.
         -2   -1    0    0    0  501 -0.00000000000E+00 -0.00000000000E+00 -0.63448033973E+03  0.63448033974E+03  0.25500000000E-02 0.  1.
    8880023    1    1    2    0    0  0.22799879486E+03 -0.21859375972E+03  0.61772323658E+03  0.95663937067E+03  0.65864270000E+03 0. -1.
    8880022    1    1    2    0    0 -0.22799879486E+03  0.21859375972E+03 -0.39881128534E+03  0.53123326004E+03  0.15294330000E+03 0.  0.
<mgrwt>
<rscale>  0 0.60814460E+03</rscale>
<asrwt>0</asrwt>
<pdfrwt beam="1">  1        2 0.13129112E+00 0.73046348E+03</pdfrwt>
<pdfrwt beam="2">  1       -2 0.97612360E-01 0.73046348E+03</pdfrwt>
<totfact> 0.28062151E+01</totfact>
</mgrwt>
</event>
<event>
 4    1  0.3565372E-007  0.7862674E+03  0.7818608E-02  0.9741316E-01
          2   -1    0    0  501    0  0.00000000000E+00  0.00000000000E+00  0.63076125500E+03  0.63076125501E+03  0.25500000000E-02 0. -1.
         -2   -1    0    0    0  501 -0.00000000000E+00 -0.00000000000E+00 -0.96964036767E+03  0.96964036767E+03  0.25500000000E-02 0.  1.
    8880023    1    1    2    0    0 -0.36346502969E+03  0.22869046510E+03  0.27747525440E+03  0.83379186834E+03  0.65864270000E+03 0.  0.
    8880022    1    1    2    0    0  0.36346502969E+03 -0.22869046510E+03 -0.61635436707E+03  0.76660975434E+03  0.15294330000E+03 0.  0.
<mgrwt>
<rscale>  0 0.68609271E+03</rscale>
<asrwt>0</asrwt>
<pdfrwt beam="1">  1        2 0.97040193E-01 0.78626736E+03</pdfrwt>
<pdfrwt beam="2">  1       -2 0.14917544E+00 0.78626736E+03</pdfrwt>
<totfact> 0.14343316E+01</totfact>
</mgrwt>
</event>
<event>
 4    1  0.3565372E-007  0.6756154E+03  0.7818608E-02  0.1011921E+00
         -2   -1    0    0    0  501 -0.00000000000E+00  0.00000000000E+00  0.61446929875E+03  0.61446929876E+03  0.25500000000E-02 0.  1.
          2   -1    0    0  501    0  0.00000000000E+00 -0.00000000000E+00 -0.24853334335E+04  0.24853334335E+04  0.25500000000E-02 0. -1.
    8880023    1    1    2    0    0 -0.85034082839E+02 -0.12415792264E+03 -0.24187844103E+04  0.25113689922E+04  0.65864270000E+03 0. -1.
    8880022    1    1    2    0    0  0.85034082839E+02  0.12415792264E+03  0.54792027560E+03  0.58843374005E+03  0.15294330000E+03 0.  0.
<mgrwt>
<rscale>  0 0.50718195E+03</rscale>
<asrwt>0</asrwt>
<pdfrwt beam="1">  1        2 0.38235899E+00 0.67561542E+03</pdfrwt>
<pdfrwt beam="2">  1       -2 0.94533739E-01 0.67561542E+03</pdfrwt>
<totfact> 0.35652193E+00</totfact>
</mgrwt>
</event>
<event>
 4    1  0.3565372E-007  0.8630414E+03  0.7818608E-02  0.9588176E-01
         -2   -1    0    0    0  501 -0.00000000000E+00  0.00000000000E+00  0.17481673078E+04  0.17481673078E+04  0.25500000000E-02 0.  1.
          2   -1    0    0  501    0  0.00000000000E+00 -0.00000000000E+00 -0.38549153272E+03  0.38549153273E+03  0.25500000000E-02 0. -1.
    8880023    1    1    2    0    0  0.61567596635E+02 -0.55429201344E+03  0.28193426135E+03  0.90792474309E+03  0.65864270000E+03 0.  0.
    8880022    1    1    2    0    0 -0.61567596635E+02  0.55429201344E+03  0.10807415137E+04  0.12257340975E+04  0.15294330000E+03 0.  0.
<mgrwt>
<rscale>  0 0.78083729E+03</rscale>
<asrwt>0</asrwt>
<pdfrwt beam="1">  1        2 0.59306390E-01 0.86304137E+03</pdfrwt>
<pdfrwt beam="2">  1       -2 0.26894881E+00 0.86304137E+03</pdfrwt>
<totfact> 0.41533740E+00</totfact>
</mgrwt>
</event>
<event>
 4    1  0.3565372E-007  0.7638947E+03  0.7818608E-02  0.9795127E-01
          2   -1    0    0  501    0  0.00000000000E+00  0.00000000000E+00  0.13867844347E+04  0.13867844347E+04  0.25500000000E-02 0. -1.
         -2   -1    0    0    0  501 -0.00000000000E+00 -0.00000000000E+00 -0.34012885439E+03  0.34012885440E+03  0.25500000000E-02 0.  1.
    8880023    1    1    2    0    0  0.20452971600E+03 -0.32846983101E+03  0.10647698799E+04  0.13104464651E+04  0.65864270000E+03 0. -1.
    8880022    1    1    2    0    0 -0.20452971600E+03  0.32846983101E+03 -0.18114299552E+02  0.41646682398E+03  0.15294330000E+03 0.  0.
<mgrwt>
<rscale>  0 0.65624711E+03</rscale>
<asrwt>0</asrwt>
<pdfrwt beam="1">  1        2 0.21335145E+00 0.76389465E+03</pdfrwt>
<pdfrwt beam="2">  1       -2 0.52327517E-01 0.76389465E+03</pdfrwt>
<totfact> 0.51701042E+01</totfact>
</mgrwt>
</event>
<event>
 4    1  0.3565372E-007  0.8421629E+03  0.7818608E-02  0.9626115E-01
         -2   -1    0    0    0  501 -0.00000000000E+00  0.00000000000E+00  0.90107619067E+03  0.90107619068E+03  0.25500000000E-02 0.  1.
          2   -1    0    0  501    0  0.00000000000E+00 -0.00000000000E+00 -0.65039044845E+03  0.65039044846E+03  0.25500000000E-02 0. -1.
    8880023    1    1    2    0    0  0.18552970589E+02 -0.52448449781E+03 -0.17312840708E+03  0.85977430339E+03  0.65864270000E+03 0.  0.
    8880022    1    1    2    0    0 -0.18552970589E+02  0.52448449781E+03  0.42381414930E+03  0.69169233575E+03  0.15294330000E+03 0.  0.
<mgrwt>
<rscale>  0 0.75591554E+03</rscale>
<asrwt>0</asrwt>
<pdfrwt beam="1">  1        2 0.10006007E+00 0.84216293E+03</pdfrwt>
<pdfrwt beam="2">  1       -2 0.13862711E+00 0.84216293E+03</pdfrwt>
<totfact> 0.16649209E+01</totfact>
</mgrwt>
</event>
<event>
 4    1  0.3565372E-007  0.1032040E+04  0.7818608E-02  0.9340790E-01
          2   -1    0    0  501    0  0.00000000000E+00  0.00000000000E+00  0.25111324046E+04  0.25111324046E+04  0.25500000000E-02 0. -1.
         -2   -1    0    0    0  501 -0.00000000000E+00 -0.00000000000E+00 -0.42458128580E+03  0.42458128580E+03  0.25500000000E-02 0.  1.
    8880023    1    1    2    0    0 -0.73025179268E+03 -0.31309605296E+03  0.18046013755E+04  0.20788682377E+04  0.65864270000E+03 0. -1.
    8880022    1    1    2    0    0  0.73025179268E+03  0.31309605296E+03  0.28194974337E+03  0.85684545275E+03  0.15294330000E+03 0.  0.
<mgrwt>
<rscale>  0 0.97112874E+03</rscale>
<asrwt>0</asrwt>
<pdfrwt beam="1">  1        2 0.38632807E+00 0.10320402E+04</pdfrwt>
<pdfrwt beam="2">  1       -2 0.65320197E-01 0.10320402E+04</pdfrwt>
<totfact> 0.74648343E+00</totfact>
</mgrwt>
</event>
<event>
 4    1  0.3565372E-007  0.1143021E+04  0.7818608E-02  0.9214604E-01
         -2   -1    0    0    0  501 -0.00000000000E+00  0.00000000000E+00  0.89771331180E+03  0.89771331180E+03  0.25500000000E-02 0.  1.
          2   -1    0    0  501    0  0.00000000000E+00 -0.00000000000E+00 -0.18178815228E+04  0.18178815228E+04  0.25500000000E-02 0. -1.
    8880023    1    1    2    0    0  0.47843259534E+03 -0.80236522404E+03 -0.12679625487E+04  0.17071106971E+04  0.65864270000E+03 0. -1.
    8880022    1    1    2    0    0 -0.47843259534E+03  0.80236522404E+03  0.34779433777E+03  0.10084841374E+04  0.15294330000E+03 0.  0.
<mgrwt>
<rscale>  0 0.10903956E+04</rscale>
<asrwt>0</asrwt>
<pdfrwt beam="1">  1        2 0.27967408E+00 0.11430214E+04</pdfrwt>
<pdfrwt beam="2">  1       -2 0.13810974E+00 0.11430214E+04</pdfrwt>
<totfact> 0.30733065E+00</totfact>
</mgrwt>
</event>
<event>
 4    1  0.3565372E-007  0.7592559E+03  0.7818608E-02  0.9807038E-01
         -2   -1    0    0    0  501 -0.00000000000E+00  0.00000000000E+00  0.58193776170E+03  0.58193776170E+03  0.25500000000E-02 0.  1.
          2   -1    0    0  501    0  0.00000000000E+00 -0.00000000000E+00 -0.16911659155E+04  0.16911659155E+04  0.25500000000E-02 0. -1.
    8880023    1    1    2    0    0 -0.37483460123E+03  0.46457676000E+02 -0.15171425113E+04  0.16965231799E+04  0.65864270000E+03 0.  0.
    8880022    1    1    2    0    0  0.37483460123E+03 -0.46457676000E+02  0.40791435746E+03  0.57658049739E+03  0.15294330000E+03 0.  1.
<mgrwt>
<rscale>  0 0.64986223E+03</rscale>
<asrwt>0</asrwt>
<pdfrwt beam="1">  1        2 0.26017937E+00 0.75925589E+03</pdfrwt>
<pdfrwt beam="2">  1       -2 0.89528887E-01 0.75925589E+03</pdfrwt>
<totfact> 0.10896578E+01</totfact>
</mgrwt>
</event>
<event>
 4    1  0.3565372E-007  0.6595371E+03  0.7818608E-02  0.1024636E+00
          2   -1    0    0  501    0  0.00000000000E+00  0.00000000000E+00  0.24706485297E+03  0.24706485298E+03  0.25500000000E-02 0. -1.
         -2   -1    0    0    0  501 -0.00000000000E+00 -0.00000000000E+00 -0.12764546942E+04  0.12764546942E+04  0.25500000000E-02 0.  1.
    8880023    1    1    2    0    0 -0.33306574535E+02  0.83461169897E+01 -0.21427802253E+03  0.69347261141E+03  0.65864270000E+03 0. -1.
    8880022    1    1    2    0    0  0.33306574535E+02 -0.83461169897E+01 -0.81511181870E+03  0.83004693576E+03  0.15294330000E+03 0.  0.
<mgrwt>
<rscale>  0 0.46050196E+03</rscale>
<asrwt>0</asrwt>
<pdfrwt beam="1">  1        2 0.38009978E-01 0.65953710E+03</pdfrwt>
<pdfrwt beam="2">  1       -2 0.19637764E+00 0.65953710E+03</pdfrwt>
<totfact> 0.19628632E+01</totfact>
</mgrwt>
</event>
<event>
 4    1  0.3565372E-007  0.1109344E+04  0.7818608E-02  0.9250723E-01
         -2   -1    0    0    0  501 -0.00000000000E+00  0.00000000000E+00  0.41044417811E+03  0.41044417811E+03  0.25500000000E-02 0.  1.
          2   -1    0    0  501    0  0.00000000000E+00 -0.00000000000E+00 -0.36262364652E+04  0.36262364652E+04  0.25500000000E-02 0. -1.
    8880023    1    1    2    0    0  0.88540676665E+03  0.11352905754E+03 -0.58453722541E+03  0.12539250231E+04  0.65864270000E+03 0.  0.
    8880022    1    1    2    0    0 -0.88540676665E+03 -0.11352905754E+03 -0.26312550617E+04  0.27827556203E+04  0.15294330000E+03 0.  0.
<mgrwt>
<rscale>  0 0.10544873E+04</rscale>
<asrwt>0</asrwt>
<pdfrwt beam="1">  1        2 0.55788251E+00 0.11093440E+04</pdfrwt>
<pdfrwt beam="2">  1       -2 0.63145260E-01 0.11093440E+04</pdfrwt>
<totfact> 0.15699834E+00</totfact>
</mgrwt>
</event>
<event>
 4    1  0.3565372E-007  0.6628754E+03  0.7818608E-02  0.1021387E+00
         -2   -1    0    0    0  501 -0.00000000000E+00  0.00000000000E+00  0.53781934428E+03  0.53781934429E+03  0.25500000000E-02 0.  1.
          2   -1    0    0  501    0  0.00000000000E+00 -0.00000000000E+00 -0.78983116199E+03  0.78983116199E+03  0.25500000000E-02 0. -1.
    8880023    1    1    2    0    0  0.64245497194E+02  0.38289756606E+02 -0.62912117356E+03  0.91389126632E+03  0.65864270000E+03 0. -1.
    8880022    1    1    2    0    0 -0.64245497194E+02 -0.38289756606E+02  0.37710935585E+03  0.41375923996E+03  0.15294330000E+03 0.  0.
<mgrwt>
<rscale>  0 0.47189573E+03</rscale>
<asrwt>0</asrwt>
<pdfrwt beam="1">  1        2 0.12151249E+00 0.66287540E+03</pdfrwt>
<pdfrwt beam="2">  1       -2 0.82741437E-01 0.66287540E+03</pdfrwt>
<totfact> 0.45835665E+01</totfact>
</mgrwt>
</event>
<event>
 4    1  0.3565372E-007  0.7401129E+03  0.7818608E-02  0.9859618E-01
         -2   -1    0    0    0  501 -0.00000000000E+00  0.00000000000E+00  0.24230318288E+03  0.24230318289E+03  0.25500000000E-02 0.  1.
          2   -1    0    0  501    0  0.00000000000E+00 -0.00000000000E+00 -0.13134907656E+04  0.13134907656E+04  0.25500000000E-02 0. -1.
    8880023    1    1    2    0    0  0.24252975760E+03 -0.23481097625E+03 -0.57903124160E+03  0.93970434866E+03  0.65864270000E+03 0.  0.
    8880022    1    1    2    0    0 -0.24252975760E+03  0.23481097625E+03 -0.49215634110E+03  0.61608959981E+03  0.15294330000E+03 0.  0.
<mgrwt>
<rscale>  0 0.62258905E+03</rscale>
<asrwt>0</asrwt>
<pdfrwt beam="1">  1        2 0.20207550E+00 0.74011289E+03</pdfrwt>
<pdfrwt beam="2">  1       -2 0.37277413E-01 0.74011289E+03</pdfrwt>
<totfact> 0.11195730E+02</totfact>
</mgrwt>
</event>
<event>
 4    1  0.3565372E-007  0.8500019E+03  0.7818608E-02  0.9611602E-01
          2   -1    0    0  501    0  0.00000000000E+00  0.00000000000E+00  0.12339662128E+04  0.12339662128E+04  0.25500000000E-02 0. -1.
         -2   -1    0    0    0  501 -0.00000000000E+00 -0.00000000000E+00 -0.41310182967E+03  0.41310182967E+03  0.25500000000E-02 0.  1.
    8880023    1    1    2    0    0 -0.52705240456E+03 -0.10444526217E+03  0.62512608822E+03  0.10551236337E+04  0.65864270000E+03 0. -1.
    8880022    1    1    2    0    0  0.52705240456E+03  0.10444526217E+03  0.19573829487E+03  0.59194440874E+03  0.15294330000E+03 0.  1.
<mgrwt>
<rscale>  0 0.76533044E+03</rscale>
<asrwt>0</asrwt>
<pdfrwt beam="1">  1        2 0.18984095E+00 0.85000192E+03</pdfrwt>
<pdfrwt beam="2">  1       -2 0.63554129E-01 0.85000192E+03</pdfrwt>
<totfact> 0.41800369E+01</totfact>
</mgrwt>
</event>
<event>
 4    1  0.3565372E-007  0.7335882E+03  0.7818608E-02  0.9879034E-01
          2   -1    0    0  501    0  0.00000000000E+00  0.00000000000E+00  0.45808014410E+03  0.45808014411E+03  0.25500000000E-02 0. -1.
         -2   -1    0    0    0  501 -0.00000000000E+00 -0.00000000000E+00 -0.10139272635E+04  0.10139272635E+04  0.25500000000E-02 0.  1.
    8880023    1    1    2    0    0 -0.12640986808E+03  0.29725744483E+03  0.84738318156E+02  0.73846613469E+03  0.65864270000E+03 0. -1.
    8880022    1    1    2    0    0  0.12640986808E+03 -0.29725744483E+03 -0.64058543756E+03  0.73354127293E+03  0.15294330000E+03 0.  0.
<mgrwt>
<rscale>  0 0.61288245E+03</rscale>
<asrwt>0</asrwt>
<pdfrwt beam="1">  1        2 0.70473869E-01 0.73358820E+03</pdfrwt>
<pdfrwt beam="2">  1       -2 0.15598881E+00 0.73358820E+03</pdfrwt>
<totfact> 0.18669523E+01</totfact>
</mgrwt>
</event>
<event>
 4    1  0.4266387E-007  0.7242194E+03  0.7818608E-02  0.9908559E-01
          2   -1    0    0  501    0  0.00000000000E+00  0.00000000000E+00  0.16165437969E+04  0.16165437969E+04  0.25500000000E-02 0. -1.
         -2   -1    0    0    0  501 -0.00000000000E+00 -0.00000000000E+00 -0.15444918226E+04  0.15444918226E+04  0.25500000000E-02 0.  1.
    8880023    1    1    2    0    0  0.11791139947E+03  0.27709285302E+03  0.15149383429E+04  0.16791461927E+04  0.65864270000E+03 0. -1.
    8880022    1    1    2    0    0 -0.11791139947E+03 -0.27709285302E+03 -0.14428863687E+04  0.14818894268E+04  0.15294330000E+03 0.  0.
<mgrwt>
<rscale>  0 0.59848260E+03</rscale>
<asrwt>0</asrwt>
<pdfrwt beam="1">  1        2 0.24869905E+00 0.72421941E+03</pdfrwt>
<pdfrwt beam="2">  1       -2 0.23761413E+00 0.72421941E+03</pdfrwt>
<totfact> 0.87639507E-01</totfact>
</mgrwt>
</event>
<event>
 4    1  0.3565372E-007  0.7114163E+03  0.7818608E-02  0.9952779E-01
         -2   -1    0    0    0  501 -0.00000000000E+00  0.00000000000E+00  0.62290124573E+03  0.62290124573E+03  0.25500000000E-02 0.  1.
          2   -1    0    0  501    0  0.00000000000E+00 -0.00000000000E+00 -0.13759445305E+04  0.13759445305E+04  0.25500000000E-02 0. -1.
    8880023    1    1    2    0    0 -0.18519727379E+03  0.19494851447E+03 -0.12355285546E+04  0.14257082342E+04  0.65864270000E+03 0. -1.
    8880022    1    1    2    0    0  0.18519727379E+03 -0.19494851447E+03  0.48248526982E+03  0.57313754206E+03  0.15294330000E+03 0.  0.
<mgrwt>
<rscale>  0 0.57770190E+03</rscale>
<asrwt>0</asrwt>
<pdfrwt beam="1">  1        2 0.21168377E+00 0.71141631E+03</pdfrwt>
<pdfrwt beam="2">  1       -2 0.95830961E-01 0.71141631E+03</pdfrwt>
<totfact> 0.14013216E+01</totfact>
</mgrwt>
</event>
<event>
 4    1  0.3565372E-007  0.6704829E+03  0.7818608E-02  0.1015319E+00
         -2   -1    0    0    0  501 -0.00000000000E+00  0.00000000000E+00  0.28982044352E+03  0.28982044353E+03  0.25500000000E-02 0.  1.
          2   -1    0    0  501    0  0.00000000000E+00 -0.00000000000E+00 -0.16820543566E+04  0.16820543566E+04  0.25500000000E-02 0. -1.
    8880023    1    1    2    0    0  0.22055209848E+02 -0.12349372226E+03 -0.15692119760E+04  0.17064505746E+04  0.65864270000E+03 0. -1.
    8880022    1    1    2    0    0 -0.22055209848E+02  0.12349372226E+03  0.17697806292E+03  0.26542422551E+03  0.15294330000E+03 0.  0.
<mgrwt>
<rscale>  0 0.49414321E+03</rscale>
<asrwt>0</asrwt>
<pdfrwt beam="1">  1        2 0.25877759E+00 0.67048291E+03</pdfrwt>
<pdfrwt beam="2">  1       -2 0.44587761E-01 0.67048291E+03</pdfrwt>
<totfact> 0.49506106E+01</totfact>
</mgrwt>
</event>
<event>
 4    1  0.3565372E-007  0.1165219E+04  0.7818608E-02  0.9191697E-01
          2   -1    0    0  501    0  0.00000000000E+00  0.00000000000E+00  0.28446731315E+04  0.28446731315E+04  0.25500000000E-02 0. -1.
         -2   -1    0    0    0  501 -0.00000000000E+00 -0.00000000000E+00 -0.40597501962E+03  0.40597501963E+03  0.25500000000E-02 0.  1.
    8880023    1    1    2    0    0  0.65945431828E+03 -0.69931717127E+03  0.14895670766E+04  0.18911755037E+04  0.65864270000E+03 0. -1.
    8880022    1    1    2    0    0 -0.65945431828E+03  0.69931717127E+03  0.94913103535E+03  0.13594726475E+04  0.15294330000E+03 0.  1.
<mgrwt>
<rscale>  0 0.11139545E+04</rscale>
<asrwt>0</asrwt>
<pdfrwt beam="1">  1        2 0.43764203E+00 0.11652187E+04</pdfrwt>
<pdfrwt beam="2">  1       -2 0.62457694E-01 0.11652187E+04</pdfrwt>
<totfact> 0.51538129E+00</totfact>
</mgrwt>
</event>
<event>
 4    1  0.3565372E-007  0.6902809E+03  0.7818608E-02  0.1004019E+00
         -2   -1    0    0    0  501 -0.00000000000E+00  0.00000000000E+00  0.14847251484E+04  0.14847251484E+04  0.25500000000E-02 0.  1.
          2   -1    0    0  501    0  0.00000000000E+00 -0.00000000000E+00 -0.42308310492E+03  0.42308310493E+03  0.25500000000E-02 0. -1.
    8880023    1    1    2    0    0  0.13750356010E+03 -0.15417634882E+03 -0.11816840795E+03  0.70032246464E+03  0.65864270000E+03 0. -1.
    8880022    1    1    2    0    0 -0.13750356010E+03  0.15417634882E+03  0.11798104514E+04  0.12074857887E+04  0.15294330000E+03 0.  0.
<mgrwt>
<rscale>  0 0.53922413E+03</rscale>
<asrwt>0</asrwt>
<pdfrwt beam="1">  1        2 0.65089710E-01 0.69028094E+03</pdfrwt>
<pdfrwt beam="2">  1       -2 0.22841925E+00 0.69028094E+03</pdfrwt>
<totfact> 0.67318985E+00</totfact>
</mgrwt>
</event>
<event>
 4    1  0.3565372E-007  0.6951082E+03  0.7818608E-02  0.1001813E+00
         -2   -1    0    0    0  501 -0.00000000000E+00  0.00000000000E+00  0.15385260495E+03  0.15385260497E+03  0.25500000000E-02 0.  1.
          2   -1    0    0  501    0  0.00000000000E+00 -0.00000000000E+00 -0.36907984820E+04  0.36907984820E+04  0.25500000000E-02 0. -1.
    8880023    1    1    2    0    0 -0.21770756133E+03 -0.44368890639E+02 -0.35047326286E+04  0.35729996060E+04  0.65864270000E+03 0. -1.
    8880022    1    1    2    0    0  0.21770756133E+03  0.44368890639E+02 -0.32213248511E+02  0.27165148097E+03  0.15294330000E+03 0.  0.
<mgrwt>
<rscale>  0 0.54862239E+03</rscale>
<asrwt>0</asrwt>
<pdfrwt beam="1">  1        2 0.56781508E+00 0.69510818E+03</pdfrwt>
<pdfrwt beam="2">  1       -2 0.23669634E-01 0.69510818E+03</pdfrwt>
<totfact> 0.10313137E+01</totfact>
</mgrwt>
</event>
<event>
 4    1  0.3565372E-007  0.8753031E+03  0.7818608E-02  0.9566901E-01
          2   -1    0    0  501    0  0.00000000000E+00  0.00000000000E+00  0.72796208486E+03  0.72796208487E+03  0.25500000000E-02 0. -1.
         -2   -1    0    0    0  501 -0.00000000000E+00 -0.00000000000E+00 -0.88766431237E+03  0.88766431237E+03  0.25500000000E-02 0.  1.
    8880023    1    1    2    0    0 -0.45846022341E+03  0.34951334363E+03  0.22767843397E+03  0.90442967078E+03  0.65864270000E+03 0.  0.
    8880022    1    1    2    0    0  0.45846022341E+03 -0.34951334363E+03 -0.38738066147E+03  0.71119672646E+03  0.15294330000E+03 0.  0.
<mgrwt>
<rscale>  0 0.79526156E+03</rscale>
<asrwt>0</asrwt>
<pdfrwt beam="1">  1        2 0.11199417E+00 0.87530312E+03</pdfrwt>
<pdfrwt beam="2">  1       -2 0.13656374E+00 0.87530312E+03</pdfrwt>
<totfact> 0.14971442E+01</totfact>
</mgrwt>
</event>
<event>
 4    1  0.3565372E-007  0.6927119E+03  0.7818608E-02  0.1002889E+00
         -2   -1    0    0    0  501 -0.00000000000E+00  0.00000000000E+00  0.11543134349E+03  0.11543134352E+03  0.25500000000E-02 0.  1.
          2   -1    0    0  501    0  0.00000000000E+00 -0.00000000000E+00 -0.35866153611E+04  0.35866153611E+04  0.25500000000E-02 0. -1.
    8880023    1    1    2    0    0  0.18546282793E+03  0.10790301871E+03 -0.33335624020E+04  0.34047742974E+04  0.65864270000E+03 0. -1.
    8880022    1    1    2    0    0 -0.18546282793E+03 -0.10790301871E+03 -0.13762161561E+03  0.29727240721E+03  0.15294330000E+03 0.  0.
<mgrwt>
<rscale>  0 0.54401238E+03</rscale>
<asrwt>0</asrwt>
<pdfrwt beam="1">  1        2 0.55178689E+00 0.69271187E+03</pdfrwt>
<pdfrwt beam="2">  1       -2 0.17758671E-01 0.69271187E+03</pdfrwt>
<totfact> 0.20231302E+01</totfact>
</mgrwt>
</event>
<event>
 4    1  0.3565372E-007  0.7350661E+03  0.7818608E-02  0.9874559E-01
          2   -1    0    0  501    0  0.00000000000E+00  0.00000000000E+00  0.74449027715E+03  0.74449027716E+03  0.25500000000E-02 0. -1.
         -2   -1    0    0    0  501 -0.00000000000E+00 -0.00000000000E+00 -0.68417760731E+03  0.68417760732E+03  0.25500000000E-02 0.  1.
    8880023    1    1    2    0    0  0.32139712733E+03  0.56708869889E+02  0.47812119794E+03  0.87688203059E+03  0.65864270000E+03 0.  0.
    8880022    1    1    2    0    0 -0.32139712733E+03 -0.56708869889E+02 -0.41780852810E+03  0.55178585389E+03  0.15294330000E+03 0.  0.
<mgrwt>
<rscale>  0 0.61510249E+03</rscale>
<asrwt>0</asrwt>
<pdfrwt beam="1">  1        2 0.11453697E+00 0.73506613E+03</pdfrwt>
<pdfrwt beam="2">  1       -2 0.10525809E+00 0.73506613E+03</pdfrwt>
<totfact> 0.28086070E+01</totfact>
</mgrwt>
</event>
<event>
 4    1  0.3565372E-007  0.9163040E+03  0.7818608E-02  0.9500350E-01
         -2   -1    0    0    0  501 -0.00000000000E+00  0.00000000000E+00  0.86620016120E+03  0.86620016121E+03  0.25500000000E-02 0.  1.
          2   -1    0    0  501    0  0.00000000000E+00 -0.00000000000E+00 -0.10052848179E+04  0.10052848179E+04  0.25500000000E-02 0. -1.
    8880023    1    1    2    0    0 -0.17516485033E+03 -0.61247043387E+03 -0.57758066304E+03  0.10831492906E+04  0.65864270000E+03 0.  0.
    8880022    1    1    2    0    0  0.17516485033E+03  0.61247043387E+03  0.43849600635E+03  0.78833568850E+03  0.15294330000E+03 0.  0.
<mgrwt>
<rscale>  0 0.84258056E+03</rscale>
<asrwt>0</asrwt>
<pdfrwt beam="1">  1        2 0.15465920E+00 0.91630397E+03</pdfrwt>
<pdfrwt beam="2">  1       -2 0.13326156E+00 0.91630397E+03</pdfrwt>
<totfact> 0.10187208E+01</totfact>
</mgrwt>
</event>
<event>
 4    1  0.3565372E-007  0.7068297E+03  0.7818608E-02  0.9969967E-01
          2   -1    0    0  501    0  0.00000000000E+00  0.00000000000E+00  0.64974742253E+03  0.64974742253E+03  0.25500000000E-02 0. -1.
         -2   -1    0    0    0  501 -0.00000000000E+00 -0.00000000000E+00 -0.65813090377E+03  0.65813090377E+03  0.25500000000E-02 0.  1.
    8880023    1    1    2    0    0  0.18262288422E+03 -0.18013022224E+03  0.39210057672E+03  0.80830135676E+03  0.65864270000E+03 0. -1.
    8880022    1    1    2    0    0 -0.18262288422E+03  0.18013022224E+03 -0.40048405796E+03  0.49957696955E+03  0.15294330000E+03 0.  1.
<mgrwt>
<rscale>  0 0.56986949E+03</rscale>
<asrwt>0</asrwt>
<pdfrwt beam="1">  1        2 0.99961142E-01 0.70682970E+03</pdfrwt>
<pdfrwt beam="2">  1       -2 0.10125091E+00 0.70682970E+03</pdfrwt>
<totfact> 0.36667423E+01</totfact>
</mgrwt>
</event>
<event>
 4    1  0.3565372E-007  0.6818077E+03  0.7818608E-02  0.1008319E+00
          2   -1    0    0  501    0  0.00000000000E+00  0.00000000000E+00  0.17364726956E+03  0.17364726958E+03  0.25500000000E-02 0. -1.
         -2   -1    0    0    0  501 -0.00000000000E+00 -0.00000000000E+00 -0.12822372851E+04  0.12822372851E+04  0.25500000000E-02 0.  1.
    8880023    1    1    2    0    0 -0.12227510759E+03 -0.12688690088E+03 -0.65325935894E+03  0.94425075264E+03  0.65864270000E+03 0. -1.
    8880022    1    1    2    0    0  0.12227510759E+03  0.12688690088E+03 -0.45533065663E+03  0.51163380208E+03  0.15294330000E+03 0.  1.
<mgrwt>
<rscale>  0 0.52148198E+03</rscale>
<asrwt>0</asrwt>
<pdfrwt beam="1">  1        2 0.26714965E-01 0.68180767E+03</pdfrwt>
<pdfrwt beam="2">  1       -2 0.19726727E+00 0.68180767E+03</pdfrwt>
<totfact> 0.28748569E+01</totfact>
</mgrwt>
</event>
<event>
 4    1  0.3565372E-007  0.1017355E+04  0.7818608E-02  0.9359196E-01
          2   -1    0    0  501    0  0.00000000000E+00  0.00000000000E+00  0.12539136631E+04  0.12539136632E+04  0.25500000000E-02 0. -1.
         -2   -1    0    0    0  501 -0.00000000000E+00 -0.00000000000E+00 -0.10771435559E+04  0.10771435559E+04  0.25500000000E-02 0.  1.
    8880023    1    1    2    0    0 -0.74083082159E+03  0.22884748992E+03  0.82427343051E+03  0.13093656382E+04  0.65864270000E+03 0.  0.
    8880022    1    1    2    0    0  0.74083082159E+03 -0.22884748992E+03 -0.64750332330E+03  0.10216915809E+04  0.15294330000E+03 0.  0.
<mgrwt>
<rscale>  0 0.95511160E+03</rscale>
<asrwt>0</asrwt>
<pdfrwt beam="1">  1        2 0.19290979E+00 0.10173552E+04</pdfrwt>
<pdfrwt beam="2">  1       -2 0.16571439E+00 0.10173552E+04</pdfrwt>
<totfact> 0.39827125E+00</totfact>
</mgrwt>
</event>
<event>
 4    1  0.3565372E-007  0.6832932E+03  0.7818608E-02  0.1007519E+00
         -2   -1    0    0    0  501 -0.00000000000E+00  0.00000000000E+00  0.14414014364E+04  0.14414014364E+04  0.25500000000E-02 0.  1.
          2   -1    0    0  501    0  0.00000000000E+00 -0.00000000000E+00 -0.71463089182E+03  0.71463089182E+03  0.25500000000E-02 0. -1.
    8880023    1    1    2    0    0 -0.49345584574E+01 -0.18181063911E+03 -0.53766046512E+03  0.86946445607E+03  0.65864270000E+03 0. -1.
    8880022    1    1    2    0    0  0.49345584574E+01  0.18181063911E+03  0.12644310097E+04  0.12865678722E+04  0.15294330000E+03 0.  0.
<mgrwt>
<rscale>  0 0.52472728E+03</rscale>
<asrwt>0</asrwt>
<pdfrwt beam="1">  1        2 0.10994322E+00 0.68329325E+03</pdfrwt>
<pdfrwt beam="2">  1       -2 0.22175406E+00 0.68329325E+03</pdfrwt>
<totfact> 0.39788573E+00</totfact>
</mgrwt>
</event>
<event>
 4    1  0.3565372E-007  0.7669761E+03  0.7818608E-02  0.9787371E-01
          2   -1    0    0  501    0  0.00000000000E+00  0.00000000000E+00  0.13463873173E+04  0.13463873173E+04  0.25500000000E-02 0. -1.
         -2   -1    0    0    0  501 -0.00000000000E+00 -0.00000000000E+00 -0.29406363302E+03  0.29406363303E+03  0.25500000000E-02 0.  1.
    8880023    1    1    2    0    0  0.12219910440E+03 -0.37350979206E+03  0.92149733448E+03  0.11989202349E+04  0.65864270000E+03 0.  0.
    8880022    1    1    2    0    0 -0.12219910440E+03  0.37350979206E+03  0.13082634982E+03  0.44153071547E+03  0.15294330000E+03 0.  0.
<mgrwt>
<rscale>  0 0.66044733E+03</rscale>
<asrwt>0</asrwt>
<pdfrwt beam="1">  1        2 0.20713651E+00 0.76697614E+03</pdfrwt>
<pdfrwt beam="2">  1       -2 0.45240559E-01 0.76697614E+03</pdfrwt>
<totfact> 0.73176702E+01</totfact>
</mgrwt>
</event>
<event>
 4    1  0.3565372E-007  0.8373565E+03  0.7818608E-02  0.9635185E-01
          2   -1    0    0  501    0  0.00000000000E+00  0.00000000000E+00  0.10724419678E+04  0.10724419678E+04  0.25500000000E-02 0. -1.
         -2   -1    0    0    0  501 -0.00000000000E+00 -0.00000000000E+00 -0.71062150122E+03  0.71062150122E+03  0.25500000000E-02 0.  1.
    8880023    1    1    2    0    0 -0.17922275647E+02  0.51675375521E+03  0.74561924273E+03  0.11212109136E+04  0.65864270000E+03 0.  0.
    8880022    1    1    2    0    0  0.17922275647E+02 -0.51675375521E+03 -0.38379877614E+03  0.66185255539E+03  0.15294330000E+03 0.  0.
<mgrwt>
<rscale>  0 0.75010532E+03</rscale>
<asrwt>0</asrwt>
<pdfrwt beam="1">  1        2 0.16499107E+00 0.83735647E+03</pdfrwt>
<pdfrwt beam="2">  1       -2 0.10932638E+00 0.83735647E+03</pdfrwt>
<totfact> 0.15237106E+01</totfact>
</mgrwt>
</event>
<event>
 4    1  0.3565372E-007  0.7480337E+03  0.7818608E-02  0.9837135E-01
          2   -1    0    0  501    0  0.00000000000E+00  0.00000000000E+00  0.30595816124E+04  0.30595816124E+04  0.25500000000E-02 0. -1.
         -2   -1    0    0    0  501 -0.00000000000E+00 -0.00000000000E+00 -0.36750051792E+03  0.36750051793E+03  0.25500000000E-02 0.  1.
    8880023    1    1    2    0    0 -0.34986148484E+03  0.57802448266E+02  0.28955261627E+04  0.29905895985E+04  0.65864270000E+03 0. -1.
    8880022    1    1    2    0    0  0.34986148484E+03 -0.57802448266E+02 -0.20344506816E+03  0.43649253187E+03  0.15294330000E+03 0.  0.
<mgrwt>
<rscale>  0 0.63407206E+03</rscale>
<asrwt>0</asrwt>
<pdfrwt beam="1">  1        2 0.47070484E+00 0.74803368E+03</pdfrwt>
<pdfrwt beam="2">  1       -2 0.56538544E-01 0.74803368E+03</pdfrwt>
<totfact> 0.50073610E+00</totfact>
</mgrwt>
</event>
<event>
 4    1  0.3565372E-007  0.7062893E+03  0.7818608E-02  0.9972047E-01
          2   -1    0    0  501    0  0.00000000000E+00  0.00000000000E+00  0.13691760217E+03  0.13691760220E+03  0.25500000000E-02 0. -1.
         -2   -1    0    0    0  501 -0.00000000000E+00 -0.00000000000E+00 -0.20534640952E+04  0.20534640952E+04  0.25500000000E-02 0.  1.
    8880023    1    1    2    0    0  0.39740150553E+02 -0.25190290848E+03 -0.98163859807E+03  0.12093216687E+04  0.65864270000E+03 0.  0.
    8880022    1    1    2    0    0 -0.39740150553E+02  0.25190290848E+03 -0.93490789495E+03  0.98106002871E+03  0.15294330000E+03 0.  0.
<mgrwt>
<rscale>  0 0.56893083E+03</rscale>
<asrwt>0</asrwt>
<pdfrwt beam="1">  1        2 0.21064248E-01 0.70628929E+03</pdfrwt>
<pdfrwt beam="2">  1       -2 0.31591753E+00 0.70628929E+03</pdfrwt>
<totfact> 0.71120153E+00</totfact>
</mgrwt>
</event>
<event>
 4    1  0.3565372E-007  0.6644148E+03  0.7818608E-02  0.1020030E+00
         -2   -1    0    0    0  501 -0.00000000000E+00  0.00000000000E+00  0.10153575676E+04  0.10153575676E+04  0.25500000000E-02 0.  1.
          2   -1    0    0  501    0  0.00000000000E+00 -0.00000000000E+00 -0.72503290301E+03  0.72503290302E+03  0.25500000000E-02 0. -1.
    8880023    1    1    2    0    0  0.72838204307E+02  0.48284562054E+02 -0.56189488869E+03  0.87015681066E+03  0.65864270000E+03 0. -1.
    8880022    1    1    2    0    0 -0.72838204307E+02 -0.48284562054E+02  0.85221955327E+03  0.87023365996E+03  0.15294330000E+03 0.  0.
<mgrwt>
<rscale>  0 0.47675964E+03</rscale>
<asrwt>0</asrwt>
<pdfrwt beam="1">  1        2 0.11154352E+00 0.66441479E+03</pdfrwt>
<pdfrwt beam="2">  1       -2 0.15620886E+00 0.66441479E+03</pdfrwt>
<totfact> 0.10806728E+01</totfact>
</mgrwt>
</event>
<event>
 4    1  0.3565372E-007  0.7965726E+03  0.7818608E-02  0.9718256E-01
          2   -1    0    0  501    0  0.00000000000E+00  0.00000000000E+00  0.14135314653E+04  0.14135314653E+04  0.25500000000E-02 0. -1.
         -2   -1    0    0    0  501 -0.00000000000E+00 -0.00000000000E+00 -0.54074411433E+03  0.54074411434E+03  0.25500000000E-02 0.  1.
    8880023    1    1    2    0    0  0.28507014790E+03 -0.34561926150E+03  0.11550644994E+04  0.14031043679E+04  0.65864270000E+03 0.  0.
    8880022    1    1    2    0    0 -0.28507014790E+03  0.34561926150E+03 -0.28227714842E+03  0.55117121177E+03  0.15294330000E+03 0.  0.
<mgrwt>
<rscale>  0 0.69940141E+03</rscale>
<asrwt>0</asrwt>
<pdfrwt beam="1">  1        2 0.21746638E+00 0.79657258E+03</pdfrwt>
<pdfrwt beam="2">  1       -2 0.83191403E-01 0.79657258E+03</pdfrwt>
<totfact> 0.18291661E+01</totfact>
</mgrwt>
</event>
<event>
 4    1  0.3565372E-007  0.7447560E+03  0.7818608E-02  0.9846304E-01
          2   -1    0    0  501    0  0.00000000000E+00  0.00000000000E+00  0.94703192833E+03  0.94703192833E+03  0.25500000000E-02 0. -1.
         -2   -1    0    0    0  501 -0.00000000000E+00 -0.00000000000E+00 -0.15036406907E+04  0.15036406907E+04  0.25500000000E-02 0.  1.
    8880023    1    1    2    0    0 -0.34167118602E+03 -0.64126087879E+02  0.76971791396E+03  0.10710402550E+04  0.65864270000E+03 0. -1.
    8880022    1    1    2    0    0  0.34167118602E+03  0.64126087879E+02 -0.13263266763E+04  0.13796323640E+04  0.15294330000E+03 0.  0.
<mgrwt>
<rscale>  0 0.62935744E+03</rscale>
<asrwt>0</asrwt>
<pdfrwt beam="1">  1        2 0.14569722E+00 0.74475604E+03</pdfrwt>
<pdfrwt beam="2">  1       -2 0.23132934E+00 0.74475604E+03</pdfrwt>
<totfact> 0.23564695E+00</totfact>
</mgrwt>
</event>
<event>
 4    1  0.3565372E-007  0.7530242E+03  0.7818608E-02  0.9823514E-01
         -2   -1    0    0    0  501 -0.00000000000E+00  0.00000000000E+00  0.70147795149E+03  0.70147795150E+03  0.25500000000E-02 0.  1.
          2   -1    0    0  501    0  0.00000000000E+00 -0.00000000000E+00 -0.90325422037E+03  0.90325422038E+03  0.25500000000E-02 0. -1.
    8880023    1    1    2    0    0  0.34499026307E+03 -0.11923507331E+03 -0.65854321894E+03  0.10003622653E+04  0.65864270000E+03 0. -1.
    8880022    1    1    2    0    0 -0.34499026307E+03  0.11923507331E+03  0.45676695006E+03  0.60436990659E+03  0.15294330000E+03 0.  0.
<mgrwt>
<rscale>  0 0.64115793E+03</rscale>
<asrwt>0</asrwt>
<pdfrwt beam="1">  1        2 0.13896219E+00 0.75302423E+03</pdfrwt>
<pdfrwt beam="2">  1       -2 0.10791968E+00 0.75302423E+03</pdfrwt>
<totfact> 0.20378313E+01</totfact>
</mgrwt>
</event>
<event>
 4    1  0.3565372E-007  0.9751932E+03  0.7818608E-02  0.9414757E-01
         -2   -1    0    0    0  501 -0.00000000000E+00  0.00000000000E+00  0.11504607269E+04  0.11504607269E+04  0.25500000000E-02 0.  1.
          2   -1    0    0  501    0  0.00000000000E+00 -0.00000000000E+00 -0.13444835762E+04  0.13444835762E+04  0.25500000000E-02 0. -1.
    8880023    1    1    2    0    0  0.35724618629E+03  0.62415285483E+03 -0.10049476867E+04  0.14003291339E+04  0.65864270000E+03 0.  0.
    8880022    1    1    2    0    0 -0.35724618629E+03 -0.62415285483E+03  0.81092483742E+03  0.10946151693E+04  0.15294330000E+03 0.  0.
<mgrwt>
<rscale>  0 0.90871110E+03</rscale>
<asrwt>0</asrwt>
<pdfrwt beam="1">  1        2 0.20684363E+00 0.97519323E+03</pdfrwt>
<pdfrwt beam="2">  1       -2 0.17699396E+00 0.97519323E+03</pdfrwt>
<totfact> 0.29480615E+00</totfact>
</mgrwt>
</event>
<event>
 4    1  0.3565372E-007  0.8551403E+03  0.7818608E-02  0.9602267E-01
         -2   -1    0    0    0  501 -0.00000000000E+00  0.00000000000E+00  0.44458949628E+03  0.44458949628E+03  0.25500000000E-02 0.  1.
          2   -1    0    0  501    0  0.00000000000E+00 -0.00000000000E+00 -0.20803242250E+04  0.20803242250E+04  0.25500000000E-02 0. -1.
    8880023    1    1    2    0    0  0.49612808261E+03 -0.22652074337E+03 -0.17493715474E+04  0.19471943248E+04  0.65864270000E+03 0. -1.
    8880022    1    1    2    0    0 -0.49612808261E+03  0.22652074337E+03  0.11363681863E+03  0.57771939650E+03  0.15294330000E+03 0.  0.
<mgrwt>
<rscale>  0 0.77146312E+03</rscale>
<asrwt>0</asrwt>
<pdfrwt beam="1">  1        2 0.32004987E+00 0.85514030E+03</pdfrwt>
<pdfrwt beam="2">  1       -2 0.68398386E-01 0.85514030E+03</pdfrwt>
<totfact> 0.12040444E+01</totfact>
</mgrwt>
</event>
<event>
 4    1  0.3565372E-007  0.9618902E+03  0.7818608E-02  0.9433209E-01
         -2   -1    0    0    0  501 -0.00000000000E+00  0.00000000000E+00  0.24287874504E+03  0.24287874505E+03  0.25500000000E-02 0.  1.
          2   -1    0    0  501    0  0.00000000000E+00 -0.00000000000E+00 -0.29936235545E+04  0.29936235545E+04  0.25500000000E-02 0. -1.
    8880023    1    1    2    0    0  0.39025828075E+03  0.58234106037E+03 -0.18480145285E+04  0.20833603962E+04  0.65864270000E+03 0.  1.
    8880022    1    1    2    0    0 -0.39025828075E+03 -0.58234106037E+03 -0.90273028092E+03  0.11531419034E+04  0.15294330000E+03 0.  0.
<mgrwt>
<rscale>  0 0.89392373E+03</rscale>
<asrwt>0</asrwt>
<pdfrwt beam="1">  1        2 0.46055744E+00 0.96189024E+03</pdfrwt>
<pdfrwt beam="2">  1       -2 0.37365963E-01 0.96189024E+03</pdfrwt>
<totfact> 0.12199492E+01</totfact>
</mgrwt>
</event>
<event>
 4    1  0.4009227E-007  0.7620196E+03  0.7818608E-02  0.9799907E-01
          2   -1    0    0  501    0  0.00000000000E+00  0.00000000000E+00  0.14181001028E+04  0.14181001028E+04  0.25500000000E-02 0. -1.
         -2   -1    0    0    0  501 -0.00000000000E+00 -0.00000000000E+00 -0.14507004486E+04  0.14507004486E+04  0.25500000000E-02 0.  1.
    8880023    1    1    2    0    0  0.14962281200E+03 -0.35281257126E+03  0.12817744941E+04  0.14911806585E+04  0.65864270000E+03 0.  0.
    8880022    1    1    2    0    0 -0.14962281200E+03  0.35281257126E+03 -0.13143748399E+04  0.13776198928E+04  0.15294330000E+03 0.  1.
<mgrwt>
<rscale>  0 0.65367551E+03</rscale>
<asrwt>0</asrwt>
<pdfrwt beam="1">  1        2 0.21816925E+00 0.76201962E+03</pdfrwt>
<pdfrwt beam="2">  1       -2 0.22318468E+00 0.76201962E+03</pdfrwt>
<totfact> 0.13768098E+00</totfact>
</mgrwt>
</event>
<event>
 4    1  0.3565372E-007  0.6959925E+03  0.7818608E-02  0.1001425E+00
          2   -1    0    0  501    0  0.00000000000E+00  0.00000000000E+00  0.19533185159E+04  0.19533185159E+04  0.25500000000E-02 0. -1.
         -2   -1    0    0    0  501 -0.00000000000E+00 -0.00000000000E+00 -0.23385661093E+03  0.23385661095E+03  0.25500000000E-02 0.  1.
    8880023    1    1    2    0    0  0.15651640712E+03  0.16154877765E+03  0.17776257030E+04  0.19090203612E+04  0.65864270000E+03 0. -1.
    8880022    1    1    2    0    0 -0.15651640712E+03 -0.16154877765E+03 -0.58163797995E+02  0.27815476568E+03  0.15294330000E+03 0.  0.
<mgrwt>
<rscale>  0 0.55029795E+03</rscale>
<asrwt>0</asrwt>
<pdfrwt beam="1">  1        2 0.30051056E+00 0.69599253E+03</pdfrwt>
<pdfrwt beam="2">  1       -2 0.35977937E-01 0.69599253E+03</pdfrwt>
<totfact> 0.53364518E+01</totfact>
</mgrwt>
</event>
<event>
 4    1  0.3565372E-007  0.7364420E+03  0.7818608E-02  0.9870435E-01
         -2   -1    0    0    0  501 -0.00000000000E+00  0.00000000000E+00  0.67387236036E+03  0.67387236036E+03  0.25500000000E-02 0.  1.
          2   -1    0    0  501    0  0.00000000000E+00 -0.00000000000E+00 -0.12547724918E+04  0.12547724918E+04  0.25500000000E-02 0. -1.
    8880023    1    1    2    0    0  0.16234648699E+03 -0.28667084526E+03 -0.10825547936E+04  0.13093019677E+04  0.65864270000E+03 0.  0.
    8880022    1    1    2    0    0 -0.16234648699E+03  0.28667084526E+03  0.50165466217E+03  0.61934288439E+03  0.15294330000E+03 0.  0.
<mgrwt>
<rscale>  0 0.61715763E+03</rscale>
<asrwt>0</asrwt>
<pdfrwt beam="1">  1        2 0.19304192E+00 0.73644196E+03</pdfrwt>
<pdfrwt beam="2">  1       -2 0.10367267E+00 0.73644196E+03</pdfrwt>
<totfact> 0.13610931E+01</totfact>
</mgrwt>
</event>
<event>
 4    1  0.3565372E-007  0.8546703E+03  0.7818608E-02  0.9603115E-01
          2   -1    0    0  501    0  0.00000000000E+00  0.00000000000E+00  0.31549171779E+04  0.31549171779E+04  0.25500000000E-02 0. -1.
         -2   -1    0    0    0  501 -0.00000000000E+00 -0.00000000000E+00 -0.16507196254E+03  0.16507196256E+03  0.25500000000E-02 0.  1.
    8880023    1    1    2    0    0  0.53410694546E+03 -0.10668140053E+03  0.20781402650E+04  0.22470265502E+04  0.65864270000E+03 0.  1.
    8880022    1    1    2    0    0 -0.53410694546E+03  0.10668140053E+03  0.91170495043E+03  0.10729625902E+04  0.15294330000E+03 0.  0.
<mgrwt>
<rscale>  0 0.77090343E+03</rscale>
<asrwt>0</asrwt>
<pdfrwt beam="1">  1        2 0.48537185E+00 0.85467032E+03</pdfrwt>
<pdfrwt beam="2">  1       -2 0.25395688E-01 0.85467032E+03</pdfrwt>
<totfact> 0.20229008E+01</totfact>
</mgrwt>
</event>
<event>
 4    1  0.3565372E-007  0.6921064E+03  0.7818608E-02  0.1003167E+00
         -2   -1    0    0    0  501 -0.00000000000E+00  0.00000000000E+00  0.11989310278E+03  0.11989310281E+03  0.25500000000E-02 0.  1.
          2   -1    0    0  501    0  0.00000000000E+00 -0.00000000000E+00 -0.20807701919E+04  0.20807701919E+04  0.25500000000E-02 0. -1.
    8880023    1    1    2    0    0  0.18960550170E+03  0.96181248182E+02 -0.10892034356E+04  0.12904942500E+04  0.65864270000E+03 0.  1.
    8880022    1    1    2    0    0 -0.18960550170E+03 -0.96181248182E+02 -0.87167365352E+03  0.91016904475E+03  0.15294330000E+03 0.  0.
<mgrwt>
<rscale>  0 0.54283072E+03</rscale>
<asrwt>0</asrwt>
<pdfrwt beam="1">  1        2 0.32011846E+00 0.69210641E+03</pdfrwt>
<pdfrwt beam="2">  1       -2 0.18445094E-01 0.69210641E+03</pdfrwt>
<totfact> 0.15285897E+02</totfact>
</mgrwt>
</event>
<event>
 4    1  0.3565372E-007  0.8553733E+03  0.7818608E-02  0.9601847E-01
         -2   -1    0    0    0  501 -0.00000000000E+00  0.00000000000E+00  0.37448405318E+03  0.37448405319E+03  0.25500000000E-02 0.  1.
          2   -1    0    0  501    0  0.00000000000E+00 -0.00000000000E+00 -0.13611653884E+04  0.13611653884E+04  0.25500000000E-02 0. -1.
    8880023    1    1    2    0    0 -0.39033886779E+03  0.38142997352E+03 -0.66888296780E+03  0.10858489247E+04  0.65864270000E+03 0.  0.
    8880022    1    1    2    0    0  0.39033886779E+03 -0.38142997352E+03 -0.31779836743E+03  0.64980051690E+03  0.15294330000E+03 0.  1.
<mgrwt>
<rscale>  0 0.77174050E+03</rscale>
<asrwt>0</asrwt>
<pdfrwt beam="1">  1        2 0.20941006E+00 0.85537329E+03</pdfrwt>
<pdfrwt beam="2">  1       -2 0.57612932E-01 0.85537329E+03</pdfrwt>
<totfact> 0.43407762E+01</totfact>
</mgrwt>
</event>
<event>
 4    1  0.3565372E-007  0.7275236E+03  0.7818608E-02  0.9897905E-01
          2   -1    0    0  501    0  0.00000000000E+00  0.00000000000E+00  0.10152773618E+04  0.10152773618E+04  0.25500000000E-02 0. -1.
         -2   -1    0    0    0  501 -0.00000000000E+00 -0.00000000000E+00 -0.15175436033E+04  0.15175436033E+04  0.25500000000E-02 0.  1.
    8880023    1    1    2    0    0 -0.94331931735E+02 -0.29424794994E+03  0.86066427797E+03  0.11269576634E+04  0.65864270000E+03 0.  0.
    8880022    1    1    2    0    0  0.94331931735E+02  0.29424794994E+03 -0.13629305194E+04  0.14058633018E+04  0.15294330000E+03 0.  0.
<mgrwt>
<rscale>  0 0.60362924E+03</rscale>
<asrwt>0</asrwt>
<pdfrwt beam="1">  1        2 0.15619652E+00 0.72752359E+03</pdfrwt>
<pdfrwt beam="2">  1       -2 0.23346825E+00 0.72752359E+03</pdfrwt>
<totfact> 0.20719914E+00</totfact>
</mgrwt>
</event>
<event>
 4    1  0.3565372E-007  0.6947884E+03  0.7818608E-02  0.1001955E+00
         -2   -1    0    0    0  501 -0.00000000000E+00  0.00000000000E+00  0.73164856386E+03  0.73164856386E+03  0.25500000000E-02 0.  1.
          2   -1    0    0  501    0  0.00000000000E+00 -0.00000000000E+00 -0.47962255314E+03  0.47962255314E+03  0.25500000000E-02 0. -1.
    8880023    1    1    2    0    0 -0.69352469877E+02  0.21002622559E+03 -0.16588623540E+03  0.71431731735E+03  0.65864270000E+03 0.  0.
    8880022    1    1    2    0    0  0.69352469877E+02 -0.21002622559E+03  0.41791224613E+03  0.49695379965E+03  0.15294330000E+03 0.  0.
<mgrwt>
<rscale>  0 0.54801326E+03</rscale>
<asrwt>0</asrwt>
<pdfrwt beam="1">  1        2 0.73788085E-01 0.69478845E+03</pdfrwt>
<pdfrwt beam="2">  1       -2 0.11256132E+00 0.69478845E+03</pdfrwt>
<totfact> 0.40791387E+01</totfact>
</mgrwt>
</event>
<event>
 4    1  0.3565372E-007  0.1001823E+04  0.7818608E-02  0.9379176E-01
          2   -1    0    0  501    0  0.00000000000E+00  0.00000000000E+00  0.11754165445E+04  0.11754165445E+04  0.25500000000E-02 0. -1.
         -2   -1    0    0    0  501 -0.00000000000E+00 -0.00000000000E+00 -0.76821308542E+03  0.76821308542E+03  0.25500000000E-02 0.  1.
    8880023    1    1    2    0    0  0.27636831500E+03 -0.70246741705E+03  0.57533778860E+03  0.11552764582E+04  0.65864270000E+03 0.  0.
    8880022    1    1    2    0    0 -0.27636831500E+03  0.70246741705E+03 -0.16813432955E+03  0.78835317171E+03  0.15294330000E+03 0.  0.
<mgrwt>
<rscale>  0 0.93809411E+03</rscale>
<asrwt>0</asrwt>
<pdfrwt beam="1">  1        2 0.18083331E+00 0.10018234E+04</pdfrwt>
<pdfrwt beam="2">  1       -2 0.11818663E+00 0.10018234E+04</pdfrwt>
<totfact> 0.10725971E+01</totfact>
</mgrwt>
</event>
<event>
 4    1  0.3565372E-007  0.6621268E+03  0.7818608E-02  0.1022076E+00
          2   -1    0    0  501    0  0.00000000000E+00  0.00000000000E+00  0.23915643096E+04  0.23915643096E+04  0.25500000000E-02 0. -1.
         -2   -1    0    0    0  501 -0.00000000000E+00 -0.00000000000E+00 -0.11141188250E+03  0.11141188253E+03  0.25500000000E-02 0.  1.
    8880023    1    1    2    0    0 -0.59448030756E+02  0.32674744031E+02  0.22330696704E+04  0.23291655301E+04  0.65864270000E+03 0. -1.
    8880022    1    1    2    0    0  0.59448030756E+02 -0.32674744031E+02  0.47082756698E+02  0.17381066208E+03  0.15294330000E+03 0.  0.
<mgrwt>
<rscale>  0 0.46944829E+03</rscale>
<asrwt>0</asrwt>
<pdfrwt beam="1">  1        2 0.36793294E+00 0.66212681E+03</pdfrwt>
<pdfrwt beam="2">  1       -2 0.17140291E-01 0.66212681E+03</pdfrwt>
<totfact> 0.11730640E+02</totfact>
</mgrwt>
</event>
<event>
 4    1  0.3565372E-007  0.7719510E+03  0.7818608E-02  0.9775096E-01
         -2   -1    0    0    0  501 -0.00000000000E+00  0.00000000000E+00  0.13190011997E+04  0.13190011997E+04  0.25500000000E-02 0.  1.
          2   -1    0    0  501    0  0.00000000000E+00 -0.00000000000E+00 -0.38411295826E+03  0.38411295827E+03  0.25500000000E-02 0. -1.
    8880023    1    1    2    0    0 -0.33863262837E+02 -0.40118754872E+03  0.11973883645E+03  0.78118228669E+03  0.65864270000E+03 0.  0.
    8880022    1    1    2    0    0  0.33863262837E+02  0.40118754872E+03  0.81514940503E+03  0.92193187132E+03  0.15294330000E+03 0.  0.
<mgrwt>
<rscale>  0 0.66716356E+03</rscale>
<asrwt>0</asrwt>
<pdfrwt beam="1">  1        2 0.59094302E-01 0.77195102E+03</pdfrwt>
<pdfrwt beam="2">  1       -2 0.20292326E+00 0.77195102E+03</pdfrwt>
<totfact> 0.10769937E+01</totfact>
</mgrwt>
</event>
<event>
 4    1  0.3565372E-007  0.7657617E+03  0.7818608E-02  0.9790413E-01
         -2   -1    0    0    0  501 -0.00000000000E+00  0.00000000000E+00  0.20535381579E+03  0.20535381581E+03  0.25500000000E-02 0.  1.
          2   -1    0    0  501    0  0.00000000000E+00 -0.00000000000E+00 -0.27750658023E+04  0.27750658023E+04  0.25500000000E-02 0. -1.
    8880023    1    1    2    0    0  0.24033268022E+03  0.30793021252E+03 -0.24146866423E+04  0.25332000710E+04  0.65864270000E+03 0. -1.
    8880022    1    1    2    0    0 -0.24033268022E+03 -0.30793021252E+03 -0.15502534422E+03  0.44721954712E+03  0.15294330000E+03 0.  0.
<mgrwt>
<rscale>  0 0.65879581E+03</rscale>
<asrwt>0</asrwt>
<pdfrwt beam="1">  1        2 0.42693317E+00 0.76576172E+03</pdfrwt>
<pdfrwt beam="2">  1       -2 0.31592897E-01 0.76576172E+03</pdfrwt>
<totfact> 0.23375507E+01</totfact>
</mgrwt>
</event>
<event>
 4    1  0.3565372E-007  0.7816987E+03  0.7818608E-02  0.9751862E-01
         -2   -1    0    0    0  501 -0.00000000000E+00  0.00000000000E+00  0.94011980450E+03  0.94011980450E+03  0.25500000000E-02 0.  1.
          2   -1    0    0  501    0  0.00000000000E+00 -0.00000000000E+00 -0.43006840375E+03  0.43006840376E+03  0.25500000000E-02 0. -1.
    8880023    1    1    2    0    0  0.15834857039E+03  0.39008772037E+03  0.15106343844E+03  0.79616145852E+03  0.65864270000E+03 0. -1.
    8880022    1    1    2    0    0 -0.15834857039E+03 -0.39008772037E+03  0.35898796231E+03  0.57402674975E+03  0.15294330000E+03 0.  0.
<mgrwt>
<rscale>  0 0.68011165E+03</rscale>
<asrwt>0</asrwt>
<pdfrwt beam="1">  1        2 0.66164370E-01 0.78169873E+03</pdfrwt>
<pdfrwt beam="2">  1       -2 0.14463381E+00 0.78169873E+03</pdfrwt>
<totfact> 0.24407645E+01</totfact>
</mgrwt>
</event>
<event>
 4    1  0.3565372E-007  0.6788569E+03  0.7818608E-02  0.1009978E+00
          2   -1    0    0  501    0  0.00000000000E+00  0.00000000000E+00  0.26826492292E+04  0.26826492292E+04  0.25500000000E-02 0. -1.
         -2   -1    0    0    0  501 -0.00000000000E+00 -0.00000000000E+00 -0.28759268387E+03  0.28759268388E+03  0.25500000000E-02 0.  1.
    8880023    1    1    2    0    0 -0.59173010893E+02  0.15341113122E+03  0.25871479989E+04  0.26747301536E+04  0.65864270000E+03 0. -1.
    8880022    1    1    2    0    0  0.59173010893E+02 -0.15341113122E+03 -0.19209145358E+03  0.29551175942E+03  0.15294330000E+03 0.  0.
<mgrwt>
<rscale>  0 0.51483457E+03</rscale>
<asrwt>0</asrwt>
<pdfrwt beam="1">  1        2 0.41271528E+00 0.67885685E+03</pdfrwt>
<pdfrwt beam="2">  1       -2 0.44245026E-01 0.67885685E+03</pdfrwt>
<totfact> 0.14036333E+01</totfact>
</mgrwt>
</event>
<event>
 4    1  0.3565372E-007  0.7050218E+03  0.7818608E-02  0.9976974E-01
         -2   -1    0    0    0  501 -0.00000000000E+00  0.00000000000E+00  0.63072528323E+03  0.63072528323E+03  0.25500000000E-02 0.  1.
          2   -1    0    0  501    0  0.00000000000E+00 -0.00000000000E+00 -0.74718235042E+03  0.74718235042E+03  0.25500000000E-02 0. -1.
    8880023    1    1    2    0    0  0.24609091332E+03  0.51814607019E+02 -0.52169555263E+03  0.87705298986E+03  0.65864270000E+03 0.  0.
    8880022    1    1    2    0    0 -0.24609091332E+03 -0.51814607019E+02  0.40523848544E+03  0.50085464380E+03  0.15294330000E+03 0.  0.
<mgrwt>
<rscale>  0 0.56671527E+03</rscale>
<asrwt>0</asrwt>
<pdfrwt beam="1">  1        2 0.11495113E+00 0.70502177E+03</pdfrwt>
<pdfrwt beam="2">  1       -2 0.97034660E-01 0.70502177E+03</pdfrwt>
<totfact> 0.34007357E+01</totfact>
</mgrwt>
</event>
<event>
 4    1  0.3565372E-007  0.7124018E+03  0.7818608E-02  0.9949188E-01
         -2   -1    0    0    0  501 -0.00000000000E+00  0.00000000000E+00  0.41239735793E+03  0.41239735793E+03  0.25500000000E-02 0.  1.
          2   -1    0    0  501    0  0.00000000000E+00 -0.00000000000E+00 -0.65860817363E+03  0.65860817364E+03  0.25500000000E-02 0. -1.
    8880023    1    1    2    0    0  0.57718242102E+02  0.26528243907E+03 -0.26186913840E+03  0.75900712767E+03  0.65864270000E+03 0.  0.
    8880022    1    1    2    0    0 -0.57718242102E+02 -0.26528243907E+03  0.15658322694E+02  0.31199840390E+03  0.15294330000E+03 0. -1.
<mgrwt>
<rscale>  0 0.57935526E+03</rscale>
<asrwt>0</asrwt>
<pdfrwt beam="1">  1        2 0.10132433E+00 0.71240183E+03</pdfrwt>
<pdfrwt beam="2">  1       -2 0.63445747E-01 0.71240183E+03</pdfrwt>
<totfact> 0.10313749E+02</totfact>
</mgrwt>
</event>
<event>
 4    1  0.9254001E-007  0.1092727E+04  0.7818608E-02  0.9269197E-01
         -2   -1    0    0    0  501 -0.00000000000E+00  0.00000000000E+00  0.14520955202E+04  0.14520955202E+04  0.25500000000E-02 0.  1.
          2   -1    0    0  501    0  0.00000000000E+00 -0.00000000000E+00 -0.27895761338E+04  0.27895761338E+04  0.25500000000E-02 0. -1.
    8880023    1    1    2    0    0 -0.59533289878E+03  0.63704146909E+03 -0.25303514814E+04  0.27562169579E+04  0.65864270000E+03 0. -1.
    8880022    1    1    2    0    0  0.59533289878E+03 -0.63704146909E+03  0.11928708678E+04  0.14854546960E+04  0.15294330000E+03 0.  0.
<mgrwt>
<rscale>  0 0.10366881E+04</rscale>
<asrwt>0</asrwt>
<pdfrwt beam="1">  1        2 0.42916556E+00 0.10927275E+04</pdfrwt>
<pdfrwt beam="2">  1       -2 0.22339931E+00 0.10927275E+04</pdfrwt>
<totfact> 0.22013904E-01</totfact>
</mgrwt>
</event>
<event>
 4    1  0.3565372E-007  0.8311509E+03  0.7818608E-02  0.9647097E-01
         -2   -1    0    0    0  501 -0.00000000000E+00  0.00000000000E+00  0.71499541809E+03  0.71499541809E+03  0.25500000000E-02 0.  1.
          2   -1    0    0  501    0  0.00000000000E+00 -0.00000000000E+00 -0.14299042501E+04  0.14299042501E+04  0.25500000000E-02 0. -1.
    8880023    1    1    2    0    0 -0.49993278538E+03 -0.84076010091E+02 -0.11778287663E+04  0.14415590082E+04  0.65864270000E+03 0. -1.
    8880022    1    1    2    0    0  0.49993278538E+03  0.84076010091E+02  0.46291993425E+03  0.70334065993E+03  0.15294330000E+03 0.  0.
<mgrwt>
<rscale>  0 0.74255878E+03</rscale>
<asrwt>0</asrwt>
<pdfrwt beam="1">  1        2 0.21998527E+00 0.83115087E+03</pdfrwt>
<pdfrwt beam="2">  1       -2 0.10999930E+00 0.83115087E+03</pdfrwt>
<totfact> 0.92588712E+00</totfact>
</mgrwt>
</event>
<event>
 4    1  0.3565372E-007  0.8612328E+03  0.7818608E-02  0.9591374E-01
         -2   -1    0    0    0  501 -0.00000000000E+00  0.00000000000E+00  0.91717466063E+03  0.91717466063E+03  0.25500000000E-02 0.  1.
          2   -1    0    0  501    0  0.00000000000E+00 -0.00000000000E+00 -0.62797137198E+03  0.62797137199E+03  0.25500000000E-02 0. -1.
    8880023    1    1    2    0    0  0.55441948560E+03  0.23039960634E+02  0.41494494188E+03  0.95598186011E+03  0.65864270000E+03 0.  1.
    8880022    1    1    2    0    0 -0.55441948560E+03 -0.23039960634E+02 -0.12574165324E+03  0.58916417251E+03  0.15294330000E+03 0. -1.
<mgrwt>
<rscale>  0 0.77869733E+03</rscale>
<asrwt>0</asrwt>
<pdfrwt beam="1">  1        2 0.96610981E-01 0.86123284E+03</pdfrwt>
<pdfrwt beam="2">  1       -2 0.14110379E+00 0.86123284E+03</pdfrwt>
<totfact> 0.16576679E+01</totfact>
</mgrwt>
</event>
<event>
 4    1  0.3565372E-007  0.6916668E+03  0.7818608E-02  0.1003370E+00
          2   -1    0    0  501    0  0.00000000000E+00  0.00000000000E+00  0.32064196797E+04  0.32064196797E+04  0.25500000000E-02 0. -1.
         -2   -1    0    0    0  501 -0.00000000000E+00 -0.00000000000E+00 -0.84658933772E+02  0.84658933810E+02  0.25500000000E-02 0.  1.
    8880023    1    1    2    0    0 -0.16652616583E+03  0.12985272671E+03  0.27587312495E+04  0.28441169117E+04  0.65864270000E+03 0. -1.
    8880022    1    1    2    0    0  0.16652616583E+03 -0.12985272671E+03  0.36302949644E+03  0.44696170176E+03  0.15294330000E+03 0.  0.
<mgrwt>
<rscale>  0 0.54196819E+03</rscale>
<asrwt>0</asrwt>
<pdfrwt beam="1">  1        2 0.49329531E+00 0.69166676E+03</pdfrwt>
<pdfrwt beam="2">  1       -2 0.13024452E-01 0.69166676E+03</pdfrwt>
<totfact> 0.61182880E+01</totfact>
</mgrwt>
</event>
<event>
 4    1  0.3565372E-007  0.1205107E+04  0.7818608E-02  0.9152173E-01
         -2   -1    0    0    0  501 -0.00000000000E+00  0.00000000000E+00  0.11306660167E+04  0.11306660167E+04  0.25500000000E-02 0.  1.
          2   -1    0    0  501    0  0.00000000000E+00 -0.00000000000E+00 -0.20314563547E+04  0.20314563547E+04  0.25500000000E-02 0. -1.
    8880023    1    1    2    0    0  0.53726184648E+03 -0.85429709965E+03 -0.15417428882E+04  0.19568482736E+04  0.65864270000E+03 0.  0.
    8880022    1    1    2    0    0 -0.53726184648E+03  0.85429709965E+03  0.64095255031E+03  0.12052740978E+04  0.15294330000E+03 0.  0.
<mgrwt>
<rscale>  0 0.11561010E+04</rscale>
<asrwt>0</asrwt>
<pdfrwt beam="1">  1        2 0.31253175E+00 0.12051075E+04</pdfrwt>
<pdfrwt beam="2">  1       -2 0.17394862E+00 0.12051075E+04</pdfrwt>
<totfact> 0.12459584E+00</totfact>
</mgrwt>
</event>
<event>
 4    1  0.3565372E-007  0.6856024E+03  0.7818608E-02  0.1006317E+00
          2   -1    0    0  501    0  0.00000000000E+00  0.00000000000E+00  0.65076008831E+03  0.65076008832E+03  0.25500000000E-02 0. -1.
         -2   -1    0    0    0  501 -0.00000000000E+00 -0.00000000000E+00 -0.12871224100E+04  0.12871224100E+04  0.25500000000E-02 0.  1.
    8880023    1    1    2    0    0  0.12751516494E+03 -0.14135171684E+03  0.45283210803E+03  0.82164928617E+03  0.65864270000E+03 0. -1.
    8880022    1    1    2    0    0 -0.12751516494E+03  0.14135171684E+03 -0.10891944298E+04  0.11162332122E+04  0.15294330000E+03 0.  0.
<mgrwt>
<rscale>  0 0.52965031E+03</rscale>
<asrwt>0</asrwt>
<pdfrwt beam="1">  1        2 0.10011694E+00 0.68560239E+03</pdfrwt>
<pdfrwt beam="2">  1       -2 0.19801883E+00 0.68560239E+03</pdfrwt>
<totfact> 0.63300587E+00</totfact>
</mgrwt>
</event>
<event>
 4    1  0.3565372E-007  0.6807379E+03  0.7818608E-02  0.1008909E+00
          2   -1    0    0  501    0  0.00000000000E+00  0.00000000000E+00  0.14545165388E+04  0.14545165388E+04  0.25500000000E-02 0. -1.
         -2   -1    0    0    0  501 -0.00000000000E+00 -0.00000000000E+00 -0.17874656251E+03  0.17874656253E+03  0.25500000000E-02 0.  1.
    8880023    1    1    2    0    0 -0.14683446841E+03 -0.89629588098E+02  0.12189740500E+04  0.13961739737E+04  0.65864270000E+03 0. -1.
    8880022    1    1    2    0    0  0.14683446841E+03  0.89629588098E+02  0.56795926369E+02  0.23708912764E+03  0.15294330000E+03 0.  0.
<mgrwt>
<rscale>  0 0.51910419E+03</rscale>
<asrwt>0</asrwt>
<pdfrwt beam="1">  1        2 0.22377177E+00 0.68073786E+03</pdfrwt>
<pdfrwt beam="2">  1       -2 0.27499471E-01 0.68073786E+03</pdfrwt>
<totfact> 0.16562944E+02</totfact>
</mgrwt>
</event>
<event>
 4    1  0.3565372E-007  0.7140354E+03  0.7818608E-02  0.9943310E-01
          2   -1    0    0  501    0  0.00000000000E+00  0.00000000000E+00  0.23256164567E+04  0.23256164567E+04  0.25500000000E-02 0. -1.
         -2   -1    0    0    0  501 -0.00000000000E+00 -0.00000000000E+00 -0.22660143942E+03  0.22660143943E+03  0.25500000000E-02 0.  1.
    8880023    1    1    2    0    0  0.58089016150E+02  0.26955893606E+03  0.21191913309E+04  0.22362509826E+04  0.65864270000E+03 0. -1.
    8880022    1    1    2    0    0 -0.58089016150E+02 -0.26955893606E+03 -0.20176313642E+02  0.31596691354E+03  0.15294330000E+03 0.  0.
<mgrwt>
<rscale>  0 0.58207427E+03</rscale>
<asrwt>0</asrwt>
<pdfrwt beam="1">  1        2 0.35778716E+00 0.71403541E+03</pdfrwt>
<pdfrwt beam="2">  1       -2 0.34861759E-01 0.71403541E+03</pdfrwt>
<totfact> 0.35319169E+01</totfact>
</mgrwt>
</event>
<event>
 4    1  0.3565372E-007  0.7357921E+03  0.7818608E-02  0.9872378E-01
          2   -1    0    0  501    0  0.00000000000E+00  0.00000000000E+00  0.13858226765E+04  0.13858226765E+04  0.25500000000E-02 0. -1.
         -2   -1    0    0    0  501 -0.00000000000E+00 -0.00000000000E+00 -0.29438469554E+03  0.29438469555E+03  0.25500000000E-02 0.  1.
    8880023    1    1    2    0    0 -0.24594481891E+03 -0.21700435812E+03  0.10938573148E+04  0.13182995778E+04  0.65864270000E+03 0.  0.
    8880022    1    1    2    0    0  0.24594481891E+03  0.21700435812E+03 -0.24193337866E+01  0.36190779431E+03  0.15294330000E+03 0.  0.
<mgrwt>
<rscale>  0 0.61618820E+03</rscale>
<asrwt>0</asrwt>
<pdfrwt beam="1">  1        2 0.21320349E+00 0.73579206E+03</pdfrwt>
<pdfrwt beam="2">  1       -2 0.45289954E-01 0.73579206E+03</pdfrwt>
<totfact> 0.69541862E+01</totfact>
</mgrwt>
</event>
<event>
 4    1  0.3565372E-007  0.8494934E+03  0.7818608E-02  0.9612533E-01
          2   -1    0    0  501    0  0.00000000000E+00  0.00000000000E+00  0.42356205726E+03  0.42356205727E+03  0.25500000000E-02 0. -1.
         -2   -1    0    0    0  501 -0.00000000000E+00 -0.00000000000E+00 -0.15565058451E+04  0.15565058451E+04  0.25500000000E-02 0.  1.
    8880023    1    1    2    0    0  0.39729512401E+03 -0.36053499302E+03 -0.16871540469E+03  0.86608544082E+03  0.65864270000E+03 0. -1.
    8880022    1    1    2    0    0 -0.39729512401E+03  0.36053499302E+03 -0.96422838315E+03  0.11139824616E+04  0.15294330000E+03 0.  0.
<mgrwt>
<rscale>  0 0.76472195E+03</rscale>
<asrwt>0</asrwt>
<pdfrwt beam="1">  1        2 0.65163394E-01 0.84949344E+03</pdfrwt>
<pdfrwt beam="2">  1       -2 0.23946244E+00 0.84949344E+03</pdfrwt>
<totfact> 0.56442604E+00</totfact>
</mgrwt>
</event>
<event>
 4    1  0.3565372E-007  0.1307297E+04  0.7818608E-02  0.9059284E-01
          2   -1    0    0  501    0  0.00000000000E+00  0.00000000000E+00  0.18774354382E+04  0.18774354382E+04  0.25500000000E-02 0. -1.
         -2   -1    0    0    0  501 -0.00000000000E+00 -0.00000000000E+00 -0.28087504817E+04  0.28087504817E+04  0.25500000000E-02 0.  1.
    8880023    1    1    2    0    0 -0.14320862177E+03 -0.11201374154E+04 -0.24562600221E+04  0.27824881026E+04  0.65864270000E+03 0.  0.
    8880022    1    1    2    0    0  0.14320862177E+03  0.11201374154E+04  0.15249449786E+04  0.19036978173E+04  0.15294330000E+03 0.  0.
<mgrwt>
<rscale>  0 0.12631810E+04</rscale>
<asrwt>0</asrwt>
<pdfrwt beam="1">  1        2 0.28883622E+00 0.13072975E+04</pdfrwt>
<pdfrwt beam="2">  1       -2 0.43211546E+00 0.13072975E+04</pdfrwt>
<totfact> 0.34442610E-02</totfact>
</mgrwt>
</event>
<event>
 4    1  0.3565372E-007  0.7947514E+03  0.7818608E-02  0.9722262E-01
          2   -1    0    0  501    0  0.00000000000E+00  0.00000000000E+00  0.12879632301E+04  0.12879632301E+04  0.25500000000E-02 0. -1.
         -2   -1    0    0    0  501 -0.00000000000E+00 -0.00000000000E+00 -0.43350320145E+03  0.43350320146E+03  0.25500000000E-02 0.  1.
    8880023    1    1    2    0    0  0.44021326181E+03  0.63497300190E+02  0.95302177230E+03  0.12409191463E+04  0.65864270000E+03 0.  0.
    8880022    1    1    2    0    0 -0.44021326181E+03 -0.63497300190E+02 -0.98561743652E+02  0.48054728522E+03  0.15294330000E+03 0.  0.
<mgrwt>
<rscale>  0 0.69706679E+03</rscale>
<asrwt>0</asrwt>
<pdfrwt beam="1">  1        2 0.19814819E+00 0.79475143E+03</pdfrwt>
<pdfrwt beam="2">  1       -2 0.66692800E-01 0.79475143E+03</pdfrwt>
<totfact> 0.35222589E+01</totfact>
</mgrwt>
</event>
<event>
 4    1  0.3565372E-007  0.7748451E+03  0.7818608E-02  0.9768088E-01
          2   -1    0    0  501    0  0.00000000000E+00  0.00000000000E+00  0.29090478924E+04  0.29090478924E+04  0.25500000000E-02 0. -1.
         -2   -1    0    0    0  501 -0.00000000000E+00 -0.00000000000E+00 -0.68058789659E+03  0.68058789659E+03  0.25500000000E-02 0.  1.
    8880023    1    1    2    0    0 -0.30928526245E+03 -0.26630305245E+03  0.27804034818E+04  0.28863520952E+04  0.65864270000E+03 0. -1.
    8880022    1    1    2    0    0  0.30928526245E+03  0.26630305245E+03 -0.55194348598E+03  0.70328369385E+03  0.15294330000E+03 0.  0.
<mgrwt>
<rscale>  0 0.67103588E+03</rscale>
<asrwt>0</asrwt>
<pdfrwt beam="1">  1        2 0.44754583E+00 0.77484508E+03</pdfrwt>
<pdfrwt beam="2">  1       -2 0.10470583E+00 0.77484508E+03</pdfrwt>
<totfact> 0.15544420E+00</totfact>
</mgrwt>
</event>
<event>
 4    1  0.3565372E-007  0.6921843E+03  0.7818608E-02  0.1003131E+00
          2   -1    0    0  501    0  0.00000000000E+00  0.00000000000E+00  0.20667062296E+04  0.20667062296E+04  0.25500000000E-02 0. -1.
         -2   -1    0    0    0  501 -0.00000000000E+00 -0.00000000000E+00 -0.22030097927E+03  0.22030097928E+03  0.25500000000E-02 0.  1.
    8880023    1    1    2    0    0  0.20167546547E+03 -0.68087690834E+02  0.18976390626E+04  0.20199388964E+04  0.65864270000E+03 0. -1.
    8880022    1    1    2    0    0 -0.20167546547E+03  0.68087690834E+02 -0.51233812239E+02  0.26706831251E+03  0.15294330000E+03 0.  0.
<mgrwt>
<rscale>  0 0.54298317E+03</rscale>
<asrwt>0</asrwt>
<pdfrwt beam="1">  1        2 0.31795479E+00 0.69218432E+03</pdfrwt>
<pdfrwt beam="2">  1       -2 0.33892460E-01 0.69218432E+03</pdfrwt>
<totfact> 0.51881851E+01</totfact>
</mgrwt>
</event>
<event>
 4    1  0.3565372E-007  0.8510213E+03  0.7818608E-02  0.9609739E-01
         -2   -1    0    0    0  501 -0.00000000000E+00  0.00000000000E+00  0.29484903508E+03  0.29484903509E+03  0.25500000000E-02 0.  1.
          2   -1    0    0  501    0  0.00000000000E+00 -0.00000000000E+00 -0.27521400466E+04  0.27521400466E+04  0.25500000000E-02 0. -1.
    8880023    1    1    2    0    0 -0.24013415186E+03  0.48245475715E+03 -0.23186488335E+04  0.24698926338E+04  0.65864270000E+03 0. -1.
    8880022    1    1    2    0    0  0.24013415186E+03 -0.48245475715E+03 -0.13864217809E+03  0.57709644787E+03  0.15294330000E+03 0.  1.
<mgrwt>
<rscale>  0 0.76654942E+03</rscale>
<asrwt>0</asrwt>
<pdfrwt beam="1">  1        2 0.42340614E+00 0.85102127E+03</pdfrwt>
<pdfrwt beam="2">  1       -2 0.45361392E-01 0.85102127E+03</pdfrwt>
<totfact> 0.11824831E+01</totfact>
</mgrwt>
</event>
<event>
 4    1  0.3565372E-007  0.6587849E+03  0.7818608E-02  0.1025437E+00
          2   -1    0    0  501    0  0.00000000000E+00  0.00000000000E+00  0.22657279704E+04  0.22657279704E+04  0.25500000000E-02 0. -1.
         -2   -1    0    0    0  501 -0.00000000000E+00 -0.00000000000E+00 -0.11776533260E+03  0.11776533262E+03  0.25500000000E-02 0.  1.
    8880023    1    1    2    0    0 -0.68738641050E+01 -0.11835389026E+02  0.21292120733E+04  0.22287982380E+04  0.65864270000E+03 0. -1.
    8880022    1    1    2    0    0  0.68738641050E+01  0.11835389026E+02  0.18750564455E+02  0.15469506496E+03  0.15294330000E+03 0.  0.
<mgrwt>
<rscale>  0 0.45774472E+03</rscale>
<asrwt>0</asrwt>
<pdfrwt beam="1">  1        2 0.34857349E+00 0.65878489E+03</pdfrwt>
<pdfrwt beam="2">  1       -2 0.18117746E-01 0.65878489E+03</pdfrwt>
<totfact> 0.12528955E+02</totfact>
</mgrwt>
</event>
<event>
 4    1  0.3565372E-007  0.7559110E+03  0.7818608E-02  0.9815811E-01
         -2   -1    0    0    0  501 -0.00000000000E+00  0.00000000000E+00  0.59723625047E+03  0.59723625048E+03  0.25500000000E-02 0.  1.
          2   -1    0    0  501    0  0.00000000000E+00 -0.00000000000E+00 -0.10632198008E+04  0.10632198008E+04  0.25500000000E-02 0. -1.
    8880023    1    1    2    0    0  0.34092796915E+03  0.14614848463E+03 -0.82721601384E+03  0.11205747630E+04  0.65864270000E+03 0. -1.
    8880022    1    1    2    0    0 -0.34092796915E+03 -0.14614848463E+03  0.36123246351E+03  0.53988128826E+03  0.15294330000E+03 0.  0.
<mgrwt>
<rscale>  0 0.64520909E+03</rscale>
<asrwt>0</asrwt>
<pdfrwt beam="1">  1        2 0.16357228E+00 0.75591102E+03</pdfrwt>
<pdfrwt beam="2">  1       -2 0.91882500E-01 0.75591102E+03</pdfrwt>
<totfact> 0.23515746E+01</totfact>
</mgrwt>
</event>
<event>
 4    1  0.3565372E-007  0.6779961E+03  0.7818608E-02  0.1010481E+00
         -2   -1    0    0    0  501 -0.00000000000E+00  0.00000000000E+00  0.12908163857E+03  0.12908163860E+03  0.25500000000E-02 0.  1.
          2   -1    0    0  501    0  0.00000000000E+00 -0.00000000000E+00 -0.20855138229E+04  0.20855138229E+04  0.25500000000E-02 0. -1.
    8880023    1    1    2    0    0  0.71138291307E+02  0.14424935231E+03 -0.18462513534E+04  0.19668052263E+04  0.65864270000E+03 0.  0.
    8880022    1    1    2    0    0 -0.71138291307E+02 -0.14424935231E+03 -0.11018083095E+03  0.24779023519E+03  0.15294330000E+03 0.  0.
<mgrwt>
<rscale>  0 0.51284061E+03</rscale>
<asrwt>0</asrwt>
<pdfrwt beam="1">  1        2 0.32084826E+00 0.67799612E+03</pdfrwt>
<pdfrwt beam="2">  1       -2 0.19858715E-01 0.67799612E+03</pdfrwt>
<totfact> 0.13385686E+02</totfact>
</mgrwt>
</event>
<event>
 4    1  0.3565372E-007  0.1189869E+04  0.7818608E-02  0.9167034E-01
          2   -1    0    0  501    0  0.00000000000E+00  0.00000000000E+00  0.34890325004E+04  0.34890325004E+04  0.25500000000E-02 0. -1.
         -2   -1    0    0    0  501 -0.00000000000E+00 -0.00000000000E+00 -0.39239848170E+03  0.39239848171E+03  0.25500000000E-02 0.  1.
    8880023    1    1    2    0    0  0.96734415853E+03 -0.21499687865E+03  0.98817254531E+03  0.15466976319E+04  0.65864270000E+03 0.  1.
    8880022    1    1    2    0    0 -0.96734415853E+03  0.21499687865E+03  0.21084614733E+04  0.23347333502E+04  0.15294330000E+03 0. -1.
<mgrwt>
<rscale>  0 0.11400270E+04</rscale>
<asrwt>0</asrwt>
<pdfrwt beam="1">  1        2 0.53677422E+00 0.11898691E+04</pdfrwt>
<pdfrwt beam="2">  1       -2 0.60368999E-01 0.11898691E+04</pdfrwt>
<totfact> 0.21315652E+00</totfact>
</mgrwt>
</event>
<event>
 4    1  0.3565372E-007  0.9200557E+03  0.7818608E-02  0.9494574E-01
          2   -1    0    0  501    0  0.00000000000E+00  0.00000000000E+00  0.16022956376E+04  0.16022956376E+04  0.25500000000E-02 0. -1.
         -2   -1    0    0    0  501 -0.00000000000E+00 -0.00000000000E+00 -0.61763220427E+03  0.61763220428E+03  0.25500000000E-02 0.  1.
    8880023    1    1    2    0    0 -0.49343482736E+03  0.41135672395E+03  0.12118808843E+04  0.15215642501E+04  0.65864270000E+03 0. -1.
    8880022    1    1    2    0    0  0.49343482736E+03 -0.41135672395E+03 -0.22721745102E+03  0.69836359173E+03  0.15294330000E+03 0.  0.
<mgrwt>
<rscale>  0 0.84685070E+03</rscale>
<asrwt>0</asrwt>
<pdfrwt beam="1">  1        2 0.24650703E+00 0.92005570E+03</pdfrwt>
<pdfrwt beam="2">  1       -2 0.95020337E-01 0.92005570E+03</pdfrwt>
<totfact> 0.10411459E+01</totfact>
</mgrwt>
</event>
<event>
 4    1  0.3565372E-007  0.6966086E+03  0.7818608E-02  0.1001157E+00
         -2   -1    0    0    0  501 -0.00000000000E+00  0.00000000000E+00  0.74026945208E+03  0.74026945209E+03  0.25500000000E-02 0.  1.
          2   -1    0    0  501    0  0.00000000000E+00 -0.00000000000E+00 -0.42357846703E+03  0.42357846704E+03  0.25500000000E-02 0. -1.
    8880023    1    1    2    0    0  0.13841905415E+03  0.17970406062E+03 -0.58999231287E+02  0.69910263875E+03  0.65864270000E+03 0. -1.
    8880022    1    1    2    0    0 -0.13841905415E+03 -0.17970406062E+03  0.37569021634E+03  0.46474528037E+03  0.15294330000E+03 0.  0.
<mgrwt>
<rscale>  0 0.55145746E+03</rscale>
<asrwt>0</asrwt>
<pdfrwt beam="1">  1        2 0.65165918E-01 0.69660863E+03</pdfrwt>
<pdfrwt beam="2">  1       -2 0.11388761E+00 0.69660863E+03</pdfrwt>
<totfact> 0.45675480E+01</totfact>
</mgrwt>
</event>
<event>
 4    1  0.3565372E-007  0.7546258E+03  0.7818608E-02  0.9819225E-01
         -2   -1    0    0    0  501 -0.00000000000E+00  0.00000000000E+00  0.64379152630E+03  0.64379152631E+03  0.25500000000E-02 0.  1.
          2   -1    0    0  501    0  0.00000000000E+00 -0.00000000000E+00 -0.92372920184E+03  0.92372920184E+03  0.25500000000E-02 0. -1.
    8880023    1    1    2    0    0 -0.36794006322E+03 -0.16429616378E+02 -0.67039482109E+03  0.10094004383E+04  0.65864270000E+03 0.  0.
    8880022    1    1    2    0    0  0.36794006322E+03  0.16429616378E+02  0.39045714555E+03  0.55812028985E+03  0.15294330000E+03 0.  0.
<mgrwt>
<rscale>  0 0.64340957E+03</rscale>
<asrwt>0</asrwt>
<pdfrwt beam="1">  1        2 0.14211219E+00 0.75462575E+03</pdfrwt>
<pdfrwt beam="2">  1       -2 0.99044850E-01 0.75462575E+03</pdfrwt>
<totfact> 0.24240937E+01</totfact>
</mgrwt>
</event>
<event>
 4    1  0.3565372E-007  0.7475662E+03  0.7818608E-02  0.9838431E-01
          2   -1    0    0  501    0  0.00000000000E+00  0.00000000000E+00  0.26894503898E+04  0.26894503898E+04  0.25500000000E-02 0. -1.
         -2   -1    0    0    0  501 -0.00000000000E+00 -0.00000000000E+00 -0.14684147434E+03  0.14684147436E+03  0.25500000000E-02 0.  1.
    8880023    1    1    2    0    0 -0.26087261255E+03 -0.23872681039E+03  0.21897810946E+04  0.23138704498E+04  0.65864270000E+03 0. -1.
    8880022    1    1    2    0    0  0.26087261255E+03  0.23872681039E+03  0.35282782083E+03  0.52242141433E+03  0.15294330000E+03 0.  0.
<mgrwt>
<rscale>  0 0.63340267E+03</rscale>
<asrwt>0</asrwt>
<pdfrwt beam="1">  1        2 0.41376161E+00 0.74756620E+03</pdfrwt>
<pdfrwt beam="2">  1       -2 0.22590996E-01 0.74756620E+03</pdfrwt>
<totfact> 0.48486989E+01</totfact>
</mgrwt>
</event>
<event>
 4    1  0.3565372E-007  0.7890915E+03  0.7818608E-02  0.9734898E-01
         -2   -1    0    0    0  501 -0.00000000000E+00  0.00000000000E+00  0.22385988971E+03  0.22385988972E+03  0.25500000000E-02 0.  1.
          2   -1    0    0  501    0  0.00000000000E+00 -0.00000000000E+00 -0.17453193996E+04  0.17453193996E+04  0.25500000000E-02 0. -1.
    8880023    1    1    2    0    0 -0.43339701412E+03  0.31973340441E+02 -0.98256506518E+03  0.12601982304E+04  0.65864270000E+03 0.  1.
    8880022    1    1    2    0    0  0.43339701412E+03 -0.31973340441E+02 -0.53889444470E+03  0.70898105890E+03  0.15294330000E+03 0. -1.
<mgrwt>
<rscale>  0 0.68976431E+03</rscale>
<asrwt>0</asrwt>
<pdfrwt beam="1">  1        2 0.26851067E+00 0.78909155E+03</pdfrwt>
<pdfrwt beam="2">  1       -2 0.34439984E-01 0.78909155E+03</pdfrwt>
<totfact> 0.74517831E+01</totfact>
</mgrwt>
</event>
<event>
 4    1  0.3565372E-007  0.8299572E+03  0.7818608E-02  0.9649416E-01
         -2   -1    0    0    0  501 -0.00000000000E+00  0.00000000000E+00  0.36000734366E+03  0.36000734367E+03  0.25500000000E-02 0.  1.
          2   -1    0    0  501    0  0.00000000000E+00 -0.00000000000E+00 -0.17676256973E+04  0.17676256973E+04  0.25500000000E-02 0. -1.
    8880023    1    1    2    0    0 -0.50451882255E+03 -0.21896684356E+02 -0.13659726031E+04  0.15983460407E+04  0.65864270000E+03 0.  0.
    8880022    1    1    2    0    0  0.50451882255E+03  0.21896684356E+02 -0.41645750506E+02  0.52928700026E+03  0.15294330000E+03 0.  0.
<mgrwt>
<rscale>  0 0.74110106E+03</rscale>
<asrwt>0</asrwt>
<pdfrwt beam="1">  1        2 0.27194241E+00 0.82995718E+03</pdfrwt>
<pdfrwt beam="2">  1       -2 0.55385746E-01 0.82995718E+03</pdfrwt>
<totfact> 0.28067675E+01</totfact>
</mgrwt>
</event>
<event>
 4    1  0.3565372E-007  0.7074692E+03  0.7818608E-02  0.9967521E-01
         -2   -1    0    0    0  501 -0.00000000000E+00  0.00000000000E+00  0.23863964741E+03  0.23863964743E+03  0.25500000000E-02 0.  1.
          2   -1    0    0  501    0  0.00000000000E+00 -0.00000000000E+00 -0.46350200982E+04  0.46350200982E+04  0.25500000000E-02 0. -1.
    8880023    1    1    2    0    0 -0.12710985681E+03 -0.22482351636E+03 -0.45006443631E+04  0.45559096148E+04  0.65864270000E+03 0. -1.
    8880022    1    1    2    0    0  0.12710985681E+03  0.22482351636E+03  0.10426391229E+03  0.31775013081E+03  0.15294330000E+03 0.  0.
<mgrwt>
<rscale>  0 0.57097589E+03</rscale>
<asrwt>0</asrwt>
<pdfrwt beam="1">  1        2 0.71307995E+00 0.70746925E+03</pdfrwt>
<pdfrwt beam="2">  1       -2 0.36713795E-01 0.70746925E+03</pdfrwt>
<totfact> 0.73024635E-01</totfact>
</mgrwt>
</event>
<event>
 4    1  0.3565372E-007  0.6906970E+03  0.7818608E-02  0.1003823E+00
         -2   -1    0    0    0  501 -0.00000000000E+00  0.00000000000E+00  0.31904453946E+03  0.31904453947E+03  0.25500000000E-02 0.  1.
          2   -1    0    0  501    0  0.00000000000E+00 -0.00000000000E+00 -0.89734783493E+03  0.89734783493E+03  0.25500000000E-02 0. -1.
    8880023    1    1    2    0    0  0.64416628560E+02  0.19774376516E+03 -0.65001480818E+03  0.94846273296E+03  0.65864270000E+03 0. -1.
    8880022    1    1    2    0    0 -0.64416628560E+02 -0.19774376516E+03  0.71711512721E+02  0.26792964144E+03  0.15294330000E+03 0.  0.
<mgrwt>
<rscale>  0 0.54005202E+03</rscale>
<asrwt>0</asrwt>
<pdfrwt beam="1">  1        2 0.13805351E+00 0.69069697E+03</pdfrwt>
<pdfrwt beam="2">  1       -2 0.49083776E-01 0.69069697E+03</pdfrwt>
<totfact> 0.11760636E+02</totfact>
</mgrwt>
</event>
<event>
 4    1  0.3565372E-007  0.6629363E+03  0.7818608E-02  0.1021331E+00
         -2   -1    0    0    0  501 -0.00000000000E+00  0.00000000000E+00  0.37039842979E+03  0.37039842980E+03  0.25500000000E-02 0.  1.
          2   -1    0    0  501    0  0.00000000000E+00 -0.00000000000E+00 -0.75552342046E+03  0.75552342046E+03  0.25500000000E-02 0. -1.
    8880023    1    1    2    0    0  0.75178786704E+02 -0.47413389480E+01 -0.57010516003E+03  0.87435943983E+03  0.65864270000E+03 0. -1.
    8880022    1    1    2    0    0 -0.75178786704E+02  0.47413389480E+01  0.18498016936E+03  0.25156241042E+03  0.15294330000E+03 0. -1.
<mgrwt>
<rscale>  0 0.47209237E+03</rscale>
<asrwt>0</asrwt>
<pdfrwt beam="1">  1        2 0.11623437E+00 0.66293630E+03</pdfrwt>
<pdfrwt beam="2">  1       -2 0.56984374E-01 0.66293630E+03</pdfrwt>
<totfact> 0.10913797E+02</totfact>
</mgrwt>
</event>
<event>
 4    1  0.3565372E-007  0.1089183E+04  0.7818608E-02  0.9273196E-01
         -2   -1    0    0    0  501 -0.00000000000E+00  0.00000000000E+00  0.52186467869E+03  0.52186467869E+03  0.25500000000E-02 0.  1.
          2   -1    0    0  501    0  0.00000000000E+00 -0.00000000000E+00 -0.23692026343E+04  0.23692026343E+04  0.25500000000E-02 0. -1.
    8880023    1    1    2    0    0 -0.21864882838E+02  0.86719725257E+03 -0.16680373238E+04  0.19921515675E+04  0.65864270000E+03 0.  0.
    8880022    1    1    2    0    0  0.21864882838E+02 -0.86719725257E+03 -0.17930063183E+03  0.89891574552E+03  0.15294330000E+03 0.  0.
<mgrwt>
<rscale>  0 0.10328836E+04</rscale>
<asrwt>0</asrwt>
<pdfrwt beam="1">  1        2 0.36449271E+00 0.10891829E+04</pdfrwt>
<pdfrwt beam="2">  1       -2 0.80286875E-01 0.10891829E+04</pdfrwt>
<totfact> 0.56597203E+00</totfact>
</mgrwt>
</event>
<event>
 4    1  0.3565372E-007  0.7843233E+03  0.7818608E-02  0.9745778E-01
         -2   -1    0    0    0  501 -0.00000000000E+00  0.00000000000E+00  0.37703166964E+03  0.37703166965E+03  0.25500000000E-02 0.  1.
          2   -1    0    0  501    0  0.00000000000E+00 -0.00000000000E+00 -0.16680022248E+04  0.16680022248E+04  0.25500000000E-02 0. -1.
    8880023    1    1    2    0    0 -0.37690447953E+03  0.19823175141E+03 -0.13767495322E+04  0.15844880228E+04  0.65864270000E+03 0. -1.
    8880022    1    1    2    0    0  0.37690447953E+03 -0.19823175141E+03  0.85778976993E+02  0.46054587162E+03  0.15294330000E+03 0.  0.
<mgrwt>
<rscale>  0 0.68355404E+03</rscale>
<asrwt>0</asrwt>
<pdfrwt beam="1">  1        2 0.25661572E+00 0.78432329E+03</pdfrwt>
<pdfrwt beam="2">  1       -2 0.58004873E-01 0.78432329E+03</pdfrwt>
<totfact> 0.29049940E+01</totfact>
</mgrwt>
</event>
<event>
 4    1  0.3565372E-007  0.6895347E+03  0.7818608E-02  0.1004375E+00
          2   -1    0    0  501    0  0.00000000000E+00  0.00000000000E+00  0.23307127006E+04  0.23307127006E+04  0.25500000000E-02 0. -1.
         -2   -1    0    0    0  501 -0.00000000000E+00 -0.00000000000E+00 -0.98349196819E+02  0.98349196853E+02  0.25500000000E-02 0.  1.
    8880023    1    1    2    0    0 -0.70470396113E+02 -0.19152492660E+03  0.17934245540E+04  0.19214134670E+04  0.65864270000E+03 0.  1.
    8880022    1    1    2    0    0  0.70470396113E+02  0.19152492660E+03  0.43893894981E+03  0.50764843043E+03  0.15294330000E+03 0. -1.
<mgrwt>
<rscale>  0 0.53772999E+03</rscale>
<asrwt>0</asrwt>
<pdfrwt beam="1">  1        2 0.35857116E+00 0.68953468E+03</pdfrwt>
<pdfrwt beam="2">  1       -2 0.15130647E-01 0.68953468E+03</pdfrwt>
<totfact> 0.15629480E+02</totfact>
</mgrwt>
</event>
<event>
 4    1  0.3565372E-007  0.6776732E+03  0.7818608E-02  0.1010672E+00
         -2   -1    0    0    0  501 -0.00000000000E+00  0.00000000000E+00  0.20524167260E+03  0.20524167261E+03  0.25500000000E-02 0.  1.
          2   -1    0    0  501    0  0.00000000000E+00 -0.00000000000E+00 -0.21316814757E+04  0.21316814757E+04  0.25500000000E-02 0. -1.
    8880023    1    1    2    0    0  0.14023919579E+03 -0.75919534945E+02 -0.19938849738E+04  0.21059008293E+04  0.65864270000E+03 0.  0.
    8880022    1    1    2    0    0 -0.14023919579E+03  0.75919534945E+02  0.67445170695E+02  0.23102231902E+03  0.15294330000E+03 0.  1.
<mgrwt>
<rscale>  0 0.51208577E+03</rscale>
<asrwt>0</asrwt>
<pdfrwt beam="1">  1        2 0.32795098E+00 0.67767324E+03</pdfrwt>
<pdfrwt beam="2">  1       -2 0.31575643E-01 0.67767324E+03</pdfrwt>
<totfact> 0.54723394E+01</totfact>
</mgrwt>
</event>
<event>
 4    1  0.3565372E-007  0.1170339E+04  0.7818608E-02  0.9186508E-01
          2   -1    0    0  501    0  0.00000000000E+00  0.00000000000E+00  0.16296607012E+04  0.16296607012E+04  0.25500000000E-02 0. -1.
         -2   -1    0    0    0  501 -0.00000000000E+00 -0.00000000000E+00 -0.83362738745E+03  0.83362738746E+03  0.25500000000E-02 0.  1.
    8880023    1    1    2    0    0 -0.22341385106E+03 -0.94125970459E+03 -0.46607552467E+02  0.11712668571E+04  0.65864270000E+03 0.  1.
    8880022    1    1    2    0    0  0.22341385106E+03  0.94125970459E+03  0.84264086617E+03  0.12920212315E+04  0.15294330000E+03 0.  0.
<mgrwt>
<rscale>  0 0.11193779E+04</rscale>
<asrwt>0</asrwt>
<pdfrwt beam="1">  1        2 0.25071703E+00 0.11703392E+04</pdfrwt>
<pdfrwt beam="2">  1       -2 0.12825037E+00 0.11703392E+04</pdfrwt>
<totfact> 0.47127692E+00</totfact>
</mgrwt>
</event>
<event>
 4    1  0.3565372E-007  0.9164970E+03  0.7818608E-02  0.9500051E-01
         -2   -1    0    0    0  501 -0.00000000000E+00  0.00000000000E+00  0.84510256617E+03  0.84510256618E+03  0.25500000000E-02 0.  1.
          2   -1    0    0  501    0  0.00000000000E+00 -0.00000000000E+00 -0.10261026855E+04  0.10261026855E+04  0.25500000000E-02 0. -1.
    8880023    1    1    2    0    0  0.54293456831E+03  0.33373425509E+03 -0.59805299207E+03  0.10943646952E+04  0.65864270000E+03 0. -1.
    8880022    1    1    2    0    0 -0.54293456831E+03 -0.33373425509E+03  0.41705287276E+03  0.77684055647E+03  0.15294330000E+03 0.  1.
<mgrwt>
<rscale>  0 0.84280045E+03</rscale>
<asrwt>0</asrwt>
<pdfrwt beam="1">  1        2 0.15786195E+00 0.91649697E+03</pdfrwt>
<pdfrwt beam="2">  1       -2 0.13001578E+00 0.91649697E+03</pdfrwt>
<totfact> 0.10520199E+01</totfact>
</mgrwt>
</event>
<event>
 4    1  0.3565372E-007  0.8316215E+03  0.7818608E-02  0.9646186E-01
          2   -1    0    0  501    0  0.00000000000E+00  0.00000000000E+00  0.18742685842E+04  0.18742685842E+04  0.25500000000E-02 0. -1.
         -2   -1    0    0    0  501 -0.00000000000E+00 -0.00000000000E+00 -0.27242623173E+03  0.27242623175E+03  0.25500000000E-02 0.  1.
    8880023    1    1    2    0    0 -0.34543988638E+03 -0.37209602890E+03  0.12799186693E+04  0.15263637103E+04  0.65864270000E+03 0. -1.
    8880022    1    1    2    0    0  0.34543988638E+03  0.37209602890E+03  0.32192368314E+03  0.62033110563E+03  0.15294330000E+03 0.  0.
<mgrwt>
<rscale>  0 0.74313299E+03</rscale>
<asrwt>0</asrwt>
<pdfrwt beam="1">  1        2 0.28834902E+00 0.83162153E+03</pdfrwt>
<pdfrwt beam="2">  1       -2 0.41911727E-01 0.83162153E+03</pdfrwt>
<totfact> 0.43138524E+01</totfact>
</mgrwt>
</event>
<event>
 4    1  0.3565372E-007  0.9798279E+03  0.7818608E-02  0.9408438E-01
          2   -1    0    0  501    0  0.00000000000E+00  0.00000000000E+00  0.12117568173E+04  0.12117568173E+04  0.25500000000E-02 0. -1.
         -2   -1    0    0    0  501 -0.00000000000E+00 -0.00000000000E+00 -0.76262619159E+03  0.76262619160E+03  0.25500000000E-02 0.  1.
    8880023    1    1    2    0    0  0.68613403529E+03  0.23552619249E+03  0.68597871166E+03  0.11960892529E+04  0.65864270000E+03 0. -1.
    8880022    1    1    2    0    0 -0.68613403529E+03 -0.23552619249E+03 -0.23684808600E+03  0.77829375598E+03  0.15294330000E+03 0.  0.
<mgrwt>
<rscale>  0 0.91384503E+03</rscale>
<asrwt>0</asrwt>
<pdfrwt beam="1">  1        2 0.18642412E+00 0.97982790E+03</pdfrwt>
<pdfrwt beam="2">  1       -2 0.11732711E+00 0.97982790E+03</pdfrwt>
<totfact> 0.10408426E+01</totfact>
</mgrwt>
</event>
<event>
 4    1  0.3565372E-007  0.7395744E+03  0.7818608E-02  0.9861189E-01
         -2   -1    0    0    0  501 -0.00000000000E+00  0.00000000000E+00  0.45850877860E+03  0.45850877861E+03  0.25500000000E-02 0.  1.
          2   -1    0    0  501    0  0.00000000000E+00 -0.00000000000E+00 -0.76835706340E+03  0.76835706341E+03  0.25500000000E-02 0. -1.
    8880023    1    1    2    0    0  0.63732623292E+01 -0.33633241951E+03 -0.40782861752E+03  0.84456764230E+03  0.65864270000E+03 0. -1.
    8880022    1    1    2    0    0 -0.63732623292E+01  0.33633241951E+03  0.97980332717E+02  0.38229819971E+03  0.15294330000E+03 0.  1.
<mgrwt>
<rscale>  0 0.62179693E+03</rscale>
<asrwt>0</asrwt>
<pdfrwt beam="1">  1        2 0.11820878E+00 0.73957442E+03</pdfrwt>
<pdfrwt beam="2">  1       -2 0.70539812E-01 0.73957442E+03</pdfrwt>
<totfact> 0.67332416E+01</totfact>
</mgrwt>
</event>
<event>
 4    1  0.3565372E-007  0.8167371E+03  0.7818608E-02  0.9675711E-01
          2   -1    0    0  501    0  0.00000000000E+00  0.00000000000E+00  0.13782460210E+04  0.13782460210E+04  0.25500000000E-02 0. -1.
         -2   -1    0    0    0  501 -0.00000000000E+00 -0.00000000000E+00 -0.43594347404E+03  0.43594347405E+03  0.25500000000E-02 0.  1.
    8880023    1    1    2    0    0  0.21628499661E+03 -0.43182181202E+03  0.10145697278E+04  0.13024635181E+04  0.65864270000E+03 0. -1.
    8880022    1    1    2    0    0 -0.21628499661E+03  0.43182181202E+03 -0.72267180823E+02  0.51172597700E+03  0.15294330000E+03 0.  0.
<mgrwt>
<rscale>  0 0.72481547E+03</rscale>
<asrwt>0</asrwt>
<pdfrwt beam="1">  1        2 0.21203785E+00 0.81673710E+03</pdfrwt>
<pdfrwt beam="2">  1       -2 0.67068227E-01 0.81673710E+03</pdfrwt>
<totfact> 0.30815363E+01</totfact>
</mgrwt>
</event>
<event>
 4    1  0.3565372E-007  0.7738480E+03  0.7818608E-02  0.9770492E-01
          2   -1    0    0  501    0  0.00000000000E+00  0.00000000000E+00  0.18104651836E+04  0.18104651836E+04  0.25500000000E-02 0. -1.
         -2   -1    0    0    0  501 -0.00000000000E+00 -0.00000000000E+00 -0.27977347042E+03  0.27977347043E+03  0.25500000000E-02 0.  1.
    8880023    1    1    2    0    0 -0.35264944875E+03 -0.20166513049E+03  0.38348496248E+03  0.86365582338E+03  0.65864270000E+03 0.  1.
    8880022    1    1    2    0    0  0.35264944875E+03  0.20166513049E+03  0.11472067507E+04  0.12265828306E+04  0.15294330000E+03 0.  0.
<mgrwt>
<rscale>  0 0.66970450E+03</rscale>
<asrwt>0</asrwt>
<pdfrwt beam="1">  1        2 0.27853310E+00 0.77384796E+03</pdfrwt>
<pdfrwt beam="2">  1       -2 0.43042073E-01 0.77384796E+03</pdfrwt>
<totfact> 0.44633603E+01</totfact>
</mgrwt>
</event>
<event>
 4    1  0.3565372E-007  0.8555681E+03  0.7818608E-02  0.9601496E-01
         -2   -1    0    0    0  501 -0.00000000000E+00  0.00000000000E+00  0.52102432530E+03  0.52102432530E+03  0.25500000000E-02 0.  1.
          2   -1    0    0  501    0  0.00000000000E+00 -0.00000000000E+00 -0.13347728032E+04  0.13347728032E+04  0.25500000000E-02 0. -1.
    8880023    1    1    2    0    0 -0.45220584745E+03 -0.30609866337E+03 -0.94392727776E+03  0.12739683796E+04  0.65864270000E+03 0.  0.
    8880022    1    1    2    0    0  0.45220584745E+03  0.30609866337E+03  0.13017879982E+03  0.58182874897E+03  0.15294330000E+03 0.  0.
<mgrwt>
<rscale>  0 0.77197235E+03</rscale>
<asrwt>0</asrwt>
<pdfrwt beam="1">  1        2 0.20534966E+00 0.85556807E+03</pdfrwt>
<pdfrwt beam="2">  1       -2 0.80157589E-01 0.85556807E+03</pdfrwt>
<totfact> 0.21922378E+01</totfact>
</mgrwt>
</event>
<event>
 4    1  0.3565372E-007  0.8181509E+03  0.7818608E-02  0.9672843E-01
         -2   -1    0    0    0  501 -0.00000000000E+00  0.00000000000E+00  0.14756992190E+04  0.14756992191E+04  0.25500000000E-02 0.  1.
          2   -1    0    0  501    0  0.00000000000E+00 -0.00000000000E+00 -0.29836404398E+03  0.29836404399E+03  0.25500000000E-02 0. -1.
    8880023    1    1    2    0    0 -0.14904551886E+03 -0.46189399744E+03  0.71692258296E+03  0.10878183800E+04  0.65864270000E+03 0.  0.
    8880022    1    1    2    0    0  0.14904551886E+03  0.46189399744E+03  0.46041259210E+03  0.68624488307E+03  0.15294330000E+03 0.  1.
<mgrwt>
<rscale>  0 0.72657009E+03</rscale>
<asrwt>0</asrwt>
<pdfrwt beam="1">  1        2 0.45902161E-01 0.81815086E+03</pdfrwt>
<pdfrwt beam="2">  1       -2 0.22703065E+00 0.81815086E+03</pdfrwt>
<totfact> 0.10010789E+01</totfact>
</mgrwt>
</event>
<event>
 4    1  0.3565372E-007  0.6717702E+03  0.7818608E-02  0.1014424E+00
          2   -1    0    0  501    0  0.00000000000E+00  0.00000000000E+00  0.76339470992E+03  0.76339470993E+03  0.25500000000E-02 0. -1.
         -2   -1    0    0    0  501 -0.00000000000E+00 -0.00000000000E+00 -0.25266371930E+03  0.25266371931E+03  0.25500000000E-02 0.  1.
    8880023    1    1    2    0    0 -0.10933220988E+03  0.74239077362E+02  0.43444869898E+03  0.80001303179E+03  0.65864270000E+03 0.  0.
    8880022    1    1    2    0    0  0.10933220988E+03 -0.74239077362E+02  0.76282291641E+02  0.21604539745E+03  0.15294330000E+03 0. -1.
<mgrwt>
<rscale>  0 0.49753468E+03</rscale>
<asrwt>0</asrwt>
<pdfrwt beam="1">  1        2 0.11744534E+00 0.67177018E+03</pdfrwt>
<pdfrwt beam="2">  1       -2 0.38871342E-01 0.67177018E+03</pdfrwt>
<totfact> 0.23210433E+02</totfact>
</mgrwt>
</event>
<event>
 4    1  0.3565372E-007  0.6965538E+03  0.7818608E-02  0.1001181E+00
          2   -1    0    0  501    0  0.00000000000E+00  0.00000000000E+00  0.21464605884E+04  0.21464605884E+04  0.25500000000E-02 0. -1.
         -2   -1    0    0    0  501 -0.00000000000E+00 -0.00000000000E+00 -0.29208712433E+03  0.29208712434E+03  0.25500000000E-02 0.  1.
    8880023    1    1    2    0    0  0.71917524309E+02  0.21495323823E+03  0.20076691613E+04  0.21250700442E+04  0.65864270000E+03 0.  0.
    8880022    1    1    2    0    0 -0.71917524309E+02 -0.21495323823E+03 -0.15329569722E+03  0.31347766863E+03  0.15294330000E+03 0.  0.
<mgrwt>
<rscale>  0 0.55135456E+03</rscale>
<asrwt>0</asrwt>
<pdfrwt beam="1">  1        2 0.33022472E+00 0.69655383E+03</pdfrwt>
<pdfrwt beam="2">  1       -2 0.44936479E-01 0.69655383E+03</pdfrwt>
<totfact> 0.27133713E+01</totfact>
</mgrwt>
</event>
<event>
 4    1  0.3565372E-007  0.7055239E+03  0.7818608E-02  0.9975014E-01
          2   -1    0    0  501    0  0.00000000000E+00  0.00000000000E+00  0.10495787270E+04  0.10495787270E+04  0.25500000000E-02 0. -1.
         -2   -1    0    0    0  501 -0.00000000000E+00 -0.00000000000E+00 -0.40448733839E+03  0.40448733840E+03  0.25500000000E-02 0.  1.
    8880023    1    1    2    0    0 -0.23755006397E+03 -0.86739623992E+02  0.84231994249E+03  0.10987569736E+04  0.65864270000E+03 0.  0.
    8880022    1    1    2    0    0  0.23755006397E+03  0.86739623992E+02 -0.19722855386E+03  0.35530909182E+03  0.15294330000E+03 0.  0.
<mgrwt>
<rscale>  0 0.56759537E+03</rscale>
<asrwt>0</asrwt>
<pdfrwt beam="1">  1        2 0.16147365E+00 0.70552392E+03</pdfrwt>
<pdfrwt beam="2">  1       -2 0.62228821E-01 0.70552392E+03</pdfrwt>
<totfact> 0.57246472E+01</totfact>
</mgrwt>
</event>
<event>
 4    1  0.3565372E-007  0.6719297E+03  0.7818608E-02  0.1014316E+00
         -2   -1    0    0    0  501 -0.00000000000E+00  0.00000000000E+00  0.21672456389E+03  0.21672456391E+03  0.25500000000E-02 0.  1.
          2   -1    0    0  501    0  0.00000000000E+00 -0.00000000000E+00 -0.11804739496E+04  0.11804739496E+04  0.25500000000E-02 0. -1.
    8880023    1    1    2    0    0 -0.13104957452E+03  0.22480752452E+02 -0.98614729272E+03  0.11933046821E+04  0.65864270000E+03 0. -1.
    8880022    1    1    2    0    0  0.13104957452E+03 -0.22480752452E+02  0.22397907019E+02  0.20389383136E+03  0.15294330000E+03 0.  0.
<mgrwt>
<rscale>  0 0.49794898E+03</rscale>
<asrwt>0</asrwt>
<pdfrwt beam="1">  1        2 0.18161137E+00 0.67192974E+03</pdfrwt>
<pdfrwt beam="2">  1       -2 0.33342241E-01 0.67192974E+03</pdfrwt>
<totfact> 0.16646465E+02</totfact>
</mgrwt>
</event>
<event>
 4    1  0.3565372E-007  0.6821103E+03  0.7818608E-02  0.1008154E+00
          2   -1    0    0  501    0  0.00000000000E+00  0.00000000000E+00  0.14061923174E+04  0.14061923174E+04  0.25500000000E-02 0. -1.
         -2   -1    0    0    0  501 -0.00000000000E+00 -0.00000000000E+00 -0.54584993325E+03  0.54584993326E+03  0.25500000000E-02 0.  1.
    8880023    1    1    2    0    0  0.13453737865E+03 -0.11560279676E+03  0.12919609305E+04  0.14609714457E+04  0.65864270000E+03 0. -1.
    8880022    1    1    2    0    0 -0.13453737865E+03  0.11560279676E+03 -0.43161854639E+03  0.49107080495E+03  0.15294330000E+03 0.  0.
<mgrwt>
<rscale>  0 0.52214841E+03</rscale>
<asrwt>0</asrwt>
<pdfrwt beam="1">  1        2 0.21633728E+00 0.68211034E+03</pdfrwt>
<pdfrwt beam="2">  1       -2 0.83976912E-01 0.68211034E+03</pdfrwt>
<totfact> 0.18333586E+01</totfact>
</mgrwt>
</event>
<event>
 4    1  0.3565372E-007  0.7091482E+03  0.7818608E-02  0.9961178E-01
         -2   -1    0    0    0  501 -0.00000000000E+00  0.00000000000E+00  0.15640352468E+04  0.15640352468E+04  0.25500000000E-02 0.  1.
          2   -1    0    0  501    0  0.00000000000E+00 -0.00000000000E+00 -0.25114471773E+03  0.25114471774E+03  0.25500000000E-02 0. -1.
    8880023    1    1    2    0    0  0.15108845338E+03  0.21506583509E+03  0.32227950092E+03  0.77894500264E+03  0.65864270000E+03 0. -1.
    8880022    1    1    2    0    0 -0.15108845338E+03 -0.21506583509E+03  0.99061102813E+03  0.10362349619E+04  0.15294330000E+03 0.  0.
<mgrwt>
<rscale>  0 0.57385803E+03</rscale>
<asrwt>0</asrwt>
<pdfrwt beam="1">  1        2 0.38637649E-01 0.70914825E+03</pdfrwt>
<pdfrwt beam="2">  1       -2 0.24062081E+00 0.70914825E+03</pdfrwt>
<totfact> 0.10115212E+01</totfact>
</mgrwt>
</event>
<event>
 4    1  0.3565372E-007  0.1082923E+04  0.7818608E-02  0.9280311E-01
          2   -1    0    0  501    0  0.00000000000E+00  0.00000000000E+00  0.12180047978E+04  0.12180047978E+04  0.25500000000E-02 0. -1.
         -2   -1    0    0    0  501 -0.00000000000E+00 -0.00000000000E+00 -0.10216564693E+04  0.10216564693E+04  0.25500000000E-02 0.  1.
    8880023    1    1    2    0    0 -0.19530186908E+03  0.83712011250E+03  0.64249549427E+03  0.12591757499E+04  0.65864270000E+03 0. -1.
    8880022    1    1    2    0    0  0.19530186908E+03 -0.83712011250E+03 -0.44614716576E+03  0.98048551715E+03  0.15294330000E+03 0.  0.
<mgrwt>
<rscale>  0 0.10261583E+04</rscale>
<asrwt>0</asrwt>
<pdfrwt beam="1">  1        2 0.18738535E+00 0.10829234E+04</pdfrwt>
<pdfrwt beam="2">  1       -2 0.15717792E+00 0.10829234E+04</pdfrwt>
<totfact> 0.48018283E+00</totfact>
</mgrwt>
</event>
<event>
 4    1  0.3565372E-007  0.6642329E+03  0.7818608E-02  0.1020186E+00
         -2   -1    0    0    0  501 -0.00000000000E+00  0.00000000000E+00  0.80344532320E+03  0.80344532321E+03  0.25500000000E-02 0.  1.
          2   -1    0    0  501    0  0.00000000000E+00 -0.00000000000E+00 -0.65972720691E+03  0.65972720692E+03  0.25500000000E-02 0. -1.
    8880023    1    1    2    0    0 -0.51002738524E+02 -0.69237632836E+02 -0.47723927414E+03  0.81790137558E+03  0.65864270000E+03 0. -1.
    8880022    1    1    2    0    0  0.51002738524E+02  0.69237632836E+02  0.62095739043E+03  0.64527115454E+03  0.15294330000E+03 0.  0.
<mgrwt>
<rscale>  0 0.47619609E+03</rscale>
<asrwt>0</asrwt>
<pdfrwt beam="1">  1        2 0.10149649E+00 0.66423289E+03</pdfrwt>
<pdfrwt beam="2">  1       -2 0.12360697E+00 0.66423289E+03</pdfrwt>
<totfact> 0.22244502E+01</totfact>
</mgrwt>
</event>
<event>
 4    1  0.3565372E-007  0.7831875E+03  0.7818608E-02  0.9748402E-01
          2   -1    0    0  501    0  0.00000000000E+00  0.00000000000E+00  0.84384793838E+03  0.84384793838E+03  0.25500000000E-02 0. -1.
         -2   -1    0    0    0  501 -0.00000000000E+00 -0.00000000000E+00 -0.74794153184E+03  0.74794153185E+03  0.25500000000E-02 0.  1.
    8880023    1    1    2    0    0 -0.40765603593E+03 -0.11571110941E+03  0.54618629297E+03  0.95483096795E+03  0.65864270000E+03 0. -1.
    8880022    1    1    2    0    0  0.40765603593E+03  0.11571110941E+03 -0.45027988644E+03  0.63695850227E+03  0.15294330000E+03 0.  0.
<mgrwt>
<rscale>  0 0.68206654E+03</rscale>
<asrwt>0</asrwt>
<pdfrwt beam="1">  1        2 0.12982276E+00 0.78318753E+03</pdfrwt>
<pdfrwt beam="2">  1       -2 0.11506793E+00 0.78318753E+03</pdfrwt>
<totfact> 0.19095128E+01</totfact>
</mgrwt>
</event>
<event>
 4    1  0.3565372E-007  0.8474158E+03  0.7818608E-02  0.9616353E-01
          2   -1    0    0  501    0  0.00000000000E+00  0.00000000000E+00  0.18980835440E+04  0.18980835440E+04  0.25500000000E-02 0. -1.
         -2   -1    0    0    0  501 -0.00000000000E+00 -0.00000000000E+00 -0.35772794191E+03  0.35772794192E+03  0.25500000000E-02 0.  1.
    8880023    1    1    2    0    0  0.16285630731E+03  0.50772153728E+03  0.14698639811E+04  0.16966477730E+04  0.65864270000E+03 0.  0.
    8880022    1    1    2    0    0 -0.16285630731E+03 -0.50772153728E+03  0.70491620964E+02  0.55916371296E+03  0.15294330000E+03 0.  0.
<mgrwt>
<rscale>  0 0.76223252E+03</rscale>
<asrwt>0</asrwt>
<pdfrwt beam="1">  1        2 0.29201286E+00 0.84741580E+03</pdfrwt>
<pdfrwt beam="2">  1       -2 0.55035066E-01 0.84741580E+03</pdfrwt>
<totfact> 0.24081875E+01</totfact>
</mgrwt>
</event>
<event>
 4    1  0.3565372E-007  0.7172131E+03  0.7818608E-02  0.9932131E-01
          2   -1    0    0  501    0  0.00000000000E+00  0.00000000000E+00  0.57962468077E+03  0.57962468078E+03  0.25500000000E-02 0. -1.
         -2   -1    0    0    0  501 -0.00000000000E+00 -0.00000000000E+00 -0.59714389662E+03  0.59714389663E+03  0.25500000000E-02 0.  1.
    8880023    1    1    2    0    0  0.12748286906E+02  0.28358756480E+03  0.24819200184E+03  0.75894262087E+03  0.65864270000E+03 0. -1.
    8880022    1    1    2    0    0 -0.12748286906E+02 -0.28358756480E+03 -0.26571121769E+03  0.41782595653E+03  0.15294330000E+03 0.  0.
<mgrwt>
<rscale>  0 0.58729032E+03</rscale>
<asrwt>0</asrwt>
<pdfrwt beam="1">  1        2 0.89173028E-01 0.71721310E+03</pdfrwt>
<pdfrwt beam="2">  1       -2 0.91868292E-01 0.71721310E+03</pdfrwt>
<totfact> 0.52860620E+01</totfact>
</mgrwt>
</event>
<event>
 4    1  0.3565372E-007  0.6926123E+03  0.7818608E-02  0.1002935E+00
          2   -1    0    0  501    0  0.00000000000E+00  0.00000000000E+00  0.91202793255E+03  0.91202793255E+03  0.25500000000E-02 0. -1.
         -2   -1    0    0    0  501 -0.00000000000E+00 -0.00000000000E+00 -0.33934331823E+03  0.33934331824E+03  0.25500000000E-02 0.  1.
    8880023    1    1    2    0    0 -0.14321720349E+03  0.15934374404E+03  0.67671353626E+03  0.96832484867E+03  0.65864270000E+03 0. -1.
    8880022    1    1    2    0    0  0.14321720349E+03 -0.15934374404E+03 -0.10402892194E+03  0.28304640212E+03  0.15294330000E+03 0.  0.
<mgrwt>
<rscale>  0 0.54381855E+03</rscale>
<asrwt>0</asrwt>
<pdfrwt beam="1">  1        2 0.14031199E+00 0.69261230E+03</pdfrwt>
<pdfrwt beam="2">  1       -2 0.52206665E-01 0.69261230E+03</pdfrwt>
<totfact> 0.10137895E+02</totfact>
</mgrwt>
</event>
<event>
 4    1  0.3565372E-007  0.9933196E+03  0.7818608E-02  0.9390350E-01
          2   -1    0    0  501    0  0.00000000000E+00  0.00000000000E+00  0.21612122481E+04  0.21612122481E+04  0.25500000000E-02 0. -1.
         -2   -1    0    0    0  501 -0.00000000000E+00 -0.00000000000E+00 -0.94982593575E+03  0.94982593575E+03  0.25500000000E-02 0.  1.
    8880023    1    1    2    0    0 -0.71056414615E+03 -0.21902570236E+03 -0.59063242422E+03  0.11556515612E+04  0.65864270000E+03 0.  0.
    8880022    1    1    2    0    0  0.71056414615E+03  0.21902570236E+03  0.18020187366E+04  0.19553866227E+04  0.15294330000E+03 0.  0.
<mgrwt>
<rscale>  0 0.92874090E+03</rscale>
<asrwt>0</asrwt>
<pdfrwt beam="1">  1        2 0.33249419E+00 0.99331962E+03</pdfrwt>
<pdfrwt beam="2">  1       -2 0.14612707E+00 0.99331962E+03</pdfrwt>
<totfact> 0.17451701E+00</totfact>
</mgrwt>
</event>
<event>
 4    1  0.3565372E-007  0.1043110E+04  0.7818608E-02  0.9327211E-01
          2   -1    0    0  501    0  0.00000000000E+00  0.00000000000E+00  0.39999309780E+04  0.39999309780E+04  0.25500000000E-02 0. -1.
         -2   -1    0    0    0  501 -0.00000000000E+00 -0.00000000000E+00 -0.24731362203E+03  0.24731362205E+03  0.25500000000E-02 0.  1.
    8880023    1    1    2    0    0  0.80846566802E+03  0.25511817524E+02  0.28012873256E+04  0.29891952891E+04  0.65864270000E+03 0.  0.
    8880022    1    1    2    0    0 -0.80846566802E+03 -0.25511817524E+02  0.95133003031E+03  0.12580493110E+04  0.15294330000E+03 0.  0.
<mgrwt>
<rscale>  0 0.98315932E+03</rscale>
<asrwt>0</asrwt>
<pdfrwt beam="1">  1        2 0.61537398E+00 0.10431097E+04</pdfrwt>
<pdfrwt beam="2">  1       -2 0.38048251E-01 0.10431097E+04</pdfrwt>
<totfact> 0.23358788E+00</totfact>
</mgrwt>
</event>
<event>
 4    1  0.3565372E-007  0.8334573E+03  0.7818608E-02  0.9642643E-01
         -2   -1    0    0    0  501 -0.00000000000E+00  0.00000000000E+00  0.18822190391E+03  0.18822190393E+03  0.25500000000E-02 0.  1.
          2   -1    0    0  501    0  0.00000000000E+00 -0.00000000000E+00 -0.35622462023E+04  0.35622462023E+04  0.25500000000E-02 0. -1.
    8880023    1    1    2    0    0  0.20026711281E+03 -0.46982334782E+03 -0.29609973756E+04  0.30760618588E+04  0.65864270000E+03 0. -1.
    8880022    1    1    2    0    0 -0.20026711281E+03  0.46982334782E+03 -0.41302692286E+03  0.67440624749E+03  0.15294330000E+03 0.  0.
<mgrwt>
<rscale>  0 0.74536973E+03</rscale>
<asrwt>0</asrwt>
<pdfrwt beam="1">  1        2 0.54803783E+00 0.83345732E+03</pdfrwt>
<pdfrwt beam="2">  1       -2 0.28957219E-01 0.83345732E+03</pdfrwt>
<totfact> 0.85776996E+00</totfact>
</mgrwt>
</event>
<event>
 4    1  0.3565372E-007  0.8045838E+03  0.7818608E-02  0.9700971E-01
          2   -1    0    0  501    0  0.00000000000E+00  0.00000000000E+00  0.15252018087E+04  0.15252018087E+04  0.25500000000E-02 0. -1.
         -2   -1    0    0    0  501 -0.00000000000E+00 -0.00000000000E+00 -0.50414032494E+03  0.50414032495E+03  0.25500000000E-02 0.  1.
    8880023    1    1    2    0    0  0.36943678751E+03  0.27759918523E+03  0.12538369255E+04  0.14897859207E+04  0.65864270000E+03 0. -1.
    8880022    1    1    2    0    0 -0.36943678751E+03 -0.27759918523E+03 -0.23277544173E+03  0.53955621292E+03  0.15294330000E+03 0.  0.
<mgrwt>
<rscale>  0 0.70958994E+03</rscale>
<asrwt>0</asrwt>
<pdfrwt beam="1">  1        2 0.23464643E+00 0.80458378E+03</pdfrwt>
<pdfrwt beam="2">  1       -2 0.77560051E-01 0.80458378E+03</pdfrwt>
<totfact> 0.18527822E+01</totfact>
</mgrwt>
</event>
<event>
 4    1  0.4623543E-007  0.7367202E+03  0.7818608E-02  0.9869606E-01
         -2   -1    0    0    0  501 -0.00000000000E+00  0.00000000000E+00  0.12959648643E+04  0.12959648643E+04  0.25500000000E-02 0.  1.
          2   -1    0    0  501    0  0.00000000000E+00 -0.00000000000E+00 -0.14922649539E+04  0.14922649539E+04  0.25500000000E-02 0. -1.
    8880023    1    1    2    0    0 -0.20559476432E+02 -0.32942954016E+03 -0.13721356995E+04  0.15574058874E+04  0.65864270000E+03 0. -1.
    8880022    1    1    2    0    0  0.20559476432E+02  0.32942954016E+03  0.11758356099E+04  0.12308239307E+04  0.15294330000E+03 0.  0.
<mgrwt>
<rscale>  0 0.61757199E+03</rscale>
<asrwt>0</asrwt>
<pdfrwt beam="1">  1        2 0.22957922E+00 0.73672025E+03</pdfrwt>
<pdfrwt beam="2">  1       -2 0.19937921E+00 0.73672025E+03</pdfrwt>
<totfact> 0.17810131E+00</totfact>
</mgrwt>
</event>
<event>
 4    1  0.3565372E-007  0.1053220E+04  0.7818608E-02  0.9315021E-01
         -2   -1    0    0    0  501 -0.00000000000E+00  0.00000000000E+00  0.53113688054E+03  0.53113688054E+03  0.25500000000E-02 0.  1.
          2   -1    0    0  501    0  0.00000000000E+00 -0.00000000000E+00 -0.22959785434E+04  0.22959785434E+04  0.25500000000E-02 0. -1.
    8880023    1    1    2    0    0  0.69257039973E+03 -0.44250179317E+03 -0.16853378358E+04  0.19873689699E+04  0.65864270000E+03 0.  0.
    8880022    1    1    2    0    0 -0.69257039973E+03  0.44250179317E+03 -0.79503827076E+02  0.83974645404E+03  0.15294330000E+03 0.  0.
<mgrwt>
<rscale>  0 0.99411697E+03</rscale>
<asrwt>0</asrwt>
<pdfrwt beam="1">  1        2 0.35322746E+00 0.10532197E+04</pdfrwt>
<pdfrwt beam="2">  1       -2 0.81713367E-01 0.10532197E+04</pdfrwt>
<totfact> 0.60051209E+00</totfact>
</mgrwt>
</event>
<event>
 4    1  0.3565372E-007  0.1438440E+04  0.7818608E-02  0.8954375E-01
          2   -1    0    0  501    0  0.00000000000E+00  0.00000000000E+00  0.12813361558E+04  0.12813361558E+04  0.25500000000E-02 0. -1.
         -2   -1    0    0    0  501 -0.00000000000E+00 -0.00000000000E+00 -0.15796110658E+04  0.15796110658E+04  0.25500000000E-02 0.  1.
    8880023    1    1    2    0    0 -0.20526068190E+03 -0.12622078562E+04  0.25211667158E+03  0.14603676394E+04  0.65864270000E+03 0.  0.
    8880022    1    1    2    0    0  0.20526068190E+03  0.12622078562E+04 -0.55039158159E+03  0.14005795821E+04  0.15294330000E+03 0.  0.
<mgrwt>
<rscale>  0 0.13992317E+04</rscale>
<asrwt>0</asrwt>
<pdfrwt beam="1">  1        2 0.19712864E+00 0.14384404E+04</pdfrwt>
<pdfrwt beam="2">  1       -2 0.24301709E+00 0.14384404E+04</pdfrwt>
<totfact> 0.11408485E+00</totfact>
</mgrwt>
</event>
<event>
 4    1  0.3565372E-007  0.6698175E+03  0.7818608E-02  0.1015794E+00
         -2   -1    0    0    0  501 -0.00000000000E+00  0.00000000000E+00  0.12820112707E+04  0.12820112707E+04  0.25500000000E-02 0.  1.
          2   -1    0    0  501    0  0.00000000000E+00 -0.00000000000E+00 -0.47748307360E+03  0.47748307361E+03  0.25500000000E-02 0. -1.
    8880023    1    1    2    0    0 -0.12180460893E+03 -0.29802800981E+01 -0.22880771766E+03  0.70781948458E+03  0.65864270000E+03 0. -1.
    8880022    1    1    2    0    0  0.12180460893E+03  0.29802800981E+01  0.10333359148E+04  0.10516748598E+04  0.15294330000E+03 0.  0.
<mgrwt>
<rscale>  0 0.49235425E+03</rscale>
<asrwt>0</asrwt>
<pdfrwt beam="1">  1        2 0.73458935E-01 0.66981748E+03</pdfrwt>
<pdfrwt beam="2">  1       -2 0.19723250E+00 0.66981748E+03</pdfrwt>
<totfact> 0.92640190E+00</totfact>
</mgrwt>
</event>
<event>
 4    1  0.3565372E-007  0.6928703E+03  0.7818608E-02  0.1002817E+00
          2   -1    0    0  501    0  0.00000000000E+00  0.00000000000E+00  0.20363878330E+04  0.20363878330E+04  0.25500000000E-02 0. -1.
         -2   -1    0    0    0  501 -0.00000000000E+00 -0.00000000000E+00 -0.29163737795E+03  0.29163737796E+03  0.25500000000E-02 0.  1.
    8880023    1    1    2    0    0  0.48249166307E+02  0.20959750652E+03  0.18996140064E+04  0.20220293460E+04  0.65864270000E+03 0. -1.
    8880022    1    1    2    0    0 -0.48249166307E+02 -0.20959750652E+03 -0.15486355134E+03  0.30599586490E+03  0.15294330000E+03 0.  0.
<mgrwt>
<rscale>  0 0.54432051E+03</rscale>
<asrwt>0</asrwt>
<pdfrwt beam="1">  1        2 0.31329044E+00 0.69287034E+03</pdfrwt>
<pdfrwt beam="2">  1       -2 0.44867288E-01 0.69287034E+03</pdfrwt>
<totfact> 0.31276862E+01</totfact>
</mgrwt>
</event>
<event>
 4    1  0.3565372E-007  0.8799007E+03  0.7818608E-02  0.9559100E-01
         -2   -1    0    0    0  501 -0.00000000000E+00  0.00000000000E+00  0.60382154666E+03  0.60382154666E+03  0.25500000000E-02 0.  1.
          2   -1    0    0  501    0  0.00000000000E+00 -0.00000000000E+00 -0.11002248799E+04  0.11002248799E+04  0.25500000000E-02 0. -1.
    8880023    1    1    2    0    0  0.42110412699E+03 -0.40383949149E+03 -0.63507415788E+03  0.10851471849E+04  0.65864270000E+03 0.  0.
    8880022    1    1    2    0    0 -0.42110412699E+03  0.40383949149E+03  0.13867082466E+03  0.61889924163E+03  0.15294330000E+03 0.  0.
<mgrwt>
<rscale>  0 0.80063409E+03</rscale>
<asrwt>0</asrwt>
<pdfrwt beam="1">  1        2 0.16926537E+00 0.87990069E+03</pdfrwt>
<pdfrwt beam="2">  1       -2 0.92895622E-01 0.87990069E+03</pdfrwt>
<totfact> 0.21489170E+01</totfact>
</mgrwt>
</event>
<event>
 4    1  0.3565372E-007  0.9596632E+03  0.7818608E-02  0.9436345E-01
          2   -1    0    0  501    0  0.00000000000E+00  0.00000000000E+00  0.24788906807E+04  0.24788906807E+04  0.25500000000E-02 0. -1.
         -2   -1    0    0    0  501 -0.00000000000E+00 -0.00000000000E+00 -0.39580882537E+03  0.39580882538E+03  0.25500000000E-02 0.  1.
    8880023    1    1    2    0    0  0.68211616390E+03  0.14785381204E+03  0.19130041561E+04  0.21402192221E+04  0.65864270000E+03 0. -1.
    8880022    1    1    2    0    0 -0.68211616390E+03 -0.14785381204E+03  0.17007769914E+03  0.73448028397E+03  0.15294330000E+03 0.  0.
<mgrwt>
<rscale>  0 0.89144037E+03</rscale>
<asrwt>0</asrwt>
<pdfrwt beam="1">  1        2 0.38136780E+00 0.95966318E+03</pdfrwt>
<pdfrwt beam="2">  1       -2 0.60893665E-01 0.95966318E+03</pdfrwt>
<totfact> 0.91353336E+00</totfact>
</mgrwt>
</event>
<event>
 4    1  0.3565372E-007  0.7331084E+03  0.7818608E-02  0.9880496E-01
         -2   -1    0    0    0  501 -0.00000000000E+00  0.00000000000E+00  0.52498467158E+03  0.52498467159E+03  0.25500000000E-02 0.  1.
          2   -1    0    0  501    0  0.00000000000E+00 -0.00000000000E+00 -0.79571156611E+03  0.79571156612E+03  0.25500000000E-02 0. -1.
    8880023    1    1    2    0    0 -0.26976394408E+03  0.17568473698E+03  0.17132258926E+03  0.75286077609E+03  0.65864270000E+03 0.  1.
    8880022    1    1    2    0    0  0.26976394408E+03 -0.17568473698E+03 -0.44204948379E+03  0.56783546161E+03  0.15294330000E+03 0.  0.
<mgrwt>
<rscale>  0 0.61215889E+03</rscale>
<asrwt>0</asrwt>
<pdfrwt beam="1">  1        2 0.12241716E+00 0.73310839E+03</pdfrwt>
<pdfrwt beam="2">  1       -2 0.80766872E-01 0.73310839E+03</pdfrwt>
<totfact> 0.47643827E+01</totfact>
</mgrwt>
</event>
<event>
 4    1  0.3565372E-007  0.6859958E+03  0.7818608E-02  0.1006117E+00
         -2   -1    0    0    0  501 -0.00000000000E+00  0.00000000000E+00  0.22877389422E+03  0.22877389423E+03  0.25500000000E-02 0.  1.
          2   -1    0    0  501    0  0.00000000000E+00 -0.00000000000E+00 -0.21601922374E+04  0.21601922374E+04  0.25500000000E-02 0. -1.
    8880023    1    1    2    0    0  0.18640195314E+03  0.45103133670E+02 -0.20159814216E+04  0.21295002416E+04  0.65864270000E+03 0. -1.
    8880022    1    1    2    0    0 -0.18640195314E+03 -0.45103133670E+02  0.84563078419E+02  0.25946588995E+03  0.15294330000E+03 0.  0.
<mgrwt>
<rscale>  0 0.53047516E+03</rscale>
<asrwt>0</asrwt>
<pdfrwt beam="1">  1        2 0.33233725E+00 0.68599576E+03</pdfrwt>
<pdfrwt beam="2">  1       -2 0.35195985E-01 0.68599576E+03</pdfrwt>
<totfact> 0.42969173E+01</totfact>
</mgrwt>
</event>
<event>
 4    1  0.3565372E-007  0.1044009E+04  0.7818608E-02  0.9326119E-01
         -2   -1    0    0    0  501 -0.00000000000E+00  0.00000000000E+00  0.56662118669E+03  0.56662118669E+03  0.25500000000E-02 0.  1.
          2   -1    0    0  501    0  0.00000000000E+00 -0.00000000000E+00 -0.20719901292E+04  0.20719901292E+04  0.25500000000E-02 0. -1.
    8880023    1    1    2    0    0  0.53617816310E+03 -0.60717118930E+03 -0.15349899539E+03  0.10552326869E+04  0.65864270000E+03 0.  1.
    8880022    1    1    2    0    0 -0.53617816310E+03  0.60717118930E+03 -0.13518699471E+04  0.15833786289E+04  0.15294330000E+03 0. -1.
<mgrwt>
<rscale>  0 0.98413482E+03</rscale>
<asrwt>0</asrwt>
<pdfrwt beam="1">  1        2 0.31876771E+00 0.10440087E+04</pdfrwt>
<pdfrwt beam="2">  1       -2 0.87172491E-01 0.10440087E+04</pdfrwt>
<totfact> 0.69102187E+00</totfact>
</mgrwt>
</event>
<event>
 4    1  0.6035923E-007  0.1299706E+04  0.7818608E-02  0.9065813E-01
         -2   -1    0    0    0  501 -0.00000000000E+00  0.00000000000E+00  0.14903867910E+04  0.14903867910E+04  0.25500000000E-02 0.  1.
          2   -1    0    0  501    0  0.00000000000E+00 -0.00000000000E+00 -0.24834149866E+04  0.24834149866E+04  0.25500000000E-02 0. -1.
    8880023    1    1    2    0    0 -0.21022402675E+03  0.11005599888E+04 -0.20490882475E+04  0.24265199943E+04  0.65864270000E+03 0.  0.
    8880022    1    1    2    0    0  0.21022402675E+03 -0.11005599888E+04  0.10560600519E+04  0.15472817832E+04  0.15294330000E+03 0.  0.
<mgrwt>
<rscale>  0 0.12552639E+04</rscale>
<asrwt>0</asrwt>
<pdfrwt beam="1">  1        2 0.38206385E+00 0.12997064E+04</pdfrwt>
<pdfrwt beam="2">  1       -2 0.22929027E+00 0.12997064E+04</pdfrwt>
<totfact> 0.29584130E-01</totfact>
</mgrwt>
</event>
<event>
 4    1  0.3565372E-007  0.7154722E+03  0.7818608E-02  0.9938215E-01
          2   -1    0    0  501    0  0.00000000000E+00  0.00000000000E+00  0.75008755007E+03  0.75008755007E+03  0.25500000000E-02 0. -1.
         -2   -1    0    0    0  501 -0.00000000000E+00 -0.00000000000E+00 -0.43241343380E+03  0.43241343381E+03  0.25500000000E-02 0.  1.
    8880023    1    1    2    0    0 -0.23020074512E+03  0.15842320470E+03  0.44149061666E+03  0.84072258546E+03  0.65864270000E+03 0.  0.
    8880022    1    1    2    0    0  0.23020074512E+03 -0.15842320470E+03 -0.12381650040E+03  0.34177839842E+03  0.15294330000E+03 0.  0.
<mgrwt>
<rscale>  0 0.58444437E+03</rscale>
<asrwt>0</asrwt>
<pdfrwt beam="1">  1        2 0.11539809E+00 0.71547222E+03</pdfrwt>
<pdfrwt beam="2">  1       -2 0.66525143E-01 0.71547222E+03</pdfrwt>
<totfact> 0.79033334E+01</totfact>
</mgrwt>
</event>
<event>
 4    1  0.3565372E-007  0.8109030E+03  0.7818608E-02  0.9687699E-01
          2   -1    0    0  501    0  0.00000000000E+00  0.00000000000E+00  0.42600003477E+03  0.42600003478E+03  0.25500000000E-02 0. -1.
         -2   -1    0    0    0  501 -0.00000000000E+00 -0.00000000000E+00 -0.10366862595E+04  0.10366862595E+04  0.25500000000E-02 0.  1.
    8880023    1    1    2    0    0 -0.37011602100E+03 -0.29456329914E+03 -0.50230280374E+03  0.95387196159E+03  0.65864270000E+03 0.  0.
    8880022    1    1    2    0    0  0.37011602100E+03  0.29456329914E+03 -0.10838342101E+03  0.50881433271E+03  0.15294330000E+03 0.  0.
<mgrwt>
<rscale>  0 0.71753924E+03</rscale>
<asrwt>0</asrwt>
<pdfrwt beam="1">  1        2 0.65538467E-01 0.81090296E+03</pdfrwt>
<pdfrwt beam="2">  1       -2 0.15949019E+00 0.81090296E+03</pdfrwt>
<totfact> 0.18977534E+01</totfact>
</mgrwt>
</event>
<event>
 4    1  0.3565372E-007  0.1807324E+04  0.7818608E-02  0.8718496E-01
          2   -1    0    0  501    0  0.00000000000E+00  0.00000000000E+00  0.14008365370E+04  0.14008365370E+04  0.25500000000E-02 0. -1.
         -2   -1    0    0    0  501 -0.00000000000E+00 -0.00000000000E+00 -0.28028136003E+04  0.28028136003E+04  0.25500000000E-02 0.  1.
    8880023    1    1    2    0    0  0.90625732834E+03 -0.14182058848E+04  0.26879975584E+03  0.18272038178E+04  0.65864270000E+03 0.  0.
    8880022    1    1    2    0    0 -0.90625732834E+03  0.14182058848E+04 -0.16707768192E+04  0.23764463195E+04  0.15294330000E+03 0.  0.
<mgrwt>
<rscale>  0 0.17772431E+04</rscale>
<asrwt>0</asrwt>
<pdfrwt beam="1">  1        2 0.21551331E+00 0.18073241E+04</pdfrwt>
<pdfrwt beam="2">  1       -2 0.43120209E+00 0.18073241E+04</pdfrwt>
<totfact> 0.60853208E-02</totfact>
</mgrwt>
</event>
<event>
 4    1  0.3565372E-007  0.1254870E+04  0.7818608E-02  0.9105547E-01
          2   -1    0    0  501    0  0.00000000000E+00  0.00000000000E+00  0.25850283929E+04  0.25850283929E+04  0.25500000000E-02 0. -1.
         -2   -1    0    0    0  501 -0.00000000000E+00 -0.00000000000E+00 -0.12573293279E+04  0.12573293279E+04  0.25500000000E-02 0.  1.
    8880023    1    1    2    0    0 -0.97497916786E+03 -0.43623751768E+03 -0.77787291428E+03  0.14764091664E+04  0.65864270000E+03 0.  1.
    8880022    1    1    2    0    0  0.97497916786E+03  0.43623751768E+03  0.21055719793E+04  0.23659485545E+04  0.15294330000E+03 0.  0.
<mgrwt>
<rscale>  0 0.12083871E+04</rscale>
<asrwt>0</asrwt>
<pdfrwt beam="1">  1        2 0.39769667E+00 0.12548696E+04</pdfrwt>
<pdfrwt beam="2">  1       -2 0.19343528E+00 0.12548696E+04</pdfrwt>
<totfact> 0.44252623E-01</totfact>
</mgrwt>
</event>
<event>
 4    1  0.3565372E-007  0.6904580E+03  0.7818608E-02  0.1003936E+00
          2   -1    0    0  501    0  0.00000000000E+00  0.00000000000E+00  0.12594640511E+04  0.12594640511E+04  0.25500000000E-02 0. -1.
         -2   -1    0    0    0  501 -0.00000000000E+00 -0.00000000000E+00 -0.64095420614E+03  0.64095420615E+03  0.25500000000E-02 0.  1.
    8880023    1    1    2    0    0 -0.15199597504E+03 -0.14078112530E+03  0.11320111031E+04  0.13259643455E+04  0.65864270000E+03 0. -1.
    8880022    1    1    2    0    0  0.15199597504E+03  0.14078112530E+03 -0.51350125812E+03  0.57445391179E+03  0.15294330000E+03 0.  0.
<mgrwt>
<rscale>  0 0.53957699E+03</rscale>
<asrwt>0</asrwt>
<pdfrwt beam="1">  1        2 0.19376370E+00 0.69045804E+03</pdfrwt>
<pdfrwt beam="2">  1       -2 0.98608340E-01 0.69045804E+03</pdfrwt>
<totfact> 0.15324517E+01</totfact>
</mgrwt>
</event>
<event>
 4    1  0.3565372E-007  0.6639246E+03  0.7818608E-02  0.1020453E+00
         -2   -1    0    0    0  501 -0.00000000000E+00  0.00000000000E+00  0.23806027537E+03  0.23806027538E+03  0.25500000000E-02 0.  1.
          2   -1    0    0  501    0  0.00000000000E+00 -0.00000000000E+00 -0.13863363562E+04  0.13863363562E+04  0.25500000000E-02 0. -1.
    8880023    1    1    2    0    0  0.62930216061E+02 -0.55004372940E+02 -0.12551635031E+04  0.14199406040E+04  0.65864270000E+03 0. -1.
    8880022    1    1    2    0    0 -0.62930216061E+02  0.55004372940E+02  0.10688742231E+03  0.20445602754E+03  0.15294330000E+03 0.  0.
<mgrwt>
<rscale>  0 0.47523433E+03</rscale>
<asrwt>0</asrwt>
<pdfrwt beam="1">  1        2 0.21328251E+00 0.66392462E+03</pdfrwt>
<pdfrwt beam="2">  1       -2 0.36624659E-01 0.66392462E+03</pdfrwt>
<totfact> 0.10599334E+02</totfact>
</mgrwt>
</event>
<event>
 4    1  0.3565372E-007  0.9949186E+03  0.7818608E-02  0.9388236E-01
          2   -1    0    0  501    0  0.00000000000E+00  0.00000000000E+00  0.10158603675E+04  0.10158603675E+04  0.25500000000E-02 0. -1.
         -2   -1    0    0    0  501 -0.00000000000E+00 -0.00000000000E+00 -0.10380004248E+04  0.10380004248E+04  0.25500000000E-02 0.  1.
    8880023    1    1    2    0    0  0.41690376058E+03 -0.61825889065E+03  0.51683884039E+03  0.11211535999E+04  0.65864270000E+03 0.  0.
    8880022    1    1    2    0    0 -0.41690376058E+03  0.61825889065E+03 -0.53897889766E+03  0.93270719231E+03  0.15294330000E+03 0.  0.
<mgrwt>
<rscale>  0 0.93050163E+03</rscale>
<asrwt>0</asrwt>
<pdfrwt beam="1">  1        2 0.15628621E+00 0.99491859E+03</pdfrwt>
<pdfrwt beam="2">  1       -2 0.15969237E+00 0.99491859E+03</pdfrwt>
<totfact> 0.61783463E+00</totfact>
</mgrwt>
</event>
<event>
 4    1  0.3565372E-007  0.6627111E+03  0.7818608E-02  0.1021536E+00
         -2   -1    0    0    0  501 -0.00000000000E+00  0.00000000000E+00  0.25074941381E+03  0.25074941382E+03  0.25500000000E-02 0.  1.
          2   -1    0    0  501    0  0.00000000000E+00 -0.00000000000E+00 -0.12932067372E+04  0.12932067372E+04  0.25500000000E-02 0. -1.
    8880023    1    1    2    0    0 -0.63716989207E+02  0.36276647604E+02 -0.11611382463E+04  0.13369473001E+04  0.65864270000E+03 0. -1.
    8880022    1    1    2    0    0  0.63716989207E+02 -0.36276647604E+02  0.11868092295E+03  0.20700885092E+03  0.15294330000E+03 0.  0.
<mgrwt>
<rscale>  0 0.47136353E+03</rscale>
<asrwt>0</asrwt>
<pdfrwt beam="1">  1        2 0.19895488E+00 0.66271114E+03</pdfrwt>
<pdfrwt beam="2">  1       -2 0.38576834E-01 0.66271114E+03</pdfrwt>
<totfact> 0.10838191E+02</totfact>
</mgrwt>
</event>
<event>
 4    1  0.3565372E-007  0.6770710E+03  0.7818608E-02  0.1011031E+00
          2   -1    0    0  501    0  0.00000000000E+00  0.00000000000E+00  0.35635233493E+03  0.35635233494E+03  0.25500000000E-02 0. -1.
         -2   -1    0    0    0  501 -0.00000000000E+00 -0.00000000000E+00 -0.95854187928E+03  0.95854187928E+03  0.25500000000E-02 0.  1.
    8880023    1    1    2    0    0  0.12539067908E+03  0.94298097512E+02 -0.31885015537E+01  0.67707852307E+03  0.65864270000E+03 0. -1.
    8880022    1    1    2    0    0 -0.12539067908E+03 -0.94298097512E+02 -0.59900104279E+03  0.63781569115E+03  0.15294330000E+03 0.  0.
<mgrwt>
<rscale>  0 0.51066759E+03</rscale>
<asrwt>0</asrwt>
<pdfrwt beam="1">  1        2 0.54823436E-01 0.67707102E+03</pdfrwt>
<pdfrwt beam="2">  1       -2 0.14746798E+00 0.67707102E+03</pdfrwt>
<totfact> 0.28895756E+01</totfact>
</mgrwt>
</event>
<event>
 4    1  0.3565372E-007  0.9662635E+03  0.7818608E-02  0.9427091E-01
          2   -1    0    0  501    0  0.00000000000E+00  0.00000000000E+00  0.40155197592E+03  0.40155197593E+03  0.25500000000E-02 0. -1.
         -2   -1    0    0    0  501 -0.00000000000E+00 -0.00000000000E+00 -0.20859653579E+04  0.20859653579E+04  0.25500000000E-02 0.  1.
    8880023    1    1    2    0    0  0.61974089933E+03 -0.34025900331E+03 -0.47121648732E+03  0.10750396066E+04  0.65864270000E+03 0.  0.
    8880022    1    1    2    0    0 -0.61974089933E+03  0.34025900331E+03 -0.12131968947E+04  0.14124777272E+04  0.15294330000E+03 0.  0.
<mgrwt>
<rscale>  0 0.89879364E+03</rscale>
<asrwt>0</asrwt>
<pdfrwt beam="1">  1        2 0.61777228E-01 0.96626351E+03</pdfrwt>
<pdfrwt beam="2">  1       -2 0.32091774E+00 0.96626351E+03</pdfrwt>
<totfact> 0.19002319E+00</totfact>
</mgrwt>
</event>
<event>
 4    1  0.3565372E-007  0.7759703E+03  0.7818608E-02  0.9765389E-01
         -2   -1    0    0    0  501 -0.00000000000E+00  0.00000000000E+00  0.26580486308E+03  0.26580486310E+03  0.25500000000E-02 0.  1.
          2   -1    0    0  501    0  0.00000000000E+00 -0.00000000000E+00 -0.25175105723E+04  0.25175105723E+04  0.25500000000E-02 0. -1.
    8880023    1    1    2    0    0  0.14111298215E+03  0.38523610545E+03 -0.22114286088E+04  0.23436182344E+04  0.65864270000E+03 0.  0.
    8880022    1    1    2    0    0 -0.14111298215E+03 -0.38523610545E+03 -0.40277100379E+02  0.43969720093E+03  0.15294330000E+03 0.  0.
<mgrwt>
<rscale>  0 0.67253489E+03</rscale>
<asrwt>0</asrwt>
<pdfrwt beam="1">  1        2 0.38730930E+00 0.77597032E+03</pdfrwt>
<pdfrwt beam="2">  1       -2 0.40893057E-01 0.77597032E+03</pdfrwt>
<totfact> 0.20068697E+01</totfact>
</mgrwt>
</event>
<event>
 4    1  0.3565372E-007  0.7305370E+03  0.7818608E-02  0.9888422E-01
         -2   -1    0    0    0  501 -0.00000000000E+00  0.00000000000E+00  0.23325009578E+03  0.23325009579E+03  0.25500000000E-02 0.  1.
          2   -1    0    0  501    0  0.00000000000E+00 -0.00000000000E+00 -0.16630970999E+04  0.16630970999E+04  0.25500000000E-02 0. -1.
    8880023    1    1    2    0    0 -0.23845182616E+03 -0.20740011023E+03 -0.13519730165E+04  0.15367222660E+04  0.65864270000E+03 0. -1.
    8880022    1    1    2    0    0  0.23845182616E+03  0.20740011023E+03 -0.77873987640E+02  0.35962492974E+03  0.15294330000E+03 0.  1.
<mgrwt>
<rscale>  0 0.60825677E+03</rscale>
<asrwt>0</asrwt>
<pdfrwt beam="1">  1        2 0.25586108E+00 0.73053698E+03</pdfrwt>
<pdfrwt beam="2">  1       -2 0.35884631E-01 0.73053698E+03</pdfrwt>
<totfact> 0.76881831E+01</totfact>
</mgrwt>
</event>
<event>
 4    1  0.3565372E-007  0.1159798E+04  0.7818608E-02  0.9197227E-01
          2   -1    0    0  501    0  0.00000000000E+00  0.00000000000E+00  0.25552080259E+04  0.25552080259E+04  0.25500000000E-02 0. -1.
         -2   -1    0    0    0  501 -0.00000000000E+00 -0.00000000000E+00 -0.14119124177E+04  0.14119124177E+04  0.25500000000E-02 0.  1.
    8880023    1    1    2    0    0  0.35344243138E+03  0.88679237853E+03 -0.10535932089E+04  0.15669049528E+04  0.65864270000E+03 0.  0.
    8880022    1    1    2    0    0 -0.35344243138E+03 -0.88679237853E+03  0.21968888171E+04  0.24002154909E+04  0.15294330000E+03 0.  0.
<mgrwt>
<rscale>  0 0.11082092E+04</rscale>
<asrwt>0</asrwt>
<pdfrwt beam="1">  1        2 0.39310892E+00 0.11597985E+04</pdfrwt>
<pdfrwt beam="2">  1       -2 0.21721730E+00 0.11597985E+04</pdfrwt>
<totfact> 0.32700623E-01</totfact>
</mgrwt>
</event>
<event>
 4    1  0.3565372E-007  0.6709657E+03  0.7818608E-02  0.1014980E+00
         -2   -1    0    0    0  501 -0.00000000000E+00  0.00000000000E+00  0.92019447510E+02  0.92019447545E+02  0.25500000000E-02 0.  1.
          2   -1    0    0  501    0  0.00000000000E+00 -0.00000000000E+00 -0.21626009517E+04  0.21626009517E+04  0.25500000000E-02 0. -1.
    8880023    1    1    2    0    0  0.12799165634E+03 -0.17144339749E+01 -0.17792762206E+04  0.19015832558E+04  0.65864270000E+03 0.  0.
    8880022    1    1    2    0    0 -0.12799165634E+03  0.17144339749E+01 -0.29130528363E+03  0.35303714346E+03  0.15294330000E+03 0.  0.
<mgrwt>
<rscale>  0 0.49542568E+03</rscale>
<asrwt>0</asrwt>
<pdfrwt beam="1">  1        2 0.33270780E+00 0.67096573E+03</pdfrwt>
<pdfrwt beam="2">  1       -2 0.14156840E-01 0.67096573E+03</pdfrwt>
<totfact> 0.21686715E+02</totfact>
</mgrwt>
</event>
<event>
 4    1  0.3565372E-007  0.6923411E+03  0.7818608E-02  0.1003059E+00
          2   -1    0    0  501    0  0.00000000000E+00  0.00000000000E+00  0.67115277055E+03  0.67115277056E+03  0.25500000000E-02 0. -1.
         -2   -1    0    0    0  501 -0.00000000000E+00 -0.00000000000E+00 -0.93940480031E+03  0.93940480032E+03  0.25500000000E-02 0.  1.
    8880023    1    1    2    0    0 -0.21119105048E+03 -0.30401828597E+02  0.46348128404E+03  0.83315727081E+03  0.65864270000E+03 0. -1.
    8880022    1    1    2    0    0  0.21119105048E+03  0.30401828597E+02 -0.73173331381E+03  0.77740030006E+03  0.15294330000E+03 0.  0.
<mgrwt>
<rscale>  0 0.54328951E+03</rscale>
<asrwt>0</asrwt>
<pdfrwt beam="1">  1        2 0.10325427E+00 0.69234106E+03</pdfrwt>
<pdfrwt beam="2">  1       -2 0.14452382E+00 0.69234106E+03</pdfrwt>
<totfact> 0.14576288E+01</totfact>
</mgrwt>
</event>
<event>
 4    1  0.3565372E-007  0.8949616E+03  0.7818608E-02  0.9534169E-01
         -2   -1    0    0    0  501 -0.00000000000E+00  0.00000000000E+00  0.87463126983E+03  0.87463126984E+03  0.25500000000E-02 0.  1.
          2   -1    0    0  501    0  0.00000000000E+00 -0.00000000000E+00 -0.85330492013E+03  0.85330492013E+03  0.25500000000E-02 0. -1.
    8880023    1    1    2    0    0  0.47205204651E+03 -0.37988529877E+03 -0.39371735507E+03  0.97773694662E+03  0.65864270000E+03 0. -1.
    8880022    1    1    2    0    0 -0.47205204651E+03  0.37988529877E+03  0.41504370477E+03  0.75019924335E+03  0.15294330000E+03 0.  1.
<mgrwt>
<rscale>  0 0.81810895E+03</rscale>
<asrwt>0</asrwt>
<pdfrwt beam="1">  1        2 0.13127768E+00 0.89496155E+03</pdfrwt>
<pdfrwt beam="2">  1       -2 0.13455866E+00 0.89496155E+03</pdfrwt>
<totfact> 0.12575208E+01</totfact>
</mgrwt>
</event>
<event>
 4    1  0.3565372E-007  0.6703274E+03  0.7818608E-02  0.1015429E+00
         -2   -1    0    0    0  501 -0.00000000000E+00  0.00000000000E+00  0.15828555583E+03  0.15828555585E+03  0.25500000000E-02 0.  1.
          2   -1    0    0  501    0  0.00000000000E+00 -0.00000000000E+00 -0.19641969211E+04  0.19641969211E+04  0.25500000000E-02 0. -1.
    8880023    1    1    2    0    0  0.11777618939E+03 -0.40710630652E+02 -0.18047282119E+04  0.19251967981E+04  0.65864270000E+03 0. -1.
    8880022    1    1    2    0    0 -0.11777618939E+03  0.40710630652E+02 -0.11831533975E+01  0.19728567891E+03  0.15294330000E+03 0.  0.
<mgrwt>
<rscale>  0 0.49372732E+03</rscale>
<asrwt>0</asrwt>
<pdfrwt beam="1">  1        2 0.30218412E+00 0.67032738E+03</pdfrwt>
<pdfrwt beam="2">  1       -2 0.24351625E-01 0.67032738E+03</pdfrwt>
<totfact> 0.10872875E+02</totfact>
</mgrwt>
</event>
<event>
 4    1  0.3565372E-007  0.8878064E+03  0.7818608E-02  0.9545897E-01
          2   -1    0    0  501    0  0.00000000000E+00  0.00000000000E+00  0.22420986033E+04  0.22420986033E+04  0.25500000000E-02 0. -1.
         -2   -1    0    0    0  501 -0.00000000000E+00 -0.00000000000E+00 -0.28840130379E+03  0.28840130380E+03  0.25500000000E-02 0.  1.
    8880023    1    1    2    0    0 -0.58066878949E+03 -0.13120091959E+03  0.15766503559E+04  0.18094271125E+04  0.65864270000E+03 0.  0.
    8880022    1    1    2    0    0  0.58066878949E+03  0.13120091959E+03  0.37704694357E+03  0.72107279457E+03  0.15294330000E+03 0.  0.
<mgrwt>
<rscale>  0 0.80982986E+03</rscale>
<asrwt>0</asrwt>
<pdfrwt beam="1">  1        2 0.34493823E+00 0.88780636E+03</pdfrwt>
<pdfrwt beam="2">  1       -2 0.44369433E-01 0.88780636E+03</pdfrwt>
<totfact> 0.24029471E+01</totfact>
</mgrwt>
</event>
<event>
 4    1  0.3565372E-007  0.7102743E+03  0.7818608E-02  0.9956984E-01
         -2   -1    0    0    0  501 -0.00000000000E+00  0.00000000000E+00  0.48582041990E+03  0.48582041991E+03  0.25500000000E-02 0.  1.
          2   -1    0    0  501    0  0.00000000000E+00 -0.00000000000E+00 -0.10163033874E+04  0.10163033874E+04  0.25500000000E-02 0. -1.
    8880023    1    1    2    0    0 -0.21298013971E+03  0.15911912811E+03 -0.81687914295E+03  0.10824884190E+04  0.65864270000E+03 0. -1.
    8880022    1    1    2    0    0  0.21298013971E+03 -0.15911912811E+03  0.28639617541E+03  0.41963538834E+03  0.15294330000E+03 0.  0.
<mgrwt>
<rscale>  0 0.57577343E+03</rscale>
<asrwt>0</asrwt>
<pdfrwt beam="1">  1        2 0.15635437E+00 0.71027434E+03</pdfrwt>
<pdfrwt beam="2">  1       -2 0.74741603E-01 0.71027434E+03</pdfrwt>
<totfact> 0.40349272E+01</totfact>
</mgrwt>
</event>
<event>
 4    1  0.3565372E-007  0.8357022E+03  0.7818608E-02  0.9638338E-01
         -2   -1    0    0    0  501 -0.00000000000E+00  0.00000000000E+00  0.95537978208E+03  0.95537978208E+03  0.25500000000E-02 0.  1.
          2   -1    0    0  501    0  0.00000000000E+00 -0.00000000000E+00 -0.83026773511E+03  0.83026773511E+03  0.25500000000E-02 0. -1.
    8880023    1    1    2    0    0  0.30456765623E+03  0.41451969710E+03 -0.49046701301E+03  0.96899748897E+03  0.65864270000E+03 0. -1.
    8880022    1    1    2    0    0 -0.30456765623E+03 -0.41451969710E+03  0.61557905998E+03  0.81665002823E+03  0.15294330000E+03 0.  0.
<mgrwt>
<rscale>  0 0.74809872E+03</rscale>
<asrwt>0</asrwt>
<pdfrwt beam="1">  1        2 0.12773350E+00 0.83570225E+03</pdfrwt>
<pdfrwt beam="2">  1       -2 0.14698151E+00 0.83570225E+03</pdfrwt>
<totfact> 0.10433655E+01</totfact>
</mgrwt>
</event>
<event>
 4    1  0.3565372E-007  0.9376830E+03  0.7818608E-02  0.9468061E-01
          2   -1    0    0  501    0  0.00000000000E+00  0.00000000000E+00  0.15648197238E+04  0.15648197238E+04  0.25500000000E-02 0. -1.
         -2   -1    0    0    0  501 -0.00000000000E+00 -0.00000000000E+00 -0.51614453439E+03  0.51614453439E+03  0.25500000000E-02 0.  1.
    8880023    1    1    2    0    0 -0.46559315270E+03  0.47818644864E+03  0.10343359617E+04  0.13961018414E+04  0.65864270000E+03 0.  0.
    8880022    1    1    2    0    0  0.46559315270E+03 -0.47818644864E+03  0.14339227689E+02  0.68486241682E+03  0.15294330000E+03 0.  0.
<mgrwt>
<rscale>  0 0.86680034E+03</rscale>
<asrwt>0</asrwt>
<pdfrwt beam="1">  1        2 0.24074149E+00 0.93768303E+03</pdfrwt>
<pdfrwt beam="2">  1       -2 0.79406852E-01 0.93768303E+03</pdfrwt>
<totfact> 0.16465564E+01</totfact>
</mgrwt>
</event>
<event>
 4    1  0.3565372E-007  0.6700132E+03  0.7818608E-02  0.1015653E+00
         -2   -1    0    0    0  501 -0.00000000000E+00  0.00000000000E+00  0.73949178258E+03  0.73949178258E+03  0.25500000000E-02 0.  1.
          2   -1    0    0  501    0  0.00000000000E+00 -0.00000000000E+00 -0.47481600887E+03  0.47481600888E+03  0.25500000000E-02 0. -1.
    8880023    1    1    2    0    0 -0.34081964470E+02  0.11809256376E+03 -0.20879345007E+03  0.70179223775E+03  0.65864270000E+03 0. -1.
    8880022    1    1    2    0    0  0.34081964470E+02 -0.11809256376E+03  0.47346922377E+03  0.51251555370E+03  0.15294330000E+03 0.  0.
<mgrwt>
<rscale>  0 0.49288296E+03</rscale>
<asrwt>0</asrwt>
<pdfrwt beam="1">  1        2 0.73048617E-01 0.67001316E+03</pdfrwt>
<pdfrwt beam="2">  1       -2 0.11376797E+00 0.67001316E+03</pdfrwt>
<totfact> 0.40287289E+01</totfact>
</mgrwt>
</event>
<event>
 4    1  0.3565372E-007  0.1017454E+04  0.7818608E-02  0.9359071E-01
         -2   -1    0    0    0  501 -0.00000000000E+00  0.00000000000E+00  0.13990368129E+04  0.13990368129E+04  0.25500000000E-02 0.  1.
          2   -1    0    0  501    0  0.00000000000E+00 -0.00000000000E+00 -0.73368221817E+03  0.73368221818E+03  0.25500000000E-02 0. -1.
    8880023    1    1    2    0    0 -0.51353242947E+03 -0.58110771429E+03 -0.11259632554E+03  0.10236649210E+04  0.65864270000E+03 0.  0.
    8880022    1    1    2    0    0  0.51353242947E+03  0.58110771429E+03  0.77795092031E+03  0.11090541101E+04  0.15294330000E+03 0.  0.
<mgrwt>
<rscale>  0 0.95521917E+03</rscale>
<asrwt>0</asrwt>
<pdfrwt beam="1">  1        2 0.11287419E+00 0.10174537E+04</pdfrwt>
<pdfrwt beam="2">  1       -2 0.21523643E+00 0.10174537E+04</pdfrwt>
<totfact> 0.40587386E+00</totfact>
</mgrwt>
</event>
<event>
 4    1  0.3565372E-007  0.8478568E+03  0.7818608E-02  0.9615540E-01
          2   -1    0    0  501    0  0.00000000000E+00  0.00000000000E+00  0.59045354070E+03  0.59045354070E+03  0.25500000000E-02 0. -1.
         -2   -1    0    0    0  501 -0.00000000000E+00 -0.00000000000E+00 -0.10687806131E+04  0.10687806131E+04  0.25500000000E-02 0.  1.
    8880023    1    1    2    0    0 -0.51907791759E+03 -0.12493630904E+03  0.10437765775E+03  0.85425749488E+03  0.65864270000E+03 0.  0.
    8880022    1    1    2    0    0  0.51907791759E+03  0.12493630904E+03 -0.58270473012E+03  0.80497665890E+03  0.15294330000E+03 0.  0.
<mgrwt>
<rscale>  0 0.76276136E+03</rscale>
<asrwt>0</asrwt>
<pdfrwt beam="1">  1        2 0.90839006E-01 0.84785681E+03</pdfrwt>
<pdfrwt beam="2">  1       -2 0.16442779E+00 0.84785681E+03</pdfrwt>
<totfact> 0.11891373E+01</totfact>
</mgrwt>
</event>
<event>
 4    1  0.3565372E-007  0.1067285E+04  0.7818608E-02  0.9298385E-01
          2   -1    0    0  501    0  0.00000000000E+00  0.00000000000E+00  0.96903563510E+03  0.96903563510E+03  0.25500000000E-02 0. -1.
         -2   -1    0    0    0  501 -0.00000000000E+00 -0.00000000000E+00 -0.11649303730E+04  0.11649303730E+04  0.25500000000E-02 0.  1.
    8880023    1    1    2    0    0 -0.83943471693E+03  0.25234875277E+02  0.34705841026E+03  0.11222955000E+04  0.65864270000E+03 0.  0.
    8880022    1    1    2    0    0  0.83943471693E+03 -0.25234875277E+02 -0.54295314821E+03  0.10116705082E+04  0.15294330000E+03 0.  0.
<mgrwt>
<rscale>  0 0.10093166E+04</rscale>
<asrwt>0</asrwt>
<pdfrwt beam="1">  1        2 0.14908241E+00 0.10672852E+04</pdfrwt>
<pdfrwt beam="2">  1       -2 0.17922006E+00 0.10672852E+04</pdfrwt>
<totfact> 0.47699393E+00</totfact>
</mgrwt>
</event>
<event>
 4    1  0.3565372E-007  0.9862563E+03  0.7818608E-02  0.9399764E-01
          2   -1    0    0  501    0  0.00000000000E+00  0.00000000000E+00  0.22467518403E+04  0.22467518403E+04  0.25500000000E-02 0. -1.
         -2   -1    0    0    0  501 -0.00000000000E+00 -0.00000000000E+00 -0.44970922410E+03  0.44970922410E+03  0.25500000000E-02 0.  1.
    8880023    1    1    2    0    0  0.57051450728E+03  0.46195723063E+03  0.16648362619E+04  0.19350403798E+04  0.65864270000E+03 0. -1.
    8880022    1    1    2    0    0 -0.57051450728E+03 -0.46195723063E+03  0.13220635431E+03  0.76142068469E+03  0.15294330000E+03 0.  0.
<mgrwt>
<rscale>  0 0.92095139E+03</rscale>
<asrwt>0</asrwt>
<pdfrwt beam="1">  1        2 0.34565413E+00 0.98625630E+03</pdfrwt>
<pdfrwt beam="2">  1       -2 0.69186034E-01 0.98625630E+03</pdfrwt>
<totfact> 0.93444382E+00</totfact>
</mgrwt>
</event>
<event>
 4    1  0.3565372E-007  0.1134273E+04  0.7818608E-02  0.9223824E-01
          2   -1    0    0  501    0  0.00000000000E+00  0.00000000000E+00  0.77052241117E+03  0.77052241118E+03  0.25500000000E-02 0. -1.
         -2   -1    0    0    0  501 -0.00000000000E+00 -0.00000000000E+00 -0.15765538353E+04  0.15765538353E+04  0.25500000000E-02 0.  1.
    8880023    1    1    2    0    0 -0.62354437634E+03  0.68114340347E+03 -0.83838818244E+03  0.14104853335E+04  0.65864270000E+03 0.  0.
    8880022    1    1    2    0    0  0.62354437634E+03 -0.68114340347E+03  0.32356758337E+02  0.93659091293E+03  0.15294330000E+03 0.  0.
<mgrwt>
<rscale>  0 0.10810872E+04</rscale>
<asrwt>0</asrwt>
<pdfrwt beam="1">  1        2 0.11854191E+00 0.11342725E+04</pdfrwt>
<pdfrwt beam="2">  1       -2 0.24254674E+00 0.11342725E+04</pdfrwt>
<totfact> 0.25415979E+00</totfact>
</mgrwt>
</event>
<event>
 4    1  0.3565372E-007  0.7466525E+03  0.7818608E-02  0.9840976E-01
         -2   -1    0    0    0  501 -0.00000000000E+00  0.00000000000E+00  0.16014732413E+03  0.16014732415E+03  0.25500000000E-02 0.  1.
          2   -1    0    0  501    0  0.00000000000E+00 -0.00000000000E+00 -0.22727571897E+04  0.22727571897E+04  0.25500000000E-02 0. -1.
    8880023    1    1    2    0    0  0.33686210671E+03  0.10101318885E+03 -0.17604508272E+04  0.19122439866E+04  0.65864270000E+03 0.  0.
    8880022    1    1    2    0    0 -0.33686210671E+03 -0.10101318885E+03 -0.35215903836E+03  0.52066052719E+03  0.15294330000E+03 0.  0.
<mgrwt>
<rscale>  0 0.63209145E+03</rscale>
<asrwt>0</asrwt>
<pdfrwt beam="1">  1        2 0.34965493E+00 0.74665250E+03</pdfrwt>
<pdfrwt beam="2">  1       -2 0.24638052E-01 0.74665250E+03</pdfrwt>
<totfact> 0.71492023E+01</totfact>
</mgrwt>
</event>
<event>
 4    1  0.3565372E-007  0.1623969E+04  0.7818608E-02  0.8826720E-01
          2   -1    0    0  501    0  0.00000000000E+00  0.00000000000E+00  0.31675194551E+04  0.31675194551E+04  0.25500000000E-02 0. -1.
         -2   -1    0    0    0  501 -0.00000000000E+00 -0.00000000000E+00 -0.98864344794E+03  0.98864344794E+03  0.25500000000E-02 0.  1.
    8880023    1    1    2    0    0 -0.12185577942E+04  0.84769216076E+03  0.21096254704E+04  0.26622912931E+04  0.65864270000E+03 0.  1.
    8880022    1    1    2    0    0  0.12185577942E+04 -0.84769216076E+03  0.69250536743E+02  0.14938716100E+04  0.15294330000E+03 0. -1.
<mgrwt>
<rscale>  0 0.15899916E+04</rscale>
<asrwt>0</asrwt>
<pdfrwt beam="1">  1        2 0.48731068E+00 0.16239690E+04</pdfrwt>
<pdfrwt beam="2">  1       -2 0.15209899E+00 0.16239690E+04</pdfrwt>
<totfact> 0.36787293E-01</totfact>
</mgrwt>
</event>
<event>
 4    1  0.3565372E-007  0.7081136E+03  0.7818608E-02  0.9965074E-01
          2   -1    0    0  501    0  0.00000000000E+00  0.00000000000E+00  0.10413519913E+04  0.10413519913E+04  0.25500000000E-02 0. -1.
         -2   -1    0    0    0  501 -0.00000000000E+00 -0.00000000000E+00 -0.51261768063E+03  0.51261768064E+03  0.25500000000E-02 0.  1.
    8880023    1    1    2    0    0  0.30476966874E+02  0.25823586821E+03  0.85463593021E+03  0.11098771953E+04  0.65864270000E+03 0.  0.
    8880022    1    1    2    0    0 -0.30476966874E+02 -0.25823586821E+03 -0.32590161957E+03  0.44409247663E+03  0.15294330000E+03 0.  0.
<mgrwt>
<rscale>  0 0.57208570E+03</rscale>
<asrwt>0</asrwt>
<pdfrwt beam="1">  1        2 0.16020800E+00 0.70811356E+03</pdfrwt>
<pdfrwt beam="2">  1       -2 0.78864260E-01 0.70811356E+03</pdfrwt>
<totfact> 0.34535715E+01</totfact>
</mgrwt>
</event>
<event>
 4    1  0.3565372E-007  0.1053443E+04  0.7818608E-02  0.9314754E-01
          2   -1    0    0  501    0  0.00000000000E+00  0.00000000000E+00  0.30462499682E+04  0.30462499682E+04  0.25500000000E-02 0. -1.
         -2   -1    0    0    0  501 -0.00000000000E+00 -0.00000000000E+00 -0.35961549528E+03  0.35961549529E+03  0.25500000000E-02 0.  1.
    8880023    1    1    2    0    0 -0.36528674405E+03  0.73654393677E+03  0.74049335963E+03  0.12876614454E+04  0.65864270000E+03 0.  0.
    8880022    1    1    2    0    0  0.36528674405E+03 -0.73654393677E+03  0.19461411133E+04  0.21182040180E+04  0.15294330000E+03 0.  0.
<mgrwt>
<rscale>  0 0.99435835E+03</rscale>
<asrwt>0</asrwt>
<pdfrwt beam="1">  1        2 0.46865385E+00 0.10534427E+04</pdfrwt>
<pdfrwt beam="2">  1       -2 0.55325460E-01 0.10534427E+04</pdfrwt>
<totfact> 0.50825647E+00</totfact>
</mgrwt>
</event>
<event>
 4    1  0.3565372E-007  0.1080593E+04  0.7818608E-02  0.9282977E-01
          2   -1    0    0  501    0  0.00000000000E+00  0.00000000000E+00  0.18787571233E+04  0.18787571233E+04  0.25500000000E-02 0. -1.
         -2   -1    0    0    0  501 -0.00000000000E+00 -0.00000000000E+00 -0.79903197169E+03  0.79903197169E+03  0.25500000000E-02 0.  1.
    8880023    1    1    2    0    0  0.84195361510E+03 -0.15806935727E+03  0.13840278498E+04  0.17559086272E+04  0.65864270000E+03 0.  0.
    8880022    1    1    2    0    0 -0.84195361510E+03  0.15806935727E+03 -0.30430269823E+03  0.92188046777E+03  0.15294330000E+03 0.  0.
<mgrwt>
<rscale>  0 0.10236526E+04</rscale>
<asrwt>0</asrwt>
<pdfrwt beam="1">  1        2 0.28903956E+00 0.10805934E+04</pdfrwt>
<pdfrwt beam="2">  1       -2 0.12292800E+00 0.10805934E+04</pdfrwt>
<totfact> 0.38540523E+00</totfact>
</mgrwt>
</event>
<event>
 4    1  0.3565372E-007  0.1020530E+04  0.7818608E-02  0.9355177E-01
          2   -1    0    0  501    0  0.00000000000E+00  0.00000000000E+00  0.26635764111E+04  0.26635764111E+04  0.25500000000E-02 0. -1.
         -2   -1    0    0    0  501 -0.00000000000E+00 -0.00000000000E+00 -0.32499596329E+03  0.32499596330E+03  0.25500000000E-02 0.  1.
    8880023    1    1    2    0    0 -0.40669262660E+03  0.66503591798E+03  0.16352243904E+04  0.19275478406E+04  0.65864270000E+03 0.  0.
    8880022    1    1    2    0    0  0.40669262660E+03 -0.66503591798E+03  0.70335605739E+03  0.10610245337E+04  0.15294330000E+03 0.  0.
<mgrwt>
<rscale>  0 0.95858032E+03</rscale>
<asrwt>0</asrwt>
<pdfrwt beam="1">  1        2 0.40978099E+00 0.10205302E+04</pdfrwt>
<pdfrwt beam="2">  1       -2 0.49999378E-01 0.10205302E+04</pdfrwt>
<totfact> 0.10698968E+01</totfact>
</mgrwt>
</event>
<event>
 4    1  0.5017779E-007  0.6745685E+03  0.7818608E-02  0.1012580E+00
         -2   -1    0    0    0  501 -0.00000000000E+00  0.00000000000E+00  0.12144748605E+04  0.12144748605E+04  0.25500000000E-02 0.  1.
          2   -1    0    0  501    0  0.00000000000E+00 -0.00000000000E+00 -0.14304474255E+04  0.14304474255E+04  0.25500000000E-02 0. -1.
    8880023    1    1    2    0    0  0.13157352377E+03  0.62616669311E+02 -0.13405345323E+04  0.15006916665E+04  0.65864270000E+03 0. -1.
    8880022    1    1    2    0    0 -0.13157352377E+03 -0.62616669311E+02  0.11245619673E+04  0.11442306196E+04  0.15294330000E+03 0.  0.
<mgrwt>
<rscale>  0 0.50462146E+03</rscale>
<asrwt>0</asrwt>
<pdfrwt beam="1">  1        2 0.22006883E+00 0.67456849E+03</pdfrwt>
<pdfrwt beam="2">  1       -2 0.18684229E+00 0.67456849E+03</pdfrwt>
<totfact> 0.23606016E+00</totfact>
</mgrwt>
</event>
<event>
 4    1  0.7383971E-007  0.7185326E+03  0.7818608E-02  0.9927583E-01
         -2   -1    0    0    0  501 -0.00000000000E+00  0.00000000000E+00  0.10136079367E+04  0.10136079367E+04  0.25500000000E-02 0.  1.
          2   -1    0    0  501    0  0.00000000000E+00 -0.00000000000E+00 -0.31157229894E+04  0.31157229894E+04  0.25500000000E-02 0. -1.
    8880023    1    1    2    0    0 -0.27653998681E+03 -0.77489150022E+02 -0.30466963408E+04  0.31302791780E+04  0.65864270000E+03 0. -1.
    8880022    1    1    2    0    0  0.27653998681E+03  0.77489150022E+02  0.94458128812E+03  0.99905174818E+03  0.15294330000E+03 0.  0.
<mgrwt>
<rscale>  0 0.58942939E+03</rscale>
<asrwt>0</asrwt>
<pdfrwt beam="1">  1        2 0.47934200E+00 0.71853263E+03</pdfrwt>
<pdfrwt beam="2">  1       -2 0.15593968E+00 0.71853263E+03</pdfrwt>
<totfact> 0.43022889E-01</totfact>
</mgrwt>
</event>
<event>
 4    1  0.3565372E-007  0.7262151E+03  0.7818608E-02  0.9902091E-01
         -2   -1    0    0    0  501 -0.00000000000E+00  0.00000000000E+00  0.10467869724E+04  0.10467869724E+04  0.25500000000E-02 0.  1.
          2   -1    0    0  501    0  0.00000000000E+00 -0.00000000000E+00 -0.34610789978E+03  0.34610789979E+03  0.25500000000E-02 0. -1.
    8880023    1    1    2    0    0  0.19251627014E+03  0.23773024262E+03  0.14522727397E+03  0.74059391700E+03  0.65864270000E+03 0. -1.
    8880022    1    1    2    0    0 -0.19251627014E+03 -0.23773024262E+03  0.55545179868E+03  0.65230095523E+03  0.15294330000E+03 0.  0.
<mgrwt>
<rscale>  0 0.60160051E+03</rscale>
<asrwt>0</asrwt>
<pdfrwt beam="1">  1        2 0.53247370E-01 0.72621511E+03</pdfrwt>
<pdfrwt beam="2">  1       -2 0.16104415E+00 0.72621511E+03</pdfrwt>
<totfact> 0.23506725E+01</totfact>
</mgrwt>
</event>
<event>
 4    1  0.3565372E-007  0.9692278E+03  0.7818608E-02  0.9422973E-01
          2   -1    0    0  501    0  0.00000000000E+00  0.00000000000E+00  0.16919363342E+04  0.16919363342E+04  0.25500000000E-02 0. -1.
         -2   -1    0    0    0  501 -0.00000000000E+00 -0.00000000000E+00 -0.67382968752E+03  0.67382968753E+03  0.25500000000E-02 0.  1.
    8880023    1    1    2    0    0 -0.67382010640E+03 -0.22706552037E+03  0.12686406672E+04  0.15965123348E+04  0.65864270000E+03 0. -1.
    8880022    1    1    2    0    0  0.67382010640E+03  0.22706552037E+03 -0.25053402058E+03  0.76925368691E+03  0.15294330000E+03 0.  0.
<mgrwt>
<rscale>  0 0.90208965E+03</rscale>
<asrwt>0</asrwt>
<pdfrwt beam="1">  1        2 0.26029790E+00 0.96922778E+03</pdfrwt>
<pdfrwt beam="2">  1       -2 0.10366611E+00 0.96922778E+03</pdfrwt>
<totfact> 0.75119130E+00</totfact>
</mgrwt>
</event>
<event>
 4    1  0.3565372E-007  0.8910197E+03  0.7818608E-02  0.9540604E-01
         -2   -1    0    0    0  501 -0.00000000000E+00  0.00000000000E+00  0.11860946172E+04  0.11860946172E+04  0.25500000000E-02 0.  1.
          2   -1    0    0  501    0  0.00000000000E+00 -0.00000000000E+00 -0.56469826268E+03  0.56469826268E+03  0.25500000000E-02 0. -1.
    8880023    1    1    2    0    0 -0.56701806075E+03 -0.19645962658E+03  0.25506316007E+02  0.89138467819E+03  0.65864270000E+03 0.  0.
    8880022    1    1    2    0    0  0.56701806075E+03  0.19645962658E+03  0.59589003847E+03  0.85940820165E+03  0.15294330000E+03 0.  0.
<mgrwt>
<rscale>  0 0.81355289E+03</rscale>
<asrwt>0</asrwt>
<pdfrwt beam="1">  1        2 0.86876657E-01 0.89101968E+03</pdfrwt>
<pdfrwt beam="2">  1       -2 0.18247609E+00 0.89101968E+03</pdfrwt>
<totfact> 0.93313746E+00</totfact>
</mgrwt>
</event>
<event>
 4    1  0.3565372E-007  0.1009279E+04  0.7818608E-02  0.9369517E-01
         -2   -1    0    0    0  501 -0.00000000000E+00  0.00000000000E+00  0.11691453823E+04  0.11691453823E+04  0.25500000000E-02 0.  1.
          2   -1    0    0  501    0  0.00000000000E+00 -0.00000000000E+00 -0.10324889612E+04  0.10324889612E+04  0.25500000000E-02 0. -1.
    8880023    1    1    2    0    0  0.72034243459E+03 -0.25679032203E+03  0.70972391087E+03  0.12338365891E+04  0.65864270000E+03 0.  0.
    8880022    1    1    2    0    0 -0.72034243459E+03  0.25679032203E+03 -0.57306748980E+03  0.96779775441E+03  0.15294330000E+03 0.  0.
<mgrwt>
<rscale>  0 0.94627346E+03</rscale>
<asrwt>0</asrwt>
<pdfrwt beam="1">  1        2 0.15884446E+00 0.10092793E+04</pdfrwt>
<pdfrwt beam="2">  1       -2 0.17986852E+00 0.10092793E+04</pdfrwt>
<totfact> 0.43212142E+00</totfact>
</mgrwt>
</event>
<event>
 4    1  0.3565372E-007  0.9394759E+03  0.7818608E-02  0.9465420E-01
         -2   -1    0    0    0  501 -0.00000000000E+00  0.00000000000E+00  0.32366099582E+03  0.32366099583E+03  0.25500000000E-02 0.  1.
          2   -1    0    0  501    0  0.00000000000E+00 -0.00000000000E+00 -0.25876810562E+04  0.25876810562E+04  0.25500000000E-02 0. -1.
    8880023    1    1    2    0    0  0.20894945849E+03  0.63650998352E+03 -0.19316935872E+04  0.21480351851E+04  0.65864270000E+03 0. -1.
    8880022    1    1    2    0    0 -0.20894945849E+03 -0.63650998352E+03 -0.33232647320E+03  0.76330686694E+03  0.15294330000E+03 0.  0.
<mgrwt>
<rscale>  0 0.86881956E+03</rscale>
<asrwt>0</asrwt>
<pdfrwt beam="1">  1        2 0.39810476E+00 0.93947594E+03</pdfrwt>
<pdfrwt beam="2">  1       -2 0.49794001E-01 0.93947594E+03</pdfrwt>
<totfact> 0.12064517E+01</totfact>
</mgrwt>
</event>
<event>
 4    1  0.3565372E-007  0.1160698E+04  0.7818608E-02  0.9196307E-01
          2   -1    0    0  501    0  0.00000000000E+00  0.00000000000E+00  0.31025537449E+04  0.31025537449E+04  0.25500000000E-02 0. -1.
         -2   -1    0    0    0  501 -0.00000000000E+00 -0.00000000000E+00 -0.39336743324E+03  0.39336743324E+03  0.25500000000E-02 0.  1.
    8880023    1    1    2    0    0  0.16672148997E+03 -0.94107041037E+03  0.10016229053E+04  0.15331236816E+04  0.65864270000E+03 0.  0.
    8880022    1    1    2    0    0 -0.16672148997E+03  0.94107041037E+03  0.17075634064E+04  0.19627974965E+04  0.15294330000E+03 0.  1.
<mgrwt>
<rscale>  0 0.11091629E+04</rscale>
<asrwt>0</asrwt>
<pdfrwt beam="1">  1        2 0.47731594E+00 0.11606980E+04</pdfrwt>
<pdfrwt beam="2">  1       -2 0.60518069E-01 0.11606980E+04</pdfrwt>
<totfact> 0.38248343E+00</totfact>
</mgrwt>
</event>
<event>
 4    1  0.3565372E-007  0.7027353E+03  0.7818608E-02  0.9986038E-01
         -2   -1    0    0    0  501 -0.00000000000E+00  0.00000000000E+00  0.89459717617E+03  0.89459717618E+03  0.25500000000E-02 0.  1.
          2   -1    0    0  501    0  0.00000000000E+00 -0.00000000000E+00 -0.11117409690E+04  0.11117409690E+04  0.25500000000E-02 0. -1.
    8880023    1    1    2    0    0  0.16512850104E+03 -0.18099521006E+03 -0.97124823918E+03  0.11988160978E+04  0.65864270000E+03 0.  0.
    8880022    1    1    2    0    0 -0.16512850104E+03  0.18099521006E+03  0.75410444638E+03  0.80752204737E+03  0.15294330000E+03 0.  0.
<mgrwt>
<rscale>  0 0.56266710E+03</rscale>
<asrwt>0</asrwt>
<pdfrwt beam="1">  1        2 0.17103707E+00 0.70273529E+03</pdfrwt>
<pdfrwt beam="2">  1       -2 0.13763033E+00 0.70273529E+03</pdfrwt>
<totfact> 0.82494461E+00</totfact>
</mgrwt>
</event>
<event>
 4    1  0.3565372E-007  0.8373176E+03  0.7818608E-02  0.9635259E-01
          2   -1    0    0  501    0  0.00000000000E+00  0.00000000000E+00  0.59771018935E+03  0.59771018936E+03  0.25500000000E-02 0. -1.
         -2   -1    0    0    0  501 -0.00000000000E+00 -0.00000000000E+00 -0.17552364697E+04  0.17552364697E+04  0.25500000000E-02 0.  1.
    8880023    1    1    2    0    0 -0.47696996063E+03  0.19947502570E+03  0.22667014376E+03  0.86745616002E+03  0.65864270000E+03 0.  0.
    8880022    1    1    2    0    0  0.47696996063E+03 -0.19947502570E+03 -0.13841964241E+04  0.14854904990E+04  0.15294330000E+03 0.  0.
<mgrwt>
<rscale>  0 0.75005827E+03</rscale>
<asrwt>0</asrwt>
<pdfrwt beam="1">  1        2 0.91955414E-01 0.83731764E+03</pdfrwt>
<pdfrwt beam="2">  1       -2 0.27003638E+00 0.83731764E+03</pdfrwt>
<totfact> 0.24664835E+00</totfact>
</mgrwt>
</event>
<event>
 4    1  0.3565372E-007  0.7312806E+03  0.7818608E-02  0.9886115E-01
         -2   -1    0    0    0  501 -0.00000000000E+00  0.00000000000E+00  0.10002708928E+04  0.10002708928E+04  0.25500000000E-02 0.  1.
          2   -1    0    0  501    0  0.00000000000E+00 -0.00000000000E+00 -0.69101133081E+03  0.69101133082E+03  0.25500000000E-02 0. -1.
    8880023    1    1    2    0    0 -0.31573994444E+03 -0.35627849163E+02 -0.44683958542E+03  0.85699292734E+03  0.65864270000E+03 0. -1.
    8880022    1    1    2    0    0  0.31573994444E+03  0.35627849163E+02  0.75609914740E+03  0.83428929626E+03  0.15294330000E+03 0.  0.
<mgrwt>
<rscale>  0 0.60938945E+03</rscale>
<asrwt>0</asrwt>
<pdfrwt beam="1">  1        2 0.10630944E+00 0.73128056E+03</pdfrwt>
<pdfrwt beam="2">  1       -2 0.15388783E+00 0.73128056E+03</pdfrwt>
<totfact> 0.11860212E+01</totfact>
</mgrwt>
</event>
<event>
 4    1  0.3565372E-007  0.1187116E+04  0.7818608E-02  0.9169749E-01
         -2   -1    0    0    0  501 -0.00000000000E+00  0.00000000000E+00  0.61678065980E+03  0.61678065981E+03  0.25500000000E-02 0.  1.
          2   -1    0    0  501    0  0.00000000000E+00 -0.00000000000E+00 -0.40480043273E+04  0.40480043273E+04  0.25500000000E-02 0. -1.
    8880023    1    1    2    0    0 -0.50414813735E+03  0.84927547588E+03 -0.34671289432E+04  0.36647274787E+04  0.65864270000E+03 0.  0.
    8880022    1    1    2    0    0  0.50414813735E+03 -0.84927547588E+03  0.35905275653E+02  0.10000575084E+04  0.15294330000E+03 0.  0.
<mgrwt>
<rscale>  0 0.11371195E+04</rscale>
<asrwt>0</asrwt>
<pdfrwt beam="1">  1        2 0.62276988E+00 0.11871160E+04</pdfrwt>
<pdfrwt beam="2">  1       -2 0.94889335E-01 0.11871160E+04</pdfrwt>
<totfact> 0.29737771E-01</totfact>
</mgrwt>
</event>
<event>
 4    1  0.3565372E-007  0.7308096E+03  0.7818608E-02  0.9887575E-01
         -2   -1    0    0    0  501 -0.00000000000E+00  0.00000000000E+00  0.51001770099E+03  0.51001770099E+03  0.25500000000E-02 0.  1.
          2   -1    0    0  501    0  0.00000000000E+00 -0.00000000000E+00 -0.66852302116E+03  0.66852302116E+03  0.25500000000E-02 0. -1.
    8880023    1    1    2    0    0  0.10682456652E+03 -0.29809561715E+03 -0.31227527132E+03  0.79473173859E+03  0.65864270000E+03 0. -1.
    8880022    1    1    2    0    0 -0.10682456652E+03  0.29809561715E+03  0.15376995115E+03  0.38380898357E+03  0.15294330000E+03 0.  0.
<mgrwt>
<rscale>  0 0.60867247E+03</rscale>
<asrwt>0</asrwt>
<pdfrwt beam="1">  1        2 0.10284969E+00 0.73080961E+03</pdfrwt>
<pdfrwt beam="2">  1       -2 0.78464262E-01 0.73080961E+03</pdfrwt>
<totfact> 0.63552475E+01</totfact>
</mgrwt>
</event>
<event>
 4    1  0.3565372E-007  0.9114854E+03  0.7818608E-02  0.9507840E-01
         -2   -1    0    0    0  501 -0.00000000000E+00  0.00000000000E+00  0.49500443961E+03  0.49500443962E+03  0.25500000000E-02 0.  1.
          2   -1    0    0  501    0  0.00000000000E+00 -0.00000000000E+00 -0.22997458665E+04  0.22997458665E+04  0.25500000000E-02 0. -1.
    8880023    1    1    2    0    0 -0.47692459993E+03  0.41175035347E+03 -0.19299810739E+04  0.21343927894E+04  0.65864270000E+03 0. -1.
    8880022    1    1    2    0    0  0.47692459993E+03 -0.41175035347E+03  0.12523964706E+03  0.66035751666E+03  0.15294330000E+03 0.  0.
<mgrwt>
<rscale>  0 0.83708288E+03</rscale>
<asrwt>0</asrwt>
<pdfrwt beam="1">  1        2 0.35380705E+00 0.91148540E+03</pdfrwt>
<pdfrwt beam="2">  1       -2 0.76154531E-01 0.91148540E+03</pdfrwt>
<totfact> 0.71298709E+00</totfact>
</mgrwt>
</event>
<event>
 4    1  0.3565372E-007  0.6837661E+03  0.7818608E-02  0.1007269E+00
          2   -1    0    0  501    0  0.00000000000E+00  0.00000000000E+00  0.16256395490E+04  0.16256395490E+04  0.25500000000E-02 0. -1.
         -2   -1    0    0    0  501 -0.00000000000E+00 -0.00000000000E+00 -0.31572445792E+03  0.31572445793E+03  0.25500000000E-02 0.  1.
    8880023    1    1    2    0    0 -0.16489562509E+03 -0.80841182944E+02  0.14917961682E+04  0.16410337832E+04  0.65864270000E+03 0. -1.
    8880022    1    1    2    0    0  0.16489562509E+03  0.80841182944E+02 -0.18188107712E+03  0.30033022369E+03  0.15294330000E+03 0.  0.
<mgrwt>
<rscale>  0 0.52574704E+03</rscale>
<asrwt>0</asrwt>
<pdfrwt beam="1">  1        2 0.25009839E+00 0.68376609E+03</pdfrwt>
<pdfrwt beam="2">  1       -2 0.48572994E-01 0.68376609E+03</pdfrwt>
<totfact> 0.44699277E+01</totfact>
</mgrwt>
</event>
<event>
 4    1  0.3565372E-007  0.6963044E+03  0.7818608E-02  0.1001289E+00
         -2   -1    0    0    0  501 -0.00000000000E+00  0.00000000000E+00  0.20970515568E+03  0.20970515570E+03  0.25500000000E-02 0.  1.
          2   -1    0    0  501    0  0.00000000000E+00 -0.00000000000E+00 -0.28078988018E+04  0.28078988018E+04  0.25500000000E-02 0. -1.
    8880023    1    1    2    0    0  0.22161422125E+03 -0.43781018801E+02 -0.26499767830E+04  0.27399300716E+04  0.65864270000E+03 0. -1.
    8880022    1    1    2    0    0 -0.22161422125E+03  0.43781018801E+02  0.51783136811E+02  0.27767388595E+03  0.15294330000E+03 0.  0.
<mgrwt>
<rscale>  0 0.55088572E+03</rscale>
<asrwt>0</asrwt>
<pdfrwt beam="1">  1        2 0.43198440E+00 0.69630442E+03</pdfrwt>
<pdfrwt beam="2">  1       -2 0.32262334E-01 0.69630442E+03</pdfrwt>
<totfact> 0.21737150E+01</totfact>
</mgrwt>
</event>
<event>
 4    1  0.3565372E-007  0.6606919E+03  0.7818608E-02  0.1023459E+00
          2   -1    0    0  501    0  0.00000000000E+00  0.00000000000E+00  0.59827869022E+03  0.59827869023E+03  0.25500000000E-02 0. -1.
         -2   -1    0    0    0  501 -0.00000000000E+00 -0.00000000000E+00 -0.21026028266E+04  0.21026028266E+04  0.25500000000E-02 0.  1.
    8880023    1    1    2    0    0  0.42513853961E+02  0.29935186320E+02  0.41143305918E+03  0.77832571049E+03  0.65864270000E+03 0.  0.
    8880022    1    1    2    0    0 -0.42513853961E+02 -0.29935186320E+02 -0.19157571956E+04  0.19225558063E+04  0.15294330000E+03 0.  1.
<mgrwt>
<rscale>  0 0.46458940E+03</rscale>
<asrwt>0</asrwt>
<pdfrwt beam="1">  1        2 0.92042876E-01 0.66069187E+03</pdfrwt>
<pdfrwt beam="2">  1       -2 0.32347736E+00 0.66069187E+03</pdfrwt>
<totfact> 0.12089734E+00</totfact>
</mgrwt>
</event>
<event>
 4    1  0.3565372E-007  0.9342910E+03  0.7818608E-02  0.9473085E-01
         -2   -1    0    0    0  501 -0.00000000000E+00  0.00000000000E+00  0.21117384238E+04  0.21117384238E+04  0.25500000000E-02 0.  1.
          2   -1    0    0  501    0  0.00000000000E+00 -0.00000000000E+00 -0.30975854829E+03  0.30975854830E+03  0.25500000000E-02 0. -1.
    8880023    1    1    2    0    0  0.55902269251E+03 -0.35578530252E+03  0.96697706642E+03  0.13445982320E+04  0.65864270000E+03 0.  1.
    8880022    1    1    2    0    0 -0.55902269251E+03  0.35578530252E+03  0.83500280911E+03  0.10768987401E+04  0.15294330000E+03 0. -1.
<mgrwt>
<rscale>  0 0.86297537E+03</rscale>
<asrwt>0</asrwt>
<pdfrwt beam="1">  1        2 0.47655161E-01 0.93429105E+03</pdfrwt>
<pdfrwt beam="2">  1       -2 0.32488283E+00 0.93429105E+03</pdfrwt>
<totfact> 0.24154917E+00</totfact>
</mgrwt>
</event>
<event>
 4    1  0.3565372E-007  0.7423311E+03  0.7818608E-02  0.9853208E-01
         -2   -1    0    0    0  501 -0.00000000000E+00  0.00000000000E+00  0.42797501899E+03  0.42797501900E+03  0.25500000000E-02 0.  1.
          2   -1    0    0  501    0  0.00000000000E+00 -0.00000000000E+00 -0.81594102839E+03  0.81594102840E+03  0.25500000000E-02 0. -1.
    8880023    1    1    2    0    0 -0.23156803693E+03 -0.25223310850E+03 -0.44363108849E+03  0.86479133072E+03  0.65864270000E+03 0.  0.
    8880022    1    1    2    0    0  0.23156803693E+03  0.25223310850E+03  0.55665079087E+02  0.37912471667E+03  0.15294330000E+03 0.  0.
<mgrwt>
<rscale>  0 0.62583620E+03</rscale>
<asrwt>0</asrwt>
<pdfrwt beam="1">  1        2 0.12552939E+00 0.74233113E+03</pdfrwt>
<pdfrwt beam="2">  1       -2 0.65842311E-01 0.74233113E+03</pdfrwt>
<totfact> 0.72217940E+01</totfact>
</mgrwt>
</event>
<event>
 4    1  0.3565372E-007  0.9121254E+03  0.7818608E-02  0.9506840E-01
          2   -1    0    0  501    0  0.00000000000E+00  0.00000000000E+00  0.17429788599E+04  0.17429788599E+04  0.25500000000E-02 0. -1.
         -2   -1    0    0    0  501 -0.00000000000E+00 -0.00000000000E+00 -0.35570522945E+03  0.35570522946E+03  0.25500000000E-02 0.  1.
    8880023    1    1    2    0    0  0.25207757994E+03 -0.57846303381E+03  0.94304881687E+03  0.13119885156E+04  0.65864270000E+03 0.  1.
    8880022    1    1    2    0    0 -0.25207757994E+03  0.57846303381E+03  0.44422481360E+03  0.78669557379E+03  0.15294330000E+03 0. -1.
<mgrwt>
<rscale>  0 0.83781398E+03</rscale>
<asrwt>0</asrwt>
<pdfrwt beam="1">  1        2 0.26815059E+00 0.91212543E+03</pdfrwt>
<pdfrwt beam="2">  1       -2 0.54723882E-01 0.91212543E+03</pdfrwt>
<totfact> 0.29431757E+01</totfact>
</mgrwt>
</event>
<event>
 4    1  0.3565372E-007  0.7322021E+03  0.7818608E-02  0.9883273E-01
         -2   -1    0    0    0  501 -0.00000000000E+00  0.00000000000E+00  0.12840769399E+04  0.12840769399E+04  0.25500000000E-02 0.  1.
          2   -1    0    0  501    0  0.00000000000E+00 -0.00000000000E+00 -0.24782901300E+03  0.24782901301E+03  0.25500000000E-02 0. -1.
    8880023    1    1    2    0    0  0.59558513388E+02  0.31426489390E+03  0.49123425040E+03  0.88172044044E+03  0.65864270000E+03 0.  0.
    8880022    1    1    2    0    0 -0.59558513388E+02 -0.31426489390E+03  0.54501367652E+03  0.65018551250E+03  0.15294330000E+03 0.  0.
<mgrwt>
<rscale>  0 0.61078825E+03</rscale>
<asrwt>0</asrwt>
<pdfrwt beam="1">  1        2 0.38127540E-01 0.73220205E+03</pdfrwt>
<pdfrwt beam="2">  1       -2 0.19755030E+00 0.73220205E+03</pdfrwt>
<totfact> 0.19095356E+01</totfact>
</mgrwt>
</event>
<event>
 4    1  0.3565372E-007  0.9798227E+03  0.7818608E-02  0.9408445E-01
         -2   -1    0    0    0  501 -0.00000000000E+00  0.00000000000E+00  0.29924902145E+03  0.29924902146E+03  0.25500000000E-02 0.  1.
          2   -1    0    0  501    0  0.00000000000E+00 -0.00000000000E+00 -0.36681545074E+04  0.36681545074E+04  0.25500000000E-02 0. -1.
    8880023    1    1    2    0    0 -0.72210844388E+03  0.69293940165E+02 -0.29659348526E+04  0.31235912042E+04  0.65864270000E+03 0. -1.
    8880022    1    1    2    0    0  0.72210844388E+03 -0.69293940165E+02 -0.40297063332E+03  0.84381232463E+03  0.15294330000E+03 0.  0.
<mgrwt>
<rscale>  0 0.91383924E+03</rscale>
<asrwt>0</asrwt>
<pdfrwt beam="1">  1        2 0.56433143E+00 0.97982267E+03</pdfrwt>
<pdfrwt beam="2">  1       -2 0.46038314E-01 0.97982267E+03</pdfrwt>
<totfact> 0.28832588E+00</totfact>
</mgrwt>
</event>
<event>
 4    1  0.3565372E-007  0.6955389E+03  0.7818608E-02  0.1001624E+00
         -2   -1    0    0    0  501 -0.00000000000E+00  0.00000000000E+00  0.17222762657E+03  0.17222762658E+03  0.25500000000E-02 0.  1.
          2   -1    0    0  501    0  0.00000000000E+00 -0.00000000000E+00 -0.30669195608E+04  0.30669195608E+04  0.25500000000E-02 0. -1.
    8880023    1    1    2    0    0 -0.14824866711E+03  0.16729160958E+03 -0.28855037427E+04  0.29681486158E+04  0.65864270000E+03 0. -1.
    8880022    1    1    2    0    0  0.14824866711E+03 -0.16729160958E+03 -0.91881915336E+01  0.27099857161E+03  0.15294330000E+03 0.  0.
<mgrwt>
<rscale>  0 0.54944013E+03</rscale>
<asrwt>0</asrwt>
<pdfrwt beam="1">  1        2 0.47183374E+00 0.69553890E+03</pdfrwt>
<pdfrwt beam="2">  1       -2 0.26496560E-01 0.69553890E+03</pdfrwt>
<totfact> 0.21814333E+01</totfact>
</mgrwt>
</event>
<event>
 4    1  0.3565372E-007  0.8252590E+03  0.7818608E-02  0.9658628E-01
          2   -1    0    0  501    0  0.00000000000E+00  0.00000000000E+00  0.10215008817E+04  0.10215008818E+04  0.25500000000E-02 0. -1.
         -2   -1    0    0    0  501 -0.00000000000E+00 -0.00000000000E+00 -0.47189361382E+03  0.47189361382E+03  0.25500000000E-02 0.  1.
    8880023    1    1    2    0    0 -0.36505070720E+03 -0.33760947785E+03  0.51337700293E+03  0.97190963148E+03  0.65864270000E+03 0.  0.
    8880022    1    1    2    0    0  0.36505070720E+03  0.33760947785E+03  0.36230265005E+02  0.52148486410E+03  0.15294330000E+03 0.  0.
<mgrwt>
<rscale>  0 0.73534383E+03</rscale>
<asrwt>0</asrwt>
<pdfrwt beam="1">  1        2 0.15715398E+00 0.82525898E+03</pdfrwt>
<pdfrwt beam="2">  1       -2 0.72599019E-01 0.82525898E+03</pdfrwt>
<totfact> 0.42265476E+01</totfact>
</mgrwt>
</event>
<event>
 4    1  0.3565372E-007  0.1403097E+04  0.7818608E-02  0.8981280E-01
         -2   -1    0    0    0  501 -0.00000000000E+00  0.00000000000E+00  0.80130168218E+03  0.80130168218E+03  0.25500000000E-02 0.  1.
          2   -1    0    0  501    0  0.00000000000E+00 -0.00000000000E+00 -0.32090335852E+04  0.32090335852E+04  0.25500000000E-02 0. -1.
    8880023    1    1    2    0    0  0.30874342431E+03  0.11998115368E+04 -0.23787130171E+04  0.27616944165E+04  0.65864270000E+03 0.  0.
    8880022    1    1    2    0    0 -0.30874342431E+03 -0.11998115368E+04 -0.29018885900E+02  0.12486408509E+04  0.15294330000E+03 0.  0.
<mgrwt>
<rscale>  0 0.13626859E+04</rscale>
<asrwt>0</asrwt>
<pdfrwt beam="1">  1        2 0.49369747E+00 0.14030967E+04</pdfrwt>
<pdfrwt beam="2">  1       -2 0.12327718E+00 0.14030967E+04</pdfrwt>
<totfact> 0.61288773E-01</totfact>
</mgrwt>
</event>
<event>
 4    1  0.3565372E-007  0.7320948E+03  0.7818608E-02  0.9883603E-01
          2   -1    0    0  501    0  0.00000000000E+00  0.00000000000E+00  0.13400811670E+04  0.13400811670E+04  0.25500000000E-02 0. -1.
         -2   -1    0    0    0  501 -0.00000000000E+00 -0.00000000000E+00 -0.70246982043E+03  0.70246982044E+03  0.25500000000E-02 0.  1.
    8880023    1    1    2    0    0 -0.12899624079E+02  0.31935280335E+03  0.11835722937E+04  0.13916918459E+04  0.65864270000E+03 0. -1.
    8880022    1    1    2    0    0  0.12899624079E+02 -0.31935280335E+03 -0.54596094713E+03  0.65085914153E+03  0.15294330000E+03 0.  0.
<mgrwt>
<rscale>  0 0.61062574E+03</rscale>
<asrwt>0</asrwt>
<pdfrwt beam="1">  1        2 0.20616633E+00 0.73209482E+03</pdfrwt>
<pdfrwt beam="2">  1       -2 0.10807228E+00 0.73209482E+03</pdfrwt>
<totfact> 0.11003989E+01</totfact>
</mgrwt>
</event>
<event>
 4    1  0.3565372E-007  0.1009878E+04  0.7818608E-02  0.9368747E-01
          2   -1    0    0  501    0  0.00000000000E+00  0.00000000000E+00  0.30523609240E+04  0.30523609240E+04  0.25500000000E-02 0. -1.
         -2   -1    0    0    0  501 -0.00000000000E+00 -0.00000000000E+00 -0.53995197205E+03  0.53995197205E+03  0.25500000000E-02 0.  1.
    8880023    1    1    2    0    0  0.54923213539E+02  0.76356130189E+03  0.26166086009E+04  0.28047269382E+04  0.65864270000E+03 0.  0.
    8880022    1    1    2    0    0 -0.54923213539E+02 -0.76356130189E+03 -0.10419964898E+03  0.78758595784E+03  0.15294330000E+03 0.  0.
<mgrwt>
<rscale>  0 0.94692891E+03</rscale>
<asrwt>0</asrwt>
<pdfrwt beam="1">  1        2 0.46959399E+00 0.10098775E+04</pdfrwt>
<pdfrwt beam="2">  1       -2 0.83069534E-01 0.10098775E+04</pdfrwt>
<totfact> 0.20910617E+00</totfact>
</mgrwt>
</event>
<event>
 4    1  0.3565372E-007  0.8888572E+03  0.7818608E-02  0.9544161E-01
          2   -1    0    0  501    0  0.00000000000E+00  0.00000000000E+00  0.23595790535E+04  0.23595790535E+04  0.25500000000E-02 0. -1.
         -2   -1    0    0    0  501 -0.00000000000E+00 -0.00000000000E+00 -0.31956441845E+03  0.31956441846E+03  0.25500000000E-02 0.  1.
    8880023    1    1    2    0    0  0.56297899692E+03 -0.19827150807E+03  0.18189840953E+04  0.20245419944E+04  0.65864270000E+03 0. -1.
    8880022    1    1    2    0    0 -0.56297899692E+03  0.19827150807E+03  0.22103053973E+03  0.65460147754E+03  0.15294330000E+03 0.  0.
<mgrwt>
<rscale>  0 0.81104831E+03</rscale>
<asrwt>0</asrwt>
<pdfrwt beam="1">  1        2 0.36301217E+00 0.88885721E+03</pdfrwt>
<pdfrwt beam="2">  1       -2 0.49163756E-01 0.88885721E+03</pdfrwt>
<totfact> 0.16801364E+01</totfact>
</mgrwt>
</event>
<event>
 4    1  0.5506832E-007  0.6596533E+03  0.7818608E-02  0.1024514E+00
          2   -1    0    0  501    0  0.00000000000E+00  0.00000000000E+00  0.19909838009E+04  0.19909838009E+04  0.25500000000E-02 0. -1.
         -2   -1    0    0    0  501 -0.00000000000E+00 -0.00000000000E+00 -0.13170474592E+04  0.13170474592E+04  0.25500000000E-02 0.  1.
    8880023    1    1    2    0    0  0.29628892313E+02  0.21315719647E+02  0.19313132682E+04  0.20408609403E+04  0.65864270000E+03 0. -1.
    8880022    1    1    2    0    0 -0.29628892313E+02 -0.21315719647E+02 -0.12573769265E+04  0.12671703199E+04  0.15294330000E+03 0.  0.
<mgrwt>
<rscale>  0 0.46092087E+03</rscale>
<asrwt>0</asrwt>
<pdfrwt beam="1">  1        2 0.30630520E+00 0.65965327E+03</pdfrwt>
<pdfrwt beam="2">  1       -2 0.20262269E+00 0.65965327E+03</pdfrwt>
<totfact> 0.92041449E-01</totfact>
</mgrwt>
</event>
<event>
 4    1  0.3565372E-007  0.6828407E+03  0.7818608E-02  0.1007760E+00
          2   -1    0    0  501    0  0.00000000000E+00  0.00000000000E+00  0.79072426298E+03  0.79072426299E+03  0.25500000000E-02 0. -1.
         -2   -1    0    0    0  501 -0.00000000000E+00 -0.00000000000E+00 -0.50997818086E+03  0.50997818086E+03  0.25500000000E-02 0.  1.
    8880023    1    1    2    0    0 -0.18002435637E+03  0.72417329200E+01  0.59623362931E+03  0.90651307689E+03  0.65864270000E+03 0. -1.
    8880022    1    1    2    0    0  0.18002435637E+03 -0.72417329200E+01 -0.31548754719E+03  0.39418936696E+03  0.15294330000E+03 0.  0.
<mgrwt>
<rscale>  0 0.52374541E+03</rscale>
<asrwt>0</asrwt>
<pdfrwt beam="1">  1        2 0.12164989E+00 0.68284070E+03</pdfrwt>
<pdfrwt beam="2">  1       -2 0.78458182E-01 0.68284070E+03</pdfrwt>
<totfact> 0.51487626E+01</totfact>
</mgrwt>
</event>
<event>
 4    1  0.3565372E-007  0.6780214E+03  0.7818608E-02  0.1010466E+00
         -2   -1    0    0    0  501 -0.00000000000E+00  0.00000000000E+00  0.13977402866E+03  0.13977402868E+03  0.25500000000E-02 0.  1.
          2   -1    0    0  501    0  0.00000000000E+00 -0.00000000000E+00 -0.17081883193E+04  0.17081883193E+04  0.25500000000E-02 0. -1.
    8880023    1    1    2    0    0  0.16082268555E+03  0.62319451602E+01 -0.14396001838E+04  0.15912767417E+04  0.65864270000E+03 0. -1.
    8880022    1    1    2    0    0 -0.16082268555E+03 -0.62319451602E+01 -0.12881410689E+03  0.25668560629E+03  0.15294330000E+03 0. -1.
<mgrwt>
<rscale>  0 0.51289949E+03</rscale>
<asrwt>0</asrwt>
<pdfrwt beam="1">  1        2 0.26279819E+00 0.67802137E+03</pdfrwt>
<pdfrwt beam="2">  1       -2 0.21503698E-01 0.67802137E+03</pdfrwt>
<totfact> 0.18673230E+02</totfact>
</mgrwt>
</event>
<event>
 4    1  0.3565372E-007  0.7029601E+03  0.7818608E-02  0.9985136E-01
         -2   -1    0    0    0  501 -0.00000000000E+00  0.00000000000E+00  0.25190988765E+03  0.25190988766E+03  0.25500000000E-02 0.  1.
          2   -1    0    0  501    0  0.00000000000E+00 -0.00000000000E+00 -0.30121502509E+04  0.30121502509E+04  0.25500000000E-02 0. -1.
    8880023    1    1    2    0    0 -0.64725826336E+02 -0.23696693364E+03 -0.28698028187E+04  0.29546440031E+04  0.65864270000E+03 0. -1.
    8880022    1    1    2    0    0  0.64725826336E+02  0.23696693364E+03  0.10956245548E+03  0.30941613549E+03  0.15294330000E+03 0.  0.
<mgrwt>
<rscale>  0 0.56306823E+03</rscale>
<asrwt>0</asrwt>
<pdfrwt beam="1">  1        2 0.46340771E+00 0.70296015E+03</pdfrwt>
<pdfrwt beam="2">  1       -2 0.38755369E-01 0.70296015E+03</pdfrwt>
<totfact> 0.11538394E+01</totfact>
</mgrwt>
</event>
<event>
 4    1  0.3565372E-007  0.7016366E+03  0.7818608E-02  0.9990478E-01
         -2   -1    0    0    0  501 -0.00000000000E+00  0.00000000000E+00  0.19263858836E+03  0.19263858837E+03  0.25500000000E-02 0.  1.
          2   -1    0    0  501    0  0.00000000000E+00 -0.00000000000E+00 -0.18853028102E+04  0.18853028102E+04  0.25500000000E-02 0. -1.
    8880023    1    1    2    0    0 -0.19929359687E+03  0.13698833482E+03 -0.16443046060E+04  0.17877448323E+04  0.65864270000E+03 0. -1.
    8880022    1    1    2    0    0  0.19929359687E+03 -0.13698833482E+03 -0.48359615799E+02  0.29019656629E+03  0.15294330000E+03 0.  0.
<mgrwt>
<rscale>  0 0.56069717E+03</rscale>
<asrwt>0</asrwt>
<pdfrwt beam="1">  1        2 0.29004657E+00 0.70163662E+03</pdfrwt>
<pdfrwt beam="2">  1       -2 0.29636707E-01 0.70163662E+03</pdfrwt>
<totfact> 0.83613314E+01</totfact>
</mgrwt>
</event>
<event>
 4    1  0.3565372E-007  0.7827272E+03  0.7818608E-02  0.9749469E-01
         -2   -1    0    0    0  501 -0.00000000000E+00  0.00000000000E+00  0.64214378848E+03  0.64214378849E+03  0.25500000000E-02 0.  1.
          2   -1    0    0  501    0  0.00000000000E+00 -0.00000000000E+00 -0.11787457065E+04  0.11787457065E+04  0.25500000000E-02 0. -1.
    8880023    1    1    2    0    0  0.17586584358E+03  0.38460746498E+03 -0.93549409679E+03  0.12197586271E+04  0.65864270000E+03 0. -1.
    8880022    1    1    2    0    0 -0.17586584358E+03 -0.38460746498E+03  0.39889217874E+03  0.60113086789E+03  0.15294330000E+03 0.  0.
<mgrwt>
<rscale>  0 0.68146273E+03</rscale>
<asrwt>0</asrwt>
<pdfrwt beam="1">  1        2 0.18134549E+00 0.78272722E+03</pdfrwt>
<pdfrwt beam="2">  1       -2 0.98791352E-01 0.78272722E+03</pdfrwt>
<totfact> 0.16834734E+01</totfact>
</mgrwt>
</event>
<event>
 4    1  0.3565372E-007  0.6761611E+03  0.7818608E-02  0.1011584E+00
         -2   -1    0    0    0  501 -0.00000000000E+00  0.00000000000E+00  0.18267647753E+03  0.18267647755E+03  0.25500000000E-02 0.  1.
          2   -1    0    0  501    0  0.00000000000E+00 -0.00000000000E+00 -0.16100633603E+04  0.16100633603E+04  0.25500000000E-02 0. -1.
    8880023    1    1    2    0    0  0.14895971750E+03  0.34563777233E+02 -0.14240660151E+04  0.15764383508E+04  0.65864270000E+03 0. -1.
    8880022    1    1    2    0    0 -0.14895971750E+03 -0.34563777233E+02 -0.33208676524E+01  0.21630148708E+03  0.15294330000E+03 0.  0.
<mgrwt>
<rscale>  0 0.50849856E+03</rscale>
<asrwt>0</asrwt>
<pdfrwt beam="1">  1        2 0.24770205E+00 0.67616112E+03</pdfrwt>
<pdfrwt beam="2">  1       -2 0.28104075E-01 0.67616112E+03</pdfrwt>
<totfact> 0.13061218E+02</totfact>
</mgrwt>
</event>
<event>
 4    1  0.3565372E-007  0.9567334E+03  0.7818608E-02  0.9440492E-01
         -2   -1    0    0    0  501 -0.00000000000E+00  0.00000000000E+00  0.21188397890E+03  0.21188397892E+03  0.25500000000E-02 0.  1.
          2   -1    0    0  501    0  0.00000000000E+00 -0.00000000000E+00 -0.32831392766E+04  0.32831392766E+04  0.25500000000E-02 0. -1.
    8880023    1    1    2    0    0  0.32326424993E+02  0.69316917645E+03 -0.18154996370E+04  0.20521641365E+04  0.65864270000E+03 0. -1.
    8880022    1    1    2    0    0 -0.32326424993E+02 -0.69316917645E+03 -0.12557556608E+04  0.14428591191E+04  0.15294330000E+03 0.  1.
<mgrwt>
<rscale>  0 0.88816985E+03</rscale>
<asrwt>0</asrwt>
<pdfrwt beam="1">  1        2 0.50509831E+00 0.95673335E+03</pdfrwt>
<pdfrwt beam="2">  1       -2 0.32597538E-01 0.95673335E+03</pdfrwt>
<totfact> 0.10390729E+01</totfact>
</mgrwt>
</event>
<event>
 4    1  0.3565372E-007  0.7448357E+03  0.7818608E-02  0.9846078E-01
          2   -1    0    0  501    0  0.00000000000E+00  0.00000000000E+00  0.24751353748E+04  0.24751353748E+04  0.25500000000E-02 0. -1.
         -2   -1    0    0    0  501 -0.00000000000E+00 -0.00000000000E+00 -0.55323542991E+03  0.55323542991E+03  0.25500000000E-02 0.  1.
    8880023    1    1    2    0    0 -0.32324677212E+03  0.12838060522E+03  0.23445648568E+04  0.24600334610E+04  0.65864270000E+03 0.  0.
    8880022    1    1    2    0    0  0.32324677212E+03 -0.12838060522E+03 -0.42266491188E+03  0.56833734369E+03  0.15294330000E+03 0.  0.
<mgrwt>
<rscale>  0 0.62947267E+03</rscale>
<asrwt>0</asrwt>
<pdfrwt beam="1">  1        2 0.38079006E+00 0.74483573E+03</pdfrwt>
<pdfrwt beam="2">  1       -2 0.85113143E-01 0.74483573E+03</pdfrwt>
<totfact> 0.45396226E+00</totfact>
</mgrwt>
</event>
<event>
 4    1  0.3565372E-007  0.2306912E+04  0.7818608E-02  0.8484302E-01
         -2   -1    0    0    0  501 -0.00000000000E+00  0.00000000000E+00  0.18051141766E+04  0.18051141766E+04  0.25500000000E-02 0.  1.
          2   -1    0    0  501    0  0.00000000000E+00 -0.00000000000E+00 -0.29370687458E+04  0.29370687458E+04  0.25500000000E-02 0. -1.
    8880023    1    1    2    0    0  0.74403344067E+02 -0.22096370510E+04 -0.10223538576E+04  0.25233012843E+04  0.65864270000E+03 0.  1.
    8880022    1    1    2    0    0 -0.74403344067E+02  0.22096370510E+04 -0.10960071149E+03  0.22188816381E+04  0.15294330000E+03 0. -1.
<mgrwt>
<rscale>  0 0.22838846E+04</rscale>
<asrwt>0</asrwt>
<pdfrwt beam="1">  1        2 0.45185673E+00 0.23069118E+04</pdfrwt>
<pdfrwt beam="2">  1       -2 0.27770987E+00 0.23069118E+04</pdfrwt>
<totfact> 0.71339841E-02</totfact>
</mgrwt>
</event>
<event>
 4    1  0.3565372E-007  0.1162719E+04  0.7818608E-02  0.9194243E-01
          2   -1    0    0  501    0  0.00000000000E+00  0.00000000000E+00  0.20441580853E+04  0.20441580853E+04  0.25500000000E-02 0. -1.
         -2   -1    0    0    0  501 -0.00000000000E+00 -0.00000000000E+00 -0.56713572546E+03  0.56713572546E+03  0.25500000000E-02 0.  1.
    8880023    1    1    2    0    0 -0.56468579193E+03  0.77410230518E+03  0.62528084659E+03  0.13201858831E+04  0.65864270000E+03 0.  0.
    8880022    1    1    2    0    0  0.56468579193E+03 -0.77410230518E+03  0.85174151322E+03  0.12911079277E+04  0.15294330000E+03 0.  0.
<mgrwt>
<rscale>  0 0.11113051E+04</rscale>
<asrwt>0</asrwt>
<pdfrwt beam="1">  1        2 0.31448586E+00 0.11627186E+04</pdfrwt>
<pdfrwt beam="2">  1       -2 0.87251649E-01 0.11627186E+04</pdfrwt>
<totfact> 0.70555640E+00</totfact>
</mgrwt>
</event>
<event>
 4    1  0.3565372E-007  0.6695530E+03  0.7818608E-02  0.1015985E+00
         -2   -1    0    0    0  501 -0.00000000000E+00  0.00000000000E+00  0.91208322884E+03  0.91208322884E+03  0.25500000000E-02 0.  1.
          2   -1    0    0  501    0  0.00000000000E+00 -0.00000000000E+00 -0.42023716091E+03  0.42023716092E+03  0.25500000000E-02 0. -1.
    8880023    1    1    2    0    0  0.74073230802E+02 -0.94890375009E+02 -0.12883693963E+03  0.68183589673E+03  0.65864270000E+03 0. -1.
    8880022    1    1    2    0    0 -0.74073230802E+02  0.94890375009E+02  0.62068300755E+03  0.65048449303E+03  0.15294330000E+03 0.  0.
<mgrwt>
<rscale>  0 0.49163615E+03</rscale>
<asrwt>0</asrwt>
<pdfrwt beam="1">  1        2 0.64651871E-01 0.66955301E+03</pdfrwt>
<pdfrwt beam="2">  1       -2 0.14032050E+00 0.66955301E+03</pdfrwt>
<totfact> 0.27358081E+01</totfact>
</mgrwt>
</event>
<event>
 4    1  0.3565372E-007  0.7482801E+03  0.7818608E-02  0.9836452E-01
         -2   -1    0    0    0  501 -0.00000000000E+00  0.00000000000E+00  0.46999255981E+03  0.46999255981E+03  0.25500000000E-02 0.  1.
          2   -1    0    0  501    0  0.00000000000E+00 -0.00000000000E+00 -0.22363487086E+04  0.22363487086E+04  0.25500000000E-02 0. -1.
    8880023    1    1    2    0    0  0.14211752479E+00 -0.35512380673E+03 -0.20787044361E+04  0.22092838834E+04  0.65864270000E+03 0. -1.
    8880022    1    1    2    0    0 -0.14211752479E+00  0.35512380673E+03  0.31234828740E+03  0.49705738498E+03  0.15294330000E+03 0.  0.
<mgrwt>
<rscale>  0 0.63442454E+03</rscale>
<asrwt>0</asrwt>
<pdfrwt beam="1">  1        2 0.34405364E+00 0.74828012E+03</pdfrwt>
<pdfrwt beam="2">  1       -2 0.72306549E-01 0.74828012E+03</pdfrwt>
<totfact> 0.88848750E+00</totfact>
</mgrwt>
</event>
<event>
 4    1  0.3565372E-007  0.1154142E+04  0.7818608E-02  0.9203042E-01
          2   -1    0    0  501    0  0.00000000000E+00  0.00000000000E+00  0.10292656211E+04  0.10292656211E+04  0.25500000000E-02 0. -1.
         -2   -1    0    0    0  501 -0.00000000000E+00 -0.00000000000E+00 -0.23362999332E+04  0.23362999332E+04  0.25500000000E-02 0.  1.
    8880023    1    1    2    0    0 -0.31600191863E+02  0.94722491189E+03  0.54739670746E+03  0.12773750301E+04  0.65864270000E+03 0.  0.
    8880022    1    1    2    0    0  0.31600191863E+02 -0.94722491189E+03 -0.18544310196E+04  0.20881905242E+04  0.15294330000E+03 0.  0.
<mgrwt>
<rscale>  0 0.11022085E+04</rscale>
<asrwt>0</asrwt>
<pdfrwt beam="1">  1        2 0.15834856E+00 0.11541420E+04</pdfrwt>
<pdfrwt beam="2">  1       -2 0.35943076E+00 0.11541420E+04</pdfrwt>
<totfact> 0.32370383E-01</totfact>
</mgrwt>
</event>
<event>
 4    1  0.3670796E-007  0.8968900E+03  0.7818608E-02  0.9531043E-01
         -2   -1    0    0    0  501 -0.00000000000E+00  0.00000000000E+00  0.15059705892E+04  0.15059705892E+04  0.25500000000E-02 0.  1.
          2   -1    0    0  501    0  0.00000000000E+00 -0.00000000000E+00 -0.17110284981E+04  0.17110284981E+04  0.25500000000E-02 0. -1.
    8880023    1    1    2    0    0  0.20877853498E+03 -0.57185047745E+03 -0.15171881313E+04  0.17624617661E+04  0.65864270000E+03 0. -1.
    8880022    1    1    2    0    0 -0.20877853498E+03  0.57185047745E+03  0.13121302223E+04  0.14545373211E+04  0.15294330000E+03 0.  0.
<mgrwt>
<rscale>  0 0.82033352E+03</rscale>
<asrwt>0</asrwt>
<pdfrwt beam="1">  1        2 0.26323515E+00 0.89688999E+03</pdfrwt>
<pdfrwt beam="2">  1       -2 0.23168778E+00 0.89688999E+03</pdfrwt>
<totfact> 0.81857322E-01</totfact>
</mgrwt>
</event>
<event>
 4    1  0.3565372E-007  0.6732915E+03  0.7818608E-02  0.1013405E+00
          2   -1    0    0  501    0  0.00000000000E+00  0.00000000000E+00  0.15297676434E+04  0.15297676434E+04  0.25500000000E-02 0. -1.
         -2   -1    0    0    0  501 -0.00000000000E+00 -0.00000000000E+00 -0.21838604613E+03  0.21838604615E+03  0.25500000000E-02 0.  1.
    8880023    1    1    2    0    0 -0.13963786551E+03  0.35382779355E+01  0.13754012073E+04  0.15313555891E+04  0.65864270000E+03 0. -1.
    8880022    1    1    2    0    0  0.13963786551E+03 -0.35382779355E+01 -0.64019610016E+02  0.21679810049E+03  0.15294330000E+03 0.  0.
<mgrwt>
<rscale>  0 0.50143332E+03</rscale>
<asrwt>0</asrwt>
<pdfrwt beam="1">  1        2 0.23534887E+00 0.67329151E+03</pdfrwt>
<pdfrwt beam="2">  1       -2 0.33597853E-01 0.67329151E+03</pdfrwt>
<totfact> 0.10376779E+02</totfact>
</mgrwt>
</event>
<event>
 4    1  0.3565372E-007  0.6942931E+03  0.7818608E-02  0.1002175E+00
          2   -1    0    0  501    0  0.00000000000E+00  0.00000000000E+00  0.19455085625E+04  0.19455085625E+04  0.25500000000E-02 0. -1.
         -2   -1    0    0    0  501 -0.00000000000E+00 -0.00000000000E+00 -0.15808562944E+03  0.15808562946E+03  0.25500000000E-02 0.  1.
    8880023    1    1    2    0    0 -0.18880516806E+02  0.21880625479E+03  0.70850449798E+03  0.99197856881E+03  0.65864270000E+03 0.  0.
    8880022    1    1    2    0    0  0.18880516806E+02 -0.21880625479E+03  0.10789184351E+04  0.11116156232E+04  0.15294330000E+03 0.  0.
<mgrwt>
<rscale>  0 0.54706593E+03</rscale>
<asrwt>0</asrwt>
<pdfrwt beam="1">  1        2 0.29930900E+00 0.69429306E+03</pdfrwt>
<pdfrwt beam="2">  1       -2 0.24320867E-01 0.69429306E+03</pdfrwt>
<totfact> 0.11125462E+02</totfact>
</mgrwt>
</event>
<event>
 4    1  0.3565372E-007  0.7934384E+03  0.7818608E-02  0.9725167E-01
         -2   -1    0    0    0  501 -0.00000000000E+00  0.00000000000E+00  0.77236605073E+03  0.77236605073E+03  0.25500000000E-02 0.  1.
          2   -1    0    0  501    0  0.00000000000E+00 -0.00000000000E+00 -0.15682758299E+04  0.15682758299E+04  0.25500000000E-02 0. -1.
    8880023    1    1    2    0    0 -0.25250810502E+03 -0.36328210953E+03 -0.13801709897E+04  0.15919850505E+04  0.65864270000E+03 0. -1.
    8880022    1    1    2    0    0  0.25250810502E+03  0.36328210953E+03  0.58426121046E+03  0.74865683011E+03  0.15294330000E+03 0.  0.
<mgrwt>
<rscale>  0 0.69537906E+03</rscale>
<asrwt>0</asrwt>
<pdfrwt beam="1">  1        2 0.24127320E+00 0.79343837E+03</pdfrwt>
<pdfrwt beam="2">  1       -2 0.11882555E+00 0.79343837E+03</pdfrwt>
<totfact> 0.64488435E+00</totfact>
</mgrwt>
</event>
<event>
 4    1  0.3565372E-007  0.9621766E+03  0.7818608E-02  0.9432807E-01
          2   -1    0    0  501    0  0.00000000000E+00  0.00000000000E+00  0.25924194190E+04  0.25924194190E+04  0.25500000000E-02 0. -1.
         -2   -1    0    0    0  501 -0.00000000000E+00 -0.00000000000E+00 -0.37201524841E+03  0.37201524842E+03  0.25500000000E-02 0.  1.
    8880023    1    1    2    0    0 -0.67278788385E+03  0.19831808323E+03  0.19901244368E+04  0.22105155686E+04  0.65864270000E+03 0.  1.
    8880022    1    1    2    0    0  0.67278788385E+03 -0.19831808323E+03  0.23027973380E+03  0.75391909884E+03  0.15294330000E+03 0.  0.
<mgrwt>
<rscale>  0 0.89424287E+03</rscale>
<asrwt>0</asrwt>
<pdfrwt beam="1">  1        2 0.39883374E+00 0.96217660E+03</pdfrwt>
<pdfrwt beam="2">  1       -2 0.57233117E-01 0.96217660E+03</pdfrwt>
<totfact> 0.89602698E+00</totfact>
</mgrwt>
</event>
<event>
 4    1  0.3565372E-007  0.6837818E+03  0.7818608E-02  0.1007260E+00
         -2   -1    0    0    0  501 -0.00000000000E+00  0.00000000000E+00  0.25849379579E+03  0.25849379580E+03  0.25500000000E-02 0.  1.
          2   -1    0    0  501    0  0.00000000000E+00 -0.00000000000E+00 -0.13902017722E+04  0.13902017722E+04  0.25500000000E-02 0. -1.
    8880023    1    1    2    0    0 -0.15241075036E+03 -0.10255909579E+03 -0.12161358003E+04  0.13951859718E+04  0.65864270000E+03 0. -1.
    8880022    1    1    2    0    0  0.15241075036E+03  0.10255909579E+03  0.84427823792E+02  0.25350959626E+03  0.15294330000E+03 0.  0.
<mgrwt>
<rscale>  0 0.52578090E+03</rscale>
<asrwt>0</asrwt>
<pdfrwt beam="1">  1        2 0.21387719E+00 0.68378184E+03</pdfrwt>
<pdfrwt beam="2">  1       -2 0.39768277E-01 0.68378184E+03</pdfrwt>
<totfact> 0.89788195E+01</totfact>
</mgrwt>
</event>
<event>
 4    1  0.3565372E-007  0.7417740E+03  0.7818608E-02  0.9854809E-01
          2   -1    0    0  501    0  0.00000000000E+00  0.00000000000E+00  0.11675520371E+04  0.11675520371E+04  0.25500000000E-02 0. -1.
         -2   -1    0    0    0  501 -0.00000000000E+00 -0.00000000000E+00 -0.45318040642E+03  0.45318040643E+03  0.25500000000E-02 0.  1.
    8880023    1    1    2    0    0  0.96329804101E+02 -0.32732090683E+03  0.92961690379E+03  0.11892923111E+04  0.65864270000E+03 0. -1.
    8880022    1    1    2    0    0 -0.96329804101E+02  0.32732090683E+03 -0.21524527315E+03  0.43144013239E+03  0.15294330000E+03 0.  0.
<mgrwt>
<rscale>  0 0.62502299E+03</rscale>
<asrwt>0</asrwt>
<pdfrwt beam="1">  1        2 0.17962339E+00 0.74177396E+03</pdfrwt>
<pdfrwt beam="2">  1       -2 0.69720063E-01 0.74177396E+03</pdfrwt>
<totfact> 0.37846997E+01</totfact>
</mgrwt>
</event>
<event>
 4    1  0.3565372E-007  0.7976273E+03  0.7818608E-02  0.9715950E-01
          2   -1    0    0  501    0  0.00000000000E+00  0.00000000000E+00  0.54968196494E+03  0.54968196494E+03  0.25500000000E-02 0. -1.
         -2   -1    0    0    0  501 -0.00000000000E+00 -0.00000000000E+00 -0.16890352848E+04  0.16890352848E+04  0.25500000000E-02 0.  1.
    8880023    1    1    2    0    0  0.32822959693E+03 -0.30767582032E+03  0.19598636775E+03  0.82135250734E+03  0.65864270000E+03 0. -1.
    8880022    1    1    2    0    0 -0.32822959693E+03  0.30767582032E+03 -0.13353396876E+04  0.14173647424E+04  0.15294330000E+03 0.  0.
<mgrwt>
<rscale>  0 0.70075026E+03</rscale>
<asrwt>0</asrwt>
<pdfrwt beam="1">  1        2 0.84566457E-01 0.79762728E+03</pdfrwt>
<pdfrwt beam="2">  1       -2 0.25985158E+00 0.79762728E+03</pdfrwt>
<totfact> 0.31573477E+00</totfact>
</mgrwt>
</event>
<event>
 4    1  0.3565372E-007  0.7112573E+03  0.7818608E-02  0.9953361E-01
          2   -1    0    0  501    0  0.00000000000E+00  0.00000000000E+00  0.44818953019E+03  0.44818953020E+03  0.25500000000E-02 0. -1.
         -2   -1    0    0    0  501 -0.00000000000E+00 -0.00000000000E+00 -0.58539228474E+03  0.58539228474E+03  0.25500000000E-02 0.  1.
    8880023    1    1    2    0    0  0.16130741915E+03 -0.21460807664E+03 -0.52446348795E+02  0.71318828916E+03  0.65864270000E+03 0.  1.
    8880022    1    1    2    0    0 -0.16130741915E+03  0.21460807664E+03 -0.84756405753E+02  0.32039352578E+03  0.15294330000E+03 0. -1.
<mgrwt>
<rscale>  0 0.57743417E+03</rscale>
<asrwt>0</asrwt>
<pdfrwt beam="1">  1        2 0.68952235E-01 0.71125728E+03</pdfrwt>
<pdfrwt beam="2">  1       -2 0.90060352E-01 0.71125728E+03</pdfrwt>
<totfact> 0.74710048E+01</totfact>
</mgrwt>
</event>
<event>
 4    1  0.3565372E-007  0.1069541E+04  0.7818608E-02  0.9295751E-01
         -2   -1    0    0    0  501 -0.00000000000E+00  0.00000000000E+00  0.12537075095E+04  0.12537075095E+04  0.25500000000E-02 0.  1.
          2   -1    0    0  501    0  0.00000000000E+00 -0.00000000000E+00 -0.18643736870E+04  0.18643736870E+04  0.25500000000E-02 0. -1.
    8880023    1    1    2    0    0  0.35657288352E+03  0.76352051159E+03 -0.15266856449E+04  0.18640512486E+04  0.65864270000E+03 0. -1.
    8880022    1    1    2    0    0 -0.35657288352E+03 -0.76352051159E+03  0.91601946733E+03  0.12540299480E+04  0.15294330000E+03 0.  0.
<mgrwt>
<rscale>  0 0.10117496E+04</rscale>
<asrwt>0</asrwt>
<pdfrwt beam="1">  1        2 0.28682672E+00 0.10695410E+04</pdfrwt>
<pdfrwt beam="2">  1       -2 0.19287808E+00 0.10695410E+04</pdfrwt>
<totfact> 0.11629176E+00</totfact>
</mgrwt>
</event>
<event>
 4    1  0.3565372E-007  0.7333609E+03  0.7818608E-02  0.9879726E-01
          2   -1    0    0  501    0  0.00000000000E+00  0.00000000000E+00  0.13457949248E+04  0.13457949248E+04  0.25500000000E-02 0. -1.
         -2   -1    0    0    0  501 -0.00000000000E+00 -0.00000000000E+00 -0.35907136279E+03  0.35907136280E+03  0.25500000000E-02 0.  1.
    8880023    1    1    2    0    0 -0.88498698626E+02  0.31012263411E+03  0.11072898648E+04  0.13281224035E+04  0.65864270000E+03 0. -1.
    8880022    1    1    2    0    0  0.88498698626E+02 -0.31012263411E+03 -0.12056630274E+03  0.37674388411E+03  0.15294330000E+03 0.  0.
<mgrwt>
<rscale>  0 0.61253991E+03</rscale>
<asrwt>0</asrwt>
<pdfrwt beam="1">  1        2 0.20704537E+00 0.73336094E+03</pdfrwt>
<pdfrwt beam="2">  1       -2 0.55241748E-01 0.73336094E+03</pdfrwt>
<totfact> 0.48923553E+01</totfact>
</mgrwt>
</event>
<event>
 4    1  0.3565372E-007  0.7565202E+03  0.7818608E-02  0.9814201E-01
         -2   -1    0    0    0  501 -0.00000000000E+00  0.00000000000E+00  0.16848807737E+03  0.16848807739E+03  0.25500000000E-02 0.  1.
          2   -1    0    0  501    0  0.00000000000E+00 -0.00000000000E+00 -0.19932871570E+04  0.19932871570E+04  0.25500000000E-02 0. -1.
    8880023    1    1    2    0    0  0.35756932265E+03 -0.10323134917E+03 -0.11746143218E+04  0.13971548029E+04  0.65864270000E+03 0. -1.
    8880022    1    1    2    0    0 -0.35756932265E+03  0.10323134917E+03 -0.65018475780E+03  0.76462043148E+03  0.15294330000E+03 0.  1.
<mgrwt>
<rscale>  0 0.64605967E+03</rscale>
<asrwt>0</asrwt>
<pdfrwt beam="1">  1        2 0.30665955E+00 0.75652015E+03</pdfrwt>
<pdfrwt beam="2">  1       -2 0.25921244E-01 0.75652015E+03</pdfrwt>
<totfact> 0.92778742E+01</totfact>
</mgrwt>
</event>
<event>
 4    1  0.3565372E-007  0.6779699E+03  0.7818608E-02  0.1010496E+00
         -2   -1    0    0    0  501 -0.00000000000E+00  0.00000000000E+00  0.92661244090E+03  0.92661244090E+03  0.25500000000E-02 0.  1.
          2   -1    0    0  501    0  0.00000000000E+00 -0.00000000000E+00 -0.13927233807E+04  0.13927233807E+04  0.25500000000E-02 0. -1.
    8880023    1    1    2    0    0 -0.15182903597E+03  0.52733840679E+02 -0.12947476329E+04  0.14615110514E+04  0.65864270000E+03 0. -1.
    8880022    1    1    2    0    0  0.15182903597E+03 -0.52733840679E+02  0.82863669314E+03  0.85782477019E+03  0.15294330000E+03 0.  0.
<mgrwt>
<rscale>  0 0.51277935E+03</rscale>
<asrwt>0</asrwt>
<pdfrwt beam="1">  1        2 0.21426514E+00 0.67796985E+03</pdfrwt>
<pdfrwt beam="2">  1       -2 0.14255576E+00 0.67796985E+03</pdfrwt>
<totfact> 0.51837193E+00</totfact>
</mgrwt>
</event>
<event>
 4    1  0.3565372E-007  0.9515337E+03  0.7818608E-02  0.9447911E-01
          2   -1    0    0  501    0  0.00000000000E+00  0.00000000000E+00  0.27491235622E+04  0.27491235622E+04  0.25500000000E-02 0. -1.
         -2   -1    0    0    0  501 -0.00000000000E+00 -0.00000000000E+00 -0.27315580345E+03  0.27315580346E+03  0.25500000000E-02 0.  1.
    8880023    1    1    2    0    0 -0.47372963261E+03  0.49717836777E+03  0.96339761663E+03  0.13540868762E+04  0.65864270000E+03 0.  0.
    8880022    1    1    2    0    0  0.47372963261E+03 -0.49717836777E+03  0.15125701421E+04  0.16681924895E+04  0.15294330000E+03 0.  0.
<mgrwt>
<rscale>  0 0.88235534E+03</rscale>
<asrwt>0</asrwt>
<pdfrwt beam="1">  1        2 0.42294210E+00 0.95153366E+03</pdfrwt>
<pdfrwt beam="2">  1       -2 0.42023968E-01 0.95153366E+03</pdfrwt>
<totfact> 0.13631035E+01</totfact>
</mgrwt>
</event>
<event>
 4    1  0.3565372E-007  0.6713134E+03  0.7818608E-02  0.1014738E+00
          2   -1    0    0  501    0  0.00000000000E+00  0.00000000000E+00  0.35438761698E+03  0.35438761699E+03  0.25500000000E-02 0. -1.
         -2   -1    0    0    0  501 -0.00000000000E+00 -0.00000000000E+00 -0.84733425289E+03  0.84733425289E+03  0.25500000000E-02 0.  1.
    8880023    1    1    2    0    0  0.12318097848E+03  0.40962305095E+02 -0.19404633003E+01  0.67131619641E+03  0.65864270000E+03 0. -1.
    8880022    1    1    2    0    0 -0.12318097848E+03 -0.40962305095E+02 -0.49100617261E+03  0.53040567347E+03  0.15294330000E+03 0.  0.
<mgrwt>
<rscale>  0 0.49634132E+03</rscale>
<asrwt>0</asrwt>
<pdfrwt beam="1">  1        2 0.54521172E-01 0.67131339E+03</pdfrwt>
<pdfrwt beam="2">  1       -2 0.13035911E+00 0.67131339E+03</pdfrwt>
<totfact> 0.39962894E+01</totfact>
</mgrwt>
</event>
<event>
 4    1  0.3565372E-007  0.7952766E+03  0.7818608E-02  0.9721103E-01
          2   -1    0    0  501    0  0.00000000000E+00  0.00000000000E+00  0.94579873813E+03  0.94579873813E+03  0.25500000000E-02 0. -1.
         -2   -1    0    0    0  501 -0.00000000000E+00 -0.00000000000E+00 -0.43354811373E+03  0.43354811374E+03  0.25500000000E-02 0.  1.
    8880023    1    1    2    0    0  0.17395589941E+03 -0.41035847325E+03  0.41932312300E+03  0.89905329055E+03  0.65864270000E+03 0.  0.
    8880022    1    1    2    0    0 -0.17395589941E+03  0.41035847325E+03  0.92927501399E+02  0.48029356131E+03  0.15294330000E+03 0.  0.
<mgrwt>
<rscale>  0 0.69774082E+03</rscale>
<asrwt>0</asrwt>
<pdfrwt beam="1">  1        2 0.14550750E+00 0.79527664E+03</pdfrwt>
<pdfrwt beam="2">  1       -2 0.66699711E-01 0.79527664E+03</pdfrwt>
<totfact> 0.57042349E+01</totfact>
</mgrwt>
</event>
<event>
 4    1  0.3565372E-007  0.9667449E+03  0.7818608E-02  0.9426420E-01
         -2   -1    0    0    0  501 -0.00000000000E+00  0.00000000000E+00  0.13026706089E+04  0.13026706089E+04  0.25500000000E-02 0.  1.
          2   -1    0    0  501    0  0.00000000000E+00 -0.00000000000E+00 -0.11055321565E+04  0.11055321565E+04  0.25500000000E-02 0. -1.
    8880023    1    1    2    0    0 -0.52217134614E+03  0.47762174297E+03 -0.74465070208E+03  0.12202869820E+04  0.65864270000E+03 0.  0.
    8880022    1    1    2    0    0  0.52217134614E+03 -0.47762174297E+03  0.94178915440E+03  0.11879157834E+04  0.15294330000E+03 0.  0.
<mgrwt>
<rscale>  0 0.89932914E+03</rscale>
<asrwt>0</asrwt>
<pdfrwt beam="1">  1        2 0.17008187E+00 0.96674487E+03</pdfrwt>
<pdfrwt beam="2">  1       -2 0.20041086E+00 0.96674487E+03</pdfrwt>
<totfact> 0.28457573E+00</totfact>
</mgrwt>
</event>
<event>
 4    1  0.3565372E-007  0.9164562E+03  0.7818608E-02  0.9500114E-01
         -2   -1    0    0    0  501 -0.00000000000E+00  0.00000000000E+00  0.40692770961E+03  0.40692770962E+03  0.25500000000E-02 0.  1.
          2   -1    0    0  501    0  0.00000000000E+00 -0.00000000000E+00 -0.22005976113E+04  0.22005976113E+04  0.25500000000E-02 0. -1.
    8880023    1    1    2    0    0 -0.60021471372E+03 -0.21406540426E+03 -0.17188760887E+04  0.19479288782E+04  0.65864270000E+03 0.  0.
    8880022    1    1    2    0    0  0.60021471372E+03  0.21406540426E+03 -0.74793813036E+02  0.65959644280E+03  0.15294330000E+03 0.  0.
<mgrwt>
<rscale>  0 0.84275396E+03</rscale>
<asrwt>0</asrwt>
<pdfrwt beam="1">  1        2 0.33855347E+00 0.91645617E+03</pdfrwt>
<pdfrwt beam="2">  1       -2 0.62604264E-01 0.91645617E+03</pdfrwt>
<totfact> 0.12409413E+01</totfact>
</mgrwt>
</event>
<event>
 4    1  0.3565372E-007  0.1148153E+04  0.7818608E-02  0.9209247E-01
         -2   -1    0    0    0  501 -0.00000000000E+00  0.00000000000E+00  0.12470302234E+04  0.12470302234E+04  0.25500000000E-02 0.  1.
          2   -1    0    0  501    0  0.00000000000E+00 -0.00000000000E+00 -0.15593751476E+04  0.15593751476E+04  0.25500000000E-02 0. -1.
    8880023    1    1    2    0    0 -0.33534851968E+02 -0.93985136293E+03 -0.10849849589E+04  0.15796986225E+04  0.65864270000E+03 0.  0.
    8880022    1    1    2    0    0  0.33534851968E+02  0.93985136293E+03  0.77264003467E+03  0.12267067485E+04  0.15294330000E+03 0.  0.
<mgrwt>
<rscale>  0 0.10958492E+04</rscale>
<asrwt>0</asrwt>
<pdfrwt beam="1">  1        2 0.23990387E+00 0.11481530E+04</pdfrwt>
<pdfrwt beam="2">  1       -2 0.19185080E+00 0.11481530E+04</pdfrwt>
<totfact> 0.17274477E+00</totfact>
</mgrwt>
</event>
<event>
 4    1  0.3565372E-007  0.7227440E+03  0.7818608E-02  0.9913408E-01
         -2   -1    0    0    0  501 -0.00000000000E+00  0.00000000000E+00  0.16741149398E+03  0.16741149399E+03  0.25500000000E-02 0.  1.
          2   -1    0    0  501    0  0.00000000000E+00 -0.00000000000E+00 -0.22603145572E+04  0.22603145572E+04  0.25500000000E-02 0. -1.
    8880023    1    1    2    0    0  0.28181474084E+03  0.95546674959E+02 -0.19191364265E+04  0.20507178121E+04  0.65864270000E+03 0. -1.
    8880022    1    1    2    0    0 -0.28181474084E+03 -0.95546674959E+02 -0.17376663670E+03  0.37700823903E+03  0.15294330000E+03 0.  0.
<mgrwt>
<rscale>  0 0.59615848E+03</rscale>
<asrwt>0</asrwt>
<pdfrwt beam="1">  1        2 0.34774068E+00 0.72274402E+03</pdfrwt>
<pdfrwt beam="2">  1       -2 0.25755616E-01 0.72274402E+03</pdfrwt>
<totfact> 0.67238580E+01</totfact>
</mgrwt>
</event>
<event>
 4    1  0.3565372E-007  0.8855980E+03  0.7818608E-02  0.9549558E-01
          2   -1    0    0  501    0  0.00000000000E+00  0.00000000000E+00  0.16388936067E+04  0.16388936067E+04  0.25500000000E-02 0. -1.
         -2   -1    0    0    0  501 -0.00000000000E+00 -0.00000000000E+00 -0.69544742802E+03  0.69544742802E+03  0.25500000000E-02 0.  1.
    8880023    1    1    2    0    0 -0.48857213002E+03  0.33432156935E+03  0.13395351652E+04  0.16058139067E+04  0.65864270000E+03 0.  0.
    8880022    1    1    2    0    0  0.48857213002E+03 -0.33432156935E+03 -0.39608898652E+03  0.72852712800E+03  0.15294330000E+03 0.  0.
<mgrwt>
<rscale>  0 0.80726639E+03</rscale>
<asrwt>0</asrwt>
<pdfrwt beam="1">  1        2 0.25213748E+00 0.88559802E+03</pdfrwt>
<pdfrwt beam="2">  1       -2 0.10699191E+00 0.88559802E+03</pdfrwt>
<totfact> 0.75207143E+00</totfact>
</mgrwt>
</event>
<event>
 4    1  0.3565372E-007  0.7571779E+03  0.7818608E-02  0.9812469E-01
         -2   -1    0    0    0  501 -0.00000000000E+00  0.00000000000E+00  0.51486205528E+03  0.51486205528E+03  0.25500000000E-02 0.  1.
          2   -1    0    0  501    0  0.00000000000E+00 -0.00000000000E+00 -0.12789042145E+04  0.12789042145E+04  0.25500000000E-02 0. -1.
    8880023    1    1    2    0    0  0.74524992791E+02 -0.36599761550E+03 -0.10532971315E+04  0.12972098067E+04  0.65864270000E+03 0. -1.
    8880022    1    1    2    0    0 -0.74524992791E+02  0.36599761550E+03  0.28925497223E+03  0.49655646313E+03  0.15294330000E+03 0.  0.
<mgrwt>
<rscale>  0 0.64697658E+03</rscale>
<asrwt>0</asrwt>
<pdfrwt beam="1">  1        2 0.19675449E+00 0.75717794E+03</pdfrwt>
<pdfrwt beam="2">  1       -2 0.79209547E-01 0.75717794E+03</pdfrwt>
<totfact> 0.24504187E+01</totfact>
</mgrwt>
</event>
<event>
 4    1  0.3565372E-007  0.7643040E+03  0.7818608E-02  0.9794090E-01
          2   -1    0    0  501    0  0.00000000000E+00  0.00000000000E+00  0.78800807325E+03  0.78800807326E+03  0.25500000000E-02 0. -1.
         -2   -1    0    0    0  501 -0.00000000000E+00 -0.00000000000E+00 -0.47334208510E+03  0.47334208510E+03  0.25500000000E-02 0.  1.
    8880023    1    1    2    0    0  0.29842791117E+03 -0.24757044019E+03  0.35471856929E+03  0.84260655746E+03  0.65864270000E+03 0.  0.
    8880022    1    1    2    0    0 -0.29842791117E+03  0.24757044019E+03 -0.40052581136E+02  0.41874360089E+03  0.15294330000E+03 0.  0.
<mgrwt>
<rscale>  0 0.65680687E+03</rscale>
<asrwt>0</asrwt>
<pdfrwt beam="1">  1        2 0.12123201E+00 0.76430396E+03</pdfrwt>
<pdfrwt beam="2">  1       -2 0.72821859E-01 0.76430396E+03</pdfrwt>
<totfact> 0.60633337E+01</totfact>
</mgrwt>
</event>
<event>
 4    1  0.3565372E-007  0.6666923E+03  0.7818608E-02  0.1018154E+00
          2   -1    0    0  501    0  0.00000000000E+00  0.00000000000E+00  0.15059683665E+03  0.15059683667E+03  0.25500000000E-02 0. -1.
         -2   -1    0    0    0  501 -0.00000000000E+00 -0.00000000000E+00 -0.14380671784E+04  0.14380671784E+04  0.25500000000E-02 0.  1.
    8880023    1    1    2    0    0  0.92759875714E+02 -0.45431486019E+02 -0.67396758707E+03  0.94800365461E+03  0.65864270000E+03 0. -1.
    8880022    1    1    2    0    0 -0.92759875714E+02  0.45431486019E+02 -0.61350275469E+03  0.64066036048E+03  0.15294330000E+03 0.  1.
<mgrwt>
<rscale>  0 0.48358717E+03</rscale>
<asrwt>0</asrwt>
<pdfrwt beam="1">  1        2 0.23168745E-01 0.66669230E+03</pdfrwt>
<pdfrwt beam="2">  1       -2 0.22124110E+00 0.66669230E+03</pdfrwt>
<totfact> 0.23856248E+01</totfact>
</mgrwt>
</event>
<event>
 4    1  0.3565372E-007  0.6612843E+03  0.7818608E-02  0.1022878E+00
          2   -1    0    0  501    0  0.00000000000E+00  0.00000000000E+00  0.32662268817E+04  0.32662268817E+04  0.25500000000E-02 0. -1.
         -2   -1    0    0    0  501 -0.00000000000E+00 -0.00000000000E+00 -0.18590949284E+03  0.18590949286E+03  0.25500000000E-02 0.  1.
    8880023    1    1    2    0    0  0.17998240321E+02  0.56238581828E+02  0.31880825417E+04  0.32559433677E+04  0.65864270000E+03 0. -1.
    8880022    1    1    2    0    0 -0.17998240321E+02 -0.56238581828E+02 -0.10776515287E+03  0.19619300683E+03  0.15294330000E+03 0.  0.
<mgrwt>
<rscale>  0 0.46662341E+03</rscale>
<asrwt>0</asrwt>
<pdfrwt beam="1">  1        2 0.50249641E+00 0.66128430E+03</pdfrwt>
<pdfrwt beam="2">  1       -2 0.28601462E-01 0.66128430E+03</pdfrwt>
<totfact> 0.14297371E+01</totfact>
</mgrwt>
</event>
<event>
 4    1  0.3565372E-007  0.6925701E+03  0.7818608E-02  0.1002954E+00
          2   -1    0    0  501    0  0.00000000000E+00  0.00000000000E+00  0.21278131976E+03  0.21278131978E+03  0.25500000000E-02 0. -1.
         -2   -1    0    0    0  501 -0.00000000000E+00 -0.00000000000E+00 -0.13017834170E+04  0.13017834170E+04  0.25500000000E-02 0.  1.
    8880023    1    1    2    0    0 -0.21350265635E+03  0.16117026752E+02 -0.45642103746E+03  0.82944168723E+03  0.65864270000E+03 0. -1.
    8880022    1    1    2    0    0  0.21350265635E+03 -0.16117026752E+02 -0.63258105975E+03  0.68512304952E+03  0.15294330000E+03 0.  1.
<mgrwt>
<rscale>  0 0.54373634E+03</rscale>
<asrwt>0</asrwt>
<pdfrwt beam="1">  1        2 0.32735588E-01 0.69257010E+03</pdfrwt>
<pdfrwt beam="2">  1       -2 0.20027437E+00 0.69257010E+03</pdfrwt>
<totfact> 0.21815427E+01</totfact>
</mgrwt>
</event>
<event>
 4    1  0.3565372E-007  0.7085950E+03  0.7818608E-02  0.9963256E-01
          2   -1    0    0  501    0  0.00000000000E+00  0.00000000000E+00  0.10488353185E+04  0.10488353185E+04  0.25500000000E-02 0. -1.
         -2   -1    0    0    0  501 -0.00000000000E+00 -0.00000000000E+00 -0.28590249521E+03  0.28590249522E+03  0.25500000000E-02 0.  1.
    8880023    1    1    2    0    0  0.14415293448E+03  0.21798309270E+03  0.74979968060E+03  0.10316522983E+04  0.65864270000E+03 0. -1.
    8880022    1    1    2    0    0 -0.14415293448E+03 -0.21798309270E+03  0.13133142676E+02  0.30308551545E+03  0.15294330000E+03 0.  0.
<mgrwt>
<rscale>  0 0.57291190E+03</rscale>
<asrwt>0</asrwt>
<pdfrwt beam="1">  1        2 0.16135928E+00 0.70859502E+03</pdfrwt>
<pdfrwt beam="2">  1       -2 0.43984998E-01 0.70859502E+03</pdfrwt>
<totfact> 0.11680997E+02</totfact>
</mgrwt>
</event>
<event>
 4    1  0.3565372E-007  0.6774582E+03  0.7818608E-02  0.1010800E+00
         -2   -1    0    0    0  501 -0.00000000000E+00  0.00000000000E+00  0.46600611822E+03  0.46600611823E+03  0.25500000000E-02 0.  1.
          2   -1    0    0  501    0  0.00000000000E+00 -0.00000000000E+00 -0.11528566573E+04  0.11528566573E+04  0.25500000000E-02 0. -1.
    8880023    1    1    2    0    0  0.89106802044E+02  0.13114623625E+03 -0.10169887518E+04  0.12219720476E+04  0.65864270000E+03 0. -1.
    8880022    1    1    2    0    0 -0.89106802044E+02 -0.13114623625E+03  0.33013821272E+03  0.39689072799E+03  0.15294330000E+03 0.  0.
<mgrwt>
<rscale>  0 0.51158085E+03</rscale>
<asrwt>0</asrwt>
<pdfrwt beam="1">  1        2 0.17736256E+00 0.67745816E+03</pdfrwt>
<pdfrwt beam="2">  1       -2 0.71693249E-01 0.67745816E+03</pdfrwt>
<totfact> 0.36579724E+01</totfact>
</mgrwt>
</event>
<event>
 4    1  0.3565372E-007  0.6684171E+03  0.7818608E-02  0.1016824E+00
          2   -1    0    0  501    0  0.00000000000E+00  0.00000000000E+00  0.12709657135E+04  0.12709657135E+04  0.25500000000E-02 0. -1.
         -2   -1    0    0    0  501 -0.00000000000E+00 -0.00000000000E+00 -0.14710611760E+03  0.14710611762E+03  0.25500000000E-02 0.  1.
    8880023    1    1    2    0    0  0.23153535843E+01 -0.11386791581E+03  0.93796919420E+03  0.11517671981E+04  0.65864270000E+03 0.  1.
    8880022    1    1    2    0    0 -0.23153535843E+01  0.11386791581E+03  0.18589040173E+03  0.26630463305E+03  0.15294330000E+03 0.  0.
<mgrwt>
<rscale>  0 0.48850388E+03</rscale>
<asrwt>0</asrwt>
<pdfrwt beam="1">  1        2 0.19553319E+00 0.66841714E+03</pdfrwt>
<pdfrwt beam="2">  1       -2 0.22631710E-01 0.66841714E+03</pdfrwt>
<totfact> 0.29928524E+02</totfact>
</mgrwt>
</event>
<event>
 4    1  0.3565372E-007  0.1152360E+04  0.7818608E-02  0.9204883E-01
          2   -1    0    0  501    0  0.00000000000E+00  0.00000000000E+00  0.21161734335E+04  0.21161734335E+04  0.25500000000E-02 0. -1.
         -2   -1    0    0    0  501 -0.00000000000E+00 -0.00000000000E+00 -0.71308392681E+03  0.71308392681E+03  0.25500000000E-02 0.  1.
    8880023    1    1    2    0    0  0.88792508399E+03  0.32513396371E+03  0.14714127132E+04  0.18689538860E+04  0.65864270000E+03 0.  0.
    8880022    1    1    2    0    0 -0.88792508399E+03 -0.32513396371E+03 -0.68323206561E+02  0.96030347427E+03  0.15294330000E+03 0.  0.
<mgrwt>
<rscale>  0 0.11003167E+04</rscale>
<asrwt>0</asrwt>
<pdfrwt beam="1">  1        2 0.32556514E+00 0.11523599E+04</pdfrwt>
<pdfrwt beam="2">  1       -2 0.10970522E+00 0.11523599E+04</pdfrwt>
<totfact> 0.37426358E+00</totfact>
</mgrwt>
</event>
<event>
 4    1  0.3565372E-007  0.8546400E+03  0.7818608E-02  0.9603170E-01
          2   -1    0    0  501    0  0.00000000000E+00  0.00000000000E+00  0.22924528732E+04  0.22924528732E+04  0.25500000000E-02 0. -1.
         -2   -1    0    0    0  501 -0.00000000000E+00 -0.00000000000E+00 -0.66234210287E+03  0.66234210288E+03  0.25500000000E-02 0.  1.
    8880023    1    1    2    0    0  0.53925210593E+03  0.76199822871E+02  0.20691687829E+04  0.22387203723E+04  0.65864270000E+03 0. -1.
    8880022    1    1    2    0    0 -0.53925210593E+03 -0.76199822871E+02 -0.43905801260E+03  0.71607460380E+03  0.15294330000E+03 0.  0.
<mgrwt>
<rscale>  0 0.77086725E+03</rscale>
<asrwt>0</asrwt>
<pdfrwt beam="1">  1        2 0.35268505E+00 0.85463996E+03</pdfrwt>
<pdfrwt beam="2">  1       -2 0.10189879E+00 0.85463996E+03</pdfrwt>
<totfact> 0.37098636E+00</totfact>
</mgrwt>
</event>
<event>
 4    1  0.3565372E-007  0.6669464E+03  0.7818608E-02  0.1017953E+00
          2   -1    0    0  501    0  0.00000000000E+00  0.00000000000E+00  0.68706689123E+03  0.68706689124E+03  0.25500000000E-02 0. -1.
         -2   -1    0    0    0  501 -0.00000000000E+00 -0.00000000000E+00 -0.62284638775E+03  0.62284638775E+03  0.25500000000E-02 0.  1.
    8880023    1    1    2    0    0  0.78959985259E+02 -0.69084055226E+02  0.50180812611E+03  0.83464297017E+03  0.65864270000E+03 0. -1.
    8880022    1    1    2    0    0 -0.78959985259E+02  0.69084055226E+02 -0.43758762262E+03  0.47527030882E+03  0.15294330000E+03 0.  0.
<mgrwt>
<rscale>  0 0.48432438E+03</rscale>
<asrwt>0</asrwt>
<pdfrwt beam="1">  1        2 0.10570260E+00 0.66694639E+03</pdfrwt>
<pdfrwt beam="2">  1       -2 0.95822522E-01 0.66694639E+03</pdfrwt>
<totfact> 0.39090621E+01</totfact>
</mgrwt>
</event>
<event>
 4    1  0.3565372E-007  0.9568568E+03  0.7818608E-02  0.9440317E-01
         -2   -1    0    0    0  501 -0.00000000000E+00  0.00000000000E+00  0.12066326625E+04  0.12066326625E+04  0.25500000000E-02 0.  1.
          2   -1    0    0  501    0  0.00000000000E+00 -0.00000000000E+00 -0.13889946249E+04  0.13889946249E+04  0.25500000000E-02 0. -1.
    8880023    1    1    2    0    0 -0.58702225760E+03 -0.37036405498E+03 -0.10850663582E+04  0.14467010307E+04  0.65864270000E+03 0. -1.
    8880022    1    1    2    0    0  0.58702225760E+03  0.37036405498E+03  0.90270439579E+03  0.11489262567E+04  0.15294330000E+03 0.  0.
<mgrwt>
<rscale>  0 0.88830769E+03</rscale>
<asrwt>0</asrwt>
<pdfrwt beam="1">  1        2 0.21369148E+00 0.95685677E+03</pdfrwt>
<pdfrwt beam="2">  1       -2 0.18563580E+00 0.95685677E+03</pdfrwt>
<totfact> 0.24300759E+00</totfact>
</mgrwt>
</event>
<event>
 4    1  0.3565372E-007  0.7127862E+03  0.7818608E-02  0.9947797E-01
         -2   -1    0    0    0  501 -0.00000000000E+00  0.00000000000E+00  0.11504018491E+04  0.11504018491E+04  0.25500000000E-02 0.  1.
          2   -1    0    0  501    0  0.00000000000E+00 -0.00000000000E+00 -0.26300751556E+03  0.26300751558E+03  0.25500000000E-02 0. -1.
    8880023    1    1    2    0    0 -0.22580753539E+03 -0.15252828134E+03  0.83281513644E+03  0.10961957751E+04  0.65864270000E+03 0.  1.
    8880022    1    1    2    0    0  0.22580753539E+03  0.15252828134E+03  0.54579197129E+02  0.31721358959E+03  0.15294330000E+03 0. -1.
<mgrwt>
<rscale>  0 0.57999736E+03</rscale>
<asrwt>0</asrwt>
<pdfrwt beam="1">  1        2 0.40462695E-01 0.71278617E+03</pdfrwt>
<pdfrwt beam="2">  1       -2 0.17698490E+00 0.71278617E+03</pdfrwt>
<totfact> 0.24602065E+01</totfact>
</mgrwt>
</event>
<event>
 4    1  0.3565372E-007  0.8812106E+03  0.7818608E-02  0.9556894E-01
         -2   -1    0    0    0  501 -0.00000000000E+00  0.00000000000E+00  0.10237384721E+04  0.10237384721E+04  0.25500000000E-02 0.  1.
          2   -1    0    0  501    0  0.00000000000E+00 -0.00000000000E+00 -0.76954067380E+03  0.76954067380E+03  0.25500000000E-02 0. -1.
    8880023    1    1    2    0    0 -0.42704952679E+03  0.40043812504E+03 -0.34066351846E+03  0.94476654756E+03  0.65864270000E+03 0. -1.
    8880022    1    1    2    0    0  0.42704952679E+03 -0.40043812504E+03  0.59486131673E+03  0.84851259830E+03  0.15294330000E+03 0.  0.
<mgrwt>
<rscale>  0 0.80216145E+03</rscale>
<asrwt>0</asrwt>
<pdfrwt beam="1">  1        2 0.11839087E+00 0.88121064E+03</pdfrwt>
<pdfrwt beam="2">  1       -2 0.15749823E+00 0.88121064E+03</pdfrwt>
<totfact> 0.95590526E+00</totfact>
</mgrwt>
</event>
<event>
 4    1  0.3565372E-007  0.7874572E+03  0.7818608E-02  0.9738603E-01
          2   -1    0    0  501    0  0.00000000000E+00  0.00000000000E+00  0.17008516159E+04  0.17008516159E+04  0.25500000000E-02 0. -1.
         -2   -1    0    0    0  501 -0.00000000000E+00 -0.00000000000E+00 -0.83382513835E+03  0.83382513836E+03  0.25500000000E-02 0.  1.
    8880023    1    1    2    0    0 -0.41696083401E+03  0.11145562126E+03  0.15347817921E+04  0.17250055212E+04  0.65864270000E+03 0.  0.
    8880022    1    1    2    0    0  0.41696083401E+03 -0.11145562126E+03 -0.66775531451E+03  0.80967123308E+03  0.15294330000E+03 0.  0.
<mgrwt>
<rscale>  0 0.68764195E+03</rscale>
<asrwt>0</asrwt>
<pdfrwt beam="1">  1        2 0.26166948E+00 0.78745724E+03</pdfrwt>
<pdfrwt beam="2">  1       -2 0.12828079E+00 0.78745724E+03</pdfrwt>
<totfact> 0.45044026E+00</totfact>
</mgrwt>
</event>
<event>
 4    1  0.3565372E-007  0.7081864E+03  0.7818608E-02  0.9964798E-01
         -2   -1    0    0    0  501 -0.00000000000E+00  0.00000000000E+00  0.13964291479E+04  0.13964291479E+04  0.25500000000E-02 0.  1.
          2   -1    0    0  501    0  0.00000000000E+00 -0.00000000000E+00 -0.44033733034E+03  0.44033733035E+03  0.25500000000E-02 0. -1.
    8880023    1    1    2    0    0 -0.23903815692E+03 -0.10285224578E+03 -0.12076193121E+03  0.71840898882E+03  0.65864270000E+03 0. -1.
    8880022    1    1    2    0    0  0.23903815692E+03  0.10285224578E+03  0.10768537488E+04  0.11183574895E+04  0.15294330000E+03 0.  0.
<mgrwt>
<rscale>  0 0.57221093E+03</rscale>
<asrwt>0</asrwt>
<pdfrwt beam="1">  1        2 0.67744206E-01 0.70818644E+03</pdfrwt>
<pdfrwt beam="2">  1       -2 0.21483525E+00 0.70818644E+03</pdfrwt>
<totfact> 0.78012832E+00</totfact>
</mgrwt>
</event>
<event>
 4    1  0.3565372E-007  0.8236244E+03  0.7818608E-02  0.9661867E-01
         -2   -1    0    0    0  501 -0.00000000000E+00  0.00000000000E+00  0.31973091163E+03  0.31973091164E+03  0.25500000000E-02 0.  1.
          2   -1    0    0  501    0  0.00000000000E+00 -0.00000000000E+00 -0.14470041461E+04  0.14470041462E+04  0.25500000000E-02 0. -1.
    8880023    1    1    2    0    0  0.48707567468E+03 -0.85464885486E+02 -0.83243268529E+03  0.11710257646E+04  0.65864270000E+03 0.  1.
    8880022    1    1    2    0    0 -0.48707567468E+03  0.85464885486E+02 -0.29484054923E+03  0.59570929320E+03  0.15294330000E+03 0.  0.
<mgrwt>
<rscale>  0 0.73333315E+03</rscale>
<asrwt>0</asrwt>
<pdfrwt beam="1">  1        2 0.22261602E+00 0.82362441E+03</pdfrwt>
<pdfrwt beam="2">  1       -2 0.49189372E-01 0.82362441E+03</pdfrwt>
<totfact> 0.53938504E+01</totfact>
</mgrwt>
</event>
<event>
 4    1  0.3565372E-007  0.1212894E+04  0.7818608E-02  0.9144690E-01
          2   -1    0    0  501    0  0.00000000000E+00  0.00000000000E+00  0.17171986184E+04  0.17171986184E+04  0.25500000000E-02 0. -1.
         -2   -1    0    0    0  501 -0.00000000000E+00 -0.00000000000E+00 -0.10177488284E+04  0.10177488284E+04  0.25500000000E-02 0.  1.
    8880023    1    1    2    0    0 -0.96478087365E+03 -0.32634109573E+03 -0.35219494496E+03  0.12629933216E+04  0.65864270000E+03 0.  1.
    8880022    1    1    2    0    0  0.96478087365E+03  0.32634109573E+03  0.10516447350E+04  0.14719541252E+04  0.15294330000E+03 0. -1.
<mgrwt>
<rscale>  0 0.11643022E+04</rscale>
<asrwt>0</asrwt>
<pdfrwt beam="1">  1        2 0.26418440E+00 0.12128936E+04</pdfrwt>
<pdfrwt beam="2">  1       -2 0.15657674E+00 0.12128936E+04</pdfrwt>
<totfact> 0.24867307E+00</totfact>
</mgrwt>
</event>
<event>
 4    1  0.3565372E-007  0.9189601E+03  0.7818608E-02  0.9496255E-01
         -2   -1    0    0    0  501 -0.00000000000E+00  0.00000000000E+00  0.10372877067E+04  0.10372877067E+04  0.25500000000E-02 0.  1.
          2   -1    0    0  501    0  0.00000000000E+00 -0.00000000000E+00 -0.90415351127E+03  0.90415351127E+03  0.25500000000E-02 0. -1.
    8880023    1    1    2    0    0 -0.61471396658E+03 -0.18111946826E+03 -0.48407309713E+03  0.10386599502E+04  0.65864270000E+03 0. -1.
    8880022    1    1    2    0    0  0.61471396658E+03  0.18111946826E+03  0.61720729258E+03  0.90278126782E+03  0.15294330000E+03 0.  0.
<mgrwt>
<rscale>  0 0.84560467E+03</rscale>
<asrwt>0</asrwt>
<pdfrwt beam="1">  1        2 0.13910054E+00 0.91896013E+03</pdfrwt>
<pdfrwt beam="2">  1       -2 0.15958272E+00 0.91896013E+03</pdfrwt>
<totfact> 0.73841215E+00</totfact>
</mgrwt>
</event>
<event>
 4    1  0.3565372E-007  0.7948464E+03  0.7818608E-02  0.9722052E-01
          2   -1    0    0  501    0  0.00000000000E+00  0.00000000000E+00  0.56818967905E+03  0.56818967906E+03  0.25500000000E-02 0. -1.
         -2   -1    0    0    0  501 -0.00000000000E+00 -0.00000000000E+00 -0.18272541374E+04  0.18272541374E+04  0.25500000000E-02 0.  1.
    8880023    1    1    2    0    0 -0.13756058037E+03  0.42314021931E+03  0.23515475438E+03  0.82890199858E+03  0.65864270000E+03 0.  0.
    8880022    1    1    2    0    0  0.13756058037E+03 -0.42314021931E+03 -0.14942192127E+04  0.15665418179E+04  0.15294330000E+03 0.  0.
<mgrwt>
<rscale>  0 0.69718869E+03</rscale>
<asrwt>0</asrwt>
<pdfrwt beam="1">  1        2 0.87413798E-01 0.79484638E+03</pdfrwt>
<pdfrwt beam="2">  1       -2 0.28111602E+00 0.79484638E+03</pdfrwt>
<totfact> 0.22620524E+00</totfact>
</mgrwt>
</event>
<event>
 4    1  0.3565372E-007  0.8521856E+03  0.7818608E-02  0.9607618E-01
         -2   -1    0    0    0  501 -0.00000000000E+00  0.00000000000E+00  0.20263520083E+04  0.20263520083E+04  0.25500000000E-02 0.  1.
          2   -1    0    0  501    0  0.00000000000E+00 -0.00000000000E+00 -0.86542806665E+03  0.86542806665E+03  0.25500000000E-02 0. -1.
    8880023    1    1    2    0    0 -0.87087753129E+02 -0.53369068322E+03 -0.60074684236E+03  0.10426490287E+04  0.65864270000E+03 0.  0.
    8880022    1    1    2    0    0  0.87087753129E+02  0.53369068322E+03  0.17616707840E+04  0.18491310463E+04  0.15294330000E+03 0.  0.
<mgrwt>
<rscale>  0 0.76794025E+03</rscale>
<asrwt>0</asrwt>
<pdfrwt beam="1">  1        2 0.13314278E+00 0.85218556E+03</pdfrwt>
<pdfrwt beam="2">  1       -2 0.31174646E+00 0.85218556E+03</pdfrwt>
<totfact> 0.85770857E-01</totfact>
</mgrwt>
</event>
<event>
 4    1  0.3565372E-007  0.7290795E+03  0.7818608E-02  0.9892982E-01
          2   -1    0    0  501    0  0.00000000000E+00  0.00000000000E+00  0.96754219983E+03  0.96754219983E+03  0.25500000000E-02 0. -1.
         -2   -1    0    0    0  501 -0.00000000000E+00 -0.00000000000E+00 -0.36744833473E+03  0.36744833474E+03  0.25500000000E-02 0.  1.
    8880023    1    1    2    0    0  0.29866531807E+03 -0.92442920905E+02  0.65806815340E+03  0.98214589885E+03  0.65864270000E+03 0.  0.
    8880022    1    1    2    0    0 -0.29866531807E+03  0.92442920905E+02 -0.57974288296E+02  0.35284463572E+03  0.15294330000E+03 0.  0.
<mgrwt>
<rscale>  0 0.60602612E+03</rscale>
<asrwt>0</asrwt>
<pdfrwt beam="1">  1        2 0.14885265E+00 0.72907947E+03</pdfrwt>
<pdfrwt beam="2">  1       -2 0.56530512E-01 0.72907947E+03</pdfrwt>
<totfact> 0.78846412E+01</totfact>
</mgrwt>
</event>
<event>
 4    1  0.3565372E-007  0.7554794E+03  0.7818608E-02  0.9816954E-01
         -2   -1    0    0    0  501 -0.00000000000E+00  0.00000000000E+00  0.67618935722E+03  0.67618935722E+03  0.25500000000E-02 0.  1.
          2   -1    0    0  501    0  0.00000000000E+00 -0.00000000000E+00 -0.13020777656E+04  0.13020777656E+04  0.25500000000E-02 0. -1.
    8880023    1    1    2    0    0 -0.32497715186E+03  0.17699948188E+03 -0.11145756028E+04  0.13464872619E+04  0.65864270000E+03 0. -1.
    8880022    1    1    2    0    0  0.32497715186E+03 -0.17699948188E+03  0.48868719435E+03  0.63177986099E+03  0.15294330000E+03 0.  0.
<mgrwt>
<rscale>  0 0.64460555E+03</rscale>
<asrwt>0</asrwt>
<pdfrwt beam="1">  1        2 0.20031966E+00 0.75547943E+03</pdfrwt>
<pdfrwt beam="2">  1       -2 0.10402913E+00 0.75547943E+03</pdfrwt>
<totfact> 0.12643999E+01</totfact>
</mgrwt>
</event>
<event>
 4    1  0.3565372E-007  0.8918381E+03  0.7818608E-02  0.9539263E-01
          2   -1    0    0  501    0  0.00000000000E+00  0.00000000000E+00  0.16690106299E+04  0.16690106299E+04  0.25500000000E-02 0. -1.
         -2   -1    0    0    0  501 -0.00000000000E+00 -0.00000000000E+00 -0.41846728114E+03  0.41846728114E+03  0.25500000000E-02 0.  1.
    8880023    1    1    2    0    0 -0.55917184998E+03  0.22111510407E+03  0.27852515852E+03  0.93431874499E+03  0.65864270000E+03 0.  0.
    8880022    1    1    2    0    0  0.55917184998E+03 -0.22111510407E+03  0.97201819024E+03  0.11531591660E+04  0.15294330000E+03 0.  0.
<mgrwt>
<rscale>  0 0.81449986E+03</rscale>
<asrwt>0</asrwt>
<pdfrwt beam="1">  1        2 0.25677087E+00 0.89183813E+03</pdfrwt>
<pdfrwt beam="2">  1       -2 0.64379581E-01 0.89183813E+03</pdfrwt>
<totfact> 0.22977613E+01</totfact>
</mgrwt>
</event>
<event>
 4    1  0.3565372E-007  0.1086040E+04  0.7818608E-02  0.9276760E-01
          2   -1    0    0  501    0  0.00000000000E+00  0.00000000000E+00  0.14104963708E+04  0.14104963708E+04  0.25500000000E-02 0. -1.
         -2   -1    0    0    0  501 -0.00000000000E+00 -0.00000000000E+00 -0.81587466751E+03  0.81587466751E+03  0.25500000000E-02 0.  1.
    8880023    1    1    2    0    0 -0.73003014528E+03  0.46122630666E+03  0.77094649061E+03  0.13318567553E+04  0.65864270000E+03 0.  0.
    8880022    1    1    2    0    0  0.73003014528E+03 -0.46122630666E+03 -0.17632478728E+03  0.89451428306E+03  0.15294330000E+03 0.  0.
<mgrwt>
<rscale>  0 0.10295085E+04</rscale>
<asrwt>0</asrwt>
<pdfrwt beam="1">  1        2 0.21699944E+00 0.10860405E+04</pdfrwt>
<pdfrwt beam="2">  1       -2 0.12551918E+00 0.10860405E+04</pdfrwt>
<totfact> 0.66681809E+00</totfact>
</mgrwt>
</event>
<event>
 4    1  0.3565372E-007  0.6645701E+03  0.7818608E-02  0.1019897E+00
          2   -1    0    0  501    0  0.00000000000E+00  0.00000000000E+00  0.13849761839E+03  0.13849761841E+03  0.25500000000E-02 0. -1.
         -2   -1    0    0    0  501 -0.00000000000E+00 -0.00000000000E+00 -0.17730863347E+04  0.17730863347E+04  0.25500000000E-02 0.  1.
    8880023    1    1    2    0    0  0.44502604179E+02 -0.76568707501E+02 -0.71897830614E+03  0.97907265293E+03  0.65864270000E+03 0. -1.
    8880022    1    1    2    0    0 -0.44502604179E+02  0.76568707501E+02 -0.91561041016E+03  0.93251130018E+03  0.15294330000E+03 0.  0.
<mgrwt>
<rscale>  0 0.47723867E+03</rscale>
<asrwt>0</asrwt>
<pdfrwt beam="1">  1        2 0.21307327E-01 0.66457013E+03</pdfrwt>
<pdfrwt beam="2">  1       -2 0.27278250E+00 0.66457013E+03</pdfrwt>
<totfact> 0.12799508E+01</totfact>
</mgrwt>
</event>
<event>
 4    1  0.3565372E-007  0.7280485E+03  0.7818608E-02  0.9896238E-01
         -2   -1    0    0    0  501 -0.00000000000E+00  0.00000000000E+00  0.41577113041E+03  0.41577113041E+03  0.25500000000E-02 0.  1.
          2   -1    0    0  501    0  0.00000000000E+00 -0.00000000000E+00 -0.13827836592E+04  0.13827836593E+04  0.25500000000E-02 0. -1.
    8880023    1    1    2    0    0  0.82298506003E+02 -0.29911766022E+03 -0.11842238947E+04  0.13901226053E+04  0.65864270000E+03 0. -1.
    8880022    1    1    2    0    0 -0.82298506003E+02  0.29911766022E+03  0.21721136586E+03  0.40843218436E+03  0.15294330000E+03 0.  0.
<mgrwt>
<rscale>  0 0.60443973E+03</rscale>
<asrwt>0</asrwt>
<pdfrwt beam="1">  1        2 0.21273595E+00 0.72804850E+03</pdfrwt>
<pdfrwt beam="2">  1       -2 0.63964790E-01 0.72804850E+03</pdfrwt>
<totfact> 0.34241058E+01</totfact>
</mgrwt>
</event>
<event>
 4    1  0.3565372E-007  0.1028276E+04  0.7818608E-02  0.9345464E-01
          2   -1    0    0  501    0  0.00000000000E+00  0.00000000000E+00  0.15437968168E+04  0.15437968168E+04  0.25500000000E-02 0. -1.
         -2   -1    0    0    0  501 -0.00000000000E+00 -0.00000000000E+00 -0.10840978124E+04  0.10840978124E+04  0.25500000000E-02 0.  1.
    8880023    1    1    2    0    0 -0.27758758243E+02  0.78915821997E+03  0.11680106440E+04  0.15561491945E+04  0.65864270000E+03 0. -1.
    8880022    1    1    2    0    0  0.27758758243E+02 -0.78915821997E+03 -0.70831163969E+03  0.10717454347E+04  0.15294330000E+03 0.  0.
<mgrwt>
<rscale>  0 0.96702938E+03</rscale>
<asrwt>0</asrwt>
<pdfrwt beam="1">  1        2 0.23750720E+00 0.10282760E+04</pdfrwt>
<pdfrwt beam="2">  1       -2 0.16678428E+00 0.10282760E+04</pdfrwt>
<totfact> 0.26666965E+00</totfact>
</mgrwt>
</event>
<event>
 4    1  0.3565372E-007  0.8813045E+03  0.7818608E-02  0.9556736E-01
          2   -1    0    0  501    0  0.00000000000E+00  0.00000000000E+00  0.20896653804E+04  0.20896653804E+04  0.25500000000E-02 0. -1.
         -2   -1    0    0    0  501 -0.00000000000E+00 -0.00000000000E+00 -0.29487106032E+03  0.29487106033E+03  0.25500000000E-02 0.  1.
    8880023    1    1    2    0    0 -0.24875637589E+03  0.53010158330E+03  0.14243485366E+04  0.16749526510E+04  0.65864270000E+03 0.  0.
    8880022    1    1    2    0    0  0.24875637589E+03 -0.53010158330E+03  0.37044578356E+03  0.70958378980E+03  0.15294330000E+03 0.  0.
<mgrwt>
<rscale>  0 0.80227084E+03</rscale>
<asrwt>0</asrwt>
<pdfrwt beam="1">  1        2 0.32148698E+00 0.88130450E+03</pdfrwt>
<pdfrwt beam="2">  1       -2 0.45364779E-01 0.88130450E+03</pdfrwt>
<totfact> 0.27932748E+01</totfact>
</mgrwt>
</event>
