<event>
 4    2  0.4024741E+000  0.1911988E+03  0.7546771E-02  0.1157385E+00
         21   -1    0    0  503  502  0.00000000000E+00  0.00000000000E+00  0.15860224879E+03  0.15860224879E+03  0.00000000000E+00 0.  1.
         21   -1    0    0  501  503 -0.00000000000E+00 -0.00000000000E+00 -0.24556255633E+03  0.24556255633E+03  0.00000000000E+00 0. -1.
          6    1    1    2  501    0  0.80158244376E+02  0.14234714250E+02 -0.93538183486E+02  0.21285291401E+03  0.17300000000E+03 0.  1.
         -6    1    1    2    0  502 -0.80158244376E+02 -0.14234714250E+02  0.65778759494E+01  0.19131189112E+03  0.17300000000E+03 0.  1.
<mgrwt>
<rscale>  2 0.19119877E+03</rscale>
<asrwt>0</asrwt>
<pdfrwt beam="1">  1       21 0.24400346E-01 0.19119877E+03</pdfrwt>
<pdfrwt beam="2">  1       21 0.37778855E-01 0.19119877E+03</pdfrwt>
<totfact> 0.10726074E+05</totfact>
</mgrwt>
</event>
<event>
 4    2  0.4024741E+000  0.2807448E+03  0.7546771E-02  0.1095283E+00
         21   -1    0    0  501  502  0.00000000000E+00  0.00000000000E+00  0.34869237199E+03  0.34869237199E+03  0.00000000000E+00 0. -1.
         21   -1    0    0  502  503 -0.00000000000E+00 -0.00000000000E+00 -0.23139472154E+03  0.23139472154E+03  0.00000000000E+00 0.  1.
          6    1    1    2  501    0 -0.21727435931E+03 -0.40993988796E+02  0.10277988883E+03  0.29896715519E+03  0.17300000000E+03 0. -1.
         -6    1    1    2    0  503  0.21727435931E+03  0.40993988796E+02  0.14517761616E+02  0.28111993835E+03  0.17300000000E+03 0.  1.
<mgrwt>
<rscale>  2 0.28074482E+03</rscale>
<asrwt>0</asrwt>
<pdfrwt beam="1">  1       21 0.53644980E-01 0.28074482E+03</pdfrwt>
<pdfrwt beam="2">  1       21 0.35599188E-01 0.28074482E+03</pdfrwt>
<totfact> 0.23951054E+04</totfact>
</mgrwt>
</event>
<event>
 4    2  0.4024741E+000  0.1903636E+03  0.7546771E-02  0.1158134E+00
         21   -1    0    0  503  502  0.00000000000E+00  0.00000000000E+00  0.85837033755E+03  0.85837033755E+03  0.00000000000E+00 0.  1.
         21   -1    0    0  501  503 -0.00000000000E+00 -0.00000000000E+00 -0.45167546748E+02  0.45167546748E+02  0.00000000000E+00 0.  1.
          6    1    1    2  501    0  0.40818745411E+02 -0.68140478700E+02  0.29114614110E+03  0.34785682441E+03  0.17300000000E+03 0.  1.
         -6    1    1    2    0  502 -0.40818745411E+02  0.68140478700E+02  0.52205664970E+03  0.55568105988E+03  0.17300000000E+03 0.  1.
<mgrwt>
<rscale>  2 0.19036359E+03</rscale>
<asrwt>0</asrwt>
<pdfrwt beam="1">  1       21 0.13205696E+00 0.19036359E+03</pdfrwt>
<pdfrwt beam="2">  1       21 0.69488540E-02 0.19036359E+03</pdfrwt>
<totfact> 0.63716777E+04</totfact>
</mgrwt>
</event>
<event>
 4    2  0.4024741E+000  0.2073935E+03  0.7546771E-02  0.1143647E+00
         21   -1    0    0  503  502  0.00000000000E+00  0.00000000000E+00  0.80682354849E+02  0.80682354849E+02  0.00000000000E+00 0.  1.
         21   -1    0    0  501  503 -0.00000000000E+00 -0.00000000000E+00 -0.14626764604E+04  0.14626764604E+04  0.00000000000E+00 0. -1.
          6    1    1    2  501    0  0.69492295232E+02  0.90850783707E+02 -0.13061803301E+04  0.13225426643E+04  0.17300000000E+03 0. -1.
         -6    1    1    2    0  502 -0.69492295232E+02 -0.90850783707E+02 -0.75813775446E+02  0.22081615100E+03  0.17300000000E+03 0.  1.
<mgrwt>
<rscale>  2 0.20739345E+03</rscale>
<asrwt>0</asrwt>
<pdfrwt beam="1">  1       21 0.12412671E-01 0.20739345E+03</pdfrwt>
<pdfrwt beam="2">  1       21 0.22502713E+00 0.20739345E+03</pdfrwt>
<totfact> 0.51046733E+03</totfact>
</mgrwt>
</event>
<event>
 4    2  0.4024741E+000  0.2010513E+03  0.7546771E-02  0.1148855E+00
         21   -1    0    0  503  502  0.00000000000E+00  0.00000000000E+00  0.33995774815E+03  0.33995774815E+03  0.00000000000E+00 0. -1.
         21   -1    0    0  501  503 -0.00000000000E+00 -0.00000000000E+00 -0.18319442446E+03  0.18319442446E+03  0.00000000000E+00 0. -1.
          6    1    1    2  501    0 -0.10242980563E+03  0.87717143047E+00 -0.76579201935E+02  0.21514183387E+03  0.17300000000E+03 0. -1.
         -6    1    1    2    0  502  0.10242980563E+03 -0.87717143047E+00  0.23334252562E+03  0.30801033874E+03  0.17300000000E+03 0. -1.
<mgrwt>
<rscale>  2 0.20105132E+03</rscale>
<asrwt>0</asrwt>
<pdfrwt beam="1">  1       21 0.52301192E-01 0.20105132E+03</pdfrwt>
<pdfrwt beam="2">  1       21 0.28183758E-01 0.20105132E+03</pdfrwt>
<totfact> 0.41542963E+04</totfact>
</mgrwt>
</event>
<event>
 4    2  0.4024741E+000  0.2163119E+03  0.7546771E-02  0.1136663E+00
         21   -1    0    0  503  502  0.00000000000E+00  0.00000000000E+00  0.62349379075E+03  0.62349379075E+03  0.00000000000E+00 0. -1.
         21   -1    0    0  501  503 -0.00000000000E+00 -0.00000000000E+00 -0.76514565054E+02  0.76514565054E+02  0.00000000000E+00 0. -1.
          6    1    1    2  501    0  0.14259695621E+02  0.12906785697E+03  0.32197552895E+03  0.38789056687E+03  0.17300000000E+03 0. -1.
         -6    1    1    2    0  502 -0.14259695621E+02 -0.12906785697E+03  0.22500369675E+03  0.31211778894E+03  0.17300000000E+03 0. -1.
<mgrwt>
<rscale>  2 0.21631193E+03</rscale>
<asrwt>0</asrwt>
<pdfrwt beam="1">  1       21 0.95922118E-01 0.21631193E+03</pdfrwt>
<pdfrwt beam="2">  1       21 0.11771472E-01 0.21631193E+03</pdfrwt>
<totfact> 0.54368180E+04</totfact>
</mgrwt>
</event>
<event>
 4    2  0.4024741E+000  0.2131499E+03  0.7546771E-02  0.1139096E+00
         21   -1    0    0  503  502  0.00000000000E+00  0.00000000000E+00  0.56316776752E+03  0.56316776752E+03  0.00000000000E+00 0.  1.
         21   -1    0    0  501  503 -0.00000000000E+00 -0.00000000000E+00 -0.81323655070E+02  0.81323655070E+02  0.00000000000E+00 0.  1.
          6    1    1    2  501    0  0.92720037090E+02  0.83107680355E+02  0.26972800799E+03  0.34378203866E+03  0.17300000000E+03 0.  1.
         -6    1    1    2    0  502 -0.92720037090E+02 -0.83107680355E+02  0.21211610446E+03  0.30070938393E+03  0.17300000000E+03 0.  1.
<mgrwt>
<rscale>  2 0.21314993E+03</rscale>
<asrwt>0</asrwt>
<pdfrwt beam="1">  1       21 0.86641192E-01 0.21314993E+03</pdfrwt>
<pdfrwt beam="2">  1       21 0.12511332E-01 0.21314993E+03</pdfrwt>
<totfact> 0.61851429E+04</totfact>
</mgrwt>
</event>
<event>
 4    2  0.4024741E+000  0.1827966E+03  0.7546771E-02  0.1165124E+00
         21   -1    0    0  503  502  0.00000000000E+00  0.00000000000E+00  0.86447034656E+02  0.86447034656E+02  0.00000000000E+00 0.  1.
         21   -1    0    0  501  503 -0.00000000000E+00 -0.00000000000E+00 -0.38653420965E+03  0.38653420965E+03  0.00000000000E+00 0.  1.
          6    1    1    2  501    0  0.39848166945E+01  0.58904433519E+02 -0.14958588203E+03  0.23620022683E+03  0.17300000000E+03 0.  1.
         -6    1    1    2    0  502 -0.39848166945E+01 -0.58904433519E+02 -0.15050129297E+03  0.23678101748E+03  0.17300000000E+03 0.  1.
<mgrwt>
<rscale>  2 0.18279664E+03</rscale>
<asrwt>0</asrwt>
<pdfrwt beam="1">  1       21 0.13299544E-01 0.18279664E+03</pdfrwt>
<pdfrwt beam="2">  1       21 0.59466801E-01 0.18279664E+03</pdfrwt>
<totfact> 0.12930234E+05</totfact>
</mgrwt>
</event>
<event>
 4    2  0.4024741E+000  0.2342195E+03  0.7546771E-02  0.1123705E+00
         21   -1    0    0  501  502  0.00000000000E+00  0.00000000000E+00  0.47181459725E+02  0.47181459725E+02  0.00000000000E+00 0.  1.
         21   -1    0    0  502  503 -0.00000000000E+00 -0.00000000000E+00 -0.21036707682E+04  0.21036707682E+04  0.00000000000E+00 0. -1.
          6    1    1    2  501    0 -0.54916182624E+02  0.14803380357E+03 -0.30900221934E+03  0.38773852745E+03  0.17300000000E+03 0.  1.
         -6    1    1    2    0  503  0.54916182624E+02 -0.14803380357E+03 -0.17474870891E+04  0.17631137004E+04  0.17300000000E+03 0. -1.
<mgrwt>
<rscale>  2 0.23421954E+03</rscale>
<asrwt>0</asrwt>
<pdfrwt beam="1">  1       21 0.72586867E-02 0.23421954E+03</pdfrwt>
<pdfrwt beam="2">  1       21 0.32364163E+00 0.23421954E+03</pdfrwt>
<totfact> 0.33757118E+03</totfact>
</mgrwt>
</event>
<event>
 4    2  0.4024741E+000  0.2699706E+03  0.7546771E-02  0.1101296E+00
         21   -1    0    0  501  502  0.00000000000E+00  0.00000000000E+00  0.29584048579E+03  0.29584048579E+03  0.00000000000E+00 0.  1.
         21   -1    0    0  502  503 -0.00000000000E+00 -0.00000000000E+00 -0.24791421211E+03  0.24791421211E+03  0.00000000000E+00 0. -1.
          6    1    1    2  501    0  0.18321497715E+03  0.96888633065E+02  0.45469391477E+02  0.27377289974E+03  0.17300000000E+03 0. -1.
         -6    1    1    2    0  503 -0.18321497715E+03 -0.96888633065E+02  0.24568821984E+01  0.26998179817E+03  0.17300000000E+03 0.  1.
<mgrwt>
<rscale>  2 0.26997062E+03</rscale>
<asrwt>0</asrwt>
<pdfrwt beam="1">  1       21 0.45513921E-01 0.26997062E+03</pdfrwt>
<pdfrwt beam="2">  1       21 0.38140648E-01 0.26997062E+03</pdfrwt>
<totfact> 0.29568410E+04</totfact>
</mgrwt>
</event>
<event>
 4    2  0.4024741E+000  0.1755776E+03  0.7546771E-02  0.1172153E+00
         21   -1    0    0  503  502  0.00000000000E+00  0.00000000000E+00  0.28810428369E+02  0.28810428369E+02  0.00000000000E+00 0.  1.
         21   -1    0    0  501  503 -0.00000000000E+00 -0.00000000000E+00 -0.11943995864E+04  0.11943995864E+04  0.00000000000E+00 0.  1.
          6    1    1    2  501    0 -0.28319792433E+02  0.98219586631E+01 -0.78016683181E+03  0.79967979028E+03  0.17300000000E+03 0.  1.
         -6    1    1    2    0  502  0.28319792433E+02 -0.98219586631E+01 -0.38542232626E+03  0.42353022454E+03  0.17300000000E+03 0.  1.
<mgrwt>
<rscale>  2 0.17557757E+03</rscale>
<asrwt>0</asrwt>
<pdfrwt beam="1">  1       21 0.44323734E-02 0.17557757E+03</pdfrwt>
<pdfrwt beam="2">  1       21 0.18375379E+00 0.17557757E+03</pdfrwt>
<totfact> 0.57192766E+04</totfact>
</mgrwt>
</event>
<event>
 4    2  0.4024741E+000  0.2009151E+03  0.7546771E-02  0.1148969E+00
         21   -1    0    0  503  502  0.00000000000E+00  0.00000000000E+00  0.52637187773E+03  0.52637187773E+03  0.00000000000E+00 0. -1.
         21   -1    0    0  501  503 -0.00000000000E+00 -0.00000000000E+00 -0.79902972945E+02  0.79902972945E+02  0.00000000000E+00 0.  1.
          6    1    1    2  501    0 -0.10185257685E+03  0.79956816081E+01  0.28403201999E+03  0.34790956686E+03  0.17300000000E+03 0. -1.
         -6    1    1    2    0  502  0.10185257685E+03 -0.79956816081E+01  0.16243688479E+03  0.25836528381E+03  0.17300000000E+03 0.  1.
<mgrwt>
<rscale>  2 0.20091510E+03</rscale>
<asrwt>0</asrwt>
<pdfrwt beam="1">  1       21 0.80980287E-01 0.20091510E+03</pdfrwt>
<pdfrwt beam="2">  1       21 0.12292765E-01 0.20091510E+03</pdfrwt>
<totfact> 0.74916969E+04</totfact>
</mgrwt>
</event>
<event>
 4    2  0.4024741E+000  0.2016986E+03  0.7546771E-02  0.1148314E+00
         21   -1    0    0  503  502  0.00000000000E+00  0.00000000000E+00  0.18627501626E+03  0.18627501626E+03  0.00000000000E+00 0. -1.
         21   -1    0    0  501  503 -0.00000000000E+00 -0.00000000000E+00 -0.23092766926E+03  0.23092766926E+03  0.00000000000E+00 0. -1.
          6    1    1    2  501    0 -0.60397378351E+02 -0.84293949351E+02 -0.70914239189E+02  0.21380164295E+03  0.17300000000E+03 0. -1.
         -6    1    1    2    0  502  0.60397378351E+02  0.84293949351E+02  0.26261586187E+02  0.20340104257E+03  0.17300000000E+03 0. -1.
<mgrwt>
<rscale>  2 0.20169857E+03</rscale>
<asrwt>0</asrwt>
<pdfrwt beam="1">  1       21 0.28657695E-01 0.20169857E+03</pdfrwt>
<pdfrwt beam="2">  1       21 0.35527334E-01 0.20169857E+03</pdfrwt>
<totfact> 0.88643319E+04</totfact>
</mgrwt>
</event>
<event>
 4    2  0.4024741E+000  0.2569102E+03  0.7546771E-02  0.1109014E+00
         21   -1    0    0  503  502  0.00000000000E+00  0.00000000000E+00  0.54591081673E+03  0.54591081673E+03  0.00000000000E+00 0. -1.
         21   -1    0    0  501  503 -0.00000000000E+00 -0.00000000000E+00 -0.28167973612E+03  0.28167973612E+03  0.00000000000E+00 0. -1.
          6    1    1    2  501    0 -0.16508103103E+03 -0.93926189585E+02 -0.18050520576E+03  0.31398249187E+03  0.17300000000E+03 0. -1.
         -6    1    1    2    0  502  0.16508103103E+03  0.93926189585E+02  0.44473628637E+03  0.51360806098E+03  0.17300000000E+03 0. -1.
<mgrwt>
<rscale>  2 0.25691025E+03</rscale>
<asrwt>0</asrwt>
<pdfrwt beam="1">  1       21 0.83986280E-01 0.25691025E+03</pdfrwt>
<pdfrwt beam="2">  1       21 0.43335344E-01 0.25691025E+03</pdfrwt>
<totfact> 0.60370023E+03</totfact>
</mgrwt>
</event>
<event>
 4    2  0.4024741E+000  0.1961125E+03  0.7546771E-02  0.1153061E+00
         21   -1    0    0  503  502  0.00000000000E+00  0.00000000000E+00  0.10338025407E+04  0.10338025407E+04  0.00000000000E+00 0.  1.
         21   -1    0    0  501  503 -0.00000000000E+00 -0.00000000000E+00 -0.60096886660E+02  0.60096886660E+02  0.00000000000E+00 0.  1.
          6    1    1    2  501    0  0.85472727127E+02  0.35007283545E+02  0.14926608116E+03  0.24645579719E+03  0.17300000000E+03 0.  1.
         -6    1    1    2    0  502 -0.85472727127E+02 -0.35007283545E+02  0.82443957286E+03  0.84744363015E+03  0.17300000000E+03 0.  1.
<mgrwt>
<rscale>  2 0.19611246E+03</rscale>
<asrwt>0</asrwt>
<pdfrwt beam="1">  1       21 0.15904653E+00 0.19611246E+03</pdfrwt>
<pdfrwt beam="2">  1       21 0.92456757E-02 0.19611246E+03</pdfrwt>
<totfact> 0.23776507E+04</totfact>
</mgrwt>
</event>
<event>
 4    2  0.4024741E+000  0.1773102E+03  0.7546771E-02  0.1170432E+00
         21   -1    0    0  501  502  0.00000000000E+00  0.00000000000E+00  0.33085297563E+03  0.33085297563E+03  0.00000000000E+00 0. -1.
         21   -1    0    0  502  503 -0.00000000000E+00 -0.00000000000E+00 -0.12791207547E+03  0.12791207547E+03  0.00000000000E+00 0. -1.
          6    1    1    2  501    0  0.31219407033E+02 -0.23135647675E+02  0.21778259278E+03  0.28083476866E+03  0.17300000000E+03 0. -1.
         -6    1    1    2    0  503 -0.31219407033E+02  0.23135647675E+02 -0.14841692617E+02  0.17793028244E+03  0.17300000000E+03 0. -1.
<mgrwt>
<rscale>  2 0.17731021E+03</rscale>
<asrwt>0</asrwt>
<pdfrwt beam="1">  1       21 0.50900457E-01 0.17731021E+03</pdfrwt>
<pdfrwt beam="2">  1       21 0.19678781E-01 0.17731021E+03</pdfrwt>
<totfact> 0.87874113E+04</totfact>
</mgrwt>
</event>
<event>
 4    2  0.4024741E+000  0.2082378E+03  0.7546771E-02  0.1142969E+00
         21   -1    0    0  503  502  0.00000000000E+00  0.00000000000E+00  0.67728387841E+03  0.67728387841E+03  0.00000000000E+00 0.  1.
         21   -1    0    0  501  503 -0.00000000000E+00 -0.00000000000E+00 -0.15445025957E+03  0.15445025957E+03  0.00000000000E+00 0. -1.
          6    1    1    2  501    0  0.10745947832E+03 -0.43433305820E+02 -0.56787075792E+02  0.21584198737E+03  0.17300000000E+03 0. -1.
         -6    1    1    2    0  502 -0.10745947832E+03  0.43433305820E+02  0.57962069463E+03  0.61589215061E+03  0.17300000000E+03 0.  1.
<mgrwt>
<rscale>  2 0.20823782E+03</rscale>
<asrwt>0</asrwt>
<pdfrwt beam="1">  1       21 0.10419752E+00 0.20823782E+03</pdfrwt>
<pdfrwt beam="2">  1       21 0.23761579E-01 0.20823782E+03</pdfrwt>
<totfact> 0.12286583E+04</totfact>
</mgrwt>
</event>
<event>
 4    2  0.4024741E+000  0.3112581E+03  0.7546771E-02  0.1079744E+00
         21   -1    0    0  501  502  0.00000000000E+00  0.00000000000E+00  0.14470684867E+04  0.14470684867E+04  0.00000000000E+00 0.  1.
         21   -1    0    0  502  503 -0.00000000000E+00 -0.00000000000E+00 -0.95384744569E+02  0.95384744569E+02  0.00000000000E+00 0. -1.
          6    1    1    2  501    0  0.20179743336E+03  0.16195798392E+03  0.10969225626E+04  0.11402283548E+04  0.17300000000E+03 0.  1.
         -6    1    1    2    0  503 -0.20179743336E+03 -0.16195798392E+03  0.25476117946E+03  0.40222487644E+03  0.17300000000E+03 0. -1.
<mgrwt>
<rscale>  2 0.31125808E+03</rscale>
<asrwt>0</asrwt>
<pdfrwt beam="1">  1       21 0.22262591E+00 0.31125808E+03</pdfrwt>
<pdfrwt beam="2">  1       21 0.14674577E-01 0.31125808E+03</pdfrwt>
<totfact> 0.36012717E+03</totfact>
</mgrwt>
</event>
<event>
 4    2  0.4024741E+000  0.1821433E+03  0.7546771E-02  0.1165745E+00
         21   -1    0    0  503  502  0.00000000000E+00  0.00000000000E+00  0.32145778704E+03  0.32145778704E+03  0.00000000000E+00 0. -1.
         21   -1    0    0  501  503 -0.00000000000E+00 -0.00000000000E+00 -0.21375920234E+03  0.21375920234E+03  0.00000000000E+00 0. -1.
          6    1    1    2  501    0  0.20111900954E+02  0.53316860850E+02 -0.13860355777E+03  0.22888233317E+03  0.17300000000E+03 0. -1.
         -6    1    1    2    0  502 -0.20111900954E+02 -0.53316860850E+02  0.24630214247E+03  0.30633465621E+03  0.17300000000E+03 0. -1.
<mgrwt>
<rscale>  2 0.18214328E+03</rscale>
<asrwt>0</asrwt>
<pdfrwt beam="1">  1       21 0.49455044E-01 0.18214328E+03</pdfrwt>
<pdfrwt beam="2">  1       21 0.32886031E-01 0.18214328E+03</pdfrwt>
<totfact> 0.34889539E+04</totfact>
</mgrwt>
</event>
<event>
 4    2  0.4024741E+000  0.1974140E+03  0.7546771E-02  0.1151939E+00
         21   -1    0    0  501  502  0.00000000000E+00  0.00000000000E+00  0.13299714124E+03  0.13299714124E+03  0.00000000000E+00 0.  1.
         21   -1    0    0  502  503 -0.00000000000E+00 -0.00000000000E+00 -0.40783173505E+03  0.40783173505E+03  0.00000000000E+00 0.  1.
          6    1    1    2  501    0  0.89040245551E+02  0.33393278704E+02  0.60529443341E+01  0.19750674552E+03  0.17300000000E+03 0.  1.
         -6    1    1    2    0  503 -0.89040245551E+02 -0.33393278704E+02 -0.28088753814E+03  0.34332213076E+03  0.17300000000E+03 0.  1.
<mgrwt>
<rscale>  2 0.19741397E+03</rscale>
<asrwt>0</asrwt>
<pdfrwt beam="1">  1       21 0.20461099E-01 0.19741397E+03</pdfrwt>
<pdfrwt beam="2">  1       21 0.62743343E-01 0.19741397E+03</pdfrwt>
<totfact> 0.51932012E+04</totfact>
</mgrwt>
</event>
<event>
 4    2  0.4024741E+000  0.1871051E+03  0.7546771E-02  0.1161099E+00
         21   -1    0    0  503  502  0.00000000000E+00  0.00000000000E+00  0.12676132040E+03  0.12676132040E+03  0.00000000000E+00 0.  1.
         21   -1    0    0  501  503 -0.00000000000E+00 -0.00000000000E+00 -0.46333444439E+03  0.46333444439E+03  0.00000000000E+00 0.  1.
          6    1    1    2  501    0 -0.63728252240E+02 -0.31906495373E+02 -0.35580804062E+03  0.40200457255E+03  0.17300000000E+03 0.  1.
         -6    1    1    2    0  502  0.63728252240E+02  0.31906495373E+02  0.19234916635E+02  0.18809119224E+03  0.17300000000E+03 0.  1.
<mgrwt>
<rscale>  2 0.18710509E+03</rscale>
<asrwt>0</asrwt>
<pdfrwt beam="1">  1       21 0.19501742E-01 0.18710509E+03</pdfrwt>
<pdfrwt beam="2">  1       21 0.71282222E-01 0.18710509E+03</pdfrwt>
<totfact> 0.43189143E+04</totfact>
</mgrwt>
</event>
<event>
 4    2  0.4024741E+000  0.2398003E+03  0.7546771E-02  0.1119926E+00
         21   -1    0    0  503  502  0.00000000000E+00  0.00000000000E+00  0.22987459482E+03  0.22987459482E+03  0.00000000000E+00 0. -1.
         21   -1    0    0  501  503 -0.00000000000E+00 -0.00000000000E+00 -0.27510223546E+03  0.27510223546E+03  0.00000000000E+00 0.  1.
          6    1    1    2  501    0 -0.15690675357E+03 -0.54364023646E+02 -0.98648112149E+02  0.25929833477E+03  0.17300000000E+03 0.  1.
         -6    1    1    2    0  502  0.15690675357E+03  0.54364023646E+02  0.53420471504E+02  0.24567849551E+03  0.17300000000E+03 0. -1.
<mgrwt>
<rscale>  2 0.23980028E+03</rscale>
<asrwt>0</asrwt>
<pdfrwt beam="1">  1       21 0.35365322E-01 0.23980028E+03</pdfrwt>
<pdfrwt beam="2">  1       21 0.42323421E-01 0.23980028E+03</pdfrwt>
<totfact> 0.40487878E+04</totfact>
</mgrwt>
</event>
<event>
 4    2  0.4024741E+000  0.1780909E+03  0.7546771E-02  0.1169664E+00
         21   -1    0    0  501  502  0.00000000000E+00  0.00000000000E+00  0.24196128714E+03  0.24196128714E+03  0.00000000000E+00 0. -1.
         21   -1    0    0  502  503 -0.00000000000E+00 -0.00000000000E+00 -0.20009161477E+03  0.20009161477E+03  0.00000000000E+00 0. -1.
          6    1    1    2  501    0  0.12590582715E+02  0.40358905078E+02  0.15073937542E+03  0.23332107340E+03  0.17300000000E+03 0. -1.
         -6    1    1    2    0  503 -0.12590582715E+02 -0.40358905078E+02 -0.10886970304E+03  0.20873182851E+03  0.17300000000E+03 0. -1.
<mgrwt>
<rscale>  2 0.17809089E+03</rscale>
<asrwt>0</asrwt>
<pdfrwt beam="1">  1       21 0.37224813E-01 0.17809089E+03</pdfrwt>
<pdfrwt beam="2">  1       21 0.30783326E-01 0.17809089E+03</pdfrwt>
<totfact> 0.70964942E+04</totfact>
</mgrwt>
</event>
<event>
 4    2  0.4024741E+000  0.2145214E+03  0.7546771E-02  0.1138035E+00
         21   -1    0    0  501  502  0.00000000000E+00  0.00000000000E+00  0.78241207797E+03  0.78241207797E+03  0.00000000000E+00 0.  1.
         21   -1    0    0  502  503 -0.00000000000E+00 -0.00000000000E+00 -0.61917993161E+02  0.61917993161E+02  0.00000000000E+00 0. -1.
          6    1    1    2  501    0  0.66786963915E+02 -0.10784212530E+03  0.45471796414E+03  0.50278012038E+03  0.17300000000E+03 0.  1.
         -6    1    1    2    0  503 -0.66786963915E+02  0.10784212530E+03  0.26577612067E+03  0.34154995075E+03  0.17300000000E+03 0. -1.
<mgrwt>
<rscale>  2 0.21452138E+03</rscale>
<asrwt>0</asrwt>
<pdfrwt beam="1">  1       21 0.12037108E+00 0.21452138E+03</pdfrwt>
<pdfrwt beam="2">  1       21 0.95258457E-02 0.21452138E+03</pdfrwt>
<totfact> 0.45794031E+04</totfact>
</mgrwt>
</event>
<event>
 4    2  0.4024741E+000  0.2002760E+03  0.7546771E-02  0.1149506E+00
         21   -1    0    0  503  502  0.00000000000E+00  0.00000000000E+00  0.66766958957E+02  0.66766958957E+02  0.00000000000E+00 0. -1.
         21   -1    0    0  501  503 -0.00000000000E+00 -0.00000000000E+00 -0.60732580306E+03  0.60732580306E+03  0.00000000000E+00 0. -1.
          6    1    1    2  501    0  0.86487976730E+02 -0.51974149011E+02 -0.23521726920E+03  0.30892983996E+03  0.17300000000E+03 0. -1.
         -6    1    1    2    0  502 -0.86487976730E+02  0.51974149011E+02 -0.30534157490E+03  0.36516292206E+03  0.17300000000E+03 0. -1.
<mgrwt>
<rscale>  2 0.20027602E+03</rscale>
<asrwt>0</asrwt>
<pdfrwt beam="1">  1       21 0.10271840E-01 0.20027602E+03</pdfrwt>
<pdfrwt beam="2">  1       21 0.93434740E-01 0.20027602E+03</pdfrwt>
<totfact> 0.74262490E+04</totfact>
</mgrwt>
</event>
<event>
 4    2  0.4024741E+000  0.1790101E+03  0.7546771E-02  0.1168764E+00
         21   -1    0    0  501  502  0.00000000000E+00  0.00000000000E+00  0.43673601192E+03  0.43673601192E+03  0.00000000000E+00 0.  1.
         21   -1    0    0  502  503 -0.00000000000E+00 -0.00000000000E+00 -0.90995104117E+02  0.90995104117E+02  0.00000000000E+00 0.  1.
          6    1    1    2  501    0 -0.23804251546E+00  0.45995401449E+02  0.28898924663E+03  0.33994031577E+03  0.17300000000E+03 0.  1.
         -6    1    1    2    0  503  0.23804251546E+00 -0.45995401449E+02  0.56751661174E+02  0.18779080027E+03  0.17300000000E+03 0.  1.
<mgrwt>
<rscale>  2 0.17901015E+03</rscale>
<asrwt>0</asrwt>
<pdfrwt beam="1">  1       21 0.67190154E-01 0.17901015E+03</pdfrwt>
<pdfrwt beam="2">  1       21 0.13999247E-01 0.17901015E+03</pdfrwt>
<totfact> 0.90649009E+04</totfact>
</mgrwt>
</event>
<event>
 4    2  0.4024741E+000  0.1769444E+03  0.7546771E-02  0.1170793E+00
         21   -1    0    0  503  502  0.00000000000E+00  0.00000000000E+00  0.13643297956E+03  0.13643297956E+03  0.00000000000E+00 0.  1.
         21   -1    0    0  501  503 -0.00000000000E+00 -0.00000000000E+00 -0.27429583492E+03  0.27429583492E+03  0.00000000000E+00 0.  1.
          6    1    1    2  501    0 -0.34330492535E+02 -0.14202979950E+02  0.14074215415E+02  0.17750321376E+03  0.17300000000E+03 0.  1.
         -6    1    1    2    0  502  0.34330492535E+02  0.14202979950E+02 -0.15193707077E+03  0.23322560072E+03  0.17300000000E+03 0.  1.
<mgrwt>
<rscale>  2 0.17694436E+03</rscale>
<asrwt>0</asrwt>
<pdfrwt beam="1">  1       21 0.20989689E-01 0.17694436E+03</pdfrwt>
<pdfrwt beam="2">  1       21 0.42199360E-01 0.17694436E+03</pdfrwt>
<totfact> 0.11460186E+05</totfact>
</mgrwt>
</event>
<event>
 4    2  0.4024741E+000  0.2013593E+03  0.7546771E-02  0.1148597E+00
         21   -1    0    0  503  502  0.00000000000E+00  0.00000000000E+00  0.51551712942E+03  0.51551712942E+03  0.00000000000E+00 0. -1.
         21   -1    0    0  501  503 -0.00000000000E+00 -0.00000000000E+00 -0.91243528023E+02  0.91243528023E+02  0.00000000000E+00 0. -1.
          6    1    1    2  501    0 -0.40680163690E+02 -0.94666221945E+02  0.99428689891E+02  0.22456988593E+03  0.17300000000E+03 0. -1.
         -6    1    1    2    0  502  0.40680163690E+02  0.94666221945E+02  0.32484491151E+03  0.38219077151E+03  0.17300000000E+03 0. -1.
<mgrwt>
<rscale>  2 0.20135930E+03</rscale>
<asrwt>0</asrwt>
<pdfrwt beam="1">  1       21 0.79310326E-01 0.20135930E+03</pdfrwt>
<pdfrwt beam="2">  1       21 0.14037466E-01 0.20135930E+03</pdfrwt>
<totfact> 0.61804273E+04</totfact>
</mgrwt>
</event>
<event>
 4    2  0.4024741E+000  0.2450551E+03  0.7546771E-02  0.1116470E+00
         21   -1    0    0  501  502  0.00000000000E+00  0.00000000000E+00  0.44769932325E+03  0.44769932325E+03  0.00000000000E+00 0.  1.
         21   -1    0    0  502  503 -0.00000000000E+00 -0.00000000000E+00 -0.18634243174E+03  0.18634243174E+03  0.00000000000E+00 0. -1.
          6    1    1    2  501    0  0.51304547017E+02 -0.16580367555E+03  0.29848131711E+03  0.38619051261E+03  0.17300000000E+03 0.  1.
         -6    1    1    2    0  503 -0.51304547017E+02  0.16580367555E+03 -0.37124425590E+02  0.24785124237E+03  0.17300000000E+03 0. -1.
<mgrwt>
<rscale>  2 0.24505513E+03</rscale>
<asrwt>0</asrwt>
<pdfrwt beam="1">  1       21 0.68876818E-01 0.24505513E+03</pdfrwt>
<pdfrwt beam="2">  1       21 0.28668067E-01 0.24505513E+03</pdfrwt>
<totfact> 0.21719479E+04</totfact>
</mgrwt>
</event>
<event>
 4    2  0.4024741E+000  0.2903646E+03  0.7546771E-02  0.1090159E+00
         21   -1    0    0  503  502  0.00000000000E+00  0.00000000000E+00  0.86378482230E+02  0.86378482230E+02  0.00000000000E+00 0.  1.
         21   -1    0    0  501  503 -0.00000000000E+00 -0.00000000000E+00 -0.12388864708E+04  0.12388864708E+04  0.00000000000E+00 0. -1.
          6    1    1    2  501    0  0.16855496814E+03 -0.16115781953E+03 -0.88145192068E+03  0.92804585477E+03  0.17300000000E+03 0. -1.
         -6    1    1    2    0  502 -0.16855496814E+03  0.16115781953E+03 -0.27105606788E+03  0.39721909825E+03  0.17300000000E+03 0.  1.
<mgrwt>
<rscale>  2 0.29036463E+03</rscale>
<asrwt>0</asrwt>
<pdfrwt beam="1">  1       21 0.13288998E-01 0.29036463E+03</pdfrwt>
<pdfrwt beam="2">  1       21 0.19059791E+00 0.29036463E+03</pdfrwt>
<totfact> 0.70417415E+03</totfact>
</mgrwt>
</event>
<event>
 4    2  0.4024741E+000  0.2589620E+03  0.7546771E-02  0.1107768E+00
         21   -1    0    0  501  502  0.00000000000E+00  0.00000000000E+00  0.25187495377E+02  0.25187495377E+02  0.00000000000E+00 0. -1.
         21   -1    0    0  502  503 -0.00000000000E+00 -0.00000000000E+00 -0.27272687314E+04  0.27272687314E+04  0.00000000000E+00 0.  1.
          6    1    1    2  501    0 -0.82698096959E+02 -0.17404986685E+03 -0.11389316307E+04  0.11680011091E+04  0.17300000000E+03 0. -1.
         -6    1    1    2    0  503  0.82698096959E+02  0.17404986685E+03 -0.15631496053E+04  0.15844551177E+04  0.17300000000E+03 0.  1.
<mgrwt>
<rscale>  2 0.25896203E+03</rscale>
<asrwt>0</asrwt>
<pdfrwt beam="1">  1       21 0.38749990E-02 0.25896203E+03</pdfrwt>
<pdfrwt beam="2">  1       21 0.41957984E+00 0.25896203E+03</pdfrwt>
<totfact> 0.24946784E+03</totfact>
</mgrwt>
</event>
<event>
 4    2  0.4024741E+000  0.2275318E+03  0.7546771E-02  0.1128389E+00
         21   -1    0    0  501  502  0.00000000000E+00  0.00000000000E+00  0.43752468376E+03  0.43752468376E+03  0.00000000000E+00 0. -1.
         21   -1    0    0  502  503 -0.00000000000E+00 -0.00000000000E+00 -0.35928405578E+03  0.35928405578E+03  0.00000000000E+00 0.  1.
          6    1    1    2  501    0 -0.10224386617E+03  0.10671408232E+03  0.36538909550E+03  0.43044151129E+03  0.17300000000E+03 0. -1.
         -6    1    1    2    0  503  0.10224386617E+03 -0.10671408232E+03 -0.28714846752E+03  0.36636722825E+03  0.17300000000E+03 0.  1.
<mgrwt>
<rscale>  2 0.22753176E+03</rscale>
<asrwt>0</asrwt>
<pdfrwt beam="1">  1       21 0.67311489E-01 0.22753176E+03</pdfrwt>
<pdfrwt beam="2">  1       21 0.55274470E-01 0.22753176E+03</pdfrwt>
<totfact> 0.60791208E+03</totfact>
</mgrwt>
</event>
<event>
 4    2  0.4024741E+000  0.2163651E+03  0.7546771E-02  0.1136622E+00
         21   -1    0    0  503  502  0.00000000000E+00  0.00000000000E+00  0.83966659749E+03  0.83966659749E+03  0.00000000000E+00 0. -1.
         21   -1    0    0  501  503 -0.00000000000E+00 -0.00000000000E+00 -0.72922363885E+02  0.72922363885E+02  0.00000000000E+00 0.  1.
          6    1    1    2  501    0 -0.52783370977E+02 -0.11873818971E+03  0.16196412010E+03  0.27027063871E+03  0.17300000000E+03 0.  1.
         -6    1    1    2    0  502  0.52783370977E+02  0.11873818971E+03  0.60478011350E+03  0.64231832267E+03  0.17300000000E+03 0. -1.
<mgrwt>
<rscale>  2 0.21636507E+03</rscale>
<asrwt>0</asrwt>
<pdfrwt beam="1">  1       21 0.12917947E+00 0.21636507E+03</pdfrwt>
<pdfrwt beam="2">  1       21 0.11218826E-01 0.21636507E+03</pdfrwt>
<totfact> 0.28658707E+04</totfact>
</mgrwt>
</event>
<event>
 4    2  0.4024741E+000  0.1748758E+03  0.7546771E-02  0.1172856E+00
         21   -1    0    0  501  502  0.00000000000E+00  0.00000000000E+00  0.56708832660E+03  0.56708832660E+03  0.00000000000E+00 0.  1.
         21   -1    0    0  502  503 -0.00000000000E+00 -0.00000000000E+00 -0.54475765478E+02  0.54475765478E+02  0.00000000000E+00 0.  1.
          6    1    1    2  501    0 -0.22872400252E+01  0.25442349712E+02  0.28748995489E+03  0.33649965645E+03  0.17300000000E+03 0.  1.
         -6    1    1    2    0  503  0.22872400252E+01 -0.25442349712E+02  0.22512260623E+03  0.28506443563E+03  0.17300000000E+03 0.  1.
<mgrwt>
<rscale>  2 0.17487580E+03</rscale>
<asrwt>0</asrwt>
<pdfrwt beam="1">  1       21 0.87244354E-01 0.17487580E+03</pdfrwt>
<pdfrwt beam="2">  1       21 0.83808874E-02 0.17487580E+03</pdfrwt>
<totfact> 0.12573420E+05</totfact>
</mgrwt>
</event>
<event>
 4    2  0.4024741E+000  0.1908882E+03  0.7546771E-02  0.1157663E+00
         21   -1    0    0  501  502  0.00000000000E+00  0.00000000000E+00  0.35116451325E+04  0.35116451325E+04  0.00000000000E+00 0.  1.
         21   -1    0    0  502  503 -0.00000000000E+00 -0.00000000000E+00 -0.10386087731E+02  0.10386087731E+02  0.00000000000E+00 0.  1.
          6    1    1    2  501    0  0.21927070045E+02 -0.77643383697E+02  0.18043679405E+04  0.18144370907E+04  0.17300000000E+03 0.  1.
         -6    1    1    2    0  503 -0.21927070045E+02  0.77643383697E+02  0.16968911043E+04  0.17075941296E+04  0.17300000000E+03 0.  1.
<mgrwt>
<rscale>  2 0.19088816E+03</rscale>
<asrwt>0</asrwt>
<pdfrwt beam="1">  1       21 0.54025215E+00 0.19088816E+03</pdfrwt>
<pdfrwt beam="2">  1       21 0.15978625E-02 0.19088816E+03</pdfrwt>
<totfact> 0.17226382E+03</totfact>
</mgrwt>
</event>
<event>
 4    2  0.4024741E+000  0.2432702E+03  0.7546771E-02  0.1117633E+00
         21   -1    0    0  501  502  0.00000000000E+00  0.00000000000E+00  0.63981549741E+02  0.63981549741E+02  0.00000000000E+00 0.  1.
         21   -1    0    0  502  503 -0.00000000000E+00 -0.00000000000E+00 -0.11808984752E+04  0.11808984752E+04  0.00000000000E+00 0. -1.
          6    1    1    2  501    0 -0.11452062216E+03  0.12702914848E+03 -0.26868476127E+03  0.36245258780E+03  0.17300000000E+03 0.  1.
         -6    1    1    2    0  503  0.11452062216E+03 -0.12702914848E+03 -0.84823216422E+03  0.88242743718E+03  0.17300000000E+03 0.  1.
<mgrwt>
<rscale>  2 0.24327017E+03</rscale>
<asrwt>0</asrwt>
<pdfrwt beam="1">  1       21 0.98433145E-02 0.24327017E+03</pdfrwt>
<pdfrwt beam="2">  1       21 0.18167670E+00 0.24327017E+03</pdfrwt>
<totfact> 0.14274390E+04</totfact>
</mgrwt>
</event>
<event>
 4    2  0.4024741E+000  0.2343376E+03  0.7546771E-02  0.1123624E+00
         21   -1    0    0  503  502  0.00000000000E+00  0.00000000000E+00  0.59959236146E+02  0.59959236146E+02  0.00000000000E+00 0.  1.
         21   -1    0    0  501  503 -0.00000000000E+00 -0.00000000000E+00 -0.93334130792E+03  0.93334130792E+03  0.00000000000E+00 0. -1.
          6    1    1    2  501    0  0.15688998354E+03  0.19251634464E+02 -0.36871538614E+03  0.43688113754E+03  0.17300000000E+03 0.  1.
         -6    1    1    2    0  502 -0.15688998354E+03 -0.19251634464E+02 -0.50466668563E+03  0.55641940652E+03  0.17300000000E+03 0.  1.
<mgrwt>
<rscale>  2 0.23433756E+03</rscale>
<asrwt>0</asrwt>
<pdfrwt beam="1">  1       21 0.92244977E-02 0.23433756E+03</pdfrwt>
<pdfrwt beam="2">  1       21 0.14359097E+00 0.23433756E+03</pdfrwt>
<totfact> 0.30596685E+04</totfact>
</mgrwt>
</event>
<event>
 4    2  0.4024741E+000  0.2828744E+03  0.7546771E-02  0.1094129E+00
         21   -1    0    0  503  502  0.00000000000E+00  0.00000000000E+00  0.52209644031E+03  0.52209644031E+03  0.00000000000E+00 0. -1.
         21   -1    0    0  501  503 -0.00000000000E+00 -0.00000000000E+00 -0.25672662718E+03  0.25672662718E+03  0.00000000000E+00 0. -1.
          6    1    1    2  501    0 -0.21193145137E+03  0.71930518478E+02 -0.11452604932E+03  0.30517889105E+03  0.17300000000E+03 0. -1.
         -6    1    1    2    0  502  0.21193145137E+03 -0.71930518478E+02  0.37989586246E+03  0.47364417644E+03  0.17300000000E+03 0. -1.
<mgrwt>
<rscale>  2 0.28287442E+03</rscale>
<asrwt>0</asrwt>
<pdfrwt beam="1">  1       21 0.80322529E-01 0.28287442E+03</pdfrwt>
<pdfrwt beam="2">  1       21 0.39496404E-01 0.28287442E+03</pdfrwt>
<totfact> 0.79714492E+03</totfact>
</mgrwt>
</event>
<event>
 4    2  0.4024741E+000  0.1781948E+03  0.7546771E-02  0.1169562E+00
         21   -1    0    0  503  502  0.00000000000E+00  0.00000000000E+00  0.68063227394E+03  0.68063227394E+03  0.00000000000E+00 0. -1.
         21   -1    0    0  501  503 -0.00000000000E+00 -0.00000000000E+00 -0.50796505740E+02  0.50796505740E+02  0.00000000000E+00 0. -1.
          6    1    1    2  501    0  0.26134564071E+02 -0.33784422316E+02  0.21046522882E+03  0.27576985907E+03  0.17300000000E+03 0. -1.
         -6    1    1    2    0  502 -0.26134564071E+02  0.33784422316E+02  0.41937053938E+03  0.45565892061E+03  0.17300000000E+03 0. -1.
<mgrwt>
<rscale>  2 0.17819484E+03</rscale>
<asrwt>0</asrwt>
<pdfrwt beam="1">  1       21 0.10471265E+00 0.17819484E+03</pdfrwt>
<pdfrwt beam="2">  1       21 0.78148475E-02 0.17819484E+03</pdfrwt>
<totfact> 0.92492420E+04</totfact>
</mgrwt>
</event>
<event>
 4    2  0.4024741E+000  0.1753705E+03  0.7546771E-02  0.1172360E+00
         21   -1    0    0  501  502  0.00000000000E+00  0.00000000000E+00  0.40425212926E+02  0.40425212926E+02  0.00000000000E+00 0. -1.
         21   -1    0    0  502  503 -0.00000000000E+00 -0.00000000000E+00 -0.20304267870E+04  0.20304267870E+04  0.00000000000E+00 0. -1.
          6    1    1    2  501    0 -0.91829593497E+01  0.27230322784E+02 -0.17622246753E+03  0.24861451141E+03  0.17300000000E+03 0. -1.
         -6    1    1    2    0  503  0.91829593497E+01 -0.27230322784E+02 -0.18137791066E+04  0.18222374885E+04  0.17300000000E+03 0. -1.
<mgrwt>
<rscale>  2 0.17537051E+03</rscale>
<asrwt>0</asrwt>
<pdfrwt beam="1">  1       21 0.62192645E-02 0.17537051E+03</pdfrwt>
<pdfrwt beam="2">  1       21 0.31237330E+00 0.17537051E+03</pdfrwt>
<totfact> 0.54865722E+03</totfact>
</mgrwt>
</event>
<event>
 4    2  0.4024741E+000  0.1977277E+03  0.7546771E-02  0.1151670E+00
         21   -1    0    0  501  502  0.00000000000E+00  0.00000000000E+00  0.87356843463E+03  0.87356843463E+03  0.00000000000E+00 0.  1.
         21   -1    0    0  502  503 -0.00000000000E+00 -0.00000000000E+00 -0.18156186489E+03  0.18156186489E+03  0.00000000000E+00 0. -1.
          6    1    1    2  501    0  0.95582954033E+02  0.55810877423E+01  0.80395351554E+03  0.82791153199E+03  0.17300000000E+03 0.  1.
         -6    1    1    2    0  503 -0.95582954033E+02 -0.55810877423E+01 -0.11194694580E+03  0.22721876753E+03  0.17300000000E+03 0. -1.
<mgrwt>
<rscale>  2 0.19772772E+03</rscale>
<asrwt>0</asrwt>
<pdfrwt beam="1">  1       21 0.13439514E+00 0.19772772E+03</pdfrwt>
<pdfrwt beam="2">  1       21 0.27932595E-01 0.19772772E+03</pdfrwt>
<totfact> 0.48433598E+03</totfact>
</mgrwt>
</event>
<event>
 4    2  0.4024741E+000  0.1843437E+03  0.7546771E-02  0.1163664E+00
         21   -1    0    0  501  502  0.00000000000E+00  0.00000000000E+00  0.63925408812E+02  0.63925408812E+02  0.00000000000E+00 0.  1.
         21   -1    0    0  502  503 -0.00000000000E+00 -0.00000000000E+00 -0.53364934531E+03  0.53364934531E+03  0.00000000000E+00 0.  1.
          6    1    1    2  501    0  0.59349932639E+02 -0.23047845630E+02 -0.25338689891E+03  0.31334890814E+03  0.17300000000E+03 0.  1.
         -6    1    1    2    0  503 -0.59349932639E+02  0.23047845630E+02 -0.21633703758E+03  0.28422584598E+03  0.17300000000E+03 0.  1.
<mgrwt>
<rscale>  2 0.18434375E+03</rscale>
<asrwt>0</asrwt>
<pdfrwt beam="1">  1       21 0.98346781E-02 0.18434375E+03</pdfrwt>
<pdfrwt beam="2">  1       21 0.82099901E-01 0.18434375E+03</pdfrwt>
<totfact> 0.10872903E+05</totfact>
</mgrwt>
</event>
<event>
 4    2  0.4024741E+000  0.2485428E+03  0.7546771E-02  0.1114229E+00
         21   -1    0    0  501  502  0.00000000000E+00  0.00000000000E+00  0.11511465519E+04  0.11511465519E+04  0.00000000000E+00 0.  1.
         21   -1    0    0  502  503 -0.00000000000E+00 -0.00000000000E+00 -0.65399626041E+02  0.65399626041E+02  0.00000000000E+00 0.  1.
          6    1    1    2  501    0 -0.16047792314E+03 -0.78047159337E+02  0.80055891996E+03  0.83825300907E+03  0.17300000000E+03 0.  1.
         -6    1    1    2    0  503  0.16047792314E+03  0.78047159337E+02  0.28518800588E+03  0.37829316884E+03  0.17300000000E+03 0.  1.
<mgrwt>
<rscale>  2 0.24854280E+03</rscale>
<asrwt>0</asrwt>
<pdfrwt beam="1">  1       21 0.17709945E+00 0.24854280E+03</pdfrwt>
<pdfrwt beam="2">  1       21 0.10061482E-01 0.24854280E+03</pdfrwt>
<totfact> 0.14716639E+04</totfact>
</mgrwt>
</event>
<event>
 4    2  0.4024741E+000  0.1782971E+03  0.7546771E-02  0.1169461E+00
         21   -1    0    0  501  502  0.00000000000E+00  0.00000000000E+00  0.92776121229E+02  0.92776121229E+02  0.00000000000E+00 0.  1.
         21   -1    0    0  502  503 -0.00000000000E+00 -0.00000000000E+00 -0.43708525645E+03  0.43708525645E+03  0.00000000000E+00 0. -1.
          6    1    1    2  501    0  0.93308776537E+01 -0.42116536356E+02 -0.49010625937E+02  0.18491054423E+03  0.17300000000E+03 0. -1.
         -6    1    1    2    0  503 -0.93308776537E+01  0.42116536356E+02 -0.29529850929E+03  0.34495083345E+03  0.17300000000E+03 0. -1.
<mgrwt>
<rscale>  2 0.17829713E+03</rscale>
<asrwt>0</asrwt>
<pdfrwt beam="1">  1       21 0.14273249E-01 0.17829713E+03</pdfrwt>
<pdfrwt beam="2">  1       21 0.67243886E-01 0.17829713E+03</pdfrwt>
<totfact> 0.87398436E+04</totfact>
</mgrwt>
</event>
<event>
 4    2  0.4024741E+000  0.2103283E+03  0.7546771E-02  0.1141306E+00
         21   -1    0    0  501  502  0.00000000000E+00  0.00000000000E+00  0.28956741989E+03  0.28956741989E+03  0.00000000000E+00 0.  1.
         21   -1    0    0  502  503 -0.00000000000E+00 -0.00000000000E+00 -0.25526412051E+03  0.25526412051E+03  0.00000000000E+00 0. -1.
          6    1    1    2  501    0 -0.11960743372E+03 -0.17532358389E+01 -0.15546433128E+03  0.26154764449E+03  0.17300000000E+03 0. -1.
         -6    1    1    2    0  503  0.11960743372E+03  0.17532358389E+01  0.18976763067E+03  0.28328389592E+03  0.17300000000E+03 0.  1.
<mgrwt>
<rscale>  2 0.21032834E+03</rscale>
<asrwt>0</asrwt>
<pdfrwt beam="1">  1       21 0.44548834E-01 0.21032834E+03</pdfrwt>
<pdfrwt beam="2">  1       21 0.39271403E-01 0.21032834E+03</pdfrwt>
<totfact> 0.29951341E+04</totfact>
</mgrwt>
</event>
<event>
 4    2  0.4024741E+000  0.2279696E+03  0.7546771E-02  0.1128077E+00
         21   -1    0    0  503  502  0.00000000000E+00  0.00000000000E+00  0.99246875289E+03  0.99246875289E+03  0.00000000000E+00 0. -1.
         21   -1    0    0  501  503 -0.00000000000E+00 -0.00000000000E+00 -0.53064129716E+02  0.53064129716E+02  0.00000000000E+00 0. -1.
          6    1    1    2  501    0 -0.13328628687E+03  0.65390428997E+02  0.52972803522E+03  0.57669917095E+03  0.17300000000E+03 0. -1.
         -6    1    1    2    0  502  0.13328628687E+03 -0.65390428997E+02  0.40967658795E+03  0.46883371165E+03  0.17300000000E+03 0. -1.
<mgrwt>
<rscale>  2 0.22796961E+03</rscale>
<asrwt>0</asrwt>
<pdfrwt beam="1">  1       21 0.15268749E+00 0.22796961E+03</pdfrwt>
<pdfrwt beam="2">  1       21 0.81637130E-02 0.22796961E+03</pdfrwt>
<totfact> 0.32354131E+04</totfact>
</mgrwt>
</event>
<event>
 4    2  0.4024741E+000  0.4206081E+03  0.7546771E-02  0.1036869E+00
         21   -1    0    0  503  502  0.00000000000E+00  0.00000000000E+00  0.18656704199E+03  0.18656704199E+03  0.00000000000E+00 0. -1.
         21   -1    0    0  501  503 -0.00000000000E+00 -0.00000000000E+00 -0.10180351177E+04  0.10180351177E+04  0.00000000000E+00 0.  1.
          6    1    1    2  501    0 -0.34984440133E+03  0.15681548855E+03 -0.57343351873E+03  0.71115202523E+03  0.17300000000E+03 0.  1.
         -6    1    1    2    0  502  0.34984440133E+03 -0.15681548855E+03 -0.25803455698E+03  0.49345013445E+03  0.17300000000E+03 0. -1.
<mgrwt>
<rscale>  2 0.42060813E+03</rscale>
<asrwt>0</asrwt>
<pdfrwt beam="1">  1       21 0.28702622E-01 0.42060813E+03</pdfrwt>
<pdfrwt beam="2">  1       21 0.15662079E+00 0.42060813E+03</pdfrwt>
<totfact> 0.26923083E+03</totfact>
</mgrwt>
</event>
<event>
 4    2  0.4024741E+000  0.1853193E+03  0.7546771E-02  0.1162752E+00
         21   -1    0    0  503  502  0.00000000000E+00  0.00000000000E+00  0.18104671971E+04  0.18104671971E+04  0.00000000000E+00 0. -1.
         21   -1    0    0  501  503 -0.00000000000E+00 -0.00000000000E+00 -0.57088014371E+02  0.57088014371E+02  0.00000000000E+00 0. -1.
          6    1    1    2  501    0  0.63569501863E+02 -0.19317845436E+02  0.11366204487E+03  0.21739899071E+03  0.17300000000E+03 0. -1.
         -6    1    1    2    0  502 -0.63569501863E+02  0.19317845436E+02  0.16397171379E+04  0.16501562208E+04  0.17300000000E+03 0. -1.
<mgrwt>
<rscale>  2 0.18531935E+03</rscale>
<asrwt>0</asrwt>
<pdfrwt beam="1">  1       21 0.27853337E+00 0.18531935E+03</pdfrwt>
<pdfrwt beam="2">  1       21 0.87827728E-02 0.18531935E+03</pdfrwt>
<totfact> 0.46651661E+03</totfact>
</mgrwt>
</event>
<event>
 4    2  0.4024741E+000  0.3250408E+03  0.7546771E-02  0.1073352E+00
         21   -1    0    0  501  502  0.00000000000E+00  0.00000000000E+00  0.86545006041E+02  0.86545006041E+02  0.00000000000E+00 0. -1.
         21   -1    0    0  502  503 -0.00000000000E+00 -0.00000000000E+00 -0.13352828673E+04  0.13352828673E+04  0.00000000000E+00 0.  1.
          6    1    1    2  501    0 -0.70251701370E+02  0.26605867120E+03 -0.83255811747E+03  0.89375865704E+03  0.17300000000E+03 0.  1.
         -6    1    1    2    0  503  0.70251701370E+02 -0.26605867120E+03 -0.41617974380E+03  0.52806921631E+03  0.17300000000E+03 0. -1.
<mgrwt>
<rscale>  2 0.32504079E+03</rscale>
<asrwt>0</asrwt>
<pdfrwt beam="1">  1       21 0.13314616E-01 0.32504079E+03</pdfrwt>
<pdfrwt beam="2">  1       21 0.20542814E+00 0.32504079E+03</pdfrwt>
<totfact> 0.54932272E+03</totfact>
</mgrwt>
</event>
<event>
 4    2  0.4024741E+000  0.1787217E+03  0.7546771E-02  0.1169046E+00
         21   -1    0    0  503  502  0.00000000000E+00  0.00000000000E+00  0.36123565193E+03  0.36123565193E+03  0.00000000000E+00 0.  1.
         21   -1    0    0  501  503 -0.00000000000E+00 -0.00000000000E+00 -0.10755310399E+03  0.10755310399E+03  0.00000000000E+00 0.  1.
          6    1    1    2  501    0  0.37604618701E+02  0.24461130787E+02  0.27986629768E+02  0.18089971175E+03  0.17300000000E+03 0. -1.
         -6    1    1    2    0  502 -0.37604618701E+02 -0.24461130787E+02  0.22569591818E+03  0.28788904416E+03  0.17300000000E+03 0. -1.
<mgrwt>
<rscale>  2 0.17872172E+03</rscale>
<asrwt>0</asrwt>
<pdfrwt beam="1">  1       21 0.55574715E-01 0.17872172E+03</pdfrwt>
<pdfrwt beam="2">  1       21 0.16546632E-01 0.17872172E+03</pdfrwt>
<totfact> 0.10057099E+05</totfact>
</mgrwt>
</event>
<event>
 4    2  0.4024741E+000  0.1816882E+03  0.7546771E-02  0.1166179E+00
         21   -1    0    0  503  502  0.00000000000E+00  0.00000000000E+00  0.49562440687E+03  0.49562440687E+03  0.00000000000E+00 0. -1.
         21   -1    0    0  501  503 -0.00000000000E+00 -0.00000000000E+00 -0.12015976330E+03  0.12015976330E+03  0.00000000000E+00 0. -1.
          6    1    1    2  501    0  0.54050138998E+02  0.12655691204E+02 -0.17819801878E+02  0.18255993368E+03  0.17300000000E+03 0. -1.
         -6    1    1    2    0  502 -0.54050138998E+02 -0.12655691204E+02  0.39328444546E+03  0.43322423649E+03  0.17300000000E+03 0. -1.
<mgrwt>
<rscale>  2 0.18168815E+03</rscale>
<asrwt>0</asrwt>
<pdfrwt beam="1">  1       21 0.76249908E-01 0.18168815E+03</pdfrwt>
<pdfrwt beam="2">  1       21 0.18486118E-01 0.18168815E+03</pdfrwt>
<totfact> 0.41175759E+04</totfact>
</mgrwt>
</event>
<event>
 4    2  0.4024741E+000  0.2688361E+03  0.7546771E-02  0.1101948E+00
         21   -1    0    0  503  502  0.00000000000E+00  0.00000000000E+00  0.11869891764E+03  0.11869891764E+03  0.00000000000E+00 0.  1.
         21   -1    0    0  501  503 -0.00000000000E+00 -0.00000000000E+00 -0.11018458067E+04  0.11018458067E+04  0.00000000000E+00 0. -1.
          6    1    1    2  501    0 -0.18610724659E+03 -0.87794926358E+02 -0.89977409766E+03  0.93907735738E+03  0.17300000000E+03 0. -1.
         -6    1    1    2    0  502  0.18610724659E+03  0.87794926358E+02 -0.83372791421E+02  0.28146736698E+03  0.17300000000E+03 0.  1.
<mgrwt>
<rscale>  2 0.26883611E+03</rscale>
<asrwt>0</asrwt>
<pdfrwt beam="1">  1       21 0.18261372E-01 0.26883611E+03</pdfrwt>
<pdfrwt beam="2">  1       21 0.16951474E+00 0.26883611E+03</pdfrwt>
<totfact> 0.55566788E+03</totfact>
</mgrwt>
</event>
<event>
 4    2  0.4024741E+000  0.2858395E+03  0.7546771E-02  0.1092542E+00
         21   -1    0    0  503  502  0.00000000000E+00  0.00000000000E+00  0.20239340434E+03  0.20239340434E+03  0.00000000000E+00 0.  1.
         21   -1    0    0  501  503 -0.00000000000E+00 -0.00000000000E+00 -0.45183502962E+03  0.45183502962E+03  0.00000000000E+00 0. -1.
          6    1    1    2  501    0  0.58606552389E+02 -0.21986470023E+03 -0.17942087279E+02  0.28640204763E+03  0.17300000000E+03 0. -1.
         -6    1    1    2    0  502 -0.58606552389E+02  0.21986470023E+03 -0.23149953800E+03  0.36782638634E+03  0.17300000000E+03 0.  1.
<mgrwt>
<rscale>  2 0.28583949E+03</rscale>
<asrwt>0</asrwt>
<pdfrwt beam="1">  1       21 0.31137447E-01 0.28583949E+03</pdfrwt>
<pdfrwt beam="2">  1       21 0.69513082E-01 0.28583949E+03</pdfrwt>
<totfact> 0.17760073E+04</totfact>
</mgrwt>
</event>
<event>
 4    2  0.4024741E+000  0.1755473E+03  0.7546771E-02  0.1172183E+00
         21   -1    0    0  503  502  0.00000000000E+00  0.00000000000E+00  0.29014894138E+03  0.29014894138E+03  0.00000000000E+00 0.  1.
         21   -1    0    0  501  503 -0.00000000000E+00 -0.00000000000E+00 -0.10657284998E+03  0.10657284998E+03  0.00000000000E+00 0.  1.
          6    1    1    2  501    0 -0.29796430565E+02  0.19828608602E+00  0.10335427570E+03  0.20371296693E+03  0.17300000000E+03 0. -1.
         -6    1    1    2    0  502  0.29796430565E+02 -0.19828608602E+00  0.80221815705E+02  0.19300882443E+03  0.17300000000E+03 0. -1.
<mgrwt>
<rscale>  2 0.17554733E+03</rscale>
<asrwt>0</asrwt>
<pdfrwt beam="1">  1       21 0.44638298E-01 0.17554733E+03</pdfrwt>
<pdfrwt beam="2">  1       21 0.16395823E-01 0.17554733E+03</pdfrwt>
<totfact> 0.16150342E+05</totfact>
</mgrwt>
</event>
<event>
 4    2  0.4024741E+000  0.1813015E+03  0.7546771E-02  0.1166549E+00
         21   -1    0    0  501  502  0.00000000000E+00  0.00000000000E+00  0.77158567766E+02  0.77158567766E+02  0.00000000000E+00 0. -1.
         21   -1    0    0  502  503 -0.00000000000E+00 -0.00000000000E+00 -0.10195042254E+04  0.10195042254E+04  0.00000000000E+00 0. -1.
          6    1    1    2  501    0  0.52406879163E+02 -0.13954897401E+02 -0.52805918472E+02  0.18883507400E+03  0.17300000000E+03 0. -1.
         -6    1    1    2    0  503 -0.52406879163E+02  0.13954897401E+02 -0.88953973914E+03  0.90782771915E+03  0.17300000000E+03 0. -1.
<mgrwt>
<rscale>  2 0.18130146E+03</rscale>
<asrwt>0</asrwt>
<pdfrwt beam="1">  1       21 0.11870550E-01 0.18130146E+03</pdfrwt>
<pdfrwt beam="2">  1       21 0.15684679E+00 0.18130146E+03</pdfrwt>
<totfact> 0.16016694E+04</totfact>
</mgrwt>
</event>
<event>
 4    2  0.4024741E+000  0.1746305E+03  0.7546771E-02  0.1173103E+00
         21   -1    0    0  501  502  0.00000000000E+00  0.00000000000E+00  0.12986629144E+03  0.12986629144E+03  0.00000000000E+00 0.  1.
         21   -1    0    0  502  503 -0.00000000000E+00 -0.00000000000E+00 -0.24019369903E+03  0.24019369903E+03  0.00000000000E+00 0.  1.
          6    1    1    2  501    0  0.23243508888E+02  0.51539802075E+01 -0.82827035157E+02  0.19327737056E+03  0.17300000000E+03 0.  1.
         -6    1    1    2    0  503 -0.23243508888E+02 -0.51539802075E+01 -0.27500372435E+02  0.17678261991E+03  0.17300000000E+03 0.  1.
<mgrwt>
<rscale>  2 0.17463054E+03</rscale>
<asrwt>0</asrwt>
<pdfrwt beam="1">  1       21 0.19979430E-01 0.17463054E+03</pdfrwt>
<pdfrwt beam="2">  1       21 0.36952876E-01 0.17463054E+03</pdfrwt>
<totfact> 0.16426841E+05</totfact>
</mgrwt>
</event>
<event>
 4    2  0.4024741E+000  0.1880854E+03  0.7546771E-02  0.1160200E+00
         21   -1    0    0  501  502  0.00000000000E+00  0.00000000000E+00  0.54142127070E+02  0.54142127070E+02  0.00000000000E+00 0. -1.
         21   -1    0    0  502  503 -0.00000000000E+00 -0.00000000000E+00 -0.86354302384E+03  0.86354302384E+03  0.00000000000E+00 0. -1.
          6    1    1    2  501    0 -0.60254759168E+02  0.42620023881E+02 -0.17834750683E+03  0.25919864126E+03  0.17300000000E+03 0. -1.
         -6    1    1    2    0  503  0.60254759168E+02 -0.42620023881E+02 -0.63105338994E+03  0.65848650965E+03  0.17300000000E+03 0. -1.
<mgrwt>
<rscale>  2 0.18808536E+03</rscale>
<asrwt>0</asrwt>
<pdfrwt beam="1">  1       21 0.83295582E-02 0.18808536E+03</pdfrwt>
<pdfrwt beam="2">  1       21 0.13285277E+00 0.18808536E+03</pdfrwt>
<totfact> 0.45878196E+04</totfact>
</mgrwt>
</event>
<event>
 4    2  0.4024741E+000  0.2059781E+03  0.7546771E-02  0.1144791E+00
         21   -1    0    0  503  502  0.00000000000E+00  0.00000000000E+00  0.23017272604E+03  0.23017272604E+03  0.00000000000E+00 0. -1.
         21   -1    0    0  501  503 -0.00000000000E+00 -0.00000000000E+00 -0.27892259756E+03  0.27892259756E+03  0.00000000000E+00 0.  1.
          6    1    1    2  501    0 -0.11115876379E+03  0.11903340042E+02 -0.17261431910E+03  0.26874274582E+03  0.17300000000E+03 0.  1.
         -6    1    1    2    0  502  0.11115876379E+03 -0.11903340042E+02  0.12386444758E+03  0.24035257778E+03  0.17300000000E+03 0. -1.
<mgrwt>
<rscale>  2 0.20597806E+03</rscale>
<asrwt>0</asrwt>
<pdfrwt beam="1">  1       21 0.35411189E-01 0.20597806E+03</pdfrwt>
<pdfrwt beam="2">  1       21 0.42911169E-01 0.20597806E+03</pdfrwt>
<totfact> 0.39884051E+04</totfact>
</mgrwt>
</event>
<event>
 4    2  0.4024741E+000  0.2798198E+03  0.7546771E-02  0.1095787E+00
         21   -1    0    0  501  502  0.00000000000E+00  0.00000000000E+00  0.19890410374E+03  0.19890410374E+03  0.00000000000E+00 0.  1.
         21   -1    0    0  502  503 -0.00000000000E+00 -0.00000000000E+00 -0.40904817487E+03  0.40904817487E+03  0.00000000000E+00 0. -1.
          6    1    1    2  501    0  0.15393359080E+03  0.15708138997E+03 -0.46099403247E+02  0.28359172843E+03  0.17300000000E+03 0.  1.
         -6    1    1    2    0  503 -0.15393359080E+03 -0.15708138997E+03 -0.16404466789E+03  0.32436055018E+03  0.17300000000E+03 0. -1.
<mgrwt>
<rscale>  2 0.27981979E+03</rscale>
<asrwt>0</asrwt>
<pdfrwt beam="1">  1       21 0.30600632E-01 0.27981979E+03</pdfrwt>
<pdfrwt beam="2">  1       21 0.62930488E-01 0.27981979E+03</pdfrwt>
<totfact> 0.22945970E+04</totfact>
</mgrwt>
</event>
<event>
 4    2  0.4024741E+000  0.2589765E+03  0.7546771E-02  0.1107760E+00
         21   -1    0    0  503  502  0.00000000000E+00  0.00000000000E+00  0.19392298487E+03  0.19392298487E+03  0.00000000000E+00 0. -1.
         21   -1    0    0  501  503 -0.00000000000E+00 -0.00000000000E+00 -0.39658847285E+03  0.39658847285E+03  0.00000000000E+00 0. -1.
          6    1    1    2  501    0 -0.18989027868E+03 -0.32886087503E+02 -0.20693784172E+03  0.33149974815E+03  0.17300000000E+03 0. -1.
         -6    1    1    2    0  502  0.18989027868E+03  0.32886087503E+02  0.42723537311E+01  0.25901170957E+03  0.17300000000E+03 0. -1.
<mgrwt>
<rscale>  2 0.25897647E+03</rscale>
<asrwt>0</asrwt>
<pdfrwt beam="1">  1       21 0.29834305E-01 0.25897647E+03</pdfrwt>
<pdfrwt beam="2">  1       21 0.61013611E-01 0.25897647E+03</pdfrwt>
<totfact> 0.26032274E+04</totfact>
</mgrwt>
</event>
<event>
 4    2  0.4024741E+000  0.2155107E+03  0.7546771E-02  0.1137275E+00
         21   -1    0    0  501  502  0.00000000000E+00  0.00000000000E+00  0.13518731680E+03  0.13518731680E+03  0.00000000000E+00 0.  1.
         21   -1    0    0  502  503 -0.00000000000E+00 -0.00000000000E+00 -0.35620421059E+03  0.35620421059E+03  0.00000000000E+00 0.  1.
          6    1    1    2  501    0 -0.12498627902E+03  0.29904823624E+02 -0.64216553204E+02  0.22487470761E+03  0.17300000000E+03 0.  1.
         -6    1    1    2    0  503  0.12498627902E+03 -0.29904823624E+02 -0.15680034059E+03  0.26651681978E+03  0.17300000000E+03 0.  1.
<mgrwt>
<rscale>  2 0.21551072E+03</rscale>
<asrwt>0</asrwt>
<pdfrwt beam="1">  1       21 0.20798049E-01 0.21551072E+03</pdfrwt>
<pdfrwt beam="2">  1       21 0.54800646E-01 0.21551072E+03</pdfrwt>
<totfact> 0.66748467E+04</totfact>
</mgrwt>
</event>
<event>
 4    2  0.4024741E+000  0.1781744E+03  0.7546771E-02  0.1169582E+00
         21   -1    0    0  503  502  0.00000000000E+00  0.00000000000E+00  0.88666011823E+03  0.88666011823E+03  0.00000000000E+00 0.  1.
         21   -1    0    0  501  503 -0.00000000000E+00 -0.00000000000E+00 -0.46076727426E+02  0.46076727426E+02  0.00000000000E+00 0.  1.
          6    1    1    2  501    0  0.42568288110E+02 -0.22521086080E+01  0.20008649232E+03  0.26791927059E+03  0.17300000000E+03 0.  1.
         -6    1    1    2    0  502 -0.42568288110E+02  0.22521086080E+01  0.64049689848E+03  0.66481757506E+03  0.17300000000E+03 0.  1.
<mgrwt>
<rscale>  2 0.17817444E+03</rscale>
<asrwt>0</asrwt>
<pdfrwt beam="1">  1       21 0.13640924E+00 0.17817444E+03</pdfrwt>
<pdfrwt beam="2">  1       21 0.70887280E-02 0.17817444E+03</pdfrwt>
<totfact> 0.57058878E+04</totfact>
</mgrwt>
</event>
<event>
 4    2  0.4024741E+000  0.2221493E+03  0.7546771E-02  0.1132291E+00
         21   -1    0    0  503  502  0.00000000000E+00  0.00000000000E+00  0.11599892636E+03  0.11599892636E+03  0.00000000000E+00 0.  1.
         21   -1    0    0  501  503 -0.00000000000E+00 -0.00000000000E+00 -0.45698080439E+03  0.45698080439E+03  0.00000000000E+00 0.  1.
          6    1    1    2  501    0  0.10729591779E+03 -0.88931992742E+02 -0.95222538612E+02  0.24169742483E+03  0.17300000000E+03 0.  1.
         -6    1    1    2    0  502 -0.10729591779E+03  0.88931992742E+02 -0.24575933942E+03  0.33128230593E+03  0.17300000000E+03 0.  1.
<mgrwt>
<rscale>  2 0.22214930E+03</rscale>
<asrwt>0</asrwt>
<pdfrwt beam="1">  1       21 0.17845988E-01 0.22214930E+03</pdfrwt>
<pdfrwt beam="2">  1       21 0.70304741E-01 0.22214930E+03</pdfrwt>
<totfact> 0.51622152E+04</totfact>
</mgrwt>
</event>
<event>
 4    2  0.4024741E+000  0.1879271E+03  0.7546771E-02  0.1160344E+00
         21   -1    0    0  503  502  0.00000000000E+00  0.00000000000E+00  0.36271594629E+03  0.36271594629E+03  0.00000000000E+00 0.  1.
         21   -1    0    0  501  503 -0.00000000000E+00 -0.00000000000E+00 -0.14711450652E+03  0.14711450652E+03  0.00000000000E+00 0. -1.
          6    1    1    2  501    0  0.17142796097E+02  0.71370398377E+02 -0.40435092092E+02  0.19222800497E+03  0.17300000000E+03 0. -1.
         -6    1    1    2    0  502 -0.17142796097E+02 -0.71370398377E+02  0.25603653187E+03  0.31760244784E+03  0.17300000000E+03 0.  1.
<mgrwt>
<rscale>  2 0.18792714E+03</rscale>
<asrwt>0</asrwt>
<pdfrwt beam="1">  1       21 0.55802453E-01 0.18792714E+03</pdfrwt>
<pdfrwt beam="2">  1       21 0.22633001E-01 0.18792714E+03</pdfrwt>
<totfact> 0.55466597E+04</totfact>
</mgrwt>
</event>
<event>
 4    2  0.4024741E+000  0.1833300E+03  0.7546771E-02  0.1164619E+00
         21   -1    0    0  503  502  0.00000000000E+00  0.00000000000E+00  0.97135981694E+03  0.97135981694E+03  0.00000000000E+00 0.  1.
         21   -1    0    0  501  503 -0.00000000000E+00 -0.00000000000E+00 -0.43091769500E+02  0.43091769500E+02  0.00000000000E+00 0.  1.
          6    1    1    2  501    0 -0.15583585176E+02 -0.58634940912E+02  0.23897945622E+03  0.30119941056E+03  0.17300000000E+03 0.  1.
         -6    1    1    2    0  502  0.15583585176E+02  0.58634940912E+02  0.68928859122E+03  0.71325217589E+03  0.17300000000E+03 0.  1.
<mgrwt>
<rscale>  2 0.18333004E+03</rscale>
<asrwt>0</asrwt>
<pdfrwt beam="1">  1       21 0.14943996E+00 0.18333004E+03</pdfrwt>
<pdfrwt beam="2">  1       21 0.66295037E-02 0.18333004E+03</pdfrwt>
<totfact> 0.50411142E+04</totfact>
</mgrwt>
</event>
<event>
 4    2  0.4024741E+000  0.2412464E+03  0.7546771E-02  0.1118965E+00
         21   -1    0    0  501  502  0.00000000000E+00  0.00000000000E+00  0.21984582904E+03  0.21984582904E+03  0.00000000000E+00 0.  1.
         21   -1    0    0  502  503 -0.00000000000E+00 -0.00000000000E+00 -0.26797159367E+03  0.26797159367E+03  0.00000000000E+00 0. -1.
          6    1    1    2  501    0 -0.79320168333E+02 -0.14825354978E+03 -0.50888936322E+02  0.24655524324E+03  0.17300000000E+03 0.  1.
         -6    1    1    2    0  503  0.79320168333E+02  0.14825354978E+03  0.27631716975E+01  0.24126217948E+03  0.17300000000E+03 0. -1.
<mgrwt>
<rscale>  2 0.24124636E+03</rscale>
<asrwt>0</asrwt>
<pdfrwt beam="1">  1       21 0.33822435E-01 0.24124636E+03</pdfrwt>
<pdfrwt beam="2">  1       21 0.41226399E-01 0.24124636E+03</pdfrwt>
<totfact> 0.46662958E+04</totfact>
</mgrwt>
</event>
<event>
 4    2  0.4024741E+000  0.1784889E+03  0.7546771E-02  0.1169274E+00
         21   -1    0    0  501  502  0.00000000000E+00  0.00000000000E+00  0.31666532270E+03  0.31666532270E+03  0.00000000000E+00 0.  1.
         21   -1    0    0  502  503 -0.00000000000E+00 -0.00000000000E+00 -0.15155620129E+03  0.15155620129E+03  0.00000000000E+00 0.  1.
          6    1    1    2  501    0  0.12650268394E+02 -0.42062568853E+02  0.21829504439E+03  0.28197697671E+03  0.17300000000E+03 0.  1.
         -6    1    1    2    0  503 -0.12650268394E+02  0.42062568853E+02 -0.53185922982E+02  0.18624454728E+03  0.17300000000E+03 0.  1.
<mgrwt>
<rscale>  2 0.17848890E+03</rscale>
<asrwt>0</asrwt>
<pdfrwt beam="1">  1       21 0.48717742E-01 0.17848890E+03</pdfrwt>
<pdfrwt beam="2">  1       21 0.23316339E-01 0.17848890E+03</pdfrwt>
<totfact> 0.69984881E+04</totfact>
</mgrwt>
</event>
<event>
 4    2  0.4024741E+000  0.1915062E+03  0.7546771E-02  0.1157110E+00
         21   -1    0    0  501  502  0.00000000000E+00  0.00000000000E+00  0.42475354623E+03  0.42475354623E+03  0.00000000000E+00 0.  1.
         21   -1    0    0  502  503 -0.00000000000E+00 -0.00000000000E+00 -0.10526593730E+03  0.10526593730E+03  0.00000000000E+00 0.  1.
          6    1    1    2  501    0  0.52493701954E+02 -0.63166711605E+02  0.27210303557E+03  0.33273816157E+03  0.17300000000E+03 0.  1.
         -6    1    1    2    0  503 -0.52493701954E+02  0.63166711605E+02  0.47384573363E+02  0.19728132196E+03  0.17300000000E+03 0.  1.
<mgrwt>
<rscale>  2 0.19150619E+03</rscale>
<asrwt>0</asrwt>
<pdfrwt beam="1">  1       21 0.65346699E-01 0.19150619E+03</pdfrwt>
<pdfrwt beam="2">  1       21 0.16194760E-01 0.19150619E+03</pdfrwt>
<totfact> 0.73512489E+04</totfact>
</mgrwt>
</event>
<event>
 4    2  0.4024741E+000  0.1778588E+03  0.7546771E-02  0.1169892E+00
         21   -1    0    0  501  502  0.00000000000E+00  0.00000000000E+00  0.80981343504E+03  0.80981343504E+03  0.00000000000E+00 0.  1.
         21   -1    0    0  502  503 -0.00000000000E+00 -0.00000000000E+00 -0.46329771263E+03  0.46329771263E+03  0.00000000000E+00 0.  1.
          6    1    1    2  501    0  0.19662807231E+02  0.36306105528E+02  0.78238694658E+03  0.80234848630E+03  0.17300000000E+03 0.  1.
         -6    1    1    2    0  503 -0.19662807231E+02 -0.36306105528E+02 -0.43587122417E+03  0.47076266138E+03  0.17300000000E+03 0.  1.
<mgrwt>
<rscale>  2 0.17785882E+03</rscale>
<asrwt>0</asrwt>
<pdfrwt beam="1">  1       21 0.12458668E+00 0.17785882E+03</pdfrwt>
<pdfrwt beam="2">  1       21 0.71276571E-01 0.17785882E+03</pdfrwt>
<totfact> 0.87013693E+02</totfact>
</mgrwt>
</event>
<event>
 4    2  0.4024741E+000  0.1973422E+03  0.7546771E-02  0.1152001E+00
         21   -1    0    0  503  502  0.00000000000E+00  0.00000000000E+00  0.74338951287E+02  0.74338951287E+02  0.00000000000E+00 0. -1.
         21   -1    0    0  501  503 -0.00000000000E+00 -0.00000000000E+00 -0.56812560663E+03  0.56812560663E+03  0.00000000000E+00 0. -1.
          6    1    1    2  501    0  0.81680551484E+02 -0.48407043087E+02 -0.15723706645E+03  0.25232409591E+03  0.17300000000E+03 0. -1.
         -6    1    1    2    0  502 -0.81680551484E+02  0.48407043087E+02 -0.33654958890E+03  0.39014046201E+03  0.17300000000E+03 0. -1.
<mgrwt>
<rscale>  2 0.19734223E+03</rscale>
<asrwt>0</asrwt>
<pdfrwt beam="1">  1       21 0.11436761E-01 0.19734223E+03</pdfrwt>
<pdfrwt beam="2">  1       21 0.87403944E-01 0.19734223E+03</pdfrwt>
<totfact> 0.71716768E+04</totfact>
</mgrwt>
</event>
<event>
 4    2  0.4024741E+000  0.2165907E+03  0.7546771E-02  0.1136451E+00
         21   -1    0    0  501  502  0.00000000000E+00  0.00000000000E+00  0.53865225135E+02  0.53865225135E+02  0.00000000000E+00 0.  1.
         21   -1    0    0  502  503 -0.00000000000E+00 -0.00000000000E+00 -0.17390708929E+04  0.17390708929E+04  0.00000000000E+00 0. -1.
          6    1    1    2  501    0 -0.13028809401E+03 -0.27434374576E+01 -0.20920373039E+03  0.30112740609E+03  0.17300000000E+03 0.  1.
         -6    1    1    2    0  503  0.13028809401E+03  0.27434374576E+01 -0.14760019373E+04  0.14918087119E+04  0.17300000000E+03 0. -1.
<mgrwt>
<rscale>  2 0.21659066E+03</rscale>
<asrwt>0</asrwt>
<pdfrwt beam="1">  1       21 0.82869576E-02 0.21659066E+03</pdfrwt>
<pdfrwt beam="2">  1       21 0.26754937E+00 0.21659066E+03</pdfrwt>
<totfact> 0.57852517E+03</totfact>
</mgrwt>
</event>
<event>
 4    2  0.4024741E+000  0.1736738E+03  0.7546771E-02  0.1174070E+00
         21   -1    0    0  503  502  0.00000000000E+00  0.00000000000E+00  0.27488699736E+02  0.27488699736E+02  0.00000000000E+00 0. -1.
         21   -1    0    0  501  503 -0.00000000000E+00 -0.00000000000E+00 -0.13173440498E+04  0.13173440498E+04  0.00000000000E+00 0. -1.
          6    1    1    2  501    0  0.10210137713E+02 -0.11372783343E+02 -0.91976194287E+03  0.93601528762E+03  0.17300000000E+03 0. -1.
         -6    1    1    2    0  502 -0.10210137713E+02  0.11372783343E+02 -0.37009340715E+03  0.40881746187E+03  0.17300000000E+03 0. -1.
<mgrwt>
<rscale>  2 0.17367380E+03</rscale>
<asrwt>0</asrwt>
<pdfrwt beam="1">  1       21 0.42290315E-02 0.17367380E+03</pdfrwt>
<pdfrwt beam="2">  1       21 0.20266828E+00 0.17367380E+03</pdfrwt>
<totfact> 0.46673270E+04</totfact>
</mgrwt>
</event>
<event>
 4    2  0.4024741E+000  0.2051106E+03  0.7546771E-02  0.1145497E+00
         21   -1    0    0  503  502  0.00000000000E+00  0.00000000000E+00  0.84131572637E+02  0.84131572637E+02  0.00000000000E+00 0. -1.
         21   -1    0    0  501  503 -0.00000000000E+00 -0.00000000000E+00 -0.57297312239E+03  0.57297312239E+03  0.00000000000E+00 0.  1.
          6    1    1    2  501    0  0.11006535173E+03  0.51924114550E+01 -0.36162889300E+03  0.41574727785E+03  0.17300000000E+03 0.  1.
         -6    1    1    2    0  502 -0.11006535173E+03 -0.51924114550E+01 -0.12721265676E+03  0.24135741718E+03  0.17300000000E+03 0. -1.
<mgrwt>
<rscale>  2 0.20511056E+03</rscale>
<asrwt>0</asrwt>
<pdfrwt beam="1">  1       21 0.12943319E-01 0.20511056E+03</pdfrwt>
<pdfrwt beam="2">  1       21 0.88149713E-01 0.20511056E+03</pdfrwt>
<totfact> 0.56125474E+04</totfact>
</mgrwt>
</event>
<event>
 4    2  0.4024741E+000  0.2992044E+03  0.7546771E-02  0.1085639E+00
         21   -1    0    0  501  502  0.00000000000E+00  0.00000000000E+00  0.26330270810E+03  0.26330270810E+03  0.00000000000E+00 0. -1.
         21   -1    0    0  502  503 -0.00000000000E+00 -0.00000000000E+00 -0.51859333655E+03  0.51859333655E+03  0.00000000000E+00 0.  1.
          6    1    1    2  501    0  0.88642258168E+02 -0.22745724331E+03  0.10177753618E+03  0.31604100104E+03  0.17300000000E+03 0. -1.
         -6    1    1    2    0  503 -0.88642258168E+02  0.22745724331E+03 -0.35706816463E+03  0.46585504361E+03  0.17300000000E+03 0.  1.
<mgrwt>
<rscale>  2 0.29920436E+03</rscale>
<asrwt>0</asrwt>
<pdfrwt beam="1">  1       21 0.40508109E-01 0.29920436E+03</pdfrwt>
<pdfrwt beam="2">  1       21 0.79783590E-01 0.29920436E+03</pdfrwt>
<totfact> 0.76269601E+03</totfact>
</mgrwt>
</event>
<event>
 4    2  0.4024741E+000  0.2097619E+03  0.7546771E-02  0.1141755E+00
         21   -1    0    0  501  502  0.00000000000E+00  0.00000000000E+00  0.28163981893E+03  0.28163981893E+03  0.00000000000E+00 0. -1.
         21   -1    0    0  502  503 -0.00000000000E+00 -0.00000000000E+00 -0.65189270114E+03  0.65189270114E+03  0.00000000000E+00 0. -1.
          6    1    1    2  501    0 -0.66197974651E+02  0.98432152698E+02  0.22188380097E+03  0.30533994443E+03  0.17300000000E+03 0. -1.
         -6    1    1    2    0  503  0.66197974651E+02 -0.98432152698E+02 -0.59213668318E+03  0.62819257565E+03  0.17300000000E+03 0. -1.
<mgrwt>
<rscale>  2 0.20976191E+03</rscale>
<asrwt>0</asrwt>
<pdfrwt beam="1">  1       21 0.43329203E-01 0.20976191E+03</pdfrwt>
<pdfrwt beam="2">  1       21 0.10029118E+00 0.20976191E+03</pdfrwt>
<totfact> 0.41177469E+03</totfact>
</mgrwt>
</event>
<event>
 4    2  0.4024741E+000  0.1914275E+03  0.7546771E-02  0.1157180E+00
         21   -1    0    0  501  502  0.00000000000E+00  0.00000000000E+00  0.10332510009E+04  0.10332510009E+04  0.00000000000E+00 0. -1.
         21   -1    0    0  502  503 -0.00000000000E+00 -0.00000000000E+00 -0.55259592590E+02  0.55259592590E+02  0.00000000000E+00 0.  1.
          6    1    1    2  501    0 -0.80281411178E+02 -0.16442935261E+02  0.81473464826E+03  0.83692115649E+03  0.17300000000E+03 0. -1.
         -6    1    1    2    0  503  0.80281411178E+02  0.16442935261E+02  0.16325676000E+03  0.25158943695E+03  0.17300000000E+03 0.  1.
<mgrwt>
<rscale>  2 0.19142747E+03</rscale>
<asrwt>0</asrwt>
<pdfrwt beam="1">  1       21 0.15896168E+00 0.19142747E+03</pdfrwt>
<pdfrwt beam="2">  1       21 0.85014765E-02 0.19142747E+03</pdfrwt>
<totfact> 0.27668608E+04</totfact>
</mgrwt>
</event>
<event>
 4    2  0.4024741E+000  0.1763621E+03  0.7546771E-02  0.1171371E+00
         21   -1    0    0  501  502  0.00000000000E+00  0.00000000000E+00  0.75085534530E+02  0.75085534530E+02  0.00000000000E+00 0.  1.
         21   -1    0    0  502  503 -0.00000000000E+00 -0.00000000000E+00 -0.50080293464E+03  0.50080293464E+03  0.00000000000E+00 0.  1.
          6    1    1    2  501    0  0.23094443263E+02 -0.25322711517E+02 -0.93147287720E+02  0.19944926733E+03  0.17300000000E+03 0.  1.
         -6    1    1    2    0  503 -0.23094443263E+02  0.25322711517E+02 -0.33257011239E+03  0.37643920185E+03  0.17300000000E+03 0.  1.
<mgrwt>
<rscale>  2 0.17636211E+03</rscale>
<asrwt>0</asrwt>
<pdfrwt beam="1">  1       21 0.11551621E-01 0.17636211E+03</pdfrwt>
<pdfrwt beam="2">  1       21 0.77046605E-01 0.17636211E+03</pdfrwt>
<totfact> 0.94645933E+04</totfact>
</mgrwt>
</event>
<event>
 4    2  0.4024741E+000  0.1819501E+03  0.7546771E-02  0.1165929E+00
         21   -1    0    0  503  502  0.00000000000E+00  0.00000000000E+00  0.14785995839E+03  0.14785995839E+03  0.00000000000E+00 0. -1.
         21   -1    0    0  501  503 -0.00000000000E+00 -0.00000000000E+00 -0.38886667929E+03  0.38886667929E+03  0.00000000000E+00 0. -1.
          6    1    1    2  501    0  0.49251466775E+02 -0.27406873472E+02  0.54288382658E+02  0.18987646559E+03  0.17300000000E+03 0. -1.
         -6    1    1    2    0  502 -0.49251466775E+02  0.27406873472E+02 -0.29529510356E+03  0.34685017209E+03  0.17300000000E+03 0. -1.
<mgrwt>
<rscale>  2 0.18195011E+03</rscale>
<asrwt>0</asrwt>
<pdfrwt beam="1">  1       21 0.22747686E-01 0.18195011E+03</pdfrwt>
<pdfrwt beam="2">  1       21 0.59825643E-01 0.18195011E+03</pdfrwt>
<totfact> 0.47497186E+04</totfact>
</mgrwt>
</event>
<event>
 4    2  0.4024741E+000  0.1789527E+03  0.7546771E-02  0.1168820E+00
         21   -1    0    0  503  502  0.00000000000E+00  0.00000000000E+00  0.20616387096E+02  0.20616387096E+02  0.00000000000E+00 0.  1.
         21   -1    0    0  501  503 -0.00000000000E+00 -0.00000000000E+00 -0.17779629056E+04  0.17779629056E+04  0.00000000000E+00 0.  1.
          6    1    1    2  501    0 -0.40630337359E+02 -0.21077161697E+02 -0.11983227859E+04  0.12116111465E+04  0.17300000000E+03 0.  1.
         -6    1    1    2    0  502  0.40630337359E+02  0.21077161697E+02 -0.55902373256E+03  0.58696814618E+03  0.17300000000E+03 0.  1.
<mgrwt>
<rscale>  2 0.17895271E+03</rscale>
<asrwt>0</asrwt>
<pdfrwt beam="1">  1       21 0.31717509E-02 0.17895271E+03</pdfrwt>
<pdfrwt beam="2">  1       21 0.27353284E+00 0.17895271E+03</pdfrwt>
<totfact> 0.28335792E+04</totfact>
</mgrwt>
</event>
<event>
 4    2  0.4024741E+000  0.2411812E+03  0.7546771E-02  0.1119008E+00
         21   -1    0    0  503  502  0.00000000000E+00  0.00000000000E+00  0.13233180446E+04  0.13233180446E+04  0.00000000000E+00 0.  1.
         21   -1    0    0  501  503 -0.00000000000E+00 -0.00000000000E+00 -0.44225268095E+02  0.44225268095E+02  0.00000000000E+00 0. -1.
          6    1    1    2  501    0  0.15624651052E+03 -0.61858080522E+02  0.69285364773E+03  0.73363108669E+03  0.17300000000E+03 0.  1.
         -6    1    1    2    0  502 -0.15624651052E+03  0.61858080522E+02  0.58623912874E+03  0.63391222598E+03  0.17300000000E+03 0. -1.
<mgrwt>
<rscale>  2 0.24118125E+03</rscale>
<asrwt>0</asrwt>
<pdfrwt beam="1">  1       21 0.20358736E+00 0.24118125E+03</pdfrwt>
<pdfrwt beam="2">  1       21 0.68038884E-02 0.24118125E+03</pdfrwt>
<totfact> 0.19550148E+04</totfact>
</mgrwt>
</event>
<event>
 4    2  0.4024741E+000  0.1851832E+03  0.7546771E-02  0.1162879E+00
         21   -1    0    0  503  502  0.00000000000E+00  0.00000000000E+00  0.50956742927E+03  0.50956742927E+03  0.00000000000E+00 0.  1.
         21   -1    0    0  501  503 -0.00000000000E+00 -0.00000000000E+00 -0.84314844803E+02  0.84314844803E+02  0.00000000000E+00 0.  1.
          6    1    1    2  501    0  0.54177419081E+02  0.37797254891E+02  0.34602725273E+03  0.39246360958E+03  0.17300000000E+03 0.  1.
         -6    1    1    2    0  502 -0.54177419081E+02 -0.37797254891E+02  0.79225331737E+02  0.20141866449E+03  0.17300000000E+03 0.  1.
<mgrwt>
<rscale>  2 0.18518322E+03</rscale>
<asrwt>0</asrwt>
<pdfrwt beam="1">  1       21 0.78394987E-01 0.18518322E+03</pdfrwt>
<pdfrwt beam="2">  1       21 0.12971515E-01 0.18518322E+03</pdfrwt>
<totfact> 0.73706817E+04</totfact>
</mgrwt>
</event>
<event>
 4    2  0.4024741E+000  0.3617492E+03  0.7546771E-02  0.1057893E+00
         21   -1    0    0  501  502  0.00000000000E+00  0.00000000000E+00  0.88298047310E+03  0.88298047310E+03  0.00000000000E+00 0.  1.
         21   -1    0    0  502  503 -0.00000000000E+00 -0.00000000000E+00 -0.27212010658E+03  0.27212010658E+03  0.00000000000E+00 0. -1.
          6    1    1    2  501    0 -0.26964261117E+03 -0.16800704900E+03  0.69516647869E+03  0.78365741199E+03  0.17300000000E+03 0.  1.
         -6    1    1    2    0  503  0.26964261117E+03  0.16800704900E+03 -0.84306112165E+02  0.37144316769E+03  0.17300000000E+03 0. -1.
<mgrwt>
<rscale>  2 0.36174923E+03</rscale>
<asrwt>0</asrwt>
<pdfrwt beam="1">  1       21 0.13584315E+00 0.36174923E+03</pdfrwt>
<pdfrwt beam="2">  1       21 0.41864632E-01 0.36174923E+03</pdfrwt>
<totfact> 0.18920705E+03</totfact>
</mgrwt>
</event>
<event>
 4    2  0.4024741E+000  0.2137038E+03  0.7546771E-02  0.1138666E+00
         21   -1    0    0  503  502  0.00000000000E+00  0.00000000000E+00  0.11669885083E+03  0.11669885083E+03  0.00000000000E+00 0.  1.
         21   -1    0    0  501  503 -0.00000000000E+00 -0.00000000000E+00 -0.45387265607E+03  0.45387265607E+03  0.00000000000E+00 0. -1.
          6    1    1    2  501    0 -0.12251556103E+03 -0.27023497679E+02 -0.27447679226E+03  0.34786037660E+03  0.17300000000E+03 0. -1.
         -6    1    1    2    0  502  0.12251556103E+03  0.27023497679E+02 -0.62697012982E+02  0.22271113030E+03  0.17300000000E+03 0.  1.
<mgrwt>
<rscale>  2 0.21370384E+03</rscale>
<asrwt>0</asrwt>
<pdfrwt beam="1">  1       21 0.17953669E-01 0.21370384E+03</pdfrwt>
<pdfrwt beam="2">  1       21 0.69826564E-01 0.21370384E+03</pdfrwt>
<totfact> 0.52026215E+04</totfact>
</mgrwt>
</event>
<event>
 4    2  0.4024741E+000  0.1823089E+03  0.7546771E-02  0.1165587E+00
         21   -1    0    0  503  502  0.00000000000E+00  0.00000000000E+00  0.42310962170E+03  0.42310962170E+03  0.00000000000E+00 0. -1.
         21   -1    0    0  501  503 -0.00000000000E+00 -0.00000000000E+00 -0.24783202873E+03  0.24783202873E+03  0.00000000000E+00 0. -1.
          6    1    1    2  501    0  0.78355673640E-01 -0.57510975340E+02 -0.18961509829E+03  0.26304068872E+03  0.17300000000E+03 0. -1.
         -6    1    1    2    0  502 -0.78355673640E-01  0.57510975340E+02  0.36489269127E+03  0.40790096171E+03  0.17300000000E+03 0. -1.
<mgrwt>
<rscale>  2 0.18230885E+03</rscale>
<asrwt>0</asrwt>
<pdfrwt beam="1">  1       21 0.65093788E-01 0.18230885E+03</pdfrwt>
<pdfrwt beam="2">  1       21 0.38128004E-01 0.18230885E+03</pdfrwt>
<totfact> 0.14508562E+04</totfact>
</mgrwt>
</event>
<event>
 4    2  0.4024741E+000  0.1996648E+03  0.7546771E-02  0.1150022E+00
         21   -1    0    0  503  502  0.00000000000E+00  0.00000000000E+00  0.45970375988E+02  0.45970375988E+02  0.00000000000E+00 0.  1.
         21   -1    0    0  501  503 -0.00000000000E+00 -0.00000000000E+00 -0.98881486404E+03  0.98881486404E+03  0.00000000000E+00 0.  1.
          6    1    1    2  501    0 -0.17986942512E+02  0.98048428065E+02 -0.65286351923E+03  0.68271282329E+03  0.17300000000E+03 0.  1.
         -6    1    1    2    0  502  0.17986942512E+02 -0.98048428065E+02 -0.28998096882E+03  0.35207241674E+03  0.17300000000E+03 0.  1.
<mgrwt>
<rscale>  2 0.19966478E+03</rscale>
<asrwt>0</asrwt>
<pdfrwt beam="1">  1       21 0.70723658E-02 0.19966478E+03</pdfrwt>
<pdfrwt beam="2">  1       21 0.15212536E+00 0.19966478E+03</pdfrwt>
<totfact> 0.42622379E+04</totfact>
</mgrwt>
</event>
<event>
 4    2  0.4024741E+000  0.2287312E+03  0.7546771E-02  0.1127536E+00
         21   -1    0    0  503  502  0.00000000000E+00  0.00000000000E+00  0.19078643680E+03  0.19078643680E+03  0.00000000000E+00 0. -1.
         21   -1    0    0  501  503 -0.00000000000E+00 -0.00000000000E+00 -0.52234554381E+03  0.52234554381E+03  0.00000000000E+00 0.  1.
          6    1    1    2  501    0  0.20735031887E+02 -0.14818570141E+03 -0.41153008995E+03  0.47082370224E+03  0.17300000000E+03 0.  1.
         -6    1    1    2    0  502 -0.20735031887E+02  0.14818570141E+03  0.79970982945E+02  0.24230827836E+03  0.17300000000E+03 0.  1.
<mgrwt>
<rscale>  2 0.22873116E+03</rscale>
<asrwt>0</asrwt>
<pdfrwt beam="1">  1       21 0.29351760E-01 0.22873116E+03</pdfrwt>
<pdfrwt beam="2">  1       21 0.80360852E-01 0.22873116E+03</pdfrwt>
<totfact> 0.14806092E+04</totfact>
</mgrwt>
</event>
<event>
 4    2  0.4024741E+000  0.1776193E+03  0.7546771E-02  0.1170127E+00
         21   -1    0    0  503  502  0.00000000000E+00  0.00000000000E+00  0.33332746183E+02  0.33332746183E+02  0.00000000000E+00 0.  1.
         21   -1    0    0  501  503 -0.00000000000E+00 -0.00000000000E+00 -0.10514462848E+04  0.10514462848E+04  0.00000000000E+00 0.  1.
          6    1    1    2  501    0 -0.39506675950E+02  0.76697879490E+01 -0.68043414344E+03  0.70323483037E+03  0.17300000000E+03 0. -1.
         -6    1    1    2    0  502  0.39506675950E+02 -0.76697879490E+01 -0.33767939519E+03  0.38154420062E+03  0.17300000000E+03 0. -1.
<mgrwt>
<rscale>  2 0.17761926E+03</rscale>
<asrwt>0</asrwt>
<pdfrwt beam="1">  1       21 0.51281158E-02 0.17761926E+03</pdfrwt>
<pdfrwt beam="2">  1       21 0.16176094E+00 0.17761926E+03</pdfrwt>
<totfact> 0.63496769E+04</totfact>
</mgrwt>
</event>
<event>
 4    2  0.4024741E+000  0.2664755E+03  0.7546771E-02  0.1103314E+00
         21   -1    0    0  501  502  0.00000000000E+00  0.00000000000E+00  0.15317198483E+04  0.15317198483E+04  0.00000000000E+00 0. -1.
         21   -1    0    0  502  503 -0.00000000000E+00 -0.00000000000E+00 -0.30038404988E+03  0.30038404988E+03  0.00000000000E+00 0. -1.
          6    1    1    2  501    0 -0.10908019350E+03  0.17082651678E+03  0.14580707682E+04  0.14822211551E+04  0.17300000000E+03 0. -1.
         -6    1    1    2    0  503  0.10908019350E+03 -0.17082651678E+03 -0.22673496975E+03  0.34988274315E+03  0.17300000000E+03 0. -1.
<mgrwt>
<rscale>  2 0.26647549E+03</rscale>
<asrwt>0</asrwt>
<pdfrwt beam="1">  1       21 0.23564920E+00 0.26647549E+03</pdfrwt>
<pdfrwt beam="2">  1       21 0.46212932E-01 0.26647549E+03</pdfrwt>
<totfact> 0.33353784E+02</totfact>
</mgrwt>
</event>
<event>
 4    2  0.4024741E+000  0.1831759E+03  0.7546771E-02  0.1164764E+00
         21   -1    0    0  503  502  0.00000000000E+00  0.00000000000E+00  0.50786961348E+03  0.50786961348E+03  0.00000000000E+00 0. -1.
         21   -1    0    0  501  503 -0.00000000000E+00 -0.00000000000E+00 -0.12260091366E+03  0.12260091366E+03  0.00000000000E+00 0. -1.
          6    1    1    2  501    0 -0.23507616523E+02  0.55424003920E+02 -0.21429048955E+02  0.18442514033E+03  0.17300000000E+03 0. -1.
         -6    1    1    2    0  502  0.23507616523E+02 -0.55424003920E+02  0.40669774878E+03  0.44604538682E+03  0.17300000000E+03 0. -1.
<mgrwt>
<rscale>  2 0.18317595E+03</rscale>
<asrwt>0</asrwt>
<pdfrwt beam="1">  1       21 0.78133785E-01 0.18317595E+03</pdfrwt>
<pdfrwt beam="2">  1       21 0.18861679E-01 0.18317595E+03</pdfrwt>
<totfact> 0.37528869E+04</totfact>
</mgrwt>
</event>
<event>
 4    2  0.4024741E+000  0.3082170E+03  0.7546771E-02  0.1081204E+00
         21   -1    0    0  501  502  0.00000000000E+00  0.00000000000E+00  0.16848352080E+04  0.16848352080E+04  0.00000000000E+00 0. -1.
         21   -1    0    0  502  503 -0.00000000000E+00 -0.00000000000E+00 -0.86488606914E+02  0.86488606914E+02  0.00000000000E+00 0.  1.
          6    1    1    2  501    0  0.15156163046E+03  0.20517740910E+03  0.13216960642E+04  0.13571581276E+04  0.17300000000E+03 0. -1.
         -6    1    1    2    0  503 -0.15156163046E+03 -0.20517740910E+03  0.27665053687E+03  0.41416568735E+03  0.17300000000E+03 0.  1.
<mgrwt>
<rscale>  2 0.30821696E+03</rscale>
<asrwt>0</asrwt>
<pdfrwt beam="1">  1       21 0.25920539E+00 0.30821696E+03</pdfrwt>
<pdfrwt beam="2">  1       21 0.13305941E-01 0.30821696E+03</pdfrwt>
<totfact> 0.25822301E+03</totfact>
</mgrwt>
</event>
<event>
 4    2  0.4024741E+000  0.1830007E+03  0.7546771E-02  0.1164930E+00
         21   -1    0    0  503  502  0.00000000000E+00  0.00000000000E+00  0.34001684477E+02  0.34001684477E+02  0.00000000000E+00 0. -1.
         21   -1    0    0  501  503 -0.00000000000E+00 -0.00000000000E+00 -0.16804747385E+04  0.16804747385E+04  0.00000000000E+00 0.  1.
          6    1    1    2  501    0  0.40022566756E+02  0.44254248150E+02 -0.13747401647E+04  0.13868668879E+04  0.17300000000E+03 0.  1.
         -6    1    1    2    0  502 -0.40022566756E+02 -0.44254248150E+02 -0.27173288931E+03  0.32760953506E+03  0.17300000000E+03 0.  1.
<mgrwt>
<rscale>  2 0.18300067E+03</rscale>
<asrwt>0</asrwt>
<pdfrwt beam="1">  1       21 0.52310292E-02 0.18300067E+03</pdfrwt>
<pdfrwt beam="2">  1       21 0.25853453E+00 0.18300067E+03</pdfrwt>
<totfact> 0.14900360E+04</totfact>
</mgrwt>
</event>
<event>
 4    2  0.4024741E+000  0.1895383E+03  0.7546771E-02  0.1158878E+00
         21   -1    0    0  501  502  0.00000000000E+00  0.00000000000E+00  0.11837265575E+04  0.11837265575E+04  0.00000000000E+00 0. -1.
         21   -1    0    0  502  503 -0.00000000000E+00 -0.00000000000E+00 -0.30460754246E+02  0.30460754246E+02  0.00000000000E+00 0. -1.
          6    1    1    2  501    0  0.14534257973E+02  0.76056009079E+02  0.61342660517E+03  0.64204124564E+03  0.17300000000E+03 0. -1.
         -6    1    1    2    0  503 -0.14534257973E+02 -0.76056009079E+02  0.53983919808E+03  0.57214606610E+03  0.17300000000E+03 0. -1.
<mgrwt>
<rscale>  2 0.18953828E+03</rscale>
<asrwt>0</asrwt>
<pdfrwt beam="1">  1       21 0.18211174E+00 0.18953828E+03</pdfrwt>
<pdfrwt beam="2">  1       21 0.46862708E-02 0.18953828E+03</pdfrwt>
<totfact> 0.52948490E+04</totfact>
</mgrwt>
</event>
<event>
 4    2  0.4024741E+000  0.2046291E+03  0.7546771E-02  0.1145891E+00
         21   -1    0    0  503  502  0.00000000000E+00  0.00000000000E+00  0.30245325407E+03  0.30245325407E+03  0.00000000000E+00 0.  1.
         21   -1    0    0  501  503 -0.00000000000E+00 -0.00000000000E+00 -0.33678679460E+03  0.33678679460E+03  0.00000000000E+00 0.  1.
          6    1    1    2  501    0 -0.34215375415E+02  0.10379482824E+03 -0.26244774916E+03  0.33279404941E+03  0.17300000000E+03 0.  1.
         -6    1    1    2    0  502  0.34215375415E+02 -0.10379482824E+03  0.22811420863E+03  0.30644599926E+03  0.17300000000E+03 0.  1.
<mgrwt>
<rscale>  2 0.20462907E+03</rscale>
<asrwt>0</asrwt>
<pdfrwt beam="1">  1       21 0.46531270E-01 0.20462907E+03</pdfrwt>
<pdfrwt beam="2">  1       21 0.51813353E-01 0.20462907E+03</pdfrwt>
<totfact> 0.15526807E+04</totfact>
</mgrwt>
</event>
<event>
 4    2  0.4024741E+000  0.2320431E+03  0.7546771E-02  0.1125210E+00
         21   -1    0    0  503  502  0.00000000000E+00  0.00000000000E+00  0.10051718006E+03  0.10051718006E+03  0.00000000000E+00 0. -1.
         21   -1    0    0  501  503 -0.00000000000E+00 -0.00000000000E+00 -0.72396069833E+03  0.72396069833E+03  0.00000000000E+00 0.  1.
          6    1    1    2  501    0  0.53714706700E+02 -0.14501637038E+03 -0.52195732319E+03  0.57121227633E+03  0.17300000000E+03 0.  1.
         -6    1    1    2    0  502 -0.53714706700E+02  0.14501637038E+03 -0.10148619508E+03  0.25326560205E+03  0.17300000000E+03 0. -1.
<mgrwt>
<rscale>  2 0.23204314E+03</rscale>
<asrwt>0</asrwt>
<pdfrwt beam="1">  1       21 0.15464181E-01 0.23204314E+03</pdfrwt>
<pdfrwt beam="2">  1       21 0.11137857E+00 0.23204314E+03</pdfrwt>
<totfact> 0.22983041E+04</totfact>
</mgrwt>
</event>
<event>
 4    2  0.4024741E+000  0.3286477E+03  0.7546771E-02  0.1071737E+00
         21   -1    0    0  501  502  0.00000000000E+00  0.00000000000E+00  0.14911500187E+03  0.14911500187E+03  0.00000000000E+00 0.  1.
         21   -1    0    0  502  503 -0.00000000000E+00 -0.00000000000E+00 -0.87699324275E+03  0.87699324275E+03  0.00000000000E+00 0.  1.
          6    1    1    2  501    0 -0.26056905186E+03 -0.10091620794E+03 -0.14988466954E+03  0.36121285411E+03  0.17300000000E+03 0.  1.
         -6    1    1    2    0  503  0.26056905186E+03  0.10091620794E+03 -0.57799357134E+03  0.66489539051E+03  0.17300000000E+03 0.  1.
<mgrwt>
<rscale>  2 0.32864770E+03</rscale>
<asrwt>0</asrwt>
<pdfrwt beam="1">  1       21 0.22940770E-01 0.32864770E+03</pdfrwt>
<pdfrwt beam="2">  1       21 0.13492204E+00 0.32864770E+03</pdfrwt>
<totfact> 0.64576825E+03</totfact>
</mgrwt>
</event>
<event>
 4    2  0.4024741E+000  0.1817934E+03  0.7546771E-02  0.1166079E+00
         21   -1    0    0  501  502  0.00000000000E+00  0.00000000000E+00  0.25058128267E+03  0.25058128267E+03  0.00000000000E+00 0.  1.
         21   -1    0    0  502  503 -0.00000000000E+00 -0.00000000000E+00 -0.17121504309E+03  0.17121504309E+03  0.00000000000E+00 0.  1.
          6    1    1    2  501    0  0.27753757994E+02  0.48472196889E+02  0.14075816444E+03  0.22991669320E+03  0.17300000000E+03 0.  1.
         -6    1    1    2    0  503 -0.27753757994E+02 -0.48472196889E+02 -0.61391924856E+02  0.19187963256E+03  0.17300000000E+03 0.  1.
<mgrwt>
<rscale>  2 0.18179336E+03</rscale>
<asrwt>0</asrwt>
<pdfrwt beam="1">  1       21 0.38550967E-01 0.18179336E+03</pdfrwt>
<pdfrwt beam="2">  1       21 0.26340776E-01 0.18179336E+03</pdfrwt>
<totfact> 0.89301993E+04</totfact>
</mgrwt>
</event>
<event>
 4    2  0.4024741E+000  0.2704349E+03  0.7546771E-02  0.1101031E+00
         21   -1    0    0  503  502  0.00000000000E+00  0.00000000000E+00  0.29677252590E+03  0.29677252590E+03  0.00000000000E+00 0. -1.
         21   -1    0    0  501  503 -0.00000000000E+00 -0.00000000000E+00 -0.26117811593E+03  0.26117811593E+03  0.00000000000E+00 0. -1.
          6    1    1    2  501    0 -0.15783358069E+03 -0.13525742588E+03 -0.48485211801E+02  0.27474684022E+03  0.17300000000E+03 0. -1.
         -6    1    1    2    0  502  0.15783358069E+03  0.13525742588E+03  0.84079621765E+02  0.28320380161E+03  0.17300000000E+03 0. -1.
<mgrwt>
<rscale>  2 0.27043485E+03</rscale>
<asrwt>0</asrwt>
<pdfrwt beam="1">  1       21 0.45657312E-01 0.27043485E+03</pdfrwt>
<pdfrwt beam="2">  1       21 0.40181249E-01 0.27043485E+03</pdfrwt>
<totfact> 0.26421179E+04</totfact>
</mgrwt>
</event>
<event>
 4    2  0.4024741E+000  0.1854478E+03  0.7546771E-02  0.1162632E+00
         21   -1    0    0  501  502  0.00000000000E+00  0.00000000000E+00  0.74145532055E+03  0.74145532055E+03  0.00000000000E+00 0. -1.
         21   -1    0    0  502  503 -0.00000000000E+00 -0.00000000000E+00 -0.75362006453E+02  0.75362006453E+02  0.00000000000E+00 0. -1.
          6    1    1    2  501    0  0.51752842318E+02 -0.42231896741E+02  0.58630326890E+03  0.61493285236E+03  0.17300000000E+03 0. -1.
         -6    1    1    2    0  503 -0.51752842318E+02  0.42231896741E+02  0.79790045202E+02  0.20188447465E+03  0.17300000000E+03 0. -1.
<mgrwt>
<rscale>  2 0.18544781E+03</rscale>
<asrwt>0</asrwt>
<pdfrwt beam="1">  1       21 0.11407004E+00 0.18544781E+03</pdfrwt>
<pdfrwt beam="2">  1       21 0.11594155E-01 0.18544781E+03</pdfrwt>
<totfact> 0.37462376E+04</totfact>
</mgrwt>
</event>
<event>
 4    2  0.4024741E+000  0.1864736E+03  0.7546771E-02  0.1161681E+00
         21   -1    0    0  501  502  0.00000000000E+00  0.00000000000E+00  0.22838193795E+03  0.22838193795E+03  0.00000000000E+00 0.  1.
         21   -1    0    0  502  503 -0.00000000000E+00 -0.00000000000E+00 -0.15624010179E+03  0.15624010179E+03  0.00000000000E+00 0.  1.
          6    1    1    2  501    0 -0.69575673819E+02  0.16207227508E+01  0.53593793369E+01  0.18655059388E+03  0.17300000000E+03 0.  1.
         -6    1    1    2    0  503  0.69575673819E+02 -0.16207227508E+01  0.66782456824E+02  0.19807144587E+03  0.17300000000E+03 0.  1.
<mgrwt>
<rscale>  2 0.18647359E+03</rscale>
<asrwt>0</asrwt>
<pdfrwt beam="1">  1       21 0.35135683E-01 0.18647359E+03</pdfrwt>
<pdfrwt beam="2">  1       21 0.24036939E-01 0.18647359E+03</pdfrwt>
<totfact> 0.12774624E+05</totfact>
</mgrwt>
</event>
<event>
 4    2  0.4024741E+000  0.2341201E+03  0.7546771E-02  0.1123773E+00
         21   -1    0    0  503  502  0.00000000000E+00  0.00000000000E+00  0.10805482385E+03  0.10805482385E+03  0.00000000000E+00 0.  1.
         21   -1    0    0  501  503 -0.00000000000E+00 -0.00000000000E+00 -0.50965965826E+03  0.50965965826E+03  0.00000000000E+00 0.  1.
          6    1    1    2  501    0 -0.70641243625E+02  0.14104267318E+03 -0.17962295286E+03  0.29508748898E+03  0.17300000000E+03 0.  1.
         -6    1    1    2    0  502  0.70641243625E+02 -0.14104267318E+03 -0.22198188156E+03  0.32262699313E+03  0.17300000000E+03 0.  1.
<mgrwt>
<rscale>  2 0.23412010E+03</rscale>
<asrwt>0</asrwt>
<pdfrwt beam="1">  1       21 0.16623819E-01 0.23412010E+03</pdfrwt>
<pdfrwt beam="2">  1       21 0.78409178E-01 0.23412010E+03</pdfrwt>
<totfact> 0.45858666E+04</totfact>
</mgrwt>
</event>
<event>
 4    2  0.4024741E+000  0.1738169E+03  0.7546771E-02  0.1173925E+00
         21   -1    0    0  503  502  0.00000000000E+00  0.00000000000E+00  0.66965545918E+03  0.66965545918E+03  0.00000000000E+00 0. -1.
         21   -1    0    0  501  503 -0.00000000000E+00 -0.00000000000E+00 -0.46502770550E+02  0.46502770550E+02  0.00000000000E+00 0. -1.
          6    1    1    2  501    0 -0.13685509880E+01  0.16776718789E+02  0.24974545225E+03  0.30427803428E+03  0.17300000000E+03 0. -1.
         -6    1    1    2    0  502  0.13685509880E+01 -0.16776718789E+02  0.37340723638E+03  0.41188019545E+03  0.17300000000E+03 0. -1.
<mgrwt>
<rscale>  2 0.17381695E+03</rscale>
<asrwt>0</asrwt>
<pdfrwt beam="1">  1       21 0.10302391E+00 0.17381695E+03</pdfrwt>
<pdfrwt beam="2">  1       21 0.71542729E-02 0.17381695E+03</pdfrwt>
<totfact> 0.11224141E+05</totfact>
</mgrwt>
</event>
<event>
 4    2  0.4024741E+000  0.2846405E+03  0.7546771E-02  0.1093181E+00
         21   -1    0    0  503  502  0.00000000000E+00  0.00000000000E+00  0.27646463148E+03  0.27646463148E+03  0.00000000000E+00 0.  1.
         21   -1    0    0  501  503 -0.00000000000E+00 -0.00000000000E+00 -0.59066214602E+03  0.59066214602E+03  0.00000000000E+00 0.  1.
          6    1    1    2  501    0  0.13072875224E+03 -0.18439417745E+03 -0.46485182887E+03  0.54507562975E+03  0.17300000000E+03 0.  1.
         -6    1    1    2    0  502 -0.13072875224E+03  0.18439417745E+03  0.15065431434E+03  0.32205114775E+03  0.17300000000E+03 0.  1.
<mgrwt>
<rscale>  2 0.28464051E+03</rscale>
<asrwt>0</asrwt>
<pdfrwt beam="1">  1       21 0.42533021E-01 0.28464051E+03</pdfrwt>
<pdfrwt beam="2">  1       21 0.90871099E-01 0.28464051E+03</pdfrwt>
<totfact> 0.51435519E+03</totfact>
</mgrwt>
</event>
<event>
 4    2  0.4024741E+000  0.1962247E+03  0.7546771E-02  0.1152964E+00
         21   -1    0    0  501  502  0.00000000000E+00  0.00000000000E+00  0.22276356556E+03  0.22276356556E+03  0.00000000000E+00 0. -1.
         21   -1    0    0  502  503 -0.00000000000E+00 -0.00000000000E+00 -0.33354622934E+03  0.33354622934E+03  0.00000000000E+00 0. -1.
          6    1    1    2  501    0 -0.63693261602E+02 -0.67218434607E+02  0.13767865552E+03  0.23970724167E+03  0.17300000000E+03 0. -1.
         -6    1    1    2    0  503  0.63693261602E+02  0.67218434607E+02 -0.24846131930E+03  0.31660255323E+03  0.17300000000E+03 0. -1.
<mgrwt>
<rscale>  2 0.19622474E+03</rscale>
<asrwt>0</asrwt>
<pdfrwt beam="1">  1       21 0.34271318E-01 0.19622474E+03</pdfrwt>
<pdfrwt beam="2">  1       21 0.51314805E-01 0.19622474E+03</pdfrwt>
<totfact> 0.29554864E+04</totfact>
</mgrwt>
</event>
<event>
 4    2  0.4024741E+000  0.1824441E+03  0.7546771E-02  0.1165458E+00
         21   -1    0    0  501  502  0.00000000000E+00  0.00000000000E+00  0.13209937655E+03  0.13209937655E+03  0.00000000000E+00 0. -1.
         21   -1    0    0  502  503 -0.00000000000E+00 -0.00000000000E+00 -0.32504997787E+03  0.32504997787E+03  0.00000000000E+00 0.  1.
          6    1    1    2  501    0  0.11441361938E+02 -0.56797333917E+02  0.11901195933E+02  0.18283183631E+03  0.17300000000E+03 0. -1.
         -6    1    1    2    0  503 -0.11441361938E+02  0.56797333917E+02 -0.20485179726E+03  0.27431751811E+03  0.17300000000E+03 0.  1.
<mgrwt>
<rscale>  2 0.18244408E+03</rscale>
<asrwt>0</asrwt>
<pdfrwt beam="1">  1       21 0.20322981E-01 0.18244408E+03</pdfrwt>
<pdfrwt beam="2">  1       21 0.50007688E-01 0.18244408E+03</pdfrwt>
<totfact> 0.85681399E+04</totfact>
</mgrwt>
</event>
<event>
 4    2  0.4024741E+000  0.1920532E+03  0.7546771E-02  0.1156622E+00
         21   -1    0    0  501  502  0.00000000000E+00  0.00000000000E+00  0.50196903612E+03  0.50196903612E+03  0.00000000000E+00 0. -1.
         21   -1    0    0  502  503 -0.00000000000E+00 -0.00000000000E+00 -0.74796015275E+02  0.74796015275E+02  0.00000000000E+00 0. -1.
          6    1    1    2  501    0 -0.99812676698E+01 -0.82799827359E+02  0.17532680968E+03  0.26004600998E+03  0.17300000000E+03 0. -1.
         -6    1    1    2    0  503  0.99812676698E+01  0.82799827359E+02  0.25184621116E+03  0.31671904141E+03  0.17300000000E+03 0. -1.
<mgrwt>
<rscale>  2 0.19205321E+03</rscale>
<asrwt>0</asrwt>
<pdfrwt beam="1">  1       21 0.77226004E-01 0.19205321E+03</pdfrwt>
<pdfrwt beam="2">  1       21 0.11507080E-01 0.19205321E+03</pdfrwt>
<totfact> 0.94212533E+04</totfact>
</mgrwt>
</event>
<event>
 4    2  0.4024741E+000  0.2233178E+03  0.7546771E-02  0.1131433E+00
         21   -1    0    0  503  502  0.00000000000E+00  0.00000000000E+00  0.45828452682E+03  0.45828452682E+03  0.00000000000E+00 0. -1.
         21   -1    0    0  501  503 -0.00000000000E+00 -0.00000000000E+00 -0.17137544209E+03  0.17137544209E+03  0.00000000000E+00 0. -1.
          6    1    1    2  501    0  0.56962409009E+02  0.12921742909E+03 -0.46754773680E+02  0.22815974422E+03  0.17300000000E+03 0. -1.
         -6    1    1    2    0  502 -0.56962409009E+02 -0.12921742909E+03  0.33366385841E+03  0.40150022469E+03  0.17300000000E+03 0. -1.
<mgrwt>
<rscale>  2 0.22331785E+03</rscale>
<asrwt>0</asrwt>
<pdfrwt beam="1">  1       21 0.70505311E-01 0.22331785E+03</pdfrwt>
<pdfrwt beam="2">  1       21 0.26365453E-01 0.22331785E+03</pdfrwt>
<totfact> 0.24525787E+04</totfact>
</mgrwt>
</event>
<event>
 4    2  0.4024741E+000  0.2061406E+03  0.7546771E-02  0.1144659E+00
         21   -1    0    0  503  502  0.00000000000E+00  0.00000000000E+00  0.15768684565E+03  0.15768684565E+03  0.00000000000E+00 0. -1.
         21   -1    0    0  501  503 -0.00000000000E+00 -0.00000000000E+00 -0.45886087314E+03  0.45886087314E+03  0.00000000000E+00 0. -1.
          6    1    1    2  501    0 -0.88580724934E+02 -0.68690728859E+02 -0.34863048754E+03  0.40501503417E+03  0.17300000000E+03 0. -1.
         -6    1    1    2    0  502  0.88580724934E+02  0.68690728859E+02  0.47456460048E+02  0.21153268462E+03  0.17300000000E+03 0. -1.
<mgrwt>
<rscale>  2 0.20614063E+03</rscale>
<asrwt>0</asrwt>
<pdfrwt beam="1">  1       21 0.24259515E-01 0.20614063E+03</pdfrwt>
<pdfrwt beam="2">  1       21 0.70593980E-01 0.20614063E+03</pdfrwt>
<totfact> 0.28953173E+04</totfact>
</mgrwt>
</event>
<event>
 4    2  0.4024741E+000  0.2040498E+03  0.7546771E-02  0.1146366E+00
         21   -1    0    0  503  502  0.00000000000E+00  0.00000000000E+00  0.84194871009E+02  0.84194871009E+02  0.00000000000E+00 0. -1.
         21   -1    0    0  501  503 -0.00000000000E+00 -0.00000000000E+00 -0.11492825276E+04  0.11492825276E+04  0.00000000000E+00 0. -1.
          6    1    1    2  501    0 -0.71582875412E+02  0.81136987223E+02 -0.99805342507E+03  0.10186986591E+04  0.17300000000E+03 0. -1.
         -6    1    1    2    0  502  0.71582875412E+02 -0.81136987223E+02 -0.67034231510E+02  0.21477873950E+03  0.17300000000E+03 0. -1.
<mgrwt>
<rscale>  2 0.20404979E+03</rscale>
<asrwt>0</asrwt>
<pdfrwt beam="1">  1       21 0.12953057E-01 0.20404979E+03</pdfrwt>
<pdfrwt beam="2">  1       21 0.17681270E+00 0.20404979E+03</pdfrwt>
<totfact> 0.97005484E+03</totfact>
</mgrwt>
</event>
<event>
 4    2  0.4024741E+000  0.3832899E+03  0.7546771E-02  0.1049724E+00
         21   -1    0    0  503  502  0.00000000000E+00  0.00000000000E+00  0.67287528114E+03  0.67287528114E+03  0.00000000000E+00 0.  1.
         21   -1    0    0  501  503 -0.00000000000E+00 -0.00000000000E+00 -0.47686152419E+03  0.47686152419E+03  0.00000000000E+00 0. -1.
          6    1    1    2  501    0  0.21888093362E+03  0.26281790742E+03 -0.32527164655E+03  0.50270544021E+03  0.17300000000E+03 0. -1.
         -6    1    1    2    0  502 -0.21888093362E+03 -0.26281790742E+03  0.52128540349E+03  0.64703136513E+03  0.17300000000E+03 0.  1.
<mgrwt>
<rscale>  2 0.38328986E+03</rscale>
<asrwt>0</asrwt>
<pdfrwt beam="1">  1       21 0.10351927E+00 0.38328986E+03</pdfrwt>
<pdfrwt beam="2">  1       21 0.73363311E-01 0.38328986E+03</pdfrwt>
<totfact> 0.11071218E+03</totfact>
</mgrwt>
</event>
<event>
 4    2  0.4024741E+000  0.1748723E+03  0.7546771E-02  0.1172860E+00
         21   -1    0    0  501  502  0.00000000000E+00  0.00000000000E+00  0.40120398004E+02  0.40120398004E+02  0.00000000000E+00 0.  1.
         21   -1    0    0  502  503 -0.00000000000E+00 -0.00000000000E+00 -0.76444588108E+03  0.76444588108E+03  0.00000000000E+00 0.  1.
          6    1    1    2  501    0 -0.25399267590E+02 -0.24923586603E+01 -0.34042670280E+03  0.38271487379E+03  0.17300000000E+03 0. -1.
         -6    1    1    2    0  503  0.25399267590E+02  0.24923586603E+01 -0.38389878028E+03  0.42185140529E+03  0.17300000000E+03 0. -1.
<mgrwt>
<rscale>  2 0.17487234E+03</rscale>
<asrwt>0</asrwt>
<pdfrwt beam="1">  1       21 0.61723690E-02 0.17487234E+03</pdfrwt>
<pdfrwt beam="2">  1       21 0.11760706E+00 0.17487234E+03</pdfrwt>
<totfact> 0.10505082E+05</totfact>
</mgrwt>
</event>
<event>
 4    2  0.4024741E+000  0.1822472E+03  0.7546771E-02  0.1165646E+00
         21   -1    0    0  503  502  0.00000000000E+00  0.00000000000E+00  0.14720338252E+03  0.14720338252E+03  0.00000000000E+00 0. -1.
         21   -1    0    0  501  503 -0.00000000000E+00 -0.00000000000E+00 -0.34802440913E+03  0.34802440913E+03  0.00000000000E+00 0. -1.
          6    1    1    2  501    0  0.28654815732E+01 -0.57243466229E+02 -0.24725059199E+03  0.30715937337E+03  0.17300000000E+03 0. -1.
         -6    1    1    2    0  502 -0.28654815732E+01  0.57243466229E+02  0.46429565378E+02  0.18806841827E+03  0.17300000000E+03 0. -1.
<mgrwt>
<rscale>  2 0.18224715E+03</rscale>
<asrwt>0</asrwt>
<pdfrwt beam="1">  1       21 0.22646674E-01 0.18224715E+03</pdfrwt>
<pdfrwt beam="2">  1       21 0.53542216E-01 0.18224715E+03</pdfrwt>
<totfact> 0.60612187E+04</totfact>
</mgrwt>
</event>
<event>
 4    2  0.4024741E+000  0.2154724E+03  0.7546771E-02  0.1137304E+00
         21   -1    0    0  503  502  0.00000000000E+00  0.00000000000E+00  0.45341444587E+03  0.45341444587E+03  0.00000000000E+00 0. -1.
         21   -1    0    0  501  503 -0.00000000000E+00 -0.00000000000E+00 -0.14254476092E+03  0.14254476092E+03  0.00000000000E+00 0. -1.
          6    1    1    2  501    0  0.12202369355E+03  0.40119566035E+02  0.31357442578E+03  0.38046981729E+03  0.17300000000E+03 0. -1.
         -6    1    1    2    0  502 -0.12202369355E+03 -0.40119566035E+02 -0.27047408223E+01  0.21548938950E+03  0.17300000000E+03 0. -1.
<mgrwt>
<rscale>  2 0.21547241E+03</rscale>
<asrwt>0</asrwt>
<pdfrwt beam="1">  1       21 0.69756068E-01 0.21547241E+03</pdfrwt>
<pdfrwt beam="2">  1       21 0.21929963E-01 0.21547241E+03</pdfrwt>
<totfact> 0.35829767E+04</totfact>
</mgrwt>
</event>
<event>
 4    2  0.4024741E+000  0.2151149E+03  0.7546771E-02  0.1137578E+00
         21   -1    0    0  503  502  0.00000000000E+00  0.00000000000E+00  0.40272495370E+03  0.40272495370E+03  0.00000000000E+00 0.  1.
         21   -1    0    0  501  503 -0.00000000000E+00 -0.00000000000E+00 -0.11784151367E+03  0.11784151367E+03  0.00000000000E+00 0.  1.
          6    1    1    2  501    0  0.77979709416E+02  0.10131430138E+03  0.18354148644E+03  0.28277535251E+03  0.17300000000E+03 0.  1.
         -6    1    1    2    0  502 -0.77979709416E+02 -0.10131430138E+03  0.10134195359E+03  0.23779111485E+03  0.17300000000E+03 0.  1.
<mgrwt>
<rscale>  2 0.21511491E+03</rscale>
<asrwt>0</asrwt>
<pdfrwt beam="1">  1       21 0.61957685E-01 0.21511491E+03</pdfrwt>
<pdfrwt beam="2">  1       21 0.18129464E-01 0.21511491E+03</pdfrwt>
<totfact> 0.66323680E+04</totfact>
</mgrwt>
</event>
<event>
 4    2  0.4024741E+000  0.3698174E+03  0.7546771E-02  0.1054763E+00
         21   -1    0    0  503  502  0.00000000000E+00  0.00000000000E+00  0.15253678966E+04  0.15253678966E+04  0.00000000000E+00 0. -1.
         21   -1    0    0  501  503 -0.00000000000E+00 -0.00000000000E+00 -0.10463899158E+03  0.10463899158E+03  0.00000000000E+00 0.  1.
          6    1    1    2  501    0 -0.32646536430E+03 -0.16008698366E+02  0.40201022833E+03  0.54623908336E+03  0.17300000000E+03 0.  1.
         -6    1    1    2    0  502  0.32646536430E+03  0.16008698366E+02  0.10187186767E+04  0.10837678048E+04  0.17300000000E+03 0. -1.
<mgrwt>
<rscale>  2 0.36981740E+03</rscale>
<asrwt>0</asrwt>
<pdfrwt beam="1">  1       21 0.23467197E+00 0.36981740E+03</pdfrwt>
<pdfrwt beam="2">  1       21 0.16098307E-01 0.36981740E+03</pdfrwt>
<totfact> 0.24675764E+03</totfact>
</mgrwt>
</event>
<event>
 4    2  0.4024741E+000  0.1741921E+03  0.7546771E-02  0.1173545E+00
         21   -1    0    0  503  502  0.00000000000E+00  0.00000000000E+00  0.80683421419E+02  0.80683421419E+02  0.00000000000E+00 0. -1.
         21   -1    0    0  501  503 -0.00000000000E+00 -0.00000000000E+00 -0.40725657346E+03  0.40725657346E+03  0.00000000000E+00 0. -1.
          6    1    1    2  501    0  0.73958020578E+01  0.18951914424E+02 -0.23079591844E+03  0.28915329657E+03  0.17300000000E+03 0.  1.
         -6    1    1    2    0  502 -0.73958020578E+01 -0.18951914424E+02 -0.95777233599E+02  0.19878669831E+03  0.17300000000E+03 0.  1.
<mgrwt>
<rscale>  2 0.17419206E+03</rscale>
<asrwt>0</asrwt>
<pdfrwt beam="1">  1       21 0.12412834E-01 0.17419206E+03</pdfrwt>
<pdfrwt beam="2">  1       21 0.62654858E-01 0.17419206E+03</pdfrwt>
<totfact> 0.13121966E+05</totfact>
</mgrwt>
</event>
<event>
 4    2  0.4024741E+000  0.1821892E+03  0.7546771E-02  0.1165701E+00
         21   -1    0    0  501  502  0.00000000000E+00  0.00000000000E+00  0.76055866753E+02  0.76055866753E+02  0.00000000000E+00 0. -1.
         21   -1    0    0  502  503 -0.00000000000E+00 -0.00000000000E+00 -0.49378511450E+03  0.49378511450E+03  0.00000000000E+00 0.  1.
          6    1    1    2  501    0 -0.10279437821E+02  0.56198225282E+02 -0.11175808925E+03  0.21373529863E+03  0.17300000000E+03 0. -1.
         -6    1    1    2    0  503  0.10279437821E+02 -0.56198225282E+02 -0.30597115850E+03  0.35610568263E+03  0.17300000000E+03 0.  1.
<mgrwt>
<rscale>  2 0.18218921E+03</rscale>
<asrwt>0</asrwt>
<pdfrwt beam="1">  1       21 0.11700902E-01 0.18218921E+03</pdfrwt>
<pdfrwt beam="2">  1       21 0.75966944E-01 0.18218921E+03</pdfrwt>
<totfact> 0.95244584E+04</totfact>
</mgrwt>
</event>
<event>
 4    2  0.4024741E+000  0.3480068E+03  0.7546771E-02  0.1063436E+00
         21   -1    0    0  501  502  0.00000000000E+00  0.00000000000E+00  0.86162738868E+03  0.86162738868E+03  0.00000000000E+00 0.  1.
         21   -1    0    0  502  503 -0.00000000000E+00 -0.00000000000E+00 -0.17458505169E+03  0.17458505169E+03  0.00000000000E+00 0.  1.
          6    1    1    2  501    0  0.19065284102E+03 -0.23416073325E+03  0.57225292178E+03  0.66976276492E+03  0.17300000000E+03 0.  1.
         -6    1    1    2    0  503 -0.19065284102E+03  0.23416073325E+03  0.11478941521E+03  0.36644967544E+03  0.17300000000E+03 0.  1.
<mgrwt>
<rscale>  2 0.34800683E+03</rscale>
<asrwt>0</asrwt>
<pdfrwt beam="1">  1       21 0.13255806E+00 0.34800683E+03</pdfrwt>
<pdfrwt beam="2">  1       21 0.26859239E-01 0.34800683E+03</pdfrwt>
<totfact> 0.49395764E+03</totfact>
</mgrwt>
</event>
<event>
 4    2  0.4024741E+000  0.2093812E+03  0.7546771E-02  0.1142057E+00
         21   -1    0    0  501  502  0.00000000000E+00  0.00000000000E+00  0.34300030027E+02  0.34300030027E+02  0.00000000000E+00 0.  1.
         21   -1    0    0  502  503 -0.00000000000E+00 -0.00000000000E+00 -0.13980370419E+04  0.13980370419E+04  0.00000000000E+00 0.  1.
          6    1    1    2  501    0 -0.51625829616E+01 -0.11783395109E+03 -0.89159187694E+03  0.91584745855E+03  0.17300000000E+03 0.  1.
         -6    1    1    2    0  503  0.51625829616E+01  0.11783395109E+03 -0.47214513494E+03  0.51648961339E+03  0.17300000000E+03 0.  1.
<mgrwt>
<rscale>  2 0.20938121E+03</rscale>
<asrwt>0</asrwt>
<pdfrwt beam="1">  1       21 0.52769291E-02 0.20938121E+03</pdfrwt>
<pdfrwt beam="2">  1       21 0.21508257E+00 0.20938121E+03</pdfrwt>
<totfact> 0.26150262E+04</totfact>
</mgrwt>
</event>
<event>
 4    2  0.4024741E+000  0.3088054E+03  0.7546771E-02  0.1080920E+00
         21   -1    0    0  503  502  0.00000000000E+00  0.00000000000E+00  0.58359973993E+03  0.58359973993E+03  0.00000000000E+00 0.  1.
         21   -1    0    0  501  503 -0.00000000000E+00 -0.00000000000E+00 -0.16441091627E+03  0.16441091627E+03  0.00000000000E+00 0. -1.
          6    1    1    2  501    0 -0.19265568083E+03  0.16827237762E+03  0.23890648630E+03  0.39043195774E+03  0.17300000000E+03 0.  1.
         -6    1    1    2    0  502  0.19265568083E+03 -0.16827237762E+03  0.18028233736E+03  0.35757869846E+03  0.17300000000E+03 0. -1.
<mgrwt>
<rscale>  2 0.30880545E+03</rscale>
<asrwt>0</asrwt>
<pdfrwt beam="1">  1       21 0.89784575E-01 0.30880545E+03</pdfrwt>
<pdfrwt beam="2">  1       21 0.25293987E-01 0.30880545E+03</pdfrwt>
<totfact> 0.14722855E+04</totfact>
</mgrwt>
</event>
<event>
 4    2  0.4024741E+000  0.2092220E+03  0.7546771E-02  0.1142184E+00
         21   -1    0    0  501  502  0.00000000000E+00  0.00000000000E+00  0.81095454727E+03  0.81095454727E+03  0.00000000000E+00 0.  1.
         21   -1    0    0  502  503 -0.00000000000E+00 -0.00000000000E+00 -0.77395685575E+02  0.77395685575E+02  0.00000000000E+00 0.  1.
          6    1    1    2  501    0 -0.10676600168E+03 -0.49455808722E+02  0.61110341462E+03  0.64592665179E+03  0.17300000000E+03 0.  1.
         -6    1    1    2    0  503  0.10676600168E+03  0.49455808722E+02  0.12245544707E+03  0.24242358105E+03  0.17300000000E+03 0.  1.
<mgrwt>
<rscale>  2 0.20922203E+03</rscale>
<asrwt>0</asrwt>
<pdfrwt beam="1">  1       21 0.12476223E+00 0.20922203E+03</pdfrwt>
<pdfrwt beam="2">  1       21 0.11907029E-01 0.20922203E+03</pdfrwt>
<totfact> 0.28239766E+04</totfact>
</mgrwt>
</event>
<event>
 4    2  0.4024741E+000  0.2022514E+03  0.7546771E-02  0.1147853E+00
         21   -1    0    0  503  502  0.00000000000E+00  0.00000000000E+00  0.12987481488E+03  0.12987481488E+03  0.00000000000E+00 0. -1.
         21   -1    0    0  501  503 -0.00000000000E+00 -0.00000000000E+00 -0.33919561705E+03  0.33919561705E+03  0.00000000000E+00 0. -1.
          6    1    1    2  501    0  0.48651945318E+01  0.10465634037E+03 -0.16734962266E+03  0.26251003010E+03  0.17300000000E+03 0. -1.
         -6    1    1    2    0  502 -0.48651945318E+01 -0.10465634037E+03 -0.41971179500E+02  0.20656040183E+03  0.17300000000E+03 0. -1.
<mgrwt>
<rscale>  2 0.20225138E+03</rscale>
<asrwt>0</asrwt>
<pdfrwt beam="1">  1       21 0.19980741E-01 0.20225138E+03</pdfrwt>
<pdfrwt beam="2">  1       21 0.52183941E-01 0.20225138E+03</pdfrwt>
<totfact> 0.80242950E+04</totfact>
</mgrwt>
</event>
<event>
 4    2  0.4024741E+000  0.2302281E+03  0.7546771E-02  0.1126479E+00
         21   -1    0    0  503  502  0.00000000000E+00  0.00000000000E+00  0.18675409392E+03  0.18675409392E+03  0.00000000000E+00 0. -1.
         21   -1    0    0  501  503 -0.00000000000E+00 -0.00000000000E+00 -0.30123803911E+03  0.30123803911E+03  0.00000000000E+00 0.  1.
          6    1    1    2  501    0  0.14858956272E+03  0.31577446002E+02 -0.11590949588E+03  0.25775958659E+03  0.17300000000E+03 0. -1.
         -6    1    1    2    0  502 -0.14858956272E+03 -0.31577446002E+02  0.14255506861E+01  0.23023254644E+03  0.17300000000E+03 0.  1.
<mgrwt>
<rscale>  2 0.23022813E+03</rscale>
<asrwt>0</asrwt>
<pdfrwt beam="1">  1       21 0.28731399E-01 0.23022813E+03</pdfrwt>
<pdfrwt beam="2">  1       21 0.46344313E-01 0.23022813E+03</pdfrwt>
<totfact> 0.50803412E+04</totfact>
</mgrwt>
</event>
<event>
 4    2  0.4024741E+000  0.1864289E+03  0.7546771E-02  0.1161722E+00
         21   -1    0    0  503  502  0.00000000000E+00  0.00000000000E+00  0.28820929955E+04  0.28820929955E+04  0.00000000000E+00 0.  1.
         21   -1    0    0  501  503 -0.00000000000E+00 -0.00000000000E+00 -0.25001201529E+02  0.25001201529E+02  0.00000000000E+00 0. -1.
          6    1    1    2  501    0 -0.53595329385E+02 -0.44207186548E+02  0.38274406477E+03  0.42573319555E+03  0.17300000000E+03 0. -1.
         -6    1    1    2    0  502  0.53595329385E+02  0.44207186548E+02  0.24743477292E+04  0.24813610015E+04  0.17300000000E+03 0.  1.
<mgrwt>
<rscale>  2 0.18642890E+03</rscale>
<asrwt>0</asrwt>
<pdfrwt beam="1">  1       21 0.44339866E+00 0.18642890E+03</pdfrwt>
<pdfrwt beam="2">  1       21 0.38463410E-02 0.18642890E+03</pdfrwt>
<totfact> 0.19434473E+03</totfact>
</mgrwt>
</event>
<event>
 4    2  0.4024741E+000  0.2436873E+03  0.7546771E-02  0.1117361E+00
         21   -1    0    0  503  502  0.00000000000E+00  0.00000000000E+00  0.50562124814E+02  0.50562124814E+02  0.00000000000E+00 0.  1.
         21   -1    0    0  501  503 -0.00000000000E+00 -0.00000000000E+00 -0.18922604380E+04  0.18922604380E+04  0.00000000000E+00 0. -1.
          6    1    1    2  501    0 -0.73788742476E+02 -0.15495066936E+03 -0.15191405845E+04  0.15385615372E+04  0.17300000000E+03 0. -1.
         -6    1    1    2    0  502  0.73788742476E+02  0.15495066936E+03 -0.32255772870E+03  0.40426102557E+03  0.17300000000E+03 0.  1.
<mgrwt>
<rscale>  2 0.24368728E+03</rscale>
<asrwt>0</asrwt>
<pdfrwt beam="1">  1       21 0.77787884E-02 0.24368728E+03</pdfrwt>
<pdfrwt beam="2">  1       21 0.29111699E+00 0.24368728E+03</pdfrwt>
<totfact> 0.45908634E+03</totfact>
</mgrwt>
</event>
<event>
 4    2  0.4024741E+000  0.2466167E+03  0.7546771E-02  0.1115462E+00
         21   -1    0    0  503  502  0.00000000000E+00  0.00000000000E+00  0.30463421787E+03  0.30463421787E+03  0.00000000000E+00 0. -1.
         21   -1    0    0  501  503 -0.00000000000E+00 -0.00000000000E+00 -0.28303903561E+03  0.28303903561E+03  0.00000000000E+00 0. -1.
          6    1    1    2  501    0 -0.15501717862E+03  0.82827905381E+02 -0.14869515926E+03  0.28797575934E+03  0.17300000000E+03 0. -1.
         -6    1    1    2    0  502  0.15501717862E+03 -0.82827905381E+02  0.17029034152E+03  0.29969749414E+03  0.17300000000E+03 0. -1.
<mgrwt>
<rscale>  2 0.24661668E+03</rscale>
<asrwt>0</asrwt>
<pdfrwt beam="1">  1       21 0.46866803E-01 0.24661668E+03</pdfrwt>
<pdfrwt beam="2">  1       21 0.43544467E-01 0.24661668E+03</pdfrwt>
<totfact> 0.21455178E+04</totfact>
</mgrwt>
</event>
<event>
 4    2  0.4024741E+000  0.2173219E+03  0.7546771E-02  0.1135896E+00
         21   -1    0    0  501  502  0.00000000000E+00  0.00000000000E+00  0.22149910028E+03  0.22149910028E+03  0.00000000000E+00 0.  1.
         21   -1    0    0  502  503 -0.00000000000E+00 -0.00000000000E+00 -0.60962625459E+03  0.60962625459E+03  0.00000000000E+00 0.  1.
          6    1    1    2  501    0 -0.34267981417E+02  0.12698623350E+03  0.14103537854E+03  0.25907484642E+03  0.17300000000E+03 0.  1.
         -6    1    1    2    0  503  0.34267981417E+02 -0.12698623350E+03 -0.52916253285E+03  0.57205050845E+03  0.17300000000E+03 0.  1.
<mgrwt>
<rscale>  2 0.21732188E+03</rscale>
<asrwt>0</asrwt>
<pdfrwt beam="1">  1       21 0.34076785E-01 0.21732188E+03</pdfrwt>
<pdfrwt beam="2">  1       21 0.93788653E-01 0.21732188E+03</pdfrwt>
<totfact> 0.77825670E+03</totfact>
</mgrwt>
</event>
<event>
 4    2  0.4024741E+000  0.1812789E+03  0.7546771E-02  0.1166571E+00
         21   -1    0    0  501  502  0.00000000000E+00  0.00000000000E+00  0.28830791027E+03  0.28830791027E+03  0.00000000000E+00 0.  1.
         21   -1    0    0  502  503 -0.00000000000E+00 -0.00000000000E+00 -0.23297759492E+03  0.23297759492E+03  0.00000000000E+00 0.  1.
          6    1    1    2  501    0  0.51849245855E+02  0.15642967406E+02  0.21393955446E+03  0.28041430008E+03  0.17300000000E+03 0.  1.
         -6    1    1    2    0  503 -0.51849245855E+02 -0.15642967406E+02 -0.15860923911E+03  0.24087120512E+03  0.17300000000E+03 0.  1.
<mgrwt>
<rscale>  2 0.18127892E+03</rscale>
<asrwt>0</asrwt>
<pdfrwt beam="1">  1       21 0.44355063E-01 0.18127892E+03</pdfrwt>
<pdfrwt beam="2">  1       21 0.35842707E-01 0.18127892E+03</pdfrwt>
<totfact> 0.36850211E+04</totfact>
</mgrwt>
</event>
<event>
 4    2  0.4024741E+000  0.2016361E+03  0.7546771E-02  0.1148366E+00
         21   -1    0    0  501  502  0.00000000000E+00  0.00000000000E+00  0.25270518033E+03  0.25270518033E+03  0.00000000000E+00 0.  1.
         21   -1    0    0  502  503 -0.00000000000E+00 -0.00000000000E+00 -0.16242481279E+03  0.16242481279E+03  0.00000000000E+00 0.  1.
          6    1    1    2  501    0  0.52920616040E+02  0.89036709160E+02  0.65332980974E+02  0.21195642378E+03  0.17300000000E+03 0.  1.
         -6    1    1    2    0  503 -0.52920616040E+02 -0.89036709160E+02  0.24947386569E+02  0.20317356934E+03  0.17300000000E+03 0.  1.
<mgrwt>
<rscale>  2 0.20163613E+03</rscale>
<asrwt>0</asrwt>
<pdfrwt beam="1">  1       21 0.38877720E-01 0.20163613E+03</pdfrwt>
<pdfrwt beam="2">  1       21 0.24988433E-01 0.20163613E+03</pdfrwt>
<totfact> 0.96356318E+04</totfact>
</mgrwt>
</event>
<event>
 4    2  0.4024741E+000  0.1898488E+03  0.7546771E-02  0.1158598E+00
         21   -1    0    0  503  502  0.00000000000E+00  0.00000000000E+00  0.28367274251E+02  0.28367274251E+02  0.00000000000E+00 0. -1.
         21   -1    0    0  501  503 -0.00000000000E+00 -0.00000000000E+00 -0.13758856082E+04  0.13758856082E+04  0.00000000000E+00 0. -1.
          6    1    1    2  501    0 -0.78118728993E+02 -0.33201442784E+01 -0.86801499504E+03  0.88853395590E+03  0.17300000000E+03 0. -1.
         -6    1    1    2    0  502  0.78118728993E+02  0.33201442784E+01 -0.47950333893E+03  0.51571892657E+03  0.17300000000E+03 0. -1.
<mgrwt>
<rscale>  2 0.18984878E+03</rscale>
<asrwt>0</asrwt>
<pdfrwt beam="1">  1       21 0.43641956E-02 0.18984878E+03</pdfrwt>
<pdfrwt beam="2">  1       21 0.21167473E+00 0.18984878E+03</pdfrwt>
<totfact> 0.38418047E+04</totfact>
</mgrwt>
</event>
<event>
 4    2  0.4024741E+000  0.1790233E+03  0.7546771E-02  0.1168752E+00
         21   -1    0    0  501  502  0.00000000000E+00  0.00000000000E+00  0.54289002671E+03  0.54289002671E+03  0.00000000000E+00 0. -1.
         21   -1    0    0  502  503 -0.00000000000E+00 -0.00000000000E+00 -0.91193756850E+02  0.91193756850E+02  0.00000000000E+00 0. -1.
          6    1    1    2  501    0  0.10365661872E+01 -0.46035621579E+02  0.41412012390E+03  0.45115942852E+03  0.17300000000E+03 0. -1.
         -6    1    1    2    0  503 -0.10365661872E+01  0.46035621579E+02  0.37576145968E+02  0.18292435505E+03  0.17300000000E+03 0. -1.
<mgrwt>
<rscale>  2 0.17902333E+03</rscale>
<asrwt>0</asrwt>
<pdfrwt beam="1">  1       21 0.83521540E-01 0.17902333E+03</pdfrwt>
<pdfrwt beam="2">  1       21 0.14029809E-01 0.17902333E+03</pdfrwt>
<totfact> 0.55601939E+04</totfact>
</mgrwt>
</event>
<event>
 4    2  0.4024741E+000  0.1894287E+03  0.7546771E-02  0.1158978E+00
         21   -1    0    0  503  502  0.00000000000E+00  0.00000000000E+00  0.99217194069E+03  0.99217194069E+03  0.00000000000E+00 0. -1.
         21   -1    0    0  501  503 -0.00000000000E+00 -0.00000000000E+00 -0.41450885049E+02  0.41450885049E+02  0.00000000000E+00 0. -1.
          6    1    1    2  501    0  0.64294439837E+02  0.42666739693E+02  0.29082963629E+03  0.34708083067E+03  0.17300000000E+03 0. -1.
         -6    1    1    2    0  502 -0.64294439837E+02 -0.42666739693E+02  0.65989141935E+03  0.68654199508E+03  0.17300000000E+03 0. -1.
<mgrwt>
<rscale>  2 0.18942868E+03</rscale>
<asrwt>0</asrwt>
<pdfrwt beam="1">  1       21 0.15264182E+00 0.18942868E+03</pdfrwt>
<pdfrwt beam="2">  1       21 0.63770600E-02 0.18942868E+03</pdfrwt>
<totfact> 0.50789953E+04</totfact>
</mgrwt>
</event>
<event>
 4    2  0.4024741E+000  0.2639505E+03  0.7546771E-02  0.1104793E+00
         21   -1    0    0  503  502  0.00000000000E+00  0.00000000000E+00  0.44729507718E+02  0.44729507718E+02  0.00000000000E+00 0. -1.
         21   -1    0    0  501  503 -0.00000000000E+00 -0.00000000000E+00 -0.25266908120E+04  0.25266908120E+04  0.00000000000E+00 0.  1.
          6    1    1    2  501    0 -0.19061062482E+03 -0.58382198968E+02 -0.20372375720E+04  0.20542655175E+04  0.17300000000E+03 0.  1.
         -6    1    1    2    0  502  0.19061062482E+03  0.58382198968E+02 -0.44472373231E+03  0.51715480228E+03  0.17300000000E+03 0. -1.
<mgrwt>
<rscale>  2 0.26395055E+03</rscale>
<asrwt>0</asrwt>
<pdfrwt beam="1">  1       21 0.68814629E-02 0.26395055E+03</pdfrwt>
<pdfrwt beam="2">  1       21 0.38872165E+00 0.26395055E+03</pdfrwt>
<totfact> 0.14568804E+03</totfact>
</mgrwt>
</event>
<event>
 4    2  0.4024741E+000  0.1964608E+03  0.7546771E-02  0.1152760E+00
         21   -1    0    0  503  502  0.00000000000E+00  0.00000000000E+00  0.51970701537E+03  0.51970701537E+03  0.00000000000E+00 0. -1.
         21   -1    0    0  501  503 -0.00000000000E+00 -0.00000000000E+00 -0.74363677783E+02  0.74363677783E+02  0.00000000000E+00 0. -1.
          6    1    1    2  501    0  0.32198836276E+02  0.87356034682E+02  0.21193618152E+03  0.28898752030E+03  0.17300000000E+03 0. -1.
         -6    1    1    2    0  502 -0.32198836276E+02 -0.87356034682E+02  0.23340715606E+03  0.30508317285E+03  0.17300000000E+03 0. -1.
<mgrwt>
<rscale>  2 0.19646079E+03</rscale>
<asrwt>0</asrwt>
<pdfrwt beam="1">  1       21 0.79954923E-01 0.19646079E+03</pdfrwt>
<pdfrwt beam="2">  1       21 0.11440566E-01 0.19646079E+03</pdfrwt>
<totfact> 0.87861203E+04</totfact>
</mgrwt>
</event>
<event>
 4    2  0.4024741E+000  0.2320732E+03  0.7546771E-02  0.1125189E+00
         21   -1    0    0  501  502  0.00000000000E+00  0.00000000000E+00  0.97376353156E+03  0.97376353156E+03  0.00000000000E+00 0. -1.
         21   -1    0    0  502  503 -0.00000000000E+00 -0.00000000000E+00 -0.16246789812E+03  0.16246789812E+03  0.00000000000E+00 0. -1.
          6    1    1    2  501    0  0.51001141022E+02 -0.14604063799E+03  0.86703650097E+03  0.89755795264E+03  0.17300000000E+03 0. -1.
         -6    1    1    2    0  503 -0.51001141022E+02  0.14604063799E+03 -0.55740867532E+02  0.23867347704E+03  0.17300000000E+03 0. -1.
<mgrwt>
<rscale>  2 0.23207323E+03</rscale>
<asrwt>0</asrwt>
<pdfrwt beam="1">  1       21 0.14980977E+00 0.23207323E+03</pdfrwt>
<pdfrwt beam="2">  1       21 0.24995062E-01 0.23207323E+03</pdfrwt>
<totfact> 0.44023194E+03</totfact>
</mgrwt>
</event>
<event>
 4    2  0.4024741E+000  0.1740486E+03  0.7546771E-02  0.1173690E+00
         21   -1    0    0  503  502  0.00000000000E+00  0.00000000000E+00  0.12909444255E+03  0.12909444255E+03  0.00000000000E+00 0.  1.
         21   -1    0    0  501  503 -0.00000000000E+00 -0.00000000000E+00 -0.30480239728E+03  0.30480239728E+03  0.00000000000E+00 0.  1.
          6    1    1    2  501    0  0.17542675649E+02  0.74942361133E+01  0.16221167782E+02  0.17480284703E+03  0.17300000000E+03 0. -1.
         -6    1    1    2    0  502 -0.17542675649E+02 -0.74942361133E+01 -0.19192912251E+03  0.25909399281E+03  0.17300000000E+03 0. -1.
<mgrwt>
<rscale>  2 0.17404858E+03</rscale>
<asrwt>0</asrwt>
<pdfrwt beam="1">  1       21 0.19860683E-01 0.17404858E+03</pdfrwt>
<pdfrwt beam="2">  1       21 0.46892677E-01 0.17404858E+03</pdfrwt>
<totfact> 0.10252475E+05</totfact>
</mgrwt>
</event>
<event>
 4    2  0.4024741E+000  0.1987690E+03  0.7546771E-02  0.1150782E+00
         21   -1    0    0  501  502  0.00000000000E+00  0.00000000000E+00  0.15679242956E+03  0.15679242956E+03  0.00000000000E+00 0. -1.
         21   -1    0    0  502  503 -0.00000000000E+00 -0.00000000000E+00 -0.26601847389E+03  0.26601847389E+03  0.00000000000E+00 0. -1.
          6    1    1    2  501    0 -0.40662630089E+02  0.89031857379E+02 -0.60546057097E+01  0.19886120628E+03  0.17300000000E+03 0. -1.
         -6    1    1    2    0  503  0.40662630089E+02 -0.89031857379E+02 -0.10317143862E+03  0.22394969717E+03  0.17300000000E+03 0. -1.
<mgrwt>
<rscale>  2 0.19876901E+03</rscale>
<asrwt>0</asrwt>
<pdfrwt beam="1">  1       21 0.24121913E-01 0.19876901E+03</pdfrwt>
<pdfrwt beam="2">  1       21 0.40925919E-01 0.19876901E+03</pdfrwt>
<totfact> 0.93016007E+04</totfact>
</mgrwt>
</event>
<event>
 4    2  0.4024741E+000  0.2457625E+03  0.7546771E-02  0.1116012E+00
         21   -1    0    0  501  502  0.00000000000E+00  0.00000000000E+00  0.10736517017E+03  0.10736517017E+03  0.00000000000E+00 0. -1.
         21   -1    0    0  502  503 -0.00000000000E+00 -0.00000000000E+00 -0.71929811394E+03  0.71929811394E+03  0.00000000000E+00 0. -1.
          6    1    1    2  501    0  0.16148420631E+03  0.66280310206E+02 -0.11302167499E+03  0.27050531866E+03  0.17300000000E+03 0. -1.
         -6    1    1    2    0  503 -0.16148420631E+03 -0.66280310206E+02 -0.49891126878E+03  0.55615796544E+03  0.17300000000E+03 0. -1.
<mgrwt>
<rscale>  2 0.24576254E+03</rscale>
<asrwt>0</asrwt>
<pdfrwt beam="1">  1       21 0.16517718E-01 0.24576254E+03</pdfrwt>
<pdfrwt beam="2">  1       21 0.11066125E+00 0.24576254E+03</pdfrwt>
<totfact> 0.20536018E+04</totfact>
</mgrwt>
</event>
<event>
 4    2  0.4024741E+000  0.1774245E+03  0.7546771E-02  0.1170319E+00
         21   -1    0    0  503  502  0.00000000000E+00  0.00000000000E+00  0.15721691434E+02  0.15721691434E+02  0.00000000000E+00 0. -1.
         21   -1    0    0  501  503 -0.00000000000E+00 -0.00000000000E+00 -0.20884584059E+04  0.20884584059E+04  0.00000000000E+00 0. -1.
          6    1    1    2  501    0  0.14690642248E+02 -0.36532728803E+02 -0.12500675365E+04  0.12625958581E+04  0.17300000000E+03 0.  1.
         -6    1    1    2    0  502 -0.14690642248E+02  0.36532728803E+02 -0.82266917797E+03  0.84158423918E+03  0.17300000000E+03 0.  1.
<mgrwt>
<rscale>  2 0.17742451E+03</rscale>
<asrwt>0</asrwt>
<pdfrwt beam="1">  1       21 0.24187216E-02 0.17742451E+03</pdfrwt>
<pdfrwt beam="2">  1       21 0.32130132E+00 0.17742451E+03</pdfrwt>
<totfact> 0.23589871E+04</totfact>
</mgrwt>
</event>
<event>
 4    2  0.4024741E+000  0.2617568E+03  0.7546771E-02  0.1106092E+00
         21   -1    0    0  503  502  0.00000000000E+00  0.00000000000E+00  0.19487482972E+03  0.19487482972E+03  0.00000000000E+00 0. -1.
         21   -1    0    0  501  503 -0.00000000000E+00 -0.00000000000E+00 -0.39129245452E+03  0.39129245452E+03  0.00000000000E+00 0.  1.
          6    1    1    2  501    0 -0.17292308788E+03  0.93194539115E+02 -0.19156290917E+03  0.32436547999E+03  0.17300000000E+03 0.  1.
         -6    1    1    2    0  502  0.17292308788E+03 -0.93194539115E+02 -0.48547156383E+01  0.26180180425E+03  0.17300000000E+03 0. -1.
<mgrwt>
<rscale>  2 0.26175679E+03</rscale>
<asrwt>0</asrwt>
<pdfrwt beam="1">  1       21 0.29980743E-01 0.26175679E+03</pdfrwt>
<pdfrwt beam="2">  1       21 0.60198839E-01 0.26175679E+03</pdfrwt>
<totfact> 0.26513342E+04</totfact>
</mgrwt>
</event>
<event>
 4    2  0.4024741E+000  0.1886982E+03  0.7546771E-02  0.1159641E+00
         21   -1    0    0  501  502  0.00000000000E+00  0.00000000000E+00  0.31482311041E+03  0.31482311041E+03  0.00000000000E+00 0. -1.
         21   -1    0    0  502  503 -0.00000000000E+00 -0.00000000000E+00 -0.12019911896E+03  0.12019911896E+03  0.00000000000E+00 0. -1.
          6    1    1    2  501    0  0.43433702134E+02  0.61575385061E+02  0.44457438602E+02  0.19386458772E+03  0.17300000000E+03 0. -1.
         -6    1    1    2    0  503 -0.43433702134E+02 -0.61575385061E+02  0.15016655285E+03  0.24115764164E+03  0.17300000000E+03 0. -1.
<mgrwt>
<rscale>  2 0.18869821E+03</rscale>
<asrwt>0</asrwt>
<pdfrwt beam="1">  1       21 0.48434324E-01 0.18869821E+03</pdfrwt>
<pdfrwt beam="2">  1       21 0.18492172E-01 0.18869821E+03</pdfrwt>
<totfact> 0.10889170E+05</totfact>
</mgrwt>
</event>
<event>
 4    2  0.4024741E+000  0.1972726E+03  0.7546771E-02  0.1152061E+00
         21   -1    0    0  503  502  0.00000000000E+00  0.00000000000E+00  0.41554370971E+03  0.41554370971E+03  0.00000000000E+00 0. -1.
         21   -1    0    0  501  503 -0.00000000000E+00 -0.00000000000E+00 -0.13172090406E+03  0.13172090406E+03  0.00000000000E+00 0.  1.
          6    1    1    2  501    0 -0.65253425826E+02  0.68771053649E+02 -0.51929921882E+01  0.19734090952E+03  0.17300000000E+03 0.  1.
         -6    1    1    2    0  502  0.65253425826E+02 -0.68771053649E+02  0.28901579783E+03  0.34992370426E+03  0.17300000000E+03 0. -1.
<mgrwt>
<rscale>  2 0.19727257E+03</rscale>
<asrwt>0</asrwt>
<pdfrwt beam="1">  1       21 0.63929801E-01 0.19727257E+03</pdfrwt>
<pdfrwt beam="2">  1       21 0.20264755E-01 0.19727257E+03</pdfrwt>
<totfact> 0.50776890E+04</totfact>
</mgrwt>
</event>
<event>
 4    2  0.4024741E+000  0.2819441E+03  0.7546771E-02  0.1094632E+00
         21   -1    0    0  503  502  0.00000000000E+00  0.00000000000E+00  0.18926644573E+03  0.18926644573E+03  0.00000000000E+00 0.  1.
         21   -1    0    0  501  503 -0.00000000000E+00 -0.00000000000E+00 -0.47395200160E+03  0.47395200160E+03  0.00000000000E+00 0. -1.
          6    1    1    2  501    0 -0.20137859956E+03  0.94921870853E+02 -0.25422228763E+03  0.37963334081E+03  0.17300000000E+03 0. -1.
         -6    1    1    2    0  502  0.20137859956E+03 -0.94921870853E+02 -0.30463268242E+02  0.28358510652E+03  0.17300000000E+03 0.  1.
<mgrwt>
<rscale>  2 0.28194415E+03</rscale>
<asrwt>0</asrwt>
<pdfrwt beam="1">  1       21 0.29117915E-01 0.28194415E+03</pdfrwt>
<pdfrwt beam="2">  1       21 0.72915692E-01 0.28194415E+03</pdfrwt>
<totfact> 0.18243815E+04</totfact>
</mgrwt>
</event>
<event>
 4    2  0.4024741E+000  0.2758163E+03  0.7546771E-02  0.1097996E+00
         21   -1    0    0  501  502  0.00000000000E+00  0.00000000000E+00  0.10219360825E+03  0.10219360825E+03  0.00000000000E+00 0.  1.
         21   -1    0    0  502  503 -0.00000000000E+00 -0.00000000000E+00 -0.15177309870E+04  0.15177309870E+04  0.00000000000E+00 0. -1.
          6    1    1    2  501    0 -0.19124762660E+03  0.97826140282E+02 -0.12961210553E+03  0.30475220475E+03  0.17300000000E+03 0.  1.
         -6    1    1    2    0  503  0.19124762660E+03 -0.97826140282E+02 -0.12859252732E+04  0.13151723905E+04  0.17300000000E+03 0. -1.
<mgrwt>
<rscale>  2 0.27581626E+03</rscale>
<asrwt>0</asrwt>
<pdfrwt beam="1">  1       21 0.15722096E-01 0.27581626E+03</pdfrwt>
<pdfrwt beam="2">  1       21 0.23349705E+00 0.27581626E+03</pdfrwt>
<totfact> 0.27833925E+03</totfact>
</mgrwt>
</event>
<event>
 4    2  0.4024741E+000  0.2179193E+03  0.7546771E-02  0.1135444E+00
         21   -1    0    0  503  502  0.00000000000E+00  0.00000000000E+00  0.70679111880E+03  0.70679111880E+03  0.00000000000E+00 0. -1.
         21   -1    0    0  501  503 -0.00000000000E+00 -0.00000000000E+00 -0.67407936949E+02  0.67407936949E+02  0.00000000000E+00 0.  1.
          6    1    1    2  501    0  0.64155796380E+02 -0.11594769970E+03  0.29764811600E+03  0.36889461399E+03  0.17300000000E+03 0. -1.
         -6    1    1    2    0  502 -0.64155796380E+02  0.11594769970E+03  0.34173506585E+03  0.40530444176E+03  0.17300000000E+03 0. -1.
<mgrwt>
<rscale>  2 0.21791933E+03</rscale>
<asrwt>0</asrwt>
<pdfrwt beam="1">  1       21 0.10873709E+00 0.21791933E+03</pdfrwt>
<pdfrwt beam="2">  1       21 0.10370452E-01 0.21791933E+03</pdfrwt>
<totfact> 0.50450346E+04</totfact>
</mgrwt>
</event>
<event>
 4    2  0.4024741E+000  0.1875651E+03  0.7546771E-02  0.1160676E+00
         21   -1    0    0  501  502  0.00000000000E+00  0.00000000000E+00  0.21348352283E+03  0.21348352283E+03  0.00000000000E+00 0. -1.
         21   -1    0    0  502  503 -0.00000000000E+00 -0.00000000000E+00 -0.18927367140E+03  0.18927367140E+03  0.00000000000E+00 0. -1.
          6    1    1    2  501    0  0.15218929840E+02  0.70852301115E+02  0.84527971661E+02  0.20573196736E+03  0.17300000000E+03 0. -1.
         -6    1    1    2    0  503 -0.15218929840E+02 -0.70852301115E+02 -0.60318120232E+02  0.19702522688E+03  0.17300000000E+03 0. -1.
<mgrwt>
<rscale>  2 0.18756509E+03</rscale>
<asrwt>0</asrwt>
<pdfrwt beam="1">  1       21 0.32843619E-01 0.18756509E+03</pdfrwt>
<pdfrwt beam="2">  1       21 0.29119026E-01 0.18756509E+03</pdfrwt>
<totfact> 0.10096261E+05</totfact>
</mgrwt>
</event>
<event>
 4    2  0.4024741E+000  0.1768765E+03  0.7546771E-02  0.1170861E+00
         21   -1    0    0  501  502  0.00000000000E+00  0.00000000000E+00  0.25676187467E+03  0.25676187467E+03  0.00000000000E+00 0.  1.
         21   -1    0    0  502  503 -0.00000000000E+00 -0.00000000000E+00 -0.13047740042E+03  0.13047740042E+03  0.00000000000E+00 0.  1.
          6    1    1    2  501    0  0.15063657582E+02  0.33606218763E+02  0.11294273903E+03  0.20986032026E+03  0.17300000000E+03 0.  1.
         -6    1    1    2    0  503 -0.15063657582E+02 -0.33606218763E+02  0.13341735211E+02  0.17737895483E+03  0.17300000000E+03 0.  1.
<mgrwt>
<rscale>  2 0.17687649E+03</rscale>
<asrwt>0</asrwt>
<pdfrwt beam="1">  1       21 0.39501827E-01 0.17687649E+03</pdfrwt>
<pdfrwt beam="2">  1       21 0.20073446E-01 0.17687649E+03</pdfrwt>
<totfact> 0.14237226E+05</totfact>
</mgrwt>
</event>
<event>
 4    2  0.4024741E+000  0.2619777E+03  0.7546771E-02  0.1105961E+00
         21   -1    0    0  501  502  0.00000000000E+00  0.00000000000E+00  0.12686534095E+03  0.12686534095E+03  0.00000000000E+00 0.  1.
         21   -1    0    0  502  503 -0.00000000000E+00 -0.00000000000E+00 -0.11155987865E+04  0.11155987865E+04  0.00000000000E+00 0.  1.
          6    1    1    2  501    0 -0.13245031215E+03 -0.14546553337E+03 -0.48517834459E+02  0.26643251837E+03  0.17300000000E+03 0.  1.
         -6    1    1    2    0  503  0.13245031215E+03  0.14546553337E+03 -0.94021561109E+03  0.97603160908E+03  0.17300000000E+03 0.  1.
<mgrwt>
<rscale>  2 0.26197768E+03</rscale>
<asrwt>0</asrwt>
<pdfrwt beam="1">  1       21 0.19517744E-01 0.26197768E+03</pdfrwt>
<pdfrwt beam="2">  1       21 0.17163059E+00 0.26197768E+03</pdfrwt>
<totfact> 0.47601901E+03</totfact>
</mgrwt>
</event>
<event>
 4    2  0.4024741E+000  0.2214356E+03  0.7546771E-02  0.1132817E+00
         21   -1    0    0  501  502  0.00000000000E+00  0.00000000000E+00  0.11831325919E+03  0.11831325919E+03  0.00000000000E+00 0.  1.
         21   -1    0    0  502  503 -0.00000000000E+00 -0.00000000000E+00 -0.76647485252E+03  0.76647485252E+03  0.00000000000E+00 0.  1.
          6    1    1    2  501    0 -0.31563010865E+02  0.13456789265E+03 -0.24265912927E+02  0.22276125318E+03  0.17300000000E+03 0.  1.
         -6    1    1    2    0  503  0.31563010865E+02 -0.13456789265E+03 -0.62389568040E+03  0.66202685853E+03  0.17300000000E+03 0.  1.
<mgrwt>
<rscale>  2 0.22143564E+03</rscale>
<asrwt>0</asrwt>
<pdfrwt beam="1">  1       21 0.18202041E-01 0.22143564E+03</pdfrwt>
<pdfrwt beam="2">  1       21 0.11791920E+00 0.22143564E+03</pdfrwt>
<totfact> 0.14884882E+04</totfact>
</mgrwt>
</event>
<event>
 4    2  0.4024741E+000  0.1889962E+03  0.7546771E-02  0.1159370E+00
         21   -1    0    0  501  502  0.00000000000E+00  0.00000000000E+00  0.79851157016E+02  0.79851157016E+02  0.00000000000E+00 0.  1.
         21   -1    0    0  502  503 -0.00000000000E+00 -0.00000000000E+00 -0.52668141030E+03  0.52668141030E+03  0.00000000000E+00 0.  1.
          6    1    1    2  501    0  0.44692143895E+02 -0.61588624643E+02 -0.10569878172E+03  0.21654509661E+03  0.17300000000E+03 0.  1.
         -6    1    1    2    0  503 -0.44692143895E+02  0.61588624643E+02 -0.34113147157E+03  0.38998747071E+03  0.17300000000E+03 0.  1.
<mgrwt>
<rscale>  2 0.18899615E+03</rscale>
<asrwt>0</asrwt>
<pdfrwt beam="1">  1       21 0.12284793E-01 0.18899615E+03</pdfrwt>
<pdfrwt beam="2">  1       21 0.81027912E-01 0.18899615E+03</pdfrwt>
<totfact> 0.75304390E+04</totfact>
</mgrwt>
</event>
<event>
 4    2  0.4024741E+000  0.2081490E+03  0.7546771E-02  0.1143040E+00
         21   -1    0    0  503  502  0.00000000000E+00  0.00000000000E+00  0.70857523319E+03  0.70857523319E+03  0.00000000000E+00 0. -1.
         21   -1    0    0  501  503 -0.00000000000E+00 -0.00000000000E+00 -0.11213494639E+03  0.11213494639E+03  0.00000000000E+00 0. -1.
          6    1    1    2  501    0  0.23764558224E+02 -0.11327944133E+03  0.21506425063E+02  0.20925704856E+03  0.17300000000E+03 0. -1.
         -6    1    1    2    0  502 -0.23764558224E+02  0.11327944133E+03  0.57493386174E+03  0.61145313102E+03  0.17300000000E+03 0. -1.
<mgrwt>
<rscale>  2 0.20814895E+03</rscale>
<asrwt>0</asrwt>
<pdfrwt beam="1">  1       21 0.10901157E+00 0.20814895E+03</pdfrwt>
<pdfrwt beam="2">  1       21 0.17251531E-01 0.20814895E+03</pdfrwt>
<totfact> 0.20074195E+04</totfact>
</mgrwt>
</event>
<event>
 4    2  0.4024741E+000  0.2249296E+03  0.7546771E-02  0.1130260E+00
         21   -1    0    0  501  502  0.00000000000E+00  0.00000000000E+00  0.81585315496E+02  0.81585315496E+02  0.00000000000E+00 0.  1.
         21   -1    0    0  502  503 -0.00000000000E+00 -0.00000000000E+00 -0.11434327648E+04  0.11434327648E+04  0.00000000000E+00 0.  1.
          6    1    1    2  501    0  0.14357053713E+03 -0.71990964471E+01 -0.11655726549E+03  0.25333559217E+03  0.17300000000E+03 0.  1.
         -6    1    1    2    0  503 -0.14357053713E+03  0.71990964471E+01 -0.94529018384E+03  0.97168248816E+03  0.17300000000E+03 0.  1.
<mgrwt>
<rscale>  2 0.22492960E+03</rscale>
<asrwt>0</asrwt>
<pdfrwt beam="1">  1       21 0.12551588E-01 0.22492960E+03</pdfrwt>
<pdfrwt beam="2">  1       21 0.17591272E+00 0.22492960E+03</pdfrwt>
<totfact> 0.10253944E+04</totfact>
</mgrwt>
</event>
<event>
 4    2  0.4024741E+000  0.2354363E+03  0.7546771E-02  0.1122871E+00
         21   -1    0    0  501  502  0.00000000000E+00  0.00000000000E+00  0.10879887203E+03  0.10879887203E+03  0.00000000000E+00 0. -1.
         21   -1    0    0  502  503 -0.00000000000E+00 -0.00000000000E+00 -0.79032941050E+03  0.79032941050E+03  0.00000000000E+00 0. -1.
          6    1    1    2  501    0  0.14526936612E+03 -0.66317805386E+02 -0.60876149601E+03  0.65270268811E+03  0.17300000000E+03 0. -1.
         -6    1    1    2    0  503 -0.14526936612E+03  0.66317805386E+02 -0.72769042470E+02  0.24642559442E+03  0.17300000000E+03 0. -1.
<mgrwt>
<rscale>  2 0.23543628E+03</rscale>
<asrwt>0</asrwt>
<pdfrwt beam="1">  1       21 0.16738288E-01 0.23543628E+03</pdfrwt>
<pdfrwt beam="2">  1       21 0.12158914E+00 0.23543628E+03</pdfrwt>
<totfact> 0.15973854E+04</totfact>
</mgrwt>
</event>
<event>
 4    2  0.4024741E+000  0.1836386E+03  0.7546771E-02  0.1164327E+00
         21   -1    0    0  501  502  0.00000000000E+00  0.00000000000E+00  0.27576723012E+03  0.27576723012E+03  0.00000000000E+00 0. -1.
         21   -1    0    0  502  503 -0.00000000000E+00 -0.00000000000E+00 -0.12901198136E+03  0.12901198136E+03  0.00000000000E+00 0. -1.
          6    1    1    2  501    0 -0.49041355848E+02  0.37270409184E+02  0.11958092174E+03  0.21914090177E+03  0.17300000000E+03 0.  1.
         -6    1    1    2    0  503  0.49041355848E+02 -0.37270409184E+02  0.27174327019E+02  0.18563830971E+03  0.17300000000E+03 0.  1.
<mgrwt>
<rscale>  2 0.18363861E+03</rscale>
<asrwt>0</asrwt>
<pdfrwt beam="1">  1       21 0.42425728E-01 0.18363861E+03</pdfrwt>
<pdfrwt beam="2">  1       21 0.19847997E-01 0.18363861E+03</pdfrwt>
<totfact> 0.12554771E+05</totfact>
</mgrwt>
</event>
<event>
 4    2  0.4024741E+000  0.2090069E+03  0.7546771E-02  0.1142355E+00
         21   -1    0    0  503  502  0.00000000000E+00  0.00000000000E+00  0.64014171621E+02  0.64014171621E+02  0.00000000000E+00 0. -1.
         21   -1    0    0  501  503 -0.00000000000E+00 -0.00000000000E+00 -0.68544337474E+03  0.68544337474E+03  0.00000000000E+00 0. -1.
          6    1    1    2  501    0 -0.51046403271E+02  0.10558946733E+03 -0.33564555933E+03  0.39540082498E+03  0.17300000000E+03 0. -1.
         -6    1    1    2    0  502  0.51046403271E+02 -0.10558946733E+03 -0.28578364379E+03  0.35405672138E+03  0.17300000000E+03 0. -1.
<mgrwt>
<rscale>  2 0.20900687E+03</rscale>
<asrwt>0</asrwt>
<pdfrwt beam="1">  1       21 0.98483344E-02 0.20900687E+03</pdfrwt>
<pdfrwt beam="2">  1       21 0.10545282E+00 0.20900687E+03</pdfrwt>
<totfact> 0.59796555E+04</totfact>
</mgrwt>
</event>
<event>
 4    2  0.4024741E+000  0.1733237E+03  0.7546771E-02  0.1174425E+00
         21   -1    0    0  503  502  0.00000000000E+00  0.00000000000E+00  0.40848028214E+02  0.40848028214E+02  0.00000000000E+00 0. -1.
         21   -1    0    0  501  503 -0.00000000000E+00 -0.00000000000E+00 -0.77686242392E+03  0.77686242392E+03  0.00000000000E+00 0. -1.
          6    1    1    2  501    0  0.20516122602E+01 -0.10387246727E+02 -0.46242133933E+03  0.49383661172E+03  0.17300000000E+03 0. -1.
         -6    1    1    2    0  502 -0.20516122602E+01  0.10387246727E+02 -0.27359305637E+03  0.32387384041E+03  0.17300000000E+03 0. -1.
<mgrwt>
<rscale>  2 0.17332370E+03</rscale>
<asrwt>0</asrwt>
<pdfrwt beam="1">  1       21 0.62843124E-02 0.17332370E+03</pdfrwt>
<pdfrwt beam="2">  1       21 0.11951729E+00 0.17332370E+03</pdfrwt>
<totfact> 0.97982645E+04</totfact>
</mgrwt>
</event>
<event>
 4    2  0.4024741E+000  0.2135945E+03  0.7546771E-02  0.1138751E+00
         21   -1    0    0  501  502  0.00000000000E+00  0.00000000000E+00  0.80054397222E+02  0.80054397222E+02  0.00000000000E+00 0.  1.
         21   -1    0    0  502  503 -0.00000000000E+00 -0.00000000000E+00 -0.57911725032E+03  0.57911725032E+03  0.00000000000E+00 0.  1.
          6    1    1    2  501    0 -0.30000647454E+02  0.12162888298E+03 -0.29112218758E+03  0.36107444125E+03  0.17300000000E+03 0.  1.
         -6    1    1    2    0  503  0.30000647454E+02 -0.12162888298E+03 -0.20794066552E+03  0.29809720629E+03  0.17300000000E+03 0.  1.
<mgrwt>
<rscale>  2 0.21359453E+03</rscale>
<asrwt>0</asrwt>
<pdfrwt beam="1">  1       21 0.12316061E-01 0.21359453E+03</pdfrwt>
<pdfrwt beam="2">  1       21 0.89094960E-01 0.21359453E+03</pdfrwt>
<totfact> 0.59638812E+04</totfact>
</mgrwt>
</event>
<event>
 4    2  0.4024741E+000  0.2168960E+03  0.7546771E-02  0.1136219E+00
         21   -1    0    0  503  502  0.00000000000E+00  0.00000000000E+00  0.22565424853E+03  0.22565424853E+03  0.00000000000E+00 0. -1.
         21   -1    0    0  501  503 -0.00000000000E+00 -0.00000000000E+00 -0.22373166326E+03  0.22373166326E+03  0.00000000000E+00 0.  1.
          6    1    1    2  501    0 -0.50257103011E+02 -0.12078526911E+03 -0.57709021100E+02  0.22444194963E+03  0.17300000000E+03 0.  1.
         -6    1    1    2    0  502  0.50257103011E+02  0.12078526911E+03  0.59631606363E+02  0.22494396216E+03  0.17300000000E+03 0. -1.
<mgrwt>
<rscale>  2 0.21689596E+03</rscale>
<asrwt>0</asrwt>
<pdfrwt beam="1">  1       21 0.34716038E-01 0.21689596E+03</pdfrwt>
<pdfrwt beam="2">  1       21 0.34420256E-01 0.21689596E+03</pdfrwt>
<totfact> 0.64355804E+04</totfact>
</mgrwt>
</event>
<event>
 4    2  0.4024741E+000  0.1934304E+03  0.7546771E-02  0.1155403E+00
         21   -1    0    0  501  502  0.00000000000E+00  0.00000000000E+00  0.17547829739E+03  0.17547829739E+03  0.00000000000E+00 0. -1.
         21   -1    0    0  502  503 -0.00000000000E+00 -0.00000000000E+00 -0.48008002991E+03  0.48008002991E+03  0.00000000000E+00 0. -1.
          6    1    1    2  501    0 -0.85935960000E+02  0.10067018630E+02  0.92079874043E+02  0.21422893663E+03  0.17300000000E+03 0. -1.
         -6    1    1    2    0  503  0.85935960000E+02 -0.10067018630E+02 -0.39668160656E+03  0.44132939067E+03  0.17300000000E+03 0. -1.
<mgrwt>
<rscale>  2 0.19343044E+03</rscale>
<asrwt>0</asrwt>
<pdfrwt beam="1">  1       21 0.26996661E-01 0.19343044E+03</pdfrwt>
<pdfrwt beam="2">  1       21 0.73858466E-01 0.19343044E+03</pdfrwt>
<totfact> 0.21498563E+04</totfact>
</mgrwt>
</event>
<event>
 4    2  0.4024741E+000  0.1841666E+03  0.7546771E-02  0.1163830E+00
         21   -1    0    0  503  502  0.00000000000E+00  0.00000000000E+00  0.21620508491E+03  0.21620508491E+03  0.00000000000E+00 0. -1.
         21   -1    0    0  501  503 -0.00000000000E+00 -0.00000000000E+00 -0.15882715299E+03  0.15882715299E+03  0.00000000000E+00 0.  1.
          6    1    1    2  501    0  0.21196614078E+02 -0.59489735128E+02  0.49474192635E+02  0.19069614776E+03  0.17300000000E+03 0.  1.
         -6    1    1    2    0  502 -0.21196614078E+02  0.59489735128E+02  0.79037392846E+01  0.18433609014E+03  0.17300000000E+03 0.  1.
<mgrwt>
<rscale>  2 0.18416657E+03</rscale>
<asrwt>0</asrwt>
<pdfrwt beam="1">  1       21 0.33262321E-01 0.18416657E+03</pdfrwt>
<pdfrwt beam="2">  1       21 0.24434946E-01 0.18416657E+03</pdfrwt>
<totfact> 0.13809333E+05</totfact>
</mgrwt>
</event>
<event>
 4    2  0.4024741E+000  0.2023656E+03  0.7546771E-02  0.1147758E+00
         21   -1    0    0  503  502  0.00000000000E+00  0.00000000000E+00  0.53558078730E+03  0.53558078730E+03  0.00000000000E+00 0.  1.
         21   -1    0    0  501  503 -0.00000000000E+00 -0.00000000000E+00 -0.76691669422E+02  0.76691669422E+02  0.00000000000E+00 0. -1.
          6    1    1    2  501    0  0.10049023747E+03  0.30406584869E+02  0.21270997460E+03  0.29359390580E+03  0.17300000000E+03 0.  1.
         -6    1    1    2    0  502 -0.10049023747E+03 -0.30406584869E+02  0.24617914328E+03  0.31867855092E+03  0.17300000000E+03 0.  1.
<mgrwt>
<rscale>  2 0.20236563E+03</rscale>
<asrwt>0</asrwt>
<pdfrwt beam="1">  1       21 0.82397042E-01 0.20236563E+03</pdfrwt>
<pdfrwt beam="2">  1       21 0.11798719E-01 0.20236563E+03</pdfrwt>
<totfact> 0.77463025E+04</totfact>
</mgrwt>
</event>
<event>
 4    2  0.4024741E+000  0.1825725E+03  0.7546771E-02  0.1165336E+00
         21   -1    0    0  501  502  0.00000000000E+00  0.00000000000E+00  0.67973061236E+02  0.67973061236E+02  0.00000000000E+00 0. -1.
         21   -1    0    0  502  503 -0.00000000000E+00 -0.00000000000E+00 -0.71831993631E+03  0.71831993631E+03  0.00000000000E+00 0. -1.
          6    1    1    2  501    0 -0.25557909859E+02 -0.52445370127E+02 -0.10370882113E+03  0.20997200572E+03  0.17300000000E+03 0. -1.
         -6    1    1    2    0  503  0.25557909859E+02  0.52445370127E+02 -0.54663805394E+03  0.57632099183E+03  0.17300000000E+03 0. -1.
<mgrwt>
<rscale>  2 0.18257252E+03</rscale>
<asrwt>0</asrwt>
<pdfrwt beam="1">  1       21 0.10457394E-01 0.18257252E+03</pdfrwt>
<pdfrwt beam="2">  1       21 0.11051076E+00 0.18257252E+03</pdfrwt>
<totfact> 0.48668308E+04</totfact>
</mgrwt>
</event>
<event>
 4    2  0.4024741E+000  0.1821810E+03  0.7546771E-02  0.1165709E+00
         21   -1    0    0  503  502  0.00000000000E+00  0.00000000000E+00  0.10530115526E+03  0.10530115526E+03  0.00000000000E+00 0.  1.
         21   -1    0    0  501  503 -0.00000000000E+00 -0.00000000000E+00 -0.43889018775E+03  0.43889018775E+03  0.00000000000E+00 0.  1.
          6    1    1    2  501    0  0.37251188768E+02 -0.43281058134E+02 -0.31124811897E+03  0.36064566075E+03  0.17300000000E+03 0.  1.
         -6    1    1    2    0  502 -0.37251188768E+02  0.43281058134E+02 -0.22340913527E+02  0.18354568226E+03  0.17300000000E+03 0.  1.
<mgrwt>
<rscale>  2 0.18218096E+03</rscale>
<asrwt>0</asrwt>
<pdfrwt beam="1">  1       21 0.16200178E-01 0.18218096E+03</pdfrwt>
<pdfrwt beam="2">  1       21 0.67521566E-01 0.18218096E+03</pdfrwt>
<totfact> 0.68671506E+04</totfact>
</mgrwt>
</event>
<event>
 4    2  0.4024741E+000  0.2976189E+03  0.7546771E-02  0.1086437E+00
         21   -1    0    0  503  502  0.00000000000E+00  0.00000000000E+00  0.19476898350E+03  0.19476898350E+03  0.00000000000E+00 0.  1.
         21   -1    0    0  501  503 -0.00000000000E+00 -0.00000000000E+00 -0.14093734320E+04  0.14093734320E+04  0.00000000000E+00 0. -1.
          6    1    1    2  501    0 -0.19609918689E+03  0.14210240642E+03 -0.12674013683E+04  0.13018768042E+04  0.17300000000E+03 0. -1.
         -6    1    1    2    0  502  0.19609918689E+03 -0.14210240642E+03  0.52796919816E+02  0.30226561127E+03  0.17300000000E+03 0.  1.
<mgrwt>
<rscale>  2 0.29761886E+03</rscale>
<asrwt>0</asrwt>
<pdfrwt beam="1">  1       21 0.29964459E-01 0.29761886E+03</pdfrwt>
<pdfrwt beam="2">  1       21 0.21682668E+00 0.29761886E+03</pdfrwt>
<totfact> 0.10195619E+03</totfact>
</mgrwt>
</event>
<event>
 4    2  0.4024741E+000  0.1894394E+03  0.7546771E-02  0.1158968E+00
         21   -1    0    0  503  502  0.00000000000E+00  0.00000000000E+00  0.59604115899E+03  0.59604115899E+03  0.00000000000E+00 0. -1.
         21   -1    0    0  501  503 -0.00000000000E+00 -0.00000000000E+00 -0.83803833424E+02  0.83803833424E+02  0.00000000000E+00 0. -1.
          6    1    1    2  501    0  0.17652096271E+02 -0.75144526823E+02  0.75753567091E+02  0.20402426165E+03  0.17300000000E+03 0. -1.
         -6    1    1    2    0  502 -0.17652096271E+02  0.75144526823E+02  0.43648375848E+03  0.47582073077E+03  0.17300000000E+03 0. -1.
<mgrwt>
<rscale>  2 0.18943943E+03</rscale>
<asrwt>0</asrwt>
<pdfrwt beam="1">  1       21 0.91698637E-01 0.18943943E+03</pdfrwt>
<pdfrwt beam="2">  1       21 0.12892898E-01 0.18943943E+03</pdfrwt>
<totfact> 0.51984936E+04</totfact>
</mgrwt>
</event>
<event>
 4    2  0.4024741E+000  0.2216537E+03  0.7546771E-02  0.1132656E+00
         21   -1    0    0  501  502  0.00000000000E+00  0.00000000000E+00  0.98437731267E+02  0.98437731267E+02  0.00000000000E+00 0.  1.
         21   -1    0    0  502  503 -0.00000000000E+00 -0.00000000000E+00 -0.10028794556E+04  0.10028794556E+04  0.00000000000E+00 0.  1.
          6    1    1    2  501    0  0.12709444908E+03 -0.55212146282E+02 -0.61939506003E+02  0.23014535079E+03  0.17300000000E+03 0.  1.
         -6    1    1    2    0  503 -0.12709444908E+03  0.55212146282E+02 -0.84250221829E+03  0.87117183604E+03  0.17300000000E+03 0.  1.
<mgrwt>
<rscale>  2 0.22165374E+03</rscale>
<asrwt>0</asrwt>
<pdfrwt beam="1">  1       21 0.15144266E-01 0.22165374E+03</pdfrwt>
<pdfrwt beam="2">  1       21 0.15428915E+00 0.22165374E+03</pdfrwt>
<totfact> 0.10471704E+04</totfact>
</mgrwt>
</event>
<event>
 4    2  0.4024741E+000  0.2367026E+03  0.7546771E-02  0.1122009E+00
         21   -1    0    0  503  502  0.00000000000E+00  0.00000000000E+00  0.10364085224E+03  0.10364085224E+03  0.00000000000E+00 0. -1.
         21   -1    0    0  501  503 -0.00000000000E+00 -0.00000000000E+00 -0.62173106596E+03  0.62173106596E+03  0.00000000000E+00 0. -1.
          6    1    1    2  501    0 -0.75796729488E+02  0.14266744344E+03 -0.39006150645E+03  0.45626321618E+03  0.17300000000E+03 0.  1.
         -6    1    1    2    0  502  0.75796729488E+02 -0.14266744344E+03 -0.12802870726E+03  0.26910870202E+03  0.17300000000E+03 0.  1.
<mgrwt>
<rscale>  2 0.23670265E+03</rscale>
<asrwt>0</asrwt>
<pdfrwt beam="1">  1       21 0.15944747E-01 0.23670265E+03</pdfrwt>
<pdfrwt beam="2">  1       21 0.95650931E-01 0.23670265E+03</pdfrwt>
<totfact> 0.31251994E+04</totfact>
</mgrwt>
</event>
<event>
 4    2  0.4024741E+000  0.2490338E+03  0.7546771E-02  0.1113917E+00
         21   -1    0    0  503  502  0.00000000000E+00  0.00000000000E+00  0.14146920721E+03  0.14146920721E+03  0.00000000000E+00 0. -1.
         21   -1    0    0  501  503 -0.00000000000E+00 -0.00000000000E+00 -0.44612319014E+03  0.44612319014E+03  0.00000000000E+00 0. -1.
          6    1    1    2  501    0 -0.12074934324E+03 -0.13231939855E+03 -0.19102320544E+03  0.31385935089E+03  0.17300000000E+03 0. -1.
         -6    1    1    2    0  502  0.12074934324E+03  0.13231939855E+03 -0.11363077749E+03  0.27373304645E+03  0.17300000000E+03 0. -1.
<mgrwt>
<rscale>  2 0.24903379E+03</rscale>
<asrwt>0</asrwt>
<pdfrwt beam="1">  1       21 0.21764493E-01 0.24903379E+03</pdfrwt>
<pdfrwt beam="2">  1       21 0.68634337E-01 0.24903379E+03</pdfrwt>
<totfact> 0.37092999E+04</totfact>
</mgrwt>
</event>
<event>
 4    2  0.4024741E+000  0.2496525E+03  0.7546771E-02  0.1113525E+00
         21   -1    0    0  503  502  0.00000000000E+00  0.00000000000E+00  0.68291497051E+02  0.68291497051E+02  0.00000000000E+00 0. -1.
         21   -1    0    0  501  503 -0.00000000000E+00 -0.00000000000E+00 -0.98463596549E+03  0.98463596549E+03  0.00000000000E+00 0.  1.
          6    1    1    2  501    0 -0.17875138510E+03  0.21101871306E+02 -0.31582481898E+03  0.40258125010E+03  0.17300000000E+03 0.  1.
         -6    1    1    2    0  502  0.17875138510E+03 -0.21101871306E+02 -0.60051964946E+03  0.65034621244E+03  0.17300000000E+03 0.  1.
<mgrwt>
<rscale>  2 0.24965245E+03</rscale>
<asrwt>0</asrwt>
<pdfrwt beam="1">  1       21 0.10506384E-01 0.24965245E+03</pdfrwt>
<pdfrwt beam="2">  1       21 0.15148247E+00 0.24965245E+03</pdfrwt>
<totfact> 0.20916860E+04</totfact>
</mgrwt>
</event>
<event>
 4    2  0.4024741E+000  0.1836163E+03  0.7546771E-02  0.1164348E+00
         21   -1    0    0  503  502  0.00000000000E+00  0.00000000000E+00  0.83126307771E+03  0.83126307771E+03  0.00000000000E+00 0.  1.
         21   -1    0    0  501  503 -0.00000000000E+00 -0.00000000000E+00 -0.81082093109E+02  0.81082093109E+02  0.00000000000E+00 0. -1.
          6    1    1    2  501    0  0.56470761447E+02 -0.24433851864E+02  0.52598049720E+02  0.19100134777E+03  0.17300000000E+03 0. -1.
         -6    1    1    2    0  502 -0.56470761447E+02  0.24433851864E+02  0.69758293488E+03  0.72134382305E+03  0.17300000000E+03 0.  1.
<mgrwt>
<rscale>  2 0.18361634E+03</rscale>
<asrwt>0</asrwt>
<pdfrwt beam="1">  1       21 0.12788662E+00 0.18361634E+03</pdfrwt>
<pdfrwt beam="2">  1       21 0.12474169E-01 0.18361634E+03</pdfrwt>
<totfact> 0.24799054E+04</totfact>
</mgrwt>
</event>
<event>
 4    2  0.4024741E+000  0.2285853E+03  0.7546771E-02  0.1127639E+00
         21   -1    0    0  503  502  0.00000000000E+00  0.00000000000E+00  0.21995539854E+03  0.21995539854E+03  0.00000000000E+00 0. -1.
         21   -1    0    0  501  503 -0.00000000000E+00 -0.00000000000E+00 -0.24372071036E+03  0.24372071036E+03  0.00000000000E+00 0. -1.
          6    1    1    2  501    0 -0.28485642209E+02  0.14666564065E+03 -0.48761061038E+02  0.23372822472E+03  0.17300000000E+03 0. -1.
         -6    1    1    2    0  502  0.28485642209E+02 -0.14666564065E+03  0.24995749225E+02  0.22994788418E+03  0.17300000000E+03 0. -1.
<mgrwt>
<rscale>  2 0.22858531E+03</rscale>
<asrwt>0</asrwt>
<pdfrwt beam="1">  1       21 0.33839292E-01 0.22858531E+03</pdfrwt>
<pdfrwt beam="2">  1       21 0.37495494E-01 0.22858531E+03</pdfrwt>
<totfact> 0.56787173E+04</totfact>
</mgrwt>
</event>
<event>
 4    2  0.4024741E+000  0.2423264E+03  0.7546771E-02  0.1118253E+00
         21   -1    0    0  503  502  0.00000000000E+00  0.00000000000E+00  0.41957370910E+03  0.41957370910E+03  0.00000000000E+00 0.  1.
         21   -1    0    0  501  503 -0.00000000000E+00 -0.00000000000E+00 -0.14070423823E+03  0.14070423823E+03  0.00000000000E+00 0. -1.
          6    1    1    2  501    0 -0.15747077750E+03 -0.63214360171E+02  0.11901398486E+03  0.26997486863E+03  0.17300000000E+03 0. -1.
         -6    1    1    2    0  502  0.15747077750E+03  0.63214360171E+02  0.15985548602E+03  0.29030307871E+03  0.17300000000E+03 0.  1.
<mgrwt>
<rscale>  2 0.24232643E+03</rscale>
<asrwt>0</asrwt>
<pdfrwt beam="1">  1       21 0.64549801E-01 0.24232643E+03</pdfrwt>
<pdfrwt beam="2">  1       21 0.21646806E-01 0.24232643E+03</pdfrwt>
<totfact> 0.43012108E+04</totfact>
</mgrwt>
</event>
<event>
 4    2  0.4024741E+000  0.2261475E+03  0.7546771E-02  0.1129381E+00
         21   -1    0    0  501  502  0.00000000000E+00  0.00000000000E+00  0.66024368647E+03  0.66024368647E+03  0.00000000000E+00 0.  1.
         21   -1    0    0  502  503 -0.00000000000E+00 -0.00000000000E+00 -0.77469840837E+02  0.77469840837E+02  0.00000000000E+00 0. -1.
          6    1    1    2  501    0  0.30020292910E+02 -0.14252189025E+03  0.28730430665E+03  0.36563160668E+03  0.17300000000E+03 0.  1.
         -6    1    1    2    0  503 -0.30020292910E+02  0.14252189025E+03  0.29546953898E+03  0.37208192062E+03  0.17300000000E+03 0.  1.
<mgrwt>
<rscale>  2 0.22614753E+03</rscale>
<asrwt>0</asrwt>
<pdfrwt beam="1">  1       21 0.10157595E+00 0.22614753E+03</pdfrwt>
<pdfrwt beam="2">  1       21 0.11918437E-01 0.22614753E+03</pdfrwt>
<totfact> 0.46200288E+04</totfact>
</mgrwt>
</event>
<event>
 4    2  0.4024741E+000  0.2197642E+03  0.7546771E-02  0.1134059E+00
         21   -1    0    0  501  502  0.00000000000E+00  0.00000000000E+00  0.36108783547E+03  0.36108783547E+03  0.00000000000E+00 0. -1.
         21   -1    0    0  502  503 -0.00000000000E+00 -0.00000000000E+00 -0.15018691758E+03  0.15018691758E+03  0.00000000000E+00 0. -1.
          6    1    1    2  501    0 -0.85925556357E+02 -0.10480502541E+03  0.19001520368E+03  0.29052034733E+03  0.17300000000E+03 0. -1.
         -6    1    1    2    0  503  0.85925556357E+02  0.10480502541E+03  0.20885714215E+02  0.22075440572E+03  0.17300000000E+03 0. -1.
<mgrwt>
<rscale>  2 0.21976418E+03</rscale>
<asrwt>0</asrwt>
<pdfrwt beam="1">  1       21 0.55551974E-01 0.21976418E+03</pdfrwt>
<pdfrwt beam="2">  1       21 0.23105680E-01 0.21976418E+03</pdfrwt>
<totfact> 0.53054933E+04</totfact>
</mgrwt>
</event>
<event>
 4    2  0.4024741E+000  0.1847663E+03  0.7546771E-02  0.1163268E+00
         21   -1    0    0  503  502  0.00000000000E+00  0.00000000000E+00  0.19427504259E+03  0.19427504259E+03  0.00000000000E+00 0. -1.
         21   -1    0    0  501  503 -0.00000000000E+00 -0.00000000000E+00 -0.17632170287E+03  0.17632170287E+03  0.00000000000E+00 0. -1.
          6    1    1    2  501    0 -0.52950115635E+02 -0.37495016137E+02 -0.18209674228E+01  0.18477528759E+03  0.17300000000E+03 0. -1.
         -6    1    1    2    0  502  0.52950115635E+02  0.37495016137E+02  0.19774307144E+02  0.18582145787E+03  0.17300000000E+03 0. -1.
<mgrwt>
<rscale>  2 0.18476631E+03</rscale>
<asrwt>0</asrwt>
<pdfrwt beam="1">  1       21 0.29888468E-01 0.18476631E+03</pdfrwt>
<pdfrwt beam="2">  1       21 0.27126416E-01 0.18476631E+03</pdfrwt>
<totfact> 0.13938868E+05</totfact>
</mgrwt>
</event>
<event>
 4    2  0.4024741E+000  0.1886979E+03  0.7546771E-02  0.1159641E+00
         21   -1    0    0  501  502  0.00000000000E+00  0.00000000000E+00  0.84407287368E+03  0.84407287368E+03  0.00000000000E+00 0.  1.
         21   -1    0    0  502  503 -0.00000000000E+00 -0.00000000000E+00 -0.10225447131E+03  0.10225447131E+03  0.00000000000E+00 0.  1.
          6    1    1    2  501    0 -0.73798900590E+02 -0.15219179040E+02  0.73356822281E+03  0.75744916573E+03  0.17300000000E+03 0.  1.
         -6    1    1    2    0  503  0.73798900590E+02  0.15219179040E+02  0.82501795536E+01  0.18887817926E+03  0.17300000000E+03 0.  1.
<mgrwt>
<rscale>  2 0.18869791E+03</rscale>
<asrwt>0</asrwt>
<pdfrwt beam="1">  1       21 0.12985736E+00 0.18869791E+03</pdfrwt>
<pdfrwt beam="2">  1       21 0.15731458E-01 0.18869791E+03</pdfrwt>
<totfact> 0.15630678E+04</totfact>
</mgrwt>
</event>
<event>
 4    2  0.4024741E+000  0.2259860E+03  0.7546771E-02  0.1129497E+00
         21   -1    0    0  501  502  0.00000000000E+00  0.00000000000E+00  0.48656633511E+03  0.48656633511E+03  0.00000000000E+00 0.  1.
         21   -1    0    0  502  503 -0.00000000000E+00 -0.00000000000E+00 -0.33678714780E+03  0.33678714780E+03  0.00000000000E+00 0. -1.
          6    1    1    2  501    0  0.85167656536E+02 -0.11784371734E+03  0.41644515395E+03  0.47381033936E+03  0.17300000000E+03 0.  1.
         -6    1    1    2    0  503 -0.85167656536E+02  0.11784371734E+03 -0.26666596665E+03  0.34954314355E+03  0.17300000000E+03 0. -1.
<mgrwt>
<rscale>  2 0.22598600E+03</rscale>
<asrwt>0</asrwt>
<pdfrwt beam="1">  1       21 0.74856360E-01 0.22598600E+03</pdfrwt>
<pdfrwt beam="2">  1       21 0.51813407E-01 0.22598600E+03</pdfrwt>
<totfact> 0.55114427E+03</totfact>
</mgrwt>
</event>
<event>
 4    2  0.4024741E+000  0.1940677E+03  0.7546771E-02  0.1154843E+00
         21   -1    0    0  501  502  0.00000000000E+00  0.00000000000E+00  0.68676691528E+02  0.68676691528E+02  0.00000000000E+00 0.  1.
         21   -1    0    0  502  503 -0.00000000000E+00 -0.00000000000E+00 -0.65478829987E+03  0.65478829987E+03  0.00000000000E+00 0.  1.
          6    1    1    2  501    0 -0.71563419854E+02 -0.51107152735E+02 -0.14724657979E+03  0.24360586894E+03  0.17300000000E+03 0.  1.
         -6    1    1    2    0  503  0.71563419854E+02  0.51107152735E+02 -0.43886502855E+03  0.47985912246E+03  0.17300000000E+03 0.  1.
<mgrwt>
<rscale>  2 0.19406768E+03</rscale>
<asrwt>0</asrwt>
<pdfrwt beam="1">  1       21 0.10565645E-01 0.19406768E+03</pdfrwt>
<pdfrwt beam="2">  1       21 0.10073666E+00 0.19406768E+03</pdfrwt>
<totfact> 0.59351267E+04</totfact>
</mgrwt>
</event>
<event>
 4    2  0.4024741E+000  0.1845967E+03  0.7546771E-02  0.1163427E+00
         21   -1    0    0  503  502  0.00000000000E+00  0.00000000000E+00  0.29221174315E+02  0.29221174315E+02  0.00000000000E+00 0.  1.
         21   -1    0    0  501  503 -0.00000000000E+00 -0.00000000000E+00 -0.11664949808E+04  0.11664949808E+04  0.00000000000E+00 0.  1.
          6    1    1    2  501    0  0.55673241478E+02 -0.32363790767E+02 -0.55817967190E+03  0.58791195845E+03  0.17300000000E+03 0.  1.
         -6    1    1    2    0  502 -0.55673241478E+02  0.32363790767E+02 -0.57909413457E+03  0.60780419665E+03  0.17300000000E+03 0.  1.
<mgrwt>
<rscale>  2 0.18459665E+03</rscale>
<asrwt>0</asrwt>
<pdfrwt beam="1">  1       21 0.44955662E-02 0.18459665E+03</pdfrwt>
<pdfrwt beam="2">  1       21 0.17946073E+00 0.18459665E+03</pdfrwt>
<totfact> 0.59367517E+04</totfact>
</mgrwt>
</event>
<event>
 4    2  0.4024741E+000  0.1740791E+03  0.7546771E-02  0.1173660E+00
         21   -1    0    0  503  502  0.00000000000E+00  0.00000000000E+00  0.14107344887E+03  0.14107344887E+03  0.00000000000E+00 0. -1.
         21   -1    0    0  501  503 -0.00000000000E+00 -0.00000000000E+00 -0.27819921032E+03  0.27819921032E+03  0.00000000000E+00 0. -1.
          6    1    1    2  501    0  0.13323673851E+02  0.14035535435E+02 -0.16863375837E+03  0.24236513982E+03  0.17300000000E+03 0. -1.
         -6    1    1    2    0  502 -0.13323673851E+02 -0.14035535435E+02  0.31507996914E+02  0.17690751937E+03  0.17300000000E+03 0. -1.
<mgrwt>
<rscale>  2 0.17407905E+03</rscale>
<asrwt>0</asrwt>
<pdfrwt beam="1">  1       21 0.21703608E-01 0.17407905E+03</pdfrwt>
<pdfrwt beam="2">  1       21 0.42799878E-01 0.17407905E+03</pdfrwt>
<totfact> 0.10470223E+05</totfact>
</mgrwt>
</event>
<event>
 4    2  0.4024741E+000  0.1794914E+03  0.7546771E-02  0.1168296E+00
         21   -1    0    0  503  502  0.00000000000E+00  0.00000000000E+00  0.15669364589E+03  0.15669364589E+03  0.00000000000E+00 0.  1.
         21   -1    0    0  501  503 -0.00000000000E+00 -0.00000000000E+00 -0.10304001644E+04  0.10304001644E+04  0.00000000000E+00 0.  1.
          6    1    1    2  501    0  0.47577007242E+02  0.49586299271E+01 -0.96789036136E+03  0.98439266111E+03  0.17300000000E+03 0.  1.
         -6    1    1    2    0  502 -0.47577007242E+02 -0.49586299271E+01  0.94183842850E+02  0.20270114919E+03  0.17300000000E+03 0.  1.
<mgrwt>
<rscale>  2 0.17949139E+03</rscale>
<asrwt>0</asrwt>
<pdfrwt beam="1">  1       21 0.24106714E-01 0.17949139E+03</pdfrwt>
<pdfrwt beam="2">  1       21 0.15852311E+00 0.17949139E+03</pdfrwt>
<totfact> 0.42391072E+03</totfact>
</mgrwt>
</event>
<event>
 4    2  0.4024741E+000  0.1786999E+03  0.7546771E-02  0.1169067E+00
         21   -1    0    0  503  502  0.00000000000E+00  0.00000000000E+00  0.59777366932E+03  0.59777366932E+03  0.00000000000E+00 0.  1.
         21   -1    0    0  501  503 -0.00000000000E+00 -0.00000000000E+00 -0.55520207269E+02  0.55520207269E+02  0.00000000000E+00 0. -1.
          6    1    1    2  501    0  0.40090170716E+02  0.19935597005E+02  0.33464281577E+03  0.37936718883E+03  0.17300000000E+03 0. -1.
         -6    1    1    2    0  502 -0.40090170716E+02 -0.19935597005E+02  0.20761064628E+03  0.27392668775E+03  0.17300000000E+03 0.  1.
<mgrwt>
<rscale>  2 0.17869989E+03</rscale>
<asrwt>0</asrwt>
<pdfrwt beam="1">  1       21 0.91965175E-01 0.17869989E+03</pdfrwt>
<pdfrwt beam="2">  1       21 0.85415708E-02 0.17869989E+03</pdfrwt>
<totfact> 0.10755610E+05</totfact>
</mgrwt>
</event>
<event>
 4    2  0.4024741E+000  0.1818994E+03  0.7546771E-02  0.1165977E+00
         21   -1    0    0  503  502  0.00000000000E+00  0.00000000000E+00  0.69620462086E+02  0.69620462086E+02  0.00000000000E+00 0. -1.
         21   -1    0    0  501  503 -0.00000000000E+00 -0.00000000000E+00 -0.10282046365E+04  0.10282046365E+04  0.00000000000E+00 0. -1.
          6    1    1    2  501    0  0.52665712153E+02  0.19614355557E+02 -0.88182980351E+03  0.90039502583E+03  0.17300000000E+03 0. -1.
         -6    1    1    2    0  502 -0.52665712153E+02 -0.19614355557E+02 -0.76754370925E+02  0.19743007278E+03  0.17300000000E+03 0. -1.
<mgrwt>
<rscale>  2 0.18189942E+03</rscale>
<asrwt>0</asrwt>
<pdfrwt beam="1">  1       21 0.10710840E-01 0.18189942E+03</pdfrwt>
<pdfrwt beam="2">  1       21 0.15818533E+00 0.18189942E+03</pdfrwt>
<totfact> 0.18789659E+04</totfact>
</mgrwt>
</event>
<event>
 4    2  0.4024741E+000  0.3367644E+03  0.7546771E-02  0.1068182E+00
         21   -1    0    0  503  502  0.00000000000E+00  0.00000000000E+00  0.10655855643E+04  0.10655855643E+04  0.00000000000E+00 0.  1.
         21   -1    0    0  501  503 -0.00000000000E+00 -0.00000000000E+00 -0.11615595384E+03  0.11615595384E+03  0.00000000000E+00 0. -1.
          6    1    1    2  501    0  0.26750958598E+03  0.10917809390E+03  0.64569217585E+03  0.72823665160E+03  0.17300000000E+03 0.  1.
         -6    1    1    2    0  502 -0.26750958598E+03 -0.10917809390E+03  0.30373743458E+03  0.45350486650E+03  0.17300000000E+03 0. -1.
<mgrwt>
<rscale>  2 0.33676436E+03</rscale>
<asrwt>0</asrwt>
<pdfrwt beam="1">  1       21 0.16393623E+00 0.33676436E+03</pdfrwt>
<pdfrwt beam="2">  1       21 0.17870147E-01 0.33676436E+03</pdfrwt>
<totfact> 0.61185013E+03</totfact>
</mgrwt>
</event>
<event>
 4    2  0.4024741E+000  0.1992834E+03  0.7546771E-02  0.1150345E+00
         21   -1    0    0  501  502  0.00000000000E+00  0.00000000000E+00  0.68848318094E+03  0.68848318094E+03  0.00000000000E+00 0.  1.
         21   -1    0    0  502  503 -0.00000000000E+00 -0.00000000000E+00 -0.65842646254E+02  0.65842646254E+02  0.00000000000E+00 0. -1.
          6    1    1    2  501    0 -0.52221109852E+02 -0.84010889634E+02  0.44409248192E+03  0.48675661925E+03  0.17300000000E+03 0.  1.
         -6    1    1    2    0  503  0.52221109852E+02  0.84010889634E+02  0.17854805277E+03  0.26756920794E+03  0.17300000000E+03 0. -1.
<mgrwt>
<rscale>  2 0.19928340E+03</rscale>
<asrwt>0</asrwt>
<pdfrwt beam="1">  1       21 0.10592048E+00 0.19928340E+03</pdfrwt>
<pdfrwt beam="2">  1       21 0.10129638E-01 0.19928340E+03</pdfrwt>
<totfact> 0.56558922E+04</totfact>
</mgrwt>
</event>
<event>
 4    2  0.4024741E+000  0.1965054E+03  0.7546771E-02  0.1152721E+00
         21   -1    0    0  501  502  0.00000000000E+00  0.00000000000E+00  0.15051696453E+03  0.15051696453E+03  0.00000000000E+00 0. -1.
         21   -1    0    0  502  503 -0.00000000000E+00 -0.00000000000E+00 -0.28780653465E+03  0.28780653465E+03  0.00000000000E+00 0.  1.
          6    1    1    2  501    0 -0.12688413943E+02  0.92327463317E+02  0.35856826013E+01  0.19653807125E+03  0.17300000000E+03 0. -1.
         -6    1    1    2    0  503  0.12688413943E+02 -0.92327463317E+02 -0.14087525272E+03  0.24178542793E+03  0.17300000000E+03 0.  1.
<mgrwt>
<rscale>  2 0.19650536E+03</rscale>
<asrwt>0</asrwt>
<pdfrwt beam="1">  1       21 0.23156456E-01 0.19650536E+03</pdfrwt>
<pdfrwt beam="2">  1       21 0.44277929E-01 0.19650536E+03</pdfrwt>
<totfact> 0.85695135E+04</totfact>
</mgrwt>
</event>
<event>
 4    2  0.4024741E+000  0.1731933E+03  0.7546771E-02  0.1174558E+00
         21   -1    0    0  501  502  0.00000000000E+00  0.00000000000E+00  0.42553989583E+03  0.42553989583E+03  0.00000000000E+00 0.  1.
         21   -1    0    0  502  503 -0.00000000000E+00 -0.00000000000E+00 -0.88422493412E+02  0.88422493412E+02  0.00000000000E+00 0.  1.
          6    1    1    2  501    0 -0.57813656036E+01 -0.57860640215E+01  0.52827138864E+02  0.18107073017E+03  0.17300000000E+03 0. -1.
         -6    1    1    2    0  503  0.57813656036E+01  0.57860640215E+01  0.28429026355E+03  0.33289165906E+03  0.17300000000E+03 0. -1.
<mgrwt>
<rscale>  2 0.17319325E+03</rscale>
<asrwt>0</asrwt>
<pdfrwt beam="1">  1       21 0.65467675E-01 0.17319325E+03</pdfrwt>
<pdfrwt beam="2">  1       21 0.13603461E-01 0.17319325E+03</pdfrwt>
<totfact> 0.10126212E+05</totfact>
</mgrwt>
</event>
<event>
 4    2  0.4024741E+000  0.1852323E+03  0.7546771E-02  0.1162833E+00
         21   -1    0    0  501  502  0.00000000000E+00  0.00000000000E+00  0.34912128934E+03  0.34912128934E+03  0.00000000000E+00 0. -1.
         21   -1    0    0  502  503 -0.00000000000E+00 -0.00000000000E+00 -0.98291069073E+02  0.98291069073E+02  0.00000000000E+00 0.  1.
          6    1    1    2  501    0  0.59998149850E+02  0.27968039212E+02  0.12798129974E+03  0.22514484735E+03  0.17300000000E+03 0.  1.
         -6    1    1    2    0  503 -0.59998149850E+02 -0.27968039212E+02  0.12284892053E+03  0.22226751107E+03  0.17300000000E+03 0.  1.
<mgrwt>
<rscale>  2 0.18523226E+03</rscale>
<asrwt>0</asrwt>
<pdfrwt beam="1">  1       21 0.53710967E-01 0.18523226E+03</pdfrwt>
<pdfrwt beam="2">  1       21 0.15121703E-01 0.18523226E+03</pdfrwt>
<totfact> 0.12709173E+05</totfact>
</mgrwt>
</event>
<event>
 4    2  0.4024741E+000  0.1856334E+03  0.7546771E-02  0.1162460E+00
         21   -1    0    0  503  502  0.00000000000E+00  0.00000000000E+00  0.47042820425E+03  0.47042820425E+03  0.00000000000E+00 0. -1.
         21   -1    0    0  501  503 -0.00000000000E+00 -0.00000000000E+00 -0.96513055682E+02  0.96513055682E+02  0.00000000000E+00 0. -1.
          6    1    1    2  501    0 -0.66027696946E+02 -0.13080688415E+02  0.47792372995E+02  0.19168691163E+03  0.17300000000E+03 0. -1.
         -6    1    1    2    0  502  0.66027696946E+02  0.13080688415E+02  0.32612277557E+03  0.37525434830E+03  0.17300000000E+03 0. -1.
<mgrwt>
<rscale>  2 0.18563341E+03</rscale>
<asrwt>0</asrwt>
<pdfrwt beam="1">  1       21 0.72373568E-01 0.18563341E+03</pdfrwt>
<pdfrwt beam="2">  1       21 0.14848163E-01 0.18563341E+03</pdfrwt>
<totfact> 0.68991589E+04</totfact>
</mgrwt>
</event>
<event>
 4    2  0.4024741E+000  0.2928711E+03  0.7546771E-02  0.1088860E+00
         21   -1    0    0  501  502  0.00000000000E+00  0.00000000000E+00  0.36286605412E+03  0.36286605412E+03  0.00000000000E+00 0.  1.
         21   -1    0    0  502  503 -0.00000000000E+00 -0.00000000000E+00 -0.24852984390E+03  0.24852984390E+03  0.00000000000E+00 0. -1.
          6    1    1    2  501    0  0.23467397247E+03 -0.27795758798E+02  0.12476519741E+03  0.31833917768E+03  0.17300000000E+03 0.  1.
         -6    1    1    2    0  503 -0.23467397247E+03  0.27795758798E+02 -0.10428987190E+02  0.29305672034E+03  0.17300000000E+03 0. -1.
<mgrwt>
<rscale>  2 0.29287109E+03</rscale>
<asrwt>0</asrwt>
<pdfrwt beam="1">  1       21 0.55825546E-01 0.29287109E+03</pdfrwt>
<pdfrwt beam="2">  1       21 0.38235361E-01 0.29287109E+03</pdfrwt>
<totfact> 0.18951701E+04</totfact>
</mgrwt>
</event>
<event>
 4    2  0.4024741E+000  0.1760999E+03  0.7546771E-02  0.1171632E+00
         21   -1    0    0  503  502  0.00000000000E+00  0.00000000000E+00  0.27334523652E+03  0.27334523652E+03  0.00000000000E+00 0. -1.
         21   -1    0    0  501  503 -0.00000000000E+00 -0.00000000000E+00 -0.24159067584E+03  0.24159067584E+03  0.00000000000E+00 0. -1.
          6    1    1    2  501    0 -0.30731769068E+02  0.11735678603E+02 -0.17163325426E+03  0.24590474121E+03  0.17300000000E+03 0. -1.
         -6    1    1    2    0  502  0.30731769068E+02 -0.11735678603E+02  0.20338781494E+03  0.26903117114E+03  0.17300000000E+03 0. -1.
<mgrwt>
<rscale>  2 0.17609988E+03</rscale>
<asrwt>0</asrwt>
<pdfrwt beam="1">  1       21 0.42053113E-01 0.17609988E+03</pdfrwt>
<pdfrwt beam="2">  1       21 0.37167796E-01 0.17609988E+03</pdfrwt>
<totfact> 0.38316855E+04</totfact>
</mgrwt>
</event>
<event>
 4    2  0.4024741E+000  0.2513960E+03  0.7546771E-02  0.1112426E+00
         21   -1    0    0  501  502  0.00000000000E+00  0.00000000000E+00  0.40114822646E+03  0.40114822646E+03  0.00000000000E+00 0.  1.
         21   -1    0    0  502  503 -0.00000000000E+00 -0.00000000000E+00 -0.32489678913E+03  0.32489678913E+03  0.00000000000E+00 0.  1.
          6    1    1    2  501    0  0.18019559020E+03 -0.28293301303E+02 -0.22241318434E+03  0.33565992641E+03  0.17300000000E+03 0.  1.
         -6    1    1    2    0  503 -0.18019559020E+03  0.28293301303E+02  0.29866462167E+03  0.39038508919E+03  0.17300000000E+03 0.  1.
<mgrwt>
<rscale>  2 0.25139603E+03</rscale>
<asrwt>0</asrwt>
<pdfrwt beam="1">  1       21 0.61715111E-01 0.25139603E+03</pdfrwt>
<pdfrwt beam="2">  1       21 0.49984122E-01 0.25139603E+03</pdfrwt>
<totfact> 0.89589937E+03</totfact>
</mgrwt>
</event>
<event>
 4    2  0.4024741E+000  0.1936602E+03  0.7546771E-02  0.1155201E+00
         21   -1    0    0  501  502  0.00000000000E+00  0.00000000000E+00  0.56357065851E+03  0.56357065851E+03  0.00000000000E+00 0. -1.
         21   -1    0    0  502  503 -0.00000000000E+00 -0.00000000000E+00 -0.22777091890E+03  0.22777091890E+03  0.00000000000E+00 0.  1.
          6    1    1    2  501    0  0.59052561742E+02  0.63937937709E+02  0.50078837868E+03  0.53692947875E+03  0.17300000000E+03 0. -1.
         -6    1    1    2    0  503 -0.59052561742E+02 -0.63937937709E+02 -0.16498863907E+03  0.25441209867E+03  0.17300000000E+03 0.  1.
<mgrwt>
<rscale>  2 0.19366018E+03</rscale>
<asrwt>0</asrwt>
<pdfrwt beam="1">  1       21 0.86703178E-01 0.19366018E+03</pdfrwt>
<pdfrwt beam="2">  1       21 0.35041680E-01 0.19366018E+03</pdfrwt>
<totfact> 0.89831444E+03</totfact>
</mgrwt>
</event>
<event>
 4    2  0.4024741E+000  0.2425084E+03  0.7546771E-02  0.1118133E+00
         21   -1    0    0  503  502  0.00000000000E+00  0.00000000000E+00  0.55026292741E+02  0.55026292741E+02  0.00000000000E+00 0.  1.
         21   -1    0    0  501  503 -0.00000000000E+00 -0.00000000000E+00 -0.11934869935E+04  0.11934869935E+04  0.00000000000E+00 0. -1.
          6    1    1    2  501    0 -0.16785666314E+03  0.26560939958E+02 -0.77103007134E+03  0.80826834269E+03  0.17300000000E+03 0. -1.
         -6    1    1    2    0  502  0.16785666314E+03 -0.26560939958E+02 -0.36743062947E+03  0.44024494360E+03  0.17300000000E+03 0.  1.
<mgrwt>
<rscale>  2 0.24250844E+03</rscale>
<asrwt>0</asrwt>
<pdfrwt beam="1">  1       21 0.84655835E-02 0.24250844E+03</pdfrwt>
<pdfrwt beam="2">  1       21 0.18361338E+00 0.24250844E+03</pdfrwt>
<totfact> 0.18077732E+04</totfact>
</mgrwt>
</event>
<event>
 4    2  0.4024741E+000  0.2898486E+03  0.7546771E-02  0.1090428E+00
         21   -1    0    0  501  502  0.00000000000E+00  0.00000000000E+00  0.14142627898E+03  0.14142627898E+03  0.00000000000E+00 0. -1.
         21   -1    0    0  502  503 -0.00000000000E+00 -0.00000000000E+00 -0.70040413863E+03  0.70040413863E+03  0.00000000000E+00 0.  1.
          6    1    1    2  501    0  0.22090186899E+03 -0.72702008980E+02 -0.11545743315E+03  0.31199781522E+03  0.17300000000E+03 0.  1.
         -6    1    1    2    0  503 -0.22090186899E+03  0.72702008980E+02 -0.44352042650E+03  0.52983260239E+03  0.17300000000E+03 0.  1.
<mgrwt>
<rscale>  2 0.28984861E+03</rscale>
<asrwt>0</asrwt>
<pdfrwt beam="1">  1       21 0.21757889E-01 0.28984861E+03</pdfrwt>
<pdfrwt beam="2">  1       21 0.10775448E+00 0.28984861E+03</pdfrwt>
<totfact> 0.12802842E+04</totfact>
</mgrwt>
</event>
<event>
 4    2  0.4024741E+000  0.2145272E+03  0.7546771E-02  0.1138030E+00
         21   -1    0    0  503  502  0.00000000000E+00  0.00000000000E+00  0.30229056864E+03  0.30229056864E+03  0.00000000000E+00 0. -1.
         21   -1    0    0  501  503 -0.00000000000E+00 -0.00000000000E+00 -0.66913915793E+03  0.66913915793E+03  0.00000000000E+00 0.  1.
          6    1    1    2  501    0 -0.11389885042E+03  0.55856585852E+02 -0.61032259832E+03  0.64692780148E+03  0.17300000000E+03 0.  1.
         -6    1    1    2    0  502  0.11389885042E+03 -0.55856585852E+02  0.24347400904E+03  0.32450192509E+03  0.17300000000E+03 0. -1.
<mgrwt>
<rscale>  2 0.21452717E+03</rscale>
<asrwt>0</asrwt>
<pdfrwt beam="1">  1       21 0.46506241E-01 0.21452717E+03</pdfrwt>
<pdfrwt beam="2">  1       21 0.10294449E+00 0.21452717E+03</pdfrwt>
<totfact> 0.33316683E+03</totfact>
</mgrwt>
</event>
<event>
 4    2  0.4024741E+000  0.1990057E+03  0.7546771E-02  0.1150581E+00
         21   -1    0    0  501  502  0.00000000000E+00  0.00000000000E+00  0.27110659135E+03  0.27110659135E+03  0.00000000000E+00 0. -1.
         21   -1    0    0  502  503 -0.00000000000E+00 -0.00000000000E+00 -0.17594479367E+03  0.17594479367E+03  0.00000000000E+00 0. -1.
          6    1    1    2  501    0  0.39505043923E+02 -0.90075615422E+02  0.13967220218E+03  0.24312874995E+03  0.17300000000E+03 0. -1.
         -6    1    1    2    0  503 -0.39505043923E+02  0.90075615422E+02 -0.44510404493E+02  0.20392263508E+03  0.17300000000E+03 0. -1.
<mgrwt>
<rscale>  2 0.19900569E+03</rscale>
<asrwt>0</asrwt>
<pdfrwt beam="1">  1       21 0.41708706E-01 0.19900569E+03</pdfrwt>
<pdfrwt beam="2">  1       21 0.27068430E-01 0.19900569E+03</pdfrwt>
<totfact> 0.71771551E+04</totfact>
</mgrwt>
</event>
<event>
 4    2  0.4024741E+000  0.1752444E+03  0.7546771E-02  0.1172487E+00
         21   -1    0    0  503  502  0.00000000000E+00  0.00000000000E+00  0.37067722471E+02  0.37067722471E+02  0.00000000000E+00 0. -1.
         21   -1    0    0  501  503 -0.00000000000E+00 -0.00000000000E+00 -0.84019305767E+03  0.84019305767E+03  0.00000000000E+00 0. -1.
          6    1    1    2  501    0  0.27569377785E+02  0.46388291834E+01 -0.34981597372E+03  0.39125669937E+03  0.17300000000E+03 0.  1.
         -6    1    1    2    0  502 -0.27569377785E+02 -0.46388291834E+01 -0.45330936147E+03  0.48600408077E+03  0.17300000000E+03 0.  1.
<mgrwt>
<rscale>  2 0.17524437E+03</rscale>
<asrwt>0</asrwt>
<pdfrwt beam="1">  1       21 0.57027266E-02 0.17524437E+03</pdfrwt>
<pdfrwt beam="2">  1       21 0.12926047E+00 0.17524437E+03</pdfrwt>
<totfact> 0.95062630E+04</totfact>
</mgrwt>
</event>
<event>
 4    2  0.4024741E+000  0.1806103E+03  0.7546771E-02  0.1167214E+00
         21   -1    0    0  503  502  0.00000000000E+00  0.00000000000E+00  0.44949996601E+02  0.44949996601E+02  0.00000000000E+00 0. -1.
         21   -1    0    0  501  503 -0.00000000000E+00 -0.00000000000E+00 -0.11023651609E+04  0.11023651609E+04  0.00000000000E+00 0. -1.
          6    1    1    2  501    0 -0.30320934223E+02 -0.42091750882E+02 -0.86403532985E+03  0.88271010291E+03  0.17300000000E+03 0. -1.
         -6    1    1    2    0  502  0.30320934223E+02  0.42091750882E+02 -0.19337983444E+03  0.26460505459E+03  0.17300000000E+03 0. -1.
<mgrwt>
<rscale>  2 0.18061028E+03</rscale>
<asrwt>0</asrwt>
<pdfrwt beam="1">  1       21 0.69153841E-02 0.18061028E+03</pdfrwt>
<pdfrwt beam="2">  1       21 0.16959464E+00 0.18061028E+03</pdfrwt>
<totfact> 0.33438307E+04</totfact>
</mgrwt>
</event>
<event>
 4    2  0.4024741E+000  0.1938382E+03  0.7546771E-02  0.1155044E+00
         21   -1    0    0  501  502  0.00000000000E+00  0.00000000000E+00  0.62442009928E+02  0.62442009928E+02  0.00000000000E+00 0.  1.
         21   -1    0    0  502  503 -0.00000000000E+00 -0.00000000000E+00 -0.16443753932E+04  0.16443753932E+04  0.00000000000E+00 0. -1.
          6    1    1    2  501    0  0.51744525775E+02  0.70475129628E+02 -0.11141129505E+03  0.22357485661E+03  0.17300000000E+03 0. -1.
         -6    1    1    2    0  503 -0.51744525775E+02 -0.70475129628E+02 -0.14705220882E+04  0.14832425465E+04  0.17300000000E+03 0. -1.
<mgrwt>
<rscale>  2 0.19383818E+03</rscale>
<asrwt>0</asrwt>
<pdfrwt beam="1">  1       21 0.96064644E-02 0.19383818E+03</pdfrwt>
<pdfrwt beam="2">  1       21 0.25298080E+00 0.19383818E+03</pdfrwt>
<totfact> 0.55560263E+03</totfact>
</mgrwt>
</event>
<event>
 4    2  0.4024741E+000  0.1746529E+03  0.7546771E-02  0.1173081E+00
         21   -1    0    0  501  502  0.00000000000E+00  0.00000000000E+00  0.13384204866E+03  0.13384204866E+03  0.00000000000E+00 0.  1.
         21   -1    0    0  502  503 -0.00000000000E+00 -0.00000000000E+00 -0.37723868203E+03  0.37723868203E+03  0.00000000000E+00 0.  1.
          6    1    1    2  501    0  0.19254598897E+02  0.14278791065E+02 -0.28247626093E+03  0.33210911075E+03  0.17300000000E+03 0.  1.
         -6    1    1    2    0  503 -0.19254598897E+02 -0.14278791065E+02  0.39079627568E+02  0.17897161994E+03  0.17300000000E+03 0.  1.
<mgrwt>
<rscale>  2 0.17465287E+03</rscale>
<asrwt>0</asrwt>
<pdfrwt beam="1">  1       21 0.20591085E-01 0.17465287E+03</pdfrwt>
<pdfrwt beam="2">  1       21 0.58036719E-01 0.17465287E+03</pdfrwt>
<totfact> 0.61320220E+04</totfact>
</mgrwt>
</event>
<event>
 4    2  0.4024741E+000  0.3087249E+03  0.7546771E-02  0.1080959E+00
         21   -1    0    0  503  502  0.00000000000E+00  0.00000000000E+00  0.14692111395E+03  0.14692111395E+03  0.00000000000E+00 0.  1.
         21   -1    0    0  501  503 -0.00000000000E+00 -0.00000000000E+00 -0.72187671767E+03  0.72187671767E+03  0.00000000000E+00 0. -1.
          6    1    1    2  501    0 -0.11422330821E+03 -0.22876870664E+03 -0.14919256088E+03  0.34288409922E+03  0.17300000000E+03 0.  1.
         -6    1    1    2    0  502  0.11422330821E+03  0.22876870664E+03 -0.42576304284E+03  0.52591373240E+03  0.17300000000E+03 0. -1.
<mgrwt>
<rscale>  2 0.30872493E+03</rscale>
<asrwt>0</asrwt>
<pdfrwt beam="1">  1       21 0.22603248E-01 0.30872493E+03</pdfrwt>
<pdfrwt beam="2">  1       21 0.11105796E+00 0.30872493E+03</pdfrwt>
<totfact> 0.10962152E+04</totfact>
</mgrwt>
</event>
<event>
 4    2  0.4024741E+000  0.1950848E+03  0.7546771E-02  0.1153953E+00
         21   -1    0    0  501  502  0.00000000000E+00  0.00000000000E+00  0.42882572423E+03  0.42882572423E+03  0.00000000000E+00 0. -1.
         21   -1    0    0  502  503 -0.00000000000E+00 -0.00000000000E+00 -0.10720650618E+03  0.10720650618E+03  0.00000000000E+00 0. -1.
          6    1    1    2  501    0  0.74619479212E+02 -0.50606461959E+02  0.27201622738E+03  0.33474006128E+03  0.17300000000E+03 0. -1.
         -6    1    1    2    0  503 -0.74619479212E+02  0.50606461959E+02  0.49602990672E+02  0.20129216913E+03  0.17300000000E+03 0. -1.
<mgrwt>
<rscale>  2 0.19508480E+03</rscale>
<asrwt>0</asrwt>
<pdfrwt beam="1">  1       21 0.65973188E-01 0.19508480E+03</pdfrwt>
<pdfrwt beam="2">  1       21 0.16493309E-01 0.19508480E+03</pdfrwt>
<totfact> 0.69516651E+04</totfact>
</mgrwt>
</event>
<event>
 4    2  0.4024741E+000  0.2159477E+03  0.7546771E-02  0.1136941E+00
         21   -1    0    0  503  502  0.00000000000E+00  0.00000000000E+00  0.47633572371E+02  0.47633572371E+02  0.00000000000E+00 0. -1.
         21   -1    0    0  501  503 -0.00000000000E+00 -0.00000000000E+00 -0.16228286324E+04  0.16228286324E+04  0.00000000000E+00 0. -1.
          6    1    1    2  501    0  0.32991101020E+02  0.12496405848E+03 -0.26151445665E+03  0.33915076248E+03  0.17300000000E+03 0. -1.
         -6    1    1    2    0  502 -0.32991101020E+02 -0.12496405848E+03 -0.13136806034E+04  0.13313114423E+04  0.17300000000E+03 0. -1.
<mgrwt>
<rscale>  2 0.21594775E+03</rscale>
<asrwt>0</asrwt>
<pdfrwt beam="1">  1       21 0.73282404E-02 0.21594775E+03</pdfrwt>
<pdfrwt beam="2">  1       21 0.24966599E+00 0.21594775E+03</pdfrwt>
<totfact> 0.91345215E+03</totfact>
</mgrwt>
</event>
<event>
 4    2  0.4024741E+000  0.2589921E+03  0.7546771E-02  0.1107750E+00
         21   -1    0    0  501  502  0.00000000000E+00  0.00000000000E+00  0.29789515754E+03  0.29789515754E+03  0.00000000000E+00 0. -1.
         21   -1    0    0  502  503 -0.00000000000E+00 -0.00000000000E+00 -0.33391647456E+03  0.33391647456E+03  0.00000000000E+00 0.  1.
          6    1    1    2  501    0  0.61335501617E+02 -0.18271800206E+03  0.16226921057E+03  0.30562756540E+03  0.17300000000E+03 0. -1.
         -6    1    1    2    0  503 -0.61335501617E+02  0.18271800206E+03 -0.19829052759E+03  0.32618406670E+03  0.17300000000E+03 0.  1.
<mgrwt>
<rscale>  2 0.25899211E+03</rscale>
<asrwt>0</asrwt>
<pdfrwt beam="1">  1       21 0.45830024E-01 0.25899211E+03</pdfrwt>
<pdfrwt beam="2">  1       21 0.51371765E-01 0.25899211E+03</pdfrwt>
<totfact> 0.15834868E+04</totfact>
</mgrwt>
</event>
<event>
 4    2  0.4024741E+000  0.1737223E+03  0.7546771E-02  0.1174021E+00
         21   -1    0    0  503  502  0.00000000000E+00  0.00000000000E+00  0.12634009602E+03  0.12634009602E+03  0.00000000000E+00 0. -1.
         21   -1    0    0  501  503 -0.00000000000E+00 -0.00000000000E+00 -0.50058327591E+03  0.50058327591E+03  0.00000000000E+00 0. -1.
          6    1    1    2  501    0 -0.54275498306E+00  0.15815627954E+02 -0.41377143732E+03  0.44876077258E+03  0.17300000000E+03 0. -1.
         -6    1    1    2    0  502  0.54275498306E+00 -0.15815627954E+02  0.39528257427E+02  0.17816259935E+03  0.17300000000E+03 0. -1.
<mgrwt>
<rscale>  2 0.17372227E+03</rscale>
<asrwt>0</asrwt>
<pdfrwt beam="1">  1       21 0.19436938E-01 0.17372227E+03</pdfrwt>
<pdfrwt beam="2">  1       21 0.77012811E-01 0.17372227E+03</pdfrwt>
<totfact> 0.36848234E+04</totfact>
</mgrwt>
</event>
<event>
 4    2  0.4024741E+000  0.1839675E+03  0.7546771E-02  0.1164018E+00
         21   -1    0    0  501  502  0.00000000000E+00  0.00000000000E+00  0.45020126173E+03  0.45020126173E+03  0.00000000000E+00 0.  1.
         21   -1    0    0  502  503 -0.00000000000E+00 -0.00000000000E+00 -0.61934307185E+03  0.61934307185E+03  0.00000000000E+00 0.  1.
          6    1    1    2  501    0  0.52930072693E+02  0.33368397100E+02  0.41669658340E+03  0.45549981903E+03  0.17300000000E+03 0.  1.
         -6    1    1    2    0  503 -0.52930072693E+02 -0.33368397100E+02 -0.58583839353E+03  0.61404451455E+03  0.17300000000E+03 0.  1.
<mgrwt>
<rscale>  2 0.18396750E+03</rscale>
<asrwt>0</asrwt>
<pdfrwt beam="1">  1       21 0.69261733E-01 0.18396750E+03</pdfrwt>
<pdfrwt beam="2">  1       21 0.95283549E-01 0.18396750E+03</pdfrwt>
<totfact> 0.17591388E+03</totfact>
</mgrwt>
</event>
<event>
 4    2  0.4024741E+000  0.3421403E+03  0.7546771E-02  0.1065888E+00
         21   -1    0    0  503  502  0.00000000000E+00  0.00000000000E+00  0.14846264950E+04  0.14846264950E+04  0.00000000000E+00 0.  1.
         21   -1    0    0  501  503 -0.00000000000E+00 -0.00000000000E+00 -0.11337682214E+03  0.11337682214E+03  0.00000000000E+00 0.  1.
          6    1    1    2  501    0 -0.27845789273E+03 -0.97939565820E+02  0.24468850337E+03  0.42063335609E+03  0.17300000000E+03 0.  1.
         -6    1    1    2    0  502  0.27845789273E+03  0.97939565820E+02  0.11265611694E+04  0.11773699610E+04  0.17300000000E+03 0.  1.
<mgrwt>
<rscale>  2 0.34214026E+03</rscale>
<asrwt>0</asrwt>
<pdfrwt beam="1">  1       21 0.22840406E+00 0.34214026E+03</pdfrwt>
<pdfrwt beam="2">  1       21 0.17442589E-01 0.34214026E+03</pdfrwt>
<totfact> 0.23611996E+03</totfact>
</mgrwt>
</event>
<event>
 4    2  0.4024741E+000  0.2442466E+03  0.7546771E-02  0.1116996E+00
         21   -1    0    0  501  502  0.00000000000E+00  0.00000000000E+00  0.79320408682E+02  0.79320408682E+02  0.00000000000E+00 0. -1.
         21   -1    0    0  502  503 -0.00000000000E+00 -0.00000000000E+00 -0.77413498507E+03  0.77413498507E+03  0.00000000000E+00 0. -1.
          6    1    1    2  501    0 -0.16142035806E+03 -0.60587880361E+02 -0.27540347015E+03  0.36810799314E+03  0.17300000000E+03 0. -1.
         -6    1    1    2    0  503  0.16142035806E+03  0.60587880361E+02 -0.41941110624E+03  0.48534740061E+03  0.17300000000E+03 0. -1.
<mgrwt>
<rscale>  2 0.24424664E+03</rscale>
<asrwt>0</asrwt>
<pdfrwt beam="1">  1       21 0.12203139E-01 0.24424664E+03</pdfrwt>
<pdfrwt beam="2">  1       21 0.11909769E+00 0.24424664E+03</pdfrwt>
<totfact> 0.29793056E+04</totfact>
</mgrwt>
</event>
<event>
 4    2  0.4024741E+000  0.1743238E+03  0.7546771E-02  0.1173412E+00
         21   -1    0    0  501  502  0.00000000000E+00  0.00000000000E+00  0.49285572719E+02  0.49285572719E+02  0.00000000000E+00 0.  1.
         21   -1    0    0  502  503 -0.00000000000E+00 -0.00000000000E+00 -0.68024690954E+03  0.68024690954E+03  0.00000000000E+00 0.  1.
          6    1    1    2  501    0  0.13085959088E+02  0.16986214980E+02 -0.42706910034E+03  0.46127734639E+03  0.17300000000E+03 0.  1.
         -6    1    1    2    0  503 -0.13085959088E+02 -0.16986214980E+02 -0.20389223648E+03  0.26825513587E+03  0.17300000000E+03 0.  1.
<mgrwt>
<rscale>  2 0.17432376E+03</rscale>
<asrwt>0</asrwt>
<pdfrwt beam="1">  1       21 0.75823960E-02 0.17432376E+03</pdfrwt>
<pdfrwt beam="2">  1       21 0.10465337E+00 0.17432376E+03</pdfrwt>
<totfact> 0.97759840E+04</totfact>
</mgrwt>
</event>
<event>
 4    2  0.4024741E+000  0.2387048E+03  0.7546771E-02  0.1120659E+00
         21   -1    0    0  503  502  0.00000000000E+00  0.00000000000E+00  0.45530929620E+02  0.45530929620E+02  0.00000000000E+00 0.  1.
         21   -1    0    0  501  503 -0.00000000000E+00 -0.00000000000E+00 -0.12785711091E+04  0.12785711091E+04  0.00000000000E+00 0.  1.
          6    1    1    2  501    0  0.73658215534E+02  0.14705600219E+03 -0.71293111498E+03  0.75183161360E+03  0.17300000000E+03 0.  1.
         -6    1    1    2    0  502 -0.73658215534E+02 -0.14705600219E+03 -0.52010906450E+03  0.57227042512E+03  0.17300000000E+03 0.  1.
<mgrwt>
<rscale>  2 0.23870484E+03</rscale>
<asrwt>0</asrwt>
<pdfrwt beam="1">  1       21 0.70047581E-02 0.23870484E+03</pdfrwt>
<pdfrwt beam="2">  1       21 0.19670326E+00 0.23870484E+03</pdfrwt>
<totfact> 0.20632458E+04</totfact>
</mgrwt>
</event>
<event>
 4    2  0.4024741E+000  0.2007928E+03  0.7546771E-02  0.1149072E+00
         21   -1    0    0  503  502  0.00000000000E+00  0.00000000000E+00  0.18323437599E+03  0.18323437599E+03  0.00000000000E+00 0.  1.
         21   -1    0    0  501  503 -0.00000000000E+00 -0.00000000000E+00 -0.58429768136E+03  0.58429768136E+03  0.00000000000E+00 0.  1.
          6    1    1    2  501    0 -0.82955781078E+02 -0.59220642297E+02 -0.50354205237E+03  0.54209993967E+03  0.17300000000E+03 0.  1.
         -6    1    1    2    0  502  0.82955781078E+02  0.59220642297E+02  0.10247874700E+03  0.22543211767E+03  0.17300000000E+03 0.  1.
<mgrwt>
<rscale>  2 0.20079279E+03</rscale>
<asrwt>0</asrwt>
<pdfrwt beam="1">  1       21 0.28189903E-01 0.20079279E+03</pdfrwt>
<pdfrwt beam="2">  1       21 0.89891953E-01 0.20079279E+03</pdfrwt>
<totfact> 0.12599577E+04</totfact>
</mgrwt>
</event>
<event>
 4    2  0.4024741E+000  0.1824135E+03  0.7546771E-02  0.1165488E+00
         21   -1    0    0  501  502  0.00000000000E+00  0.00000000000E+00  0.12491490219E+04  0.12491490219E+04  0.00000000000E+00 0. -1.
         21   -1    0    0  502  503 -0.00000000000E+00 -0.00000000000E+00 -0.49069227074E+02  0.49069227074E+02  0.00000000000E+00 0. -1.
          6    1    1    2  501    0 -0.39728953743E+00  0.57840421256E+02  0.10389149123E+04  0.10548075024E+04  0.17300000000E+03 0. -1.
         -6    1    1    2    0  503  0.39728953743E+00 -0.57840421256E+02  0.16116488249E+03  0.24341074651E+03  0.17300000000E+03 0. -1.
<mgrwt>
<rscale>  2 0.18241346E+03</rscale>
<asrwt>0</asrwt>
<pdfrwt beam="1">  1       21 0.19217675E+00 0.18241346E+03</pdfrwt>
<pdfrwt beam="2">  1       21 0.75491128E-02 0.18241346E+03</pdfrwt>
<totfact> 0.20186071E+04</totfact>
</mgrwt>
</event>
<event>
 4    2  0.4024741E+000  0.2945114E+03  0.7546771E-02  0.1088017E+00
         21   -1    0    0  503  502  0.00000000000E+00  0.00000000000E+00  0.49117326383E+03  0.49117326383E+03  0.00000000000E+00 0. -1.
         21   -1    0    0  501  503 -0.00000000000E+00 -0.00000000000E+00 -0.17684619404E+03  0.17684619404E+03  0.00000000000E+00 0. -1.
          6    1    1    2  501    0  0.14002413076E+03  0.19287611711E+03  0.14448434373E+03  0.32804371558E+03  0.17300000000E+03 0. -1.
         -6    1    1    2    0  502 -0.14002413076E+03 -0.19287611711E+03  0.16984272606E+03  0.33997574229E+03  0.17300000000E+03 0. -1.
<mgrwt>
<rscale>  2 0.29451138E+03</rscale>
<asrwt>0</asrwt>
<pdfrwt beam="1">  1       21 0.75565117E-01 0.29451138E+03</pdfrwt>
<pdfrwt beam="2">  1       21 0.27207107E-01 0.29451138E+03</pdfrwt>
<totfact> 0.19120290E+04</totfact>
</mgrwt>
</event>
<event>
 4    2  0.4024741E+000  0.2266170E+03  0.7546771E-02  0.1129044E+00
         21   -1    0    0  503  502  0.00000000000E+00  0.00000000000E+00  0.34898619041E+03  0.34898619041E+03  0.00000000000E+00 0. -1.
         21   -1    0    0  501  503 -0.00000000000E+00 -0.00000000000E+00 -0.15451289503E+03  0.15451289503E+03  0.00000000000E+00 0.  1.
          6    1    1    2  501    0 -0.14637312498E+03 -0.10741968551E+01  0.42301833084E+02  0.23053132260E+03  0.17300000000E+03 0.  1.
         -6    1    1    2    0  502  0.14637312498E+03  0.10741968551E+01  0.15217146230E+03  0.27296776285E+03  0.17300000000E+03 0. -1.
<mgrwt>
<rscale>  2 0.22661696E+03</rscale>
<asrwt>0</asrwt>
<pdfrwt beam="1">  1       21 0.53690183E-01 0.22661696E+03</pdfrwt>
<pdfrwt beam="2">  1       21 0.23771215E-01 0.22661696E+03</pdfrwt>
<totfact> 0.53871086E+04</totfact>
</mgrwt>
</event>
<event>
 4    2  0.4024741E+000  0.2075106E+03  0.7546771E-02  0.1143553E+00
         21   -1    0    0  503  502  0.00000000000E+00  0.00000000000E+00  0.39469809909E+03  0.39469809909E+03  0.00000000000E+00 0.  1.
         21   -1    0    0  501  503 -0.00000000000E+00 -0.00000000000E+00 -0.11614261221E+03  0.11614261221E+03  0.00000000000E+00 0.  1.
          6    1    1    2  501    0  0.86648249501E+02 -0.74991566235E+02  0.20218453776E+03  0.28972269752E+03  0.17300000000E+03 0.  1.
         -6    1    1    2    0  502 -0.86648249501E+02  0.74991566235E+02  0.76370949123E+02  0.22111801378E+03  0.17300000000E+03 0.  1.
<mgrwt>
<rscale>  2 0.20751061E+03</rscale>
<asrwt>0</asrwt>
<pdfrwt beam="1">  1       21 0.60722784E-01 0.20751061E+03</pdfrwt>
<pdfrwt beam="2">  1       21 0.17868094E-01 0.20751061E+03</pdfrwt>
<totfact> 0.71396325E+04</totfact>
</mgrwt>
</event>
<event>
 4    2  0.4024741E+000  0.2691460E+03  0.7546771E-02  0.1101769E+00
         21   -1    0    0  501  502  0.00000000000E+00  0.00000000000E+00  0.17699656483E+04  0.17699656483E+04  0.00000000000E+00 0.  1.
         21   -1    0    0  502  503 -0.00000000000E+00 -0.00000000000E+00 -0.40928767876E+02  0.40928767876E+02  0.00000000000E+00 0. -1.
          6    1    1    2  501    0 -0.20615476707E+03 -0.32866574345E+01  0.85876688232E+03  0.89995563683E+03  0.17300000000E+03 0.  1.
         -6    1    1    2    0  503  0.20615476707E+03  0.32866574345E+01  0.87026999811E+03  0.91093877935E+03  0.17300000000E+03 0. -1.
<mgrwt>
<rscale>  2 0.26914604E+03</rscale>
<asrwt>0</asrwt>
<pdfrwt beam="1">  1       21 0.27230235E+00 0.26914604E+03</pdfrwt>
<pdfrwt beam="2">  1       21 0.62967349E-02 0.26914604E+03</pdfrwt>
<totfact> 0.83674100E+03</totfact>
</mgrwt>
</event>
<event>
 4    2  0.4024741E+000  0.1827212E+03  0.7546771E-02  0.1165195E+00
         21   -1    0    0  501  502  0.00000000000E+00  0.00000000000E+00  0.72548943849E+02  0.72548943849E+02  0.00000000000E+00 0. -1.
         21   -1    0    0  502  503 -0.00000000000E+00 -0.00000000000E+00 -0.14499261925E+04  0.14499261925E+04  0.00000000000E+00 0. -1.
          6    1    1    2  501    0  0.32713301791E+02  0.48865868209E+02 -0.59755064141E+02  0.19224385785E+03  0.17300000000E+03 0. -1.
         -6    1    1    2    0  503 -0.32713301791E+02 -0.48865868209E+02 -0.13176221845E+04  0.13302312785E+04  0.17300000000E+03 0. -1.
<mgrwt>
<rscale>  2 0.18272119E+03</rscale>
<asrwt>0</asrwt>
<pdfrwt beam="1">  1       21 0.11161377E-01 0.18272119E+03</pdfrwt>
<pdfrwt beam="2">  1       21 0.22306554E+00 0.18272119E+03</pdfrwt>
<totfact> 0.64957646E+03</totfact>
</mgrwt>
</event>
<event>
 4    2  0.4024741E+000  0.1933053E+03  0.7546771E-02  0.1155513E+00
         21   -1    0    0  503  502  0.00000000000E+00  0.00000000000E+00  0.18215179818E+04  0.18215179818E+04  0.00000000000E+00 0. -1.
         21   -1    0    0  501  503 -0.00000000000E+00 -0.00000000000E+00 -0.15630287206E+03  0.15630287206E+03  0.00000000000E+00 0. -1.
          6    1    1    2  501    0 -0.94687972546E+01 -0.85722169506E+02 -0.89125747446E+02  0.21286227313E+03  0.17300000000E+03 0. -1.
         -6    1    1    2    0  502  0.94687972546E+01  0.85722169506E+02  0.17543408571E+04  0.17649585807E+04  0.17300000000E+03 0. -1.
<mgrwt>
<rscale>  2 0.19330532E+03</rscale>
<asrwt>0</asrwt>
<pdfrwt beam="1">  1       21 0.28023352E+00 0.19330532E+03</pdfrwt>
<pdfrwt beam="2">  1       21 0.24046597E-01 0.19330532E+03</pdfrwt>
<totfact> 0.72299281E+02</totfact>
</mgrwt>
</event>
<event>
 4    2  0.4024741E+000  0.3504836E+03  0.7546771E-02  0.1062417E+00
         21   -1    0    0  503  502  0.00000000000E+00  0.00000000000E+00  0.18477990148E+03  0.18477990148E+03  0.00000000000E+00 0.  1.
         21   -1    0    0  501  503 -0.00000000000E+00 -0.00000000000E+00 -0.11152855032E+04  0.11152855032E+04  0.00000000000E+00 0. -1.
          6    1    1    2  501    0 -0.17503696033E+03  0.24954316042E+03 -0.87838618291E+03  0.94572776883E+03  0.17300000000E+03 0. -1.
         -6    1    1    2    0  502  0.17503696033E+03 -0.24954316042E+03 -0.52119418855E+02  0.35433763590E+03  0.17300000000E+03 0.  1.
<mgrwt>
<rscale>  2 0.35048356E+03</rscale>
<asrwt>0</asrwt>
<pdfrwt beam="1">  1       21 0.28427678E-01 0.35048356E+03</pdfrwt>
<pdfrwt beam="2">  1       21 0.17158238E+00 0.35048356E+03</pdfrwt>
<totfact> 0.21974901E+03</totfact>
</mgrwt>
</event>
<event>
 4    2  0.4024741E+000  0.2279888E+03  0.7546771E-02  0.1128063E+00
         21   -1    0    0  503  502  0.00000000000E+00  0.00000000000E+00  0.10612530936E+03  0.10612530936E+03  0.00000000000E+00 0.  1.
         21   -1    0    0  501  503 -0.00000000000E+00 -0.00000000000E+00 -0.49087088929E+03  0.49087088929E+03  0.00000000000E+00 0.  1.
          6    1    1    2  501    0  0.10149178000E+03 -0.10839426295E+03 -0.17835239925E+03  0.28946239128E+03  0.17300000000E+03 0.  1.
         -6    1    1    2    0  502 -0.10149178000E+03  0.10839426295E+03 -0.20639318068E+03  0.30753380738E+03  0.17300000000E+03 0.  1.
<mgrwt>
<rscale>  2 0.22798881E+03</rscale>
<asrwt>0</asrwt>
<pdfrwt beam="1">  1       21 0.16326971E-01 0.22798881E+03</pdfrwt>
<pdfrwt beam="2">  1       21 0.75518596E-01 0.22798881E+03</pdfrwt>
<totfact> 0.51735524E+04</totfact>
</mgrwt>
</event>
<event>
 4    2  0.4024741E+000  0.2489569E+03  0.7546771E-02  0.1113966E+00
         21   -1    0    0  501  502  0.00000000000E+00  0.00000000000E+00  0.18753393807E+03  0.18753393807E+03  0.00000000000E+00 0.  1.
         21   -1    0    0  502  503 -0.00000000000E+00 -0.00000000000E+00 -0.38148333132E+03  0.38148333132E+03  0.00000000000E+00 0. -1.
          6    1    1    2  501    0  0.12033267061E+03  0.13255414592E+03  0.70367555483E+01  0.24905635737E+03  0.17300000000E+03 0. -1.
         -6    1    1    2    0  503 -0.12033267061E+03 -0.13255414592E+03 -0.20098614880E+03  0.31996091203E+03  0.17300000000E+03 0. -1.
<mgrwt>
<rscale>  2 0.24895693E+03</rscale>
<asrwt>0</asrwt>
<pdfrwt beam="1">  1       21 0.28851375E-01 0.24895693E+03</pdfrwt>
<pdfrwt beam="2">  1       21 0.58689744E-01 0.24895693E+03</pdfrwt>
<totfact> 0.30364084E+04</totfact>
</mgrwt>
</event>
<event>
 4    2  0.4024741E+000  0.2127183E+03  0.7546771E-02  0.1139431E+00
         21   -1    0    0  501  502  0.00000000000E+00  0.00000000000E+00  0.59521718427E+03  0.59521718427E+03  0.00000000000E+00 0.  1.
         21   -1    0    0  502  503 -0.00000000000E+00 -0.00000000000E+00 -0.92861787753E+02  0.92861787753E+02  0.00000000000E+00 0. -1.
          6    1    1    2  501    0  0.10868744692E+03  0.59220870051E+02  0.39768845776E+03  0.45100463635E+03  0.17300000000E+03 0.  1.
         -6    1    1    2    0  503 -0.10868744692E+03 -0.59220870051E+02  0.10466693875E+03  0.23707433568E+03  0.17300000000E+03 0. -1.
<mgrwt>
<rscale>  2 0.21271829E+03</rscale>
<asrwt>0</asrwt>
<pdfrwt beam="1">  1       21 0.91571872E-01 0.21271829E+03</pdfrwt>
<pdfrwt beam="2">  1       21 0.14286429E-01 0.21271829E+03</pdfrwt>
<totfact> 0.42811056E+04</totfact>
</mgrwt>
</event>
<event>
 4    2  0.4024741E+000  0.2285632E+03  0.7546771E-02  0.1127655E+00
         21   -1    0    0  503  502  0.00000000000E+00  0.00000000000E+00  0.49479710729E+03  0.49479710729E+03  0.00000000000E+00 0.  1.
         21   -1    0    0  501  503 -0.00000000000E+00 -0.00000000000E+00 -0.40339499271E+03  0.40339499271E+03  0.00000000000E+00 0.  1.
          6    1    1    2  501    0 -0.80123319457E+02  0.12606498711E+03 -0.34017390603E+03  0.40982851735E+03  0.17300000000E+03 0.  1.
         -6    1    1    2    0  502  0.80123319457E+02 -0.12606498711E+03  0.43157602061E+03  0.48836358265E+03  0.17300000000E+03 0.  1.
<mgrwt>
<rscale>  2 0.22856318E+03</rscale>
<asrwt>0</asrwt>
<pdfrwt beam="1">  1       21 0.76122632E-01 0.22856318E+03</pdfrwt>
<pdfrwt beam="2">  1       21 0.62060768E-01 0.22856318E+03</pdfrwt>
<totfact> 0.36034199E+03</totfact>
</mgrwt>
</event>
<event>
 4    2  0.4024741E+000  0.3304337E+03  0.7546771E-02  0.1070945E+00
         21   -1    0    0  503  502  0.00000000000E+00  0.00000000000E+00  0.22861729121E+03  0.22861729121E+03  0.00000000000E+00 0.  1.
         21   -1    0    0  501  503 -0.00000000000E+00 -0.00000000000E+00 -0.26909124258E+04  0.26909124258E+04  0.00000000000E+00 0.  1.
          6    1    1    2  501    0 -0.23655033774E+03  0.15264795730E+03 -0.25550469513E+04  0.25763251706E+04  0.17300000000E+03 0.  1.
         -6    1    1    2    0  502  0.23655033774E+03 -0.15264795730E+03  0.92751816751E+02  0.34320454639E+03  0.17300000000E+03 0.  1.
<mgrwt>
<rscale>  2 0.33043375E+03</rscale>
<asrwt>0</asrwt>
<pdfrwt beam="1">  1       21 0.35171888E-01 0.33043375E+03</pdfrwt>
<pdfrwt beam="2">  1       21 0.41398656E+00 0.33043375E+03</pdfrwt>
<totfact> 0.45580747E+01</totfact>
</mgrwt>
</event>
<event>
 4    2  0.4024741E+000  0.1753474E+03  0.7546771E-02  0.1172383E+00
         21   -1    0    0  501  502  0.00000000000E+00  0.00000000000E+00  0.38877743244E+03  0.38877743244E+03  0.00000000000E+00 0. -1.
         21   -1    0    0  502  503 -0.00000000000E+00 -0.00000000000E+00 -0.10684766904E+03  0.10684766904E+03  0.00000000000E+00 0. -1.
          6    1    1    2  501    0  0.28276436152E+02 -0.42603543017E+01  0.26728323820E+03  0.31966707194E+03  0.17300000000E+03 0. -1.
         -6    1    1    2    0  503 -0.28276436152E+02  0.42603543017E+01  0.14646525208E+02  0.17595802954E+03  0.17300000000E+03 0. -1.
<mgrwt>
<rscale>  2 0.17534739E+03</rscale>
<asrwt>0</asrwt>
<pdfrwt beam="1">  1       21 0.59811912E-01 0.17534739E+03</pdfrwt>
<pdfrwt beam="2">  1       21 0.16438103E-01 0.17534739E+03</pdfrwt>
<totfact> 0.87176255E+04</totfact>
</mgrwt>
</event>
<event>
 4    2  0.4024741E+000  0.3024104E+03  0.7546771E-02  0.1084042E+00
         21   -1    0    0  503  502  0.00000000000E+00  0.00000000000E+00  0.20833727850E+03  0.20833727850E+03  0.00000000000E+00 0.  1.
         21   -1    0    0  501  503 -0.00000000000E+00 -0.00000000000E+00 -0.58936909046E+03  0.58936909046E+03  0.00000000000E+00 0. -1.
          6    1    1    2  501    0  0.10452282705E+03  0.22494009095E+03 -0.39200619196E+03  0.49509687984E+03  0.17300000000E+03 0. -1.
         -6    1    1    2    0  502 -0.10452282705E+03 -0.22494009095E+03  0.10974379999E+02  0.30260948913E+03  0.17300000000E+03 0.  1.
<mgrwt>
<rscale>  2 0.30241043E+03</rscale>
<asrwt>0</asrwt>
<pdfrwt beam="1">  1       21 0.32051888E-01 0.30241043E+03</pdfrwt>
<pdfrwt beam="2">  1       21 0.90672169E-01 0.30241043E+03</pdfrwt>
<totfact> 0.90738213E+03</totfact>
</mgrwt>
</event>
<event>
 4    2  0.4024741E+000  0.2173893E+03  0.7546771E-02  0.1135845E+00
         21   -1    0    0  503  502  0.00000000000E+00  0.00000000000E+00  0.81839191163E+02  0.81839191163E+02  0.00000000000E+00 0. -1.
         21   -1    0    0  501  503 -0.00000000000E+00 -0.00000000000E+00 -0.62575976480E+03  0.62575976480E+03  0.00000000000E+00 0. -1.
          6    1    1    2  501    0 -0.80582270813E+02 -0.10409421814E+03 -0.17365720928E+03  0.27823539486E+03  0.17300000000E+03 0. -1.
         -6    1    1    2    0  502  0.80582270813E+02  0.10409421814E+03 -0.37026336435E+03  0.42936356110E+03  0.17300000000E+03 0. -1.
<mgrwt>
<rscale>  2 0.21738930E+03</rscale>
<asrwt>0</asrwt>
<pdfrwt beam="1">  1       21 0.12590645E-01 0.21738930E+03</pdfrwt>
<pdfrwt beam="2">  1       21 0.96270734E-01 0.21738930E+03</pdfrwt>
<totfact> 0.47746697E+04</totfact>
</mgrwt>
</event>
<event>
 4    2  0.4024741E+000  0.1841825E+03  0.7546771E-02  0.1163815E+00
         21   -1    0    0  503  502  0.00000000000E+00  0.00000000000E+00  0.10340017808E+03  0.10340017808E+03  0.00000000000E+00 0. -1.
         21   -1    0    0  501  503 -0.00000000000E+00 -0.00000000000E+00 -0.39351531911E+03  0.39351531911E+03  0.00000000000E+00 0.  1.
          6    1    1    2  501    0  0.50641016091E+02 -0.37811172194E+02 -0.24637601848E+03  0.30761069510E+03  0.17300000000E+03 0.  1.
         -6    1    1    2    0  502 -0.50641016091E+02  0.37811172194E+02 -0.43739122543E+02  0.18930480209E+03  0.17300000000E+03 0. -1.
<mgrwt>
<rscale>  2 0.18418251E+03</rscale>
<asrwt>0</asrwt>
<pdfrwt beam="1">  1       21 0.15907720E-01 0.18418251E+03</pdfrwt>
<pdfrwt beam="2">  1       21 0.60540819E-01 0.18418251E+03</pdfrwt>
<totfact> 0.89868292E+04</totfact>
</mgrwt>
</event>
<event>
 4    2  0.4024741E+000  0.2742028E+03  0.7546771E-02  0.1098898E+00
         21   -1    0    0  503  502  0.00000000000E+00  0.00000000000E+00  0.95067105666E+03  0.95067105666E+03  0.00000000000E+00 0.  1.
         21   -1    0    0  501  503 -0.00000000000E+00 -0.00000000000E+00 -0.16770357819E+03  0.16770357819E+03  0.00000000000E+00 0. -1.
          6    1    1    2  501    0 -0.21255239834E+03  0.89239373903E+01 -0.14996963748E+02  0.27461257731E+03  0.17300000000E+03 0. -1.
         -6    1    1    2    0  502  0.21255239834E+03 -0.89239373903E+01  0.79796444221E+03  0.84376205753E+03  0.17300000000E+03 0.  1.
<mgrwt>
<rscale>  2 0.27420277E+03</rscale>
<asrwt>0</asrwt>
<pdfrwt beam="1">  1       21 0.14625708E+00 0.27420277E+03</pdfrwt>
<pdfrwt beam="2">  1       21 0.25800551E-01 0.27420277E+03</pdfrwt>
<totfact> 0.42911622E+03</totfact>
</mgrwt>
</event>
<event>
 4    2  0.4024741E+000  0.2196349E+03  0.7546771E-02  0.1134156E+00
         21   -1    0    0  503  502  0.00000000000E+00  0.00000000000E+00  0.11648162403E+04  0.11648162403E+04  0.00000000000E+00 0.  1.
         21   -1    0    0  501  503 -0.00000000000E+00 -0.00000000000E+00 -0.42574834486E+02  0.42574834486E+02  0.00000000000E+00 0. -1.
          6    1    1    2  501    0  0.13485711213E+03 -0.11137355993E+02  0.46142838352E+03  0.51103388783E+03  0.17300000000E+03 0.  1.
         -6    1    1    2    0  502 -0.13485711213E+03  0.11137355993E+02  0.66081302225E+03  0.69635718691E+03  0.17300000000E+03 0.  1.
<mgrwt>
<rscale>  2 0.21963488E+03</rscale>
<asrwt>0</asrwt>
<pdfrwt beam="1">  1       21 0.17920247E+00 0.21963488E+03</pdfrwt>
<pdfrwt beam="2">  1       21 0.65499754E-02 0.21963488E+03</pdfrwt>
<totfact> 0.30710044E+04</totfact>
</mgrwt>
</event>
<event>
 4    2  0.4024741E+000  0.2023053E+03  0.7546771E-02  0.1147808E+00
         21   -1    0    0  501  502  0.00000000000E+00  0.00000000000E+00  0.12612559414E+04  0.12612559414E+04  0.00000000000E+00 0.  1.
         21   -1    0    0  502  503 -0.00000000000E+00 -0.00000000000E+00 -0.45252910124E+02  0.45252910124E+02  0.00000000000E+00 0.  1.
          6    1    1    2  501    0 -0.35425138156E+02 -0.98709198862E+02  0.95547174992E+03  0.97665434584E+03  0.17300000000E+03 0.  1.
         -6    1    1    2    0  503  0.35425138156E+02  0.98709198862E+02  0.26053128135E+03  0.32985450567E+03  0.17300000000E+03 0.  1.
<mgrwt>
<rscale>  2 0.20230533E+03</rscale>
<asrwt>0</asrwt>
<pdfrwt beam="1">  1       21 0.19403935E+00 0.20230533E+03</pdfrwt>
<pdfrwt beam="2">  1       21 0.69619871E-02 0.20230533E+03</pdfrwt>
<totfact> 0.22248595E+04</totfact>
</mgrwt>
</event>
<event>
 4    2  0.4024741E+000  0.2564103E+03  0.7546771E-02  0.1109319E+00
         21   -1    0    0  501  502  0.00000000000E+00  0.00000000000E+00  0.58868484275E+03  0.58868484275E+03  0.00000000000E+00 0. -1.
         21   -1    0    0  502  503 -0.00000000000E+00 -0.00000000000E+00 -0.11233150789E+03  0.11233150789E+03  0.00000000000E+00 0. -1.
          6    1    1    2  501    0  0.18329501634E+03  0.47118772850E+02  0.26480342243E+03  0.36860153866E+03  0.17300000000E+03 0. -1.
         -6    1    1    2    0  503 -0.18329501634E+03 -0.47118772850E+02  0.21154991243E+03  0.33241481197E+03  0.17300000000E+03 0. -1.
<mgrwt>
<rscale>  2 0.25641030E+03</rscale>
<asrwt>0</asrwt>
<pdfrwt beam="1">  1       21 0.90566897E-01 0.25641030E+03</pdfrwt>
<pdfrwt beam="2">  1       21 0.17281771E-01 0.25641030E+03</pdfrwt>
<totfact> 0.30342481E+04</totfact>
</mgrwt>
</event>
<event>
 4    2  0.4024741E+000  0.2332081E+03  0.7546771E-02  0.1124402E+00
         21   -1    0    0  501  502  0.00000000000E+00  0.00000000000E+00  0.44318600597E+03  0.44318600597E+03  0.00000000000E+00 0.  1.
         21   -1    0    0  502  503 -0.00000000000E+00 -0.00000000000E+00 -0.20461499498E+03  0.20461499498E+03  0.00000000000E+00 0.  1.
          6    1    1    2  501    0 -0.13741994602E+03  0.74651175321E+02  0.32420440894E+03  0.39936767310E+03  0.17300000000E+03 0.  1.
         -6    1    1    2    0  503  0.13741994602E+03 -0.74651175321E+02 -0.85633397955E+02  0.24843332785E+03  0.17300000000E+03 0.  1.
<mgrwt>
<rscale>  2 0.23320815E+03</rscale>
<asrwt>0</asrwt>
<pdfrwt beam="1">  1       21 0.68182462E-01 0.23320815E+03</pdfrwt>
<pdfrwt beam="2">  1       21 0.31479230E-01 0.23320815E+03</pdfrwt>
<totfact> 0.18601750E+04</totfact>
</mgrwt>
</event>
<event>
 4    2  0.4024741E+000  0.1987356E+03  0.7546771E-02  0.1150810E+00
         21   -1    0    0  503  502  0.00000000000E+00  0.00000000000E+00  0.10131024258E+04  0.10131024258E+04  0.00000000000E+00 0. -1.
         21   -1    0    0  501  503 -0.00000000000E+00 -0.00000000000E+00 -0.29192703667E+03  0.29192703667E+03  0.00000000000E+00 0. -1.
          6    1    1    2  501    0  0.83623558148E+02  0.50733837529E+02 -0.24679672438E+03  0.31686660429E+03  0.17300000000E+03 0. -1.
         -6    1    1    2    0  502 -0.83623558148E+02 -0.50733837529E+02  0.96797211349E+03  0.98816285816E+03  0.17300000000E+03 0. -1.
<mgrwt>
<rscale>  2 0.19873556E+03</rscale>
<asrwt>0</asrwt>
<pdfrwt beam="1">  1       21 0.15586191E+00 0.19873556E+03</pdfrwt>
<pdfrwt beam="2">  1       21 0.44911852E-01 0.19873556E+03</pdfrwt>
<totfact> 0.12768856E+03</totfact>
</mgrwt>
</event>
<event>
 4    2  0.4024741E+000  0.2006807E+03  0.7546771E-02  0.1149166E+00
         21   -1    0    0  501  502  0.00000000000E+00  0.00000000000E+00  0.11033310052E+04  0.11033310052E+04  0.00000000000E+00 0. -1.
         21   -1    0    0  502  503 -0.00000000000E+00 -0.00000000000E+00 -0.61289472953E+02  0.61289472953E+02  0.00000000000E+00 0. -1.
          6    1    1    2  501    0  0.95627879007E+02  0.34627218939E+02  0.89134827101E+03  0.91365993442E+03  0.17300000000E+03 0. -1.
         -6    1    1    2    0  503 -0.95627879007E+02 -0.34627218939E+02  0.15069326127E+03  0.25096054377E+03  0.17300000000E+03 0. -1.
<mgrwt>
<rscale>  2 0.20068068E+03</rscale>
<asrwt>0</asrwt>
<pdfrwt beam="1">  1       21 0.16974322E+00 0.20068068E+03</pdfrwt>
<pdfrwt beam="2">  1       21 0.94291505E-02 0.20068068E+03</pdfrwt>
<totfact> 0.19175867E+04</totfact>
</mgrwt>
</event>
<event>
 4    2  0.4024741E+000  0.2021122E+03  0.7546771E-02  0.1147969E+00
         21   -1    0    0  501  502  0.00000000000E+00  0.00000000000E+00  0.14958972230E+04  0.14958972230E+04  0.00000000000E+00 0. -1.
         21   -1    0    0  502  503 -0.00000000000E+00 -0.00000000000E+00 -0.36700775842E+02  0.36700775842E+02  0.00000000000E+00 0.  1.
          6    1    1    2  501    0 -0.16788931317E+02 -0.10314304365E+03  0.11172724915E+04  0.11354061723E+04  0.17300000000E+03 0. -1.
         -6    1    1    2    0  503  0.16788931317E+02  0.10314304365E+03  0.34192395557E+03  0.39719182653E+03  0.17300000000E+03 0. -1.
<mgrwt>
<rscale>  2 0.20211224E+03</rscale>
<asrwt>0</asrwt>
<pdfrwt beam="1">  1       21 0.23013799E+00 0.20211224E+03</pdfrwt>
<pdfrwt beam="2">  1       21 0.56462744E-02 0.20211224E+03</pdfrwt>
<totfact> 0.18945627E+04</totfact>
</mgrwt>
</event>
<event>
 4    2  0.4024741E+000  0.2107501E+03  0.7546771E-02  0.1140973E+00
         21   -1    0    0  503  502  0.00000000000E+00  0.00000000000E+00  0.62227914326E+02  0.62227914326E+02  0.00000000000E+00 0.  1.
         21   -1    0    0  501  503 -0.00000000000E+00 -0.00000000000E+00 -0.20562396103E+04  0.20562396103E+04  0.00000000000E+00 0.  1.
          6    1    1    2  501    0 -0.11577477403E+03 -0.32906296271E+02 -0.18528787077E+04  0.18648257634E+04  0.17300000000E+03 0.  1.
         -6    1    1    2    0  502  0.11577477403E+03  0.32906296271E+02 -0.14113298832E+03  0.25364176120E+03  0.17300000000E+03 0.  1.
<mgrwt>
<rscale>  2 0.21075014E+03</rscale>
<asrwt>0</asrwt>
<pdfrwt beam="1">  1       21 0.95735257E-02 0.21075014E+03</pdfrwt>
<pdfrwt beam="2">  1       21 0.31634454E+00 0.21075014E+03</pdfrwt>
<totfact> 0.23546744E+03</totfact>
</mgrwt>
</event>
<event>
 4    2  0.4024741E+000  0.2786915E+03  0.7546771E-02  0.1096406E+00
         21   -1    0    0  503  502  0.00000000000E+00  0.00000000000E+00  0.20269874873E+03  0.20269874873E+03  0.00000000000E+00 0. -1.
         21   -1    0    0  501  503 -0.00000000000E+00 -0.00000000000E+00 -0.53179802377E+03  0.53179802377E+03  0.00000000000E+00 0.  1.
          6    1    1    2  501    0 -0.74773981883E+02  0.20530172932E+03  0.29597336231E+02  0.28025872108E+03  0.17300000000E+03 0. -1.
         -6    1    1    2    0  502  0.74773981883E+02 -0.20530172932E+03 -0.35869661127E+03  0.45423805143E+03  0.17300000000E+03 0.  1.
<mgrwt>
<rscale>  2 0.27869149E+03</rscale>
<asrwt>0</asrwt>
<pdfrwt beam="1">  1       21 0.31184423E-01 0.27869149E+03</pdfrwt>
<pdfrwt beam="2">  1       21 0.81815079E-01 0.27869149E+03</pdfrwt>
<totfact> 0.12295939E+04</totfact>
</mgrwt>
</event>
<event>
 4    2  0.4024741E+000  0.2199357E+03  0.7546771E-02  0.1133931E+00
         21   -1    0    0  501  502  0.00000000000E+00  0.00000000000E+00  0.97091760868E+02  0.97091760868E+02  0.00000000000E+00 0.  1.
         21   -1    0    0  502  503 -0.00000000000E+00 -0.00000000000E+00 -0.60685747062E+03  0.60685747062E+03  0.00000000000E+00 0.  1.
          6    1    1    2  501    0  0.10229083271E+02 -0.13541820264E+03 -0.10595180098E+03  0.24412600820E+03  0.17300000000E+03 0.  1.
         -6    1    1    2    0  503 -0.10229083271E+02  0.13541820264E+03 -0.40381390878E+03  0.45982322329E+03  0.17300000000E+03 0.  1.
<mgrwt>
<rscale>  2 0.21993573E+03</rscale>
<asrwt>0</asrwt>
<pdfrwt beam="1">  1       21 0.14937194E-01 0.21993573E+03</pdfrwt>
<pdfrwt beam="2">  1       21 0.93362688E-01 0.21993573E+03</pdfrwt>
<totfact> 0.37592617E+04</totfact>
</mgrwt>
</event>
<event>
 4    2  0.4024741E+000  0.1800219E+03  0.7546771E-02  0.1167782E+00
         21   -1    0    0  501  502  0.00000000000E+00  0.00000000000E+00  0.13464162071E+03  0.13464162071E+03  0.00000000000E+00 0.  1.
         21   -1    0    0  502  503 -0.00000000000E+00 -0.00000000000E+00 -0.26118729878E+03  0.26118729878E+03  0.00000000000E+00 0. -1.
          6    1    1    2  501    0 -0.46258286791E+02  0.18413931265E+02 -0.11870608483E+03  0.21563635254E+03  0.17300000000E+03 0. -1.
         -6    1    1    2    0  503  0.46258286791E+02 -0.18413931265E+02 -0.78395932323E+01  0.18019256695E+03  0.17300000000E+03 0.  1.
<mgrwt>
<rscale>  2 0.18002195E+03</rscale>
<asrwt>0</asrwt>
<pdfrwt beam="1">  1       21 0.20714095E-01 0.18002195E+03</pdfrwt>
<pdfrwt beam="2">  1       21 0.40182662E-01 0.18002195E+03</pdfrwt>
<totfact> 0.12957246E+05</totfact>
</mgrwt>
</event>
<event>
 4    2  0.4024741E+000  0.2595564E+03  0.7546771E-02  0.1107410E+00
         21   -1    0    0  503  502  0.00000000000E+00  0.00000000000E+00  0.12575173836E+03  0.12575173836E+03  0.00000000000E+00 0. -1.
         21   -1    0    0  501  503 -0.00000000000E+00 -0.00000000000E+00 -0.63774566251E+03  0.63774566251E+03  0.00000000000E+00 0. -1.
          6    1    1    2  501    0  0.14886724857E+03 -0.12360849565E+03 -0.40867554212E+03  0.48413346984E+03  0.17300000000E+03 0. -1.
         -6    1    1    2    0  502 -0.14886724857E+03  0.12360849565E+03 -0.10331838203E+03  0.27936393103E+03  0.17300000000E+03 0. -1.
<mgrwt>
<rscale>  2 0.25955639E+03</rscale>
<asrwt>0</asrwt>
<pdfrwt beam="1">  1       21 0.19346421E-01 0.25955639E+03</pdfrwt>
<pdfrwt beam="2">  1       21 0.98114717E-01 0.25955639E+03</pdfrwt>
<totfact> 0.20328071E+04</totfact>
</mgrwt>
</event>
<event>
 4    2  0.4024741E+000  0.1867528E+03  0.7546771E-02  0.1161423E+00
         21   -1    0    0  503  502  0.00000000000E+00  0.00000000000E+00  0.14993965402E+04  0.14993965402E+04  0.00000000000E+00 0. -1.
         21   -1    0    0  501  503 -0.00000000000E+00 -0.00000000000E+00 -0.46611548995E+02  0.46611548995E+02  0.00000000000E+00 0. -1.
          6    1    1    2  501    0 -0.67880490509E+02  0.18434580543E+02  0.17926450843E+03  0.25886745399E+03  0.17300000000E+03 0. -1.
         -6    1    1    2    0  502  0.67880490509E+02 -0.18434580543E+02  0.12735204828E+04  0.12871406352E+04  0.17300000000E+03 0. -1.
<mgrwt>
<rscale>  2 0.18675276E+03</rscale>
<asrwt>0</asrwt>
<pdfrwt beam="1">  1       21 0.23067635E+00 0.18675276E+03</pdfrwt>
<pdfrwt beam="2">  1       21 0.71710087E-02 0.18675276E+03</pdfrwt>
<totfact> 0.12635918E+04</totfact>
</mgrwt>
</event>
<event>
 4    2  0.4024741E+000  0.1789395E+03  0.7546771E-02  0.1168833E+00
         21   -1    0    0  503  502  0.00000000000E+00  0.00000000000E+00  0.30664518455E+02  0.30664518455E+02  0.00000000000E+00 0. -1.
         21   -1    0    0  501  503 -0.00000000000E+00 -0.00000000000E+00 -0.10596344710E+04  0.10596344710E+04  0.00000000000E+00 0. -1.
          6    1    1    2  501    0 -0.28002782209E+02 -0.36141182365E+02 -0.44865323801E+03  0.48302077476E+03  0.17300000000E+03 0. -1.
         -6    1    1    2    0  502  0.28002782209E+02  0.36141182365E+02 -0.58031671455E+03  0.60727821471E+03  0.17300000000E+03 0. -1.
<mgrwt>
<rscale>  2 0.17893949E+03</rscale>
<asrwt>0</asrwt>
<pdfrwt beam="1">  1       21 0.47176187E-02 0.17893949E+03</pdfrwt>
<pdfrwt beam="2">  1       21 0.16302067E+00 0.17893949E+03</pdfrwt>
<totfact> 0.71549025E+04</totfact>
</mgrwt>
</event>
<event>
 4    2  0.4024741E+000  0.1898262E+03  0.7546771E-02  0.1158618E+00
         21   -1    0    0  501  502  0.00000000000E+00  0.00000000000E+00  0.18233458379E+03  0.18233458379E+03  0.00000000000E+00 0. -1.
         21   -1    0    0  502  503 -0.00000000000E+00 -0.00000000000E+00 -0.45904982566E+03  0.45904982566E+03  0.00000000000E+00 0. -1.
          6    1    1    2  501    0  0.22627129061E+02  0.74786397560E+02  0.10365128948E+03  0.21628125680E+03  0.17300000000E+03 0. -1.
         -6    1    1    2    0  503 -0.22627129061E+02 -0.74786397560E+02 -0.38036653135E+03  0.42510315266E+03  0.17300000000E+03 0. -1.
<mgrwt>
<rscale>  2 0.18982622E+03</rscale>
<asrwt>0</asrwt>
<pdfrwt beam="1">  1       21 0.28051475E-01 0.18982622E+03</pdfrwt>
<pdfrwt beam="2">  1       21 0.70623050E-01 0.18982622E+03</pdfrwt>
<totfact> 0.22096180E+04</totfact>
</mgrwt>
</event>
<event>
 4    2  0.4024741E+000  0.1766222E+03  0.7546771E-02  0.1171113E+00
         21   -1    0    0  501  502  0.00000000000E+00  0.00000000000E+00  0.26923865746E+02  0.26923865746E+02  0.00000000000E+00 0. -1.
         21   -1    0    0  502  503 -0.00000000000E+00 -0.00000000000E+00 -0.12437501897E+04  0.12437501897E+04  0.00000000000E+00 0. -1.
          6    1    1    2  501    0 -0.97720576368E+01 -0.34218291571E+02 -0.44222566557E+03  0.47619210816E+03  0.17300000000E+03 0. -1.
         -6    1    1    2    0  503  0.97720576368E+01  0.34218291571E+02 -0.77460065836E+03  0.79448194726E+03  0.17300000000E+03 0. -1.
<mgrwt>
<rscale>  2 0.17662215E+03</rscale>
<asrwt>0</asrwt>
<pdfrwt beam="1">  1       21 0.41421339E-02 0.17662215E+03</pdfrwt>
<pdfrwt beam="2">  1       21 0.19134615E+00 0.17662215E+03</pdfrwt>
<totfact> 0.57049114E+04</totfact>
</mgrwt>
</event>
<event>
 4    2  0.4024741E+000  0.1761162E+03  0.7546771E-02  0.1171616E+00
         21   -1    0    0  503  502  0.00000000000E+00  0.00000000000E+00  0.62480770369E+02  0.62480770369E+02  0.00000000000E+00 0.  1.
         21   -1    0    0  501  503 -0.00000000000E+00 -0.00000000000E+00 -0.92938721081E+03  0.92938721081E+03  0.00000000000E+00 0.  1.
          6    1    1    2  501    0 -0.14694696986E+02 -0.29529481099E+02 -0.77194744587E+03  0.79178266182E+03  0.17300000000E+03 0.  1.
         -6    1    1    2    0  502  0.14694696986E+02  0.29529481099E+02 -0.94958994573E+02  0.20008531936E+03  0.17300000000E+03 0.  1.
<mgrwt>
<rscale>  2 0.17611622E+03</rscale>
<asrwt>0</asrwt>
<pdfrwt beam="1">  1       21 0.96124268E-02 0.17611622E+03</pdfrwt>
<pdfrwt beam="2">  1       21 0.14298264E+00 0.17611622E+03</pdfrwt>
<totfact> 0.29782444E+04</totfact>
</mgrwt>
</event>
<event>
 4    2  0.4024741E+000  0.1839229E+03  0.7546771E-02  0.1164060E+00
         21   -1    0    0  503  502  0.00000000000E+00  0.00000000000E+00  0.17659931057E+03  0.17659931057E+03  0.00000000000E+00 0.  1.
         21   -1    0    0  501  503 -0.00000000000E+00 -0.00000000000E+00 -0.20018699330E+03  0.20018699330E+03  0.00000000000E+00 0.  1.
          6    1    1    2  501    0  0.43517105668E+02 -0.44776087417E+02 -0.50925025206E+02  0.19084285337E+03  0.17300000000E+03 0.  1.
         -6    1    1    2    0  502 -0.43517105668E+02  0.44776087417E+02  0.27337342477E+02  0.18594345050E+03  0.17300000000E+03 0.  1.
<mgrwt>
<rscale>  2 0.18392291E+03</rscale>
<asrwt>0</asrwt>
<pdfrwt beam="1">  1       21 0.27169125E-01 0.18392291E+03</pdfrwt>
<pdfrwt beam="2">  1       21 0.30797999E-01 0.18392291E+03</pdfrwt>
<totfact> 0.13111635E+05</totfact>
</mgrwt>
</event>
<event>
 4    2  0.4024741E+000  0.2100117E+03  0.7546771E-02  0.1141557E+00
         21   -1    0    0  503  502  0.00000000000E+00  0.00000000000E+00  0.10039049068E+03  0.10039049068E+03  0.00000000000E+00 0.  1.
         21   -1    0    0  501  503 -0.00000000000E+00 -0.00000000000E+00 -0.62765305143E+03  0.62765305143E+03  0.00000000000E+00 0. -1.
          6    1    1    2  501    0 -0.45267295335E+02 -0.11012175120E+03 -0.46302661074E+03  0.50842754682E+03  0.17300000000E+03 0. -1.
         -6    1    1    2    0  502  0.45267295335E+02  0.11012175120E+03 -0.64235950014E+02  0.21961599529E+03  0.17300000000E+03 0.  1.
<mgrwt>
<rscale>  2 0.21001173E+03</rscale>
<asrwt>0</asrwt>
<pdfrwt beam="1">  1       21 0.15444691E-01 0.21001173E+03</pdfrwt>
<pdfrwt beam="2">  1       21 0.96562009E-01 0.21001173E+03</pdfrwt>
<totfact> 0.32843892E+04</totfact>
</mgrwt>
</event>
<event>
 4    2  0.4024741E+000  0.2273538E+03  0.7546771E-02  0.1128516E+00
         21   -1    0    0  503  502  0.00000000000E+00  0.00000000000E+00  0.96452252311E+02  0.96452252311E+02  0.00000000000E+00 0.  1.
         21   -1    0    0  501  503 -0.00000000000E+00 -0.00000000000E+00 -0.62943306539E+03  0.62943306539E+03  0.00000000000E+00 0.  1.
          6    1    1    2  501    0 -0.54251421147E+02  0.13717693531E+03 -0.40639196885E+03  0.46566528819E+03  0.17300000000E+03 0.  1.
         -6    1    1    2    0  502  0.54251421147E+02 -0.13717693531E+03 -0.12658884424E+03  0.26022002952E+03  0.17300000000E+03 0.  1.
<mgrwt>
<rscale>  2 0.22735375E+03</rscale>
<asrwt>0</asrwt>
<pdfrwt beam="1">  1       21 0.14838808E-01 0.22735375E+03</pdfrwt>
<pdfrwt beam="2">  1       21 0.96835859E-01 0.22735375E+03</pdfrwt>
<totfact> 0.34788752E+04</totfact>
</mgrwt>
</event>
<event>
 4    2  0.4024741E+000  0.1746382E+03  0.7546771E-02  0.1173095E+00
         21   -1    0    0  501  502  0.00000000000E+00  0.00000000000E+00  0.57604839481E+03  0.57604839481E+03  0.00000000000E+00 0.  1.
         21   -1    0    0  502  503 -0.00000000000E+00 -0.00000000000E+00 -0.17816450269E+03  0.17816450269E+03  0.00000000000E+00 0.  1.
          6    1    1    2  501    0 -0.11279146542E+02 -0.21030494035E+02  0.51508999414E+03  0.54388988122E+03  0.17300000000E+03 0.  1.
         -6    1    1    2    0  503  0.11279146542E+02  0.21030494035E+02 -0.11720610203E+03  0.21032301628E+03  0.17300000000E+03 0.  1.
<mgrwt>
<rscale>  2 0.17463820E+03</rscale>
<asrwt>0</asrwt>
<pdfrwt beam="1">  1       21 0.88622829E-01 0.17463820E+03</pdfrwt>
<pdfrwt beam="2">  1       21 0.27409924E-01 0.17463820E+03</pdfrwt>
<totfact> 0.13988220E+04</totfact>
</mgrwt>
</event>
<event>
 4    2  0.4024741E+000  0.1854969E+03  0.7546771E-02  0.1162587E+00
         21   -1    0    0  501  502  0.00000000000E+00  0.00000000000E+00  0.70348796376E+03  0.70348796376E+03  0.00000000000E+00 0. -1.
         21   -1    0    0  502  503 -0.00000000000E+00 -0.00000000000E+00 -0.48987092926E+02  0.48987092926E+02  0.00000000000E+00 0. -1.
          6    1    1    2  501    0 -0.39933426617E+02  0.53716012569E+02  0.34196915210E+03  0.38903983029E+03  0.17300000000E+03 0. -1.
         -6    1    1    2    0  503  0.39933426617E+02 -0.53716012569E+02  0.31253171874E+03  0.36343522640E+03  0.17300000000E+03 0. -1.
<mgrwt>
<rscale>  2 0.18549687E+03</rscale>
<asrwt>0</asrwt>
<pdfrwt beam="1">  1       21 0.10822891E+00 0.18549687E+03</pdfrwt>
<pdfrwt beam="2">  1       21 0.75364763E-02 0.18549687E+03</pdfrwt>
<totfact> 0.90695910E+04</totfact>
</mgrwt>
</event>
<event>
 4    2  0.4024741E+000  0.1745895E+03  0.7546771E-02  0.1173145E+00
         21   -1    0    0  503  502  0.00000000000E+00  0.00000000000E+00  0.53924538283E+02  0.53924538283E+02  0.00000000000E+00 0.  1.
         21   -1    0    0  501  503 -0.00000000000E+00 -0.00000000000E+00 -0.60908824523E+03  0.60908824523E+03  0.00000000000E+00 0.  1.
          6    1    1    2  501    0 -0.92562509878E+01 -0.21605849096E+02 -0.36650586860E+03  0.40596556826E+03  0.17300000000E+03 0.  1.
         -6    1    1    2    0  502  0.92562509878E+01  0.21605849096E+02 -0.18865783835E+03  0.25704721525E+03  0.17300000000E+03 0.  1.
<mgrwt>
<rscale>  2 0.17458949E+03</rscale>
<asrwt>0</asrwt>
<pdfrwt beam="1">  1       21 0.82960826E-02 0.17458949E+03</pdfrwt>
<pdfrwt beam="2">  1       21 0.93705886E-01 0.17458949E+03</pdfrwt>
<totfact> 0.10852093E+05</totfact>
</mgrwt>
</event>
<event>
 4    2  0.4024741E+000  0.1881747E+03  0.7546771E-02  0.1160118E+00
         21   -1    0    0  501  502  0.00000000000E+00  0.00000000000E+00  0.40236544476E+03  0.40236544476E+03  0.00000000000E+00 0. -1.
         21   -1    0    0  502  503 -0.00000000000E+00 -0.00000000000E+00 -0.10069505126E+03  0.10069505126E+03  0.00000000000E+00 0. -1.
          6    1    1    2  501    0  0.31547538429E+02 -0.66973773010E+02  0.24013211050E+03  0.30507894707E+03  0.17300000000E+03 0. -1.
         -6    1    1    2    0  503 -0.31547538429E+02  0.66973773010E+02  0.61538282998E+02  0.19798154895E+03  0.17300000000E+03 0. -1.
<mgrwt>
<rscale>  2 0.18817474E+03</rscale>
<asrwt>0</asrwt>
<pdfrwt beam="1">  1       21 0.61902375E-01 0.18817474E+03</pdfrwt>
<pdfrwt beam="2">  1       21 0.15491547E-01 0.18817474E+03</pdfrwt>
<totfact> 0.89775845E+04</totfact>
</mgrwt>
</event>
<event>
 4    2  0.4024741E+000  0.4153092E+03  0.7546771E-02  0.1038604E+00
         21   -1    0    0  503  502  0.00000000000E+00  0.00000000000E+00  0.73073608286E+03  0.73073608286E+03  0.00000000000E+00 0. -1.
         21   -1    0    0  501  503 -0.00000000000E+00 -0.00000000000E+00 -0.43147554340E+03  0.43147554340E+03  0.00000000000E+00 0. -1.
          6    1    1    2  501    0 -0.91794457782E+02 -0.36623281640E+03 -0.24146341103E+03  0.48040220353E+03  0.17300000000E+03 0. -1.
         -6    1    1    2    0  502  0.91794457782E+02  0.36623281640E+03  0.54072395049E+03  0.68180942273E+03  0.17300000000E+03 0. -1.
<mgrwt>
<rscale>  2 0.41530916E+03</rscale>
<asrwt>0</asrwt>
<pdfrwt beam="1">  1       21 0.11242094E+00 0.41530916E+03</pdfrwt>
<pdfrwt beam="2">  1       21 0.66380853E-01 0.41530916E+03</pdfrwt>
<totfact> 0.11139236E+03</totfact>
</mgrwt>
</event>
<event>
 4    2  0.4024741E+000  0.2415272E+03  0.7546771E-02  0.1118780E+00
         21   -1    0    0  501  502  0.00000000000E+00  0.00000000000E+00  0.84428287921E+03  0.84428287921E+03  0.00000000000E+00 0.  1.
         21   -1    0    0  502  503 -0.00000000000E+00 -0.00000000000E+00 -0.87796177781E+02  0.87796177781E+02  0.00000000000E+00 0.  1.
          6    1    1    2  501    0  0.12122574347E+03 -0.11709276274E+03  0.59333520400E+03  0.64061069323E+03  0.17300000000E+03 0.  1.
         -6    1    1    2    0  503 -0.12122574347E+03  0.11709276274E+03  0.16315149743E+03  0.29146836377E+03  0.17300000000E+03 0.  1.
<mgrwt>
<rscale>  2 0.24152722E+03</rscale>
<asrwt>0</asrwt>
<pdfrwt beam="1">  1       21 0.12988967E+00 0.24152722E+03</pdfrwt>
<pdfrwt beam="2">  1       21 0.13507105E-01 0.24152722E+03</pdfrwt>
<totfact> 0.19956720E+04</totfact>
</mgrwt>
</event>
<event>
 4    2  0.4024741E+000  0.1758648E+03  0.7546771E-02  0.1171866E+00
         21   -1    0    0  503  502  0.00000000000E+00  0.00000000000E+00  0.80072493198E+02  0.80072493198E+02  0.00000000000E+00 0.  1.
         21   -1    0    0  501  503 -0.00000000000E+00 -0.00000000000E+00 -0.48937408479E+03  0.48937408479E+03  0.00000000000E+00 0.  1.
          6    1    1    2  501    0  0.12822756927E+02 -0.28896422279E+02 -0.33534952463E+03  0.37866572328E+03  0.17300000000E+03 0.  1.
         -6    1    1    2    0  502 -0.12822756927E+02  0.28896422279E+02 -0.73952066958E+02  0.19078085471E+03  0.17300000000E+03 0.  1.
<mgrwt>
<rscale>  2 0.17586480E+03</rscale>
<asrwt>0</asrwt>
<pdfrwt beam="1">  1       21 0.12318845E-01 0.17586480E+03</pdfrwt>
<pdfrwt beam="2">  1       21 0.75288323E-01 0.17586480E+03</pdfrwt>
<totfact> 0.88869133E+04</totfact>
</mgrwt>
</event>
<event>
 4    2  0.4024741E+000  0.2028553E+03  0.7546771E-02  0.1147352E+00
         21   -1    0    0  501  502  0.00000000000E+00  0.00000000000E+00  0.11054354545E+03  0.11054354545E+03  0.00000000000E+00 0.  1.
         21   -1    0    0  502  503 -0.00000000000E+00 -0.00000000000E+00 -0.37413373186E+03  0.37413373186E+03  0.00000000000E+00 0.  1.
          6    1    1    2  501    0 -0.13554344000E+02  0.10505981191E+03 -0.14897217959E+03  0.25168034212E+03  0.17300000000E+03 0.  1.
         -6    1    1    2    0  503  0.13554344000E+02 -0.10505981191E+03 -0.11461800683E+03  0.23299693519E+03  0.17300000000E+03 0.  1.
<mgrwt>
<rscale>  2 0.20285533E+03</rscale>
<asrwt>0</asrwt>
<pdfrwt beam="1">  1       21 0.17006699E-01 0.20285533E+03</pdfrwt>
<pdfrwt beam="2">  1       21 0.57559036E-01 0.20285533E+03</pdfrwt>
<totfact> 0.87906996E+04</totfact>
</mgrwt>
</event>
<event>
 4    2  0.4024741E+000  0.2584052E+03  0.7546771E-02  0.1108105E+00
         21   -1    0    0  501  502  0.00000000000E+00  0.00000000000E+00  0.33648891776E+03  0.33648891776E+03  0.00000000000E+00 0.  1.
         21   -1    0    0  502  503 -0.00000000000E+00 -0.00000000000E+00 -0.20153865046E+03  0.20153865046E+03  0.00000000000E+00 0. -1.
          6    1    1    2  501    0  0.14743269448E+03 -0.12291403324E+03  0.10082535524E+03  0.27737882260E+03  0.17300000000E+03 0.  1.
         -6    1    1    2    0  503 -0.14743269448E+03  0.12291403324E+03  0.34124912054E+02  0.26064874562E+03  0.17300000000E+03 0. -1.
<mgrwt>
<rscale>  2 0.25840522E+03</rscale>
<asrwt>0</asrwt>
<pdfrwt beam="1">  1       21 0.51767526E-01 0.25840522E+03</pdfrwt>
<pdfrwt beam="2">  1       21 0.31005946E-01 0.25840522E+03</pdfrwt>
<totfact> 0.34310666E+04</totfact>
</mgrwt>
</event>
<event>
 4    2  0.4024741E+000  0.1870695E+03  0.7546771E-02  0.1161131E+00
         21   -1    0    0  503  502  0.00000000000E+00  0.00000000000E+00  0.10748026762E+03  0.10748026762E+03  0.00000000000E+00 0.  1.
         21   -1    0    0  501  503 -0.00000000000E+00 -0.00000000000E+00 -0.48771834802E+03  0.48771834802E+03  0.00000000000E+00 0.  1.
          6    1    1    2  501    0  0.69247728248E+02 -0.16453975570E+02 -0.36170069673E+03  0.40721293594E+03  0.17300000000E+03 0.  1.
         -6    1    1    2    0  502 -0.69247728248E+02  0.16453975570E+02 -0.18537383671E+02  0.18798567970E+03  0.17300000000E+03 0.  1.
<mgrwt>
<rscale>  2 0.18706946E+03</rscale>
<asrwt>0</asrwt>
<pdfrwt beam="1">  1       21 0.16535425E-01 0.18706946E+03</pdfrwt>
<pdfrwt beam="2">  1       21 0.75033594E-01 0.18706946E+03</pdfrwt>
<totfact> 0.52277443E+04</totfact>
</mgrwt>
</event>
<event>
 4    2  0.4024741E+000  0.1825549E+03  0.7546771E-02  0.1165353E+00
         21   -1    0    0  501  502  0.00000000000E+00  0.00000000000E+00  0.28593261474E+03  0.28593261474E+03  0.00000000000E+00 0. -1.
         21   -1    0    0  502  503 -0.00000000000E+00 -0.00000000000E+00 -0.19452786358E+03  0.19452786358E+03  0.00000000000E+00 0. -1.
          6    1    1    2  501    0  0.18093767719E+02  0.55406638789E+02  0.19779715613E+03  0.26916536743E+03  0.17300000000E+03 0. -1.
         -6    1    1    2    0  503 -0.18093767719E+02 -0.55406638789E+02 -0.10639240497E+03  0.21129511089E+03  0.17300000000E+03 0. -1.
<mgrwt>
<rscale>  2 0.18255487E+03</rscale>
<asrwt>0</asrwt>
<pdfrwt beam="1">  1       21 0.43989633E-01 0.18255487E+03</pdfrwt>
<pdfrwt beam="2">  1       21 0.29927364E-01 0.18255487E+03</pdfrwt>
<totfact> 0.53400364E+04</totfact>
</mgrwt>
</event>
<event>
 4    2  0.4024741E+000  0.2076852E+03  0.7546771E-02  0.1143412E+00
         21   -1    0    0  503  502  0.00000000000E+00  0.00000000000E+00  0.60587977782E+03  0.60587977782E+03  0.00000000000E+00 0. -1.
         21   -1    0    0  501  503 -0.00000000000E+00 -0.00000000000E+00 -0.97900774067E+02  0.97900774067E+02  0.00000000000E+00 0. -1.
          6    1    1    2  501    0  0.18276988112E+02 -0.11344650943E+03  0.70187730664E+02  0.21922471652E+03  0.17300000000E+03 0. -1.
         -6    1    1    2    0  502 -0.18276988112E+02  0.11344650943E+03  0.43779127309E+03  0.48455583537E+03  0.17300000000E+03 0. -1.
<mgrwt>
<rscale>  2 0.20768524E+03</rscale>
<asrwt>0</asrwt>
<pdfrwt beam="1">  1       21 0.93212271E-01 0.20768524E+03</pdfrwt>
<pdfrwt beam="2">  1       21 0.15061658E-01 0.20768524E+03</pdfrwt>
<totfact> 0.37401322E+04</totfact>
</mgrwt>
</event>
<event>
 4    2  0.4024741E+000  0.2034517E+03  0.7546771E-02  0.1146859E+00
         21   -1    0    0  501  502  0.00000000000E+00  0.00000000000E+00  0.17790232785E+03  0.17790232785E+03  0.00000000000E+00 0.  1.
         21   -1    0    0  502  503 -0.00000000000E+00 -0.00000000000E+00 -0.50181699177E+03  0.50181699177E+03  0.00000000000E+00 0. -1.
          6    1    1    2  501    0  0.92371556584E+02 -0.54139528841E+02  0.86940685359E+02  0.22124935213E+03  0.17300000000E+03 0.  1.
         -6    1    1    2    0  503 -0.92371556584E+02  0.54139528841E+02 -0.41085534928E+03  0.45846996748E+03  0.17300000000E+03 0. -1.
<mgrwt>
<rscale>  2 0.20345170E+03</rscale>
<asrwt>0</asrwt>
<pdfrwt beam="1">  1       21 0.27369589E-01 0.20345170E+03</pdfrwt>
<pdfrwt beam="2">  1       21 0.77202613E-01 0.20345170E+03</pdfrwt>
<totfact> 0.18846182E+04</totfact>
</mgrwt>
</event>
<event>
 4    2  0.4024741E+000  0.2184418E+03  0.7546771E-02  0.1135050E+00
         21   -1    0    0  501  502  0.00000000000E+00  0.00000000000E+00  0.39310288065E+03  0.39310288065E+03  0.00000000000E+00 0. -1.
         21   -1    0    0  502  503 -0.00000000000E+00 -0.00000000000E+00 -0.15450868939E+03  0.15450868939E+03  0.00000000000E+00 0.  1.
          6    1    1    2  501    0 -0.84438666779E+02 -0.10323733855E+03  0.24607243862E+03  0.32904176265E+03  0.17300000000E+03 0. -1.
         -6    1    1    2    0  503  0.84438666779E+02  0.10323733855E+03 -0.74782473668E+01  0.21856980739E+03  0.17300000000E+03 0.  1.
<mgrwt>
<rscale>  2 0.21844184E+03</rscale>
<asrwt>0</asrwt>
<pdfrwt beam="1">  1       21 0.60477366E-01 0.21844184E+03</pdfrwt>
<pdfrwt beam="2">  1       21 0.23770568E-01 0.21844184E+03</pdfrwt>
<totfact> 0.41931399E+04</totfact>
</mgrwt>
</event>
<event>
 4    2  0.4024741E+000  0.3534678E+03  0.7546771E-02  0.1061201E+00
         21   -1    0    0  503  502  0.00000000000E+00  0.00000000000E+00  0.13508950327E+04  0.13508950327E+04  0.00000000000E+00 0.  1.
         21   -1    0    0  501  503 -0.00000000000E+00 -0.00000000000E+00 -0.13015431928E+03  0.13015431928E+03  0.00000000000E+00 0. -1.
          6    1    1    2  501    0 -0.31670998796E+02 -0.30660629542E+03  0.21199191684E+03  0.41216507052E+03  0.17300000000E+03 0. -1.
         -6    1    1    2    0  502  0.31670998796E+02  0.30660629542E+03  0.10087487966E+04  0.10688842815E+04  0.17300000000E+03 0.  1.
<mgrwt>
<rscale>  2 0.35346778E+03</rscale>
<asrwt>0</asrwt>
<pdfrwt beam="1">  1       21 0.20783000E+00 0.35346778E+03</pdfrwt>
<pdfrwt beam="2">  1       21 0.20023742E-01 0.35346778E+03</pdfrwt>
<totfact> 0.24445637E+03</totfact>
</mgrwt>
</event>
<event>
 4    2  0.4024741E+000  0.2382417E+03  0.7546771E-02  0.1120970E+00
         21   -1    0    0  503  502  0.00000000000E+00  0.00000000000E+00  0.68276902138E+02  0.68276902138E+02  0.00000000000E+00 0.  1.
         21   -1    0    0  501  503 -0.00000000000E+00 -0.00000000000E+00 -0.97634513587E+03  0.97634513587E+03  0.00000000000E+00 0. -1.
          6    1    1    2  501    0 -0.69779905916E+02 -0.14819208781E+03 -0.65534498300E+03  0.69730637234E+03  0.17300000000E+03 0. -1.
         -6    1    1    2    0  502  0.69779905916E+02  0.14819208781E+03 -0.25272325073E+03  0.34731566567E+03  0.17300000000E+03 0. -1.
<mgrwt>
<rscale>  2 0.23824175E+03</rscale>
<asrwt>0</asrwt>
<pdfrwt beam="1">  1       21 0.10504140E-01 0.23824175E+03</pdfrwt>
<pdfrwt beam="2">  1       21 0.15020693E+00 0.23824175E+03</pdfrwt>
<totfact> 0.21534263E+04</totfact>
</mgrwt>
</event>
<event>
 4    2  0.4024741E+000  0.1783177E+03  0.7546771E-02  0.1169441E+00
         21   -1    0    0  501  502  0.00000000000E+00  0.00000000000E+00  0.10670749798E+04  0.10670749798E+04  0.00000000000E+00 0.  1.
         21   -1    0    0  502  503 -0.00000000000E+00 -0.00000000000E+00 -0.30223793018E+02  0.30223793018E+02  0.00000000000E+00 0.  1.
          6    1    1    2  501    0  0.36987453367E+02  0.22363745030E+02  0.45334125460E+03  0.48715038943E+03  0.17300000000E+03 0.  1.
         -6    1    1    2    0  503 -0.36987453367E+02 -0.22363745030E+02  0.58350993220E+03  0.61014838340E+03  0.17300000000E+03 0.  1.
<mgrwt>
<rscale>  2 0.17831772E+03</rscale>
<asrwt>0</asrwt>
<pdfrwt beam="1">  1       21 0.16416535E+00 0.17831772E+03</pdfrwt>
<pdfrwt beam="2">  1       21 0.46498151E-02 0.17831772E+03</pdfrwt>
<totfact> 0.71966752E+04</totfact>
</mgrwt>
</event>
<event>
 4    2  0.4024741E+000  0.3059442E+03  0.7546771E-02  0.1082306E+00
         21   -1    0    0  503  502  0.00000000000E+00  0.00000000000E+00  0.49667732498E+03  0.49667732498E+03  0.00000000000E+00 0.  1.
         21   -1    0    0  501  503 -0.00000000000E+00 -0.00000000000E+00 -0.19529412779E+03  0.19529412779E+03  0.00000000000E+00 0. -1.
          6    1    1    2  501    0 -0.15157846026E+03 -0.20173451651E+03  0.85950399645E+02  0.31778816209E+03  0.17300000000E+03 0. -1.
         -6    1    1    2    0  502  0.15157846026E+03  0.20173451651E+03  0.21543279755E+03  0.37418329068E+03  0.17300000000E+03 0.  1.
<mgrwt>
<rscale>  2 0.30594419E+03</rscale>
<asrwt>0</asrwt>
<pdfrwt beam="1">  1       21 0.76411896E-01 0.30594419E+03</pdfrwt>
<pdfrwt beam="2">  1       21 0.30045251E-01 0.30594419E+03</pdfrwt>
<totfact> 0.15278398E+04</totfact>
</mgrwt>
</event>
<event>
 4    2  0.4024741E+000  0.1766946E+03  0.7546771E-02  0.1171041E+00
         21   -1    0    0  501  502  0.00000000000E+00  0.00000000000E+00  0.28760082422E+03  0.28760082422E+03  0.00000000000E+00 0. -1.
         21   -1    0    0  502  503 -0.00000000000E+00 -0.00000000000E+00 -0.13429509678E+03  0.13429509678E+03  0.00000000000E+00 0. -1.
          6    1    1    2  501    0 -0.30355280994E+02 -0.19249112984E+02 -0.15697100311E+02  0.17739044617E+03  0.17300000000E+03 0.  1.
         -6    1    1    2    0  503  0.30355280994E+02  0.19249112984E+02  0.16900282775E+03  0.24450547483E+03  0.17300000000E+03 0.  1.
<mgrwt>
<rscale>  2 0.17669457E+03</rscale>
<asrwt>0</asrwt>
<pdfrwt beam="1">  1       21 0.44246280E-01 0.17669457E+03</pdfrwt>
<pdfrwt beam="2">  1       21 0.20660784E-01 0.17669457E+03</pdfrwt>
<totfact> 0.10718957E+05</totfact>
</mgrwt>
</event>
<event>
 4    2  0.4024741E+000  0.1806004E+03  0.7546771E-02  0.1167223E+00
         21   -1    0    0  503  502  0.00000000000E+00  0.00000000000E+00  0.16365959987E+03  0.16365959987E+03  0.00000000000E+00 0. -1.
         21   -1    0    0  501  503 -0.00000000000E+00 -0.00000000000E+00 -0.46874177290E+03  0.46874177290E+03  0.00000000000E+00 0. -1.
          6    1    1    2  501    0  0.35691359985E+02  0.37598260235E+02 -0.39227675684E+03  0.43185362834E+03  0.17300000000E+03 0. -1.
         -6    1    1    2    0  502 -0.35691359985E+02 -0.37598260235E+02  0.87194583814E+02  0.20054774443E+03  0.17300000000E+03 0. -1.
<mgrwt>
<rscale>  2 0.18060039E+03</rscale>
<asrwt>0</asrwt>
<pdfrwt beam="1">  1       21 0.25178401E-01 0.18060039E+03</pdfrwt>
<pdfrwt beam="2">  1       21 0.72114117E-01 0.18060039E+03</pdfrwt>
<totfact> 0.26101642E+04</totfact>
</mgrwt>
</event>
<event>
 4    2  0.4024741E+000  0.2257430E+03  0.7546771E-02  0.1129672E+00
         21   -1    0    0  503  502  0.00000000000E+00  0.00000000000E+00  0.12091881177E+03  0.12091881177E+03  0.00000000000E+00 0.  1.
         21   -1    0    0  501  503 -0.00000000000E+00 -0.00000000000E+00 -0.43671432148E+03  0.43671432148E+03  0.00000000000E+00 0.  1.
          6    1    1    2  501    0  0.84752177210E+02  0.11767747824E+03 -0.10575271525E+03  0.24928609510E+03  0.17300000000E+03 0.  1.
         -6    1    1    2    0  502 -0.84752177210E+02 -0.11767747824E+03 -0.21004279446E+03  0.30834703814E+03  0.17300000000E+03 0.  1.
<mgrwt>
<rscale>  2 0.22574304E+03</rscale>
<asrwt>0</asrwt>
<pdfrwt beam="1">  1       21 0.18602894E-01 0.22574304E+03</pdfrwt>
<pdfrwt beam="2">  1       21 0.67186819E-01 0.22574304E+03</pdfrwt>
<totfact> 0.52735675E+04</totfact>
</mgrwt>
</event>
<event>
 4    2  0.4024741E+000  0.2970051E+03  0.7546771E-02  0.1086747E+00
         21   -1    0    0  501  502  0.00000000000E+00  0.00000000000E+00  0.12588355360E+04  0.12588355360E+04  0.00000000000E+00 0.  1.
         21   -1    0    0  502  503 -0.00000000000E+00 -0.00000000000E+00 -0.84731548443E+02  0.84731548443E+02  0.00000000000E+00 0.  1.
          6    1    1    2  501    0  0.24132702770E+03 -0.66535714424E+01  0.86645635839E+03  0.91594684634E+03  0.17300000000E+03 0.  1.
         -6    1    1    2    0  503 -0.24132702770E+03  0.66535714424E+01  0.30764762918E+03  0.42762023813E+03  0.17300000000E+03 0.  1.
<mgrwt>
<rscale>  2 0.29700506E+03</rscale>
<asrwt>0</asrwt>
<pdfrwt beam="1">  1       21 0.19366699E+00 0.29700506E+03</pdfrwt>
<pdfrwt beam="2">  1       21 0.13035624E-01 0.29700506E+03</pdfrwt>
<totfact> 0.69300057E+03</totfact>
</mgrwt>
</event>
<event>
 4    2  0.4024741E+000  0.1818628E+03  0.7546771E-02  0.1166012E+00
         21   -1    0    0  501  502  0.00000000000E+00  0.00000000000E+00  0.18920309350E+03  0.18920309350E+03  0.00000000000E+00 0. -1.
         21   -1    0    0  502  503 -0.00000000000E+00 -0.00000000000E+00 -0.23435508628E+03  0.23435508628E+03  0.00000000000E+00 0.  1.
          6    1    1    2  501    0 -0.66734062232E+01 -0.55682497951E+02  0.84176694543E+02  0.20039907892E+03  0.17300000000E+03 0. -1.
         -6    1    1    2    0  503  0.66734062232E+01  0.55682497951E+02 -0.12932868733E+03  0.22315910085E+03  0.17300000000E+03 0.  1.
<mgrwt>
<rscale>  2 0.18186279E+03</rscale>
<asrwt>0</asrwt>
<pdfrwt beam="1">  1       21 0.29108168E-01 0.18186279E+03</pdfrwt>
<pdfrwt beam="2">  1       21 0.36054629E-01 0.18186279E+03</pdfrwt>
<totfact> 0.84191629E+04</totfact>
</mgrwt>
</event>
<event>
 4    2  0.4024741E+000  0.1932124E+03  0.7546771E-02  0.1155595E+00
         21   -1    0    0  501  502  0.00000000000E+00  0.00000000000E+00  0.93872217350E+03  0.93872217350E+03  0.00000000000E+00 0. -1.
         21   -1    0    0  502  503 -0.00000000000E+00 -0.00000000000E+00 -0.39996984712E+02  0.39996984712E+02  0.00000000000E+00 0. -1.
          6    1    1    2  501    0  0.76169771818E+02 -0.40002653575E+02  0.48639443084E+03  0.52336468049E+03  0.17300000000E+03 0.  1.
         -6    1    1    2    0  503 -0.76169771818E+02  0.40002653575E+02  0.41233075795E+03  0.45535447772E+03  0.17300000000E+03 0.  1.
<mgrwt>
<rscale>  2 0.19321244E+03</rscale>
<asrwt>0</asrwt>
<pdfrwt beam="1">  1       21 0.14441878E+00 0.19321244E+03</pdfrwt>
<pdfrwt beam="2">  1       21 0.61533829E-02 0.19321244E+03</pdfrwt>
<totfact> 0.62320242E+04</totfact>
</mgrwt>
</event>
<event>
 4    2  0.4024741E+000  0.1870498E+03  0.7546771E-02  0.1161149E+00
         21   -1    0    0  503  502  0.00000000000E+00  0.00000000000E+00  0.12685484835E+03  0.12685484835E+03  0.00000000000E+00 0.  1.
         21   -1    0    0  501  503 -0.00000000000E+00 -0.00000000000E+00 -0.28085052871E+03  0.28085052871E+03  0.00000000000E+00 0. -1.
          6    1    1    2  501    0  0.26552077050E+02 -0.65982066115E+02 -0.10431159087E+03  0.21416945122E+03  0.17300000000E+03 0. -1.
         -6    1    1    2    0  502 -0.26552077050E+02  0.65982066115E+02 -0.49684089484E+02  0.19353592584E+03  0.17300000000E+03 0.  1.
<mgrwt>
<rscale>  2 0.18704985E+03</rscale>
<asrwt>0</asrwt>
<pdfrwt beam="1">  1       21 0.19516131E-01 0.18704985E+03</pdfrwt>
<pdfrwt beam="2">  1       21 0.43207773E-01 0.18704985E+03</pdfrwt>
<totfact> 0.12467617E+05</totfact>
</mgrwt>
</event>
<event>
 4    2  0.4024741E+000  0.2090966E+03  0.7546771E-02  0.1142283E+00
         21   -1    0    0  503  502  0.00000000000E+00  0.00000000000E+00  0.27980336415E+03  0.27980336415E+03  0.00000000000E+00 0.  1.
         21   -1    0    0  501  503 -0.00000000000E+00 -0.00000000000E+00 -0.15704675064E+03  0.15704675064E+03  0.00000000000E+00 0.  1.
          6    1    1    2  501    0  0.87534118130E+02 -0.78295461737E+02  0.76861798650E+02  0.22277597998E+03  0.17300000000E+03 0.  1.
         -6    1    1    2    0  502 -0.87534118130E+02  0.78295461737E+02  0.45894814863E+02  0.21407413481E+03  0.17300000000E+03 0.  1.
<mgrwt>
<rscale>  2 0.20909663E+03</rscale>
<asrwt>0</asrwt>
<pdfrwt beam="1">  1       21 0.43046671E-01 0.20909663E+03</pdfrwt>
<pdfrwt beam="2">  1       21 0.24161039E-01 0.20909663E+03</pdfrwt>
<totfact> 0.83303831E+04</totfact>
</mgrwt>
</event>
<event>
 4    2  0.4024741E+000  0.2101837E+03  0.7546771E-02  0.1141421E+00
         21   -1    0    0  501  502  0.00000000000E+00  0.00000000000E+00  0.12315761996E+03  0.12315761996E+03  0.00000000000E+00 0. -1.
         21   -1    0    0  502  503 -0.00000000000E+00 -0.00000000000E+00 -0.39033704525E+03  0.39033704525E+03  0.00000000000E+00 0. -1.
          6    1    1    2  501    0 -0.79936634427E+02  0.88647067142E+02 -0.60500297428E+02  0.21871774968E+03  0.17300000000E+03 0. -1.
         -6    1    1    2    0  503  0.79936634427E+02 -0.88647067142E+02 -0.20667912786E+03  0.29477691553E+03  0.17300000000E+03 0. -1.
<mgrwt>
<rscale>  2 0.21018365E+03</rscale>
<asrwt>0</asrwt>
<pdfrwt beam="1">  1       21 0.18947327E-01 0.21018365E+03</pdfrwt>
<pdfrwt beam="2">  1       21 0.60051852E-01 0.21018365E+03</pdfrwt>
<totfact> 0.65506032E+04</totfact>
</mgrwt>
</event>
<event>
 4    2  0.4024741E+000  0.1916347E+03  0.7546771E-02  0.1156995E+00
         21   -1    0    0  501  502  0.00000000000E+00  0.00000000000E+00  0.84236276244E+02  0.84236276244E+02  0.00000000000E+00 0.  1.
         21   -1    0    0  502  503 -0.00000000000E+00 -0.00000000000E+00 -0.66458567264E+03  0.66458567264E+03  0.00000000000E+00 0. -1.
          6    1    1    2  501    0  0.81581673963E+02 -0.11802848141E+02 -0.50977502912E+03  0.54460486324E+03  0.17300000000E+03 0. -1.
         -6    1    1    2    0  503 -0.81581673963E+02  0.11802848141E+02 -0.70574367272E+02  0.20421708564E+03  0.17300000000E+03 0.  1.
<mgrwt>
<rscale>  2 0.19163475E+03</rscale>
<asrwt>0</asrwt>
<pdfrwt beam="1">  1       21 0.12959427E-01 0.19163475E+03</pdfrwt>
<pdfrwt beam="2">  1       21 0.10224395E+00 0.19163475E+03</pdfrwt>
<totfact> 0.39827050E+04</totfact>
</mgrwt>
</event>
<event>
 4    2  0.4024741E+000  0.1839782E+03  0.7546771E-02  0.1164008E+00
         21   -1    0    0  501  502  0.00000000000E+00  0.00000000000E+00  0.27158958004E+03  0.27158958004E+03  0.00000000000E+00 0.  1.
         21   -1    0    0  502  503 -0.00000000000E+00 -0.00000000000E+00 -0.34754908280E+03  0.34754908280E+03  0.00000000000E+00 0. -1.
          6    1    1    2  501    0 -0.23013030074E+02  0.58218309479E+02  0.20994753908E+03  0.27915218121E+03  0.17300000000E+03 0.  1.
         -6    1    1    2    0  503  0.23013030074E+02 -0.58218309479E+02 -0.28590704184E+03  0.33998648162E+03  0.17300000000E+03 0. -1.
<mgrwt>
<rscale>  2 0.18397818E+03</rscale>
<asrwt>0</asrwt>
<pdfrwt beam="1">  1       21 0.41783012E-01 0.18397818E+03</pdfrwt>
<pdfrwt beam="2">  1       21 0.53469090E-01 0.18397818E+03</pdfrwt>
<totfact> 0.18351192E+04</totfact>
</mgrwt>
</event>
<event>
 4    2  0.4024741E+000  0.2416886E+03  0.7546771E-02  0.1118673E+00
         21   -1    0    0  503  502  0.00000000000E+00  0.00000000000E+00  0.30722618855E+03  0.30722618855E+03  0.00000000000E+00 0.  1.
         21   -1    0    0  501  503 -0.00000000000E+00 -0.00000000000E+00 -0.21713183982E+03  0.21713183982E+03  0.00000000000E+00 0. -1.
          6    1    1    2  501    0  0.36649121072E+02 -0.16474597085E+03 -0.47405683876E+02  0.24629391355E+03  0.17300000000E+03 0. -1.
         -6    1    1    2    0  502 -0.36649121072E+02  0.16474597085E+03  0.13750003260E+03  0.27806411483E+03  0.17300000000E+03 0.  1.
<mgrwt>
<rscale>  2 0.24168863E+03</rscale>
<asrwt>0</asrwt>
<pdfrwt beam="1">  1       21 0.47265568E-01 0.24168863E+03</pdfrwt>
<pdfrwt beam="2">  1       21 0.33404898E-01 0.24168863E+03</pdfrwt>
<totfact> 0.36084676E+04</totfact>
</mgrwt>
</event>
<event>
 4    2  0.4024741E+000  0.1843474E+03  0.7546771E-02  0.1163661E+00
         21   -1    0    0  503  502  0.00000000000E+00  0.00000000000E+00  0.21797620021E+04  0.21797620021E+04  0.00000000000E+00 0. -1.
         21   -1    0    0  501  503 -0.00000000000E+00 -0.00000000000E+00 -0.15591121511E+02  0.15591121511E+02  0.00000000000E+00 0. -1.
          6    1    1    2  501    0 -0.45128405354E+02  0.44926352291E+02  0.10879923421E+04  0.11034995635E+04  0.17300000000E+03 0. -1.
         -6    1    1    2    0  502  0.45128405354E+02 -0.44926352291E+02  0.10761785385E+04  0.10918535601E+04  0.17300000000E+03 0. -1.
<mgrwt>
<rscale>  2 0.18434736E+03</rscale>
<asrwt>0</asrwt>
<pdfrwt beam="1">  1       21 0.33534776E+00 0.18434736E+03</pdfrwt>
<pdfrwt beam="2">  1       21 0.23986358E-02 0.18434736E+03</pdfrwt>
<totfact> 0.19676800E+04</totfact>
</mgrwt>
</event>
<event>
 4    2  0.4024741E+000  0.1983650E+03  0.7546771E-02  0.1151126E+00
         21   -1    0    0  503  502  0.00000000000E+00  0.00000000000E+00  0.84055208795E+02  0.84055208795E+02  0.00000000000E+00 0.  1.
         21   -1    0    0  501  503 -0.00000000000E+00 -0.00000000000E+00 -0.12301120730E+04  0.12301120730E+04  0.00000000000E+00 0.  1.
          6    1    1    2  501    0  0.95406782712E+02  0.17811137071E+02 -0.10901836878E+04  0.11080835545E+04  0.17300000000E+03 0.  1.
         -6    1    1    2    0  502 -0.95406782712E+02 -0.17811137071E+02 -0.55873176444E+02  0.20608372725E+03  0.17300000000E+03 0.  1.
<mgrwt>
<rscale>  2 0.19836504E+03</rscale>
<asrwt>0</asrwt>
<pdfrwt beam="1">  1       21 0.12931572E-01 0.19836504E+03</pdfrwt>
<pdfrwt beam="2">  1       21 0.18924799E+00 0.19836504E+03</pdfrwt>
<totfact> 0.80566422E+03</totfact>
</mgrwt>
</event>
<event>
 4    2  0.4024741E+000  0.2044217E+03  0.7546771E-02  0.1146061E+00
         21   -1    0    0  501  502  0.00000000000E+00  0.00000000000E+00  0.73567175052E+02  0.73567175052E+02  0.00000000000E+00 0. -1.
         21   -1    0    0  502  503 -0.00000000000E+00 -0.00000000000E+00 -0.57929772824E+03  0.57929772824E+03  0.00000000000E+00 0.  1.
          6    1    1    2  501    0 -0.36610748006E+02  0.10256157009E+03 -0.20733531906E+03  0.29116345420E+03  0.17300000000E+03 0.  1.
         -6    1    1    2    0  503  0.36610748006E+02 -0.10256157009E+03 -0.29839523412E+03  0.36170144909E+03  0.17300000000E+03 0. -1.
<mgrwt>
<rscale>  2 0.20442168E+03</rscale>
<asrwt>0</asrwt>
<pdfrwt beam="1">  1       21 0.11318027E-01 0.20442168E+03</pdfrwt>
<pdfrwt beam="2">  1       21 0.89122728E-01 0.20442168E+03</pdfrwt>
<totfact> 0.69623355E+04</totfact>
</mgrwt>
</event>
<event>
 4    2  0.4024741E+000  0.1902480E+03  0.7546771E-02  0.1158238E+00
         21   -1    0    0  503  502  0.00000000000E+00  0.00000000000E+00  0.26477058314E+03  0.26477058314E+03  0.00000000000E+00 0. -1.
         21   -1    0    0  501  503 -0.00000000000E+00 -0.00000000000E+00 -0.15785519759E+03  0.15785519759E+03  0.00000000000E+00 0. -1.
          6    1    1    2  501    0 -0.35377058458E+02 -0.70807895523E+02 -0.23899207196E+02  0.19174323049E+03  0.17300000000E+03 0. -1.
         -6    1    1    2    0  502  0.35377058458E+02  0.70807895523E+02  0.13081459274E+03  0.23088255024E+03  0.17300000000E+03 0. -1.
<mgrwt>
<rscale>  2 0.19024798E+03</rscale>
<asrwt>0</asrwt>
<pdfrwt beam="1">  1       21 0.40733936E-01 0.19024798E+03</pdfrwt>
<pdfrwt beam="2">  1       21 0.24285415E-01 0.19024798E+03</pdfrwt>
<totfact> 0.93029005E+04</totfact>
</mgrwt>
</event>
<event>
 4    2  0.4024741E+000  0.2593768E+03  0.7546771E-02  0.1107518E+00
         21   -1    0    0  503  502  0.00000000000E+00  0.00000000000E+00  0.49120957099E+03  0.49120957099E+03  0.00000000000E+00 0. -1.
         21   -1    0    0  501  503 -0.00000000000E+00 -0.00000000000E+00 -0.32052173866E+03  0.32052173866E+03  0.00000000000E+00 0.  1.
          6    1    1    2  501    0 -0.57068232374E+02 -0.18463624703E+03 -0.22180147469E+03  0.34128026758E+03  0.17300000000E+03 0.  1.
         -6    1    1    2    0  502  0.57068232374E+02  0.18463624703E+03  0.39248930702E+03  0.47045104207E+03  0.17300000000E+03 0. -1.
<mgrwt>
<rscale>  2 0.25937680E+03</rscale>
<asrwt>0</asrwt>
<pdfrwt beam="1">  1       21 0.75570703E-01 0.25937680E+03</pdfrwt>
<pdfrwt beam="2">  1       21 0.49311037E-01 0.25937680E+03</pdfrwt>
<totfact> 0.58625826E+03</totfact>
</mgrwt>
</event>
<event>
 4    2  0.4024741E+000  0.1953829E+03  0.7546771E-02  0.1153694E+00
         21   -1    0    0  503  502  0.00000000000E+00  0.00000000000E+00  0.88774805373E+03  0.88774805373E+03  0.00000000000E+00 0.  1.
         21   -1    0    0  501  503 -0.00000000000E+00 -0.00000000000E+00 -0.43023807423E+02  0.43023807423E+02  0.00000000000E+00 0.  1.
          6    1    1    2  501    0  0.78645900883E+02 -0.45390537236E+02  0.43296431012E+03  0.47500797091E+03  0.17300000000E+03 0.  1.
         -6    1    1    2    0  502 -0.78645900883E+02  0.45390537236E+02  0.41175993619E+03  0.45576389024E+03  0.17300000000E+03 0.  1.
<mgrwt>
<rscale>  2 0.19538290E+03</rscale>
<asrwt>0</asrwt>
<pdfrwt beam="1">  1       21 0.13657661E+00 0.19538290E+03</pdfrwt>
<pdfrwt beam="2">  1       21 0.66190479E-02 0.19538290E+03</pdfrwt>
<totfact> 0.63445864E+04</totfact>
</mgrwt>
</event>
<event>
 4    2  0.4024741E+000  0.1746973E+03  0.7546771E-02  0.1173036E+00
         21   -1    0    0  503  502  0.00000000000E+00  0.00000000000E+00  0.11228376562E+03  0.11228376562E+03  0.00000000000E+00 0.  1.
         21   -1    0    0  501  503 -0.00000000000E+00 -0.00000000000E+00 -0.32223742307E+03  0.32223742307E+03  0.00000000000E+00 0.  1.
          6    1    1    2  501    0  0.15054796986E+02 -0.19065972960E+02 -0.19092821857E+03  0.25879092504E+03  0.17300000000E+03 0.  1.
         -6    1    1    2    0  502 -0.15054796986E+02  0.19065972960E+02 -0.19025438890E+02  0.17573026365E+03  0.17300000000E+03 0.  1.
<mgrwt>
<rscale>  2 0.17469733E+03</rscale>
<asrwt>0</asrwt>
<pdfrwt beam="1">  1       21 0.17274425E-01 0.17469733E+03</pdfrwt>
<pdfrwt beam="2">  1       21 0.49574988E-01 0.17469733E+03</pdfrwt>
<totfact> 0.11825458E+05</totfact>
</mgrwt>
</event>
<event>
 4    2  0.4024741E+000  0.3462417E+03  0.7546771E-02  0.1064168E+00
         21   -1    0    0  501  502  0.00000000000E+00  0.00000000000E+00  0.19235623973E+04  0.19235623973E+04  0.00000000000E+00 0. -1.
         21   -1    0    0  502  503 -0.00000000000E+00 -0.00000000000E+00 -0.63192601252E+02  0.63192601252E+02  0.00000000000E+00 0.  1.
          6    1    1    2  501    0  0.87194974825E+02 -0.28696930984E+03  0.10466751152E+04  0.11024573213E+04  0.17300000000E+03 0. -1.
         -6    1    1    2    0  503 -0.87194974825E+02  0.28696930984E+03  0.81369468088E+03  0.88429767733E+03  0.17300000000E+03 0.  1.
<mgrwt>
<rscale>  2 0.34624175E+03</rscale>
<asrwt>0</asrwt>
<pdfrwt beam="1">  1       21 0.29593263E+00 0.34624175E+03</pdfrwt>
<pdfrwt beam="2">  1       21 0.97219401E-02 0.34624175E+03</pdfrwt>
<totfact> 0.26799667E+03</totfact>
</mgrwt>
</event>
<event>
 4    2  0.4024741E+000  0.2718990E+03  0.7546771E-02  0.1100198E+00
         21   -1    0    0  503  502  0.00000000000E+00  0.00000000000E+00  0.26165374889E+03  0.26165374889E+03  0.00000000000E+00 0.  1.
         21   -1    0    0  501  503 -0.00000000000E+00 -0.00000000000E+00 -0.36380550729E+03  0.36380550729E+03  0.00000000000E+00 0. -1.
          6    1    1    2  501    0  0.19085364281E+03 -0.87034067507E+02 -0.19887549550E+03  0.33686867559E+03  0.17300000000E+03 0. -1.
         -6    1    1    2    0  502 -0.19085364281E+03  0.87034067507E+02  0.96723737101E+02  0.28859058058E+03  0.17300000000E+03 0.  1.
<mgrwt>
<rscale>  2 0.27189896E+03</rscale>
<asrwt>0</asrwt>
<pdfrwt beam="1">  1       21 0.40254423E-01 0.27189896E+03</pdfrwt>
<pdfrwt beam="2">  1       21 0.55970078E-01 0.27189896E+03</pdfrwt>
<totfact> 0.17129497E+04</totfact>
</mgrwt>
</event>
<event>
 4    2  0.4024741E+000  0.2606307E+03  0.7546771E-02  0.1106765E+00
         21   -1    0    0  501  502  0.00000000000E+00  0.00000000000E+00  0.32322957122E+03  0.32322957122E+03  0.00000000000E+00 0.  1.
         21   -1    0    0  502  503 -0.00000000000E+00 -0.00000000000E+00 -0.33182450249E+03  0.33182450249E+03  0.00000000000E+00 0. -1.
          6    1    1    2  501    0 -0.15624175626E+03  0.11656693090E+03  0.19403036293E+03  0.32492478748E+03  0.17300000000E+03 0.  1.
         -6    1    1    2    0  503  0.15624175626E+03 -0.11656693090E+03 -0.20262529420E+03  0.33012928623E+03  0.17300000000E+03 0. -1.
<mgrwt>
<rscale>  2 0.26063065E+03</rscale>
<asrwt>0</asrwt>
<pdfrwt beam="1">  1       21 0.49727627E-01 0.26063065E+03</pdfrwt>
<pdfrwt beam="2">  1       21 0.51049923E-01 0.26063065E+03</pdfrwt>
<totfact> 0.13522640E+04</totfact>
</mgrwt>
</event>
<event>
 4    2  0.4024741E+000  0.2403936E+03  0.7546771E-02  0.1119531E+00
         21   -1    0    0  501  502  0.00000000000E+00  0.00000000000E+00  0.91011458980E+03  0.91011458980E+03  0.00000000000E+00 0.  1.
         21   -1    0    0  502  503 -0.00000000000E+00 -0.00000000000E+00 -0.13774909670E+03  0.13774909670E+03  0.00000000000E+00 0. -1.
          6    1    1    2  501    0 -0.43102190042E+01 -0.16685777566E+03  0.77085089245E+03  0.80746528945E+03  0.17300000000E+03 0.  1.
         -6    1    1    2    0  503  0.43102190042E+01  0.16685777566E+03  0.15146006513E+01  0.24039839705E+03  0.17300000000E+03 0. -1.
<mgrwt>
<rscale>  2 0.24039363E+03</rscale>
<asrwt>0</asrwt>
<pdfrwt beam="1">  1       21 0.14001763E+00 0.24039363E+03</pdfrwt>
<pdfrwt beam="2">  1       21 0.21192169E-01 0.24039363E+03</pdfrwt>
<totfact> 0.71570243E+03</totfact>
</mgrwt>
</event>
<event>
 4    2  0.4024741E+000  0.1812156E+03  0.7546771E-02  0.1166632E+00
         21   -1    0    0  501  502  0.00000000000E+00  0.00000000000E+00  0.19095283259E+03  0.19095283259E+03  0.00000000000E+00 0.  1.
         21   -1    0    0  502  503 -0.00000000000E+00 -0.00000000000E+00 -0.35123762390E+03  0.35123762390E+03  0.00000000000E+00 0.  1.
          6    1    1    2  501    0  0.38857118129E+02  0.37419413869E+02  0.11352940595E+03  0.21384109563E+03  0.17300000000E+03 0.  1.
         -6    1    1    2    0  503 -0.38857118129E+02 -0.37419413869E+02 -0.27381419726E+03  0.32834936087E+03  0.17300000000E+03 0.  1.
<mgrwt>
<rscale>  2 0.18121558E+03</rscale>
<asrwt>0</asrwt>
<pdfrwt beam="1">  1       21 0.29377359E-01 0.18121558E+03</pdfrwt>
<pdfrwt beam="2">  1       21 0.54036557E-01 0.18121558E+03</pdfrwt>
<totfact> 0.36153148E+04</totfact>
</mgrwt>
</event>
<event>
 4    2  0.4024741E+000  0.2668697E+03  0.7546771E-02  0.1103085E+00
         21   -1    0    0  501  502  0.00000000000E+00  0.00000000000E+00  0.99169055327E+03  0.99169055327E+03  0.00000000000E+00 0. -1.
         21   -1    0    0  502  503 -0.00000000000E+00 -0.00000000000E+00 -0.71847004825E+03  0.71847004825E+03  0.00000000000E+00 0.  1.
          6    1    1    2  501    0  0.19891622900E+03 -0.41506127316E+02  0.94782998885E+03  0.98468325492E+03  0.17300000000E+03 0. -1.
         -6    1    1    2    0  503 -0.19891622900E+03  0.41506127316E+02 -0.67460948383E+03  0.72547734660E+03  0.17300000000E+03 0.  1.
<mgrwt>
<rscale>  2 0.26686968E+03</rscale>
<asrwt>0</asrwt>
<pdfrwt beam="1">  1       21 0.15256778E+00 0.26686968E+03</pdfrwt>
<pdfrwt beam="2">  1       21 0.11053385E+00 0.26686968E+03</pdfrwt>
<totfact> 0.16988471E+02</totfact>
</mgrwt>
</event>
<event>
 4    2  0.4024741E+000  0.1986462E+03  0.7546771E-02  0.1150886E+00
         21   -1    0    0  503  502  0.00000000000E+00  0.00000000000E+00  0.19038525452E+03  0.19038525452E+03  0.00000000000E+00 0.  1.
         21   -1    0    0  501  503 -0.00000000000E+00 -0.00000000000E+00 -0.32384200008E+03  0.32384200008E+03  0.00000000000E+00 0.  1.
          6    1    1    2  501    0  0.87934417464E+02  0.42412633302E+02  0.87535429647E+02  0.21707773880E+03  0.17300000000E+03 0.  1.
         -6    1    1    2    0  502 -0.87934417464E+02 -0.42412633302E+02 -0.22099217520E+03  0.29714951580E+03  0.17300000000E+03 0.  1.
<mgrwt>
<rscale>  2 0.19864615E+03</rscale>
<asrwt>0</asrwt>
<pdfrwt beam="1">  1       21 0.29290039E-01 0.19864615E+03</pdfrwt>
<pdfrwt beam="2">  1       21 0.49821846E-01 0.19864615E+03</pdfrwt>
<totfact> 0.42729830E+04</totfact>
</mgrwt>
</event>
<event>
 4    2  0.4024741E+000  0.2125222E+03  0.7546771E-02  0.1139584E+00
         21   -1    0    0  501  502  0.00000000000E+00  0.00000000000E+00  0.79781432980E+02  0.79781432980E+02  0.00000000000E+00 0.  1.
         21   -1    0    0  502  503 -0.00000000000E+00 -0.00000000000E+00 -0.57607664052E+03  0.57607664052E+03  0.00000000000E+00 0.  1.
          6    1    1    2  501    0 -0.43178773191E+02 -0.11563861919E+03 -0.20503124157E+03  0.29530239877E+03  0.17300000000E+03 0.  1.
         -6    1    1    2    0  503  0.43178773191E+02  0.11563861919E+03 -0.29126396597E+03  0.36055567472E+03  0.17300000000E+03 0.  1.
<mgrwt>
<rscale>  2 0.21252223E+03</rscale>
<asrwt>0</asrwt>
<pdfrwt beam="1">  1       21 0.12274066E-01 0.21252223E+03</pdfrwt>
<pdfrwt beam="2">  1       21 0.88627180E-01 0.21252223E+03</pdfrwt>
<totfact> 0.60771511E+04</totfact>
</mgrwt>
</event>
<event>
 4    2  0.4024741E+000  0.2060236E+03  0.7546771E-02  0.1144754E+00
         21   -1    0    0  501  502  0.00000000000E+00  0.00000000000E+00  0.20171972239E+03  0.20171972239E+03  0.00000000000E+00 0. -1.
         21   -1    0    0  502  503 -0.00000000000E+00 -0.00000000000E+00 -0.21542629075E+03  0.21542629075E+03  0.00000000000E+00 0. -1.
          6    1    1    2  501    0 -0.11021485387E+03 -0.19219788380E+02  0.24944654851E+02  0.20752819106E+03  0.17300000000E+03 0. -1.
         -6    1    1    2    0  503  0.11021485387E+03  0.19219788380E+02 -0.38651223210E+02  0.20961782208E+03  0.17300000000E+03 0. -1.
<mgrwt>
<rscale>  2 0.20602358E+03</rscale>
<asrwt>0</asrwt>
<pdfrwt beam="1">  1       21 0.31033804E-01 0.20602358E+03</pdfrwt>
<pdfrwt beam="2">  1       21 0.33142506E-01 0.20602358E+03</pdfrwt>
<totfact> 0.86942562E+04</totfact>
</mgrwt>
</event>
<event>
 4    2  0.4024741E+000  0.1822715E+03  0.7546771E-02  0.1165623E+00
         21   -1    0    0  501  502  0.00000000000E+00  0.00000000000E+00  0.24874692507E+03  0.24874692507E+03  0.00000000000E+00 0.  1.
         21   -1    0    0  502  503 -0.00000000000E+00 -0.00000000000E+00 -0.22132805959E+03  0.22132805959E+03  0.00000000000E+00 0.  1.
          6    1    1    2  501    0  0.17582988446E+01  0.57365604421E+02  0.16171720455E+03  0.24367059411E+03  0.17300000000E+03 0.  1.
         -6    1    1    2    0  503 -0.17582988446E+01 -0.57365604421E+02 -0.13429833907E+03  0.22640439055E+03  0.17300000000E+03 0.  1.
<mgrwt>
<rscale>  2 0.18227151E+03</rscale>
<asrwt>0</asrwt>
<pdfrwt beam="1">  1       21 0.38268758E-01 0.18227151E+03</pdfrwt>
<pdfrwt beam="2">  1       21 0.34050471E-01 0.18227151E+03</pdfrwt>
<totfact> 0.54980131E+04</totfact>
</mgrwt>
</event>
<event>
 4    2  0.4024741E+000  0.1859834E+03  0.7546771E-02  0.1162135E+00
         21   -1    0    0  503  502  0.00000000000E+00  0.00000000000E+00  0.76457570950E+02  0.76457570950E+02  0.00000000000E+00 0. -1.
         21   -1    0    0  501  503 -0.00000000000E+00 -0.00000000000E+00 -0.86739861281E+03  0.86739861281E+03  0.00000000000E+00 0. -1.
          6    1    1    2  501    0  0.38628736274E+02  0.56290821858E+02 -0.72189809878E+03  0.74547079145E+03  0.17300000000E+03 0. -1.
         -6    1    1    2    0  502 -0.38628736274E+02 -0.56290821858E+02 -0.69042943083E+02  0.19838539231E+03  0.17300000000E+03 0. -1.
<mgrwt>
<rscale>  2 0.18598343E+03</rscale>
<asrwt>0</asrwt>
<pdfrwt beam="1">  1       21 0.11762704E-01 0.18598343E+03</pdfrwt>
<pdfrwt beam="2">  1       21 0.13344593E+00 0.18598343E+03</pdfrwt>
<totfact> 0.24705875E+04</totfact>
</mgrwt>
</event>
<event>
 4    2  0.4024741E+000  0.2263729E+03  0.7546771E-02  0.1129219E+00
         21   -1    0    0  503  502  0.00000000000E+00  0.00000000000E+00  0.19021040845E+03  0.19021040845E+03  0.00000000000E+00 0. -1.
         21   -1    0    0  501  503 -0.00000000000E+00 -0.00000000000E+00 -0.27353307533E+03  0.27353307533E+03  0.00000000000E+00 0.  1.
          6    1    1    2  501    0 -0.14592057755E+03  0.47832389841E+01 -0.13195521399E+02  0.22675717434E+03  0.17300000000E+03 0. -1.
         -6    1    1    2    0  502  0.14592057755E+03 -0.47832389841E+01 -0.70127145479E+02  0.23698630944E+03  0.17300000000E+03 0. -1.
<mgrwt>
<rscale>  2 0.22637291E+03</rscale>
<asrwt>0</asrwt>
<pdfrwt beam="1">  1       21 0.29263140E-01 0.22637291E+03</pdfrwt>
<pdfrwt beam="2">  1       21 0.42082012E-01 0.22637291E+03</pdfrwt>
<totfact> 0.59876769E+04</totfact>
</mgrwt>
</event>
<event>
 4    2  0.4024741E+000  0.1839212E+03  0.7546771E-02  0.1164061E+00
         21   -1    0    0  501  502  0.00000000000E+00  0.00000000000E+00  0.16379701594E+03  0.16379701594E+03  0.00000000000E+00 0. -1.
         21   -1    0    0  502  503 -0.00000000000E+00 -0.00000000000E+00 -0.24036560418E+03  0.24036560418E+03  0.00000000000E+00 0. -1.
          6    1    1    2  501    0  0.50996675450E+02  0.36018599668E+02  0.37548174989E+02  0.18771485257E+03  0.17300000000E+03 0. -1.
         -6    1    1    2    0  503 -0.50996675450E+02 -0.36018599668E+02 -0.11411676323E+03  0.21644776755E+03  0.17300000000E+03 0. -1.
<mgrwt>
<rscale>  2 0.18392118E+03</rscale>
<asrwt>0</asrwt>
<pdfrwt beam="1">  1       21 0.25199541E-01 0.18392118E+03</pdfrwt>
<pdfrwt beam="2">  1       21 0.36979323E-01 0.18392118E+03</pdfrwt>
<totfact> 0.10555400E+05</totfact>
</mgrwt>
</event>
<event>
 4    2  0.4024741E+000  0.2439665E+03  0.7546771E-02  0.1117178E+00
         21   -1    0    0  501  502  0.00000000000E+00  0.00000000000E+00  0.12050775700E+04  0.12050775700E+04  0.00000000000E+00 0. -1.
         21   -1    0    0  502  503 -0.00000000000E+00 -0.00000000000E+00 -0.52875403434E+02  0.52875403434E+02  0.00000000000E+00 0. -1.
          6    1    1    2  501    0 -0.94522567032E+02  0.14372251022E+03  0.73756959555E+03  0.77687102140E+03  0.17300000000E+03 0. -1.
         -6    1    1    2    0  503  0.94522567032E+02 -0.14372251022E+03  0.41463257104E+03  0.48108195205E+03  0.17300000000E+03 0. -1.
<mgrwt>
<rscale>  2 0.24396655E+03</rscale>
<asrwt>0</asrwt>
<pdfrwt beam="1">  1       21 0.18539653E+00 0.24396655E+03</pdfrwt>
<pdfrwt beam="2">  1       21 0.81346784E-02 0.24396655E+03</pdfrwt>
<totfact> 0.18838876E+04</totfact>
</mgrwt>
</event>
<event>
 4    2  0.4024741E+000  0.3749005E+03  0.7546771E-02  0.1052835E+00
         21   -1    0    0  501  502  0.00000000000E+00  0.00000000000E+00  0.91109856004E+03  0.91109856004E+03  0.00000000000E+00 0.  1.
         21   -1    0    0  502  503 -0.00000000000E+00 -0.00000000000E+00 -0.15602689769E+03  0.15602689769E+03  0.00000000000E+00 0. -1.
          6    1    1    2  501    0  0.30110444144E+03  0.14127109613E+03  0.32083299504E+03  0.49344120010E+03  0.17300000000E+03 0. -1.
         -6    1    1    2    0  503 -0.30110444144E+03 -0.14127109613E+03  0.43423866732E+03  0.57368425762E+03  0.17300000000E+03 0.  1.
<mgrwt>
<rscale>  2 0.37490053E+03</rscale>
<asrwt>0</asrwt>
<pdfrwt beam="1">  1       21 0.14016901E+00 0.37490053E+03</pdfrwt>
<pdfrwt beam="2">  1       21 0.24004139E-01 0.37490053E+03</pdfrwt>
<totfact> 0.52468671E+03</totfact>
</mgrwt>
</event>
<event>
 4    2  0.4024741E+000  0.1856398E+03  0.7546771E-02  0.1162454E+00
         21   -1    0    0  503  502  0.00000000000E+00  0.00000000000E+00  0.46644760036E+02  0.46644760036E+02  0.00000000000E+00 0. -1.
         21   -1    0    0  501  503 -0.00000000000E+00 -0.00000000000E+00 -0.84360606672E+03  0.84360606672E+03  0.00000000000E+00 0. -1.
          6    1    1    2  501    0 -0.56803563358E+01 -0.67088598387E+02 -0.55535843164E+03  0.58556394533E+03  0.17300000000E+03 0. -1.
         -6    1    1    2    0  502  0.56803563358E+01  0.67088598387E+02 -0.24160287505E+03  0.30468688143E+03  0.17300000000E+03 0. -1.
<mgrwt>
<rscale>  2 0.18563983E+03</rscale>
<asrwt>0</asrwt>
<pdfrwt beam="1">  1       21 0.71761167E-02 0.18563983E+03</pdfrwt>
<pdfrwt beam="2">  1       21 0.12978555E+00 0.18563983E+03</pdfrwt>
<totfact> 0.63118568E+04</totfact>
</mgrwt>
</event>
<event>
 4    2  0.4024741E+000  0.2341604E+03  0.7546771E-02  0.1123745E+00
         21   -1    0    0  503  502  0.00000000000E+00  0.00000000000E+00  0.32757409727E+03  0.32757409727E+03  0.00000000000E+00 0. -1.
         21   -1    0    0  501  503 -0.00000000000E+00 -0.00000000000E+00 -0.18970031625E+03  0.18970031625E+03  0.00000000000E+00 0. -1.
          6    1    1    2  501    0  0.14665179071E+03 -0.58269780503E+02 -0.19769475998E+02  0.23499350463E+03  0.17300000000E+03 0. -1.
         -6    1    1    2    0  502 -0.14665179071E+03  0.58269780503E+02  0.15764325701E+03  0.28228090888E+03  0.17300000000E+03 0. -1.
<mgrwt>
<rscale>  2 0.23416045E+03</rscale>
<asrwt>0</asrwt>
<pdfrwt beam="1">  1       21 0.50396015E-01 0.23416045E+03</pdfrwt>
<pdfrwt beam="2">  1       21 0.29184664E-01 0.23416045E+03</pdfrwt>
<totfact> 0.41306840E+04</totfact>
</mgrwt>
</event>
<event>
 4    2  0.4024741E+000  0.1886049E+03  0.7546771E-02  0.1159726E+00
         21   -1    0    0  501  502  0.00000000000E+00  0.00000000000E+00  0.34717680569E+02  0.34717680569E+02  0.00000000000E+00 0. -1.
         21   -1    0    0  502  503 -0.00000000000E+00 -0.00000000000E+00 -0.10261075114E+04  0.10261075114E+04  0.00000000000E+00 0.  1.
          6    1    1    2  501    0  0.12396514607E+02 -0.74088590951E+02 -0.51601425210E+03  0.54940194872E+03  0.17300000000E+03 0.  1.
         -6    1    1    2    0  503 -0.12396514607E+02  0.74088590951E+02 -0.47537557871E+03  0.51142324323E+03  0.17300000000E+03 0. -1.
<mgrwt>
<rscale>  2 0.18860486E+03</rscale>
<asrwt>0</asrwt>
<pdfrwt beam="1">  1       21 0.53411810E-02 0.18860486E+03</pdfrwt>
<pdfrwt beam="2">  1       21 0.15786271E+00 0.18860486E+03</pdfrwt>
<totfact> 0.62892787E+04</totfact>
</mgrwt>
</event>
<event>
 4    2  0.4024741E+000  0.2940038E+03  0.7546771E-02  0.1088277E+00
         21   -1    0    0  501  502  0.00000000000E+00  0.00000000000E+00  0.89538673922E+02  0.89538673922E+02  0.00000000000E+00 0. -1.
         21   -1    0    0  502  503 -0.00000000000E+00 -0.00000000000E+00 -0.98920481301E+03  0.98920481301E+03  0.00000000000E+00 0.  1.
          6    1    1    2  501    0  0.45213809060E+02 -0.23337722924E+03 -0.36611417604E+03  0.46955064643E+03  0.17300000000E+03 0. -1.
         -6    1    1    2    0  503 -0.45213809060E+02  0.23337722924E+03 -0.53355196304E+03  0.60919284051E+03  0.17300000000E+03 0.  1.
<mgrwt>
<rscale>  2 0.29400377E+03</rscale>
<asrwt>0</asrwt>
<pdfrwt beam="1">  1       21 0.13775181E-01 0.29400377E+03</pdfrwt>
<pdfrwt beam="2">  1       21 0.15218535E+00 0.29400377E+03</pdfrwt>
<totfact> 0.12387716E+04</totfact>
</mgrwt>
</event>
<event>
 4    2  0.4024741E+000  0.1832021E+03  0.7546771E-02  0.1164740E+00
         21   -1    0    0  503  502  0.00000000000E+00  0.00000000000E+00  0.49896815059E+03  0.49896815059E+03  0.00000000000E+00 0. -1.
         21   -1    0    0  501  503 -0.00000000000E+00 -0.00000000000E+00 -0.72901390268E+02  0.72901390268E+02  0.00000000000E+00 0. -1.
          6    1    1    2  501    0 -0.60181874415E+02  0.34849683487E+01  0.13352617019E+03  0.22669856889E+03  0.17300000000E+03 0. -1.
         -6    1    1    2    0  502  0.60181874415E+02 -0.34849683487E+01  0.29254059013E+03  0.34517097197E+03  0.17300000000E+03 0. -1.
<mgrwt>
<rscale>  2 0.18320208E+03</rscale>
<asrwt>0</asrwt>
<pdfrwt beam="1">  1       21 0.76764329E-01 0.18320208E+03</pdfrwt>
<pdfrwt beam="2">  1       21 0.11215599E-01 0.18320208E+03</pdfrwt>
<totfact> 0.10029617E+05</totfact>
</mgrwt>
</event>
<event>
 4    2  0.4024741E+000  0.1787579E+03  0.7546771E-02  0.1169011E+00
         21   -1    0    0  501  502  0.00000000000E+00  0.00000000000E+00  0.62178205218E+03  0.62178205218E+03  0.00000000000E+00 0.  1.
         21   -1    0    0  502  503 -0.00000000000E+00 -0.00000000000E+00 -0.20152572748E+03  0.20152572748E+03  0.00000000000E+00 0.  1.
          6    1    1    2  501    0  0.13479958769E+02 -0.42937954781E+02  0.56543754869E+03  0.59302107781E+03  0.17300000000E+03 0.  1.
         -6    1    1    2    0  503 -0.13479958769E+02  0.42937954781E+02 -0.14518122399E+03  0.23028670185E+03  0.17300000000E+03 0.  1.
<mgrwt>
<rscale>  2 0.17875787E+03</rscale>
<asrwt>0</asrwt>
<pdfrwt beam="1">  1       21 0.95658777E-01 0.17875787E+03</pdfrwt>
<pdfrwt beam="2">  1       21 0.31003958E-01 0.17875787E+03</pdfrwt>
<totfact> 0.91999645E+03</totfact>
</mgrwt>
</event>
<event>
 4    2  0.4024741E+000  0.1843574E+03  0.7546771E-02  0.1163651E+00
         21   -1    0    0  501  502  0.00000000000E+00  0.00000000000E+00  0.63673650492E+02  0.63673650492E+02  0.00000000000E+00 0.  1.
         21   -1    0    0  502  503 -0.00000000000E+00 -0.00000000000E+00 -0.55570089940E+03  0.55570089940E+03  0.00000000000E+00 0.  1.
          6    1    1    2  501    0  0.46667835233E+02  0.43367703334E+02 -0.30752336785E+03  0.35855022844E+03  0.17300000000E+03 0.  1.
         -6    1    1    2    0  503 -0.46667835233E+02 -0.43367703334E+02 -0.18450388106E+03  0.26082432146E+03  0.17300000000E+03 0.  1.
<mgrwt>
<rscale>  2 0.18435738E+03</rscale>
<asrwt>0</asrwt>
<pdfrwt beam="1">  1       21 0.97959466E-02 0.18435738E+03</pdfrwt>
<pdfrwt beam="2">  1       21 0.85492443E-01 0.18435738E+03</pdfrwt>
<totfact> 0.99839789E+04</totfact>
</mgrwt>
</event>
<event>
 4    2  0.4024741E+000  0.1830117E+03  0.7546771E-02  0.1164920E+00
         21   -1    0    0  503  502  0.00000000000E+00  0.00000000000E+00  0.10160467744E+04  0.10160467744E+04  0.00000000000E+00 0.  1.
         21   -1    0    0  501  503 -0.00000000000E+00 -0.00000000000E+00 -0.53094426768E+02  0.53094426768E+02  0.00000000000E+00 0.  1.
          6    1    1    2  501    0  0.10549766845E+02  0.58762201601E+02  0.15231878337E+03  0.23810566076E+03  0.17300000000E+03 0.  1.
         -6    1    1    2    0  502 -0.10549766845E+02 -0.58762201601E+02  0.81063356429E+03  0.83103554044E+03  0.17300000000E+03 0.  1.
<mgrwt>
<rscale>  2 0.18301173E+03</rscale>
<asrwt>0</asrwt>
<pdfrwt beam="1">  1       21 0.15631487E+00 0.18301173E+03</pdfrwt>
<pdfrwt beam="2">  1       21 0.81683741E-02 0.18301173E+03</pdfrwt>
<totfact> 0.31198310E+04</totfact>
</mgrwt>
</event>
<event>
 4    2  0.4024741E+000  0.1732835E+03  0.7546771E-02  0.1174466E+00
         21   -1    0    0  503  502  0.00000000000E+00  0.00000000000E+00  0.96067064034E+03  0.96067064034E+03  0.00000000000E+00 0.  1.
         21   -1    0    0  501  503 -0.00000000000E+00 -0.00000000000E+00 -0.11220946660E+03  0.11220946660E+03  0.00000000000E+00 0.  1.
          6    1    1    2  501    0 -0.64684937656E+00 -0.98862998926E+01 -0.31410581448E+02  0.17610730242E+03  0.17300000000E+03 0.  1.
         -6    1    1    2    0  502  0.64684937656E+00  0.98862998926E+01  0.87987175519E+03  0.89677280451E+03  0.17300000000E+03 0.  1.
<mgrwt>
<rscale>  2 0.17328346E+03</rscale>
<asrwt>0</asrwt>
<pdfrwt beam="1">  1       21 0.14779548E+00 0.17328346E+03</pdfrwt>
<pdfrwt beam="2">  1       21 0.17262996E-01 0.17328346E+03</pdfrwt>
<totfact> 0.95684244E+03</totfact>
</mgrwt>
</event>
<event>
 4    2  0.4024741E+000  0.1732989E+03  0.7546771E-02  0.1174451E+00
         21   -1    0    0  503  502  0.00000000000E+00  0.00000000000E+00  0.10086926944E+04  0.10086926944E+04  0.00000000000E+00 0. -1.
         21   -1    0    0  501  503 -0.00000000000E+00 -0.00000000000E+00 -0.41170662755E+02  0.41170662755E+02  0.00000000000E+00 0. -1.
          6    1    1    2  501    0  0.63556519381E+01  0.79442735812E+01  0.20757380344E+03  0.27040597196E+03  0.17300000000E+03 0. -1.
         -6    1    1    2    0  502 -0.63556519381E+01 -0.79442735812E+01  0.75994822825E+03  0.77945738525E+03  0.17300000000E+03 0. -1.
<mgrwt>
<rscale>  2 0.17329889E+03</rscale>
<asrwt>0</asrwt>
<pdfrwt beam="1">  1       21 0.15518347E+00 0.17329889E+03</pdfrwt>
<pdfrwt beam="2">  1       21 0.63339489E-02 0.17329889E+03</pdfrwt>
<totfact> 0.49648085E+04</totfact>
</mgrwt>
</event>
<event>
 4    2  0.4024741E+000  0.1815538E+03  0.7546771E-02  0.1166308E+00
         21   -1    0    0  503  502  0.00000000000E+00  0.00000000000E+00  0.22921636473E+04  0.22921636473E+04  0.00000000000E+00 0.  1.
         21   -1    0    0  501  503 -0.00000000000E+00 -0.00000000000E+00 -0.14450549292E+02  0.14450549292E+02  0.00000000000E+00 0.  1.
          6    1    1    2  501    0  0.52876481036E+02 -0.15389762076E+02  0.12193274609E+04  0.12327697368E+04  0.17300000000E+03 0.  1.
         -6    1    1    2    0  502 -0.52876481036E+02  0.15389762076E+02  0.10583856371E+04  0.10738444598E+04  0.17300000000E+03 0.  1.
<mgrwt>
<rscale>  2 0.18155376E+03</rscale>
<asrwt>0</asrwt>
<pdfrwt beam="1">  1       21 0.35264027E+00 0.18155376E+03</pdfrwt>
<pdfrwt beam="2">  1       21 0.22231633E-02 0.18155376E+03</pdfrwt>
<totfact> 0.17702820E+04</totfact>
</mgrwt>
</event>
<event>
 4    2  0.4024741E+000  0.2302241E+03  0.7546771E-02  0.1126482E+00
         21   -1    0    0  501  502  0.00000000000E+00  0.00000000000E+00  0.49120065218E+03  0.49120065218E+03  0.00000000000E+00 0. -1.
         21   -1    0    0  502  503 -0.00000000000E+00 -0.00000000000E+00 -0.28456347969E+03  0.28456347969E+03  0.00000000000E+00 0.  1.
          6    1    1    2  501    0  0.17615324521E+02  0.15087684405E+03  0.40893528085E+03  0.46928795600E+03  0.17300000000E+03 0. -1.
         -6    1    1    2    0  503 -0.17615324521E+02 -0.15087684405E+03 -0.20229810835E+03  0.30647617586E+03  0.17300000000E+03 0.  1.
<mgrwt>
<rscale>  2 0.23022407E+03</rscale>
<asrwt>0</asrwt>
<pdfrwt beam="1">  1       21 0.75569331E-01 0.23022407E+03</pdfrwt>
<pdfrwt beam="2">  1       21 0.43778997E-01 0.23022407E+03</pdfrwt>
<totfact> 0.76378077E+03</totfact>
</mgrwt>
</event>
<event>
 4    2  0.4024741E+000  0.1759829E+03  0.7546771E-02  0.1171748E+00
         21   -1    0    0  501  502  0.00000000000E+00  0.00000000000E+00  0.30465270631E+03  0.30465270631E+03  0.00000000000E+00 0.  1.
         21   -1    0    0  502  503 -0.00000000000E+00 -0.00000000000E+00 -0.12657112180E+03  0.12657112180E+03  0.00000000000E+00 0.  1.
          6    1    1    2  501    0  0.16990167275E+02 -0.27428143827E+02  0.18470102129E+03  0.25511651480E+03  0.17300000000E+03 0.  1.
         -6    1    1    2    0  503 -0.16990167275E+02  0.27428143827E+02 -0.66194367802E+01  0.17610731331E+03  0.17300000000E+03 0.  1.
<mgrwt>
<rscale>  2 0.17598287E+03</rscale>
<asrwt>0</asrwt>
<pdfrwt beam="1">  1       21 0.46869647E-01 0.17598287E+03</pdfrwt>
<pdfrwt beam="2">  1       21 0.19472480E-01 0.17598287E+03</pdfrwt>
<totfact> 0.10638765E+05</totfact>
</mgrwt>
</event>
<event>
 4    2  0.4024741E+000  0.2147005E+03  0.7546771E-02  0.1137897E+00
         21   -1    0    0  501  502  0.00000000000E+00  0.00000000000E+00  0.11258741354E+04  0.11258741354E+04  0.00000000000E+00 0.  1.
         21   -1    0    0  502  503 -0.00000000000E+00 -0.00000000000E+00 -0.64723592561E+02  0.64723592561E+02  0.00000000000E+00 0. -1.
          6    1    1    2  501    0 -0.98034873451E+02  0.80972122155E+02  0.89141792679E+03  0.91690906920E+03  0.17300000000E+03 0.  1.
         -6    1    1    2    0  503  0.98034873451E+02 -0.80972122155E+02  0.16973261603E+03  0.27368865874E+03  0.17300000000E+03 0. -1.
<mgrwt>
<rscale>  2 0.21470054E+03</rscale>
<asrwt>0</asrwt>
<pdfrwt beam="1">  1       21 0.17321139E+00 0.21470054E+03</pdfrwt>
<pdfrwt beam="2">  1       21 0.99574766E-02 0.21470054E+03</pdfrwt>
<totfact> 0.16307343E+04</totfact>
</mgrwt>
</event>
<event>
 4    2  0.4024741E+000  0.1769169E+03  0.7546771E-02  0.1170821E+00
         21   -1    0    0  501  502  0.00000000000E+00  0.00000000000E+00  0.26265384617E+03  0.26265384617E+03  0.00000000000E+00 0. -1.
         21   -1    0    0  502  503 -0.00000000000E+00 -0.00000000000E+00 -0.25166006750E+03  0.25166006750E+03  0.00000000000E+00 0. -1.
          6    1    1    2  501    0  0.26911394211E+02 -0.25423894157E+02  0.19208680079E+03  0.26114543184E+03  0.17300000000E+03 0. -1.
         -6    1    1    2    0  503 -0.26911394211E+02  0.25423894157E+02 -0.18109302211E+03  0.25316848183E+03  0.17300000000E+03 0. -1.
<mgrwt>
<rscale>  2 0.17691692E+03</rscale>
<asrwt>0</asrwt>
<pdfrwt beam="1">  1       21 0.40408284E-01 0.17691692E+03</pdfrwt>
<pdfrwt beam="2">  1       21 0.38716933E-01 0.17691692E+03</pdfrwt>
<totfact> 0.38264905E+04</totfact>
</mgrwt>
</event>
<event>
 4    2  0.4024741E+000  0.1879504E+03  0.7546771E-02  0.1160323E+00
         21   -1    0    0  503  502  0.00000000000E+00  0.00000000000E+00  0.82006625745E+02  0.82006625745E+02  0.00000000000E+00 0. -1.
         21   -1    0    0  501  503 -0.00000000000E+00 -0.00000000000E+00 -0.69361938725E+03  0.69361938725E+03  0.00000000000E+00 0. -1.
          6    1    1    2  501    0  0.29549247545E+02  0.67254583781E+02 -0.54454455187E+03  0.57606779639E+03  0.17300000000E+03 0. -1.
         -6    1    1    2    0  502 -0.29549247545E+02 -0.67254583781E+02 -0.67068209637E+02  0.19955821660E+03  0.17300000000E+03 0. -1.
<mgrwt>
<rscale>  2 0.18795036E+03</rscale>
<asrwt>0</asrwt>
<pdfrwt beam="1">  1       21 0.12616404E-01 0.18795036E+03</pdfrwt>
<pdfrwt beam="2">  1       21 0.10671068E+00 0.18795036E+03</pdfrwt>
<totfact> 0.37794255E+04</totfact>
</mgrwt>
</event>
<event>
 4    2  0.4024741E+000  0.2330604E+03  0.7546771E-02  0.1124504E+00
         21   -1    0    0  503  502  0.00000000000E+00  0.00000000000E+00  0.12140961958E+04  0.12140961958E+04  0.00000000000E+00 0. -1.
         21   -1    0    0  501  503 -0.00000000000E+00 -0.00000000000E+00 -0.57947036663E+02  0.57947036663E+02  0.00000000000E+00 0.  1.
          6    1    1    2  501    0 -0.65802063838E+01  0.15602833551E+03  0.27442017932E+03  0.36003274214E+03  0.17300000000E+03 0. -1.
         -6    1    1    2    0  502  0.65802063838E+01 -0.15602833551E+03  0.88172897981E+03  0.91201049031E+03  0.17300000000E+03 0. -1.
<mgrwt>
<rscale>  2 0.23306038E+03</rscale>
<asrwt>0</asrwt>
<pdfrwt beam="1">  1       21 0.18678401E+00 0.23306038E+03</pdfrwt>
<pdfrwt beam="2">  1       21 0.89149296E-02 0.23306038E+03</pdfrwt>
<totfact> 0.15805068E+04</totfact>
</mgrwt>
</event>
<event>
 4    2  0.4024741E+000  0.2034164E+03  0.7546771E-02  0.1146888E+00
         21   -1    0    0  501  502  0.00000000000E+00  0.00000000000E+00  0.12446516516E+04  0.12446516516E+04  0.00000000000E+00 0.  1.
         21   -1    0    0  502  503 -0.00000000000E+00 -0.00000000000E+00 -0.47077218207E+02  0.47077218207E+02  0.00000000000E+00 0.  1.
          6    1    1    2  501    0 -0.64693038735E+02  0.85229379602E+02  0.94888108966E+03  0.97043987898E+03  0.17300000000E+03 0.  1.
         -6    1    1    2    0  503  0.64693038735E+02 -0.85229379602E+02  0.24869334374E+03  0.32128899083E+03  0.17300000000E+03 0.  1.
<mgrwt>
<rscale>  2 0.20341641E+03</rscale>
<asrwt>0</asrwt>
<pdfrwt beam="1">  1       21 0.19148484E+00 0.20341641E+03</pdfrwt>
<pdfrwt beam="2">  1       21 0.72426499E-02 0.20341641E+03</pdfrwt>
<totfact> 0.21578314E+04</totfact>
</mgrwt>
</event>
<event>
 4    2  0.4024741E+000  0.1938400E+03  0.7546771E-02  0.1155043E+00
         21   -1    0    0  501  502  0.00000000000E+00  0.00000000000E+00  0.33109108644E+03  0.33109108644E+03  0.00000000000E+00 0.  1.
         21   -1    0    0  502  503 -0.00000000000E+00 -0.00000000000E+00 -0.12264438883E+03  0.12264438883E+03  0.00000000000E+00 0.  1.
          6    1    1    2  501    0  0.87018977502E+02  0.85241185662E+01  0.16622105524E+03  0.25534956873E+03  0.17300000000E+03 0. -1.
         -6    1    1    2    0  503 -0.87018977502E+02 -0.85241185662E+01  0.42225642363E+02  0.19838590655E+03  0.17300000000E+03 0. -1.
<mgrwt>
<rscale>  2 0.19384004E+03</rscale>
<asrwt>0</asrwt>
<pdfrwt beam="1">  1       21 0.50937090E-01 0.19384004E+03</pdfrwt>
<pdfrwt beam="2">  1       21 0.18868368E-01 0.19384004E+03</pdfrwt>
<totfact> 0.94268819E+04</totfact>
</mgrwt>
</event>
<event>
 4    2  0.4024741E+000  0.1961671E+03  0.7546771E-02  0.1153014E+00
         21   -1    0    0  501  502  0.00000000000E+00  0.00000000000E+00  0.65893860656E+03  0.65893860656E+03  0.00000000000E+00 0.  1.
         21   -1    0    0  502  503 -0.00000000000E+00 -0.00000000000E+00 -0.58677770267E+02  0.58677770267E+02  0.00000000000E+00 0. -1.
          6    1    1    2  501    0 -0.43943851934E+02 -0.81372514042E+02  0.27541197490E+03  0.33813208082E+03  0.17300000000E+03 0.  1.
         -6    1    1    2    0  503  0.43943851934E+02  0.81372514042E+02  0.32484886140E+03  0.37948429601E+03  0.17300000000E+03 0. -1.
<mgrwt>
<rscale>  2 0.19616714E+03</rscale>
<asrwt>0</asrwt>
<pdfrwt beam="1">  1       21 0.10137517E+00 0.19616714E+03</pdfrwt>
<pdfrwt beam="2">  1       21 0.90273497E-02 0.19616714E+03</pdfrwt>
<totfact> 0.77091817E+04</totfact>
</mgrwt>
</event>
<event>
 4    2  0.4024741E+000  0.1757533E+03  0.7546771E-02  0.1171977E+00
         21   -1    0    0  503  502  0.00000000000E+00  0.00000000000E+00  0.11275834342E+03  0.11275834342E+03  0.00000000000E+00 0. -1.
         21   -1    0    0  501  503 -0.00000000000E+00 -0.00000000000E+00 -0.14281416385E+04  0.14281416385E+04  0.00000000000E+00 0. -1.
          6    1    1    2  501    0 -0.47551604484E+01 -0.30620691009E+02 -0.13503184506E+04  0.13617081759E+04  0.17300000000E+03 0. -1.
         -6    1    1    2    0  502  0.47551604484E+01  0.30620691009E+02  0.34935155494E+02  0.17919180606E+03  0.17300000000E+03 0. -1.
<mgrwt>
<rscale>  2 0.17575334E+03</rscale>
<asrwt>0</asrwt>
<pdfrwt beam="1">  1       21 0.17347437E-01 0.17575334E+03</pdfrwt>
<pdfrwt beam="2">  1       21 0.21971411E+00 0.17575334E+03</pdfrwt>
<totfact> 0.30910473E+03</totfact>
</mgrwt>
</event>
<event>
 4    2  0.4024741E+000  0.2106464E+03  0.7546771E-02  0.1141055E+00
         21   -1    0    0  503  502  0.00000000000E+00  0.00000000000E+00  0.21507694254E+04  0.21507694254E+04  0.00000000000E+00 0. -1.
         21   -1    0    0  501  503 -0.00000000000E+00 -0.00000000000E+00 -0.25493063060E+02  0.25493063060E+02  0.00000000000E+00 0.  1.
          6    1    1    2  501    0  0.11787219878E+03  0.23431856826E+02  0.58741964409E+03  0.62404626866E+03  0.17300000000E+03 0.  1.
         -6    1    1    2    0  502 -0.11787219878E+03 -0.23431856826E+02  0.15378567182E+04  0.15522162198E+04  0.17300000000E+03 0. -1.
<mgrwt>
<rscale>  2 0.21064640E+03</rscale>
<asrwt>0</asrwt>
<pdfrwt beam="1">  1       21 0.33088746E+00 0.21064640E+03</pdfrwt>
<pdfrwt beam="2">  1       21 0.39220114E-02 0.21064640E+03</pdfrwt>
<totfact> 0.89824902E+03</totfact>
</mgrwt>
</event>
<event>
 4    2  0.4024741E+000  0.2032921E+03  0.7546771E-02  0.1146991E+00
         21   -1    0    0  503  502  0.00000000000E+00  0.00000000000E+00  0.24060345756E+04  0.24060345756E+04  0.00000000000E+00 0. -1.
         21   -1    0    0  501  503 -0.00000000000E+00 -0.00000000000E+00 -0.22338008586E+02  0.22338008586E+02  0.00000000000E+00 0. -1.
          6    1    1    2  501    0  0.70265800980E+02 -0.80382897685E+02  0.17754865107E+04  0.17870870272E+04  0.17300000000E+03 0. -1.
         -6    1    1    2    0  502 -0.70265800980E+02  0.80382897685E+02  0.60821005632E+03  0.64128555701E+03  0.17300000000E+03 0. -1.
<mgrwt>
<rscale>  2 0.20329214E+03</rscale>
<asrwt>0</asrwt>
<pdfrwt beam="1">  1       21 0.37015896E+00 0.20329214E+03</pdfrwt>
<pdfrwt beam="2">  1       21 0.34366186E-02 0.20329214E+03</pdfrwt>
<totfact> 0.66090859E+03</totfact>
</mgrwt>
</event>
<event>
 4    2  0.4024741E+000  0.1999599E+03  0.7546771E-02  0.1149773E+00
         21   -1    0    0  501  502  0.00000000000E+00  0.00000000000E+00  0.34612895173E+03  0.34612895173E+03  0.00000000000E+00 0.  1.
         21   -1    0    0  502  503 -0.00000000000E+00 -0.00000000000E+00 -0.13132709703E+03  0.13132709703E+03  0.00000000000E+00 0.  1.
          6    1    1    2  501    0  0.63748539474E+02 -0.77401989085E+02  0.19023078386E+03  0.27599220157E+03  0.17300000000E+03 0.  1.
         -6    1    1    2    0  503 -0.63748539474E+02  0.77401989085E+02  0.24571070843E+02  0.20146384718E+03  0.17300000000E+03 0.  1.
<mgrwt>
<rscale>  2 0.19995986E+03</rscale>
<asrwt>0</asrwt>
<pdfrwt beam="1">  1       21 0.53250608E-01 0.19995986E+03</pdfrwt>
<pdfrwt beam="2">  1       21 0.20204169E-01 0.19995986E+03</pdfrwt>
<totfact> 0.75390973E+04</totfact>
</mgrwt>
</event>
<event>
 4    2  0.4024741E+000  0.3321395E+03  0.7546771E-02  0.1070194E+00
         21   -1    0    0  501  502  0.00000000000E+00  0.00000000000E+00  0.81739981588E+02  0.81739981588E+02  0.00000000000E+00 0.  1.
         21   -1    0    0  502  503 -0.00000000000E+00 -0.00000000000E+00 -0.15034068059E+04  0.15034068059E+04  0.00000000000E+00 0.  1.
          6    1    1    2  501    0 -0.53195374087E+00 -0.28352670240E+03 -0.45733094478E+03  0.56521523953E+03  0.17300000000E+03 0.  1.
         -6    1    1    2    0  503  0.53195374087E+00  0.28352670240E+03 -0.96433587951E+03  0.10199315479E+04  0.17300000000E+03 0.  1.
<mgrwt>
<rscale>  2 0.33213954E+03</rscale>
<asrwt>0</asrwt>
<pdfrwt beam="1">  1       21 0.12575383E-01 0.33213954E+03</pdfrwt>
<pdfrwt beam="2">  1       21 0.23129334E+00 0.33213954E+03</pdfrwt>
<totfact> 0.41642845E+03</totfact>
</mgrwt>
</event>
<event>
 4    2  0.4024741E+000  0.1760906E+03  0.7546771E-02  0.1171641E+00
         21   -1    0    0  503  502  0.00000000000E+00  0.00000000000E+00  0.12900735328E+03  0.12900735328E+03  0.00000000000E+00 0. -1.
         21   -1    0    0  501  503 -0.00000000000E+00 -0.00000000000E+00 -0.25053850238E+03  0.25053850238E+03  0.00000000000E+00 0. -1.
          6    1    1    2  501    0 -0.20140400049E+02  0.25947273445E+02 -0.99020762374E+02  0.20202229603E+03  0.17300000000E+03 0. -1.
         -6    1    1    2    0  502  0.20140400049E+02 -0.25947273445E+02 -0.22510386729E+02  0.17752355963E+03  0.17300000000E+03 0. -1.
<mgrwt>
<rscale>  2 0.17609059E+03</rscale>
<asrwt>0</asrwt>
<pdfrwt beam="1">  1       21 0.19847285E-01 0.17609059E+03</pdfrwt>
<pdfrwt beam="2">  1       21 0.38544385E-01 0.17609059E+03</pdfrwt>
<totfact> 0.15279452E+05</totfact>
</mgrwt>
</event>
<event>
 4    2  0.4024741E+000  0.1847617E+03  0.7546771E-02  0.1163273E+00
         21   -1    0    0  503  502  0.00000000000E+00  0.00000000000E+00  0.69491430956E+02  0.69491430956E+02  0.00000000000E+00 0. -1.
         21   -1    0    0  501  503 -0.00000000000E+00 -0.00000000000E+00 -0.99176507257E+03  0.99176507257E+03  0.00000000000E+00 0. -1.
          6    1    1    2  501    0  0.90043771545E+01 -0.64240337229E+02 -0.83810034152E+03  0.85822437754E+03  0.17300000000E+03 0. -1.
         -6    1    1    2    0  502 -0.90043771545E+01  0.64240337229E+02 -0.84173300088E+02  0.20303212599E+03  0.17300000000E+03 0. -1.
<mgrwt>
<rscale>  2 0.18476174E+03</rscale>
<asrwt>0</asrwt>
<pdfrwt beam="1">  1       21 0.10690990E-01 0.18476174E+03</pdfrwt>
<pdfrwt beam="2">  1       21 0.15257923E+00 0.18476174E+03</pdfrwt>
<totfact> 0.20709994E+04</totfact>
</mgrwt>
</event>
<event>
 4    2  0.4024741E+000  0.2766902E+03  0.7546771E-02  0.1097511E+00
         21   -1    0    0  501  502  0.00000000000E+00  0.00000000000E+00  0.14189037256E+03  0.14189037256E+03  0.00000000000E+00 0. -1.
         21   -1    0    0  502  503 -0.00000000000E+00 -0.00000000000E+00 -0.13537472729E+04  0.13537472729E+04  0.00000000000E+00 0.  1.
          6    1    1    2  501    0  0.21403536680E+03 -0.28588746210E+02 -0.25977226700E+02  0.27790694658E+03  0.17300000000E+03 0. -1.
         -6    1    1    2    0  503 -0.21403536680E+03  0.28588746210E+02 -0.11858796737E+04  0.12177306989E+04  0.17300000000E+03 0.  1.
<mgrwt>
<rscale>  2 0.27669018E+03</rscale>
<asrwt>0</asrwt>
<pdfrwt beam="1">  1       21 0.21829287E-01 0.27669018E+03</pdfrwt>
<pdfrwt beam="2">  1       21 0.20826882E+00 0.27669018E+03</pdfrwt>
<totfact> 0.21644386E+03</totfact>
</mgrwt>
</event>
<event>
 4    2  0.4024741E+000  0.1944215E+03  0.7546771E-02  0.1154533E+00
         21   -1    0    0  501  502  0.00000000000E+00  0.00000000000E+00  0.51285808050E+02  0.51285808050E+02  0.00000000000E+00 0.  1.
         21   -1    0    0  502  503 -0.00000000000E+00 -0.00000000000E+00 -0.92607753377E+03  0.92607753377E+03  0.00000000000E+00 0.  1.
          6    1    1    2  501    0  0.40170298372E+02  0.79101512829E+02 -0.65818422000E+03  0.68629889236E+03  0.17300000000E+03 0.  1.
         -6    1    1    2    0  503 -0.40170298372E+02 -0.79101512829E+02 -0.21660750572E+03  0.29106444946E+03  0.17300000000E+03 0.  1.
<mgrwt>
<rscale>  2 0.19442146E+03</rscale>
<asrwt>0</asrwt>
<pdfrwt beam="1">  1       21 0.78901244E-02 0.19442146E+03</pdfrwt>
<pdfrwt beam="2">  1       21 0.14247347E+00 0.19442146E+03</pdfrwt>
<totfact> 0.41993671E+04</totfact>
</mgrwt>
</event>
<event>
 4    2  0.4024741E+000  0.2097448E+03  0.7546771E-02  0.1141768E+00
         21   -1    0    0  501  502  0.00000000000E+00  0.00000000000E+00  0.27562497602E+03  0.27562497602E+03  0.00000000000E+00 0.  1.
         21   -1    0    0  502  503 -0.00000000000E+00 -0.00000000000E+00 -0.18899678301E+03  0.18899678301E+03  0.00000000000E+00 0.  1.
          6    1    1    2  501    0  0.11856550491E+03 -0.24741593131E+01  0.13491667443E+03  0.24939007490E+03  0.17300000000E+03 0.  1.
         -6    1    1    2    0  503 -0.11856550491E+03  0.24741593131E+01 -0.48288481425E+02  0.21523168414E+03  0.17300000000E+03 0.  1.
<mgrwt>
<rscale>  2 0.20974485E+03</rscale>
<asrwt>0</asrwt>
<pdfrwt beam="1">  1       21 0.42403843E-01 0.20974485E+03</pdfrwt>
<pdfrwt beam="2">  1       21 0.29076428E-01 0.20974485E+03</pdfrwt>
<totfact> 0.60122340E+04</totfact>
</mgrwt>
</event>
<event>
 4    2  0.4024741E+000  0.2283138E+03  0.7546771E-02  0.1127832E+00
         21   -1    0    0  501  502  0.00000000000E+00  0.00000000000E+00  0.17985303358E+04  0.17985303358E+04  0.00000000000E+00 0. -1.
         21   -1    0    0  502  503 -0.00000000000E+00 -0.00000000000E+00 -0.35571958697E+02  0.35571958697E+02  0.00000000000E+00 0.  1.
          6    1    1    2  501    0 -0.13247024663E+03 -0.68189609015E+02  0.12761554624E+04  0.12964181244E+04  0.17300000000E+03 0. -1.
         -6    1    1    2    0  503  0.13247024663E+03  0.68189609015E+02  0.48680291465E+03  0.53768417006E+03  0.17300000000E+03 0.  1.
<mgrwt>
<rscale>  2 0.22831380E+03</rscale>
<asrwt>0</asrwt>
<pdfrwt beam="1">  1       21 0.27669690E+00 0.22831380E+03</pdfrwt>
<pdfrwt beam="2">  1       21 0.54726104E-02 0.22831380E+03</pdfrwt>
<totfact> 0.10369807E+04</totfact>
</mgrwt>
</event>
<event>
 4    2  0.4024741E+000  0.1930378E+03  0.7546771E-02  0.1155750E+00
         21   -1    0    0  503  502  0.00000000000E+00  0.00000000000E+00  0.28509907881E+03  0.28509907881E+03  0.00000000000E+00 0.  1.
         21   -1    0    0  501  503 -0.00000000000E+00 -0.00000000000E+00 -0.32743450536E+03  0.32743450536E+03  0.00000000000E+00 0.  1.
          6    1    1    2  501    0 -0.32945595992E+02  0.79051657118E+02 -0.25856382020E+03  0.32267448908E+03  0.17300000000E+03 0.  1.
         -6    1    1    2    0  502  0.32945595992E+02 -0.79051657118E+02  0.21622839365E+03  0.28985909509E+03  0.17300000000E+03 0.  1.
<mgrwt>
<rscale>  2 0.19303776E+03</rscale>
<asrwt>0</asrwt>
<pdfrwt beam="1">  1       21 0.43861397E-01 0.19303776E+03</pdfrwt>
<pdfrwt beam="2">  1       21 0.50374539E-01 0.19303776E+03</pdfrwt>
<totfact> 0.18733270E+04</totfact>
</mgrwt>
</event>
<event>
 4    2  0.4024741E+000  0.2001269E+03  0.7546771E-02  0.1149632E+00
         21   -1    0    0  501  502  0.00000000000E+00  0.00000000000E+00  0.37982240771E+02  0.37982240771E+02  0.00000000000E+00 0. -1.
         21   -1    0    0  502  503 -0.00000000000E+00 -0.00000000000E+00 -0.10812469525E+04  0.10812469525E+04  0.00000000000E+00 0.  1.
          6    1    1    2  501    0  0.99314516713E+02  0.16075265272E+02 -0.60971311101E+03  0.64171712235E+03  0.17300000000E+03 0.  1.
         -6    1    1    2    0  503 -0.99314516713E+02 -0.16075265272E+02 -0.43355160068E+03  0.47751207088E+03  0.17300000000E+03 0.  1.
<mgrwt>
<rscale>  2 0.20012693E+03</rscale>
<asrwt>0</asrwt>
<pdfrwt beam="1">  1       21 0.58434214E-02 0.20012693E+03</pdfrwt>
<pdfrwt beam="2">  1       21 0.16634569E+00 0.20012693E+03</pdfrwt>
<totfact> 0.46512477E+04</totfact>
</mgrwt>
</event>
<event>
 4    2  0.4024741E+000  0.3575491E+03  0.7546771E-02  0.1059559E+00
         21   -1    0    0  503  502  0.00000000000E+00  0.00000000000E+00  0.10285751275E+03  0.10285751275E+03  0.00000000000E+00 0.  1.
         21   -1    0    0  501  503 -0.00000000000E+00 -0.00000000000E+00 -0.13033577747E+04  0.13033577747E+04  0.00000000000E+00 0.  1.
          6    1    1    2  501    0 -0.18981760609E+03 -0.24876021419E+03 -0.75168443834E+03  0.83238864876E+03  0.17300000000E+03 0.  1.
         -6    1    1    2    0  502  0.18981760609E+03  0.24876021419E+03 -0.44881582357E+03  0.57382663866E+03  0.17300000000E+03 0.  1.
<mgrwt>
<rscale>  2 0.35754911E+03</rscale>
<asrwt>0</asrwt>
<pdfrwt beam="1">  1       21 0.15824232E-01 0.35754911E+03</pdfrwt>
<pdfrwt beam="2">  1       21 0.20051659E+00 0.35754911E+03</pdfrwt>
<totfact> 0.42322973E+03</totfact>
</mgrwt>
</event>
<event>
 4    2  0.4024741E+000  0.2167781E+03  0.7546771E-02  0.1136308E+00
         21   -1    0    0  501  502  0.00000000000E+00  0.00000000000E+00  0.11337619422E+04  0.11337619422E+04  0.00000000000E+00 0.  1.
         21   -1    0    0  502  503 -0.00000000000E+00 -0.00000000000E+00 -0.41460288567E+02  0.41460288567E+02  0.00000000000E+00 0.  1.
          6    1    1    2  501    0  0.25897941367E+02  0.12803529698E+03  0.53624566255E+03  0.57840483335E+03  0.17300000000E+03 0.  1.
         -6    1    1    2    0  503 -0.25897941367E+02 -0.12803529698E+03  0.55605599111E+03  0.59681739744E+03  0.17300000000E+03 0.  1.
<mgrwt>
<rscale>  2 0.21677809E+03</rscale>
<asrwt>0</asrwt>
<pdfrwt beam="1">  1       21 0.17442489E+00 0.21677809E+03</pdfrwt>
<pdfrwt beam="2">  1       21 0.63785068E-02 0.21677809E+03</pdfrwt>
<totfact> 0.34750245E+04</totfact>
</mgrwt>
</event>
<event>
 4    2  0.4024741E+000  0.1753503E+03  0.7546771E-02  0.1172380E+00
         21   -1    0    0  503  502  0.00000000000E+00  0.00000000000E+00  0.21636213278E+03  0.21636213278E+03  0.00000000000E+00 0. -1.
         21   -1    0    0  501  503 -0.00000000000E+00 -0.00000000000E+00 -0.14256161085E+03  0.14256161085E+03  0.00000000000E+00 0. -1.
          6    1    1    2  501    0 -0.11278787475E+02 -0.26296746935E+02  0.26825776002E+02  0.17739039490E+03  0.17300000000E+03 0.  1.
         -6    1    1    2    0  502  0.11278787475E+02  0.26296746935E+02  0.46974745925E+02  0.18153334873E+03  0.17300000000E+03 0.  1.
<mgrwt>
<rscale>  2 0.17535031E+03</rscale>
<asrwt>0</asrwt>
<pdfrwt beam="1">  1       21 0.33286482E-01 0.17535031E+03</pdfrwt>
<pdfrwt beam="2">  1       21 0.21932556E-01 0.17535031E+03</pdfrwt>
<totfact> 0.16963978E+05</totfact>
</mgrwt>
</event>
<event>
 4    2  0.4024741E+000  0.2337994E+03  0.7546771E-02  0.1123994E+00
         21   -1    0    0  501  502  0.00000000000E+00  0.00000000000E+00  0.19230054026E+03  0.19230054026E+03  0.00000000000E+00 0.  1.
         21   -1    0    0  502  503 -0.00000000000E+00 -0.00000000000E+00 -0.28693528995E+03  0.28693528995E+03  0.00000000000E+00 0. -1.
          6    1    1    2  501    0  0.39880391515E+02 -0.15212736698E+03 -0.70480976229E+02  0.24419203390E+03  0.17300000000E+03 0.  1.
         -6    1    1    2    0  503 -0.39880391515E+02  0.15212736698E+03 -0.24153773463E+02  0.23504379631E+03  0.17300000000E+03 0.  1.
<mgrwt>
<rscale>  2 0.23379945E+03</rscale>
<asrwt>0</asrwt>
<pdfrwt beam="1">  1       21 0.29584699E-01 0.23379945E+03</pdfrwt>
<pdfrwt beam="2">  1       21 0.44143890E-01 0.23379945E+03</pdfrwt>
<totfact> 0.52972893E+04</totfact>
</mgrwt>
</event>
<event>
 4    2  0.4024741E+000  0.2025803E+03  0.7546771E-02  0.1147580E+00
         21   -1    0    0  503  502  0.00000000000E+00  0.00000000000E+00  0.20445255190E+03  0.20445255190E+03  0.00000000000E+00 0. -1.
         21   -1    0    0  501  503 -0.00000000000E+00 -0.00000000000E+00 -0.21207988629E+03  0.21207988629E+03  0.00000000000E+00 0. -1.
          6    1    1    2  501    0 -0.40163358947E+02  0.97450953608E+02  0.44376257888E+02  0.20738378920E+03  0.17300000000E+03 0. -1.
         -6    1    1    2    0  502  0.40163358947E+02 -0.97450953608E+02 -0.52003592277E+02  0.20914864898E+03  0.17300000000E+03 0. -1.
<mgrwt>
<rscale>  2 0.20258031E+03</rscale>
<asrwt>0</asrwt>
<pdfrwt beam="1">  1       21 0.31454239E-01 0.20258031E+03</pdfrwt>
<pdfrwt beam="2">  1       21 0.32627675E-01 0.20258031E+03</pdfrwt>
<totfact> 0.87459364E+04</totfact>
</mgrwt>
</event>
<event>
 4    2  0.4024741E+000  0.2413210E+03  0.7546771E-02  0.1118916E+00
         21   -1    0    0  501  502  0.00000000000E+00  0.00000000000E+00  0.54836492940E+03  0.54836492940E+03  0.00000000000E+00 0. -1.
         21   -1    0    0  502  503 -0.00000000000E+00 -0.00000000000E+00 -0.10629650586E+03  0.10629650586E+03  0.00000000000E+00 0. -1.
          6    1    1    2  501    0 -0.12911882416E+03 -0.10786639703E+03  0.21112250825E+03  0.32063771433E+03  0.17300000000E+03 0. -1.
         -6    1    1    2    0  503  0.12911882416E+03  0.10786639703E+03  0.23094591529E+03  0.33402372094E+03  0.17300000000E+03 0. -1.
<mgrwt>
<rscale>  2 0.24132101E+03</rscale>
<asrwt>0</asrwt>
<pdfrwt beam="1">  1       21 0.84363834E-01 0.24132101E+03</pdfrwt>
<pdfrwt beam="2">  1       21 0.16353309E-01 0.24132101E+03</pdfrwt>
<totfact> 0.39874013E+04</totfact>
</mgrwt>
</event>
<event>
 4    2  0.4024741E+000  0.2389726E+03  0.7546771E-02  0.1120479E+00
         21   -1    0    0  503  502  0.00000000000E+00  0.00000000000E+00  0.29717255915E+03  0.29717255915E+03  0.00000000000E+00 0. -1.
         21   -1    0    0  501  503 -0.00000000000E+00 -0.00000000000E+00 -0.35289349754E+03  0.35289349754E+03  0.00000000000E+00 0. -1.
          6    1    1    2  501    0 -0.89467036282E+02  0.13847229477E+03 -0.24721373124E+03  0.34383507080E+03  0.17300000000E+03 0. -1.
         -6    1    1    2    0  502  0.89467036282E+02 -0.13847229477E+03  0.19149279286E+03  0.30623098589E+03  0.17300000000E+03 0. -1.
<mgrwt>
<rscale>  2 0.23897265E+03</rscale>
<asrwt>0</asrwt>
<pdfrwt beam="1">  1       21 0.45718855E-01 0.23897265E+03</pdfrwt>
<pdfrwt beam="2">  1       21 0.54291307E-01 0.23897265E+03</pdfrwt>
<totfact> 0.14303254E+04</totfact>
</mgrwt>
</event>
<event>
 4    2  0.4024741E+000  0.2015947E+03  0.7546771E-02  0.1148400E+00
         21   -1    0    0  501  502  0.00000000000E+00  0.00000000000E+00  0.20958538697E+04  0.20958538697E+04  0.00000000000E+00 0. -1.
         21   -1    0    0  502  503 -0.00000000000E+00 -0.00000000000E+00 -0.96535918676E+02  0.96535918676E+02  0.00000000000E+00 0. -1.
          6    1    1    2  501    0 -0.94050781544E+02 -0.43195738185E+02  0.19795941533E+04  0.19898325138E+04  0.17300000000E+03 0. -1.
         -6    1    1    2    0  503  0.94050781544E+02  0.43195738185E+02  0.19723797808E+02  0.20255727463E+03  0.17300000000E+03 0. -1.
<mgrwt>
<rscale>  2 0.20159470E+03</rscale>
<asrwt>0</asrwt>
<pdfrwt beam="1">  1       21 0.32243902E+00 0.20159470E+03</pdfrwt>
<pdfrwt beam="2">  1       21 0.14851681E-01 0.20159470E+03</pdfrwt>
<totfact> 0.99966356E+02</totfact>
</mgrwt>
</event>
<event>
 4    2  0.4024741E+000  0.1801142E+03  0.7546771E-02  0.1167693E+00
         21   -1    0    0  503  502  0.00000000000E+00  0.00000000000E+00  0.33283756681E+03  0.33283756681E+03  0.00000000000E+00 0.  1.
         21   -1    0    0  501  503 -0.00000000000E+00 -0.00000000000E+00 -0.97636827620E+02  0.97636827620E+02  0.00000000000E+00 0.  1.
          6    1    1    2  501    0 -0.14322417219E+02  0.48031153308E+02  0.10865905285E+03  0.21035187921E+03  0.17300000000E+03 0.  1.
         -6    1    1    2    0  502  0.14322417219E+02 -0.48031153308E+02  0.12654168634E+03  0.22012251522E+03  0.17300000000E+03 0.  1.
<mgrwt>
<rscale>  2 0.18011420E+03</rscale>
<asrwt>0</asrwt>
<pdfrwt beam="1">  1       21 0.51205779E-01 0.18011420E+03</pdfrwt>
<pdfrwt beam="2">  1       21 0.15021051E-01 0.18011420E+03</pdfrwt>
<totfact> 0.14244876E+05</totfact>
</mgrwt>
</event>
<event>
 4    2  0.4024741E+000  0.2905013E+03  0.7546771E-02  0.1090088E+00
         21   -1    0    0  501  502  0.00000000000E+00  0.00000000000E+00  0.17438791913E+04  0.17438791913E+04  0.00000000000E+00 0.  1.
         21   -1    0    0  502  503 -0.00000000000E+00 -0.00000000000E+00 -0.60654289920E+02  0.60654289920E+02  0.00000000000E+00 0.  1.
          6    1    1    2  501    0  0.17045575382E+03  0.15939522301E+03  0.12472870337E+04  0.12806701158E+04  0.17300000000E+03 0.  1.
         -6    1    1    2    0  503 -0.17045575382E+03 -0.15939522301E+03  0.43593786771E+03  0.52386336542E+03  0.17300000000E+03 0.  1.
<mgrwt>
<rscale>  2 0.29050129E+03</rscale>
<asrwt>0</asrwt>
<pdfrwt beam="1">  1       21 0.26828907E+00 0.29050129E+03</pdfrwt>
<pdfrwt beam="2">  1       21 0.93314306E-02 0.29050129E+03</pdfrwt>
<totfact> 0.43688772E+03</totfact>
</mgrwt>
</event>
<event>
 4    2  0.4024741E+000  0.2306167E+03  0.7546771E-02  0.1126206E+00
         21   -1    0    0  503  502  0.00000000000E+00  0.00000000000E+00  0.10886290490E+03  0.10886290490E+03  0.00000000000E+00 0. -1.
         21   -1    0    0  501  503 -0.00000000000E+00 -0.00000000000E+00 -0.12094225468E+04  0.12094225468E+04  0.00000000000E+00 0. -1.
          6    1    1    2  501    0 -0.60252893770E+02 -0.14008796540E+03 -0.10591678448E+04  0.10839836588E+04  0.17300000000E+03 0. -1.
         -6    1    1    2    0  502  0.60252893770E+02  0.14008796540E+03 -0.41391797111E+02  0.23430179284E+03  0.17300000000E+03 0. -1.
<mgrwt>
<rscale>  2 0.23061667E+03</rscale>
<asrwt>0</asrwt>
<pdfrwt beam="1">  1       21 0.16748139E-01 0.23061667E+03</pdfrwt>
<pdfrwt beam="2">  1       21 0.18606501E+00 0.23061667E+03</pdfrwt>
<totfact> 0.51436035E+03</totfact>
</mgrwt>
</event>
<event>
 4    2  0.4024741E+000  0.1988733E+03  0.7546771E-02  0.1150693E+00
         21   -1    0    0  501  502  0.00000000000E+00  0.00000000000E+00  0.31857617381E+02  0.31857617381E+02  0.00000000000E+00 0.  1.
         21   -1    0    0  502  503 -0.00000000000E+00 -0.00000000000E+00 -0.13406537916E+04  0.13406537916E+04  0.00000000000E+00 0. -1.
          6    1    1    2  501    0 -0.25392171028E+02 -0.94746059607E+02 -0.46774840645E+03  0.50827074468E+03  0.17300000000E+03 0.  1.
         -6    1    1    2    0  503  0.25392171028E+02  0.94746059607E+02 -0.84104776773E+03  0.86424066426E+03  0.17300000000E+03 0. -1.
<mgrwt>
<rscale>  2 0.19887327E+03</rscale>
<asrwt>0</asrwt>
<pdfrwt beam="1">  1       21 0.49011732E-02 0.19887327E+03</pdfrwt>
<pdfrwt beam="2">  1       21 0.20625437E+00 0.19887327E+03</pdfrwt>
<totfact> 0.33935895E+04</totfact>
</mgrwt>
</event>
<event>
 4    2  0.4024741E+000  0.2541458E+03  0.7546771E-02  0.1110712E+00
         21   -1    0    0  501  502  0.00000000000E+00  0.00000000000E+00  0.39464860421E+03  0.39464860421E+03  0.00000000000E+00 0.  1.
         21   -1    0    0  502  503 -0.00000000000E+00 -0.00000000000E+00 -0.21222886124E+03  0.21222886124E+03  0.00000000000E+00 0.  1.
          6    1    1    2  501    0 -0.13387107691E+03  0.12938176800E+03  0.23636287980E+03  0.34706990372E+03  0.17300000000E+03 0.  1.
         -6    1    1    2    0  503  0.13387107691E+03 -0.12938176800E+03 -0.53943136830E+02  0.25980756173E+03  0.17300000000E+03 0.  1.
<mgrwt>
<rscale>  2 0.25414584E+03</rscale>
<asrwt>0</asrwt>
<pdfrwt beam="1">  1       21 0.60715170E-01 0.25414584E+03</pdfrwt>
<pdfrwt beam="2">  1       21 0.32650594E-01 0.25414584E+03</pdfrwt>
<totfact> 0.22072364E+04</totfact>
</mgrwt>
</event>
<event>
 4    2  0.4024741E+000  0.1889681E+03  0.7546771E-02  0.1159395E+00
         21   -1    0    0  501  502  0.00000000000E+00  0.00000000000E+00  0.92085327341E+02  0.92085327341E+02  0.00000000000E+00 0.  1.
         21   -1    0    0  502  503 -0.00000000000E+00 -0.00000000000E+00 -0.39128582949E+03  0.39128582949E+03  0.00000000000E+00 0.  1.
          6    1    1    2  501    0  0.75715989325E+02  0.68586348009E+01 -0.12672692473E+03  0.22752728488E+03  0.17300000000E+03 0.  1.
         -6    1    1    2    0  503 -0.75715989325E+02 -0.68586348009E+01 -0.17247357742E+03  0.25584387196E+03  0.17300000000E+03 0.  1.
<mgrwt>
<rscale>  2 0.18896812E+03</rscale>
<asrwt>0</asrwt>
<pdfrwt beam="1">  1       21 0.14166973E-01 0.18896812E+03</pdfrwt>
<pdfrwt beam="2">  1       21 0.60197820E-01 0.18896812E+03</pdfrwt>
<totfact> 0.11212581E+05</totfact>
</mgrwt>
</event>
<event>
 4    2  0.4024741E+000  0.2069817E+03  0.7546771E-02  0.1143979E+00
         21   -1    0    0  503  502  0.00000000000E+00  0.00000000000E+00  0.16796955366E+03  0.16796955366E+03  0.00000000000E+00 0.  1.
         21   -1    0    0  501  503 -0.00000000000E+00 -0.00000000000E+00 -0.33619115603E+03  0.33619115603E+03  0.00000000000E+00 0. -1.
          6    1    1    2  501    0 -0.11035307037E+03 -0.27104277079E+02 -0.20794870489E+03  0.29340093020E+03  0.17300000000E+03 0. -1.
         -6    1    1    2    0  502  0.11035307037E+03  0.27104277079E+02  0.39727102522E+02  0.21075977949E+03  0.17300000000E+03 0.  1.
<mgrwt>
<rscale>  2 0.20698174E+03</rscale>
<asrwt>0</asrwt>
<pdfrwt beam="1">  1       21 0.25841470E-01 0.20698174E+03</pdfrwt>
<pdfrwt beam="2">  1       21 0.51721715E-01 0.20698174E+03</pdfrwt>
<totfact> 0.50122786E+04</totfact>
</mgrwt>
</event>
<event>
 4    2  0.4024741E+000  0.1903844E+03  0.7546771E-02  0.1158115E+00
         21   -1    0    0  503  502  0.00000000000E+00  0.00000000000E+00  0.99992439206E+03  0.99992439206E+03  0.00000000000E+00 0.  1.
         21   -1    0    0  501  503 -0.00000000000E+00 -0.00000000000E+00 -0.38049444157E+02  0.38049444157E+02  0.00000000000E+00 0.  1.
          6    1    1    2  501    0  0.72368649172E+02 -0.32863431193E+02  0.36804212872E+03  0.41436847733E+03  0.17300000000E+03 0.  1.
         -6    1    1    2    0  502 -0.72368649172E+02  0.32863431193E+02  0.59383281919E+03  0.62360535889E+03  0.17300000000E+03 0.  1.
<mgrwt>
<rscale>  2 0.19038442E+03</rscale>
<asrwt>0</asrwt>
<pdfrwt beam="1">  1       21 0.15383450E+00 0.19038442E+03</pdfrwt>
<pdfrwt beam="2">  1       21 0.58537614E-02 0.19038442E+03</pdfrwt>
<totfact> 0.57584571E+04</totfact>
</mgrwt>
</event>
<event>
 4    2  0.4024741E+000  0.2384402E+03  0.7546771E-02  0.1120836E+00
         21   -1    0    0  503  502  0.00000000000E+00  0.00000000000E+00  0.10877396963E+04  0.10877396963E+04  0.00000000000E+00 0.  1.
         21   -1    0    0  501  503 -0.00000000000E+00 -0.00000000000E+00 -0.53491936196E+02  0.53491936196E+02  0.00000000000E+00 0.  1.
          6    1    1    2  501    0 -0.78972607234E+02  0.14383349177E+03  0.43080278563E+03  0.49238682573E+03  0.17300000000E+03 0.  1.
         -6    1    1    2    0  502  0.78972607234E+02 -0.14383349177E+03  0.60344497445E+03  0.64884480674E+03  0.17300000000E+03 0.  1.
<mgrwt>
<rscale>  2 0.23844024E+03</rscale>
<asrwt>0</asrwt>
<pdfrwt beam="1">  1       21 0.16734455E+00 0.23844024E+03</pdfrwt>
<pdfrwt beam="2">  1       21 0.82295295E-02 0.23844024E+03</pdfrwt>
<totfact> 0.24727695E+04</totfact>
</mgrwt>
</event>
<event>
 4    2  0.4024741E+000  0.1848624E+03  0.7546771E-02  0.1163178E+00
         21   -1    0    0  501  502  0.00000000000E+00  0.00000000000E+00  0.17413198906E+04  0.17413198906E+04  0.00000000000E+00 0.  1.
         21   -1    0    0  502  503 -0.00000000000E+00 -0.00000000000E+00 -0.19911926015E+02  0.19911926015E+02  0.00000000000E+00 0. -1.
          6    1    1    2  501    0  0.49788349534E+02 -0.42026668043E+02  0.96633773226E+03  0.98386113520E+03  0.17300000000E+03 0.  1.
         -6    1    1    2    0  503 -0.49788349534E+02  0.42026668043E+02  0.75507023237E+03  0.77737068146E+03  0.17300000000E+03 0. -1.
<mgrwt>
<rscale>  2 0.18486244E+03</rscale>
<asrwt>0</asrwt>
<pdfrwt beam="1">  1       21 0.26789525E+00 0.18486244E+03</pdfrwt>
<pdfrwt beam="2">  1       21 0.30633746E-02 0.18486244E+03</pdfrwt>
<totfact> 0.32175057E+04</totfact>
</mgrwt>
</event>
<event>
 4    2  0.4024741E+000  0.1874498E+03  0.7546771E-02  0.1160782E+00
         21   -1    0    0  501  502  0.00000000000E+00  0.00000000000E+00  0.58751418930E+03  0.58751418930E+03  0.00000000000E+00 0. -1.
         21   -1    0    0  502  503 -0.00000000000E+00 -0.00000000000E+00 -0.59837167377E+02  0.59837167377E+02  0.00000000000E+00 0.  1.
          6    1    1    2  501    0 -0.21606296646E+02 -0.68859169420E+02  0.27111513478E+03  0.32960708969E+03  0.17300000000E+03 0. -1.
         -6    1    1    2    0  503  0.21606296646E+02  0.68859169420E+02  0.25656188714E+03  0.31774426698E+03  0.17300000000E+03 0. -1.
<mgrwt>
<rscale>  2 0.18744977E+03</rscale>
<asrwt>0</asrwt>
<pdfrwt beam="1">  1       21 0.90386795E-01 0.18744977E+03</pdfrwt>
<pdfrwt beam="2">  1       21 0.92057184E-02 0.18744977E+03</pdfrwt>
<totfact> 0.97862353E+04</totfact>
</mgrwt>
</event>
<event>
 4    2  0.4024741E+000  0.1964828E+03  0.7546771E-02  0.1152741E+00
         21   -1    0    0  501  502  0.00000000000E+00  0.00000000000E+00  0.33362873358E+03  0.33362873358E+03  0.00000000000E+00 0.  1.
         21   -1    0    0  502  503 -0.00000000000E+00 -0.00000000000E+00 -0.11818630765E+03  0.11818630765E+03  0.00000000000E+00 0.  1.
          6    1    1    2  501    0  0.47356445036E+02 -0.80211419519E+02  0.75047300180E+02  0.21032736858E+03  0.17300000000E+03 0.  1.
         -6    1    1    2    0  503 -0.47356445036E+02  0.80211419519E+02  0.14039512575E+03  0.24148767265E+03  0.17300000000E+03 0.  1.
<mgrwt>
<rscale>  2 0.19648284E+03</rscale>
<asrwt>0</asrwt>
<pdfrwt beam="1">  1       21 0.51327497E-01 0.19648284E+03</pdfrwt>
<pdfrwt beam="2">  1       21 0.18182509E-01 0.19648284E+03</pdfrwt>
<totfact> 0.99256937E+04</totfact>
</mgrwt>
</event>
<event>
 4    2  0.4024741E+000  0.2037770E+03  0.7546771E-02  0.1146591E+00
         21   -1    0    0  503  502  0.00000000000E+00  0.00000000000E+00  0.73848334011E+02  0.73848334011E+02  0.00000000000E+00 0. -1.
         21   -1    0    0  501  503 -0.00000000000E+00 -0.00000000000E+00 -0.67165033193E+03  0.67165033193E+03  0.00000000000E+00 0. -1.
          6    1    1    2  501    0  0.40502823657E+02  0.99777745777E+02 -0.44930210627E+03  0.49335328110E+03  0.17300000000E+03 0. -1.
         -6    1    1    2    0  502 -0.40502823657E+02 -0.99777745777E+02 -0.14849989166E+03  0.25214538484E+03  0.17300000000E+03 0. -1.
<mgrwt>
<rscale>  2 0.20377703E+03</rscale>
<asrwt>0</asrwt>
<pdfrwt beam="1">  1       21 0.11361282E-01 0.20377703E+03</pdfrwt>
<pdfrwt beam="2">  1       21 0.10333082E+00 0.20377703E+03</pdfrwt>
<totfact> 0.48841132E+04</totfact>
</mgrwt>
</event>
<event>
 4    2  0.4024741E+000  0.1788748E+03  0.7546771E-02  0.1168897E+00
         21   -1    0    0  501  502  0.00000000000E+00  0.00000000000E+00  0.25413544521E+03  0.25413544521E+03  0.00000000000E+00 0. -1.
         21   -1    0    0  502  503 -0.00000000000E+00 -0.00000000000E+00 -0.39933067403E+03  0.39933067403E+03  0.00000000000E+00 0. -1.
          6    1    1    2  501    0  0.21128803925E+02  0.40258589973E+02  0.19776629086E+03  0.26666024492E+03  0.17300000000E+03 0. -1.
         -6    1    1    2    0  503 -0.21128803925E+02 -0.40258589973E+02 -0.34296151968E+03  0.38680587431E+03  0.17300000000E+03 0. -1.
<mgrwt>
<rscale>  2 0.17887476E+03</rscale>
<asrwt>0</asrwt>
<pdfrwt beam="1">  1       21 0.39097761E-01 0.17887476E+03</pdfrwt>
<pdfrwt beam="2">  1       21 0.61435488E-01 0.17887476E+03</pdfrwt>
<totfact> 0.15668682E+04</totfact>
</mgrwt>
</event>
<event>
 4    2  0.4024741E+000  0.2167215E+03  0.7546771E-02  0.1136351E+00
         21   -1    0    0  503  502  0.00000000000E+00  0.00000000000E+00  0.11845962429E+03  0.11845962429E+03  0.00000000000E+00 0. -1.
         21   -1    0    0  501  503 -0.00000000000E+00 -0.00000000000E+00 -0.40717071628E+03  0.40717071628E+03  0.00000000000E+00 0. -1.
          6    1    1    2  501    0  0.94331575050E+02 -0.90226089105E+02 -0.18691919729E+03  0.28619395437E+03  0.17300000000E+03 0. -1.
         -6    1    1    2    0  502 -0.94331575050E+02  0.90226089105E+02 -0.10179189471E+03  0.23943638620E+03  0.17300000000E+03 0. -1.
<mgrwt>
<rscale>  2 0.21672146E+03</rscale>
<asrwt>0</asrwt>
<pdfrwt beam="1">  1       21 0.18224558E-01 0.21672146E+03</pdfrwt>
<pdfrwt beam="2">  1       21 0.62641648E-01 0.21672146E+03</pdfrwt>
<totfact> 0.64094267E+04</totfact>
</mgrwt>
</event>
<event>
 4    2  0.4024741E+000  0.1866385E+03  0.7546771E-02  0.1161529E+00
         21   -1    0    0  501  502  0.00000000000E+00  0.00000000000E+00  0.18441439194E+04  0.18441439194E+04  0.00000000000E+00 0.  1.
         21   -1    0    0  502  503 -0.00000000000E+00 -0.00000000000E+00 -0.28477132914E+02  0.28477132914E+02  0.00000000000E+00 0.  1.
          6    1    1    2  501    0 -0.62115029165E+02 -0.32351832217E+02  0.36453273719E+03  0.40953392336E+03  0.17300000000E+03 0.  1.
         -6    1    1    2    0  503  0.62115029165E+02  0.32351832217E+02  0.14511340493E+04  0.14630871290E+04  0.17300000000E+03 0.  1.
<mgrwt>
<rscale>  2 0.18663847E+03</rscale>
<asrwt>0</asrwt>
<pdfrwt beam="1">  1       21 0.28371436E+00 0.18663847E+03</pdfrwt>
<pdfrwt beam="2">  1       21 0.43810988E-02 0.18663847E+03</pdfrwt>
<totfact> 0.14332524E+04</totfact>
</mgrwt>
</event>
<event>
 4    2  0.4024741E+000  0.2201796E+03  0.7546771E-02  0.1133749E+00
         21   -1    0    0  503  502  0.00000000000E+00  0.00000000000E+00  0.40981854464E+03  0.40981854464E+03  0.00000000000E+00 0.  1.
         21   -1    0    0  501  503 -0.00000000000E+00 -0.00000000000E+00 -0.14368090091E+03  0.14368090091E+03  0.00000000000E+00 0. -1.
          6    1    1    2  501    0  0.70414415162E+02 -0.11658423616E+03  0.24939903847E+03  0.33268446668E+03  0.17300000000E+03 0.  1.
         -6    1    1    2    0  502 -0.70414415162E+02  0.11658423616E+03  0.16738605265E+02  0.22081497886E+03  0.17300000000E+03 0. -1.
<mgrwt>
<rscale>  2 0.22017964E+03</rscale>
<asrwt>0</asrwt>
<pdfrwt beam="1">  1       21 0.63049007E-01 0.22017964E+03</pdfrwt>
<pdfrwt beam="2">  1       21 0.22104754E-01 0.22017964E+03</pdfrwt>
<totfact> 0.43947491E+04</totfact>
</mgrwt>
</event>
<event>
 4    2  0.4024741E+000  0.1949281E+03  0.7546771E-02  0.1154090E+00
         21   -1    0    0  501  502  0.00000000000E+00  0.00000000000E+00  0.19153285255E+03  0.19153285255E+03  0.00000000000E+00 0. -1.
         21   -1    0    0  502  503 -0.00000000000E+00 -0.00000000000E+00 -0.33539476927E+03  0.33539476927E+03  0.00000000000E+00 0. -1.
          6    1    1    2  501    0  0.88770858773E+02 -0.13700768955E+02  0.96460793935E+02  0.21748945079E+03  0.17300000000E+03 0. -1.
         -6    1    1    2    0  503 -0.88770858773E+02  0.13700768955E+02 -0.24032271065E+03  0.30943817103E+03  0.17300000000E+03 0. -1.
<mgrwt>
<rscale>  2 0.19492813E+03</rscale>
<asrwt>0</asrwt>
<pdfrwt beam="1">  1       21 0.29466593E-01 0.19492813E+03</pdfrwt>
<pdfrwt beam="2">  1       21 0.51599195E-01 0.19492813E+03</pdfrwt>
<totfact> 0.39325647E+04</totfact>
</mgrwt>
</event>
<event>
 4    2  0.4024741E+000  0.1933296E+03  0.7546771E-02  0.1155492E+00
         21   -1    0    0  503  502  0.00000000000E+00  0.00000000000E+00  0.40101956998E+03  0.40101956998E+03  0.00000000000E+00 0. -1.
         21   -1    0    0  501  503 -0.00000000000E+00 -0.00000000000E+00 -0.98393789963E+02  0.98393789963E+02  0.00000000000E+00 0. -1.
          6    1    1    2  501    0  0.98160053336E+01  0.85737930743E+02  0.93960627947E+02  0.21495335851E+03  0.17300000000E+03 0. -1.
         -6    1    1    2    0  502 -0.98160053336E+01 -0.85737930743E+02  0.20866515207E+03  0.28446000143E+03  0.17300000000E+03 0. -1.
<mgrwt>
<rscale>  2 0.19332963E+03</rscale>
<asrwt>0</asrwt>
<pdfrwt beam="1">  1       21 0.61695318E-01 0.19332963E+03</pdfrwt>
<pdfrwt beam="2">  1       21 0.15137506E-01 0.19332963E+03</pdfrwt>
<totfact> 0.94134263E+04</totfact>
</mgrwt>
</event>
<event>
 4    2  0.4024741E+000  0.1818019E+03  0.7546771E-02  0.1166070E+00
         21   -1    0    0  501  502  0.00000000000E+00  0.00000000000E+00  0.42260977409E+02  0.42260977409E+02  0.00000000000E+00 0.  1.
         21   -1    0    0  502  503 -0.00000000000E+00 -0.00000000000E+00 -0.85817672044E+03  0.85817672044E+03  0.00000000000E+00 0.  1.
          6    1    1    2  501    0  0.54207022307E+02  0.13584465626E+02 -0.27390186222E+03  0.32874635983E+03  0.17300000000E+03 0.  1.
         -6    1    1    2    0  503 -0.54207022307E+02 -0.13584465626E+02 -0.54201388081E+03  0.57169133801E+03  0.17300000000E+03 0.  1.
<mgrwt>
<rscale>  2 0.18180192E+03</rscale>
<asrwt>0</asrwt>
<pdfrwt beam="1">  1       21 0.65016880E-02 0.18180192E+03</pdfrwt>
<pdfrwt beam="2">  1       21 0.13202721E+00 0.18180192E+03</pdfrwt>
<totfact> 0.71791726E+04</totfact>
</mgrwt>
</event>
<event>
 4    2  0.4024741E+000  0.1924910E+03  0.7546771E-02  0.1156234E+00
         21   -1    0    0  503  502  0.00000000000E+00  0.00000000000E+00  0.47577269690E+03  0.47577269690E+03  0.00000000000E+00 0.  1.
         21   -1    0    0  501  503 -0.00000000000E+00 -0.00000000000E+00 -0.78316530259E+02  0.78316530259E+02  0.00000000000E+00 0. -1.
          6    1    1    2  501    0  0.38581003435E+02  0.75068647393E+02  0.21943088795E+03  0.29189503291E+03  0.17300000000E+03 0. -1.
         -6    1    1    2    0  502 -0.38581003435E+02 -0.75068647393E+02  0.17802527868E+03  0.26219419425E+03  0.17300000000E+03 0.  1.
<mgrwt>
<rscale>  2 0.19249103E+03</rscale>
<asrwt>0</asrwt>
<pdfrwt beam="1">  1       21 0.73195798E-01 0.19249103E+03</pdfrwt>
<pdfrwt beam="2">  1       21 0.12048697E-01 0.19249103E+03</pdfrwt>
<totfact> 0.97801191E+04</totfact>
</mgrwt>
</event>
<event>
 4    2  0.4024741E+000  0.1988182E+03  0.7546771E-02  0.1150740E+00
         21   -1    0    0  501  502  0.00000000000E+00  0.00000000000E+00  0.11448219953E+04  0.11448219953E+04  0.00000000000E+00 0.  1.
         21   -1    0    0  502  503 -0.00000000000E+00 -0.00000000000E+00 -0.40739001465E+02  0.40739001465E+02  0.00000000000E+00 0.  1.
          6    1    1    2  501    0 -0.40059804518E+02  0.89414193745E+02  0.78349364873E+03  0.80832603793E+03  0.17300000000E+03 0.  1.
         -6    1    1    2    0  503  0.40059804518E+02 -0.89414193745E+02  0.32058934512E+03  0.37723495886E+03  0.17300000000E+03 0.  1.
<mgrwt>
<rscale>  2 0.19881822E+03</rscale>
<asrwt>0</asrwt>
<pdfrwt beam="1">  1       21 0.17612644E+00 0.19881822E+03</pdfrwt>
<pdfrwt beam="2">  1       21 0.62675396E-02 0.19881822E+03</pdfrwt>
<totfact> 0.35249796E+04</totfact>
</mgrwt>
</event>
<event>
 4    2  0.4024741E+000  0.2504513E+03  0.7546771E-02  0.1113020E+00
         21   -1    0    0  501  502  0.00000000000E+00  0.00000000000E+00  0.16484401470E+03  0.16484401470E+03  0.00000000000E+00 0. -1.
         21   -1    0    0  502  503 -0.00000000000E+00 -0.00000000000E+00 -0.41695988516E+03  0.41695988516E+03  0.00000000000E+00 0.  1.
          6    1    1    2  501    0 -0.14830751470E+03  0.10393144485E+03 -0.21206001873E+03  0.32816964468E+03  0.17300000000E+03 0.  1.
         -6    1    1    2    0  503  0.14830751470E+03 -0.10393144485E+03 -0.40055851728E+02  0.25363425519E+03  0.17300000000E+03 0. -1.
<mgrwt>
<rscale>  2 0.25045132E+03</rscale>
<asrwt>0</asrwt>
<pdfrwt beam="1">  1       21 0.25360618E-01 0.25045132E+03</pdfrwt>
<pdfrwt beam="2">  1       21 0.64147674E-01 0.25045132E+03</pdfrwt>
<totfact> 0.32122988E+04</totfact>
</mgrwt>
</event>
<event>
 4    2  0.4024741E+000  0.2120496E+03  0.7546771E-02  0.1139953E+00
         21   -1    0    0  503  502  0.00000000000E+00  0.00000000000E+00  0.48074877684E+03  0.48074877684E+03  0.00000000000E+00 0.  1.
         21   -1    0    0  501  503 -0.00000000000E+00 -0.00000000000E+00 -0.94111299388E+02  0.94111299388E+02  0.00000000000E+00 0.  1.
          6    1    1    2  501    0 -0.90320085278E+02  0.82935524106E+02  0.21588478576E+03  0.30260743495E+03  0.17300000000E+03 0.  1.
         -6    1    1    2    0  502  0.90320085278E+02 -0.82935524106E+02  0.17075269169E+03  0.27225264128E+03  0.17300000000E+03 0.  1.
<mgrwt>
<rscale>  2 0.21204957E+03</rscale>
<asrwt>0</asrwt>
<pdfrwt beam="1">  1       21 0.73961349E-01 0.21204957E+03</pdfrwt>
<pdfrwt beam="2">  1       21 0.14478662E-01 0.21204957E+03</pdfrwt>
<totfact> 0.68012233E+04</totfact>
</mgrwt>
</event>
<event>
 4    2  0.4024741E+000  0.1781285E+03  0.7546771E-02  0.1169627E+00
         21   -1    0    0  503  502  0.00000000000E+00  0.00000000000E+00  0.55055424571E+02  0.55055424571E+02  0.00000000000E+00 0.  1.
         21   -1    0    0  501  503 -0.00000000000E+00 -0.00000000000E+00 -0.10776536823E+04  0.10776536823E+04  0.00000000000E+00 0.  1.
          6    1    1    2  501    0  0.28507266645E+02 -0.31433866048E+02 -0.89758656097E+03  0.91509091714E+03  0.17300000000E+03 0.  1.
         -6    1    1    2    0  502 -0.28507266645E+02  0.31433866048E+02 -0.12501169680E+03  0.21761818978E+03  0.17300000000E+03 0.  1.
<mgrwt>
<rscale>  2 0.17812847E+03</rscale>
<asrwt>0</asrwt>
<pdfrwt beam="1">  1       21 0.84700648E-02 0.17812847E+03</pdfrwt>
<pdfrwt beam="2">  1       21 0.16579288E+00 0.17812847E+03</pdfrwt>
<totfact> 0.25072661E+04</totfact>
</mgrwt>
</event>
<event>
 4    2  0.4024741E+000  0.2224196E+03  0.7546771E-02  0.1132092E+00
         21   -1    0    0  503  502  0.00000000000E+00  0.00000000000E+00  0.10591892238E+04  0.10591892238E+04  0.00000000000E+00 0.  1.
         21   -1    0    0  501  503 -0.00000000000E+00 -0.00000000000E+00 -0.60245371877E+02  0.60245371877E+02  0.00000000000E+00 0.  1.
          6    1    1    2  501    0  0.12033616745E+03 -0.71138542625E+02  0.76481407365E+03  0.79649924840E+03  0.17300000000E+03 0.  1.
         -6    1    1    2    0  502 -0.12033616745E+03  0.71138542625E+02  0.23412977824E+03  0.32293534725E+03  0.17300000000E+03 0.  1.
<mgrwt>
<rscale>  2 0.22241962E+03</rscale>
<asrwt>0</asrwt>
<pdfrwt beam="1">  1       21 0.16295218E+00 0.22241962E+03</pdfrwt>
<pdfrwt beam="2">  1       21 0.92685195E-02 0.22241962E+03</pdfrwt>
<totfact> 0.21790890E+04</totfact>
</mgrwt>
</event>
<event>
 4    2  0.4024741E+000  0.2309016E+03  0.7546771E-02  0.1126007E+00
         21   -1    0    0  503  502  0.00000000000E+00  0.00000000000E+00  0.22371883220E+04  0.22371883220E+04  0.00000000000E+00 0.  1.
         21   -1    0    0  501  503 -0.00000000000E+00 -0.00000000000E+00 -0.35651813670E+02  0.35651813670E+02  0.00000000000E+00 0. -1.
          6    1    1    2  501    0  0.82385723630E+02  0.12883760079E+03  0.44641429550E+03  0.50259452650E+03  0.17300000000E+03 0. -1.
         -6    1    1    2    0  502 -0.82385723630E+02 -0.12883760079E+03  0.17551222128E+04  0.17702456092E+04  0.17300000000E+03 0.  1.
<mgrwt>
<rscale>  2 0.23090157E+03</rscale>
<asrwt>0</asrwt>
<pdfrwt beam="1">  1       21 0.34418271E+00 0.23090157E+03</pdfrwt>
<pdfrwt beam="2">  1       21 0.54848962E-02 0.23090157E+03</pdfrwt>
<totfact> 0.41563240E+03</totfact>
</mgrwt>
</event>
<event>
 4    2  0.4024741E+000  0.1755933E+03  0.7546771E-02  0.1172137E+00
         21   -1    0    0  501  502  0.00000000000E+00  0.00000000000E+00  0.12081874983E+04  0.12081874983E+04  0.00000000000E+00 0.  1.
         21   -1    0    0  502  503 -0.00000000000E+00 -0.00000000000E+00 -0.28328581305E+02  0.28328581305E+02  0.00000000000E+00 0.  1.
          6    1    1    2  501    0 -0.28291030183E+01  0.29933353426E+02  0.78459842876E+03  0.80400727850E+03  0.17300000000E+03 0.  1.
         -6    1    1    2    0  503  0.28291030183E+01 -0.29933353426E+02  0.39526048822E+03  0.43250880109E+03  0.17300000000E+03 0.  1.
<mgrwt>
<rscale>  2 0.17559331E+03</rscale>
<asrwt>0</asrwt>
<pdfrwt beam="1">  1       21 0.18587496E+00 0.17559331E+03</pdfrwt>
<pdfrwt beam="2">  1       21 0.43582442E-02 0.17559331E+03</pdfrwt>
<totfact> 0.56952014E+04</totfact>
</mgrwt>
</event>
<event>
 4    2  0.4024741E+000  0.2193015E+03  0.7546771E-02  0.1134405E+00
         21   -1    0    0  503  502  0.00000000000E+00  0.00000000000E+00  0.75011368237E+03  0.75011368237E+03  0.00000000000E+00 0.  1.
         21   -1    0    0  501  503 -0.00000000000E+00 -0.00000000000E+00 -0.80123220117E+02  0.80123220117E+02  0.00000000000E+00 0.  1.
          6    1    1    2  501    0 -0.99782740063E+02  0.90595436122E+02  0.14944060498E+03  0.26537826339E+03  0.17300000000E+03 0.  1.
         -6    1    1    2    0  502  0.99782740063E+02 -0.90595436122E+02  0.52054985727E+03  0.56485863910E+03  0.17300000000E+03 0.  1.
<mgrwt>
<rscale>  2 0.21930146E+03</rscale>
<asrwt>0</asrwt>
<pdfrwt beam="1">  1       21 0.11540210E+00 0.21930146E+03</pdfrwt>
<pdfrwt beam="2">  1       21 0.12326650E-01 0.21930146E+03</pdfrwt>
<totfact> 0.32026138E+04</totfact>
</mgrwt>
</event>
<event>
 4    2  0.4024741E+000  0.1769310E+03  0.7546771E-02  0.1170807E+00
         21   -1    0    0  501  502  0.00000000000E+00  0.00000000000E+00  0.11013636132E+03  0.11013636132E+03  0.00000000000E+00 0. -1.
         21   -1    0    0  502  503 -0.00000000000E+00 -0.00000000000E+00 -0.35913817169E+03  0.35913817169E+03  0.00000000000E+00 0. -1.
          6    1    1    2  501    0  0.29381897134E+02 -0.22633863668E+02 -0.23165699644E+03  0.29149537160E+03  0.17300000000E+03 0.  1.
         -6    1    1    2    0  503 -0.29381897134E+02  0.22633863668E+02 -0.17344813930E+02  0.17777916142E+03  0.17300000000E+03 0.  1.
<mgrwt>
<rscale>  2 0.17693103E+03</rscale>
<asrwt>0</asrwt>
<pdfrwt beam="1">  1       21 0.16944056E-01 0.17693103E+03</pdfrwt>
<pdfrwt beam="2">  1       21 0.55252026E-01 0.17693103E+03</pdfrwt>
<totfact> 0.97548803E+04</totfact>
</mgrwt>
</event>
<event>
 4    2  0.4024741E+000  0.3557143E+03  0.7546771E-02  0.1060294E+00
         21   -1    0    0  503  502  0.00000000000E+00  0.00000000000E+00  0.35333819478E+03  0.35333819478E+03  0.00000000000E+00 0. -1.
         21   -1    0    0  501  503 -0.00000000000E+00 -0.00000000000E+00 -0.39267841500E+03  0.39267841500E+03  0.00000000000E+00 0.  1.
          6    1    1    2  501    0  0.82917690386E+01 -0.31070062342E+03 -0.13034854525E+03  0.37884478890E+03  0.17300000000E+03 0. -1.
         -6    1    1    2    0  502 -0.82917690386E+01  0.31070062342E+03  0.91008325025E+02  0.36717182088E+03  0.17300000000E+03 0.  1.
<mgrwt>
<rscale>  2 0.35571425E+03</rscale>
<asrwt>0</asrwt>
<pdfrwt beam="1">  1       21 0.54359722E-01 0.35571425E+03</pdfrwt>
<pdfrwt beam="2">  1       21 0.60412064E-01 0.35571425E+03</pdfrwt>
<totfact> 0.74816514E+03</totfact>
</mgrwt>
</event>
<event>
 4    2  0.4024741E+000  0.2880460E+03  0.7546771E-02  0.1091374E+00
         21   -1    0    0  501  502  0.00000000000E+00  0.00000000000E+00  0.11636041409E+03  0.11636041409E+03  0.00000000000E+00 0. -1.
         21   -1    0    0  502  503 -0.00000000000E+00 -0.00000000000E+00 -0.74112399235E+03  0.74112399235E+03  0.00000000000E+00 0.  1.
          6    1    1    2  501    0  0.52418907613E+00 -0.23030686136E+03 -0.22893287143E+03  0.36794127899E+03  0.17300000000E+03 0. -1.
         -6    1    1    2    0  503 -0.52418907613E+00  0.23030686136E+03 -0.39583070683E+03  0.48954312745E+03  0.17300000000E+03 0.  1.
<mgrwt>
<rscale>  2 0.28804605E+03</rscale>
<asrwt>0</asrwt>
<pdfrwt beam="1">  1       21 0.17901602E-01 0.28804605E+03</pdfrwt>
<pdfrwt beam="2">  1       21 0.11401908E+00 0.28804605E+03</pdfrwt>
<totfact> 0.16106195E+04</totfact>
</mgrwt>
</event>
<event>
 4    2  0.4024741E+000  0.1775135E+03  0.7546771E-02  0.1170231E+00
         21   -1    0    0  503  502  0.00000000000E+00  0.00000000000E+00  0.46683092224E+02  0.46683092224E+02  0.00000000000E+00 0. -1.
         21   -1    0    0  501  503 -0.00000000000E+00 -0.00000000000E+00 -0.10048119212E+04  0.10048119212E+04  0.00000000000E+00 0. -1.
          6    1    1    2  501    0 -0.39579496049E+02 -0.39363782013E+01 -0.78027400253E+03  0.80021156615E+03  0.17300000000E+03 0. -1.
         -6    1    1    2    0  502  0.39579496049E+02  0.39363782013E+01 -0.17785482644E+03  0.25128344726E+03  0.17300000000E+03 0. -1.
<mgrwt>
<rscale>  2 0.17751347E+03</rscale>
<asrwt>0</asrwt>
<pdfrwt beam="1">  1       21 0.71820144E-02 0.17751347E+03</pdfrwt>
<pdfrwt beam="2">  1       21 0.15458644E+00 0.17751347E+03</pdfrwt>
<totfact> 0.40305813E+04</totfact>
</mgrwt>
</event>
<event>
 4    2  0.4024741E+000  0.1776491E+03  0.7546771E-02  0.1170098E+00
         21   -1    0    0  501  502  0.00000000000E+00  0.00000000000E+00  0.89195314714E+03  0.89195314714E+03  0.00000000000E+00 0. -1.
         21   -1    0    0  502  503 -0.00000000000E+00 -0.00000000000E+00 -0.76886202488E+02  0.76886202488E+02  0.00000000000E+00 0. -1.
          6    1    1    2  501    0 -0.27495347447E+02  0.29567057820E+02  0.76344569941E+03  0.78384216587E+03  0.17300000000E+03 0. -1.
         -6    1    1    2    0  503  0.27495347447E+02 -0.29567057820E+02  0.51621245239E+02  0.18499718376E+03  0.17300000000E+03 0. -1.
<mgrwt>
<rscale>  2 0.17764911E+03</rscale>
<asrwt>0</asrwt>
<pdfrwt beam="1">  1       21 0.13722355E+00 0.17764911E+03</pdfrwt>
<pdfrwt beam="2">  1       21 0.11828647E-01 0.17764911E+03</pdfrwt>
<totfact> 0.22907359E+04</totfact>
</mgrwt>
</event>
<event>
 4    2  0.4024741E+000  0.1810527E+03  0.7546771E-02  0.1166788E+00
         21   -1    0    0  503  502  0.00000000000E+00  0.00000000000E+00  0.24974281643E+04  0.24974281643E+04  0.00000000000E+00 0.  1.
         21   -1    0    0  501  503 -0.00000000000E+00 -0.00000000000E+00 -0.20161317709E+02  0.20161317709E+02  0.00000000000E+00 0.  1.
          6    1    1    2  501    0 -0.53177264315E+02  0.48215248942E+01  0.49501211900E+03  0.52708354793E+03  0.17300000000E+03 0.  1.
         -6    1    1    2    0  502  0.53177264315E+02 -0.48215248942E+01  0.19822547276E+04  0.19905059341E+04  0.17300000000E+03 0.  1.
<mgrwt>
<rscale>  2 0.18105267E+03</rscale>
<asrwt>0</asrwt>
<pdfrwt beam="1">  1       21 0.38421947E+00 0.18105267E+03</pdfrwt>
<pdfrwt beam="2">  1       21 0.31017432E-02 0.18105267E+03</pdfrwt>
<totfact> 0.66294379E+03</totfact>
</mgrwt>
</event>
<event>
 4    2  0.4024741E+000  0.1897506E+03  0.7546771E-02  0.1158686E+00
         21   -1    0    0  503  502  0.00000000000E+00  0.00000000000E+00  0.27056758135E+03  0.27056758135E+03  0.00000000000E+00 0.  1.
         21   -1    0    0  501  503 -0.00000000000E+00 -0.00000000000E+00 -0.13873851850E+03  0.13873851850E+03  0.00000000000E+00 0.  1.
          6    1    1    2  501    0  0.77502743373E+02 -0.83432540924E+01  0.24559048249E+02  0.19133330073E+03  0.17300000000E+03 0.  1.
         -6    1    1    2    0  502 -0.77502743373E+02  0.83432540924E+01  0.10727001461E+03  0.21797279911E+03  0.17300000000E+03 0.  1.
<mgrwt>
<rscale>  2 0.18975059E+03</rscale>
<asrwt>0</asrwt>
<pdfrwt beam="1">  1       21 0.41625782E-01 0.18975059E+03</pdfrwt>
<pdfrwt beam="2">  1       21 0.21344388E-01 0.18975059E+03</pdfrwt>
<totfact> 0.11366168E+05</totfact>
</mgrwt>
</event>
<event>
 4    2  0.4024741E+000  0.2445770E+03  0.7546771E-02  0.1116781E+00
         21   -1    0    0  501  502  0.00000000000E+00  0.00000000000E+00  0.13888834323E+03  0.13888834323E+03  0.00000000000E+00 0. -1.
         21   -1    0    0  502  503 -0.00000000000E+00 -0.00000000000E+00 -0.43163963691E+03  0.43163963691E+03  0.00000000000E+00 0.  1.
          6    1    1    2  501    0 -0.26145485261E+02 -0.17089563847E+03 -0.15975160586E+03  0.29212750850E+03  0.17300000000E+03 0. -1.
         -6    1    1    2    0  503  0.26145485261E+02  0.17089563847E+03 -0.13299968783E+03  0.27840047164E+03  0.17300000000E+03 0. -1.
<mgrwt>
<rscale>  2 0.24457699E+03</rscale>
<asrwt>0</asrwt>
<pdfrwt beam="1">  1       21 0.21367437E-01 0.24457699E+03</pdfrwt>
<pdfrwt beam="2">  1       21 0.66406099E-01 0.24457699E+03</pdfrwt>
<totfact> 0.41385760E+04</totfact>
</mgrwt>
</event>
<event>
 4    2  0.4024741E+000  0.1923911E+03  0.7546771E-02  0.1156322E+00
         21   -1    0    0  501  502  0.00000000000E+00  0.00000000000E+00  0.25178557423E+03  0.25178557423E+03  0.00000000000E+00 0. -1.
         21   -1    0    0  502  503 -0.00000000000E+00 -0.00000000000E+00 -0.29868359586E+03  0.29868359586E+03  0.00000000000E+00 0. -1.
          6    1    1    2  501    0  0.27654269752E+01  0.84129015946E+02  0.17268642029E+03  0.25852454170E+03  0.17300000000E+03 0. -1.
         -6    1    1    2    0  503 -0.27654269752E+01 -0.84129015946E+02 -0.21958444192E+03  0.29194462838E+03  0.17300000000E+03 0. -1.
<mgrwt>
<rscale>  2 0.19239111E+03</rscale>
<asrwt>0</asrwt>
<pdfrwt beam="1">  1       21 0.38736242E-01 0.19239111E+03</pdfrwt>
<pdfrwt beam="2">  1       21 0.45951322E-01 0.19239111E+03</pdfrwt>
<totfact> 0.29174785E+04</totfact>
</mgrwt>
</event>
<event>
 4    2  0.4024741E+000  0.2018907E+03  0.7546771E-02  0.1148154E+00
         21   -1    0    0  503  502  0.00000000000E+00  0.00000000000E+00  0.11688699275E+04  0.11688699275E+04  0.00000000000E+00 0. -1.
         21   -1    0    0  501  503 -0.00000000000E+00 -0.00000000000E+00 -0.45055755020E+02  0.45055755020E+02  0.00000000000E+00 0. -1.
          6    1    1    2  501    0 -0.36814743349E+02  0.97342323764E+02  0.27333202633E+03  0.33980913752E+03  0.17300000000E+03 0. -1.
         -6    1    1    2    0  502  0.36814743349E+02 -0.97342323764E+02  0.85048214614E+03  0.87411654499E+03  0.17300000000E+03 0. -1.
<mgrwt>
<rscale>  2 0.20189070E+03</rscale>
<asrwt>0</asrwt>
<pdfrwt beam="1">  1       21 0.17982612E+00 0.20189070E+03</pdfrwt>
<pdfrwt beam="2">  1       21 0.69316555E-02 0.20189070E+03</pdfrwt>
<totfact> 0.27894491E+04</totfact>
</mgrwt>
</event>
<event>
 4    2  0.4024741E+000  0.2048629E+03  0.7546771E-02  0.1145700E+00
         21   -1    0    0  501  502  0.00000000000E+00  0.00000000000E+00  0.46311670465E+03  0.46311670465E+03  0.00000000000E+00 0.  1.
         21   -1    0    0  502  503 -0.00000000000E+00 -0.00000000000E+00 -0.10829320470E+03  0.10829320470E+03  0.00000000000E+00 0.  1.
          6    1    1    2  501    0 -0.61366583158E+02  0.90961148115E+02  0.29282196536E+03  0.35737024413E+03  0.17300000000E+03 0.  1.
         -6    1    1    2    0  503  0.61366583158E+02 -0.90961148115E+02  0.62001534592E+02  0.21403966522E+03  0.17300000000E+03 0.  1.
<mgrwt>
<rscale>  2 0.20486285E+03</rscale>
<asrwt>0</asrwt>
<pdfrwt beam="1">  1       21 0.71248723E-01 0.20486285E+03</pdfrwt>
<pdfrwt beam="2">  1       21 0.16660493E-01 0.20486285E+03</pdfrwt>
<totfact> 0.57355742E+04</totfact>
</mgrwt>
</event>
<event>
 4    2  0.4024741E+000  0.2339262E+03  0.7546771E-02  0.1123906E+00
         21   -1    0    0  503  502  0.00000000000E+00  0.00000000000E+00  0.23571453827E+03  0.23571453827E+03  0.00000000000E+00 0.  1.
         21   -1    0    0  501  503 -0.00000000000E+00 -0.00000000000E+00 -0.39977735219E+03  0.39977735219E+03  0.00000000000E+00 0.  1.
          6    1    1    2  501    0  0.14884523485E+03 -0.51357216730E+02 -0.28778219668E+03  0.37086393782E+03  0.17300000000E+03 0.  1.
         -6    1    1    2    0  502 -0.14884523485E+03  0.51357216730E+02  0.12371938276E+03  0.26462795264E+03  0.17300000000E+03 0.  1.
<mgrwt>
<rscale>  2 0.23392620E+03</rscale>
<asrwt>0</asrwt>
<pdfrwt beam="1">  1       21 0.36263776E-01 0.23392620E+03</pdfrwt>
<pdfrwt beam="2">  1       21 0.61504207E-01 0.23392620E+03</pdfrwt>
<totfact> 0.17588656E+04</totfact>
</mgrwt>
</event>
<event>
 4    2  0.4024741E+000  0.1765281E+03  0.7546771E-02  0.1171206E+00
         21   -1    0    0  501  502  0.00000000000E+00  0.00000000000E+00  0.68765884127E+02  0.68765884127E+02  0.00000000000E+00 0. -1.
         21   -1    0    0  502  503 -0.00000000000E+00 -0.00000000000E+00 -0.69111243542E+03  0.69111243542E+03  0.00000000000E+00 0. -1.
          6    1    1    2  501    0  0.33096803466E+01 -0.34960057944E+02 -0.88236367653E+02  0.19735201091E+03  0.17300000000E+03 0. -1.
         -6    1    1    2    0  503 -0.33096803466E+01  0.34960057944E+02 -0.53411018364E+03  0.56252630863E+03  0.17300000000E+03 0. -1.
<mgrwt>
<rscale>  2 0.17652807E+03</rscale>
<asrwt>0</asrwt>
<pdfrwt beam="1">  1       21 0.10579367E-01 0.17652807E+03</pdfrwt>
<pdfrwt beam="2">  1       21 0.10632498E+00 0.17652807E+03</pdfrwt>
<totfact> 0.52491314E+04</totfact>
</mgrwt>
</event>
<event>
 4    2  0.4024741E+000  0.2633316E+03  0.7546771E-02  0.1105158E+00
         21   -1    0    0  503  502  0.00000000000E+00  0.00000000000E+00  0.52493457809E+03  0.52493457809E+03  0.00000000000E+00 0. -1.
         21   -1    0    0  501  503 -0.00000000000E+00 -0.00000000000E+00 -0.19443390717E+03  0.19443390717E+03  0.00000000000E+00 0. -1.
          6    1    1    2  501    0 -0.13821627450E+03 -0.14251593641E+03 -0.38406858757E+02  0.26611767597E+03  0.17300000000E+03 0. -1.
         -6    1    1    2    0  502  0.13821627450E+03  0.14251593641E+03  0.36890752967E+03  0.45325080928E+03  0.17300000000E+03 0. -1.
<mgrwt>
<rscale>  2 0.26333160E+03</rscale>
<asrwt>0</asrwt>
<pdfrwt beam="1">  1       21 0.80759166E-01 0.26333160E+03</pdfrwt>
<pdfrwt beam="2">  1       21 0.29912909E-01 0.26333160E+03</pdfrwt>
<totfact> 0.13852268E+04</totfact>
</mgrwt>
</event>
<event>
 4    2  0.4024741E+000  0.2451533E+03  0.7546771E-02  0.1116407E+00
         21   -1    0    0  503  502  0.00000000000E+00  0.00000000000E+00  0.10457843000E+03  0.10457843000E+03  0.00000000000E+00 0. -1.
         21   -1    0    0  501  503 -0.00000000000E+00 -0.00000000000E+00 -0.84591880314E+03  0.84591880314E+03  0.00000000000E+00 0. -1.
          6    1    1    2  501    0 -0.17306723785E+03 -0.14793733163E+02 -0.63977709292E+03  0.68513856408E+03  0.17300000000E+03 0. -1.
         -6    1    1    2    0  502  0.17306723785E+03  0.14793733163E+02 -0.10156328021E+03  0.26535866906E+03  0.17300000000E+03 0. -1.
<mgrwt>
<rscale>  2 0.24515327E+03</rscale>
<asrwt>0</asrwt>
<pdfrwt beam="1">  1       21 0.16088989E-01 0.24515327E+03</pdfrwt>
<pdfrwt beam="2">  1       21 0.13014135E+00 0.24515327E+03</pdfrwt>
<totfact> 0.14394584E+04</totfact>
</mgrwt>
</event>
<event>
 4    2  0.4024741E+000  0.1881570E+03  0.7546771E-02  0.1160134E+00
         21   -1    0    0  501  502  0.00000000000E+00  0.00000000000E+00  0.88104752652E+02  0.88104752652E+02  0.00000000000E+00 0. -1.
         21   -1    0    0  502  503 -0.00000000000E+00 -0.00000000000E+00 -0.52273703394E+03  0.52273703394E+03  0.00000000000E+00 0. -1.
          6    1    1    2  501    0 -0.38896399226E+02  0.62937593323E+02 -0.70428870180E+02  0.20090618776E+03  0.17300000000E+03 0. -1.
         -6    1    1    2    0  503  0.38896399226E+02 -0.62937593323E+02 -0.36420341111E+03  0.40993559883E+03  0.17300000000E+03 0. -1.
<mgrwt>
<rscale>  2 0.18815704E+03</rscale>
<asrwt>0</asrwt>
<pdfrwt beam="1">  1       21 0.13554577E-01 0.18815704E+03</pdfrwt>
<pdfrwt beam="2">  1       21 0.80421082E-01 0.18815704E+03</pdfrwt>
<totfact> 0.64201779E+04</totfact>
</mgrwt>
</event>
<event>
 4    2  0.4024741E+000  0.2071732E+03  0.7546771E-02  0.1143824E+00
         21   -1    0    0  501  502  0.00000000000E+00  0.00000000000E+00  0.58010155619E+02  0.58010155619E+02  0.00000000000E+00 0.  1.
         21   -1    0    0  502  503 -0.00000000000E+00 -0.00000000000E+00 -0.16055029038E+04  0.16055029038E+04  0.00000000000E+00 0. -1.
          6    1    1    2  501    0  0.73938863891E+02  0.86745416231E+02 -0.16300926298E+03  0.26361476182E+03  0.17300000000E+03 0.  1.
         -6    1    1    2    0  503 -0.73938863891E+02 -0.86745416231E+02 -0.13844834852E+04  0.13998982976E+04  0.17300000000E+03 0. -1.
<mgrwt>
<rscale>  2 0.20717317E+03</rscale>
<asrwt>0</asrwt>
<pdfrwt beam="1">  1       21 0.89246395E-02 0.20717317E+03</pdfrwt>
<pdfrwt beam="2">  1       21 0.24700044E+00 0.20717317E+03</pdfrwt>
<totfact> 0.67694307E+03</totfact>
</mgrwt>
</event>
<event>
 4    2  0.4024741E+000  0.2382236E+03  0.7546771E-02  0.1120982E+00
         21   -1    0    0  501  502  0.00000000000E+00  0.00000000000E+00  0.40312392175E+03  0.40312392175E+03  0.00000000000E+00 0.  1.
         21   -1    0    0  502  503 -0.00000000000E+00 -0.00000000000E+00 -0.14077766266E+03  0.14077766266E+03  0.00000000000E+00 0.  1.
          6    1    1    2  501    0 -0.51142965916E+02 -0.15558240344E+03  0.13185449096E+03  0.27227944103E+03  0.17300000000E+03 0.  1.
         -6    1    1    2    0  503  0.51142965916E+02  0.15558240344E+03  0.13049176813E+03  0.27162214338E+03  0.17300000000E+03 0.  1.
<mgrwt>
<rscale>  2 0.23822361E+03</rscale>
<asrwt>0</asrwt>
<pdfrwt beam="1">  1       21 0.62019065E-01 0.23822361E+03</pdfrwt>
<pdfrwt beam="2">  1       21 0.21658102E-01 0.23822361E+03</pdfrwt>
<totfact> 0.46963446E+04</totfact>
</mgrwt>
</event>
<event>
 4    2  0.4024741E+000  0.1882945E+03  0.7546771E-02  0.1160009E+00
         21   -1    0    0  503  502  0.00000000000E+00  0.00000000000E+00  0.92851814124E+02  0.92851814124E+02  0.00000000000E+00 0.  1.
         21   -1    0    0  501  503 -0.00000000000E+00 -0.00000000000E+00 -0.10340180358E+04  0.10340180358E+04  0.00000000000E+00 0.  1.
          6    1    1    2  501    0  0.24505298134E+02 -0.70180572424E+02 -0.91805088777E+03  0.93716180829E+03  0.17300000000E+03 0.  1.
         -6    1    1    2    0  502 -0.24505298134E+02  0.70180572424E+02 -0.23115333857E+02  0.18970804158E+03  0.17300000000E+03 0.  1.
<mgrwt>
<rscale>  2 0.18829451E+03</rscale>
<asrwt>0</asrwt>
<pdfrwt beam="1">  1       21 0.14284895E-01 0.18829451E+03</pdfrwt>
<pdfrwt beam="2">  1       21 0.15907969E+00 0.18829451E+03</pdfrwt>
<totfact> 0.10995628E+04</totfact>
</mgrwt>
</event>
<event>
 4    2  0.4024741E+000  0.1854371E+03  0.7546771E-02  0.1162642E+00
         21   -1    0    0  501  502  0.00000000000E+00  0.00000000000E+00  0.10280544776E+04  0.10280544776E+04  0.00000000000E+00 0.  1.
         21   -1    0    0  502  503 -0.00000000000E+00 -0.00000000000E+00 -0.69818326538E+02  0.69818326538E+02  0.00000000000E+00 0.  1.
          6    1    1    2  501    0 -0.82303309874E+01  0.66258416702E+02  0.87531191661E+03  0.89473899406E+03  0.17300000000E+03 0.  1.
         -6    1    1    2    0  503  0.82303309874E+01 -0.66258416702E+02  0.82924234430E+02  0.20313381006E+03  0.17300000000E+03 0.  1.
<mgrwt>
<rscale>  2 0.18543709E+03</rscale>
<asrwt>0</asrwt>
<pdfrwt beam="1">  1       21 0.15816222E+00 0.18543709E+03</pdfrwt>
<pdfrwt beam="2">  1       21 0.10741282E-01 0.18543709E+03</pdfrwt>
<totfact> 0.18656143E+04</totfact>
</mgrwt>
</event>
<event>
 4    2  0.4024741E+000  0.2561857E+03  0.7546771E-02  0.1109457E+00
         21   -1    0    0  503  502  0.00000000000E+00  0.00000000000E+00  0.18515158600E+03  0.18515158600E+03  0.00000000000E+00 0.  1.
         21   -1    0    0  501  503 -0.00000000000E+00 -0.00000000000E+00 -0.92399402436E+03  0.92399402436E+03  0.00000000000E+00 0. -1.
          6    1    1    2  501    0 -0.14410916713E+03  0.12220734669E+03 -0.80481194932E+03  0.84460248721E+03  0.17300000000E+03 0. -1.
         -6    1    1    2    0  502  0.14410916713E+03 -0.12220734669E+03  0.65969510952E+02  0.26454312316E+03  0.17300000000E+03 0.  1.
<mgrwt>
<rscale>  2 0.25618565E+03</rscale>
<asrwt>0</asrwt>
<pdfrwt beam="1">  1       21 0.28484859E-01 0.25618565E+03</pdfrwt>
<pdfrwt beam="2">  1       21 0.14215293E+00 0.25618565E+03</pdfrwt>
<totfact> 0.38613394E+03</totfact>
</mgrwt>
</event>
<event>
 4    2  0.4024741E+000  0.1991136E+03  0.7546771E-02  0.1150489E+00
         21   -1    0    0  501  502  0.00000000000E+00  0.00000000000E+00  0.83803939343E+03  0.83803939343E+03  0.00000000000E+00 0.  1.
         21   -1    0    0  502  503 -0.00000000000E+00 -0.00000000000E+00 -0.21738624465E+03  0.21738624465E+03  0.00000000000E+00 0.  1.
          6    1    1    2  501    0 -0.37047617674E+02 -0.91349265347E+02  0.77709946036E+03  0.80220308248E+03  0.17300000000E+03 0.  1.
         -6    1    1    2    0  503  0.37047617674E+02  0.91349265347E+02 -0.15644631158E+03  0.25322255560E+03  0.17300000000E+03 0.  1.
<mgrwt>
<rscale>  2 0.19911357E+03</rscale>
<asrwt>0</asrwt>
<pdfrwt beam="1">  1       21 0.12892914E+00 0.19911357E+03</pdfrwt>
<pdfrwt beam="2">  1       21 0.33444038E-01 0.19911357E+03</pdfrwt>
<totfact> 0.37795262E+03</totfact>
</mgrwt>
</event>
<event>
 4    2  0.4024741E+000  0.2326657E+03  0.7546771E-02  0.1124777E+00
         21   -1    0    0  503  502  0.00000000000E+00  0.00000000000E+00  0.60155675605E+03  0.60155675605E+03  0.00000000000E+00 0. -1.
         21   -1    0    0  501  503 -0.00000000000E+00 -0.00000000000E+00 -0.19623130567E+03  0.19623130567E+03  0.00000000000E+00 0. -1.
          6    1    1    2  501    0 -0.88848729284E+02  0.12771157517E+03 -0.90847095063E+02  0.24977297254E+03  0.17300000000E+03 0. -1.
         -6    1    1    2    0  502  0.88848729284E+02 -0.12771157517E+03  0.49617254544E+03  0.54801508918E+03  0.17300000000E+03 0. -1.
<mgrwt>
<rscale>  2 0.23266573E+03</rscale>
<asrwt>0</asrwt>
<pdfrwt beam="1">  1       21 0.92547192E-01 0.23266573E+03</pdfrwt>
<pdfrwt beam="2">  1       21 0.30189432E-01 0.23266573E+03</pdfrwt>
<totfact> 0.10095219E+04</totfact>
</mgrwt>
</event>
<event>
 4    2  0.4024741E+000  0.2109697E+03  0.7546771E-02  0.1140800E+00
         21   -1    0    0  501  502  0.00000000000E+00  0.00000000000E+00  0.72612899281E+03  0.72612899281E+03  0.00000000000E+00 0.  1.
         21   -1    0    0  502  503 -0.00000000000E+00 -0.00000000000E+00 -0.12228641119E+03  0.12228641119E+03  0.00000000000E+00 0.  1.
          6    1    1    2  501    0 -0.11445976137E+03 -0.38446882717E+02  0.60150844440E+03  0.63743282661E+03  0.17300000000E+03 0.  1.
         -6    1    1    2    0  503  0.11445976137E+03  0.38446882717E+02  0.23341372246E+01  0.21098257738E+03  0.17300000000E+03 0.  1.
<mgrwt>
<rscale>  2 0.21096967E+03</rscale>
<asrwt>0</asrwt>
<pdfrwt beam="1">  1       21 0.11171215E+00 0.21096967E+03</pdfrwt>
<pdfrwt beam="2">  1       21 0.18813295E-01 0.21096967E+03</pdfrwt>
<totfact> 0.16082306E+04</totfact>
</mgrwt>
</event>
<event>
 4    2  0.4024741E+000  0.2341711E+03  0.7546771E-02  0.1123738E+00
         21   -1    0    0  501  502  0.00000000000E+00  0.00000000000E+00  0.37774909569E+03  0.37774909569E+03  0.00000000000E+00 0. -1.
         21   -1    0    0  502  503 -0.00000000000E+00 -0.00000000000E+00 -0.11801153651E+04  0.11801153651E+04  0.00000000000E+00 0.  1.
          6    1    1    2  501    0  0.68109728992E+02 -0.14236638580E+03  0.32826951369E+03  0.40323317895E+03  0.17300000000E+03 0. -1.
         -6    1    1    2    0  503 -0.68109728992E+02  0.14236638580E+03 -0.11306357831E+04  0.11546312818E+04  0.17300000000E+03 0.  1.
<mgrwt>
<rscale>  2 0.23417114E+03</rscale>
<asrwt>0</asrwt>
<pdfrwt beam="1">  1       21 0.58115246E-01 0.23417114E+03</pdfrwt>
<pdfrwt beam="2">  1       21 0.18155621E+00 0.23417114E+03</pdfrwt>
<totfact> 0.47070454E+02</totfact>
</mgrwt>
</event>
<event>
 4    2  0.4024741E+000  0.2454261E+03  0.7546771E-02  0.1116230E+00
         21   -1    0    0  503  502  0.00000000000E+00  0.00000000000E+00  0.94259174382E+03  0.94259174382E+03  0.00000000000E+00 0. -1.
         21   -1    0    0  501  503 -0.00000000000E+00 -0.00000000000E+00 -0.16218672402E+03  0.16218672402E+03  0.00000000000E+00 0. -1.
          6    1    1    2  501    0  0.14208566116E+03 -0.10058140551E+03 -0.39808421198E+02  0.24863359516E+03  0.17300000000E+03 0. -1.
         -6    1    1    2    0  502 -0.14208566116E+03  0.10058140551E+03  0.82021344099E+03  0.85614487268E+03  0.17300000000E+03 0. -1.
<mgrwt>
<rscale>  2 0.24542607E+03</rscale>
<asrwt>0</asrwt>
<pdfrwt beam="1">  1       21 0.14501411E+00 0.24542607E+03</pdfrwt>
<pdfrwt beam="2">  1       21 0.24951804E-01 0.24542607E+03</pdfrwt>
<totfact> 0.47686611E+03</totfact>
</mgrwt>
</event>
<event>
 4    2  0.4024741E+000  0.2867159E+03  0.7546771E-02  0.1092076E+00
         21   -1    0    0  503  502  0.00000000000E+00  0.00000000000E+00  0.39121675048E+03  0.39121675048E+03  0.00000000000E+00 0.  1.
         21   -1    0    0  501  503 -0.00000000000E+00 -0.00000000000E+00 -0.22592769965E+03  0.22592769965E+03  0.00000000000E+00 0. -1.
          6    1    1    2  501    0  0.86789634663E+02  0.21152917937E+03  0.10462439881E+01  0.28671785615E+03  0.17300000000E+03 0. -1.
         -6    1    1    2    0  502 -0.86789634663E+02 -0.21152917937E+03  0.16424280684E+03  0.33042659398E+03  0.17300000000E+03 0.  1.
<mgrwt>
<rscale>  2 0.28671595E+03</rscale>
<asrwt>0</asrwt>
<pdfrwt beam="1">  1       21 0.60187192E-01 0.28671595E+03</pdfrwt>
<pdfrwt beam="2">  1       21 0.34758108E-01 0.28671595E+03</pdfrwt>
<totfact> 0.19575686E+04</totfact>
</mgrwt>
</event>
<event>
 4    2  0.4024741E+000  0.1760209E+03  0.7546771E-02  0.1171710E+00
         21   -1    0    0  501  502  0.00000000000E+00  0.00000000000E+00  0.34205608786E+03  0.34205608786E+03  0.00000000000E+00 0.  1.
         21   -1    0    0  502  503 -0.00000000000E+00 -0.00000000000E+00 -0.13962377536E+03  0.13962377536E+03  0.00000000000E+00 0.  1.
          6    1    1    2  501    0 -0.22308489444E+02  0.23594618011E+02  0.24395481282E+03  0.30082773375E+03  0.17300000000E+03 0.  1.
         -6    1    1    2    0  503  0.22308489444E+02 -0.23594618011E+02 -0.41522500318E+02  0.18085212947E+03  0.17300000000E+03 0.  1.
<mgrwt>
<rscale>  2 0.17602095E+03</rscale>
<asrwt>0</asrwt>
<pdfrwt beam="1">  1       21 0.52624013E-01 0.17602095E+03</pdfrwt>
<pdfrwt beam="2">  1       21 0.21480581E-01 0.17602095E+03</pdfrwt>
<totfact> 0.69623392E+04</totfact>
</mgrwt>
</event>
<event>
 4    2  0.4024741E+000  0.1769295E+03  0.7546771E-02  0.1170808E+00
         21   -1    0    0  501  502  0.00000000000E+00  0.00000000000E+00  0.10535267746E+03  0.10535267746E+03  0.00000000000E+00 0. -1.
         21   -1    0    0  502  503 -0.00000000000E+00 -0.00000000000E+00 -0.11786186039E+04  0.11786186039E+04  0.00000000000E+00 0. -1.
          6    1    1    2  501    0  0.36824201436E+02 -0.43632361203E+01  0.18562070833E+02  0.17790056243E+03  0.17300000000E+03 0. -1.
         -6    1    1    2    0  503 -0.36824201436E+02  0.43632361203E+01 -0.10918279973E+04  0.11060707189E+04  0.17300000000E+03 0. -1.
<mgrwt>
<rscale>  2 0.17692953E+03</rscale>
<asrwt>0</asrwt>
<pdfrwt beam="1">  1       21 0.16208106E-01 0.17692953E+03</pdfrwt>
<pdfrwt beam="2">  1       21 0.18132592E+00 0.17692953E+03</pdfrwt>
<totfact> 0.61547530E+03</totfact>
</mgrwt>
</event>
<event>
 4    2  0.4024741E+000  0.1737335E+03  0.7546771E-02  0.1174009E+00
         21   -1    0    0  501  502  0.00000000000E+00  0.00000000000E+00  0.15440551626E+03  0.15440551626E+03  0.00000000000E+00 0. -1.
         21   -1    0    0  502  503 -0.00000000000E+00 -0.00000000000E+00 -0.20675381746E+03  0.20675381746E+03  0.00000000000E+00 0. -1.
          6    1    1    2  501    0  0.15938573097E+02  0.54548857761E+00  0.15991562144E+02  0.17446795044E+03  0.17300000000E+03 0.  1.
         -6    1    1    2    0  503 -0.15938573097E+02 -0.54548857761E+00 -0.68339863342E+02  0.18669138328E+03  0.17300000000E+03 0.  1.
<mgrwt>
<rscale>  2 0.17373352E+03</rscale>
<asrwt>0</asrwt>
<pdfrwt beam="1">  1       21 0.23754695E-01 0.17373352E+03</pdfrwt>
<pdfrwt beam="2">  1       21 0.31808279E-01 0.17373352E+03</pdfrwt>
<totfact> 0.15961208E+05</totfact>
</mgrwt>
</event>
<event>
 4    2  0.4024741E+000  0.1891675E+03  0.7546771E-02  0.1159214E+00
         21   -1    0    0  501  502  0.00000000000E+00  0.00000000000E+00  0.37999826437E+03  0.37999826437E+03  0.00000000000E+00 0.  1.
         21   -1    0    0  502  503 -0.00000000000E+00 -0.00000000000E+00 -0.94629208459E+02  0.94629208459E+02  0.00000000000E+00 0.  1.
          6    1    1    2  501    0  0.59216317946E+02 -0.48464072408E+02  0.12614827737E+03  0.22737134056E+03  0.17300000000E+03 0.  1.
         -6    1    1    2    0  503 -0.59216317946E+02  0.48464072408E+02  0.15922077854E+03  0.24725613227E+03  0.17300000000E+03 0.  1.
<mgrwt>
<rscale>  2 0.18916749E+03</rscale>
<asrwt>0</asrwt>
<pdfrwt beam="1">  1       21 0.58461271E-01 0.18916749E+03</pdfrwt>
<pdfrwt beam="2">  1       21 0.14558340E-01 0.18916749E+03</pdfrwt>
<totfact> 0.11361652E+05</totfact>
</mgrwt>
</event>
<event>
 4    2  0.4024741E+000  0.1889943E+03  0.7546771E-02  0.1159372E+00
         21   -1    0    0  503  502  0.00000000000E+00  0.00000000000E+00  0.69186019273E+02  0.69186019273E+02  0.00000000000E+00 0. -1.
         21   -1    0    0  501  503 -0.00000000000E+00 -0.00000000000E+00 -0.77430502371E+03  0.77430502371E+03  0.00000000000E+00 0. -1.
          6    1    1    2  501    0  0.55613072650E+02 -0.51933042600E+02 -0.59602166513E+03  0.62526848639E+03  0.17300000000E+03 0. -1.
         -6    1    1    2    0  502 -0.55613072650E+02  0.51933042600E+02 -0.10909733931E+03  0.21822255659E+03  0.17300000000E+03 0. -1.
<mgrwt>
<rscale>  2 0.18899432E+03</rscale>
<asrwt>0</asrwt>
<pdfrwt beam="1">  1       21 0.10644003E-01 0.18899432E+03</pdfrwt>
<pdfrwt beam="2">  1       21 0.11912385E+00 0.18899432E+03</pdfrwt>
<totfact> 0.39151832E+04</totfact>
</mgrwt>
</event>
<event>
 4    2  0.4024741E+000  0.2760839E+03  0.7546771E-02  0.1097847E+00
         21   -1    0    0  503  502  0.00000000000E+00  0.00000000000E+00  0.42039484624E+03  0.42039484624E+03  0.00000000000E+00 0. -1.
         21   -1    0    0  501  503 -0.00000000000E+00 -0.00000000000E+00 -0.18843080480E+03  0.18843080480E+03  0.00000000000E+00 0.  1.
          6    1    1    2  501    0 -0.21481920522E+03  0.12083587569E+02  0.17515374359E+03  0.32695739464E+03  0.17300000000E+03 0.  1.
         -6    1    1    2    0  502  0.21481920522E+03 -0.12083587569E+02  0.56810297857E+02  0.28186825639E+03  0.17300000000E+03 0.  1.
<mgrwt>
<rscale>  2 0.27608387E+03</rscale>
<asrwt>0</asrwt>
<pdfrwt beam="1">  1       21 0.64676130E-01 0.27608387E+03</pdfrwt>
<pdfrwt beam="2">  1       21 0.28989355E-01 0.27608387E+03</pdfrwt>
<totfact> 0.24072248E+04</totfact>
</mgrwt>
</event>
<event>
 4    2  0.4024741E+000  0.2044191E+03  0.7546771E-02  0.1146063E+00
         21   -1    0    0  503  502  0.00000000000E+00  0.00000000000E+00  0.79191646047E+03  0.79191646047E+03  0.00000000000E+00 0. -1.
         21   -1    0    0  501  503 -0.00000000000E+00 -0.00000000000E+00 -0.70581566757E+02  0.70581566757E+02  0.00000000000E+00 0. -1.
          6    1    1    2  501    0  0.83128687604E+02 -0.70340608243E+02  0.14401270872E+03  0.25005367453E+03  0.17300000000E+03 0. -1.
         -6    1    1    2    0  502 -0.83128687604E+02  0.70340608243E+02  0.57732218500E+03  0.61244435270E+03  0.17300000000E+03 0. -1.
<mgrwt>
<rscale>  2 0.20441913E+03</rscale>
<asrwt>0</asrwt>
<pdfrwt beam="1">  1       21 0.12183330E+00 0.20441913E+03</pdfrwt>
<pdfrwt beam="2">  1       21 0.10858703E-01 0.20441913E+03</pdfrwt>
<totfact> 0.35425078E+04</totfact>
</mgrwt>
</event>
<event>
 4    2  0.4024741E+000  0.1736953E+03  0.7546771E-02  0.1174048E+00
         21   -1    0    0  503  502  0.00000000000E+00  0.00000000000E+00  0.37152869882E+03  0.37152869882E+03  0.00000000000E+00 0. -1.
         21   -1    0    0  501  503 -0.00000000000E+00 -0.00000000000E+00 -0.85209776091E+02  0.85209776091E+02  0.00000000000E+00 0. -1.
          6    1    1    2  501    0 -0.31324500232E+00  0.15522749061E+02  0.93651801846E+02  0.19733401595E+03  0.17300000000E+03 0. -1.
         -6    1    1    2    0  502  0.31324500232E+00 -0.15522749061E+02  0.19266712088E+03  0.25940445896E+03  0.17300000000E+03 0. -1.
<mgrwt>
<rscale>  2 0.17369529E+03</rscale>
<asrwt>0</asrwt>
<pdfrwt beam="1">  1       21 0.57158261E-01 0.17369529E+03</pdfrwt>
<pdfrwt beam="2">  1       21 0.13109196E-01 0.17369529E+03</pdfrwt>
<totfact> 0.14485353E+05</totfact>
</mgrwt>
</event>
<event>
 4    2  0.4024741E+000  0.2116513E+03  0.7546771E-02  0.1140265E+00
         21   -1    0    0  501  502  0.00000000000E+00  0.00000000000E+00  0.73303139707E+02  0.73303139707E+02  0.00000000000E+00 0. -1.
         21   -1    0    0  502  503 -0.00000000000E+00 -0.00000000000E+00 -0.61140978782E+03  0.61140978782E+03  0.00000000000E+00 0.  1.
          6    1    1    2  501    0 -0.71499761130E+02 -0.98767750835E+02 -0.27663372628E+03  0.34831379955E+03  0.17300000000E+03 0. -1.
         -6    1    1    2    0  503  0.71499761130E+02  0.98767750835E+02 -0.26147292184E+03  0.33639912797E+03  0.17300000000E+03 0. -1.
<mgrwt>
<rscale>  2 0.21165133E+03</rscale>
<asrwt>0</asrwt>
<pdfrwt beam="1">  1       21 0.11277406E-01 0.21165133E+03</pdfrwt>
<pdfrwt beam="2">  1       21 0.94063043E-01 0.21165133E+03</pdfrwt>
<totfact> 0.61595009E+04</totfact>
</mgrwt>
</event>
<event>
 4    2  0.4024741E+000  0.2549286E+03  0.7546771E-02  0.1110229E+00
         21   -1    0    0  503  502  0.00000000000E+00  0.00000000000E+00  0.59245153431E+03  0.59245153431E+03  0.00000000000E+00 0. -1.
         21   -1    0    0  501  503 -0.00000000000E+00 -0.00000000000E+00 -0.10058681336E+04  0.10058681336E+04  0.00000000000E+00 0. -1.
          6    1    1    2  501    0  0.18008822329E+03  0.51262446257E+02 -0.96103456896E+03  0.99427161747E+03  0.17300000000E+03 0. -1.
         -6    1    1    2    0  502 -0.18008822329E+03 -0.51262446257E+02  0.54761796965E+03  0.60404805045E+03  0.17300000000E+03 0. -1.
<mgrwt>
<rscale>  2 0.25492863E+03</rscale>
<asrwt>0</asrwt>
<pdfrwt beam="1">  1       21 0.91146391E-01 0.25492863E+03</pdfrwt>
<pdfrwt beam="2">  1       21 0.15474894E+00 0.25492863E+03</pdfrwt>
<totfact> 0.26248548E+02</totfact>
</mgrwt>
</event>
<event>
 4    2  0.4024741E+000  0.2162931E+03  0.7546771E-02  0.1136677E+00
         21   -1    0    0  501  502  0.00000000000E+00  0.00000000000E+00  0.10945082336E+03  0.10945082336E+03  0.00000000000E+00 0.  1.
         21   -1    0    0  502  503 -0.00000000000E+00 -0.00000000000E+00 -0.45710287290E+03  0.45710287290E+03  0.00000000000E+00 0. -1.
          6    1    1    2  501    0 -0.86985811319E+02  0.96369893151E+02 -0.24599918640E+03  0.32756417293E+03  0.17300000000E+03 0. -1.
         -6    1    1    2    0  503  0.86985811319E+02 -0.96369893151E+02 -0.10165286314E+03  0.23898952333E+03  0.17300000000E+03 0.  1.
<mgrwt>
<rscale>  2 0.21629306E+03</rscale>
<asrwt>0</asrwt>
<pdfrwt beam="1">  1       21 0.16838589E-01 0.21629306E+03</pdfrwt>
<pdfrwt beam="2">  1       21 0.70323517E-01 0.21629306E+03</pdfrwt>
<totfact> 0.57592174E+04</totfact>
</mgrwt>
</event>
<event>
 4    2  0.4024741E+000  0.2764632E+03  0.7546771E-02  0.1097636E+00
         21   -1    0    0  501  502  0.00000000000E+00  0.00000000000E+00  0.73617267745E+03  0.73617267745E+03  0.00000000000E+00 0. -1.
         21   -1    0    0  502  503 -0.00000000000E+00 -0.00000000000E+00 -0.10635994721E+03  0.10635994721E+03  0.00000000000E+00 0. -1.
          6    1    1    2  501    0  0.12305009641E+03  0.17709202328E+03  0.24984940990E+03  0.37263472538E+03  0.17300000000E+03 0. -1.
         -6    1    1    2    0  503 -0.12305009641E+03 -0.17709202328E+03  0.37996332035E+03  0.46989789927E+03  0.17300000000E+03 0. -1.
<mgrwt>
<rscale>  2 0.27646322E+03</rscale>
<asrwt>0</asrwt>
<pdfrwt beam="1">  1       21 0.11325733E+00 0.27646322E+03</pdfrwt>
<pdfrwt beam="2">  1       21 0.16363069E-01 0.27646322E+03</pdfrwt>
<totfact> 0.19450426E+04</totfact>
</mgrwt>
</event>
<event>
 4    2  0.4024741E+000  0.2714135E+03  0.7546771E-02  0.1100473E+00
         21   -1    0    0  501  502  0.00000000000E+00  0.00000000000E+00  0.15882924933E+03  0.15882924933E+03  0.00000000000E+00 0. -1.
         21   -1    0    0  502  503 -0.00000000000E+00 -0.00000000000E+00 -0.84765282339E+03  0.84765282339E+03  0.00000000000E+00 0.  1.
          6    1    1    2  501    0  0.20913220674E+03 -0.16056454132E+00 -0.57639209544E+01  0.27147472896E+03  0.17300000000E+03 0. -1.
         -6    1    1    2    0  503 -0.20913220674E+03  0.16056454132E+00 -0.68305965311E+03  0.73500734376E+03  0.17300000000E+03 0.  1.
<mgrwt>
<rscale>  2 0.27141353E+03</rscale>
<asrwt>0</asrwt>
<pdfrwt beam="1">  1       21 0.24435269E-01 0.27141353E+03</pdfrwt>
<pdfrwt beam="2">  1       21 0.13040813E+00 0.27141353E+03</pdfrwt>
<totfact> 0.64322105E+03</totfact>
</mgrwt>
</event>
<event>
 4    2  0.4024741E+000  0.2500629E+03  0.7546771E-02  0.1113265E+00
         21   -1    0    0  501  502  0.00000000000E+00  0.00000000000E+00  0.29772390554E+03  0.29772390554E+03  0.00000000000E+00 0. -1.
         21   -1    0    0  502  503 -0.00000000000E+00 -0.00000000000E+00 -0.31815799338E+03  0.31815799338E+03  0.00000000000E+00 0.  1.
          6    1    1    2  501    0 -0.20716509667E+02  0.17936914277E+03  0.16930246356E+03  0.30198474683E+03  0.17300000000E+03 0. -1.
         -6    1    1    2    0  503  0.20716509667E+02 -0.17936914277E+03 -0.18973655140E+03  0.31389715209E+03  0.17300000000E+03 0. -1.
<mgrwt>
<rscale>  2 0.25006292E+03</rscale>
<asrwt>0</asrwt>
<pdfrwt beam="1">  1       21 0.45803678E-01 0.25006292E+03</pdfrwt>
<pdfrwt beam="2">  1       21 0.48947383E-01 0.25006292E+03</pdfrwt>
<totfact> 0.17624841E+04</totfact>
</mgrwt>
</event>
<event>
 4    2  0.4024741E+000  0.2470668E+03  0.7546771E-02  0.1115173E+00
         21   -1    0    0  501  502  0.00000000000E+00  0.00000000000E+00  0.45468938569E+03  0.45468938569E+03  0.00000000000E+00 0. -1.
         21   -1    0    0  502  503 -0.00000000000E+00 -0.00000000000E+00 -0.23693610413E+03  0.23693610413E+03  0.00000000000E+00 0. -1.
          6    1    1    2  501    0 -0.17000671167E+03 -0.47018139162E+02  0.33653390014E+03  0.41748898592E+03  0.17300000000E+03 0. -1.
         -6    1    1    2    0  503  0.17000671167E+03  0.47018139162E+02 -0.11878061858E+03  0.27413650390E+03  0.17300000000E+03 0. -1.
<mgrwt>
<rscale>  2 0.24706677E+03</rscale>
<asrwt>0</asrwt>
<pdfrwt beam="1">  1       21 0.69952213E-01 0.24706677E+03</pdfrwt>
<pdfrwt beam="2">  1       21 0.36451708E-01 0.24706677E+03</pdfrwt>
<totfact> 0.13036626E+04</totfact>
</mgrwt>
</event>
<event>
 4    2  0.4024741E+000  0.2431371E+03  0.7546771E-02  0.1117720E+00
         21   -1    0    0  501  502  0.00000000000E+00  0.00000000000E+00  0.41722829993E+03  0.41722829993E+03  0.00000000000E+00 0. -1.
         21   -1    0    0  502  503 -0.00000000000E+00 -0.00000000000E+00 -0.24589213295E+03  0.24589213295E+03  0.00000000000E+00 0.  1.
          6    1    1    2  501    0  0.15836812880E+03 -0.64079610650E+02  0.30150984642E+03  0.38732912130E+03  0.17300000000E+03 0. -1.
         -6    1    1    2    0  503 -0.15836812880E+03  0.64079610650E+02 -0.13017367944E+03  0.27579131157E+03  0.17300000000E+03 0.  1.
<mgrwt>
<rscale>  2 0.24313712E+03</rscale>
<asrwt>0</asrwt>
<pdfrwt beam="1">  1       21 0.64188969E-01 0.24313712E+03</pdfrwt>
<pdfrwt beam="2">  1       21 0.37829559E-01 0.24313712E+03</pdfrwt>
<totfact> 0.14651097E+04</totfact>
</mgrwt>
</event>
<event>
 4    2  0.4024741E+000  0.2419826E+03  0.7546771E-02  0.1118479E+00
         21   -1    0    0  503  502  0.00000000000E+00  0.00000000000E+00  0.92592996016E+03  0.92592996016E+03  0.00000000000E+00 0.  1.
         21   -1    0    0  501  503 -0.00000000000E+00 -0.00000000000E+00 -0.78966757795E+02  0.78966757795E+02  0.00000000000E+00 0.  1.
          6    1    1    2  501    0 -0.14368113302E+03  0.89343666116E+02  0.19925215937E+03  0.31345969705E+03  0.17300000000E+03 0.  1.
         -6    1    1    2    0  502  0.14368113302E+03 -0.89343666116E+02  0.64771104299E+03  0.69143702091E+03  0.17300000000E+03 0.  1.
<mgrwt>
<rscale>  2 0.24198256E+03</rscale>
<asrwt>0</asrwt>
<pdfrwt beam="1">  1       21 0.14245076E+00 0.24198256E+03</pdfrwt>
<pdfrwt beam="2">  1       21 0.12148733E-01 0.24198256E+03</pdfrwt>
<totfact> 0.19047411E+04</totfact>
</mgrwt>
</event>
<event>
 4    2  0.4024741E+000  0.1839561E+03  0.7546771E-02  0.1164028E+00
         21   -1    0    0  501  502  0.00000000000E+00  0.00000000000E+00  0.44889878476E+03  0.44889878476E+03  0.00000000000E+00 0.  1.
         21   -1    0    0  502  503 -0.00000000000E+00 -0.00000000000E+00 -0.88145225897E+02  0.88145225897E+02  0.00000000000E+00 0. -1.
          6    1    1    2  501    0  0.57288186947E+02  0.25077789033E+02  0.78206414743E+02  0.19989015777E+03  0.17300000000E+03 0. -1.
         -6    1    1    2    0  503 -0.57288186947E+02 -0.25077789033E+02  0.28254714412E+03  0.33715385289E+03  0.17300000000E+03 0.  1.
<mgrwt>
<rscale>  2 0.18395606E+03</rscale>
<asrwt>0</asrwt>
<pdfrwt beam="1">  1       21 0.69061350E-01 0.18395606E+03</pdfrwt>
<pdfrwt beam="2">  1       21 0.13560804E-01 0.18395606E+03</pdfrwt>
<totfact> 0.90223456E+04</totfact>
</mgrwt>
</event>
<event>
 4    2  0.4024741E+000  0.1754164E+03  0.7546771E-02  0.1172314E+00
         21   -1    0    0  501  502  0.00000000000E+00  0.00000000000E+00  0.20596469456E+03  0.20596469456E+03  0.00000000000E+00 0. -1.
         21   -1    0    0  502  503 -0.00000000000E+00 -0.00000000000E+00 -0.28305794272E+03  0.28305794272E+03  0.00000000000E+00 0. -1.
          6    1    1    2  501    0 -0.16841096749E+01 -0.28966593337E+02  0.12947317480E+03  0.21802339954E+03  0.17300000000E+03 0. -1.
         -6    1    1    2    0  503  0.16841096749E+01  0.28966593337E+02 -0.20656642297E+03  0.27099923773E+03  0.17300000000E+03 0. -1.
<mgrwt>
<rscale>  2 0.17541636E+03</rscale>
<asrwt>0</asrwt>
<pdfrwt beam="1">  1       21 0.31686876E-01 0.17541636E+03</pdfrwt>
<pdfrwt beam="2">  1       21 0.43547376E-01 0.17541636E+03</pdfrwt>
<totfact> 0.48930594E+04</totfact>
</mgrwt>
</event>
<event>
 4    2  0.4024741E+000  0.2542838E+03  0.7546771E-02  0.1110627E+00
         21   -1    0    0  503  502  0.00000000000E+00  0.00000000000E+00  0.14250452846E+03  0.14250452846E+03  0.00000000000E+00 0. -1.
         21   -1    0    0  501  503 -0.00000000000E+00 -0.00000000000E+00 -0.57952434638E+03  0.57952434638E+03  0.00000000000E+00 0.  1.
          6    1    1    2  501    0 -0.18593813015E+03 -0.12581034179E+02 -0.38669937993E+03  0.46281387307E+03  0.17300000000E+03 0.  1.
         -6    1    1    2    0  502  0.18593813015E+03  0.12581034179E+02 -0.50320437993E+02  0.25921500178E+03  0.17300000000E+03 0. -1.
<mgrwt>
<rscale>  2 0.25428384E+03</rscale>
<asrwt>0</asrwt>
<pdfrwt beam="1">  1       21 0.21923774E-01 0.25428384E+03</pdfrwt>
<pdfrwt beam="2">  1       21 0.89157592E-01 0.25428384E+03</pdfrwt>
<totfact> 0.20164625E+04</totfact>
</mgrwt>
</event>
<event>
 4    2  0.4024741E+000  0.1914702E+03  0.7546771E-02  0.1157142E+00
         21   -1    0    0  501  502  0.00000000000E+00  0.00000000000E+00  0.14522812955E+03  0.14522812955E+03  0.00000000000E+00 0.  1.
         21   -1    0    0  502  503 -0.00000000000E+00 -0.00000000000E+00 -0.83869760911E+03  0.83869760911E+03  0.00000000000E+00 0.  1.
          6    1    1    2  501    0 -0.81641773822E+02 -0.81530818787E+01  0.64580915114E+02  0.20206817309E+03  0.17300000000E+03 0.  1.
         -6    1    1    2    0  503  0.81641773822E+02  0.81530818787E+01 -0.75805039468E+03  0.78185756558E+03  0.17300000000E+03 0.  1.
<mgrwt>
<rscale>  2 0.19147024E+03</rscale>
<asrwt>0</asrwt>
<pdfrwt beam="1">  1       21 0.22342789E-01 0.19147024E+03</pdfrwt>
<pdfrwt beam="2">  1       21 0.12903040E+00 0.19147024E+03</pdfrwt>
<totfact> 0.82660868E+03</totfact>
</mgrwt>
</event>
<event>
 4    2  0.4024741E+000  0.2523591E+03  0.7546771E-02  0.1111823E+00
         21   -1    0    0  503  502  0.00000000000E+00  0.00000000000E+00  0.10924051809E+03  0.10924051809E+03  0.00000000000E+00 0. -1.
         21   -1    0    0  501  503 -0.00000000000E+00 -0.00000000000E+00 -0.17940496712E+04  0.17940496712E+04  0.00000000000E+00 0.  1.
          6    1    1    2  501    0  0.17758189635E+03 -0.47125120651E+02 -0.16242884064E+04  0.16437755121E+04  0.17300000000E+03 0.  1.
         -6    1    1    2    0  502 -0.17758189635E+03  0.47125120651E+02 -0.60520746689E+02  0.25951467721E+03  0.17300000000E+03 0. -1.
<mgrwt>
<rscale>  2 0.25235908E+03</rscale>
<asrwt>0</asrwt>
<pdfrwt beam="1">  1       21 0.16806234E-01 0.25235908E+03</pdfrwt>
<pdfrwt beam="2">  1       21 0.27600764E+00 0.25235908E+03</pdfrwt>
<totfact> 0.14001269E+03</totfact>
</mgrwt>
</event>
<event>
 4    2  0.4024741E+000  0.2237596E+03  0.7546771E-02  0.1131111E+00
         21   -1    0    0  503  502  0.00000000000E+00  0.00000000000E+00  0.56016830842E+02  0.56016830842E+02  0.00000000000E+00 0. -1.
         21   -1    0    0  501  503 -0.00000000000E+00 -0.00000000000E+00 -0.92132719351E+03  0.92132719351E+03  0.00000000000E+00 0.  1.
          6    1    1    2  501    0 -0.83960500627E+02  0.11441150178E+03 -0.34820140097E+03  0.41389923054E+03  0.17300000000E+03 0.  1.
         -6    1    1    2    0  502  0.83960500627E+02 -0.11441150178E+03 -0.51710896170E+03  0.56344479381E+03  0.17300000000E+03 0. -1.
<mgrwt>
<rscale>  2 0.22375960E+03</rscale>
<asrwt>0</asrwt>
<pdfrwt beam="1">  1       21 0.86179744E-02 0.22375960E+03</pdfrwt>
<pdfrwt beam="2">  1       21 0.14174264E+00 0.22375960E+03</pdfrwt>
<totfact> 0.35878342E+04</totfact>
</mgrwt>
</event>
<event>
 4    2  0.4024741E+000  0.1867023E+03  0.7546771E-02  0.1161470E+00
         21   -1    0    0  501  502  0.00000000000E+00  0.00000000000E+00  0.13686438799E+03  0.13686438799E+03  0.00000000000E+00 0.  1.
         21   -1    0    0  502  503 -0.00000000000E+00 -0.00000000000E+00 -0.29796866281E+03  0.29796866281E+03  0.00000000000E+00 0. -1.
          6    1    1    2  501    0  0.57595403999E+02 -0.40143796966E+02  0.23093686445E+01  0.18671659857E+03  0.17300000000E+03 0.  1.
         -6    1    1    2    0  503 -0.57595403999E+02  0.40143796966E+02 -0.16341364346E+03  0.24811645223E+03  0.17300000000E+03 0. -1.
<mgrwt>
<rscale>  2 0.18670232E+03</rscale>
<asrwt>0</asrwt>
<pdfrwt beam="1">  1       21 0.21056060E-01 0.18670232E+03</pdfrwt>
<pdfrwt beam="2">  1       21 0.45841332E-01 0.18670232E+03</pdfrwt>
<totfact> 0.95840818E+04</totfact>
</mgrwt>
</event>
<event>
 4    2  0.4024741E+000  0.1833054E+03  0.7546771E-02  0.1164642E+00
         21   -1    0    0  503  502  0.00000000000E+00  0.00000000000E+00  0.83944209936E+03  0.83944209936E+03  0.00000000000E+00 0.  1.
         21   -1    0    0  501  503 -0.00000000000E+00 -0.00000000000E+00 -0.80692253602E+02  0.80692253602E+02  0.00000000000E+00 0.  1.
          6    1    1    2  501    0 -0.59349495080E+02 -0.12227403965E+02  0.52776756306E+02  0.19075182301E+03  0.17300000000E+03 0.  1.
         -6    1    1    2    0  502  0.59349495080E+02  0.12227403965E+02  0.70597308945E+03  0.72938252996E+03  0.17300000000E+03 0.  1.
<mgrwt>
<rscale>  2 0.18330541E+03</rscale>
<asrwt>0</asrwt>
<pdfrwt beam="1">  1       21 0.12914493E+00 0.18330541E+03</pdfrwt>
<pdfrwt beam="2">  1       21 0.12414193E-01 0.18330541E+03</pdfrwt>
<totfact> 0.24410960E+04</totfact>
</mgrwt>
</event>
<event>
 4    2  0.4024741E+000  0.2346093E+03  0.7546771E-02  0.1123437E+00
         21   -1    0    0  501  502  0.00000000000E+00  0.00000000000E+00  0.12660888951E+03  0.12660888951E+03  0.00000000000E+00 0. -1.
         21   -1    0    0  502  503 -0.00000000000E+00 -0.00000000000E+00 -0.52353231748E+03  0.52353231748E+03  0.00000000000E+00 0.  1.
          6    1    1    2  501    0 -0.14287056229E+03  0.68560321355E+02 -0.64585933283E+02  0.24333692283E+03  0.17300000000E+03 0.  1.
         -6    1    1    2    0  503  0.14287056229E+03 -0.68560321355E+02 -0.33233749469E+03  0.40680428416E+03  0.17300000000E+03 0.  1.
<mgrwt>
<rscale>  2 0.23460928E+03</rscale>
<asrwt>0</asrwt>
<pdfrwt beam="1">  1       21 0.19478291E-01 0.23460928E+03</pdfrwt>
<pdfrwt beam="2">  1       21 0.80543432E-01 0.23460928E+03</pdfrwt>
<totfact> 0.32136848E+04</totfact>
</mgrwt>
</event>
<event>
 4    2  0.4024741E+000  0.2444628E+03  0.7546771E-02  0.1116855E+00
         21   -1    0    0  503  502  0.00000000000E+00  0.00000000000E+00  0.87375259918E+02  0.87375259918E+02  0.00000000000E+00 0. -1.
         21   -1    0    0  501  503 -0.00000000000E+00 -0.00000000000E+00 -0.96661279308E+03  0.96661279308E+03  0.00000000000E+00 0.  1.
          6    1    1    2  501    0 -0.15724542549E+03  0.71462771703E+02 -0.72458829567E+03  0.76471579675E+03  0.17300000000E+03 0.  1.
         -6    1    1    2    0  502  0.15724542549E+03 -0.71462771703E+02 -0.15464923749E+03  0.28927225625E+03  0.17300000000E+03 0. -1.
<mgrwt>
<rscale>  2 0.24446278E+03</rscale>
<asrwt>0</asrwt>
<pdfrwt beam="1">  1       21 0.13442349E-01 0.24446278E+03</pdfrwt>
<pdfrwt beam="2">  1       21 0.14870965E+00 0.24446278E+03</pdfrwt>
<totfact> 0.14145286E+04</totfact>
</mgrwt>
</event>
<event>
 4    2  0.4024741E+000  0.2192423E+03  0.7546771E-02  0.1134449E+00
         21   -1    0    0  503  502  0.00000000000E+00  0.00000000000E+00  0.12434263486E+03  0.12434263486E+03  0.00000000000E+00 0.  1.
         21   -1    0    0  501  503 -0.00000000000E+00 -0.00000000000E+00 -0.61020220680E+03  0.61020220680E+03  0.00000000000E+00 0.  1.
          6    1    1    2  501    0  0.13467378484E+03 -0.10808254720E+01 -0.46527004351E+03  0.51433783635E+03  0.17300000000E+03 0.  1.
         -6    1    1    2    0  502 -0.13467378484E+03  0.10808254720E+01 -0.20589528420E+02  0.22020700531E+03  0.17300000000E+03 0.  1.
<mgrwt>
<rscale>  2 0.21924232E+03</rscale>
<asrwt>0</asrwt>
<pdfrwt beam="1">  1       21 0.19129636E-01 0.21924232E+03</pdfrwt>
<pdfrwt beam="2">  1       21 0.93877262E-01 0.21924232E+03</pdfrwt>
<totfact> 0.23521040E+04</totfact>
</mgrwt>
</event>
<event>
 4    2  0.4024741E+000  0.2032190E+03  0.7546771E-02  0.1147051E+00
         21   -1    0    0  503  502  0.00000000000E+00  0.00000000000E+00  0.44656699765E+03  0.44656699765E+03  0.00000000000E+00 0.  1.
         21   -1    0    0  501  503 -0.00000000000E+00 -0.00000000000E+00 -0.97859651414E+02  0.97859651414E+02  0.00000000000E+00 0.  1.
          6    1    1    2  501    0  0.10184740652E+03  0.31560588079E+02  0.23818507966E+03  0.31309758400E+03  0.17300000000E+03 0.  1.
         -6    1    1    2    0  502 -0.10184740652E+03 -0.31560588079E+02  0.11052226658E+03  0.23132906507E+03  0.17300000000E+03 0.  1.
<mgrwt>
<rscale>  2 0.20321901E+03</rscale>
<asrwt>0</asrwt>
<pdfrwt beam="1">  1       21 0.68702614E-01 0.20321901E+03</pdfrwt>
<pdfrwt beam="2">  1       21 0.15055331E-01 0.20321901E+03</pdfrwt>
<totfact> 0.74881855E+04</totfact>
</mgrwt>
</event>
<event>
 4    2  0.4024741E+000  0.1890143E+03  0.7546771E-02  0.1159353E+00
         21   -1    0    0  501  502  0.00000000000E+00  0.00000000000E+00  0.14401889131E+03  0.14401889131E+03  0.00000000000E+00 0. -1.
         21   -1    0    0  502  503 -0.00000000000E+00 -0.00000000000E+00 -0.27045955548E+03  0.27045955548E+03  0.00000000000E+00 0. -1.
          6    1    1    2  501    0  0.44797661075E+02  0.61567766510E+02 -0.12285060950E+03  0.22543001700E+03  0.17300000000E+03 0.  1.
         -6    1    1    2    0  503 -0.44797661075E+02 -0.61567766510E+02 -0.35900546674E+01  0.18904842978E+03  0.17300000000E+03 0.  1.
<mgrwt>
<rscale>  2 0.18901434E+03</rscale>
<asrwt>0</asrwt>
<pdfrwt beam="1">  1       21 0.22156752E-01 0.18901434E+03</pdfrwt>
<pdfrwt beam="2">  1       21 0.41609163E-01 0.18901434E+03</pdfrwt>
<totfact> 0.10605932E+05</totfact>
</mgrwt>
</event>
<event>
 4    2  0.4024741E+000  0.1736078E+03  0.7546771E-02  0.1174137E+00
         21   -1    0    0  501  502  0.00000000000E+00  0.00000000000E+00  0.19737838427E+03  0.19737838427E+03  0.00000000000E+00 0.  1.
         21   -1    0    0  502  503 -0.00000000000E+00 -0.00000000000E+00 -0.18042990646E+03  0.18042990646E+03  0.00000000000E+00 0.  1.
          6    1    1    2  501    0 -0.14059302913E+02 -0.36059828110E+01  0.82530522073E+02  0.19222630981E+03  0.17300000000E+03 0. -1.
         -6    1    1    2    0  503  0.14059302913E+02  0.36059828110E+01 -0.65582044266E+02  0.18558198092E+03  0.17300000000E+03 0. -1.
<mgrwt>
<rscale>  2 0.17360780E+03</rscale>
<asrwt>0</asrwt>
<pdfrwt beam="1">  1       21 0.30365905E-01 0.17360780E+03</pdfrwt>
<pdfrwt beam="2">  1       21 0.27758447E-01 0.17360780E+03</pdfrwt>
<totfact> 0.12978618E+05</totfact>
</mgrwt>
</event>
<event>
 4    2  0.4024741E+000  0.2280478E+03  0.7546771E-02  0.1128021E+00
         21   -1    0    0  503  502  0.00000000000E+00  0.00000000000E+00  0.11377253705E+03  0.11377253705E+03  0.00000000000E+00 0. -1.
         21   -1    0    0  501  503 -0.00000000000E+00 -0.00000000000E+00 -0.48754748815E+03  0.48754748815E+03  0.00000000000E+00 0.  1.
          6    1    1    2  501    0 -0.71864544502E+02 -0.13004716258E+03 -0.26201878678E+03  0.34736093890E+03  0.17300000000E+03 0. -1.
         -6    1    1    2    0  502  0.71864544502E+02  0.13004716258E+03 -0.11175616432E+03  0.25395908630E+03  0.17300000000E+03 0.  1.
<mgrwt>
<rscale>  2 0.22804775E+03</rscale>
<asrwt>0</asrwt>
<pdfrwt beam="1">  1       21 0.17503467E-01 0.22804775E+03</pdfrwt>
<pdfrwt beam="2">  1       21 0.75007306E-01 0.22804775E+03</pdfrwt>
<totfact> 0.46196511E+04</totfact>
</mgrwt>
</event>
<event>
 4    2  0.4024741E+000  0.3972241E+03  0.7546771E-02  0.1044745E+00
         21   -1    0    0  503  502  0.00000000000E+00  0.00000000000E+00  0.31058271774E+03  0.31058271774E+03  0.00000000000E+00 0.  1.
         21   -1    0    0  501  503 -0.00000000000E+00 -0.00000000000E+00 -0.77545185666E+03  0.77545185666E+03  0.00000000000E+00 0. -1.
          6    1    1    2  501    0  0.29092712161E+03 -0.20789283267E+03 -0.55131677734E+03  0.67951247887E+03  0.17300000000E+03 0. -1.
         -6    1    1    2    0  502 -0.29092712161E+03  0.20789283267E+03  0.86447638412E+02  0.40652209553E+03  0.17300000000E+03 0.  1.
<mgrwt>
<rscale>  2 0.39722414E+03</rscale>
<asrwt>0</asrwt>
<pdfrwt beam="1">  1       21 0.47781957E-01 0.39722414E+03</pdfrwt>
<pdfrwt beam="2">  1       21 0.11930028E+00 0.39722414E+03</pdfrwt>
<totfact> 0.19718081E+03</totfact>
</mgrwt>
</event>
<event>
 4    2  0.4024741E+000  0.2117186E+03  0.7546771E-02  0.1140212E+00
         21   -1    0    0  503  502  0.00000000000E+00  0.00000000000E+00  0.74898589940E+02  0.74898589940E+02  0.00000000000E+00 0. -1.
         21   -1    0    0  501  503 -0.00000000000E+00 -0.00000000000E+00 -0.59979944049E+03  0.59979944049E+03  0.00000000000E+00 0. -1.
          6    1    1    2  501    0  0.12202871265E+03 -0.21783471227E+01 -0.24658360013E+03  0.32500495959E+03  0.17300000000E+03 0. -1.
         -6    1    1    2    0  502 -0.12202871265E+03  0.21783471227E+01 -0.27831725042E+03  0.34969307084E+03  0.17300000000E+03 0. -1.
<mgrwt>
<rscale>  2 0.21171857E+03</rscale>
<asrwt>0</asrwt>
<pdfrwt beam="1">  1       21 0.11522860E-01 0.21171857E+03</pdfrwt>
<pdfrwt beam="2">  1       21 0.92276838E-01 0.21171857E+03</pdfrwt>
<totfact> 0.61985790E+04</totfact>
</mgrwt>
</event>
<event>
 4    2  0.4024741E+000  0.1801605E+03  0.7546771E-02  0.1167648E+00
         21   -1    0    0  503  502  0.00000000000E+00  0.00000000000E+00  0.31545465472E+03  0.31545465472E+03  0.00000000000E+00 0.  1.
         21   -1    0    0  501  503 -0.00000000000E+00 -0.00000000000E+00 -0.15040237680E+03  0.15040237680E+03  0.00000000000E+00 0.  1.
          6    1    1    2  501    0 -0.19398298150E+02  0.46395077146E+02 -0.48388741500E+02  0.18654561763E+03  0.17300000000E+03 0.  1.
         -6    1    1    2    0  502  0.19398298150E+02 -0.46395077146E+02  0.21344101942E+03  0.27931141388E+03  0.17300000000E+03 0.  1.
<mgrwt>
<rscale>  2 0.18016048E+03</rscale>
<asrwt>0</asrwt>
<pdfrwt beam="1">  1       21 0.48531485E-01 0.18016048E+03</pdfrwt>
<pdfrwt beam="2">  1       21 0.23138827E-01 0.18016048E+03</pdfrwt>
<totfact> 0.71517909E+04</totfact>
</mgrwt>
</event>
<event>
 4    2  0.4024741E+000  0.1978891E+03  0.7546771E-02  0.1151532E+00
         21   -1    0    0  503  502  0.00000000000E+00  0.00000000000E+00  0.28712689607E+03  0.28712689607E+03  0.00000000000E+00 0.  1.
         21   -1    0    0  501  503 -0.00000000000E+00 -0.00000000000E+00 -0.21234502482E+03  0.21234502482E+03  0.00000000000E+00 0.  1.
          6    1    1    2  501    0 -0.41115323210E+02  0.86836739661E+02 -0.11197436756E+03  0.22737270757E+03  0.17300000000E+03 0.  1.
         -6    1    1    2    0  502  0.41115323210E+02 -0.86836739661E+02  0.18675623880E+03  0.27209921332E+03  0.17300000000E+03 0.  1.
<mgrwt>
<rscale>  2 0.19788908E+03</rscale>
<asrwt>0</asrwt>
<pdfrwt beam="1">  1       21 0.44173369E-01 0.19788908E+03</pdfrwt>
<pdfrwt beam="2">  1       21 0.32668465E-01 0.19788908E+03</pdfrwt>
<totfact> 0.44273999E+04</totfact>
</mgrwt>
</event>
<event>
 4    2  0.4024741E+000  0.1897979E+03  0.7546771E-02  0.1158644E+00
         21   -1    0    0  501  502  0.00000000000E+00  0.00000000000E+00  0.15472597088E+03  0.15472597088E+03  0.00000000000E+00 0. -1.
         21   -1    0    0  502  503 -0.00000000000E+00 -0.00000000000E+00 -0.29952947756E+03  0.29952947756E+03  0.00000000000E+00 0.  1.
          6    1    1    2  501    0 -0.23291804344E+02 -0.74510028644E+02  0.34785994250E+02  0.19295936856E+03  0.17300000000E+03 0. -1.
         -6    1    1    2    0  503  0.23291804344E+02  0.74510028644E+02 -0.17958950093E+03  0.26129607988E+03  0.17300000000E+03 0.  1.
<mgrwt>
<rscale>  2 0.18979793E+03</rscale>
<asrwt>0</asrwt>
<pdfrwt beam="1">  1       21 0.23803996E-01 0.18979793E+03</pdfrwt>
<pdfrwt beam="2">  1       21 0.46081457E-01 0.18979793E+03</pdfrwt>
<totfact> 0.75132173E+04</totfact>
</mgrwt>
</event>
<event>
 4    2  0.4024741E+000  0.1779130E+03  0.7546771E-02  0.1169838E+00
         21   -1    0    0  501  502  0.00000000000E+00  0.00000000000E+00  0.54548386782E+03  0.54548386782E+03  0.00000000000E+00 0.  1.
         21   -1    0    0  502  503 -0.00000000000E+00 -0.00000000000E+00 -0.10044358246E+03  0.10044358246E+03  0.00000000000E+00 0.  1.
          6    1    1    2  501    0 -0.39275670192E+02  0.13470968569E+02  0.43239388787E+03  0.46756552432E+03  0.17300000000E+03 0.  1.
         -6    1    1    2    0  503  0.39275670192E+02 -0.13470968569E+02  0.12646397488E+02  0.17836192596E+03  0.17300000000E+03 0.  1.
<mgrwt>
<rscale>  2 0.17791303E+03</rscale>
<asrwt>0</asrwt>
<pdfrwt beam="1">  1       21 0.83920593E-01 0.17791303E+03</pdfrwt>
<pdfrwt beam="2">  1       21 0.15452859E-01 0.17791303E+03</pdfrwt>
<totfact> 0.46182204E+04</totfact>
</mgrwt>
</event>
<event>
 4    2  0.4024741E+000  0.2431250E+03  0.7546771E-02  0.1117728E+00
         21   -1    0    0  503  502  0.00000000000E+00  0.00000000000E+00  0.62711336018E+03  0.62711336018E+03  0.00000000000E+00 0.  1.
         21   -1    0    0  501  503 -0.00000000000E+00 -0.00000000000E+00 -0.12128391675E+03  0.12128391675E+03  0.00000000000E+00 0. -1.
          6    1    1    2  501    0 -0.44731570416E+02  0.16486308909E+03  0.76270361411E+02  0.25480761285E+03  0.17300000000E+03 0. -1.
         -6    1    1    2    0  502  0.44731570416E+02 -0.16486308909E+03  0.42955908202E+03  0.49358966408E+03  0.17300000000E+03 0.  1.
<mgrwt>
<rscale>  2 0.24312497E+03</rscale>
<asrwt>0</asrwt>
<pdfrwt beam="1">  1       21 0.96478976E-01 0.24312497E+03</pdfrwt>
<pdfrwt beam="2">  1       21 0.18659065E-01 0.24312497E+03</pdfrwt>
<totfact> 0.22817370E+04</totfact>
</mgrwt>
</event>
<event>
 4    2  0.4024741E+000  0.1790136E+03  0.7546771E-02  0.1168761E+00
         21   -1    0    0  503  502  0.00000000000E+00  0.00000000000E+00  0.37105793072E+03  0.37105793072E+03  0.00000000000E+00 0.  1.
         21   -1    0    0  501  503 -0.00000000000E+00 -0.00000000000E+00 -0.34107180013E+03  0.34107180013E+03  0.00000000000E+00 0.  1.
          6    1    1    2  501    0 -0.34189704802E+02  0.30788760664E+02 -0.29270708843E+03  0.34310832592E+03  0.17300000000E+03 0.  1.
         -6    1    1    2    0  502  0.34189704802E+02 -0.30788760664E+02  0.32269321902E+03  0.36902140493E+03  0.17300000000E+03 0.  1.
<mgrwt>
<rscale>  2 0.17901364E+03</rscale>
<asrwt>0</asrwt>
<pdfrwt beam="1">  1       21 0.57085836E-01 0.17901364E+03</pdfrwt>
<pdfrwt beam="2">  1       21 0.52472585E-01 0.17901364E+03</pdfrwt>
<totfact> 0.10022107E+04</totfact>
</mgrwt>
</event>
<event>
 4    2  0.4024741E+000  0.2251290E+03  0.7546771E-02  0.1130116E+00
         21   -1    0    0  503  502  0.00000000000E+00  0.00000000000E+00  0.21987086794E+03  0.21987086794E+03  0.00000000000E+00 0. -1.
         21   -1    0    0  501  503 -0.00000000000E+00 -0.00000000000E+00 -0.23183890739E+03  0.23183890739E+03  0.00000000000E+00 0.  1.
          6    1    1    2  501    0  0.29876663386E+02 -0.14093063142E+03  0.11097219034E+02  0.22540232066E+03  0.17300000000E+03 0. -1.
         -6    1    1    2    0  502 -0.29876663386E+02  0.14093063142E+03 -0.23065258479E+02  0.22630745467E+03  0.17300000000E+03 0. -1.
<mgrwt>
<rscale>  2 0.22512898E+03</rscale>
<asrwt>0</asrwt>
<pdfrwt beam="1">  1       21 0.33826287E-01 0.22512898E+03</pdfrwt>
<pdfrwt beam="2">  1       21 0.35667524E-01 0.22512898E+03</pdfrwt>
<totfact> 0.62906742E+04</totfact>
</mgrwt>
</event>
<event>
 4    2  0.4024741E+000  0.1915657E+03  0.7546771E-02  0.1157057E+00
         21   -1    0    0  503  502  0.00000000000E+00  0.00000000000E+00  0.61471028991E+03  0.61471028991E+03  0.00000000000E+00 0. -1.
         21   -1    0    0  501  503 -0.00000000000E+00 -0.00000000000E+00 -0.60467574592E+02  0.60467574592E+02  0.00000000000E+00 0. -1.
          6    1    1    2  501    0  0.81185436296E+02  0.13317404918E+02  0.23905476182E+03  0.30634067227E+03  0.17300000000E+03 0. -1.
         -6    1    1    2    0  502 -0.81185436296E+02 -0.13317404918E+02  0.31518795350E+03  0.36883719223E+03  0.17300000000E+03 0. -1.
<mgrwt>
<rscale>  2 0.19156573E+03</rscale>
<asrwt>0</asrwt>
<pdfrwt beam="1">  1       21 0.94570810E-01 0.19156573E+03</pdfrwt>
<pdfrwt beam="2">  1       21 0.93027042E-02 0.19156573E+03</pdfrwt>
<totfact> 0.86333041E+04</totfact>
</mgrwt>
</event>
<event>
 4    2  0.4024741E+000  0.1745104E+03  0.7546771E-02  0.1173224E+00
         21   -1    0    0  503  502  0.00000000000E+00  0.00000000000E+00  0.15795627725E+03  0.15795627725E+03  0.00000000000E+00 0.  1.
         21   -1    0    0  501  503 -0.00000000000E+00 -0.00000000000E+00 -0.21779470606E+03  0.21779470606E+03  0.00000000000E+00 0.  1.
          6    1    1    2  501    0 -0.21907447505E+02 -0.67047220808E+01  0.33727344160E+02  0.17773976285E+03  0.17300000000E+03 0.  1.
         -6    1    1    2    0  502  0.21907447505E+02  0.67047220808E+01 -0.93565772972E+02  0.19801122046E+03  0.17300000000E+03 0.  1.
<mgrwt>
<rscale>  2 0.17451043E+03</rscale>
<asrwt>0</asrwt>
<pdfrwt beam="1">  1       21 0.24300966E-01 0.17451043E+03</pdfrwt>
<pdfrwt beam="2">  1       21 0.33506878E-01 0.17451043E+03</pdfrwt>
<totfact> 0.13799607E+05</totfact>
</mgrwt>
</event>
<event>
 4    2  0.4024741E+000  0.2626115E+03  0.7546771E-02  0.1105584E+00
         21   -1    0    0  501  502  0.00000000000E+00  0.00000000000E+00  0.17306740233E+04  0.17306740233E+04  0.00000000000E+00 0.  1.
         21   -1    0    0  502  503 -0.00000000000E+00 -0.00000000000E+00 -0.55822236910E+02  0.55822236910E+02  0.00000000000E+00 0. -1.
          6    1    1    2  501    0 -0.18917713570E+03 -0.56989530743E+02  0.13152538044E+04  0.13412148840E+04  0.17300000000E+03 0. -1.
         -6    1    1    2    0  503  0.18917713570E+03  0.56989530743E+02  0.35959798205E+03  0.44528137619E+03  0.17300000000E+03 0. -1.
<mgrwt>
<rscale>  2 0.26261149E+03</rscale>
<asrwt>0</asrwt>
<pdfrwt beam="1">  1       21 0.26625750E+00 0.26261149E+03</pdfrwt>
<pdfrwt beam="2">  1       21 0.85880378E-02 0.26261149E+03</pdfrwt>
<totfact> 0.53125631E+03</totfact>
</mgrwt>
</event>
<event>
 4    2  0.4024741E+000  0.1795598E+03  0.7546771E-02  0.1168230E+00
         21   -1    0    0  501  502  0.00000000000E+00  0.00000000000E+00  0.11163685722E+04  0.11163685722E+04  0.00000000000E+00 0. -1.
         21   -1    0    0  502  503 -0.00000000000E+00 -0.00000000000E+00 -0.29486612681E+02  0.29486612681E+02  0.00000000000E+00 0.  1.
          6    1    1    2  501    0 -0.46156048974E+02 -0.13503816240E+02  0.62555533421E+03  0.65081580349E+03  0.17300000000E+03 0.  1.
         -6    1    1    2    0  503  0.46156048974E+02  0.13503816240E+02  0.46132662527E+03  0.49503938135E+03  0.17300000000E+03 0.  1.
<mgrwt>
<rscale>  2 0.17955983E+03</rscale>
<asrwt>0</asrwt>
<pdfrwt beam="1">  1       21 0.17174898E+00 0.17955983E+03</pdfrwt>
<pdfrwt beam="2">  1       21 0.45364028E-02 0.17955983E+03</pdfrwt>
<totfact> 0.66272370E+04</totfact>
</mgrwt>
</event>
<event>
 4    2  0.4024741E+000  0.1777937E+03  0.7546771E-02  0.1169956E+00
         21   -1    0    0  501  502  0.00000000000E+00  0.00000000000E+00  0.13997622475E+04  0.13997622475E+04  0.00000000000E+00 0.  1.
         21   -1    0    0  502  503 -0.00000000000E+00 -0.00000000000E+00 -0.58439219380E+02  0.58439219380E+02  0.00000000000E+00 0.  1.
          6    1    1    2  501    0  0.29127150246E+02 -0.28865307605E+02  0.12417699727E+04  0.12544334426E+04  0.17300000000E+03 0.  1.
         -6    1    1    2    0  503 -0.29127150246E+02  0.28865307605E+02  0.99553055407E+02  0.20376802425E+03  0.17300000000E+03 0.  1.
<mgrwt>
<rscale>  2 0.17779369E+03</rscale>
<asrwt>0</asrwt>
<pdfrwt beam="1">  1       21 0.21534801E+00 0.17779369E+03</pdfrwt>
<pdfrwt beam="2">  1       21 0.89906501E-02 0.17779369E+03</pdfrwt>
<totfact> 0.10656903E+04</totfact>
</mgrwt>
</event>
<event>
 4    2  0.4024741E+000  0.1734827E+03  0.7546771E-02  0.1174264E+00
         21   -1    0    0  503  502  0.00000000000E+00  0.00000000000E+00  0.94896784532E+02  0.94896784532E+02  0.00000000000E+00 0.  1.
         21   -1    0    0  501  503 -0.00000000000E+00 -0.00000000000E+00 -0.95172694742E+03  0.95172694742E+03  0.00000000000E+00 0.  1.
          6    1    1    2  501    0 -0.36857702693E+01 -0.12395436855E+02 -0.85572951956E+03  0.87313758504E+03  0.17300000000E+03 0. -1.
         -6    1    1    2    0  502  0.36857702693E+01  0.12395436855E+02 -0.11006433329E+01  0.17348614692E+03  0.17300000000E+03 0. -1.
<mgrwt>
<rscale>  2 0.17348266E+03</rscale>
<asrwt>0</asrwt>
<pdfrwt beam="1">  1       21 0.14599506E-01 0.17348266E+03</pdfrwt>
<pdfrwt beam="2">  1       21 0.14641953E+00 0.17348266E+03</pdfrwt>
<totfact> 0.13309474E+04</totfact>
</mgrwt>
</event>
<event>
 4    2  0.4024741E+000  0.2842400E+03  0.7546771E-02  0.1093395E+00
         21   -1    0    0  501  502  0.00000000000E+00  0.00000000000E+00  0.37206846719E+03  0.37206846719E+03  0.00000000000E+00 0.  1.
         21   -1    0    0  502  503 -0.00000000000E+00 -0.00000000000E+00 -0.10921036355E+04  0.10921036355E+04  0.00000000000E+00 0. -1.
          6    1    1    2  501    0 -0.20920095005E+03  0.84251640402E+02  0.29525840413E+03  0.40984131273E+03  0.17300000000E+03 0.  1.
         -6    1    1    2    0  503  0.20920095005E+03 -0.84251640402E+02 -0.10152935724E+04  0.10543307900E+04  0.17300000000E+03 0. -1.
<mgrwt>
<rscale>  2 0.28424000E+03</rscale>
<asrwt>0</asrwt>
<pdfrwt beam="1">  1       21 0.57241303E-01 0.28424000E+03</pdfrwt>
<pdfrwt beam="2">  1       21 0.16801594E+00 0.28424000E+03</pdfrwt>
<totfact> 0.57917116E+02</totfact>
</mgrwt>
</event>
<event>
 4    2  0.4024741E+000  0.1954806E+03  0.7546771E-02  0.1153609E+00
         21   -1    0    0  501  502  0.00000000000E+00  0.00000000000E+00  0.94484106999E+03  0.94484106999E+03  0.00000000000E+00 0.  1.
         21   -1    0    0  502  503 -0.00000000000E+00 -0.00000000000E+00 -0.43758756238E+02  0.43758756238E+02  0.00000000000E+00 0.  1.
          6    1    1    2  501    0 -0.90873363802E+02 -0.50700144983E+01  0.58659695419E+03  0.61831113524E+03  0.17300000000E+03 0.  1.
         -6    1    1    2    0  503  0.90873363802E+02  0.50700144983E+01  0.31448535956E+03  0.37028869099E+03  0.17300000000E+03 0.  1.
<mgrwt>
<rscale>  2 0.19548062E+03</rscale>
<asrwt>0</asrwt>
<pdfrwt beam="1">  1       21 0.14536015E+00 0.19548062E+03</pdfrwt>
<pdfrwt beam="2">  1       21 0.67321171E-02 0.19548062E+03</pdfrwt>
<totfact> 0.52432103E+04</totfact>
</mgrwt>
</event>
<event>
 4    2  0.4024741E+000  0.1852342E+03  0.7546771E-02  0.1162831E+00
         21   -1    0    0  503  502  0.00000000000E+00  0.00000000000E+00  0.43219223346E+03  0.43219223346E+03  0.00000000000E+00 0. -1.
         21   -1    0    0  501  503 -0.00000000000E+00 -0.00000000000E+00 -0.53012399700E+03  0.53012399700E+03  0.00000000000E+00 0. -1.
          6    1    1    2  501    0  0.40531821175E+02  0.52343904426E+02 -0.49263507417E+03  0.52630887240E+03  0.17300000000E+03 0. -1.
         -6    1    1    2    0  502 -0.40531821175E+02 -0.52343904426E+02  0.39470331063E+03  0.43600735806E+03  0.17300000000E+03 0. -1.
<mgrwt>
<rscale>  2 0.18523421E+03</rscale>
<asrwt>0</asrwt>
<pdfrwt beam="1">  1       21 0.66491113E-01 0.18523421E+03</pdfrwt>
<pdfrwt beam="2">  1       21 0.81557538E-01 0.18523421E+03</pdfrwt>
<totfact> 0.27487813E+03</totfact>
</mgrwt>
</event>
<event>
 4    2  0.4024741E+000  0.1742228E+03  0.7546771E-02  0.1173514E+00
         21   -1    0    0  503  502  0.00000000000E+00  0.00000000000E+00  0.14780681914E+03  0.14780681914E+03  0.00000000000E+00 0.  1.
         21   -1    0    0  501  503 -0.00000000000E+00 -0.00000000000E+00 -0.92586606640E+03  0.92586606640E+03  0.00000000000E+00 0.  1.
          6    1    1    2  501    0  0.58577291575E+01  0.19755416664E+02 -0.86260244037E+03  0.88002077226E+03  0.17300000000E+03 0.  1.
         -6    1    1    2    0  502 -0.58577291575E+01 -0.19755416664E+02  0.84543193113E+02  0.19365211329E+03  0.17300000000E+03 0.  1.
<mgrwt>
<rscale>  2 0.17422282E+03</rscale>
<asrwt>0</asrwt>
<pdfrwt beam="1">  1       21 0.22739510E-01 0.17422282E+03</pdfrwt>
<pdfrwt beam="2">  1       21 0.14244093E+00 0.17422282E+03</pdfrwt>
<totfact> 0.63006946E+03</totfact>
</mgrwt>
</event>
<event>
 4    2  0.4024741E+000  0.1839007E+03  0.7546771E-02  0.1164080E+00
         21   -1    0    0  503  502  0.00000000000E+00  0.00000000000E+00  0.31444029618E+03  0.31444029618E+03  0.00000000000E+00 0.  1.
         21   -1    0    0  501  503 -0.00000000000E+00 -0.00000000000E+00 -0.11428664115E+03  0.11428664115E+03  0.00000000000E+00 0.  1.
          6    1    1    2  501    0  0.21284130814E+02 -0.58629915303E+02  0.48049875931E+02  0.19007438483E+03  0.17300000000E+03 0.  1.
         -6    1    1    2    0  502 -0.21284130814E+02  0.58629915303E+02  0.15210377910E+03  0.23865255249E+03  0.17300000000E+03 0.  1.
<mgrwt>
<rscale>  2 0.18390074E+03</rscale>
<asrwt>0</asrwt>
<pdfrwt beam="1">  1       21 0.48375430E-01 0.18390074E+03</pdfrwt>
<pdfrwt beam="2">  1       21 0.17582560E-01 0.18390074E+03</pdfrwt>
<totfact> 0.12003424E+05</totfact>
</mgrwt>
</event>
<event>
 4    2  0.4024741E+000  0.1771746E+03  0.7546771E-02  0.1170566E+00
         21   -1    0    0  503  502  0.00000000000E+00  0.00000000000E+00  0.18398596533E+03  0.18398596533E+03  0.00000000000E+00 0. -1.
         21   -1    0    0  501  503 -0.00000000000E+00 -0.00000000000E+00 -0.18582413812E+03  0.18582413812E+03  0.00000000000E+00 0. -1.
          6    1    1    2  501    0  0.37555922243E+02 -0.71688165136E+01 -0.53817700205E+02  0.18516798881E+03  0.17300000000E+03 0. -1.
         -6    1    1    2    0  502 -0.37555922243E+02  0.71688165136E+01  0.51979527418E+02  0.18464211463E+03  0.17300000000E+03 0. -1.
<mgrwt>
<rscale>  2 0.17717460E+03</rscale>
<asrwt>0</asrwt>
<pdfrwt beam="1">  1       21 0.28305533E-01 0.17717460E+03</pdfrwt>
<pdfrwt beam="2">  1       21 0.28588329E-01 0.17717460E+03</pdfrwt>
<totfact> 0.14033482E+05</totfact>
</mgrwt>
</event>
<event>
 4    2  0.4024741E+000  0.3207988E+03  0.7546771E-02  0.1075282E+00
         21   -1    0    0  501  502  0.00000000000E+00  0.00000000000E+00  0.66937597133E+03  0.66937597133E+03  0.00000000000E+00 0.  1.
         21   -1    0    0  502  503 -0.00000000000E+00 -0.00000000000E+00 -0.19010286370E+03  0.19010286370E+03  0.00000000000E+00 0. -1.
          6    1    1    2  501    0 -0.12696444094E+03  0.23845942272E+03  0.51695341514E+02  0.32493733840E+03  0.17300000000E+03 0. -1.
         -6    1    1    2    0  503  0.12696444094E+03 -0.23845942272E+03  0.42757776612E+03  0.53454149664E+03  0.17300000000E+03 0.  1.
<mgrwt>
<rscale>  2 0.32079879E+03</rscale>
<asrwt>0</asrwt>
<pdfrwt beam="1">  1       21 0.10298092E+00 0.32079879E+03</pdfrwt>
<pdfrwt beam="2">  1       21 0.29246595E-01 0.32079879E+03</pdfrwt>
<totfact> 0.79594607E+03</totfact>
</mgrwt>
</event>
<event>
 4    2  0.4024741E+000  0.2081917E+03  0.7546771E-02  0.1143006E+00
         21   -1    0    0  501  502  0.00000000000E+00  0.00000000000E+00  0.95668820486E+03  0.95668820486E+03  0.00000000000E+00 0. -1.
         21   -1    0    0  502  503 -0.00000000000E+00 -0.00000000000E+00 -0.45689570779E+02  0.45689570779E+02  0.00000000000E+00 0.  1.
          6    1    1    2  501    0  0.84541653767E+02 -0.79167366983E+02  0.40958082722E+03  0.45945643672E+03  0.17300000000E+03 0.  1.
         -6    1    1    2    0  503 -0.84541653767E+02  0.79167366983E+02  0.50141780687E+03  0.54292133892E+03  0.17300000000E+03 0. -1.
<mgrwt>
<rscale>  2 0.20819165E+03</rscale>
<asrwt>0</asrwt>
<pdfrwt beam="1">  1       21 0.14718279E+00 0.20819165E+03</pdfrwt>
<pdfrwt beam="2">  1       21 0.70291655E-02 0.20819165E+03</pdfrwt>
<totfact> 0.46766701E+04</totfact>
</mgrwt>
</event>
<event>
 4    2  0.4024741E+000  0.1973578E+03  0.7546771E-02  0.1151988E+00
         21   -1    0    0  501  502  0.00000000000E+00  0.00000000000E+00  0.60717822464E+02  0.60717822464E+02  0.00000000000E+00 0.  1.
         21   -1    0    0  502  503 -0.00000000000E+00 -0.00000000000E+00 -0.65887540368E+03  0.65887540368E+03  0.00000000000E+00 0.  1.
          6    1    1    2  501    0  0.93202832052E+02 -0.18284981870E+02 -0.24064016767E+03  0.31121985599E+03  0.17300000000E+03 0. -1.
         -6    1    1    2    0  503 -0.93202832052E+02  0.18284981870E+02 -0.35751741354E+03  0.40837337015E+03  0.17300000000E+03 0. -1.
<mgrwt>
<rscale>  2 0.19735782E+03</rscale>
<asrwt>0</asrwt>
<pdfrwt beam="1">  1       21 0.93412035E-02 0.19735782E+03</pdfrwt>
<pdfrwt beam="2">  1       21 0.10136545E+00 0.19735782E+03</pdfrwt>
<totfact> 0.72572775E+04</totfact>
</mgrwt>
</event>
<event>
 4    2  0.4024741E+000  0.2009456E+03  0.7546771E-02  0.1148944E+00
         21   -1    0    0  501  502  0.00000000000E+00  0.00000000000E+00  0.71348603973E+02  0.71348603973E+02  0.00000000000E+00 0.  1.
         21   -1    0    0  502  503 -0.00000000000E+00 -0.00000000000E+00 -0.20554734954E+04  0.20554734954E+04  0.00000000000E+00 0.  1.
          6    1    1    2  501    0 -0.93553594725E+02 -0.41205058744E+02 -0.86809066865E+02  0.21889482872E+03  0.17300000000E+03 0.  1.
         -6    1    1    2    0  503  0.93553594725E+02  0.41205058744E+02 -0.18973158246E+04  0.19079272707E+04  0.17300000000E+03 0.  1.
<mgrwt>
<rscale>  2 0.20094559E+03</rscale>
<asrwt>0</asrwt>
<pdfrwt beam="1">  1       21 0.10976710E-01 0.20094559E+03</pdfrwt>
<pdfrwt beam="2">  1       21 0.31622664E+00 0.20094559E+03</pdfrwt>
<totfact> 0.18731161E+03</totfact>
</mgrwt>
</event>
<event>
 4    2  0.4024741E+000  0.1751513E+03  0.7546771E-02  0.1172580E+00
         21   -1    0    0  501  502  0.00000000000E+00  0.00000000000E+00  0.46612093757E+02  0.46612093757E+02  0.00000000000E+00 0. -1.
         21   -1    0    0  502  503 -0.00000000000E+00 -0.00000000000E+00 -0.73570915246E+03  0.73570915246E+03  0.00000000000E+00 0. -1.
          6    1    1    2  501    0  0.77300294640E+01 -0.26253103488E+02 -0.21754821256E+03  0.27929411663E+03  0.17300000000E+03 0. -1.
         -6    1    1    2    0  503 -0.77300294640E+01  0.26253103488E+02 -0.47154884614E+03  0.50302712958E+03  0.17300000000E+03 0. -1.
<mgrwt>
<rscale>  2 0.17515130E+03</rscale>
<asrwt>0</asrwt>
<pdfrwt beam="1">  1       21 0.71710920E-02 0.17515130E+03</pdfrwt>
<pdfrwt beam="2">  1       21 0.11318601E+00 0.17515130E+03</pdfrwt>
<totfact> 0.89102725E+04</totfact>
</mgrwt>
</event>
<event>
 4    2  0.4024741E+000  0.3618405E+03  0.7546771E-02  0.1057857E+00
         21   -1    0    0  503  502  0.00000000000E+00  0.00000000000E+00  0.16549626853E+04  0.16549626853E+04  0.00000000000E+00 0.  1.
         21   -1    0    0  501  503 -0.00000000000E+00 -0.00000000000E+00 -0.79449528668E+02  0.79449528668E+02  0.00000000000E+00 0.  1.
          6    1    1    2  501    0  0.22219669789E+03 -0.22721833516E+03  0.84422293639E+03  0.91849927094E+03  0.17300000000E+03 0.  1.
         -6    1    1    2    0  502 -0.22219669789E+03  0.22721833516E+03  0.73129022025E+03  0.81591294304E+03  0.17300000000E+03 0.  1.
<mgrwt>
<rscale>  2 0.36184050E+03</rscale>
<asrwt>0</asrwt>
<pdfrwt beam="1">  1       21 0.25460962E+00 0.36184050E+03</pdfrwt>
<pdfrwt beam="2">  1       21 0.12223006E-01 0.36184050E+03</pdfrwt>
<totfact> 0.31044092E+03</totfact>
</mgrwt>
</event>
<event>
 4    2  0.4024741E+000  0.2034760E+03  0.7546771E-02  0.1146839E+00
         21   -1    0    0  503  502  0.00000000000E+00  0.00000000000E+00  0.20545238862E+04  0.20545238862E+04  0.00000000000E+00 0. -1.
         21   -1    0    0  501  503 -0.00000000000E+00 -0.00000000000E+00 -0.28702040240E+02  0.28702040240E+02  0.00000000000E+00 0.  1.
          6    1    1    2  501    0 -0.44833921674E+02 -0.97280020519E+02  0.44440163764E+03  0.48876916684E+03  0.17300000000E+03 0.  1.
         -6    1    1    2    0  502  0.44833921674E+02  0.97280020519E+02  0.15814202083E+04  0.15944567596E+04  0.17300000000E+03 0. -1.
<mgrwt>
<rscale>  2 0.20347600E+03</rscale>
<asrwt>0</asrwt>
<pdfrwt beam="1">  1       21 0.31608048E+00 0.20347600E+03</pdfrwt>
<pdfrwt beam="2">  1       21 0.44157001E-02 0.20347600E+03</pdfrwt>
<totfact> 0.90425165E+03</totfact>
</mgrwt>
</event>
<event>
 4    2  0.4024741E+000  0.1803924E+03  0.7546771E-02  0.1167424E+00
         21   -1    0    0  503  502  0.00000000000E+00  0.00000000000E+00  0.16431383070E+03  0.16431383070E+03  0.00000000000E+00 0. -1.
         21   -1    0    0  501  503 -0.00000000000E+00 -0.00000000000E+00 -0.20693629463E+03  0.20693629463E+03  0.00000000000E+00 0. -1.
          6    1    1    2  501    0  0.49576009469E+02 -0.12435017370E+02 -0.59789803978E+02  0.19004270844E+03  0.17300000000E+03 0. -1.
         -6    1    1    2    0  502 -0.49576009469E+02  0.12435017370E+02  0.17167340049E+02  0.18120741689E+03  0.17300000000E+03 0. -1.
<mgrwt>
<rscale>  2 0.18039238E+03</rscale>
<asrwt>0</asrwt>
<pdfrwt beam="1">  1       21 0.25279051E-01 0.18039238E+03</pdfrwt>
<pdfrwt beam="2">  1       21 0.31836353E-01 0.18039238E+03</pdfrwt>
<totfact> 0.14125450E+05</totfact>
</mgrwt>
</event>
<event>
 4    2  0.4024741E+000  0.2550137E+03  0.7546771E-02  0.1110177E+00
         21   -1    0    0  501  502  0.00000000000E+00  0.00000000000E+00  0.13389020884E+04  0.13389020884E+04  0.00000000000E+00 0.  1.
         21   -1    0    0  502  503 -0.00000000000E+00 -0.00000000000E+00 -0.58192304822E+02  0.58192304822E+02  0.00000000000E+00 0.  1.
          6    1    1    2  501    0  0.17977959356E+03 -0.52747407391E+02  0.92439322980E+03  0.95892378975E+03  0.17300000000E+03 0.  1.
         -6    1    1    2    0  503 -0.17977959356E+03  0.52747407391E+02  0.35631655374E+03  0.43817060343E+03  0.17300000000E+03 0.  1.
<mgrwt>
<rscale>  2 0.25501371E+03</rscale>
<asrwt>0</asrwt>
<pdfrwt beam="1">  1       21 0.20598491E+00 0.25501371E+03</pdfrwt>
<pdfrwt beam="2">  1       21 0.89526633E-02 0.25501371E+03</pdfrwt>
<totfact> 0.11575988E+04</totfact>
</mgrwt>
</event>
<event>
 4    2  0.4024741E+000  0.1844284E+03  0.7546771E-02  0.1163585E+00
         21   -1    0    0  501  502  0.00000000000E+00  0.00000000000E+00  0.10580326053E+03  0.10580326053E+03  0.00000000000E+00 0.  1.
         21   -1    0    0  502  503 -0.00000000000E+00 -0.00000000000E+00 -0.34150865043E+03  0.34150865043E+03  0.00000000000E+00 0.  1.
          6    1    1    2  501    0 -0.36700326432E+02  0.52325133480E+02 -0.17201346385E+03  0.25219529199E+03  0.17300000000E+03 0.  1.
         -6    1    1    2    0  503  0.36700326432E+02 -0.52325133480E+02 -0.63691926052E+02  0.19511661897E+03  0.17300000000E+03 0.  1.
<mgrwt>
<rscale>  2 0.18442840E+03</rscale>
<asrwt>0</asrwt>
<pdfrwt beam="1">  1       21 0.16277425E-01 0.18442840E+03</pdfrwt>
<pdfrwt beam="2">  1       21 0.52539791E-01 0.18442840E+03</pdfrwt>
<totfact> 0.11640486E+05</totfact>
</mgrwt>
</event>
<event>
 4    2  0.4024741E+000  0.2142254E+03  0.7546771E-02  0.1138263E+00
         21   -1    0    0  501  502  0.00000000000E+00  0.00000000000E+00  0.10955176948E+04  0.10955176948E+04  0.00000000000E+00 0.  1.
         21   -1    0    0  502  503 -0.00000000000E+00 -0.00000000000E+00 -0.50926354478E+02  0.50926354478E+02  0.00000000000E+00 0. -1.
          6    1    1    2  501    0 -0.56970156193E+02  0.11277373696E+03  0.76374175328E+03  0.79321748603E+03  0.17300000000E+03 0. -1.
         -6    1    1    2    0  503  0.56970156193E+02 -0.11277373696E+03  0.28084958707E+03  0.35322656328E+03  0.17300000000E+03 0.  1.
<mgrwt>
<rscale>  2 0.21422538E+03</rscale>
<asrwt>0</asrwt>
<pdfrwt beam="1">  1       21 0.16854117E+00 0.21422538E+03</pdfrwt>
<pdfrwt beam="2">  1       21 0.78348246E-02 0.21422538E+03</pdfrwt>
<totfact> 0.26807486E+04</totfact>
</mgrwt>
</event>
<event>
 4    2  0.4024741E+000  0.3011929E+03  0.7546771E-02  0.1084646E+00
         21   -1    0    0  503  502  0.00000000000E+00  0.00000000000E+00  0.32000171473E+03  0.32000171473E+03  0.00000000000E+00 0. -1.
         21   -1    0    0  501  503 -0.00000000000E+00 -0.00000000000E+00 -0.29516628872E+03  0.29516628872E+03  0.00000000000E+00 0.  1.
          6    1    1    2  501    0  0.23819892177E+03  0.63635208552E+02 -0.48759509056E+02  0.30511416850E+03  0.17300000000E+03 0.  1.
         -6    1    1    2    0  502 -0.23819892177E+03 -0.63635208552E+02  0.73594935058E+02  0.31005383495E+03  0.17300000000E+03 0.  1.
<mgrwt>
<rscale>  2 0.30119291E+03</rscale>
<asrwt>0</asrwt>
<pdfrwt beam="1">  1       21 0.49231033E-01 0.30119291E+03</pdfrwt>
<pdfrwt beam="2">  1       21 0.45410198E-01 0.30119291E+03</pdfrwt>
<totfact> 0.17326610E+04</totfact>
</mgrwt>
</event>
<event>
 4    2  0.4024741E+000  0.2147602E+03  0.7546771E-02  0.1137851E+00
         21   -1    0    0  503  502  0.00000000000E+00  0.00000000000E+00  0.31830884707E+03  0.31830884707E+03  0.00000000000E+00 0. -1.
         21   -1    0    0  501  503 -0.00000000000E+00 -0.00000000000E+00 -0.15125772338E+03  0.15125772338E+03  0.00000000000E+00 0.  1.
          6    1    1    2  501    0 -0.19900600322E+01  0.12723597443E+03  0.35378885329E+02  0.21765481629E+03  0.17300000000E+03 0.  1.
         -6    1    1    2    0  502  0.19900600322E+01 -0.12723597443E+03  0.13167223836E+03  0.25191175416E+03  0.17300000000E+03 0. -1.
<mgrwt>
<rscale>  2 0.21476022E+03</rscale>
<asrwt>0</asrwt>
<pdfrwt beam="1">  1       21 0.48970592E-01 0.21476022E+03</pdfrwt>
<pdfrwt beam="2">  1       21 0.23270419E-01 0.21476022E+03</pdfrwt>
<totfact> 0.68403474E+04</totfact>
</mgrwt>
</event>
<event>
 4    2  0.4024741E+000  0.2680713E+03  0.7546771E-02  0.1102389E+00
         21   -1    0    0  501  502  0.00000000000E+00  0.00000000000E+00  0.10288350929E+04  0.10288350929E+04  0.00000000000E+00 0.  1.
         21   -1    0    0  502  503 -0.00000000000E+00 -0.00000000000E+00 -0.14854357949E+03  0.14854357949E+03  0.00000000000E+00 0.  1.
          6    1    1    2  501    0 -0.17461377511E+03 -0.10697312435E+03  0.86862915824E+03  0.90905381267E+03  0.17300000000E+03 0.  1.
         -6    1    1    2    0  503  0.17461377511E+03  0.10697312435E+03  0.11662355129E+02  0.26832485967E+03  0.17300000000E+03 0.  1.
<mgrwt>
<rscale>  2 0.26807130E+03</rscale>
<asrwt>0</asrwt>
<pdfrwt beam="1">  1       21 0.15828232E+00 0.26807130E+03</pdfrwt>
<pdfrwt beam="2">  1       21 0.22852859E-01 0.26807130E+03</pdfrwt>
<totfact> 0.43987379E+03</totfact>
</mgrwt>
</event>
<event>
 4    2  0.4024741E+000  0.3084259E+03  0.7546771E-02  0.1081103E+00
         21   -1    0    0  503  502  0.00000000000E+00  0.00000000000E+00  0.17706910505E+03  0.17706910505E+03  0.00000000000E+00 0. -1.
         21   -1    0    0  501  503 -0.00000000000E+00 -0.00000000000E+00 -0.84885010957E+03  0.84885010957E+03  0.00000000000E+00 0.  1.
          6    1    1    2  501    0  0.21926788786E+03  0.13084016279E+03 -0.64669085667E+03  0.71647443705E+03  0.17300000000E+03 0.  1.
         -6    1    1    2    0  502 -0.21926788786E+03 -0.13084016279E+03 -0.25090147854E+02  0.30944477757E+03  0.17300000000E+03 0. -1.
<mgrwt>
<rscale>  2 0.30842593E+03</rscale>
<asrwt>0</asrwt>
<pdfrwt beam="1">  1       21 0.27241401E-01 0.30842593E+03</pdfrwt>
<pdfrwt beam="2">  1       21 0.13059232E+00 0.30842593E+03</pdfrwt>
<totfact> 0.50908826E+03</totfact>
</mgrwt>
</event>
<event>
 4    2  0.4024741E+000  0.1978323E+03  0.7546771E-02  0.1151581E+00
         21   -1    0    0  503  502  0.00000000000E+00  0.00000000000E+00  0.88957413050E+02  0.88957413050E+02  0.00000000000E+00 0. -1.
         21   -1    0    0  501  503 -0.00000000000E+00 -0.00000000000E+00 -0.44065765750E+03  0.44065765750E+03  0.00000000000E+00 0.  1.
          6    1    1    2  501    0 -0.33233261557E+02 -0.90023061623E+02 -0.16530484693E+03  0.25780475891E+03  0.17300000000E+03 0.  1.
         -6    1    1    2    0  502  0.33233261557E+02  0.90023061623E+02 -0.18639539752E+03  0.27181031164E+03  0.17300000000E+03 0. -1.
<mgrwt>
<rscale>  2 0.19783226E+03</rscale>
<asrwt>0</asrwt>
<pdfrwt beam="1">  1       21 0.13685756E-01 0.19783226E+03</pdfrwt>
<pdfrwt beam="2">  1       21 0.67793484E-01 0.19783226E+03</pdfrwt>
<totfact> 0.91905782E+04</totfact>
</mgrwt>
</event>
<event>
 4    2  0.4024741E+000  0.1836017E+03  0.7546771E-02  0.1164362E+00
         21   -1    0    0  501  502  0.00000000000E+00  0.00000000000E+00  0.19792885111E+03  0.19792885111E+03  0.00000000000E+00 0.  1.
         21   -1    0    0  502  503 -0.00000000000E+00 -0.00000000000E+00 -0.26567879152E+03  0.26567879152E+03  0.00000000000E+00 0.  1.
          6    1    1    2  501    0  0.21604548684E+01  0.61448491506E+02  0.10500562929E+03  0.21150831392E+03  0.17300000000E+03 0. -1.
         -6    1    1    2    0  503 -0.21604548684E+01 -0.61448491506E+02 -0.17275556970E+03  0.25209932871E+03  0.17300000000E+03 0. -1.
<mgrwt>
<rscale>  2 0.18360170E+03</rscale>
<asrwt>0</asrwt>
<pdfrwt beam="1">  1       21 0.30450592E-01 0.18360170E+03</pdfrwt>
<pdfrwt beam="2">  1       21 0.40873660E-01 0.18360170E+03</pdfrwt>
<totfact> 0.59920574E+04</totfact>
</mgrwt>
</event>
<event>
 4    2  0.4024741E+000  0.1966603E+03  0.7546771E-02  0.1152588E+00
         21   -1    0    0  503  502  0.00000000000E+00  0.00000000000E+00  0.25408864381E+03  0.25408864381E+03  0.00000000000E+00 0.  1.
         21   -1    0    0  501  503 -0.00000000000E+00 -0.00000000000E+00 -0.21552152264E+03  0.21552152264E+03  0.00000000000E+00 0.  1.
          6    1    1    2  501    0 -0.17759923454E+01 -0.93504659364E+02 -0.10797809553E+03  0.22435361505E+03  0.17300000000E+03 0.  1.
         -6    1    1    2    0  502  0.17759923454E+01  0.93504659364E+02  0.14654521669E+03  0.24525655140E+03  0.17300000000E+03 0.  1.
<mgrwt>
<rscale>  2 0.19666030E+03</rscale>
<asrwt>0</asrwt>
<pdfrwt beam="1">  1       21 0.39090561E-01 0.19666030E+03</pdfrwt>
<pdfrwt beam="2">  1       21 0.33157157E-01 0.19666030E+03</pdfrwt>
<totfact> 0.55156067E+04</totfact>
</mgrwt>
</event>
<event>
 4    2  0.4024741E+000  0.2525948E+03  0.7546771E-02  0.1111676E+00
         21   -1    0    0  503  502  0.00000000000E+00  0.00000000000E+00  0.10151182637E+04  0.10151182637E+04  0.00000000000E+00 0.  1.
         21   -1    0    0  501  503 -0.00000000000E+00 -0.00000000000E+00 -0.13917658638E+03  0.13917658638E+03  0.00000000000E+00 0. -1.
          6    1    1    2  501    0 -0.17632216851E+03  0.52778970557E+02  0.10574754957E+02  0.25281604436E+03  0.17300000000E+03 0. -1.
         -6    1    1    2    0  502  0.17632216851E+03 -0.52778970557E+02  0.86536692237E+03  0.90147880572E+03  0.17300000000E+03 0.  1.
<mgrwt>
<rscale>  2 0.25259479E+03</rscale>
<asrwt>0</asrwt>
<pdfrwt beam="1">  1       21 0.15617204E+00 0.25259479E+03</pdfrwt>
<pdfrwt beam="2">  1       21 0.21411783E-01 0.25259479E+03</pdfrwt>
<totfact> 0.52148976E+03</totfact>
</mgrwt>
</event>
<event>
 4    2  0.4024741E+000  0.1879472E+03  0.7546771E-02  0.1160326E+00
         21   -1    0    0  501  502  0.00000000000E+00  0.00000000000E+00  0.41163682592E+03  0.41163682592E+03  0.00000000000E+00 0.  1.
         21   -1    0    0  502  503 -0.00000000000E+00 -0.00000000000E+00 -0.11942458228E+03  0.11942458228E+03  0.00000000000E+00 0. -1.
          6    1    1    2  501    0  0.52352927897E+02 -0.51520054000E+02  0.28697232309E+03  0.34304119176E+03  0.17300000000E+03 0.  1.
         -6    1    1    2    0  503 -0.52352927897E+02  0.51520054000E+02  0.52399205506E+01  0.18802021644E+03  0.17300000000E+03 0. -1.
<mgrwt>
<rscale>  2 0.18794719E+03</rscale>
<asrwt>0</asrwt>
<pdfrwt beam="1">  1       21 0.63328742E-01 0.18794719E+03</pdfrwt>
<pdfrwt beam="2">  1       21 0.18373013E-01 0.18794719E+03</pdfrwt>
<totfact> 0.62470852E+04</totfact>
</mgrwt>
</event>
<event>
 4    2  0.4024741E+000  0.2179791E+03  0.7546771E-02  0.1135399E+00
         21   -1    0    0  501  502  0.00000000000E+00  0.00000000000E+00  0.95262553331E+03  0.95262553331E+03  0.00000000000E+00 0.  1.
         21   -1    0    0  502  503 -0.00000000000E+00 -0.00000000000E+00 -0.60907134799E+02  0.60907134799E+02  0.00000000000E+00 0. -1.
          6    1    1    2  501    0 -0.10615373919E+03 -0.79481384744E+02  0.66150821618E+03  0.69649696836E+03  0.17300000000E+03 0.  1.
         -6    1    1    2    0  503  0.10615373919E+03  0.79481384744E+02  0.23021018233E+03  0.31703569975E+03  0.17300000000E+03 0. -1.
<mgrwt>
<rscale>  2 0.21797914E+03</rscale>
<asrwt>0</asrwt>
<pdfrwt beam="1">  1       21 0.14655776E+00 0.21797914E+03</pdfrwt>
<pdfrwt beam="2">  1       21 0.93703291E-02 0.21797914E+03</pdfrwt>
<totfact> 0.28464825E+04</totfact>
</mgrwt>
</event>
<event>
 4    2  0.4024741E+000  0.1883994E+03  0.7546771E-02  0.1159913E+00
         21   -1    0    0  501  502  0.00000000000E+00  0.00000000000E+00  0.24163849153E+03  0.24163849153E+03  0.00000000000E+00 0. -1.
         21   -1    0    0  502  503 -0.00000000000E+00 -0.00000000000E+00 -0.37607982141E+03  0.37607982141E+03  0.00000000000E+00 0. -1.
          6    1    1    2  501    0 -0.38330186566E+02  0.64000877277E+02  0.17389086633E+03  0.25638320711E+03  0.17300000000E+03 0. -1.
         -6    1    1    2    0  503  0.38330186566E+02 -0.64000877277E+02 -0.30833219620E+03  0.36133510584E+03  0.17300000000E+03 0. -1.
<mgrwt>
<rscale>  2 0.18839935E+03</rscale>
<asrwt>0</asrwt>
<pdfrwt beam="1">  1       21 0.37175152E-01 0.18839935E+03</pdfrwt>
<pdfrwt beam="2">  1       21 0.57858434E-01 0.18839935E+03</pdfrwt>
<totfact> 0.19596060E+04</totfact>
</mgrwt>
</event>
<event>
 4    2  0.4024741E+000  0.2081949E+03  0.7546771E-02  0.1143003E+00
         21   -1    0    0  501  502  0.00000000000E+00  0.00000000000E+00  0.33787543085E+02  0.33787543085E+02  0.00000000000E+00 0. -1.
         21   -1    0    0  502  503 -0.00000000000E+00 -0.00000000000E+00 -0.13718516139E+04  0.13718516139E+04  0.00000000000E+00 0. -1.
          6    1    1    2  501    0  0.11561716117E+03 -0.69850719671E+01 -0.84802404621E+03  0.87320667779E+03  0.17300000000E+03 0. -1.
         -6    1    1    2    0  503 -0.11561716117E+03  0.69850719671E+01 -0.49004002460E+03  0.53243247919E+03  0.17300000000E+03 0. -1.
<mgrwt>
<rscale>  2 0.20819491E+03</rscale>
<asrwt>0</asrwt>
<pdfrwt beam="1">  1       21 0.51980837E-02 0.20819491E+03</pdfrwt>
<pdfrwt beam="2">  1       21 0.21105409E+00 0.20819491E+03</pdfrwt>
<totfact> 0.28455798E+04</totfact>
</mgrwt>
</event>
<event>
 4    2  0.4024741E+000  0.1795830E+03  0.7546771E-02  0.1168207E+00
         21   -1    0    0  501  502  0.00000000000E+00  0.00000000000E+00  0.71264230066E+03  0.71264230066E+03  0.00000000000E+00 0.  1.
         21   -1    0    0  502  503 -0.00000000000E+00 -0.00000000000E+00 -0.51110076355E+02  0.51110076355E+02  0.00000000000E+00 0.  1.
          6    1    1    2  501    0 -0.43950685467E+02 -0.19732962147E+02  0.46002651516E+03  0.49383645795E+03  0.17300000000E+03 0. -1.
         -6    1    1    2    0  503  0.43950685467E+02  0.19732962147E+02  0.20150570914E+03  0.26991591907E+03  0.17300000000E+03 0. -1.
<mgrwt>
<rscale>  2 0.17958300E+03</rscale>
<asrwt>0</asrwt>
<pdfrwt beam="1">  1       21 0.10963727E+00 0.17958300E+03</pdfrwt>
<pdfrwt beam="2">  1       21 0.78630892E-02 0.17958300E+03</pdfrwt>
<totfact> 0.81888249E+04</totfact>
</mgrwt>
</event>
<event>
 4    2  0.4024741E+000  0.2127764E+03  0.7546771E-02  0.1139386E+00
         21   -1    0    0  501  502  0.00000000000E+00  0.00000000000E+00  0.62840971299E+02  0.62840971299E+02  0.00000000000E+00 0.  1.
         21   -1    0    0  502  503 -0.00000000000E+00 -0.00000000000E+00 -0.13228501230E+04  0.13228501230E+04  0.00000000000E+00 0.  1.
          6    1    1    2  501    0 -0.29720337919E+02  0.12025603012E+03 -0.16245954787E+03  0.26770677235E+03  0.17300000000E+03 0.  1.
         -6    1    1    2    0  503  0.29720337919E+02 -0.12025603012E+03 -0.10975496038E+04  0.11179843219E+04  0.17300000000E+03 0.  1.
<mgrwt>
<rscale>  2 0.21277643E+03</rscale>
<asrwt>0</asrwt>
<pdfrwt beam="1">  1       21 0.96678419E-02 0.21277643E+03</pdfrwt>
<pdfrwt beam="2">  1       21 0.20351540E+00 0.21277643E+03</pdfrwt>
<totfact> 0.10802128E+04</totfact>
</mgrwt>
</event>
<event>
 4    2  0.4024741E+000  0.3338702E+03  0.7546771E-02  0.1069437E+00
         21   -1    0    0  501  502  0.00000000000E+00  0.00000000000E+00  0.45330119627E+03  0.45330119627E+03  0.00000000000E+00 0.  1.
         21   -1    0    0  502  503 -0.00000000000E+00 -0.00000000000E+00 -0.27101426058E+03  0.27101426058E+03  0.00000000000E+00 0. -1.
          6    1    1    2  501    0  0.15190327264E+03 -0.24179686507E+03 -0.19089873345E+02  0.33441553711E+03  0.17300000000E+03 0. -1.
         -6    1    1    2    0  503 -0.15190327264E+03  0.24179686507E+03  0.20137680903E+03  0.38989991974E+03  0.17300000000E+03 0.  1.
<mgrwt>
<rscale>  2 0.33387023E+03</rscale>
<asrwt>0</asrwt>
<pdfrwt beam="1">  1       21 0.69738646E-01 0.33387023E+03</pdfrwt>
<pdfrwt beam="2">  1       21 0.41694502E-01 0.33387023E+03</pdfrwt>
<totfact> 0.95945405E+03</totfact>
</mgrwt>
</event>
<event>
 4    2  0.4024741E+000  0.2001788E+03  0.7546771E-02  0.1149588E+00
         21   -1    0    0  503  502  0.00000000000E+00  0.00000000000E+00  0.70106198494E+02  0.70106198494E+02  0.00000000000E+00 0.  1.
         21   -1    0    0  501  503 -0.00000000000E+00 -0.00000000000E+00 -0.63088107466E+03  0.63088107466E+03  0.00000000000E+00 0.  1.
          6    1    1    2  501    0  0.26050191505E+02  0.97282871327E+02 -0.17293317753E+03  0.26453251865E+03  0.17300000000E+03 0.  1.
         -6    1    1    2    0  502 -0.26050191505E+02 -0.97282871327E+02 -0.38784169864E+03  0.43645475451E+03  0.17300000000E+03 0.  1.
<mgrwt>
<rscale>  2 0.20017884E+03</rscale>
<asrwt>0</asrwt>
<pdfrwt beam="1">  1       21 0.10785569E-01 0.20017884E+03</pdfrwt>
<pdfrwt beam="2">  1       21 0.97058624E-01 0.20017884E+03</pdfrwt>
<totfact> 0.62291786E+04</totfact>
</mgrwt>
</event>
<event>
 4    2  0.4024741E+000  0.2055059E+03  0.7546771E-02  0.1145175E+00
         21   -1    0    0  501  502  0.00000000000E+00  0.00000000000E+00  0.21113038019E+03  0.21113038019E+03  0.00000000000E+00 0.  1.
         21   -1    0    0  502  503 -0.00000000000E+00 -0.00000000000E+00 -0.20278395360E+03  0.20278395360E+03  0.00000000000E+00 0. -1.
          6    1    1    2  501    0 -0.11342327177E+02  0.11034052126E+03 -0.19939244326E+02  0.20647094828E+03  0.17300000000E+03 0. -1.
         -6    1    1    2    0  503  0.11342327177E+02 -0.11034052126E+03  0.28285670916E+02  0.20744338552E+03  0.17300000000E+03 0.  1.
<mgrwt>
<rscale>  2 0.20550591E+03</rscale>
<asrwt>0</asrwt>
<pdfrwt beam="1">  1       21 0.32481597E-01 0.20550591E+03</pdfrwt>
<pdfrwt beam="2">  1       21 0.31197531E-01 0.20550591E+03</pdfrwt>
<totfact> 0.89557311E+04</totfact>
</mgrwt>
</event>
<event>
 4    2  0.4024741E+000  0.1736114E+03  0.7546771E-02  0.1174133E+00
         21   -1    0    0  501  502  0.00000000000E+00  0.00000000000E+00  0.45808850317E+03  0.45808850317E+03  0.00000000000E+00 0. -1.
         21   -1    0    0  502  503 -0.00000000000E+00 -0.00000000000E+00 -0.86928395832E+02  0.86928395832E+02  0.00000000000E+00 0. -1.
          6    1    1    2  501    0  0.76581518987E+01  0.12380162297E+02  0.51222607058E+02  0.18101014110E+03  0.17300000000E+03 0. -1.
         -6    1    1    2    0  503 -0.76581518987E+01 -0.12380162297E+02  0.31993750028E+03  0.36400675790E+03  0.17300000000E+03 0. -1.
<mgrwt>
<rscale>  2 0.17361139E+03</rscale>
<asrwt>0</asrwt>
<pdfrwt beam="1">  1       21 0.70475153E-01 0.17361139E+03</pdfrwt>
<pdfrwt beam="2">  1       21 0.13373600E-01 0.17361139E+03</pdfrwt>
<totfact> 0.88858861E+04</totfact>
</mgrwt>
</event>
<event>
 4    2  0.4024741E+000  0.1788981E+03  0.7546771E-02  0.1168874E+00
         21   -1    0    0  501  502  0.00000000000E+00  0.00000000000E+00  0.21519651084E+03  0.21519651084E+03  0.00000000000E+00 0. -1.
         21   -1    0    0  502  503 -0.00000000000E+00 -0.00000000000E+00 -0.14880380997E+03  0.14880380997E+03  0.00000000000E+00 0. -1.
          6    1    1    2  501    0  0.90732458636E+01 -0.44645340241E+02  0.37454730348E+02  0.18277687770E+03  0.17300000000E+03 0.  1.
         -6    1    1    2    0  503 -0.90732458636E+01  0.44645340241E+02  0.28937970519E+02  0.18122344311E+03  0.17300000000E+03 0.  1.
<mgrwt>
<rscale>  2 0.17889810E+03</rscale>
<asrwt>0</asrwt>
<pdfrwt beam="1">  1       21 0.33107155E-01 0.17889810E+03</pdfrwt>
<pdfrwt beam="2">  1       21 0.22892894E-01 0.17889810E+03</pdfrwt>
<totfact> 0.15797282E+05</totfact>
</mgrwt>
</event>
<event>
 4    2  0.4024741E+000  0.1838437E+03  0.7546771E-02  0.1164134E+00
         21   -1    0    0  503  502  0.00000000000E+00  0.00000000000E+00  0.16164523329E+03  0.16164523329E+03  0.00000000000E+00 0.  1.
         21   -1    0    0  501  503 -0.00000000000E+00 -0.00000000000E+00 -0.27033752730E+03  0.27033752730E+03  0.00000000000E+00 0. -1.
          6    1    1    2  501    0  0.38235784437E+02  0.49066538070E+02  0.48461488282E+02  0.19012368663E+03  0.17300000000E+03 0.  1.
         -6    1    1    2    0  502 -0.38235784437E+02 -0.49066538070E+02 -0.15715378229E+03  0.24185907396E+03  0.17300000000E+03 0. -1.
<mgrwt>
<rscale>  2 0.18384368E+03</rscale>
<asrwt>0</asrwt>
<pdfrwt beam="1">  1       21 0.24868498E-01 0.18384368E+03</pdfrwt>
<pdfrwt beam="2">  1       21 0.41590388E-01 0.18384368E+03</pdfrwt>
<totfact> 0.85457343E+04</totfact>
</mgrwt>
</event>
<event>
 4    2  0.4024741E+000  0.2266787E+03  0.7546771E-02  0.1129000E+00
         21   -1    0    0  501  502  0.00000000000E+00  0.00000000000E+00  0.15526614041E+03  0.15526614041E+03  0.00000000000E+00 0.  1.
         21   -1    0    0  502  503 -0.00000000000E+00 -0.00000000000E+00 -0.12591754184E+04  0.12591754184E+04  0.00000000000E+00 0.  1.
          6    1    1    2  501    0  0.50839910392E+02  0.13736642286E+03  0.55259372591E+02  0.23331701369E+03  0.17300000000E+03 0.  1.
         -6    1    1    2    0  503 -0.50839910392E+02 -0.13736642286E+03 -0.11591686506E+04  0.11811245451E+04  0.17300000000E+03 0.  1.
<mgrwt>
<rscale>  2 0.22667869E+03</rscale>
<asrwt>0</asrwt>
<pdfrwt beam="1">  1       21 0.23887098E-01 0.22667869E+03</pdfrwt>
<pdfrwt beam="2">  1       21 0.19371930E+00 0.22667869E+03</pdfrwt>
<totfact> 0.23583067E+03</totfact>
</mgrwt>
</event>
<event>
 4    2  0.4024741E+000  0.3018491E+03  0.7546771E-02  0.1084320E+00
         21   -1    0    0  501  502  0.00000000000E+00  0.00000000000E+00  0.62802206190E+03  0.62802206190E+03  0.00000000000E+00 0. -1.
         21   -1    0    0  502  503 -0.00000000000E+00 -0.00000000000E+00 -0.21891474777E+03  0.21891474777E+03  0.00000000000E+00 0.  1.
          6    1    1    2  501    0  0.12955788298E+03  0.21070987164E+03  0.45048645813E+03  0.54226464389E+03  0.17300000000E+03 0. -1.
         -6    1    1    2    0  503 -0.12955788298E+03 -0.21070987164E+03 -0.41379143997E+02  0.30467216579E+03  0.17300000000E+03 0.  1.
<mgrwt>
<rscale>  2 0.30184913E+03</rscale>
<asrwt>0</asrwt>
<pdfrwt beam="1">  1       21 0.96618778E-01 0.30184913E+03</pdfrwt>
<pdfrwt beam="2">  1       21 0.33679192E-01 0.30184913E+03</pdfrwt>
<totfact> 0.70774195E+03</totfact>
</mgrwt>
</event>
<event>
 4    2  0.4024741E+000  0.1790699E+03  0.7546771E-02  0.1168706E+00
         21   -1    0    0  501  502  0.00000000000E+00  0.00000000000E+00  0.75740209481E+02  0.75740209481E+02  0.00000000000E+00 0.  1.
         21   -1    0    0  502  503 -0.00000000000E+00 -0.00000000000E+00 -0.44060985680E+03  0.44060985680E+03  0.00000000000E+00 0.  1.
          6    1    1    2  501    0  0.20052110549E+02 -0.41652556715E+02 -0.13136407376E+03  0.22208679045E+03  0.17300000000E+03 0. -1.
         -6    1    1    2    0  503 -0.20052110549E+02  0.41652556715E+02 -0.23350557356E+03  0.29426327583E+03  0.17300000000E+03 0. -1.
<mgrwt>
<rscale>  2 0.17906988E+03</rscale>
<asrwt>0</asrwt>
<pdfrwt beam="1">  1       21 0.11652340E-01 0.17906988E+03</pdfrwt>
<pdfrwt beam="2">  1       21 0.67786130E-01 0.17906988E+03</pdfrwt>
<totfact> 0.12359099E+05</totfact>
</mgrwt>
</event>
<event>
 4    2  0.4024741E+000  0.1861488E+03  0.7546771E-02  0.1161981E+00
         21   -1    0    0  501  502  0.00000000000E+00  0.00000000000E+00  0.22309985576E+03  0.22309985576E+03  0.00000000000E+00 0.  1.
         21   -1    0    0  502  503 -0.00000000000E+00 -0.00000000000E+00 -0.17552143230E+03  0.17552143230E+03  0.00000000000E+00 0.  1.
          6    1    1    2  501    0 -0.59688094055E+02 -0.34054444230E+02  0.91410024386E+02  0.20738169230E+03  0.17300000000E+03 0.  1.
         -6    1    1    2    0  503  0.59688094055E+02  0.34054444230E+02 -0.43831600930E+02  0.19123959575E+03  0.17300000000E+03 0.  1.
<mgrwt>
<rscale>  2 0.18614879E+03</rscale>
<asrwt>0</asrwt>
<pdfrwt beam="1">  1       21 0.34323055E-01 0.18614879E+03</pdfrwt>
<pdfrwt beam="2">  1       21 0.27003297E-01 0.18614879E+03</pdfrwt>
<totfact> 0.10713632E+05</totfact>
</mgrwt>
</event>
<event>
 4    2  0.4024741E+000  0.2078593E+03  0.7546771E-02  0.1143272E+00
         21   -1    0    0  503  502  0.00000000000E+00  0.00000000000E+00  0.34106470287E+03  0.34106470287E+03  0.00000000000E+00 0. -1.
         21   -1    0    0  501  503 -0.00000000000E+00 -0.00000000000E+00 -0.21625994610E+03  0.21625994610E+03  0.00000000000E+00 0.  1.
          6    1    1    2  501    0  0.24819366113E+02  0.11251883302E+03 -0.11694696318E+03  0.23849964552E+03  0.17300000000E+03 0.  1.
         -6    1    1    2    0  502 -0.24819366113E+02 -0.11251883302E+03  0.24175171995E+03  0.31882500344E+03  0.17300000000E+03 0. -1.
<mgrwt>
<rscale>  2 0.20785930E+03</rscale>
<asrwt>0</asrwt>
<pdfrwt beam="1">  1       21 0.52471493E-01 0.20785930E+03</pdfrwt>
<pdfrwt beam="2">  1       21 0.33270761E-01 0.20785930E+03</pdfrwt>
<totfact> 0.29715587E+04</totfact>
</mgrwt>
</event>
<event>
 4    2  0.4024741E+000  0.2219522E+03  0.7546771E-02  0.1132436E+00
         21   -1    0    0  501  502  0.00000000000E+00  0.00000000000E+00  0.12645367547E+03  0.12645367547E+03  0.00000000000E+00 0.  1.
         21   -1    0    0  502  503 -0.00000000000E+00 -0.00000000000E+00 -0.39263189579E+03  0.39263189579E+03  0.00000000000E+00 0.  1.
          6    1    1    2  501    0 -0.13904167015E+03  0.10995130731E+01 -0.11017628529E+03  0.24779348015E+03  0.17300000000E+03 0.  1.
         -6    1    1    2    0  503  0.13904167015E+03 -0.10995130731E+01 -0.15600193503E+03  0.27129209111E+03  0.17300000000E+03 0.  1.
<mgrwt>
<rscale>  2 0.22195224E+03</rscale>
<asrwt>0</asrwt>
<pdfrwt beam="1">  1       21 0.19454411E-01 0.22195224E+03</pdfrwt>
<pdfrwt beam="2">  1       21 0.60404908E-01 0.22195224E+03</pdfrwt>
<totfact> 0.61260001E+04</totfact>
</mgrwt>
</event>
<event>
 4    2  0.4024741E+000  0.1997557E+03  0.7546771E-02  0.1149945E+00
         21   -1    0    0  501  502  0.00000000000E+00  0.00000000000E+00  0.82087019787E+03  0.82087019787E+03  0.00000000000E+00 0.  1.
         21   -1    0    0  502  503 -0.00000000000E+00 -0.00000000000E+00 -0.89701549195E+02  0.89701549195E+02  0.00000000000E+00 0. -1.
          6    1    1    2  501    0 -0.80668281925E+02 -0.58872490254E+02  0.67373383427E+03  0.70272300465E+03  0.17300000000E+03 0.  1.
         -6    1    1    2    0  503  0.80668281925E+02  0.58872490254E+02  0.57434814397E+02  0.20784874241E+03  0.17300000000E+03 0. -1.
<mgrwt>
<rscale>  2 0.19975571E+03</rscale>
<asrwt>0</asrwt>
<pdfrwt beam="1">  1       21 0.12628772E+00 0.19975571E+03</pdfrwt>
<pdfrwt beam="2">  1       21 0.13800239E-01 0.19975571E+03</pdfrwt>
<totfact> 0.21121330E+04</totfact>
</mgrwt>
</event>
<event>
 4    2  0.4024741E+000  0.2378737E+03  0.7546771E-02  0.1121217E+00
         21   -1    0    0  501  502  0.00000000000E+00  0.00000000000E+00  0.38728308843E+02  0.38728308843E+02  0.00000000000E+00 0. -1.
         21   -1    0    0  502  503 -0.00000000000E+00 -0.00000000000E+00 -0.14702432899E+04  0.14702432899E+04  0.00000000000E+00 0. -1.
          6    1    1    2  501    0  0.89131824796E+02  0.13678602091E+03 -0.65608809179E+03  0.69787927459E+03  0.17300000000E+03 0.  1.
         -6    1    1    2    0  503 -0.89131824796E+02 -0.13678602091E+03 -0.77542688925E+03  0.81109232414E+03  0.17300000000E+03 0.  1.
<mgrwt>
<rscale>  2 0.23787370E+03</rscale>
<asrwt>0</asrwt>
<pdfrwt beam="1">  1       21 0.59582017E-02 0.23787370E+03</pdfrwt>
<pdfrwt beam="2">  1       21 0.22619126E+00 0.23787370E+03</pdfrwt>
<totfact> 0.17773819E+04</totfact>
</mgrwt>
</event>
<event>
 4    2  0.4024741E+000  0.2253779E+03  0.7546771E-02  0.1129936E+00
         21   -1    0    0  503  502  0.00000000000E+00  0.00000000000E+00  0.34226128655E+03  0.34226128655E+03  0.00000000000E+00 0.  1.
         21   -1    0    0  501  503 -0.00000000000E+00 -0.00000000000E+00 -0.14875531774E+03  0.14875531774E+03  0.00000000000E+00 0.  1.
          6    1    1    2  501    0 -0.34684553521E+02 -0.14022546276E+03  0.84934288842E+02  0.24085064268E+03  0.17300000000E+03 0. -1.
         -6    1    1    2    0  502  0.34684553521E+02  0.14022546276E+03  0.10857167997E+03  0.25016596161E+03  0.17300000000E+03 0. -1.
<mgrwt>
<rscale>  2 0.22537790E+03</rscale>
<asrwt>0</asrwt>
<pdfrwt beam="1">  1       21 0.52655582E-01 0.22537790E+03</pdfrwt>
<pdfrwt beam="2">  1       21 0.22885434E-01 0.22537790E+03</pdfrwt>
<totfact> 0.60370423E+04</totfact>
</mgrwt>
</event>
<event>
 4    2  0.4024741E+000  0.3044130E+03  0.7546771E-02  0.1083055E+00
         21   -1    0    0  501  502  0.00000000000E+00  0.00000000000E+00  0.13193280352E+03  0.13193280352E+03  0.00000000000E+00 0. -1.
         21   -1    0    0  502  503 -0.00000000000E+00 -0.00000000000E+00 -0.93179227210E+03  0.93179227210E+03  0.00000000000E+00 0.  1.
          6    1    1    2  501    0  0.14585220189E+03 -0.20363051931E+03 -0.13602566484E+03  0.33342200690E+03  0.17300000000E+03 0. -1.
         -6    1    1    2    0  503 -0.14585220189E+03  0.20363051931E+03 -0.66383380374E+03  0.73030306872E+03  0.17300000000E+03 0.  1.
<mgrwt>
<rscale>  2 0.30441296E+03</rscale>
<asrwt>0</asrwt>
<pdfrwt beam="1">  1       21 0.20297354E-01 0.30441296E+03</pdfrwt>
<pdfrwt beam="2">  1       21 0.14335266E+00 0.30441296E+03</pdfrwt>
<totfact> 0.70369393E+03</totfact>
</mgrwt>
</event>
<event>
 4    2  0.4024741E+000  0.1884496E+03  0.7546771E-02  0.1159867E+00
         21   -1    0    0  501  502  0.00000000000E+00  0.00000000000E+00  0.19749770260E+03  0.19749770260E+03  0.00000000000E+00 0. -1.
         21   -1    0    0  502  503 -0.00000000000E+00 -0.00000000000E+00 -0.33309397002E+03  0.33309397002E+03  0.00000000000E+00 0. -1.
          6    1    1    2  501    0 -0.43804719409E+02 -0.60542407875E+02  0.11216642778E+03  0.21930468329E+03  0.17300000000E+03 0. -1.
         -6    1    1    2    0  503  0.43804719409E+02  0.60542407875E+02 -0.24776269520E+03  0.31128698933E+03  0.17300000000E+03 0. -1.
<mgrwt>
<rscale>  2 0.18844956E+03</rscale>
<asrwt>0</asrwt>
<pdfrwt beam="1">  1       21 0.30384262E-01 0.18844956E+03</pdfrwt>
<pdfrwt beam="2">  1       21 0.51245226E-01 0.18844956E+03</pdfrwt>
<totfact> 0.37705638E+04</totfact>
</mgrwt>
</event>
<event>
 4    2  0.4024741E+000  0.2461625E+03  0.7546771E-02  0.1115754E+00
         21   -1    0    0  503  502  0.00000000000E+00  0.00000000000E+00  0.12015434703E+04  0.12015434703E+04  0.00000000000E+00 0.  1.
         21   -1    0    0  501  503 -0.00000000000E+00 -0.00000000000E+00 -0.82997930153E+02  0.82997930153E+02  0.00000000000E+00 0.  1.
          6    1    1    2  501    0  0.17495429764E+03  0.76149917584E+01  0.15695650783E+03  0.29194406949E+03  0.17300000000E+03 0.  1.
         -6    1    1    2    0  502 -0.17495429764E+03 -0.76149917584E+01  0.96158903236E+03  0.99259733100E+03  0.17300000000E+03 0.  1.
<mgrwt>
<rscale>  2 0.24616254E+03</rscale>
<asrwt>0</asrwt>
<pdfrwt beam="1">  1       21 0.18485283E+00 0.24616254E+03</pdfrwt>
<pdfrwt beam="2">  1       21 0.12768913E-01 0.24616254E+03</pdfrwt>
<totfact> 0.85076342E+03</totfact>
</mgrwt>
</event>
<event>
 4    2  0.4024741E+000  0.1941863E+03  0.7546771E-02  0.1154739E+00
         21   -1    0    0  503  502  0.00000000000E+00  0.00000000000E+00  0.49456819047E+02  0.49456819047E+02  0.00000000000E+00 0. -1.
         21   -1    0    0  501  503 -0.00000000000E+00 -0.00000000000E+00 -0.15817465500E+04  0.15817465500E+04  0.00000000000E+00 0.  1.
          6    1    1    2  501    0 -0.88193851100E+02 -0.10852757366E+01 -0.13531343595E+04  0.13669970476E+04  0.17300000000E+03 0.  1.
         -6    1    1    2    0  502  0.88193851100E+02  0.10852757366E+01 -0.17915537149E+03  0.26420632151E+03  0.17300000000E+03 0. -1.
<mgrwt>
<rscale>  2 0.19418634E+03</rscale>
<asrwt>0</asrwt>
<pdfrwt beam="1">  1       21 0.76087416E-02 0.19418634E+03</pdfrwt>
<pdfrwt beam="2">  1       21 0.24334562E+00 0.19418634E+03</pdfrwt>
<totfact> 0.95159587E+03</totfact>
</mgrwt>
</event>
<event>
 4    2  0.4024741E+000  0.1952132E+03  0.7546771E-02  0.1153842E+00
         21   -1    0    0  503  502  0.00000000000E+00  0.00000000000E+00  0.22728736112E+03  0.22728736112E+03  0.00000000000E+00 0.  1.
         21   -1    0    0  501  503 -0.00000000000E+00 -0.00000000000E+00 -0.17093377286E+03  0.17093377286E+03  0.00000000000E+00 0. -1.
          6    1    1    2  501    0 -0.82918890810E+02 -0.36106018459E+02  0.55710055276E+02  0.20300688974E+03  0.17300000000E+03 0. -1.
         -6    1    1    2    0  502  0.82918890810E+02  0.36106018459E+02  0.64353298774E+00  0.19521424425E+03  0.17300000000E+03 0.  1.
<mgrwt>
<rscale>  2 0.19521318E+03</rscale>
<asrwt>0</asrwt>
<pdfrwt beam="1">  1       21 0.34967287E-01 0.19521318E+03</pdfrwt>
<pdfrwt beam="2">  1       21 0.26297503E-01 0.19521318E+03</pdfrwt>
<totfact> 0.10828988E+05</totfact>
</mgrwt>
</event>
<event>
 4    2  0.4024741E+000  0.1843419E+03  0.7546771E-02  0.1163666E+00
         21   -1    0    0  501  502  0.00000000000E+00  0.00000000000E+00  0.18301763300E+03  0.18301763300E+03  0.00000000000E+00 0. -1.
         21   -1    0    0  502  503 -0.00000000000E+00 -0.00000000000E+00 -0.20899389736E+03  0.20899389736E+03  0.00000000000E+00 0. -1.
          6    1    1    2  501    0 -0.59260908100E+02 -0.23261108434E+02 -0.78459160149E+02  0.20034413943E+03  0.17300000000E+03 0. -1.
         -6    1    1    2    0  503  0.59260908100E+02  0.23261108434E+02  0.52482895795E+02  0.19166739093E+03  0.17300000000E+03 0. -1.
<mgrwt>
<rscale>  2 0.18434190E+03</rscale>
<asrwt>0</asrwt>
<pdfrwt beam="1">  1       21 0.28156559E-01 0.18434190E+03</pdfrwt>
<pdfrwt beam="2">  1       21 0.32152907E-01 0.18434190E+03</pdfrwt>
<totfact> 0.11248235E+05</totfact>
</mgrwt>
</event>
<event>
 4    2  0.4024741E+000  0.2326094E+03  0.7546771E-02  0.1124817E+00
         21   -1    0    0  503  502  0.00000000000E+00  0.00000000000E+00  0.43932771368E+03  0.43932771368E+03  0.00000000000E+00 0. -1.
         21   -1    0    0  501  503 -0.00000000000E+00 -0.00000000000E+00 -0.49348520136E+03  0.49348520136E+03  0.00000000000E+00 0. -1.
          6    1    1    2  501    0  0.15225915467E+03 -0.31547791895E+02 -0.43111447405E+03  0.48986406593E+03  0.17300000000E+03 0. -1.
         -6    1    1    2    0  502 -0.15225915467E+03  0.31547791895E+02  0.37695698637E+03  0.44294884911E+03  0.17300000000E+03 0. -1.
<mgrwt>
<rscale>  2 0.23260936E+03</rscale>
<asrwt>0</asrwt>
<pdfrwt beam="1">  1       21 0.67588880E-01 0.23260936E+03</pdfrwt>
<pdfrwt beam="2">  1       21 0.75920799E-01 0.23260936E+03</pdfrwt>
<totfact> 0.29994693E+03</totfact>
</mgrwt>
</event>
<event>
 4    2  0.4024741E+000  0.1957492E+03  0.7546771E-02  0.1153376E+00
         21   -1    0    0  501  502  0.00000000000E+00  0.00000000000E+00  0.10155820985E+03  0.10155820985E+03  0.00000000000E+00 0.  1.
         21   -1    0    0  502  503 -0.00000000000E+00 -0.00000000000E+00 -0.11399801629E+04  0.11399801629E+04  0.00000000000E+00 0.  1.
          6    1    1    2  501    0  0.60694900273E+02  0.68591976551E+02 -0.11457107912E+02  0.19608415410E+03  0.17300000000E+03 0.  1.
         -6    1    1    2    0  503 -0.60694900273E+02 -0.68591976551E+02 -0.10269648452E+04  0.10454542187E+04  0.17300000000E+03 0.  1.
<mgrwt>
<rscale>  2 0.19574915E+03</rscale>
<asrwt>0</asrwt>
<pdfrwt beam="1">  1       21 0.15624340E-01 0.19574915E+03</pdfrwt>
<pdfrwt beam="2">  1       21 0.17538156E+00 0.19574915E+03</pdfrwt>
<totfact> 0.71094094E+03</totfact>
</mgrwt>
</event>
<event>
 4    2  0.4024741E+000  0.2323038E+03  0.7546771E-02  0.1125029E+00
         21   -1    0    0  501  502  0.00000000000E+00  0.00000000000E+00  0.12172428837E+04  0.12172428837E+04  0.00000000000E+00 0. -1.
         21   -1    0    0  502  503 -0.00000000000E+00 -0.00000000000E+00 -0.61467239114E+02  0.61467239114E+02  0.00000000000E+00 0. -1.
          6    1    1    2  501    0 -0.14422840671E+03  0.56870249890E+02  0.91544079988E+03  0.94445588394E+03  0.17300000000E+03 0. -1.
         -6    1    1    2    0  503  0.14422840671E+03 -0.56870249890E+02  0.24033484471E+03  0.33425423888E+03  0.17300000000E+03 0. -1.
<mgrwt>
<rscale>  2 0.23230381E+03</rscale>
<asrwt>0</asrwt>
<pdfrwt beam="1">  1       21 0.18726812E+00 0.23230381E+03</pdfrwt>
<pdfrwt beam="2">  1       21 0.94564992E-02 0.23230381E+03</pdfrwt>
<totfact> 0.14144316E+04</totfact>
</mgrwt>
</event>
<event>
 4    2  0.4024741E+000  0.2095802E+03  0.7546771E-02  0.1141899E+00
         21   -1    0    0  503  502  0.00000000000E+00  0.00000000000E+00  0.42542070320E+03  0.42542070320E+03  0.00000000000E+00 0. -1.
         21   -1    0    0  501  503 -0.00000000000E+00 -0.00000000000E+00 -0.26923444253E+03  0.26923444253E+03  0.00000000000E+00 0.  1.
          6    1    1    2  501    0 -0.29413914881E+01  0.11826327955E+03 -0.19462261012E+03  0.28601016668E+03  0.17300000000E+03 0.  1.
         -6    1    1    2    0  502  0.29413914881E+01 -0.11826327955E+03  0.35080887079E+03  0.40864497904E+03  0.17300000000E+03 0. -1.
<mgrwt>
<rscale>  2 0.20958019E+03</rscale>
<asrwt>0</asrwt>
<pdfrwt beam="1">  1       21 0.65449339E-01 0.20958019E+03</pdfrwt>
<pdfrwt beam="2">  1       21 0.41420684E-01 0.20958019E+03</pdfrwt>
<totfact> 0.11916172E+04</totfact>
</mgrwt>
</event>
<event>
 4    2  0.4024741E+000  0.1788795E+03  0.7546771E-02  0.1168892E+00
         21   -1    0    0  503  502  0.00000000000E+00  0.00000000000E+00  0.19239919311E+03  0.19239919311E+03  0.00000000000E+00 0.  1.
         21   -1    0    0  501  503 -0.00000000000E+00 -0.00000000000E+00 -0.22652272938E+03  0.22652272938E+03  0.00000000000E+00 0.  1.
          6    1    1    2  501    0 -0.40334595736E+02  0.21024099995E+02  0.90930256295E+02  0.20066440617E+03  0.17300000000E+03 0.  1.
         -6    1    1    2    0  502  0.40334595736E+02 -0.21024099995E+02 -0.12505379257E+03  0.21825751632E+03  0.17300000000E+03 0.  1.
<mgrwt>
<rscale>  2 0.17887955E+03</rscale>
<asrwt>0</asrwt>
<pdfrwt beam="1">  1       21 0.29599876E-01 0.17887955E+03</pdfrwt>
<pdfrwt beam="2">  1       21 0.34849651E-01 0.17887955E+03</pdfrwt>
<totfact> 0.87291123E+04</totfact>
</mgrwt>
</event>
<event>
 4    2  0.4024741E+000  0.1848322E+03  0.7546771E-02  0.1163207E+00
         21   -1    0    0  503  502  0.00000000000E+00  0.00000000000E+00  0.23925510079E+04  0.23925510079E+04  0.00000000000E+00 0.  1.
         21   -1    0    0  501  503 -0.00000000000E+00 -0.00000000000E+00 -0.14494485118E+02  0.14494485118E+02  0.00000000000E+00 0.  1.
          6    1    1    2  501    0 -0.64804235546E+02 -0.58604654416E+01  0.10422409073E+04  0.10585032087E+04  0.17300000000E+03 0.  1.
         -6    1    1    2    0  502  0.64804235546E+02  0.58604654416E+01  0.13358156155E+04  0.13485422843E+04  0.17300000000E+03 0.  1.
<mgrwt>
<rscale>  2 0.18483218E+03</rscale>
<asrwt>0</asrwt>
<pdfrwt beam="1">  1       21 0.36808446E+00 0.18483218E+03</pdfrwt>
<pdfrwt beam="2">  1       21 0.22299227E-02 0.18483218E+03</pdfrwt>
<totfact> 0.14202444E+04</totfact>
</mgrwt>
</event>
<event>
 4    2  0.4024741E+000  0.1811011E+03  0.7546771E-02  0.1166742E+00
         21   -1    0    0  503  502  0.00000000000E+00  0.00000000000E+00  0.78168714791E+03  0.78168714791E+03  0.00000000000E+00 0. -1.
         21   -1    0    0  501  503 -0.00000000000E+00 -0.00000000000E+00 -0.15052109130E+03  0.15052109130E+03  0.00000000000E+00 0. -1.
          6    1    1    2  501    0 -0.10401431761E+02 -0.52539539526E+02 -0.80263170953E+02  0.19809030670E+03  0.17300000000E+03 0. -1.
         -6    1    1    2    0  502  0.10401431761E+02  0.52539539526E+02  0.71142922757E+03  0.73411793251E+03  0.17300000000E+03 0. -1.
<mgrwt>
<rscale>  2 0.18110106E+03</rscale>
<asrwt>0</asrwt>
<pdfrwt beam="1">  1       21 0.12025956E+00 0.18110106E+03</pdfrwt>
<pdfrwt beam="2">  1       21 0.23157091E-01 0.18110106E+03</pdfrwt>
<totfact> 0.92822544E+03</totfact>
</mgrwt>
</event>
<event>
 4    2  0.4024741E+000  0.2019583E+03  0.7546771E-02  0.1148097E+00
         21   -1    0    0  503  502  0.00000000000E+00  0.00000000000E+00  0.49535760842E+03  0.49535760842E+03  0.00000000000E+00 0.  1.
         21   -1    0    0  501  503 -0.00000000000E+00 -0.00000000000E+00 -0.11678435444E+03  0.11678435444E+03  0.00000000000E+00 0.  1.
          6    1    1    2  501    0 -0.17695914089E+02  0.10268895134E+03  0.23061672732E+02  0.20327077225E+03  0.17300000000E+03 0. -1.
         -6    1    1    2    0  502  0.17695914089E+02 -0.10268895134E+03  0.35551158125E+03  0.40887119061E+03  0.17300000000E+03 0. -1.
<mgrwt>
<rscale>  2 0.20195833E+03</rscale>
<asrwt>0</asrwt>
<pdfrwt beam="1">  1       21 0.76208862E-01 0.20195833E+03</pdfrwt>
<pdfrwt beam="2">  1       21 0.17966824E-01 0.20195833E+03</pdfrwt>
<totfact> 0.43010479E+04</totfact>
</mgrwt>
</event>
<event>
 4    2  0.4024741E+000  0.2302939E+03  0.7546771E-02  0.1126433E+00
         21   -1    0    0  501  502  0.00000000000E+00  0.00000000000E+00  0.53443195937E+02  0.53443195937E+02  0.00000000000E+00 0.  1.
         21   -1    0    0  502  503 -0.00000000000E+00 -0.00000000000E+00 -0.10766507835E+04  0.10766507835E+04  0.00000000000E+00 0.  1.
          6    1    1    2  501    0  0.81465267065E+02  0.12833425657E+03 -0.35350855051E+03  0.42190468880E+03  0.17300000000E+03 0.  1.
         -6    1    1    2    0  503 -0.81465267065E+02 -0.12833425657E+03 -0.66969903710E+03  0.70818929068E+03  0.17300000000E+03 0.  1.
<mgrwt>
<rscale>  2 0.23029388E+03</rscale>
<asrwt>0</asrwt>
<pdfrwt beam="1">  1       21 0.82220301E-02 0.23029388E+03</pdfrwt>
<pdfrwt beam="2">  1       21 0.16563858E+00 0.23029388E+03</pdfrwt>
<totfact> 0.25595533E+04</totfact>
</mgrwt>
</event>
<event>
 4    2  0.4024741E+000  0.1954615E+03  0.7546771E-02  0.1153626E+00
         21   -1    0    0  503  502  0.00000000000E+00  0.00000000000E+00  0.10214131122E+03  0.10214131122E+03  0.00000000000E+00 0.  1.
         21   -1    0    0  501  503 -0.00000000000E+00 -0.00000000000E+00 -0.37694162291E+03  0.37694162291E+03  0.00000000000E+00 0.  1.
          6    1    1    2  501    0 -0.86427114264E+02 -0.28400149147E+02 -0.15840696042E+03  0.25159089741E+03  0.17300000000E+03 0.  1.
         -6    1    1    2    0  502  0.86427114264E+02  0.28400149147E+02 -0.11639335127E+03  0.22749203672E+03  0.17300000000E+03 0.  1.
<mgrwt>
<rscale>  2 0.19546154E+03</rscale>
<asrwt>0</asrwt>
<pdfrwt beam="1">  1       21 0.15714048E-01 0.19546154E+03</pdfrwt>
<pdfrwt beam="2">  1       21 0.57991018E-01 0.19546154E+03</pdfrwt>
<totfact> 0.10033363E+05</totfact>
</mgrwt>
</event>
<event>
 4    2  0.4024741E+000  0.2734245E+03  0.7546771E-02  0.1099336E+00
         21   -1    0    0  503  502  0.00000000000E+00  0.00000000000E+00  0.38516964158E+03  0.38516964158E+03  0.00000000000E+00 0. -1.
         21   -1    0    0  501  503 -0.00000000000E+00 -0.00000000000E+00 -0.20166362870E+03  0.20166362870E+03  0.00000000000E+00 0.  1.
          6    1    1    2  501    0 -0.83951489101E+02 -0.19438135750E+03  0.34923938334E+02  0.27564587088E+03  0.17300000000E+03 0.  1.
         -6    1    1    2    0  502  0.83951489101E+02  0.19438135750E+03  0.14858207455E+03  0.31118739940E+03  0.17300000000E+03 0. -1.
<mgrwt>
<rscale>  2 0.27342451E+03</rscale>
<asrwt>0</asrwt>
<pdfrwt beam="1">  1       21 0.59256868E-01 0.27342451E+03</pdfrwt>
<pdfrwt beam="2">  1       21 0.31025174E-01 0.27342451E+03</pdfrwt>
<totfact> 0.25518154E+04</totfact>
</mgrwt>
</event>
<event>
 4    2  0.4024741E+000  0.2457545E+03  0.7546771E-02  0.1116018E+00
         21   -1    0    0  501  502  0.00000000000E+00  0.00000000000E+00  0.10706895719E+03  0.10706895719E+03  0.00000000000E+00 0. -1.
         21   -1    0    0  502  503 -0.00000000000E+00 -0.00000000000E+00 -0.95316134711E+03  0.95316134711E+03  0.00000000000E+00 0.  1.
          6    1    1    2  501    0  0.12311611767E+03 -0.12372828346E+03 -0.84351646341E+02  0.25982776372E+03  0.17300000000E+03 0. -1.
         -6    1    1    2    0  503 -0.12311611767E+03  0.12372828346E+03 -0.76174074358E+03  0.80040254059E+03  0.17300000000E+03 0.  1.
<mgrwt>
<rscale>  2 0.24575448E+03</rscale>
<asrwt>0</asrwt>
<pdfrwt beam="1">  1       21 0.16472147E-01 0.24575448E+03</pdfrwt>
<pdfrwt beam="2">  1       21 0.14664021E+00 0.24575448E+03</pdfrwt>
<totfact> 0.10111888E+04</totfact>
</mgrwt>
</event>
<event>
 4    2  0.4024741E+000  0.2974399E+03  0.7546771E-02  0.1086527E+00
         21   -1    0    0  501  502  0.00000000000E+00  0.00000000000E+00  0.15705553409E+03  0.15705553409E+03  0.00000000000E+00 0.  1.
         21   -1    0    0  502  503 -0.00000000000E+00 -0.00000000000E+00 -0.10218151915E+04  0.10218151915E+04  0.00000000000E+00 0.  1.
          6    1    1    2  501    0  0.24129102846E+03 -0.17891636606E+02 -0.37537602741E+02  0.29979917060E+03  0.17300000000E+03 0.  1.
         -6    1    1    2    0  503 -0.24129102846E+03  0.17891636606E+02 -0.82722205463E+03  0.87907155496E+03  0.17300000000E+03 0.  1.
<mgrwt>
<rscale>  2 0.29743986E+03</rscale>
<asrwt>0</asrwt>
<pdfrwt beam="1">  1       21 0.24162390E-01 0.29743986E+03</pdfrwt>
<pdfrwt beam="2">  1       21 0.15720233E+00 0.29743986E+03</pdfrwt>
<totfact> 0.39572797E+03</totfact>
</mgrwt>
</event>
<event>
 4    2  0.4024741E+000  0.2039367E+03  0.7546771E-02  0.1146459E+00
         21   -1    0    0  501  502  0.00000000000E+00  0.00000000000E+00  0.30645913043E+02  0.30645913043E+02  0.00000000000E+00 0.  1.
         21   -1    0    0  502  503 -0.00000000000E+00 -0.00000000000E+00 -0.14386837785E+04  0.14386837785E+04  0.00000000000E+00 0.  1.
          6    1    1    2  501    0  0.92929688650E+02 -0.55002413081E+02 -0.52909295859E+03  0.56703575841E+03  0.17300000000E+03 0.  1.
         -6    1    1    2    0  503 -0.92929688650E+02  0.55002413081E+02 -0.87894490689E+03  0.90229393317E+03  0.17300000000E+03 0.  1.
<mgrwt>
<rscale>  2 0.20393674E+03</rscale>
<asrwt>0</asrwt>
<pdfrwt beam="1">  1       21 0.47147561E-02 0.20393674E+03</pdfrwt>
<pdfrwt beam="2">  1       21 0.22133595E+00 0.20393674E+03</pdfrwt>
<totfact> 0.29081326E+04</totfact>
</mgrwt>
</event>
<event>
 4    2  0.4024741E+000  0.2157482E+03  0.7546771E-02  0.1137093E+00
         21   -1    0    0  503  502  0.00000000000E+00  0.00000000000E+00  0.60786553414E+03  0.60786553414E+03  0.00000000000E+00 0. -1.
         21   -1    0    0  501  503 -0.00000000000E+00 -0.00000000000E+00 -0.83768228574E+02  0.83768228574E+02  0.00000000000E+00 0.  1.
          6    1    1    2  501    0  0.43193330391E+02 -0.12146032646E+03  0.16071122558E+03  0.26902671377E+03  0.17300000000E+03 0.  1.
         -6    1    1    2    0  502 -0.43193330391E+02  0.12146032646E+03  0.36338607999E+03  0.42260704895E+03  0.17300000000E+03 0. -1.
<mgrwt>
<rscale>  2 0.21574817E+03</rscale>
<asrwt>0</asrwt>
<pdfrwt beam="1">  1       21 0.93517772E-01 0.21574817E+03</pdfrwt>
<pdfrwt beam="2">  1       21 0.12887420E-01 0.21574817E+03</pdfrwt>
<totfact> 0.49050852E+04</totfact>
</mgrwt>
</event>
<event>
 4    2  0.4024741E+000  0.2213662E+03  0.7546771E-02  0.1132869E+00
         21   -1    0    0  501  502  0.00000000000E+00  0.00000000000E+00  0.54202711675E+03  0.54202711675E+03  0.00000000000E+00 0. -1.
         21   -1    0    0  502  503 -0.00000000000E+00 -0.00000000000E+00 -0.18398493383E+03  0.18398493383E+03  0.00000000000E+00 0.  1.
          6    1    1    2  501    0  0.13349146696E+03  0.35411988330E+02  0.43790777193E+03  0.49067932235E+03  0.17300000000E+03 0. -1.
         -6    1    1    2    0  503 -0.13349146696E+03 -0.35411988330E+02 -0.79865589010E+02  0.23533272823E+03  0.17300000000E+03 0.  1.
<mgrwt>
<rscale>  2 0.22136617E+03</rscale>
<asrwt>0</asrwt>
<pdfrwt beam="1">  1       21 0.83388786E-01 0.22136617E+03</pdfrwt>
<pdfrwt beam="2">  1       21 0.28305375E-01 0.22136617E+03</pdfrwt>
<totfact> 0.14668101E+04</totfact>
</mgrwt>
</event>
<event>
 4    2  0.4024741E+000  0.1852452E+03  0.7546771E-02  0.1162821E+00
         21   -1    0    0  501  502  0.00000000000E+00  0.00000000000E+00  0.45438135710E+02  0.45438135710E+02  0.00000000000E+00 0.  1.
         21   -1    0    0  502  503 -0.00000000000E+00 -0.00000000000E+00 -0.17808396523E+04  0.17808396523E+04  0.00000000000E+00 0.  1.
          6    1    1    2  501    0  0.11989966722E+02 -0.65138408480E+02 -0.17472557762E+03  0.25464641964E+03  0.17300000000E+03 0.  1.
         -6    1    1    2    0  503 -0.11989966722E+02  0.65138408480E+02 -0.15606759390E+04  0.15716313684E+04  0.17300000000E+03 0.  1.
<mgrwt>
<rscale>  2 0.18524517E+03</rscale>
<asrwt>0</asrwt>
<pdfrwt beam="1">  1       21 0.69904834E-02 0.18524517E+03</pdfrwt>
<pdfrwt beam="2">  1       21 0.27397529E+00 0.18524517E+03</pdfrwt>
<totfact> 0.73680676E+03</totfact>
</mgrwt>
</event>
<event>
 4    2  0.4024741E+000  0.2011286E+03  0.7546771E-02  0.1148790E+00
         21   -1    0    0  503  502  0.00000000000E+00  0.00000000000E+00  0.10375674317E+03  0.10375674317E+03  0.00000000000E+00 0. -1.
         21   -1    0    0  501  503 -0.00000000000E+00 -0.00000000000E+00 -0.43308117679E+03  0.43308117679E+03  0.00000000000E+00 0. -1.
          6    1    1    2  501    0  0.96062342016E+02  0.35996378613E+02 -0.24943856135E+03  0.32042519987E+03  0.17300000000E+03 0. -1.
         -6    1    1    2    0  502 -0.96062342016E+02 -0.35996378613E+02 -0.79885872269E+02  0.21641272009E+03  0.17300000000E+03 0. -1.
<mgrwt>
<rscale>  2 0.20112860E+03</rscale>
<asrwt>0</asrwt>
<pdfrwt beam="1">  1       21 0.15962576E-01 0.20112860E+03</pdfrwt>
<pdfrwt beam="2">  1       21 0.66627873E-01 0.20112860E+03</pdfrwt>
<totfact> 0.72037210E+04</totfact>
</mgrwt>
</event>
<event>
 4    2  0.4024741E+000  0.2585483E+03  0.7546771E-02  0.1108019E+00
         21   -1    0    0  503  502  0.00000000000E+00  0.00000000000E+00  0.49128211475E+03  0.49128211475E+03  0.00000000000E+00 0.  1.
         21   -1    0    0  501  503 -0.00000000000E+00 -0.00000000000E+00 -0.27928386968E+03  0.27928386968E+03  0.00000000000E+00 0. -1.
          6    1    1    2  501    0 -0.16931347590E+03  0.90835841902E+02 -0.16990249556E+03  0.30937689198E+03  0.17300000000E+03 0. -1.
         -6    1    1    2    0  502  0.16931347590E+03 -0.90835841902E+02  0.38190074063E+03  0.46118909245E+03  0.17300000000E+03 0.  1.
<mgrwt>
<rscale>  2 0.25854826E+03</rscale>
<asrwt>0</asrwt>
<pdfrwt beam="1">  1       21 0.75581863E-01 0.25854826E+03</pdfrwt>
<pdfrwt beam="2">  1       21 0.42966749E-01 0.25854826E+03</pdfrwt>
<totfact> 0.78033370E+03</totfact>
</mgrwt>
</event>
<event>
 4    2  0.4024741E+000  0.3148065E+03  0.7546771E-02  0.1078065E+00
         21   -1    0    0  503  502  0.00000000000E+00  0.00000000000E+00  0.15519676899E+03  0.15519676899E+03  0.00000000000E+00 0.  1.
         21   -1    0    0  501  503 -0.00000000000E+00 -0.00000000000E+00 -0.64852159824E+03  0.64852159824E+03  0.00000000000E+00 0.  1.
          6    1    1    2  501    0  0.24545778952E+03  0.94469975813E+02 -0.29645725154E+03  0.43242340912E+03  0.17300000000E+03 0.  1.
         -6    1    1    2    0  502 -0.24545778952E+03 -0.94469975813E+02 -0.19686757771E+03  0.37129495811E+03  0.17300000000E+03 0.  1.
<mgrwt>
<rscale>  2 0.31480645E+03</rscale>
<asrwt>0</asrwt>
<pdfrwt beam="1">  1       21 0.23876427E-01 0.31480645E+03</pdfrwt>
<pdfrwt beam="2">  1       21 0.99772551E-01 0.31480645E+03</pdfrwt>
<totfact> 0.12779647E+04</totfact>
</mgrwt>
</event>
<event>
 4    2  0.4024741E+000  0.2352130E+03  0.7546771E-02  0.1123023E+00
         21   -1    0    0  503  502  0.00000000000E+00  0.00000000000E+00  0.60643697809E+03  0.60643697809E+03  0.00000000000E+00 0. -1.
         21   -1    0    0  501  503 -0.00000000000E+00 -0.00000000000E+00 -0.11044097721E+03  0.11044097721E+03  0.00000000000E+00 0.  1.
          6    1    1    2  501    0  0.92328774253E+02 -0.12989055736E+03  0.39749292284E+03  0.46187204197E+03  0.17300000000E+03 0. -1.
         -6    1    1    2    0  502 -0.92328774253E+02  0.12989055736E+03  0.98503078038E+02  0.25500591332E+03  0.17300000000E+03 0.  1.
<mgrwt>
<rscale>  2 0.23521301E+03</rscale>
<asrwt>0</asrwt>
<pdfrwt beam="1">  1       21 0.93297995E-01 0.23521301E+03</pdfrwt>
<pdfrwt beam="2">  1       21 0.16990920E-01 0.23521301E+03</pdfrwt>
<totfact> 0.29495251E+04</totfact>
</mgrwt>
</event>
<event>
 4    2  0.4024741E+000  0.2042683E+03  0.7546771E-02  0.1146187E+00
         21   -1    0    0  501  502  0.00000000000E+00  0.00000000000E+00  0.20323861541E+04  0.20323861541E+04  0.00000000000E+00 0.  1.
         21   -1    0    0  502  503 -0.00000000000E+00 -0.00000000000E+00 -0.21093841173E+02  0.21093841173E+02  0.00000000000E+00 0. -1.
          6    1    1    2  501    0 -0.97317848531E+02  0.48226333416E+02  0.11734635066E+04  0.11911096273E+04  0.17300000000E+03 0.  1.
         -6    1    1    2    0  503  0.97317848531E+02 -0.48226333416E+02  0.83782880627E+03  0.86237036794E+03  0.17300000000E+03 0. -1.
<mgrwt>
<rscale>  2 0.20426831E+03</rscale>
<asrwt>0</asrwt>
<pdfrwt beam="1">  1       21 0.31267464E+00 0.20426831E+03</pdfrwt>
<pdfrwt beam="2">  1       21 0.32452079E-02 0.20426831E+03</pdfrwt>
<totfact> 0.15835408E+04</totfact>
</mgrwt>
</event>
<event>
 4    2  0.4024741E+000  0.3311252E+03  0.7546771E-02  0.1070640E+00
         21   -1    0    0  501  502  0.00000000000E+00  0.00000000000E+00  0.45632563479E+03  0.45632563479E+03  0.00000000000E+00 0.  1.
         21   -1    0    0  502  503 -0.00000000000E+00 -0.00000000000E+00 -0.24083654341E+03  0.24083654341E+03  0.00000000000E+00 0.  1.
          6    1    1    2  501    0 -0.28232864302E+03 -0.23244489379E+01  0.90919953977E+02  0.34338069801E+03  0.17300000000E+03 0.  1.
         -6    1    1    2    0  503  0.28232864302E+03  0.23244489379E+01  0.12456913740E+03  0.35378148019E+03  0.17300000000E+03 0.  1.
<mgrwt>
<rscale>  2 0.33112515E+03</rscale>
<asrwt>0</asrwt>
<pdfrwt beam="1">  1       21 0.70203944E-01 0.33112515E+03</pdfrwt>
<pdfrwt beam="2">  1       21 0.37051776E-01 0.33112515E+03</pdfrwt>
<totfact> 0.12042494E+04</totfact>
</mgrwt>
</event>
<event>
 4    2  0.4024741E+000  0.1867540E+03  0.7546771E-02  0.1161422E+00
         21   -1    0    0  503  502  0.00000000000E+00  0.00000000000E+00  0.63139667387E+02  0.63139667387E+02  0.00000000000E+00 0.  1.
         21   -1    0    0  501  503 -0.00000000000E+00 -0.00000000000E+00 -0.77424210072E+03  0.77424210072E+03  0.00000000000E+00 0. -1.
          6    1    1    2  501    0  0.99861516527E+01 -0.69630048101E+02 -0.57967968604E+03  0.60902020101E+03  0.17300000000E+03 0. -1.
         -6    1    1    2    0  502 -0.99861516527E+01  0.69630048101E+02 -0.13142274729E+03  0.22836156710E+03  0.17300000000E+03 0. -1.
<mgrwt>
<rscale>  2 0.18675403E+03</rscale>
<asrwt>0</asrwt>
<pdfrwt beam="1">  1       21 0.97137950E-02 0.18675403E+03</pdfrwt>
<pdfrwt beam="2">  1       21 0.11911417E+00 0.18675403E+03</pdfrwt>
<totfact> 0.46084589E+04</totfact>
</mgrwt>
</event>
<event>
 4    2  0.4024741E+000  0.1850507E+03  0.7546771E-02  0.1163003E+00
         21   -1    0    0  501  502  0.00000000000E+00  0.00000000000E+00  0.79688578722E+02  0.79688578722E+02  0.00000000000E+00 0.  1.
         21   -1    0    0  502  503 -0.00000000000E+00 -0.00000000000E+00 -0.44125767638E+03  0.44125767638E+03  0.00000000000E+00 0.  1.
          6    1    1    2  501    0  0.65372237687E+02 -0.64206278571E+01 -0.22290385322E+03  0.28970654411E+03  0.17300000000E+03 0. -1.
         -6    1    1    2    0  503 -0.65372237687E+02  0.64206278571E+01 -0.13866524444E+03  0.23123971099E+03  0.17300000000E+03 0. -1.
<mgrwt>
<rscale>  2 0.18505068E+03</rscale>
<asrwt>0</asrwt>
<pdfrwt beam="1">  1       21 0.12259782E-01 0.18505068E+03</pdfrwt>
<pdfrwt beam="2">  1       21 0.67885795E-01 0.18505068E+03</pdfrwt>
<totfact> 0.11225726E+05</totfact>
</mgrwt>
</event>
<event>
 4    2  0.4024741E+000  0.1935462E+03  0.7546771E-02  0.1155301E+00
         21   -1    0    0  503  502  0.00000000000E+00  0.00000000000E+00  0.87961127958E+02  0.87961127958E+02  0.00000000000E+00 0. -1.
         21   -1    0    0  501  503 -0.00000000000E+00 -0.00000000000E+00 -0.42890755977E+03  0.42890755977E+03  0.00000000000E+00 0. -1.
          6    1    1    2  501    0 -0.67631453080E+02 -0.54379230127E+02 -0.19221737184E+03  0.27277762399E+03  0.17300000000E+03 0. -1.
         -6    1    1    2    0  502  0.67631453080E+02  0.54379230127E+02 -0.14872905998E+03  0.24409106374E+03  0.17300000000E+03 0. -1.
<mgrwt>
<rscale>  2 0.19354615E+03</rscale>
<asrwt>0</asrwt>
<pdfrwt beam="1">  1       21 0.13532481E-01 0.19354615E+03</pdfrwt>
<pdfrwt beam="2">  1       21 0.65985780E-01 0.19354615E+03</pdfrwt>
<totfact> 0.99693758E+04</totfact>
</mgrwt>
</event>
<event>
 4    2  0.4024741E+000  0.1814244E+03  0.7546771E-02  0.1166432E+00
         21   -1    0    0  501  502  0.00000000000E+00  0.00000000000E+00  0.28824845606E+03  0.28824845606E+03  0.00000000000E+00 0. -1.
         21   -1    0    0  502  503 -0.00000000000E+00 -0.00000000000E+00 -0.14988921743E+03  0.14988921743E+03  0.00000000000E+00 0. -1.
          6    1    1    2  501    0 -0.31998341584E+01  0.54548710982E+02  0.17609270934E+03  0.25283085866E+03  0.17300000000E+03 0. -1.
         -6    1    1    2    0  503  0.31998341584E+01 -0.54548710982E+02 -0.37733470711E+02  0.18530681482E+03  0.17300000000E+03 0. -1.
<mgrwt>
<rscale>  2 0.18142437E+03</rscale>
<asrwt>0</asrwt>
<pdfrwt beam="1">  1       21 0.44345916E-01 0.18142437E+03</pdfrwt>
<pdfrwt beam="2">  1       21 0.23059880E-01 0.18142437E+03</pdfrwt>
<totfact> 0.86626581E+04</totfact>
</mgrwt>
</event>
<event>
 4    2  0.4024741E+000  0.2008454E+03  0.7546771E-02  0.1149028E+00
         21   -1    0    0  501  502  0.00000000000E+00  0.00000000000E+00  0.13367635711E+04  0.13367635711E+04  0.00000000000E+00 0.  1.
         21   -1    0    0  502  503 -0.00000000000E+00 -0.00000000000E+00 -0.37269676988E+02  0.37269676988E+02  0.00000000000E+00 0.  1.
          6    1    1    2  501    0 -0.79359128411E+02  0.64124926459E+02  0.94946238074E+03  0.97047292075E+03  0.17300000000E+03 0.  1.
         -6    1    1    2    0  503  0.79359128411E+02 -0.64124926459E+02  0.35003151339E+03  0.40356032736E+03  0.17300000000E+03 0.  1.
<mgrwt>
<rscale>  2 0.20084541E+03</rscale>
<asrwt>0</asrwt>
<pdfrwt beam="1">  1       21 0.20565590E+00 0.20084541E+03</pdfrwt>
<pdfrwt beam="2">  1       21 0.57337975E-02 0.20084541E+03</pdfrwt>
<totfact> 0.26173472E+04</totfact>
</mgrwt>
</event>
<event>
 4    2  0.4024741E+000  0.2318990E+03  0.7546771E-02  0.1125310E+00
         21   -1    0    0  501  502  0.00000000000E+00  0.00000000000E+00  0.87011398888E+03  0.87011398888E+03  0.00000000000E+00 0. -1.
         21   -1    0    0  502  503 -0.00000000000E+00 -0.00000000000E+00 -0.79976181305E+02  0.79976181305E+02  0.00000000000E+00 0. -1.
          6    1    1    2  501    0  0.98986204021E+02  0.11853217784E+03  0.62150700381E+03  0.66336121499E+03  0.17300000000E+03 0. -1.
         -6    1    1    2    0  503 -0.98986204021E+02 -0.11853217784E+03  0.16863080377E+03  0.28672895520E+03  0.17300000000E+03 0. -1.
<mgrwt>
<rscale>  2 0.23189900E+03</rscale>
<asrwt>0</asrwt>
<pdfrwt beam="1">  1       21 0.13386368E+00 0.23189900E+03</pdfrwt>
<pdfrwt beam="2">  1       21 0.12304029E-01 0.23189900E+03</pdfrwt>
<totfact> 0.21990283E+04</totfact>
</mgrwt>
</event>
<event>
 4    2  0.4024741E+000  0.1767006E+03  0.7546771E-02  0.1171035E+00
         21   -1    0    0  501  502  0.00000000000E+00  0.00000000000E+00  0.61440977957E+03  0.61440977957E+03  0.00000000000E+00 0. -1.
         21   -1    0    0  502  503 -0.00000000000E+00 -0.00000000000E+00 -0.57287812808E+02  0.57287812808E+02  0.00000000000E+00 0. -1.
          6    1    1    2  501    0 -0.80035155907E+01  0.35072044757E+02  0.39142538438E+03  0.42946121608E+03  0.17300000000E+03 0. -1.
         -6    1    1    2    0  503  0.80035155907E+01 -0.35072044757E+02  0.16569658238E+03  0.24223637629E+03  0.17300000000E+03 0. -1.
<mgrwt>
<rscale>  2 0.17670061E+03</rscale>
<asrwt>0</asrwt>
<pdfrwt beam="1">  1       21 0.94524577E-01 0.17670061E+03</pdfrwt>
<pdfrwt beam="2">  1       21 0.88135101E-02 0.17670061E+03</pdfrwt>
<totfact> 0.95608909E+04</totfact>
</mgrwt>
</event>
<event>
 4    2  0.4024741E+000  0.2433064E+03  0.7546771E-02  0.1117610E+00
         21   -1    0    0  501  502  0.00000000000E+00  0.00000000000E+00  0.65234092530E+03  0.65234092530E+03  0.00000000000E+00 0. -1.
         21   -1    0    0  502  503 -0.00000000000E+00 -0.00000000000E+00 -0.12043651793E+03  0.12043651793E+03  0.00000000000E+00 0. -1.
          6    1    1    2  501    0  0.99777470170E+02 -0.13897281825E+03  0.74108807686E+02  0.25434249181E+03  0.17300000000E+03 0. -1.
         -6    1    1    2    0  503 -0.99777470170E+02  0.13897281825E+03  0.45779559968E+03  0.51843495142E+03  0.17300000000E+03 0. -1.
<mgrwt>
<rscale>  2 0.24330637E+03</rscale>
<asrwt>0</asrwt>
<pdfrwt beam="1">  1       21 0.10036014E+00 0.24330637E+03</pdfrwt>
<pdfrwt beam="2">  1       21 0.18528696E-01 0.24330637E+03</pdfrwt>
<totfact> 0.21047355E+04</totfact>
</mgrwt>
</event>
<event>
 4    2  0.4024741E+000  0.1737215E+03  0.7546771E-02  0.1174022E+00
         21   -1    0    0  503  502  0.00000000000E+00  0.00000000000E+00  0.31966936180E+03  0.31966936180E+03  0.00000000000E+00 0. -1.
         21   -1    0    0  501  503 -0.00000000000E+00 -0.00000000000E+00 -0.10712644701E+03  0.10712644701E+03  0.00000000000E+00 0. -1.
          6    1    1    2  501    0 -0.10455170708E+01  0.15782353044E+02  0.32740895263E+02  0.17677992532E+03  0.17300000000E+03 0.  1.
         -6    1    1    2    0  502  0.10455170708E+01 -0.15782353044E+02  0.17980201952E+03  0.25001588349E+03  0.17300000000E+03 0.  1.
<mgrwt>
<rscale>  2 0.17372155E+03</rscale>
<asrwt>0</asrwt>
<pdfrwt beam="1">  1       21 0.49179901E-01 0.17372155E+03</pdfrwt>
<pdfrwt beam="2">  1       21 0.16480992E-01 0.17372155E+03</pdfrwt>
<totfact> 0.13111130E+05</totfact>
</mgrwt>
</event>
<event>
 4    2  0.4024741E+000  0.1811565E+03  0.7546771E-02  0.1166688E+00
         21   -1    0    0  501  502  0.00000000000E+00  0.00000000000E+00  0.68847890574E+03  0.68847890574E+03  0.00000000000E+00 0. -1.
         21   -1    0    0  502  503 -0.00000000000E+00 -0.00000000000E+00 -0.54176431780E+02  0.54176431780E+02  0.00000000000E+00 0. -1.
          6    1    1    2  501    0 -0.22252538916E+02 -0.48923309882E+02  0.18843703304E+03  0.26139277182E+03  0.17300000000E+03 0. -1.
         -6    1    1    2    0  503  0.22252538916E+02  0.48923309882E+02  0.44586544092E+03  0.48126256570E+03  0.17300000000E+03 0. -1.
<mgrwt>
<rscale>  2 0.18115647E+03</rscale>
<asrwt>0</asrwt>
<pdfrwt beam="1">  1       21 0.10591983E+00 0.18115647E+03</pdfrwt>
<pdfrwt beam="2">  1       21 0.83348361E-02 0.18115647E+03</pdfrwt>
<totfact> 0.80344198E+04</totfact>
</mgrwt>
</event>
<event>
 4    2  0.4024741E+000  0.1991578E+03  0.7546771E-02  0.1150452E+00
         21   -1    0    0  503  502  0.00000000000E+00  0.00000000000E+00  0.22018005886E+04  0.22018005886E+04  0.00000000000E+00 0.  1.
         21   -1    0    0  501  503 -0.00000000000E+00 -0.00000000000E+00 -0.20480656470E+02  0.20480656470E+02  0.00000000000E+00 0.  1.
          6    1    1    2  501    0  0.44673466549E+02  0.87972262249E+02  0.70506854426E+03  0.73265646087E+03  0.17300000000E+03 0.  1.
         -6    1    1    2    0  502 -0.44673466549E+02 -0.87972262249E+02  0.14762513878E+04  0.14896247842E+04  0.17300000000E+03 0.  1.
<mgrwt>
<rscale>  2 0.19915782E+03</rscale>
<asrwt>0</asrwt>
<pdfrwt beam="1">  1       21 0.33873837E+00 0.19915782E+03</pdfrwt>
<pdfrwt beam="2">  1       21 0.31508720E-02 0.19915782E+03</pdfrwt>
<totfact> 0.11792349E+04</totfact>
</mgrwt>
</event>
<event>
 4    2  0.4024741E+000  0.1808376E+03  0.7546771E-02  0.1166995E+00
         21   -1    0    0  503  502  0.00000000000E+00  0.00000000000E+00  0.17384773488E+03  0.17384773488E+03  0.00000000000E+00 0. -1.
         21   -1    0    0  501  503 -0.00000000000E+00 -0.00000000000E+00 -0.64519784582E+03  0.64519784582E+03  0.00000000000E+00 0. -1.
          6    1    1    2  501    0  0.49132793526E+02 -0.18952553807E+02 -0.58036783559E+03  0.60788901560E+03  0.17300000000E+03 0. -1.
         -6    1    1    2    0  502 -0.49132793526E+02  0.18952553807E+02  0.10901772465E+03  0.21115656510E+03  0.17300000000E+03 0. -1.
<mgrwt>
<rscale>  2 0.18083758E+03</rscale>
<asrwt>0</asrwt>
<pdfrwt beam="1">  1       21 0.26745805E-01 0.18083758E+03</pdfrwt>
<pdfrwt beam="2">  1       21 0.99261208E-01 0.18083758E+03</pdfrwt>
<totfact> 0.11211564E+04</totfact>
</mgrwt>
</event>
<event>
 4    2  0.4024741E+000  0.1941373E+03  0.7546771E-02  0.1154782E+00
         21   -1    0    0  501  502  0.00000000000E+00  0.00000000000E+00  0.14582972900E+03  0.14582972900E+03  0.00000000000E+00 0. -1.
         21   -1    0    0  502  503 -0.00000000000E+00 -0.00000000000E+00 -0.27055323754E+03  0.27055323754E+03  0.00000000000E+00 0.  1.
          6    1    1    2  501    0  0.45772205465E+02  0.75267528244E+02 -0.10640063908E+03  0.22138290719E+03  0.17300000000E+03 0. -1.
         -6    1    1    2    0  503 -0.45772205465E+02 -0.75267528244E+02 -0.18322869463E+02  0.19500005935E+03  0.17300000000E+03 0. -1.
<mgrwt>
<rscale>  2 0.19413731E+03</rscale>
<asrwt>0</asrwt>
<pdfrwt beam="1">  1       21 0.22435343E-01 0.19413731E+03</pdfrwt>
<pdfrwt beam="2">  1       21 0.41623574E-01 0.19413731E+03</pdfrwt>
<totfact> 0.10331972E+05</totfact>
</mgrwt>
</event>
<event>
 4    2  0.4024741E+000  0.2059755E+03  0.7546771E-02  0.1144793E+00
         21   -1    0    0  501  502  0.00000000000E+00  0.00000000000E+00  0.46297475528E+02  0.46297475528E+02  0.00000000000E+00 0. -1.
         21   -1    0    0  502  503 -0.00000000000E+00 -0.00000000000E+00 -0.92500046494E+03  0.92500046494E+03  0.00000000000E+00 0. -1.
          6    1    1    2  501    0 -0.50704814072E+02 -0.99628960162E+02 -0.39245819292E+03  0.44322606090E+03  0.17300000000E+03 0. -1.
         -6    1    1    2    0  503  0.50704814072E+02  0.99628960162E+02 -0.48624479649E+03  0.52807187957E+03  0.17300000000E+03 0. -1.
<mgrwt>
<rscale>  2 0.20597550E+03</rscale>
<asrwt>0</asrwt>
<pdfrwt beam="1">  1       21 0.71226891E-02 0.20597550E+03</pdfrwt>
<pdfrwt beam="2">  1       21 0.14230775E+00 0.20597550E+03</pdfrwt>
<totfact> 0.49977179E+04</totfact>
</mgrwt>
</event>
<event>
 4    2  0.4024741E+000  0.2818225E+03  0.7546771E-02  0.1094698E+00
         21   -1    0    0  501  502  0.00000000000E+00  0.00000000000E+00  0.52173527651E+03  0.52173527651E+03  0.00000000000E+00 0.  1.
         21   -1    0    0  502  503 -0.00000000000E+00 -0.00000000000E+00 -0.16393979821E+03  0.16393979821E+03  0.00000000000E+00 0. -1.
          6    1    1    2  501    0  0.13537846924E+03  0.17654352880E+03  0.87272683638E+02  0.29502621715E+03  0.17300000000E+03 0. -1.
         -6    1    1    2    0  503 -0.13537846924E+03 -0.17654352880E+03  0.27052279466E+03  0.39064885758E+03  0.17300000000E+03 0.  1.
<mgrwt>
<rscale>  2 0.28182255E+03</rscale>
<asrwt>0</asrwt>
<pdfrwt beam="1">  1       21 0.80266965E-01 0.28182255E+03</pdfrwt>
<pdfrwt beam="2">  1       21 0.25221508E-01 0.28182255E+03</pdfrwt>
<totfact> 0.19407346E+04</totfact>
</mgrwt>
</event>
<event>
 4    2  0.4024741E+000  0.1986056E+03  0.7546771E-02  0.1150921E+00
         21   -1    0    0  501  502  0.00000000000E+00  0.00000000000E+00  0.57563996649E+02  0.57563996649E+02  0.00000000000E+00 0.  1.
         21   -1    0    0  502  503 -0.00000000000E+00 -0.00000000000E+00 -0.69279924207E+03  0.69279924207E+03  0.00000000000E+00 0.  1.
          6    1    1    2  501    0  0.19930164540E+02  0.95488148624E+02 -0.27838448284E+03  0.34196800767E+03  0.17300000000E+03 0.  1.
         -6    1    1    2    0  503 -0.19930164540E+02 -0.95488148624E+02 -0.35685076258E+03  0.40839523105E+03  0.17300000000E+03 0.  1.
<mgrwt>
<rscale>  2 0.19860563E+03</rscale>
<asrwt>0</asrwt>
<pdfrwt beam="1">  1       21 0.88560000E-02 0.19860563E+03</pdfrwt>
<pdfrwt beam="2">  1       21 0.10658449E+00 0.19860563E+03</pdfrwt>
<totfact> 0.70616974E+04</totfact>
</mgrwt>
</event>
<event>
 4    2  0.4024741E+000  0.2479825E+03  0.7546771E-02  0.1114587E+00
         21   -1    0    0  503  502  0.00000000000E+00  0.00000000000E+00  0.74498293596E+03  0.74498293596E+03  0.00000000000E+00 0. -1.
         21   -1    0    0  501  503 -0.00000000000E+00 -0.00000000000E+00 -0.91749229753E+02  0.91749229753E+02  0.00000000000E+00 0. -1.
          6    1    1    2  501    0 -0.17521613440E+03 -0.29421587236E+02  0.45912012034E+03  0.52181089338E+03  0.17300000000E+03 0. -1.
         -6    1    1    2    0  502  0.17521613440E+03  0.29421587236E+02  0.19411358587E+03  0.31492127233E+03  0.17300000000E+03 0. -1.
<mgrwt>
<rscale>  2 0.24798251E+03</rscale>
<asrwt>0</asrwt>
<pdfrwt beam="1">  1       21 0.11461276E+00 0.24798251E+03</pdfrwt>
<pdfrwt beam="2">  1       21 0.14115267E-01 0.24798251E+03</pdfrwt>
<totfact> 0.25114612E+04</totfact>
</mgrwt>
</event>
<event>
 4    2  0.4024741E+000  0.1899102E+03  0.7546771E-02  0.1158542E+00
         21   -1    0    0  503  502  0.00000000000E+00  0.00000000000E+00  0.27341471299E+04  0.27341471299E+04  0.00000000000E+00 0. -1.
         21   -1    0    0  501  503 -0.00000000000E+00 -0.00000000000E+00 -0.14635573200E+02  0.14635573200E+02  0.00000000000E+00 0. -1.
          6    1    1    2  501    0  0.14672690520E+02  0.76951919014E+02  0.17915621210E+04  0.18015994891E+04  0.17300000000E+03 0. -1.
         -6    1    1    2    0  502 -0.14672690520E+02 -0.76951919014E+02  0.92794943567E+03  0.94718321398E+03  0.17300000000E+03 0. -1.
<mgrwt>
<rscale>  2 0.18991020E+03</rscale>
<asrwt>0</asrwt>
<pdfrwt beam="1">  1       21 0.42063761E+00 0.18991020E+03</pdfrwt>
<pdfrwt beam="2">  1       21 0.22516288E-02 0.18991020E+03</pdfrwt>
<totfact> 0.65761582E+03</totfact>
</mgrwt>
</event>
<event>
 4    2  0.4024741E+000  0.2125380E+03  0.7546771E-02  0.1139572E+00
         21   -1    0    0  503  502  0.00000000000E+00  0.00000000000E+00  0.14414045984E+03  0.14414045984E+03  0.00000000000E+00 0.  1.
         21   -1    0    0  501  503 -0.00000000000E+00 -0.00000000000E+00 -0.39148827950E+03  0.39148827950E+03  0.00000000000E+00 0.  1.
          6    1    1    2  501    0 -0.92701855098E+02  0.81546060983E+02 -0.24329040510E+03  0.32305203175E+03  0.17300000000E+03 0.  1.
         -6    1    1    2    0  502  0.92701855098E+02 -0.81546060983E+02 -0.40574145581E+01  0.21257670760E+03  0.17300000000E+03 0.  1.
<mgrwt>
<rscale>  2 0.21253798E+03</rscale>
<asrwt>0</asrwt>
<pdfrwt beam="1">  1       21 0.22175455E-01 0.21253798E+03</pdfrwt>
<pdfrwt beam="2">  1       21 0.60228966E-01 0.21253798E+03</pdfrwt>
<totfact> 0.48401156E+04</totfact>
</mgrwt>
</event>
<event>
 4    2  0.4024741E+000  0.1818083E+03  0.7546771E-02  0.1166064E+00
         21   -1    0    0  501  502  0.00000000000E+00  0.00000000000E+00  0.13652883734E+03  0.13652883734E+03  0.00000000000E+00 0. -1.
         21   -1    0    0  502  503 -0.00000000000E+00 -0.00000000000E+00 -0.29927546194E+03  0.29927546194E+03  0.00000000000E+00 0.  1.
          6    1    1    2  501    0 -0.55405113876E+02  0.74507801587E+01  0.13865474014E+02  0.18233620633E+03  0.17300000000E+03 0. -1.
         -6    1    1    2    0  503  0.55405113876E+02 -0.74507801587E+01 -0.17661209861E+03  0.25346809295E+03  0.17300000000E+03 0.  1.
<mgrwt>
<rscale>  2 0.18180825E+03</rscale>
<asrwt>0</asrwt>
<pdfrwt beam="1">  1       21 0.21004437E-01 0.18180825E+03</pdfrwt>
<pdfrwt beam="2">  1       21 0.46042379E-01 0.18180825E+03</pdfrwt>
<totfact> 0.95598557E+04</totfact>
</mgrwt>
</event>
<event>
 4    2  0.4024741E+000  0.1921980E+03  0.7546771E-02  0.1156494E+00
         21   -1    0    0  501  502  0.00000000000E+00  0.00000000000E+00  0.13159947290E+03  0.13159947290E+03  0.00000000000E+00 0.  1.
         21   -1    0    0  502  503 -0.00000000000E+00 -0.00000000000E+00 -0.28100917815E+03  0.28100917815E+03  0.00000000000E+00 0.  1.
          6    1    1    2  501    0 -0.83564443790E+02 -0.52969181264E+01 -0.67870305322E+02  0.20382946782E+03  0.17300000000E+03 0.  1.
         -6    1    1    2    0  503  0.83564443790E+02  0.52969181264E+01 -0.81539399934E+02  0.20877918323E+03  0.17300000000E+03 0.  1.
<mgrwt>
<rscale>  2 0.19219801E+03</rscale>
<asrwt>0</asrwt>
<pdfrwt beam="1">  1       21 0.20246073E-01 0.19219801E+03</pdfrwt>
<pdfrwt beam="2">  1       21 0.43232181E-01 0.19219801E+03</pdfrwt>
<totfact> 0.11608117E+05</totfact>
</mgrwt>
</event>
<event>
 4    2  0.4024741E+000  0.1765353E+03  0.7546771E-02  0.1171199E+00
         21   -1    0    0  501  502  0.00000000000E+00  0.00000000000E+00  0.37548654694E+02  0.37548654694E+02  0.00000000000E+00 0.  1.
         21   -1    0    0  502  503 -0.00000000000E+00 -0.00000000000E+00 -0.85539776894E+03  0.85539776894E+03  0.00000000000E+00 0.  1.
          6    1    1    2  501    0  0.15662387075E+02 -0.31470753128E+02 -0.33196537576E+03  0.37598634201E+03  0.17300000000E+03 0. -1.
         -6    1    1    2    0  503 -0.15662387075E+02  0.31470753128E+02 -0.48588373848E+03  0.51696008163E+03  0.17300000000E+03 0. -1.
<mgrwt>
<rscale>  2 0.17653532E+03</rscale>
<asrwt>0</asrwt>
<pdfrwt beam="1">  1       21 0.57767162E-02 0.17653532E+03</pdfrwt>
<pdfrwt beam="2">  1       21 0.13159966E+00 0.17653532E+03</pdfrwt>
<totfact> 0.88838560E+04</totfact>
</mgrwt>
</event>
<event>
 4    2  0.4024741E+000  0.1924078E+03  0.7546771E-02  0.1156307E+00
         21   -1    0    0  503  502  0.00000000000E+00  0.00000000000E+00  0.37854538764E+03  0.37854538764E+03  0.00000000000E+00 0.  1.
         21   -1    0    0  501  503 -0.00000000000E+00 -0.00000000000E+00 -0.97942049765E+02  0.97942049765E+02  0.00000000000E+00 0.  1.
          6    1    1    2  501    0  0.79245782258E+02 -0.28493397019E+02  0.14945637126E+03  0.24363492071E+03  0.17300000000E+03 0.  1.
         -6    1    1    2    0  502 -0.79245782258E+02  0.28493397019E+02  0.13114696662E+03  0.23285251670E+03  0.17300000000E+03 0.  1.
<mgrwt>
<rscale>  2 0.19240782E+03</rscale>
<asrwt>0</asrwt>
<pdfrwt beam="1">  1       21 0.58237751E-01 0.19240782E+03</pdfrwt>
<pdfrwt beam="2">  1       21 0.15068008E-01 0.19240782E+03</pdfrwt>
<totfact> 0.10747785E+05</totfact>
</mgrwt>
</event>
<event>
 4    2  0.4024741E+000  0.1908363E+03  0.7546771E-02  0.1157709E+00
         21   -1    0    0  501  502  0.00000000000E+00  0.00000000000E+00  0.51649558347E+03  0.51649558347E+03  0.00000000000E+00 0.  1.
         21   -1    0    0  502  503 -0.00000000000E+00 -0.00000000000E+00 -0.33738498290E+03  0.33738498290E+03  0.00000000000E+00 0.  1.
          6    1    1    2  501    0  0.79756059883E+02  0.11334657317E+02  0.46927013277E+03  0.50658953903E+03  0.17300000000E+03 0.  1.
         -6    1    1    2    0  503 -0.79756059883E+02 -0.11334657317E+02 -0.29015953220E+03  0.34729102734E+03  0.17300000000E+03 0.  1.
<mgrwt>
<rscale>  2 0.19083633E+03</rscale>
<asrwt>0</asrwt>
<pdfrwt beam="1">  1       21 0.79460859E-01 0.19083633E+03</pdfrwt>
<pdfrwt beam="2">  1       21 0.51905382E-01 0.19083633E+03</pdfrwt>
<totfact> 0.49282646E+03</totfact>
</mgrwt>
</event>
<event>
 4    2  0.4024741E+000  0.1813435E+03  0.7546771E-02  0.1166509E+00
         21   -1    0    0  501  502  0.00000000000E+00  0.00000000000E+00  0.14420832519E+03  0.14420832519E+03  0.00000000000E+00 0. -1.
         21   -1    0    0  502  503 -0.00000000000E+00 -0.00000000000E+00 -0.60852413498E+03  0.60852413498E+03  0.00000000000E+00 0. -1.
          6    1    1    2  501    0  0.51771329558E+02  0.16618649053E+02  0.65446458820E+02  0.19279182823E+03  0.17300000000E+03 0. -1.
         -6    1    1    2    0  503 -0.51771329558E+02 -0.16618649053E+02 -0.52976226860E+03  0.55994063194E+03  0.17300000000E+03 0. -1.
<mgrwt>
<rscale>  2 0.18134346E+03</rscale>
<asrwt>0</asrwt>
<pdfrwt beam="1">  1       21 0.22185896E-01 0.18134346E+03</pdfrwt>
<pdfrwt beam="2">  1       21 0.93619097E-01 0.18134346E+03</pdfrwt>
<totfact> 0.18341756E+04</totfact>
</mgrwt>
</event>
<event>
 4    2  0.4024741E+000  0.2454197E+03  0.7546771E-02  0.1116234E+00
         21   -1    0    0  501  502  0.00000000000E+00  0.00000000000E+00  0.41812116209E+03  0.41812116209E+03  0.00000000000E+00 0. -1.
         21   -1    0    0  502  503 -0.00000000000E+00 -0.00000000000E+00 -0.19209493655E+03  0.19209493655E+03  0.00000000000E+00 0.  1.
          6    1    1    2  501    0  0.15542643533E+03  0.78386485565E+02  0.26559904572E+03  0.36162642465E+03  0.17300000000E+03 0. -1.
         -6    1    1    2    0  503 -0.15542643533E+03 -0.78386485565E+02 -0.39572820175E+02  0.24858967399E+03  0.17300000000E+03 0.  1.
<mgrwt>
<rscale>  2 0.24541968E+03</rscale>
<asrwt>0</asrwt>
<pdfrwt beam="1">  1       21 0.64326333E-01 0.24541968E+03</pdfrwt>
<pdfrwt beam="2">  1       21 0.29553067E-01 0.24541968E+03</pdfrwt>
<totfact> 0.23782516E+04</totfact>
</mgrwt>
</event>
<event>
 4    2  0.4024741E+000  0.1980114E+03  0.7546771E-02  0.1151428E+00
         21   -1    0    0  503  502  0.00000000000E+00  0.00000000000E+00  0.79624043939E+02  0.79624043939E+02  0.00000000000E+00 0. -1.
         21   -1    0    0  501  503 -0.00000000000E+00 -0.00000000000E+00 -0.93165718709E+03  0.93165718709E+03  0.00000000000E+00 0.  1.
          6    1    1    2  501    0  0.72526255885E+02 -0.63399074857E+02 -0.77320341093E+03  0.79815538284E+03  0.17300000000E+03 0.  1.
         -6    1    1    2    0  502 -0.72526255885E+02  0.63399074857E+02 -0.78829732227E+02  0.21312584819E+03  0.17300000000E+03 0. -1.
<mgrwt>
<rscale>  2 0.19801136E+03</rscale>
<asrwt>0</asrwt>
<pdfrwt beam="1">  1       21 0.12249854E-01 0.19801136E+03</pdfrwt>
<pdfrwt beam="2">  1       21 0.14333187E+00 0.19801136E+03</pdfrwt>
<totfact> 0.18971849E+04</totfact>
</mgrwt>
</event>
<event>
 4    2  0.4024741E+000  0.2117793E+03  0.7546771E-02  0.1140165E+00
         21   -1    0    0  501  502  0.00000000000E+00  0.00000000000E+00  0.24089949106E+03  0.24089949106E+03  0.00000000000E+00 0. -1.
         21   -1    0    0  502  503 -0.00000000000E+00 -0.00000000000E+00 -0.22540705786E+03  0.22540705786E+03  0.00000000000E+00 0.  1.
          6    1    1    2  501    0  0.11716537111E+03 -0.34550940921E+02  0.10501078538E+03  0.23638476421E+03  0.17300000000E+03 0. -1.
         -6    1    1    2    0  503 -0.11716537111E+03  0.34550940921E+02 -0.89518352184E+02  0.22992178471E+03  0.17300000000E+03 0.  1.
<mgrwt>
<rscale>  2 0.21177935E+03</rscale>
<asrwt>0</asrwt>
<pdfrwt beam="1">  1       21 0.37061461E-01 0.21177935E+03</pdfrwt>
<pdfrwt beam="2">  1       21 0.34678009E-01 0.21177935E+03</pdfrwt>
<totfact> 0.55776421E+04</totfact>
</mgrwt>
</event>
<event>
 4    2  0.4024741E+000  0.2012739E+03  0.7546771E-02  0.1148669E+00
         21   -1    0    0  503  502  0.00000000000E+00  0.00000000000E+00  0.32649019614E+02  0.32649019614E+02  0.00000000000E+00 0. -1.
         21   -1    0    0  501  503 -0.00000000000E+00 -0.00000000000E+00 -0.12536648949E+04  0.12536648949E+04  0.00000000000E+00 0.  1.
          6    1    1    2  501    0  0.61140902561E+02 -0.82728332144E+02 -0.67563819807E+03  0.70498096541E+03  0.17300000000E+03 0. -1.
         -6    1    1    2    0  502 -0.61140902561E+02  0.82728332144E+02 -0.54537767723E+03  0.58133294912E+03  0.17300000000E+03 0. -1.
<mgrwt>
<rscale>  2 0.20127391E+03</rscale>
<asrwt>0</asrwt>
<pdfrwt beam="1">  1       21 0.50229260E-02 0.20127391E+03</pdfrwt>
<pdfrwt beam="2">  1       21 0.19287153E+00 0.20127391E+03</pdfrwt>
<totfact> 0.39632945E+04</totfact>
</mgrwt>
</event>
<event>
 4    2  0.4024741E+000  0.2370778E+03  0.7546771E-02  0.1121755E+00
         21   -1    0    0  501  502  0.00000000000E+00  0.00000000000E+00  0.30246559645E+03  0.30246559645E+03  0.00000000000E+00 0.  1.
         21   -1    0    0  502  503 -0.00000000000E+00 -0.00000000000E+00 -0.21795166779E+03  0.21795166779E+03  0.00000000000E+00 0. -1.
          6    1    1    2  501    0 -0.15351740535E+03  0.52050635427E+02 -0.57644103677E+02  0.24398505094E+03  0.17300000000E+03 0. -1.
         -6    1    1    2    0  503  0.15351740535E+03 -0.52050635427E+02  0.14215803234E+03  0.27643221330E+03  0.17300000000E+03 0.  1.
<mgrwt>
<rscale>  2 0.23707776E+03</rscale>
<asrwt>0</asrwt>
<pdfrwt beam="1">  1       21 0.46533169E-01 0.23707776E+03</pdfrwt>
<pdfrwt beam="2">  1       21 0.33531026E-01 0.23707776E+03</pdfrwt>
<totfact> 0.37071766E+04</totfact>
</mgrwt>
</event>
<event>
 4    2  0.4024741E+000  0.2156319E+03  0.7546771E-02  0.1137182E+00
         21   -1    0    0  503  502  0.00000000000E+00  0.00000000000E+00  0.39207495672E+03  0.39207495672E+03  0.00000000000E+00 0.  1.
         21   -1    0    0  501  503 -0.00000000000E+00 -0.00000000000E+00 -0.13123218691E+03  0.13123218691E+03  0.00000000000E+00 0.  1.
          6    1    1    2  501    0  0.32889677880E+02 -0.12444430271E+03  0.49217626788E+02  0.22117750829E+03  0.17300000000E+03 0.  1.
         -6    1    1    2    0  502 -0.32889677880E+02  0.12444430271E+03  0.21162514302E+03  0.30212963533E+03  0.17300000000E+03 0.  1.
<mgrwt>
<rscale>  2 0.21563190E+03</rscale>
<asrwt>0</asrwt>
<pdfrwt beam="1">  1       21 0.60319224E-01 0.21563190E+03</pdfrwt>
<pdfrwt beam="2">  1       21 0.20189567E-01 0.21563190E+03</pdfrwt>
<totfact> 0.57483938E+04</totfact>
</mgrwt>
</event>
<event>
 4    2  0.4024741E+000  0.2073251E+03  0.7546771E-02  0.1143702E+00
         21   -1    0    0  503  502  0.00000000000E+00  0.00000000000E+00  0.14370380213E+04  0.14370380213E+04  0.00000000000E+00 0. -1.
         21   -1    0    0  501  503 -0.00000000000E+00 -0.00000000000E+00 -0.44438420997E+02  0.44438420997E+02  0.00000000000E+00 0. -1.
          6    1    1    2  501    0 -0.42915299174E+02 -0.10589134295E+03  0.27277877859E+03  0.34262510337E+03  0.17300000000E+03 0. -1.
         -6    1    1    2    0  502  0.42915299174E+02  0.10589134295E+03  0.11198208217E+04  0.11388513389E+04  0.17300000000E+03 0. -1.
<mgrwt>
<rscale>  2 0.20732511E+03</rscale>
<asrwt>0</asrwt>
<pdfrwt beam="1">  1       21 0.22108274E+00 0.20732511E+03</pdfrwt>
<pdfrwt beam="2">  1       21 0.68366813E-02 0.20732511E+03</pdfrwt>
<totfact> 0.15422260E+04</totfact>
</mgrwt>
</event>
<event>
 4    2  0.4024741E+000  0.1882781E+03  0.7546771E-02  0.1160024E+00
         21   -1    0    0  501  502  0.00000000000E+00  0.00000000000E+00  0.15943766889E+03  0.15943766889E+03  0.00000000000E+00 0.  1.
         21   -1    0    0  502  503 -0.00000000000E+00 -0.00000000000E+00 -0.26138839239E+03  0.26138839239E+03  0.00000000000E+00 0.  1.
          6    1    1    2  501    0  0.23625323870E+01  0.74256742249E+02  0.30355688722E+02  0.19070949941E+03  0.17300000000E+03 0.  1.
         -6    1    1    2    0  503 -0.23625323870E+01 -0.74256742249E+02 -0.13230641222E+03  0.23011656186E+03  0.17300000000E+03 0.  1.
<mgrwt>
<rscale>  2 0.18827811E+03</rscale>
<asrwt>0</asrwt>
<pdfrwt beam="1">  1       21 0.24528872E-01 0.18827811E+03</pdfrwt>
<pdfrwt beam="2">  1       21 0.40213599E-01 0.18827811E+03</pdfrwt>
<totfact> 0.93753362E+04</totfact>
</mgrwt>
</event>
<event>
 4    2  0.4024741E+000  0.2130437E+03  0.7546771E-02  0.1139178E+00
         21   -1    0    0  501  502  0.00000000000E+00  0.00000000000E+00  0.14785919257E+03  0.14785919257E+03  0.00000000000E+00 0. -1.
         21   -1    0    0  502  503 -0.00000000000E+00 -0.00000000000E+00 -0.55332689513E+03  0.55332689513E+03  0.00000000000E+00 0.  1.
          6    1    1    2  501    0  0.12033851297E+03  0.31260925958E+02  0.31203267301E+02  0.21531662055E+03  0.17300000000E+03 0. -1.
         -6    1    1    2    0  503 -0.12033851297E+03 -0.31260925958E+02 -0.43667096986E+03  0.48586946716E+03  0.17300000000E+03 0.  1.
<mgrwt>
<rscale>  2 0.21304366E+03</rscale>
<asrwt>0</asrwt>
<pdfrwt beam="1">  1       21 0.22747568E-01 0.21304366E+03</pdfrwt>
<pdfrwt beam="2">  1       21 0.85127216E-01 0.21304366E+03</pdfrwt>
<totfact> 0.21381344E+04</totfact>
</mgrwt>
</event>
<event>
 4    2  0.4024741E+000  0.1812895E+03  0.7546771E-02  0.1166561E+00
         21   -1    0    0  503  502  0.00000000000E+00  0.00000000000E+00  0.41379323993E+02  0.41379323993E+02  0.00000000000E+00 0.  1.
         21   -1    0    0  501  503 -0.00000000000E+00 -0.00000000000E+00 -0.88168457968E+03  0.88168457968E+03  0.00000000000E+00 0.  1.
          6    1    1    2  501    0 -0.33457358683E+02 -0.42631979482E+02 -0.56548608649E+03  0.59383532612E+03  0.17300000000E+03 0.  1.
         -6    1    1    2    0  502  0.33457358683E+02  0.42631979482E+02 -0.27481916919E+03  0.32922857756E+03  0.17300000000E+03 0.  1.
<mgrwt>
<rscale>  2 0.18128949E+03</rscale>
<asrwt>0</asrwt>
<pdfrwt beam="1">  1       21 0.63660496E-02 0.18128949E+03</pdfrwt>
<pdfrwt beam="2">  1       21 0.13564379E+00 0.18128949E+03</pdfrwt>
<totfact> 0.69529062E+04</totfact>
</mgrwt>
</event>
<event>
 4    2  0.4024741E+000  0.2132516E+03  0.7546771E-02  0.1139017E+00
         21   -1    0    0  503  502  0.00000000000E+00  0.00000000000E+00  0.22910251461E+03  0.22910251461E+03  0.00000000000E+00 0. -1.
         21   -1    0    0  501  503 -0.00000000000E+00 -0.00000000000E+00 -0.28200107109E+03  0.28200107109E+03  0.00000000000E+00 0. -1.
          6    1    1    2  501    0  0.15236138659E+02 -0.12375416264E+03 -0.16551067066E+03  0.26994446613E+03  0.17300000000E+03 0. -1.
         -6    1    1    2    0  502 -0.15236138659E+02  0.12375416264E+03  0.11261211418E+03  0.24115911957E+03  0.17300000000E+03 0. -1.
<mgrwt>
<rscale>  2 0.21325157E+03</rscale>
<asrwt>0</asrwt>
<pdfrwt beam="1">  1       21 0.35246541E-01 0.21325157E+03</pdfrwt>
<pdfrwt beam="2">  1       21 0.43384780E-01 0.21325157E+03</pdfrwt>
<totfact> 0.39220021E+04</totfact>
</mgrwt>
</event>
<event>
 4    2  0.4024741E+000  0.3832563E+03  0.7546771E-02  0.1049737E+00
         21   -1    0    0  503  502  0.00000000000E+00  0.00000000000E+00  0.28300575113E+03  0.28300575113E+03  0.00000000000E+00 0.  1.
         21   -1    0    0  501  503 -0.00000000000E+00 -0.00000000000E+00 -0.79169469936E+03  0.79169469936E+03  0.00000000000E+00 0. -1.
          6    1    1    2  501    0 -0.24379929050E+03  0.23982968320E+03  0.61012005649E+02  0.38808225394E+03  0.17300000000E+03 0.  1.
         -6    1    1    2    0  502  0.24379929050E+03 -0.23982968320E+03 -0.56970095387E+03  0.68661819655E+03  0.17300000000E+03 0. -1.
<mgrwt>
<rscale>  2 0.38325627E+03</rscale>
<asrwt>0</asrwt>
<pdfrwt beam="1">  1       21 0.43539348E-01 0.38325627E+03</pdfrwt>
<pdfrwt beam="2">  1       21 0.12179918E+00 0.38325627E+03</pdfrwt>
<totfact> 0.22867099E+03</totfact>
</mgrwt>
</event>
<event>
 4    2  0.4024741E+000  0.7767107E+03  0.7546771E-02  0.9594353E-01
         21   -1    0    0  503  502  0.00000000000E+00  0.00000000000E+00  0.43389149673E+03  0.43389149673E+03  0.00000000000E+00 0. -1.
         21   -1    0    0  501  503 -0.00000000000E+00 -0.00000000000E+00 -0.22473911704E+04  0.22473911704E+04  0.00000000000E+00 0.  1.
          6    1    1    2  501    0  0.38612506132E+03  0.65135081001E+03 -0.17346221692E+04  0.19005771519E+04  0.17300000000E+03 0.  1.
         -6    1    1    2    0  502 -0.38612506132E+03 -0.65135081001E+03 -0.78877504469E+02  0.78070551516E+03  0.17300000000E+03 0. -1.
<mgrwt>
<rscale>  2 0.77671065E+03</rscale>
<asrwt>0</asrwt>
<pdfrwt beam="1">  1       21 0.66752538E-01 0.77671065E+03</pdfrwt>
<pdfrwt beam="2">  1       21 0.34575249E+00 0.77671065E+03</pdfrwt>
<totfact> 0.23753425E+01</totfact>
</mgrwt>
</event>
<event>
 4    2  0.4024741E+000  0.2405235E+03  0.7546771E-02  0.1119445E+00
         21   -1    0    0  503  502  0.00000000000E+00  0.00000000000E+00  0.18866047017E+03  0.18866047017E+03  0.00000000000E+00 0.  1.
         21   -1    0    0  501  503 -0.00000000000E+00 -0.00000000000E+00 -0.38773355064E+03  0.38773355064E+03  0.00000000000E+00 0.  1.
          6    1    1    2  501    0  0.41242942804E+02  0.16193080698E+03  0.32260518608E+02  0.24267737357E+03  0.17300000000E+03 0.  1.
         -6    1    1    2    0  502 -0.41242942804E+02 -0.16193080698E+03 -0.23133359908E+03  0.33371664724E+03  0.17300000000E+03 0.  1.
<mgrwt>
<rscale>  2 0.24052353E+03</rscale>
<asrwt>0</asrwt>
<pdfrwt beam="1">  1       21 0.29024688E-01 0.24052353E+03</pdfrwt>
<pdfrwt beam="2">  1       21 0.59651314E-01 0.24052353E+03</pdfrwt>
<totfact> 0.29089013E+04</totfact>
</mgrwt>
</event>
<event>
 4    2  0.4024741E+000  0.2208043E+03  0.7546771E-02  0.1133285E+00
         21   -1    0    0  503  502  0.00000000000E+00  0.00000000000E+00  0.19441256021E+03  0.19441256021E+03  0.00000000000E+00 0. -1.
         21   -1    0    0  501  503 -0.00000000000E+00 -0.00000000000E+00 -0.25077920290E+03  0.25077920290E+03  0.00000000000E+00 0. -1.
          6    1    1    2  501    0 -0.27605588089E+02 -0.13440037241E+03 -0.28499366354E+02  0.22263589666E+03  0.17300000000E+03 0. -1.
         -6    1    1    2    0  502  0.27605588089E+02  0.13440037241E+03 -0.27867276332E+02  0.22255586645E+03  0.17300000000E+03 0. -1.
<mgrwt>
<rscale>  2 0.22080428E+03</rscale>
<asrwt>0</asrwt>
<pdfrwt beam="1">  1       21 0.29909625E-01 0.22080428E+03</pdfrwt>
<pdfrwt beam="2">  1       21 0.38581416E-01 0.22080428E+03</pdfrwt>
<totfact> 0.68593497E+04</totfact>
</mgrwt>
</event>
<event>
 4    2  0.4024741E+000  0.2022389E+03  0.7546771E-02  0.1147864E+00
         21   -1    0    0  503  502  0.00000000000E+00  0.00000000000E+00  0.16336682499E+03  0.16336682499E+03  0.00000000000E+00 0.  1.
         21   -1    0    0  501  503 -0.00000000000E+00 -0.00000000000E+00 -0.55695397632E+03  0.55695397632E+03  0.00000000000E+00 0.  1.
          6    1    1    2  501    0  0.96735371723E+02 -0.40172628237E+02 -0.46401291238E+03  0.50617048023E+03  0.17300000000E+03 0.  1.
         -6    1    1    2    0  502 -0.96735371723E+02  0.40172628237E+02  0.70425761043E+02  0.21415032108E+03  0.17300000000E+03 0.  1.
<mgrwt>
<rscale>  2 0.20223890E+03</rscale>
<asrwt>0</asrwt>
<pdfrwt beam="1">  1       21 0.25133358E-01 0.20223890E+03</pdfrwt>
<pdfrwt beam="2">  1       21 0.85685227E-01 0.20223890E+03</pdfrwt>
<totfact> 0.17532968E+04</totfact>
</mgrwt>
</event>
<event>
 4    2  0.4024741E+000  0.2238361E+03  0.7546771E-02  0.1131055E+00
         21   -1    0    0  501  502  0.00000000000E+00  0.00000000000E+00  0.70432626420E+03  0.70432626420E+03  0.00000000000E+00 0.  1.
         21   -1    0    0  502  503 -0.00000000000E+00 -0.00000000000E+00 -0.76534675663E+02  0.76534675663E+02  0.00000000000E+00 0.  1.
          6    1    1    2  501    0 -0.12888493608E+03 -0.59684888622E+02  0.41759552782E+03  0.47380231905E+03  0.17300000000E+03 0.  1.
         -6    1    1    2    0  503  0.12888493608E+03  0.59684888622E+02  0.21019606072E+03  0.30705862082E+03  0.17300000000E+03 0.  1.
<mgrwt>
<rscale>  2 0.22383613E+03</rscale>
<asrwt>0</asrwt>
<pdfrwt beam="1">  1       21 0.10835788E+00 0.22383613E+03</pdfrwt>
<pdfrwt beam="2">  1       21 0.11774566E-01 0.22383613E+03</pdfrwt>
<totfact> 0.40447227E+04</totfact>
</mgrwt>
</event>
<event>
 4    2  0.4024741E+000  0.1913413E+03  0.7546771E-02  0.1157257E+00
         21   -1    0    0  503  502  0.00000000000E+00  0.00000000000E+00  0.73210911317E+02  0.73210911317E+02  0.00000000000E+00 0.  1.
         21   -1    0    0  501  503 -0.00000000000E+00 -0.00000000000E+00 -0.63770719692E+03  0.63770719692E+03  0.00000000000E+00 0.  1.
          6    1    1    2  501    0 -0.55231721518E+02 -0.60265631471E+02 -0.44737862242E+03  0.48657899790E+03  0.17300000000E+03 0.  1.
         -6    1    1    2    0  502  0.55231721518E+02  0.60265631471E+02 -0.11711766318E+03  0.22433911034E+03  0.17300000000E+03 0.  1.
<mgrwt>
<rscale>  2 0.19134129E+03</rscale>
<asrwt>0</asrwt>
<pdfrwt beam="1">  1       21 0.11263217E-01 0.19134129E+03</pdfrwt>
<pdfrwt beam="2">  1       21 0.98108802E-01 0.19134129E+03</pdfrwt>
<totfact> 0.56472208E+04</totfact>
</mgrwt>
</event>
<event>
 4    2  0.4024741E+000  0.1929450E+03  0.7546771E-02  0.1155832E+00
         21   -1    0    0  501  502  0.00000000000E+00  0.00000000000E+00  0.20318028071E+03  0.20318028071E+03  0.00000000000E+00 0. -1.
         21   -1    0    0  502  503 -0.00000000000E+00 -0.00000000000E+00 -0.23359362720E+03  0.23359362720E+03  0.00000000000E+00 0. -1.
          6    1    1    2  501    0  0.79762558550E+02  0.30605571079E+02 -0.11661531924E+03  0.22544821891E+03  0.17300000000E+03 0. -1.
         -6    1    1    2    0  503 -0.79762558550E+02 -0.30605571079E+02  0.86201972749E+02  0.21132568900E+03  0.17300000000E+03 0. -1.
<mgrwt>
<rscale>  2 0.19294498E+03</rscale>
<asrwt>0</asrwt>
<pdfrwt beam="1">  1       21 0.31258505E-01 0.19294498E+03</pdfrwt>
<pdfrwt beam="2">  1       21 0.35937481E-01 0.19294498E+03</pdfrwt>
<totfact> 0.73423118E+04</totfact>
</mgrwt>
</event>
<event>
 4    2  0.4024741E+000  0.1818391E+03  0.7546771E-02  0.1166035E+00
         21   -1    0    0  501  502  0.00000000000E+00  0.00000000000E+00  0.66088908134E+02  0.66088908134E+02  0.00000000000E+00 0.  1.
         21   -1    0    0  502  503 -0.00000000000E+00 -0.00000000000E+00 -0.52507803361E+03  0.52507803361E+03  0.00000000000E+00 0. -1.
          6    1    1    2  501    0  0.55684616292E+02 -0.59747579222E+01 -0.16530811830E+03  0.24574834323E+03  0.17300000000E+03 0.  1.
         -6    1    1    2    0  503 -0.55684616292E+02  0.59747579222E+01 -0.29368100717E+03  0.34541859851E+03  0.17300000000E+03 0.  1.
<mgrwt>
<rscale>  2 0.18183914E+03</rscale>
<asrwt>0</asrwt>
<pdfrwt beam="1">  1       21 0.10167525E-01 0.18183914E+03</pdfrwt>
<pdfrwt beam="2">  1       21 0.80781234E-01 0.18183914E+03</pdfrwt>
<totfact> 0.10646006E+05</totfact>
</mgrwt>
</event>
<event>
 4    2  0.4024741E+000  0.4259692E+03  0.7546771E-02  0.1035141E+00
         21   -1    0    0  503  502  0.00000000000E+00  0.00000000000E+00  0.94666104629E+03  0.94666104629E+03  0.00000000000E+00 0. -1.
         21   -1    0    0  501  503 -0.00000000000E+00 -0.00000000000E+00 -0.19213875427E+03  0.19213875427E+03  0.00000000000E+00 0.  1.
          6    1    1    2  501    0  0.28710774046E+03  0.26284956299E+03  0.34923916777E+03  0.55083368062E+03  0.17300000000E+03 0.  1.
         -6    1    1    2    0  502 -0.28710774046E+03 -0.26284956299E+03  0.40528312424E+03  0.58796611994E+03  0.17300000000E+03 0.  1.
<mgrwt>
<rscale>  2 0.42596919E+03</rscale>
<asrwt>0</asrwt>
<pdfrwt beam="1">  1       21 0.14564016E+00 0.42596919E+03</pdfrwt>
<pdfrwt beam="2">  1       21 0.29559809E-01 0.42596919E+03</pdfrwt>
<totfact> 0.30881014E+03</totfact>
</mgrwt>
</event>
<event>
 4    2  0.4024741E+000  0.2292900E+03  0.7546771E-02  0.1127141E+00
         21   -1    0    0  503  502  0.00000000000E+00  0.00000000000E+00  0.60470410537E+03  0.60470410537E+03  0.00000000000E+00 0. -1.
         21   -1    0    0  501  503 -0.00000000000E+00 -0.00000000000E+00 -0.96561927092E+02  0.96561927092E+02  0.00000000000E+00 0. -1.
          6    1    1    2  501    0  0.72352213300E+02 -0.13194716714E+03  0.14339687793E+03  0.27043772349E+03  0.17300000000E+03 0. -1.
         -6    1    1    2    0  502 -0.72352213300E+02  0.13194716714E+03  0.36474530035E+03  0.43082830897E+03  0.17300000000E+03 0. -1.
<mgrwt>
<rscale>  2 0.22928999E+03</rscale>
<asrwt>0</asrwt>
<pdfrwt beam="1">  1       21 0.93031399E-01 0.22928999E+03</pdfrwt>
<pdfrwt beam="2">  1       21 0.14855681E-01 0.22928999E+03</pdfrwt>
<totfact> 0.38113219E+04</totfact>
</mgrwt>
</event>
<event>
 4    2  0.4024741E+000  0.2364746E+03  0.7546771E-02  0.1122164E+00
         21   -1    0    0  503  502  0.00000000000E+00  0.00000000000E+00  0.99177374451E+02  0.99177374451E+02  0.00000000000E+00 0.  1.
         21   -1    0    0  501  503 -0.00000000000E+00 -0.00000000000E+00 -0.10736957924E+04  0.10736957924E+04  0.00000000000E+00 0. -1.
          6    1    1    2  501    0  0.15056837646E+03 -0.57622736523E+02 -0.89137322647E+03  0.92220737614E+03  0.17300000000E+03 0. -1.
         -6    1    1    2    0  502 -0.15056837646E+03  0.57622736523E+02 -0.83145191455E+02  0.25066579068E+03  0.17300000000E+03 0.  1.
<mgrwt>
<rscale>  2 0.23647456E+03</rscale>
<asrwt>0</asrwt>
<pdfrwt beam="1">  1       21 0.15258057E-01 0.23647456E+03</pdfrwt>
<pdfrwt beam="2">  1       21 0.16518397E+00 0.23647456E+03</pdfrwt>
<totfact> 0.84971341E+03</totfact>
</mgrwt>
</event>
<event>
 4    2  0.4024741E+000  0.1805301E+03  0.7546771E-02  0.1167291E+00
         21   -1    0    0  503  502  0.00000000000E+00  0.00000000000E+00  0.63937148808E+03  0.63937148808E+03  0.00000000000E+00 0.  1.
         21   -1    0    0  501  503 -0.00000000000E+00 -0.00000000000E+00 -0.54222634835E+02  0.54222634835E+02  0.00000000000E+00 0.  1.
          6    1    1    2  501    0  0.11479025037E+02  0.50302695240E+02  0.20768458330E+03  0.27517996894E+03  0.17300000000E+03 0.  1.
         -6    1    1    2    0  502 -0.11479025037E+02 -0.50302695240E+02  0.37746426994E+03  0.41841415398E+03  0.17300000000E+03 0.  1.
<mgrwt>
<rscale>  2 0.18053013E+03</rscale>
<asrwt>0</asrwt>
<pdfrwt beam="1">  1       21 0.98364839E-01 0.18053013E+03</pdfrwt>
<pdfrwt beam="2">  1       21 0.83419443E-02 0.18053013E+03</pdfrwt>
<totfact> 0.95706348E+04</totfact>
</mgrwt>
</event>
<event>
 4    2  0.4024741E+000  0.4141958E+03  0.7546771E-02  0.1038972E+00
         21   -1    0    0  501  502  0.00000000000E+00  0.00000000000E+00  0.18853722938E+04  0.18853722938E+04  0.00000000000E+00 0.  1.
         21   -1    0    0  502  503 -0.00000000000E+00 -0.00000000000E+00 -0.10552795895E+03  0.10552795895E+03  0.00000000000E+00 0. -1.
          6    1    1    2  501    0  0.11556464132E+03  0.35815353927E+03  0.12593444819E+04  0.13257098733E+04  0.17300000000E+03 0.  1.
         -6    1    1    2    0  503 -0.11556464132E+03 -0.35815353927E+03  0.52049985295E+03  0.66519037947E+03  0.17300000000E+03 0. -1.
<mgrwt>
<rscale>  2 0.41419578E+03</rscale>
<asrwt>0</asrwt>
<pdfrwt beam="1">  1       21 0.29005725E+00 0.41419578E+03</pdfrwt>
<pdfrwt beam="2">  1       21 0.16235072E-01 0.41419578E+03</pdfrwt>
<totfact> 0.10937518E+03</totfact>
</mgrwt>
</event>
<event>
 4    2  0.4024741E+000  0.1925342E+03  0.7546771E-02  0.1156195E+00
         21   -1    0    0  501  502  0.00000000000E+00  0.00000000000E+00  0.10997235985E+04  0.10997235985E+04  0.00000000000E+00 0.  1.
         21   -1    0    0  502  503 -0.00000000000E+00 -0.00000000000E+00 -0.18741245374E+03  0.18741245374E+03  0.00000000000E+00 0.  1.
          6    1    1    2  501    0 -0.84070376780E+02  0.85194453136E+01  0.10389810881E+04  0.10566698210E+04  0.17300000000E+03 0.  1.
         -6    1    1    2    0  503  0.84070376780E+02 -0.85194453136E+01 -0.12666994332E+03  0.23046623124E+03  0.17300000000E+03 0.  1.
<mgrwt>
<rscale>  2 0.19253418E+03</rscale>
<asrwt>0</asrwt>
<pdfrwt beam="1">  1       21 0.16918824E+00 0.19253418E+03</pdfrwt>
<pdfrwt beam="2">  1       21 0.28832686E-01 0.19253418E+03</pdfrwt>
<totfact> 0.24891890E+03</totfact>
</mgrwt>
</event>
<event>
 4    2  0.4024741E+000  0.1922376E+03  0.7546771E-02  0.1156459E+00
         21   -1    0    0  503  502  0.00000000000E+00  0.00000000000E+00  0.12711847829E+03  0.12711847829E+03  0.00000000000E+00 0.  1.
         21   -1    0    0  501  503 -0.00000000000E+00 -0.00000000000E+00 -0.29432987689E+03  0.29432987689E+03  0.00000000000E+00 0.  1.
          6    1    1    2  501    0 -0.81326744997E+02 -0.20303638854E+02 -0.60253362505E+02  0.20145904024E+03  0.17300000000E+03 0. -1.
         -6    1    1    2    0  502  0.81326744997E+02  0.20303638854E+02 -0.10695803610E+03  0.21998931494E+03  0.17300000000E+03 0. -1.
<mgrwt>
<rscale>  2 0.19223755E+03</rscale>
<asrwt>0</asrwt>
<pdfrwt beam="1">  1       21 0.19556689E-01 0.19223755E+03</pdfrwt>
<pdfrwt beam="2">  1       21 0.45281519E-01 0.19223755E+03</pdfrwt>
<totfact> 0.11262586E+05</totfact>
</mgrwt>
</event>
<event>
 4    2  0.4024741E+000  0.2001092E+03  0.7546771E-02  0.1149647E+00
         21   -1    0    0  501  502  0.00000000000E+00  0.00000000000E+00  0.24761998256E+03  0.24761998256E+03  0.00000000000E+00 0.  1.
         21   -1    0    0  502  503 -0.00000000000E+00 -0.00000000000E+00 -0.19708434254E+03  0.19708434254E+03  0.00000000000E+00 0.  1.
          6    1    1    2  501    0 -0.41714010104E+02  0.91513097089E+02  0.11946388360E+03  0.23305648470E+03  0.17300000000E+03 0.  1.
         -6    1    1    2    0  503  0.41714010104E+02 -0.91513097089E+02 -0.68928243581E+02  0.21164784039E+03  0.17300000000E+03 0.  1.
<mgrwt>
<rscale>  2 0.20010923E+03</rscale>
<asrwt>0</asrwt>
<pdfrwt beam="1">  1       21 0.38095382E-01 0.20010923E+03</pdfrwt>
<pdfrwt beam="2">  1       21 0.30320668E-01 0.20010923E+03</pdfrwt>
<totfact> 0.69127277E+04</totfact>
</mgrwt>
</event>
<event>
 4    2  0.4024741E+000  0.2661762E+03  0.7546771E-02  0.1103488E+00
         21   -1    0    0  501  502  0.00000000000E+00  0.00000000000E+00  0.29830801332E+03  0.29830801332E+03  0.00000000000E+00 0. -1.
         21   -1    0    0  502  503 -0.00000000000E+00 -0.00000000000E+00 -0.24321868294E+03  0.24321868294E+03  0.00000000000E+00 0.  1.
          6    1    1    2  501    0 -0.14299282110E+02 -0.20178283943E+03  0.69043104313E+02  0.27498497052E+03  0.17300000000E+03 0.  1.
         -6    1    1    2    0  503  0.14299282110E+02  0.20178283943E+03 -0.13953773926E+02  0.26654172575E+03  0.17300000000E+03 0. -1.
<mgrwt>
<rscale>  2 0.26617623E+03</rscale>
<asrwt>0</asrwt>
<pdfrwt beam="1">  1       21 0.45893541E-01 0.26617623E+03</pdfrwt>
<pdfrwt beam="2">  1       21 0.37418259E-01 0.26617623E+03</pdfrwt>
<totfact> 0.30255030E+04</totfact>
</mgrwt>
</event>
<event>
 4    2  0.4024741E+000  0.1882518E+03  0.7546771E-02  0.1160048E+00
         21   -1    0    0  501  502  0.00000000000E+00  0.00000000000E+00  0.85765647322E+03  0.85765647322E+03  0.00000000000E+00 0.  1.
         21   -1    0    0  502  503 -0.00000000000E+00 -0.00000000000E+00 -0.44094870864E+02  0.44094870864E+02  0.00000000000E+00 0.  1.
          6    1    1    2  501    0  0.62105343439E+02  0.40653181896E+02  0.51987715925E+03  0.55291139940E+03  0.17300000000E+03 0.  1.
         -6    1    1    2    0  503 -0.62105343439E+02 -0.40653181896E+02  0.29368444311E+03  0.34883994469E+03  0.17300000000E+03 0.  1.
<mgrwt>
<rscale>  2 0.18825184E+03</rscale>
<asrwt>0</asrwt>
<pdfrwt beam="1">  1       21 0.13194714E+00 0.18825184E+03</pdfrwt>
<pdfrwt beam="2">  1       21 0.67838269E-02 0.18825184E+03</pdfrwt>
<totfact> 0.66622346E+04</totfact>
</mgrwt>
</event>
<event>
 4    2  0.4024741E+000  0.1846476E+03  0.7546771E-02  0.1163379E+00
         21   -1    0    0  501  502  0.00000000000E+00  0.00000000000E+00  0.26787377146E+03  0.26787377146E+03  0.00000000000E+00 0. -1.
         21   -1    0    0  502  503 -0.00000000000E+00 -0.00000000000E+00 -0.16005816915E+03  0.16005816915E+03  0.00000000000E+00 0. -1.
          6    1    1    2  501    0  0.30674003205E+02  0.56787788561E+02  0.15073641749E+03  0.23836152156E+03  0.17300000000E+03 0. -1.
         -6    1    1    2    0  503 -0.30674003205E+02 -0.56787788561E+02 -0.42920815179E+02  0.18957041905E+03  0.17300000000E+03 0. -1.
<mgrwt>
<rscale>  2 0.18464763E+03</rscale>
<asrwt>0</asrwt>
<pdfrwt beam="1">  1       21 0.41211349E-01 0.18464763E+03</pdfrwt>
<pdfrwt beam="2">  1       21 0.24624334E-01 0.18464763E+03</pdfrwt>
<totfact> 0.88682422E+04</totfact>
</mgrwt>
</event>
<event>
 4    2  0.4024741E+000  0.1988599E+03  0.7546771E-02  0.1150705E+00
         21   -1    0    0  501  502  0.00000000000E+00  0.00000000000E+00  0.15188252596E+03  0.15188252596E+03  0.00000000000E+00 0. -1.
         21   -1    0    0  502  503 -0.00000000000E+00 -0.00000000000E+00 -0.26768397026E+03  0.26768397026E+03  0.00000000000E+00 0. -1.
          6    1    1    2  501    0 -0.92629404158E+02 -0.32187563955E+02 -0.92583658510E+02  0.21935582876E+03  0.17300000000E+03 0. -1.
         -6    1    1    2    0  503  0.92629404158E+02  0.32187563955E+02 -0.23217785784E+02  0.20021066746E+03  0.17300000000E+03 0. -1.
<mgrwt>
<rscale>  2 0.19885986E+03</rscale>
<asrwt>0</asrwt>
<pdfrwt beam="1">  1       21 0.23366543E-01 0.19885986E+03</pdfrwt>
<pdfrwt beam="2">  1       21 0.41182149E-01 0.19885986E+03</pdfrwt>
<totfact> 0.97566515E+04</totfact>
</mgrwt>
</event>
<event>
 4    2  0.4024741E+000  0.1774381E+03  0.7546771E-02  0.1170306E+00
         21   -1    0    0  501  502  0.00000000000E+00  0.00000000000E+00  0.22196712921E+03  0.22196712921E+03  0.00000000000E+00 0. -1.
         21   -1    0    0  502  503 -0.00000000000E+00 -0.00000000000E+00 -0.20258455499E+03  0.20258455499E+03  0.00000000000E+00 0. -1.
          6    1    1    2  501    0  0.39387826667E+02 -0.19710614566E+01  0.12592805913E+03  0.21758254077E+03  0.17300000000E+03 0. -1.
         -6    1    1    2    0  503 -0.39387826667E+02  0.19710614566E+01 -0.10654548491E+03  0.20696914342E+03  0.17300000000E+03 0. -1.
<mgrwt>
<rscale>  2 0.17743812E+03</rscale>
<asrwt>0</asrwt>
<pdfrwt beam="1">  1       21 0.34148789E-01 0.17743812E+03</pdfrwt>
<pdfrwt beam="2">  1       21 0.31166855E-01 0.17743812E+03</pdfrwt>
<totfact> 0.82230820E+04</totfact>
</mgrwt>
</event>
<event>
 4    2  0.4024741E+000  0.1908484E+03  0.7546771E-02  0.1157698E+00
         21   -1    0    0  501  502  0.00000000000E+00  0.00000000000E+00  0.48439202326E+03  0.48439202326E+03  0.00000000000E+00 0.  1.
         21   -1    0    0  502  503 -0.00000000000E+00 -0.00000000000E+00 -0.27529845327E+03  0.27529845327E+03  0.00000000000E+00 0.  1.
          6    1    1    2  501    0  0.76916146588E+02  0.24042229833E+02  0.42838920845E+03  0.46897807661E+03  0.17300000000E+03 0.  1.
         -6    1    1    2    0  503 -0.76916146588E+02 -0.24042229833E+02 -0.21929563846E+03  0.29071239992E+03  0.17300000000E+03 0.  1.
<mgrwt>
<rscale>  2 0.19084843E+03</rscale>
<asrwt>0</asrwt>
<pdfrwt beam="1">  1       21 0.74521850E-01 0.19084843E+03</pdfrwt>
<pdfrwt beam="2">  1       21 0.42353608E-01 0.19084843E+03</pdfrwt>
<totfact> 0.86621659E+03</totfact>
</mgrwt>
</event>
<event>
 4    2  0.4024741E+000  0.1846699E+03  0.7546771E-02  0.1163358E+00
         21   -1    0    0  503  502  0.00000000000E+00  0.00000000000E+00  0.36288582673E+03  0.36288582673E+03  0.00000000000E+00 0. -1.
         21   -1    0    0  501  503 -0.00000000000E+00 -0.00000000000E+00 -0.11988174098E+03  0.11988174098E+03  0.00000000000E+00 0. -1.
          6    1    1    2  501    0 -0.22089852297E+02 -0.60712596626E+02  0.92950767589E+01  0.18490370309E+03  0.17300000000E+03 0. -1.
         -6    1    1    2    0  502  0.22089852297E+02  0.60712596626E+02  0.23370900900E+03  0.29786386462E+03  0.17300000000E+03 0. -1.
<mgrwt>
<rscale>  2 0.18466992E+03</rscale>
<asrwt>0</asrwt>
<pdfrwt beam="1">  1       21 0.55828588E-01 0.18466992E+03</pdfrwt>
<pdfrwt beam="2">  1       21 0.18443345E-01 0.18466992E+03</pdfrwt>
<totfact> 0.81370166E+04</totfact>
</mgrwt>
</event>
<event>
 4    2  0.4024741E+000  0.2102316E+03  0.7546771E-02  0.1141383E+00
         21   -1    0    0  501  502  0.00000000000E+00  0.00000000000E+00  0.17780925815E+04  0.17780925815E+04  0.00000000000E+00 0. -1.
         21   -1    0    0  502  503 -0.00000000000E+00 -0.00000000000E+00 -0.39908061360E+02  0.39908061360E+02  0.00000000000E+00 0.  1.
          6    1    1    2  501    0 -0.11777796443E+03  0.19916951179E+02  0.31084953374E+03  0.37526626078E+03  0.17300000000E+03 0.  1.
         -6    1    1    2    0  503  0.11777796443E+03 -0.19916951179E+02  0.14273349864E+04  0.14427343821E+04  0.17300000000E+03 0. -1.
<mgrwt>
<rscale>  2 0.21023162E+03</rscale>
<asrwt>0</asrwt>
<pdfrwt beam="1">  1       21 0.27355264E+00 0.21023162E+03</pdfrwt>
<pdfrwt beam="2">  1       21 0.61397031E-02 0.21023162E+03</pdfrwt>
<totfact> 0.90315668E+03</totfact>
</mgrwt>
</event>
<event>
 4    2  0.4024741E+000  0.2491824E+03  0.7546771E-02  0.1113823E+00
         21   -1    0    0  503  502  0.00000000000E+00  0.00000000000E+00  0.13821350070E+04  0.13821350070E+04  0.00000000000E+00 0.  1.
         21   -1    0    0  501  503 -0.00000000000E+00 -0.00000000000E+00 -0.31400305841E+03  0.31400305841E+03  0.00000000000E+00 0.  1.
          6    1    1    2  501    0  0.17777717072E+02  0.17845684610E+03 -0.25099558685E+03  0.35368160507E+03  0.17300000000E+03 0.  1.
         -6    1    1    2    0  502 -0.17777717072E+02 -0.17845684610E+03  0.13191275354E+04  0.13424564603E+04  0.17300000000E+03 0.  1.
<mgrwt>
<rscale>  2 0.24918245E+03</rscale>
<asrwt>0</asrwt>
<pdfrwt beam="1">  1       21 0.21263615E+00 0.24918245E+03</pdfrwt>
<pdfrwt beam="2">  1       21 0.48308164E-01 0.24918245E+03</pdfrwt>
<totfact> 0.42931466E+02</totfact>
</mgrwt>
</event>
<event>
 4    2  0.4024741E+000  0.1896768E+03  0.7546771E-02  0.1158753E+00
         21   -1    0    0  501  502  0.00000000000E+00  0.00000000000E+00  0.10326999271E+04  0.10326999271E+04  0.00000000000E+00 0.  1.
         21   -1    0    0  502  503 -0.00000000000E+00 -0.00000000000E+00 -0.59870985338E+02  0.59870985338E+02  0.00000000000E+00 0. -1.
          6    1    1    2  501    0 -0.77611783355E+02 -0.49702642630E+01  0.83965211703E+03  0.86080948535E+03  0.17300000000E+03 0.  1.
         -6    1    1    2    0  503  0.77611783355E+02  0.49702642630E+01  0.13317682475E+03  0.23176142711E+03  0.17300000000E+03 0. -1.
<mgrwt>
<rscale>  2 0.18967681E+03</rscale>
<asrwt>0</asrwt>
<pdfrwt beam="1">  1       21 0.15887690E+00 0.18967681E+03</pdfrwt>
<pdfrwt beam="2">  1       21 0.92109216E-02 0.18967681E+03</pdfrwt>
<totfact> 0.24106206E+04</totfact>
</mgrwt>
</event>
<event>
 4    2  0.4024741E+000  0.2983661E+03  0.7546771E-02  0.1086060E+00
         21   -1    0    0  501  502  0.00000000000E+00  0.00000000000E+00  0.25943266080E+03  0.25943266080E+03  0.00000000000E+00 0.  1.
         21   -1    0    0  502  503 -0.00000000000E+00 -0.00000000000E+00 -0.36690570780E+03  0.36690570780E+03  0.00000000000E+00 0. -1.
          6    1    1    2  501    0 -0.23720809384E+03 -0.53156710110E+02 -0.13343615242E+03  0.32684479862E+03  0.17300000000E+03 0.  1.
         -6    1    1    2    0  503  0.23720809384E+03  0.53156710110E+02  0.25963105416E+02  0.29949356997E+03  0.17300000000E+03 0. -1.
<mgrwt>
<rscale>  2 0.29836608E+03</rscale>
<asrwt>0</asrwt>
<pdfrwt beam="1">  1       21 0.39912717E-01 0.29836608E+03</pdfrwt>
<pdfrwt beam="2">  1       21 0.56447032E-01 0.29836608E+03</pdfrwt>
<totfact> 0.16921173E+04</totfact>
</mgrwt>
</event>
<event>
 4    2  0.4024741E+000  0.2228510E+03  0.7546771E-02  0.1131775E+00
         21   -1    0    0  501  502  0.00000000000E+00  0.00000000000E+00  0.11251939272E+03  0.11251939272E+03  0.00000000000E+00 0. -1.
         21   -1    0    0  502  503 -0.00000000000E+00 -0.00000000000E+00 -0.67523332425E+03  0.67523332425E+03  0.00000000000E+00 0. -1.
          6    1    1    2  501    0  0.11479151689E+03  0.80972077938E+02 -0.49556136449E+02  0.22829450369E+03  0.17300000000E+03 0. -1.
         -6    1    1    2    0  503 -0.11479151689E+03 -0.80972077938E+02 -0.51315779508E+03  0.55945821328E+03  0.17300000000E+03 0. -1.
<mgrwt>
<rscale>  2 0.22285100E+03</rscale>
<asrwt>0</asrwt>
<pdfrwt beam="1">  1       21 0.17310676E-01 0.22285100E+03</pdfrwt>
<pdfrwt beam="2">  1       21 0.10388205E+00 0.22285100E+03</pdfrwt>
<totfact> 0.22219496E+04</totfact>
</mgrwt>
</event>
<event>
 4    2  0.4024741E+000  0.1858336E+03  0.7546771E-02  0.1162274E+00
         21   -1    0    0  503  502  0.00000000000E+00  0.00000000000E+00  0.25760890471E+03  0.25760890471E+03  0.00000000000E+00 0. -1.
         21   -1    0    0  501  503 -0.00000000000E+00 -0.00000000000E+00 -0.13449769103E+03  0.13449769103E+03  0.00000000000E+00 0. -1.
          6    1    1    2  501    0 -0.67704226140E+02 -0.46114125291E+01  0.50325865458E+02  0.19252745284E+03  0.17300000000E+03 0. -1.
         -6    1    1    2    0  502  0.67704226140E+02  0.46114125291E+01  0.72785348222E+02  0.19957914289E+03  0.17300000000E+03 0. -1.
<mgrwt>
<rscale>  2 0.18583360E+03</rscale>
<asrwt>0</asrwt>
<pdfrwt beam="1">  1       21 0.39632139E-01 0.18583360E+03</pdfrwt>
<pdfrwt beam="2">  1       21 0.20691952E-01 0.18583360E+03</pdfrwt>
<totfact> 0.13323220E+05</totfact>
</mgrwt>
</event>
<event>
 4    2  0.4024741E+000  0.2132850E+03  0.7546771E-02  0.1138991E+00
         21   -1    0    0  503  502  0.00000000000E+00  0.00000000000E+00  0.41458980587E+02  0.41458980587E+02  0.00000000000E+00 0.  1.
         21   -1    0    0  501  503 -0.00000000000E+00 -0.00000000000E+00 -0.13469756975E+04  0.13469756975E+04  0.00000000000E+00 0. -1.
          6    1    1    2  501    0 -0.12141999513E+03  0.28612723998E+02 -0.35383846927E+03  0.41314908390E+03  0.17300000000E+03 0.  1.
         -6    1    1    2    0  502  0.12141999513E+03 -0.28612723998E+02 -0.95167824769E+03  0.97528559423E+03  0.17300000000E+03 0. -1.
<mgrwt>
<rscale>  2 0.21328503E+03</rscale>
<asrwt>0</asrwt>
<pdfrwt beam="1">  1       21 0.63783062E-02 0.21328503E+03</pdfrwt>
<pdfrwt beam="2">  1       21 0.20722698E+00 0.21328503E+03</pdfrwt>
<totfact> 0.21116490E+04</totfact>
</mgrwt>
</event>
<event>
 4    2  0.4024741E+000  0.2484077E+03  0.7546771E-02  0.1114315E+00
         21   -1    0    0  501  502  0.00000000000E+00  0.00000000000E+00  0.30180008830E+03  0.30180008830E+03  0.00000000000E+00 0. -1.
         21   -1    0    0  502  503 -0.00000000000E+00 -0.00000000000E+00 -0.23150691906E+03  0.23150691906E+03  0.00000000000E+00 0.  1.
          6    1    1    2  501    0  0.11031256242E+03 -0.14003038423E+03  0.12628796279E+03  0.27866650226E+03  0.17300000000E+03 0. -1.
         -6    1    1    2    0  503 -0.11031256242E+03  0.14003038423E+03 -0.55994793561E+02  0.25464050510E+03  0.17300000000E+03 0.  1.
<mgrwt>
<rscale>  2 0.24840767E+03</rscale>
<asrwt>0</asrwt>
<pdfrwt beam="1">  1       21 0.46430783E-01 0.24840767E+03</pdfrwt>
<pdfrwt beam="2">  1       21 0.35616449E-01 0.24840767E+03</pdfrwt>
<totfact> 0.32858320E+04</totfact>
</mgrwt>
</event>
<event>
 4    2  0.4024741E+000  0.1845912E+03  0.7546771E-02  0.1163432E+00
         21   -1    0    0  501  502  0.00000000000E+00  0.00000000000E+00  0.29968925087E+03  0.29968925087E+03  0.00000000000E+00 0.  1.
         21   -1    0    0  502  503 -0.00000000000E+00 -0.00000000000E+00 -0.14041600394E+03  0.14041600394E+03  0.00000000000E+00 0. -1.
          6    1    1    2  501    0 -0.21965121990E+02  0.60517996904E+02  0.17562639870E+03  0.25479114281E+03  0.17300000000E+03 0.  1.
         -6    1    1    2    0  503  0.21965121990E+02 -0.60517996904E+02 -0.16353151769E+02  0.18531411200E+03  0.17300000000E+03 0. -1.
<mgrwt>
<rscale>  2 0.18459116E+03</rscale>
<asrwt>0</asrwt>
<pdfrwt beam="1">  1       21 0.46106039E-01 0.18459116E+03</pdfrwt>
<pdfrwt beam="2">  1       21 0.21602462E-01 0.18459116E+03</pdfrwt>
<totfact> 0.90337095E+04</totfact>
</mgrwt>
</event>
<event>
 4    2  0.4024741E+000  0.1913146E+03  0.7546771E-02  0.1157281E+00
         21   -1    0    0  501  502  0.00000000000E+00  0.00000000000E+00  0.23705985723E+03  0.23705985723E+03  0.00000000000E+00 0.  1.
         21   -1    0    0  502  503 -0.00000000000E+00 -0.00000000000E+00 -0.15549037713E+03  0.15549037713E+03  0.00000000000E+00 0.  1.
          6    1    1    2  501    0 -0.49450731664E+02  0.65014678852E+02  0.24324421856E+02  0.19285476615E+03  0.17300000000E+03 0.  1.
         -6    1    1    2    0  503  0.49450731664E+02 -0.65014678852E+02  0.57245058245E+02  0.19969546821E+03  0.17300000000E+03 0.  1.
<mgrwt>
<rscale>  2 0.19131462E+03</rscale>
<asrwt>0</asrwt>
<pdfrwt beam="1">  1       21 0.36470747E-01 0.19131462E+03</pdfrwt>
<pdfrwt beam="2">  1       21 0.23921596E-01 0.19131462E+03</pdfrwt>
<totfact> 0.11950543E+05</totfact>
</mgrwt>
</event>
<event>
 4    2  0.4024741E+000  0.2224890E+03  0.7546771E-02  0.1132041E+00
         21   -1    0    0  501  502  0.00000000000E+00  0.00000000000E+00  0.58004097059E+03  0.58004097059E+03  0.00000000000E+00 0. -1.
         21   -1    0    0  502  503 -0.00000000000E+00 -0.00000000000E+00 -0.10972593850E+03  0.10972593850E+03  0.00000000000E+00 0.  1.
          6    1    1    2  501    0 -0.13296089389E+03 -0.43517545765E+02  0.39774121906E+03  0.45574055496E+03  0.17300000000E+03 0.  1.
         -6    1    1    2    0  503  0.13296089389E+03  0.43517545765E+02  0.72573813029E+02  0.23402635414E+03  0.17300000000E+03 0.  1.
<mgrwt>
<rscale>  2 0.22248905E+03</rscale>
<asrwt>0</asrwt>
<pdfrwt beam="1">  1       21 0.89237071E-01 0.22248905E+03</pdfrwt>
<pdfrwt beam="2">  1       21 0.16880914E-01 0.22248905E+03</pdfrwt>
<totfact> 0.33326353E+04</totfact>
</mgrwt>
</event>
<event>
 4    2  0.4024741E+000  0.2065462E+03  0.7546771E-02  0.1144331E+00
         21   -1    0    0  503  502  0.00000000000E+00  0.00000000000E+00  0.20397355982E+03  0.20397355982E+03  0.00000000000E+00 0.  1.
         21   -1    0    0  501  503 -0.00000000000E+00 -0.00000000000E+00 -0.21203909265E+03  0.21203909265E+03  0.00000000000E+00 0.  1.
          6    1    1    2  501    0  0.49744116485E+02 -0.10128103824E+03 -0.28307531335E+02  0.20847695835E+03  0.17300000000E+03 0.  1.
         -6    1    1    2    0  502 -0.49744116485E+02  0.10128103824E+03  0.20241998512E+02  0.20753569412E+03  0.17300000000E+03 0.  1.
<mgrwt>
<rscale>  2 0.20654618E+03</rscale>
<asrwt>0</asrwt>
<pdfrwt beam="1">  1       21 0.31380548E-01 0.20654618E+03</pdfrwt>
<pdfrwt beam="2">  1       21 0.32621399E-01 0.20654618E+03</pdfrwt>
<totfact> 0.87751982E+04</totfact>
</mgrwt>
</event>
<event>
 4    2  0.4024741E+000  0.1996887E+03  0.7546771E-02  0.1150002E+00
         21   -1    0    0  501  502  0.00000000000E+00  0.00000000000E+00  0.19137927699E+03  0.19137927699E+03  0.00000000000E+00 0. -1.
         21   -1    0    0  502  503 -0.00000000000E+00 -0.00000000000E+00 -0.32709175289E+03  0.32709175289E+03  0.00000000000E+00 0. -1.
          6    1    1    2  501    0  0.97080624552E+02 -0.22846184516E+02  0.88330789934E+02  0.21835275190E+03  0.17300000000E+03 0. -1.
         -6    1    1    2    0  503 -0.97080624552E+02  0.22846184516E+02 -0.22404326584E+03  0.30011827798E+03  0.17300000000E+03 0. -1.
<mgrwt>
<rscale>  2 0.19968875E+03</rscale>
<asrwt>0</asrwt>
<pdfrwt beam="1">  1       21 0.29442966E-01 0.19968875E+03</pdfrwt>
<pdfrwt beam="2">  1       21 0.50321807E-01 0.19968875E+03</pdfrwt>
<totfact> 0.41404328E+04</totfact>
</mgrwt>
</event>
<event>
 4    2  0.4024741E+000  0.1882316E+03  0.7546771E-02  0.1160066E+00
         21   -1    0    0  503  502  0.00000000000E+00  0.00000000000E+00  0.81271613095E+03  0.81271613095E+03  0.00000000000E+00 0. -1.
         21   -1    0    0  501  503 -0.00000000000E+00 -0.00000000000E+00 -0.57003427656E+02  0.57003427656E+02  0.00000000000E+00 0.  1.
          6    1    1    2  501    0 -0.21927471720E+02  0.70861288708E+02  0.16695847460E+03  0.25160736971E+03  0.17300000000E+03 0.  1.
         -6    1    1    2    0  502  0.21927471720E+02 -0.70861288708E+02  0.58875422869E+03  0.61811218889E+03  0.17300000000E+03 0. -1.
<mgrwt>
<rscale>  2 0.18823160E+03</rscale>
<asrwt>0</asrwt>
<pdfrwt beam="1">  1       21 0.12503324E+00 0.18823160E+03</pdfrwt>
<pdfrwt beam="2">  1       21 0.87697587E-02 0.18823160E+03</pdfrwt>
<totfact> 0.48843074E+04</totfact>
</mgrwt>
</event>
<event>
 4    2  0.4024741E+000  0.2472578E+03  0.7546771E-02  0.1115050E+00
         21   -1    0    0  503  502  0.00000000000E+00  0.00000000000E+00  0.31866399486E+03  0.31866399486E+03  0.00000000000E+00 0.  1.
         21   -1    0    0  501  503 -0.00000000000E+00 -0.00000000000E+00 -0.43986111559E+03  0.43986111559E+03  0.00000000000E+00 0. -1.
          6    1    1    2  501    0  0.17361112184E+02 -0.17580102465E+03 -0.34538268302E+03  0.42476535430E+03  0.17300000000E+03 0. -1.
         -6    1    1    2    0  502 -0.17361112184E+02  0.17580102465E+03  0.22418556229E+03  0.33375975615E+03  0.17300000000E+03 0.  1.
<mgrwt>
<rscale>  2 0.24725778E+03</rscale>
<asrwt>0</asrwt>
<pdfrwt beam="1">  1       21 0.49025230E-01 0.24725778E+03</pdfrwt>
<pdfrwt beam="2">  1       21 0.67670941E-01 0.24725778E+03</pdfrwt>
<totfact> 0.76441517E+03</totfact>
</mgrwt>
</event>
<event>
 4    2  0.4024741E+000  0.1894176E+03  0.7546771E-02  0.1158988E+00
         21   -1    0    0  503  502  0.00000000000E+00  0.00000000000E+00  0.26673787570E+03  0.26673787570E+03  0.00000000000E+00 0. -1.
         21   -1    0    0  501  503 -0.00000000000E+00 -0.00000000000E+00 -0.17520724752E+03  0.17520724752E+03  0.00000000000E+00 0. -1.
          6    1    1    2  501    0  0.58395199536E+02 -0.50398836077E+02 -0.60732876249E+02  0.19891587233E+03  0.17300000000E+03 0. -1.
         -6    1    1    2    0  502 -0.58395199536E+02  0.50398836077E+02  0.15226350444E+03  0.24302925089E+03  0.17300000000E+03 0. -1.
<mgrwt>
<rscale>  2 0.18941764E+03</rscale>
<asrwt>0</asrwt>
<pdfrwt beam="1">  1       21 0.41036596E-01 0.18941764E+03</pdfrwt>
<pdfrwt beam="2">  1       21 0.26954961E-01 0.18941764E+03</pdfrwt>
<totfact> 0.75092330E+04</totfact>
</mgrwt>
</event>
<event>
 4    2  0.4024741E+000  0.2054286E+03  0.7546771E-02  0.1145238E+00
         21   -1    0    0  501  502  0.00000000000E+00  0.00000000000E+00  0.26026352559E+03  0.26026352559E+03  0.00000000000E+00 0. -1.
         21   -1    0    0  502  503 -0.00000000000E+00 -0.00000000000E+00 -0.18762956105E+03  0.18762956105E+03  0.00000000000E+00 0. -1.
          6    1    1    2  501    0  0.10274283166E+03  0.41422385393E+02 -0.46213957140E+02  0.21056265885E+03  0.17300000000E+03 0. -1.
         -6    1    1    2    0  503 -0.10274283166E+03 -0.41422385393E+02  0.11884792168E+03  0.23733042779E+03  0.17300000000E+03 0. -1.
<mgrwt>
<rscale>  2 0.20542858E+03</rscale>
<asrwt>0</asrwt>
<pdfrwt beam="1">  1       21 0.40040542E-01 0.20542858E+03</pdfrwt>
<pdfrwt beam="2">  1       21 0.28866086E-01 0.20542858E+03</pdfrwt>
<totfact> 0.68647053E+04</totfact>
</mgrwt>
</event>
<event>
 4    2  0.4024741E+000  0.3150217E+03  0.7546771E-02  0.1077964E+00
         21   -1    0    0  503  502  0.00000000000E+00  0.00000000000E+00  0.75800638880E+03  0.75800638880E+03  0.00000000000E+00 0. -1.
         21   -1    0    0  501  503 -0.00000000000E+00 -0.00000000000E+00 -0.13283548233E+03  0.13283548233E+03  0.00000000000E+00 0.  1.
          6    1    1    2  501    0  0.26211179561E+03  0.24639160763E+02  0.25910684789E+03  0.40789096615E+03  0.17300000000E+03 0. -1.
         -6    1    1    2    0  502 -0.26211179561E+03 -0.24639160763E+02  0.36606405858E+03  0.48295090498E+03  0.17300000000E+03 0.  1.
<mgrwt>
<rscale>  2 0.31502172E+03</rscale>
<asrwt>0</asrwt>
<pdfrwt beam="1">  1       21 0.11661637E+00 0.31502172E+03</pdfrwt>
<pdfrwt beam="2">  1       21 0.20436228E-01 0.31502172E+03</pdfrwt>
<totfact> 0.11736376E+04</totfact>
</mgrwt>
</event>
<event>
 4    2  0.4024741E+000  0.2362524E+03  0.7546771E-02  0.1122315E+00
         21   -1    0    0  501  502  0.00000000000E+00  0.00000000000E+00  0.29584654965E+03  0.29584654965E+03  0.00000000000E+00 0.  1.
         21   -1    0    0  502  503 -0.00000000000E+00 -0.00000000000E+00 -0.43745245357E+03  0.43745245357E+03  0.00000000000E+00 0. -1.
          6    1    1    2  501    0 -0.61388623721E+02  0.14871994292E+03  0.20570141027E+03  0.31325429723E+03  0.17300000000E+03 0.  1.
         -6    1    1    2    0  503  0.61388623721E+02 -0.14871994292E+03 -0.34730731419E+03  0.42004470599E+03  0.17300000000E+03 0. -1.
<mgrwt>
<rscale>  2 0.23625237E+03</rscale>
<asrwt>0</asrwt>
<pdfrwt beam="1">  1       21 0.45514854E-01 0.23625237E+03</pdfrwt>
<pdfrwt beam="2">  1       21 0.67300377E-01 0.23625237E+03</pdfrwt>
<totfact> 0.90881199E+03</totfact>
</mgrwt>
</event>
<event>
 4    2  0.4024741E+000  0.1766752E+03  0.7546771E-02  0.1171060E+00
         21   -1    0    0  503  502  0.00000000000E+00  0.00000000000E+00  0.12027539311E+04  0.12027539311E+04  0.00000000000E+00 0. -1.
         21   -1    0    0  501  503 -0.00000000000E+00 -0.00000000000E+00 -0.70871936317E+02  0.70871936317E+02  0.00000000000E+00 0. -1.
          6    1    1    2  501    0 -0.25227165770E+02  0.25470075765E+02  0.58958194051E+02  0.18625306252E+03  0.17300000000E+03 0. -1.
         -6    1    1    2    0  502  0.25227165770E+02 -0.25470075765E+02  0.10729238008E+04  0.10873728049E+04  0.17300000000E+03 0. -1.
<mgrwt>
<rscale>  2 0.17667522E+03</rscale>
<asrwt>0</asrwt>
<pdfrwt beam="1">  1       21 0.18503905E+00 0.17667522E+03</pdfrwt>
<pdfrwt beam="2">  1       21 0.10903376E-01 0.17667522E+03</pdfrwt>
<totfact> 0.11866676E+04</totfact>
</mgrwt>
</event>
<event>
 4    2  0.4024741E+000  0.1827377E+03  0.7546771E-02  0.1165179E+00
         21   -1    0    0  501  502  0.00000000000E+00  0.00000000000E+00  0.51069792422E+03  0.51069792422E+03  0.00000000000E+00 0.  1.
         21   -1    0    0  502  503 -0.00000000000E+00 -0.00000000000E+00 -0.73731698252E+02  0.73731698252E+02  0.00000000000E+00 0.  1.
          6    1    1    2  501    0 -0.36810504689E+00 -0.58855296244E+02  0.12017790175E+03  0.21871399010E+03  0.17300000000E+03 0.  1.
         -6    1    1    2    0  503  0.36810504689E+00  0.58855296244E+02  0.31678832422E+03  0.36571563237E+03  0.17300000000E+03 0.  1.
<mgrwt>
<rscale>  2 0.18273774E+03</rscale>
<asrwt>0</asrwt>
<pdfrwt beam="1">  1       21 0.78568909E-01 0.18273774E+03</pdfrwt>
<pdfrwt beam="2">  1       21 0.11343339E-01 0.18273774E+03</pdfrwt>
<totfact> 0.93318752E+04</totfact>
</mgrwt>
</event>
<event>
 4    2  0.4024741E+000  0.2274555E+03  0.7546771E-02  0.1128444E+00
         21   -1    0    0  503  502  0.00000000000E+00  0.00000000000E+00  0.13904628666E+04  0.13904628666E+04  0.00000000000E+00 0. -1.
         21   -1    0    0  501  503 -0.00000000000E+00 -0.00000000000E+00 -0.46425524142E+02  0.46425524142E+02  0.00000000000E+00 0. -1.
          6    1    1    2  501    0  0.12412755734E+03 -0.79995827740E+02  0.35188757387E+03  0.41899981813E+03  0.17300000000E+03 0. -1.
         -6    1    1    2    0  502 -0.12412755734E+03  0.79995827740E+02  0.99214976860E+03  0.10178885726E+04  0.17300000000E+03 0. -1.
<mgrwt>
<rscale>  2 0.22745545E+03</rscale>
<asrwt>0</asrwt>
<pdfrwt beam="1">  1       21 0.21391733E+00 0.22745545E+03</pdfrwt>
<pdfrwt beam="2">  1       21 0.71423894E-02 0.22745545E+03</pdfrwt>
<totfact> 0.15597420E+04</totfact>
</mgrwt>
</event>
<event>
 4    2  0.4024741E+000  0.3102743E+03  0.7546771E-02  0.1080214E+00
         21   -1    0    0  501  502  0.00000000000E+00  0.00000000000E+00  0.24022024981E+03  0.24022024981E+03  0.00000000000E+00 0. -1.
         21   -1    0    0  502  503 -0.00000000000E+00 -0.00000000000E+00 -0.57104350272E+03  0.57104350272E+03  0.00000000000E+00 0. -1.
          6    1    1    2  501    0  0.10188115936E+03  0.23656162327E+03  0.56094832631E+02  0.31530430141E+03  0.17300000000E+03 0. -1.
         -6    1    1    2    0  503 -0.10188115936E+03 -0.23656162327E+03 -0.38691808554E+03  0.49595945112E+03  0.17300000000E+03 0. -1.
<mgrwt>
<rscale>  2 0.31027435E+03</rscale>
<asrwt>0</asrwt>
<pdfrwt beam="1">  1       21 0.36956961E-01 0.31027435E+03</pdfrwt>
<pdfrwt beam="2">  1       21 0.87852847E-01 0.31027435E+03</pdfrwt>
<totfact> 0.73191667E+03</totfact>
</mgrwt>
</event>
<event>
 4    2  0.4024741E+000  0.1755344E+03  0.7546771E-02  0.1172196E+00
         21   -1    0    0  501  502  0.00000000000E+00  0.00000000000E+00  0.55181615098E+03  0.55181615098E+03  0.00000000000E+00 0.  1.
         21   -1    0    0  502  503 -0.00000000000E+00 -0.00000000000E+00 -0.13479727241E+03  0.13479727241E+03  0.00000000000E+00 0.  1.
          6    1    1    2  501    0 -0.32719922734E+01 -0.29540356391E+02  0.47125970833E+03  0.50288970091E+03  0.17300000000E+03 0.  1.
         -6    1    1    2    0  503  0.32719922734E+01  0.29540356391E+02 -0.54240829754E+02  0.18372372248E+03  0.17300000000E+03 0.  1.
<mgrwt>
<rscale>  2 0.17553444E+03</rscale>
<asrwt>0</asrwt>
<pdfrwt beam="1">  1       21 0.84894791E-01 0.17553444E+03</pdfrwt>
<pdfrwt beam="2">  1       21 0.20738042E-01 0.17553444E+03</pdfrwt>
<totfact> 0.26177255E+04</totfact>
</mgrwt>
</event>
<event>
 4    2  0.4024741E+000  0.2841779E+03  0.7546771E-02  0.1093429E+00
         21   -1    0    0  501  502  0.00000000000E+00  0.00000000000E+00  0.30560610317E+03  0.30560610317E+03  0.00000000000E+00 0.  1.
         21   -1    0    0  502  503 -0.00000000000E+00 -0.00000000000E+00 -0.35862500438E+03  0.35862500438E+03  0.00000000000E+00 0.  1.
          6    1    1    2  501    0 -0.10659478287E+02  0.22519869507E+03  0.14386027548E+03  0.31851664886E+03  0.17300000000E+03 0.  1.
         -6    1    1    2    0  503  0.10659478287E+02 -0.22519869507E+03 -0.19687917669E+03  0.34571445870E+03  0.17300000000E+03 0.  1.
<mgrwt>
<rscale>  2 0.28417790E+03</rscale>
<asrwt>0</asrwt>
<pdfrwt beam="1">  1       21 0.47016324E-01 0.28417790E+03</pdfrwt>
<pdfrwt beam="2">  1       21 0.55173077E-01 0.28417790E+03</pdfrwt>
<totfact> 0.12750937E+04</totfact>
</mgrwt>
</event>
<event>
 4    2  0.4024741E+000  0.1764162E+03  0.7546771E-02  0.1171317E+00
         21   -1    0    0  501  502  0.00000000000E+00  0.00000000000E+00  0.27522304571E+03  0.27522304571E+03  0.00000000000E+00 0.  1.
         21   -1    0    0  502  503 -0.00000000000E+00 -0.00000000000E+00 -0.12470198522E+03  0.12470198522E+03  0.00000000000E+00 0.  1.
          6    1    1    2  501    0 -0.49917625072E+01 -0.34186881694E+02  0.13630162192E+03  0.22293674598E+03  0.17300000000E+03 0. -1.
         -6    1    1    2    0  503  0.49917625072E+01  0.34186881694E+02  0.14219438576E+02  0.17698828494E+03  0.17300000000E+03 0. -1.
<mgrwt>
<rscale>  2 0.17641616E+03</rscale>
<asrwt>0</asrwt>
<pdfrwt beam="1">  1       21 0.42342007E-01 0.17641616E+03</pdfrwt>
<pdfrwt beam="2">  1       21 0.19184921E-01 0.17641616E+03</pdfrwt>
<totfact> 0.13461676E+05</totfact>
</mgrwt>
</event>
<event>
 4    2  0.4024741E+000  0.1876558E+03  0.7546771E-02  0.1160593E+00
         21   -1    0    0  501  502  0.00000000000E+00  0.00000000000E+00  0.92913361623E+03  0.92913361623E+03  0.00000000000E+00 0. -1.
         21   -1    0    0  502  503 -0.00000000000E+00 -0.00000000000E+00 -0.70358996231E+02  0.70358996231E+02  0.00000000000E+00 0. -1.
          6    1    1    2  501    0 -0.39734735935E+02  0.60884032264E+02  0.76881975607E+03  0.79139025262E+03  0.17300000000E+03 0. -1.
         -6    1    1    2    0  503  0.39734735935E+02 -0.60884032264E+02  0.89954863927E+02  0.20810235983E+03  0.17300000000E+03 0. -1.
<mgrwt>
<rscale>  2 0.18765584E+03</rscale>
<asrwt>0</asrwt>
<pdfrwt beam="1">  1       21 0.14294362E+00 0.18765584E+03</pdfrwt>
<pdfrwt beam="2">  1       21 0.10824462E-01 0.18765584E+03</pdfrwt>
<totfact> 0.23985997E+04</totfact>
</mgrwt>
</event>
<event>
 4    2  0.4024741E+000  0.2659804E+03  0.7546771E-02  0.1103602E+00
         21   -1    0    0  503  502  0.00000000000E+00  0.00000000000E+00  0.13371776591E+03  0.13371776591E+03  0.00000000000E+00 0. -1.
         21   -1    0    0  501  503 -0.00000000000E+00 -0.00000000000E+00 -0.52971318441E+03  0.52971318441E+03  0.00000000000E+00 0.  1.
          6    1    1    2  501    0 -0.30170423812E+02  0.19976560632E+03 -0.18640491616E+03  0.32479585082E+03  0.17300000000E+03 0. -1.
         -6    1    1    2    0  502  0.30170423812E+02 -0.19976560632E+03 -0.20959050234E+03  0.33863509950E+03  0.17300000000E+03 0. -1.
<mgrwt>
<rscale>  2 0.26598036E+03</rscale>
<asrwt>0</asrwt>
<pdfrwt beam="1">  1       21 0.20571964E-01 0.26598036E+03</pdfrwt>
<pdfrwt beam="2">  1       21 0.81494337E-01 0.26598036E+03</pdfrwt>
<totfact> 0.27838892E+04</totfact>
</mgrwt>
</event>
<event>
 4    2  0.4024741E+000  0.2096040E+03  0.7546771E-02  0.1141880E+00
         21   -1    0    0  501  502  0.00000000000E+00  0.00000000000E+00  0.24897047535E+03  0.24897047535E+03  0.00000000000E+00 0. -1.
         21   -1    0    0  502  503 -0.00000000000E+00 -0.00000000000E+00 -0.25532510998E+03  0.25532510998E+03  0.00000000000E+00 0.  1.
          6    1    1    2  501    0  0.11676785891E+03  0.19238150403E+02  0.13695723544E+03  0.25038195551E+03  0.17300000000E+03 0.  1.
         -6    1    1    2    0  503 -0.11676785891E+03 -0.19238150403E+02 -0.14331187007E+03  0.25391362982E+03  0.17300000000E+03 0.  1.
<mgrwt>
<rscale>  2 0.20960401E+03</rscale>
<asrwt>0</asrwt>
<pdfrwt beam="1">  1       21 0.38303150E-01 0.20960401E+03</pdfrwt>
<pdfrwt beam="2">  1       21 0.39280787E-01 0.20960401E+03</pdfrwt>
<totfact> 0.40716937E+04</totfact>
</mgrwt>
</event>
<event>
 4    2  0.4024741E+000  0.1963239E+03  0.7546771E-02  0.1152878E+00
         21   -1    0    0  503  502  0.00000000000E+00  0.00000000000E+00  0.61281278446E+02  0.61281278446E+02  0.00000000000E+00 0. -1.
         21   -1    0    0  501  503 -0.00000000000E+00 -0.00000000000E+00 -0.70682390487E+03  0.70682390487E+03  0.00000000000E+00 0. -1.
          6    1    1    2  501    0  0.83750799108E+02  0.39998321248E+02 -0.45024538881E+03  0.49118629072E+03  0.17300000000E+03 0. -1.
         -6    1    1    2    0  502 -0.83750799108E+02 -0.39998321248E+02 -0.19529723762E+03  0.27691889260E+03  0.17300000000E+03 0. -1.
<mgrwt>
<rscale>  2 0.19632387E+03</rscale>
<asrwt>0</asrwt>
<pdfrwt beam="1">  1       21 0.94278886E-02 0.19632387E+03</pdfrwt>
<pdfrwt beam="2">  1       21 0.10874214E+00 0.19632387E+03</pdfrwt>
<totfact> 0.60345555E+04</totfact>
</mgrwt>
</event>
<event>
 4    2  0.4024741E+000  0.1846362E+03  0.7546771E-02  0.1163390E+00
         21   -1    0    0  503  502  0.00000000000E+00  0.00000000000E+00  0.44007418010E+03  0.44007418010E+03  0.00000000000E+00 0. -1.
         21   -1    0    0  501  503 -0.00000000000E+00 -0.00000000000E+00 -0.13608852785E+03  0.13608852785E+03  0.00000000000E+00 0. -1.
          6    1    1    2  501    0  0.31071159720E+02 -0.56534105936E+02 -0.37084254115E+02  0.18832356200E+03  0.17300000000E+03 0. -1.
         -6    1    1    2    0  502 -0.31071159720E+02  0.56534105936E+02  0.34106990637E+03  0.38783914595E+03  0.17300000000E+03 0. -1.
<mgrwt>
<rscale>  2 0.18463619E+03</rscale>
<asrwt>0</asrwt>
<pdfrwt beam="1">  1       21 0.67703719E-01 0.18463619E+03</pdfrwt>
<pdfrwt beam="2">  1       21 0.20936697E-01 0.18463619E+03</pdfrwt>
<totfact> 0.42414008E+04</totfact>
</mgrwt>
</event>
<event>
 4    2  0.4024741E+000  0.2510861E+03  0.7546771E-02  0.1112620E+00
         21   -1    0    0  503  502  0.00000000000E+00  0.00000000000E+00  0.77380309506E+03  0.77380309506E+03  0.00000000000E+00 0.  1.
         21   -1    0    0  501  503 -0.00000000000E+00 -0.00000000000E+00 -0.81625268671E+02  0.81625268671E+02  0.00000000000E+00 0.  1.
          6    1    1    2  501    0 -0.18028087411E+01 -0.18196696928E+03  0.36454909279E+03  0.44265140809E+03  0.17300000000E+03 0.  1.
         -6    1    1    2    0  502  0.18028087411E+01  0.18196696928E+03  0.32762873360E+03  0.41277695565E+03  0.17300000000E+03 0.  1.
<mgrwt>
<rscale>  2 0.25108610E+03</rscale>
<asrwt>0</asrwt>
<pdfrwt beam="1">  1       21 0.11904663E+00 0.25108610E+03</pdfrwt>
<pdfrwt beam="2">  1       21 0.12557734E-01 0.25108610E+03</pdfrwt>
<totfact> 0.28230697E+04</totfact>
</mgrwt>
</event>
<event>
 4    2  0.4024741E+000  0.2114378E+03  0.7546771E-02  0.1140432E+00
         21   -1    0    0  501  502  0.00000000000E+00  0.00000000000E+00  0.46153327666E+03  0.46153327666E+03  0.00000000000E+00 0. -1.
         21   -1    0    0  502  503 -0.00000000000E+00 -0.00000000000E+00 -0.12975475555E+03  0.12975475555E+03  0.00000000000E+00 0. -1.
          6    1    1    2  501    0  0.24054439549E+01 -0.12153672835E+03  0.17040805708E+02  0.21212343472E+03  0.17300000000E+03 0. -1.
         -6    1    1    2    0  503 -0.24054439549E+01  0.12153672835E+03  0.31473771540E+03  0.37916459750E+03  0.17300000000E+03 0. -1.
<mgrwt>
<rscale>  2 0.21143785E+03</rscale>
<asrwt>0</asrwt>
<pdfrwt beam="1">  1       21 0.71005119E-01 0.21143785E+03</pdfrwt>
<pdfrwt beam="2">  1       21 0.19962270E-01 0.21143785E+03</pdfrwt>
<totfact> 0.41194063E+04</totfact>
</mgrwt>
</event>
<event>
 4    2  0.4024741E+000  0.1914319E+03  0.7546771E-02  0.1157176E+00
         21   -1    0    0  503  502  0.00000000000E+00  0.00000000000E+00  0.30427684216E+03  0.30427684216E+03  0.00000000000E+00 0.  1.
         21   -1    0    0  501  503 -0.00000000000E+00 -0.00000000000E+00 -0.13829870418E+03  0.13829870418E+03  0.00000000000E+00 0.  1.
          6    1    1    2  501    0  0.79602913280E+02 -0.19507502467E+02  0.34627736747E+01  0.19146320079E+03  0.17300000000E+03 0.  1.
         -6    1    1    2    0  502 -0.79602913280E+02  0.19507502467E+02  0.16251536430E+03  0.25111234555E+03  0.17300000000E+03 0.  1.
<mgrwt>
<rscale>  2 0.19143188E+03</rscale>
<asrwt>0</asrwt>
<pdfrwt beam="1">  1       21 0.46811822E-01 0.19143188E+03</pdfrwt>
<pdfrwt beam="2">  1       21 0.21276724E-01 0.19143188E+03</pdfrwt>
<totfact> 0.89851591E+04</totfact>
</mgrwt>
</event>
<event>
 4    2  0.4024741E+000  0.2109535E+03  0.7546771E-02  0.1140813E+00
         21   -1    0    0  501  502  0.00000000000E+00  0.00000000000E+00  0.16926959302E+03  0.16926959302E+03  0.00000000000E+00 0.  1.
         21   -1    0    0  502  503 -0.00000000000E+00 -0.00000000000E+00 -0.32402731272E+03  0.32402731272E+03  0.00000000000E+00 0.  1.
          6    1    1    2  501    0  0.11980804760E+03  0.14779069608E+02  0.29747554051E+02  0.21304062087E+03  0.17300000000E+03 0.  1.
         -6    1    1    2    0  503 -0.11980804760E+03 -0.14779069608E+02 -0.18450527375E+03  0.28025628487E+03  0.17300000000E+03 0.  1.
<mgrwt>
<rscale>  2 0.21095352E+03</rscale>
<asrwt>0</asrwt>
<pdfrwt beam="1">  1       21 0.26041476E-01 0.21095352E+03</pdfrwt>
<pdfrwt beam="2">  1       21 0.49850356E-01 0.21095352E+03</pdfrwt>
<totfact> 0.53249341E+04</totfact>
</mgrwt>
</event>
<event>
 4    2  0.4024741E+000  0.1831026E+03  0.7546771E-02  0.1164834E+00
         21   -1    0    0  501  502  0.00000000000E+00  0.00000000000E+00  0.27204753848E+03  0.27204753848E+03  0.00000000000E+00 0. -1.
         21   -1    0    0  502  503 -0.00000000000E+00 -0.00000000000E+00 -0.22947283675E+03  0.22947283675E+03  0.00000000000E+00 0. -1.
          6    1    1    2  501    0  0.43573316332E+02 -0.41218227308E+02  0.19190602371E+03  0.26524422349E+03  0.17300000000E+03 0. -1.
         -6    1    1    2    0  503 -0.43573316332E+02  0.41218227308E+02 -0.14933132197E+03  0.23627615174E+03  0.17300000000E+03 0. -1.
<mgrwt>
<rscale>  2 0.18310264E+03</rscale>
<asrwt>0</asrwt>
<pdfrwt beam="1">  1       21 0.41853467E-01 0.18310264E+03</pdfrwt>
<pdfrwt beam="2">  1       21 0.35303513E-01 0.18310264E+03</pdfrwt>
<totfact> 0.42707216E+04</totfact>
</mgrwt>
</event>
<event>
 4    2  0.4024741E+000  0.2657380E+03  0.7546771E-02  0.1103744E+00
         21   -1    0    0  501  502  0.00000000000E+00  0.00000000000E+00  0.15899165421E+03  0.15899165421E+03  0.00000000000E+00 0. -1.
         21   -1    0    0  502  503 -0.00000000000E+00 -0.00000000000E+00 -0.60890707540E+03  0.60890707540E+03  0.00000000000E+00 0. -1.
          6    1    1    2  501    0 -0.18440669394E+03  0.81742610493E+02 -0.25240264203E+02  0.26693398824E+03  0.17300000000E+03 0. -1.
         -6    1    1    2    0  503  0.18440669394E+03 -0.81742610493E+02 -0.42467515698E+03  0.50096474137E+03  0.17300000000E+03 0. -1.
<mgrwt>
<rscale>  2 0.26573800E+03</rscale>
<asrwt>0</asrwt>
<pdfrwt beam="1">  1       21 0.24460255E-01 0.26573800E+03</pdfrwt>
<pdfrwt beam="2">  1       21 0.93678012E-01 0.26573800E+03</pdfrwt>
<totfact> 0.14492820E+04</totfact>
</mgrwt>
</event>
<event>
 4    2  0.4024741E+000  0.1868687E+03  0.7546771E-02  0.1161316E+00
         21   -1    0    0  503  502  0.00000000000E+00  0.00000000000E+00  0.41285610185E+03  0.41285610185E+03  0.00000000000E+00 0.  1.
         21   -1    0    0  501  503 -0.00000000000E+00 -0.00000000000E+00 -0.24311268044E+03  0.24311268044E+03  0.00000000000E+00 0.  1.
          6    1    1    2  501    0 -0.38972596087E+02  0.58924184763E+02 -0.17998253212E+03  0.25944871298E+03  0.17300000000E+03 0.  1.
         -6    1    1    2    0  502  0.38972596087E+02 -0.58924184763E+02  0.34972595353E+03  0.39652006932E+03  0.17300000000E+03 0.  1.
<mgrwt>
<rscale>  2 0.18686873E+03</rscale>
<asrwt>0</asrwt>
<pdfrwt beam="1">  1       21 0.63516323E-01 0.18686873E+03</pdfrwt>
<pdfrwt beam="2">  1       21 0.37401951E-01 0.18686873E+03</pdfrwt>
<totfact> 0.15856083E+04</totfact>
</mgrwt>
</event>
<event>
 4    2  0.4024741E+000  0.1885210E+03  0.7546771E-02  0.1159802E+00
         21   -1    0    0  503  502  0.00000000000E+00  0.00000000000E+00  0.88798005547E+03  0.88798005547E+03  0.00000000000E+00 0.  1.
         21   -1    0    0  501  503 -0.00000000000E+00 -0.00000000000E+00 -0.40196367539E+02  0.40196367539E+02  0.00000000000E+00 0.  1.
          6    1    1    2  501    0  0.15783218526E+02 -0.73226173543E+02  0.45431500466E+03  0.49187631162E+03  0.17300000000E+03 0.  1.
         -6    1    1    2    0  502 -0.15783218526E+02  0.73226173543E+02  0.39346868327E+03  0.43630011139E+03  0.17300000000E+03 0.  1.
<mgrwt>
<rscale>  2 0.18852104E+03</rscale>
<asrwt>0</asrwt>
<pdfrwt beam="1">  1       21 0.13661230E+00 0.18852104E+03</pdfrwt>
<pdfrwt beam="2">  1       21 0.61840572E-02 0.18852104E+03</pdfrwt>
<totfact> 0.71505912E+04</totfact>
</mgrwt>
</event>
<event>
 4    2  0.4024741E+000  0.1867143E+03  0.7546771E-02  0.1161459E+00
         21   -1    0    0  503  502  0.00000000000E+00  0.00000000000E+00  0.13079356917E+04  0.13079356917E+04  0.00000000000E+00 0.  1.
         21   -1    0    0  501  503 -0.00000000000E+00 -0.00000000000E+00 -0.29739161622E+02  0.29739161622E+02  0.00000000000E+00 0.  1.
          6    1    1    2  501    0  0.40863043143E+02 -0.57126645502E+02  0.85450881379E+03  0.87466996905E+03  0.17300000000E+03 0.  1.
         -6    1    1    2    0  502 -0.40863043143E+02  0.57126645502E+02  0.42368771629E+03  0.46300488427E+03  0.17300000000E+03 0.  1.
<mgrwt>
<rscale>  2 0.18671433E+03</rscale>
<asrwt>0</asrwt>
<pdfrwt beam="1">  1       21 0.20122083E+00 0.18671433E+03</pdfrwt>
<pdfrwt beam="2">  1       21 0.45752566E-02 0.18671433E+03</pdfrwt>
<totfact> 0.41386389E+04</totfact>
</mgrwt>
</event>
<event>
 4    2  0.4024741E+000  0.1733403E+03  0.7546771E-02  0.1174409E+00
         21   -1    0    0  503  502  0.00000000000E+00  0.00000000000E+00  0.24063982775E+03  0.24063982775E+03  0.00000000000E+00 0.  1.
         21   -1    0    0  501  503 -0.00000000000E+00 -0.00000000000E+00 -0.13337614091E+03  0.13337614091E+03  0.00000000000E+00 0.  1.
          6    1    1    2  501    0  0.90559837811E+01 -0.59869210899E+01  0.63839336227E+01  0.17345780085E+03  0.17300000000E+03 0.  1.
         -6    1    1    2    0  502 -0.90559837811E+01  0.59869210899E+01  0.10087975322E+03  0.20055816781E+03  0.17300000000E+03 0.  1.
<mgrwt>
<rscale>  2 0.17334028E+03</rscale>
<asrwt>0</asrwt>
<pdfrwt beam="1">  1       21 0.37021512E-01 0.17334028E+03</pdfrwt>
<pdfrwt beam="2">  1       21 0.20519406E-01 0.17334028E+03</pdfrwt>
<totfact> 0.15578589E+05</totfact>
</mgrwt>
</event>
<event>
 4    2  0.4024741E+000  0.2165065E+03  0.7546771E-02  0.1136515E+00
         21   -1    0    0  503  502  0.00000000000E+00  0.00000000000E+00  0.87643466477E+03  0.87643466477E+03  0.00000000000E+00 0. -1.
         21   -1    0    0  501  503 -0.00000000000E+00 -0.00000000000E+00 -0.65242852257E+02  0.65242852257E+02  0.00000000000E+00 0.  1.
          6    1    1    2  501    0  0.12655446856E+03 -0.30496139015E+02  0.20570544426E+03  0.29864657675E+03  0.17300000000E+03 0.  1.
         -6    1    1    2    0  502 -0.12655446856E+03  0.30496139015E+02  0.60548636826E+03  0.64303094028E+03  0.17300000000E+03 0. -1.
<mgrwt>
<rscale>  2 0.21650646E+03</rscale>
<asrwt>0</asrwt>
<pdfrwt beam="1">  1       21 0.13483609E+00 0.21650646E+03</pdfrwt>
<pdfrwt beam="2">  1       21 0.10037363E-01 0.21650646E+03</pdfrwt>
<totfact> 0.31322984E+04</totfact>
</mgrwt>
</event>
<event>
 4    2  0.4024741E+000  0.2038667E+03  0.7546771E-02  0.1146517E+00
         21   -1    0    0  501  502  0.00000000000E+00  0.00000000000E+00  0.10416562288E+03  0.10416562288E+03  0.00000000000E+00 0. -1.
         21   -1    0    0  502  503 -0.00000000000E+00 -0.00000000000E+00 -0.39931434429E+03  0.39931434429E+03  0.00000000000E+00 0. -1.
          6    1    1    2  501    0 -0.51788603317E+02  0.94607528735E+02 -0.14046397047E+03  0.24757174905E+03  0.17300000000E+03 0. -1.
         -6    1    1    2    0  503  0.51788603317E+02 -0.94607528735E+02 -0.15468475095E+03  0.25590821812E+03  0.17300000000E+03 0. -1.
<mgrwt>
<rscale>  2 0.20386673E+03</rscale>
<asrwt>0</asrwt>
<pdfrwt beam="1">  1       21 0.16025481E-01 0.20386673E+03</pdfrwt>
<pdfrwt beam="2">  1       21 0.61432975E-01 0.20386673E+03</pdfrwt>
<totfact> 0.85217161E+04</totfact>
</mgrwt>
</event>
<event>
 4    2  0.4024741E+000  0.2082974E+03  0.7546771E-02  0.1142921E+00
         21   -1    0    0  501  502  0.00000000000E+00  0.00000000000E+00  0.14879850579E+03  0.14879850579E+03  0.00000000000E+00 0.  1.
         21   -1    0    0  502  503 -0.00000000000E+00 -0.00000000000E+00 -0.48591654442E+03  0.48591654442E+03  0.00000000000E+00 0.  1.
          6    1    1    2  501    0  0.11600512779E+03 -0.12638411003E+01  0.32136092657E+02  0.21076175037E+03  0.17300000000E+03 0.  1.
         -6    1    1    2    0  503 -0.11600512779E+03  0.12638411003E+01 -0.36925413129E+03  0.42395329984E+03  0.17300000000E+03 0.  1.
<mgrwt>
<rscale>  2 0.20829735E+03</rscale>
<asrwt>0</asrwt>
<pdfrwt beam="1">  1       21 0.22892078E-01 0.20829735E+03</pdfrwt>
<pdfrwt beam="2">  1       21 0.74756391E-01 0.20829735E+03</pdfrwt>
<totfact> 0.28428214E+04</totfact>
</mgrwt>
</event>
<event>
 4    2  0.4024741E+000  0.3708846E+03  0.7546771E-02  0.1054355E+00
         21   -1    0    0  501  502  0.00000000000E+00  0.00000000000E+00  0.91377841296E+03  0.91377841296E+03  0.00000000000E+00 0.  1.
         21   -1    0    0  502  503 -0.00000000000E+00 -0.00000000000E+00 -0.24786490377E+03  0.24786490377E+03  0.00000000000E+00 0. -1.
          6    1    1    2  501    0 -0.95161426225E+02  0.31395975007E+03 -0.31007679700E+02  0.37217858336E+03  0.17300000000E+03 0. -1.
         -6    1    1    2    0  503  0.95161426225E+02 -0.31395975007E+03  0.69692118889E+03  0.78946473337E+03  0.17300000000E+03 0.  1.
<mgrwt>
<rscale>  2 0.37088465E+03</rscale>
<asrwt>0</asrwt>
<pdfrwt beam="1">  1       21 0.14058129E+00 0.37088465E+03</pdfrwt>
<pdfrwt beam="2">  1       21 0.38133062E-01 0.37088465E+03</pdfrwt>
<totfact> 0.20843469E+03</totfact>
</mgrwt>
</event>
<event>
 4    2  0.4024741E+000  0.2700996E+03  0.7546771E-02  0.1101223E+00
         21   -1    0    0  503  502  0.00000000000E+00  0.00000000000E+00  0.47422396312E+03  0.47422396312E+03  0.00000000000E+00 0.  1.
         21   -1    0    0  501  503 -0.00000000000E+00 -0.00000000000E+00 -0.16180622966E+03  0.16180622966E+03  0.00000000000E+00 0.  1.
          6    1    1    2  501    0  0.20648726905E+03  0.19693137905E+02  0.22677927880E+03  0.35267924982E+03  0.17300000000E+03 0.  1.
         -6    1    1    2    0  502 -0.20648726905E+03 -0.19693137905E+02  0.85638454656E+02  0.28335094296E+03  0.17300000000E+03 0.  1.
<mgrwt>
<rscale>  2 0.27009963E+03</rscale>
<asrwt>0</asrwt>
<pdfrwt beam="1">  1       21 0.72957533E-01 0.27009963E+03</pdfrwt>
<pdfrwt beam="2">  1       21 0.24893266E-01 0.27009963E+03</pdfrwt>
<totfact> 0.24828831E+04</totfact>
</mgrwt>
</event>
<event>
 4    2  0.4024741E+000  0.2222165E+03  0.7546771E-02  0.1132241E+00
         21   -1    0    0  503  502  0.00000000000E+00  0.00000000000E+00  0.13425246101E+04  0.13425246101E+04  0.00000000000E+00 0.  1.
         21   -1    0    0  501  503 -0.00000000000E+00 -0.00000000000E+00 -0.38405445612E+02  0.38405445612E+02  0.00000000000E+00 0.  1.
          6    1    1    2  501    0 -0.12463712822E+03 -0.62583946669E+02  0.51008142228E+03  0.55638405932E+03  0.17300000000E+03 0.  1.
         -6    1    1    2    0  502  0.12463712822E+03  0.62583946669E+02  0.79403774218E+03  0.82454599636E+03  0.17300000000E+03 0.  1.
<mgrwt>
<rscale>  2 0.22221648E+03</rscale>
<asrwt>0</asrwt>
<pdfrwt beam="1">  1       21 0.20654221E+00 0.22221648E+03</pdfrwt>
<pdfrwt beam="2">  1       21 0.59085311E-02 0.22221648E+03</pdfrwt>
<totfact> 0.24173778E+04</totfact>
</mgrwt>
</event>
<event>
 4    2  0.4024741E+000  0.1740673E+03  0.7546771E-02  0.1173671E+00
         21   -1    0    0  501  502  0.00000000000E+00  0.00000000000E+00  0.48328429512E+02  0.48328429512E+02  0.00000000000E+00 0. -1.
         21   -1    0    0  502  503 -0.00000000000E+00 -0.00000000000E+00 -0.75530553486E+03  0.75530553486E+03  0.00000000000E+00 0. -1.
          6    1    1    2  501    0 -0.64462055366E+01  0.18135251472E+02 -0.51913290523E+03  0.54753850477E+03  0.17300000000E+03 0. -1.
         -6    1    1    2    0  503  0.64462055366E+01 -0.18135251472E+02 -0.18784420012E+03  0.25609545960E+03  0.17300000000E+03 0. -1.
<mgrwt>
<rscale>  2 0.17406735E+03</rscale>
<asrwt>0</asrwt>
<pdfrwt beam="1">  1       21 0.74351429E-02 0.17406735E+03</pdfrwt>
<pdfrwt beam="2">  1       21 0.11620085E+00 0.17406735E+03</pdfrwt>
<totfact> 0.78569179E+04</totfact>
</mgrwt>
</event>
<event>
 4    2  0.4024741E+000  0.2274479E+03  0.7546771E-02  0.1128449E+00
         21   -1    0    0  503  502  0.00000000000E+00  0.00000000000E+00  0.10597028826E+03  0.10597028826E+03  0.00000000000E+00 0. -1.
         21   -1    0    0  501  503 -0.00000000000E+00 -0.00000000000E+00 -0.74274759356E+03  0.74274759356E+03  0.00000000000E+00 0.  1.
          6    1    1    2  501    0  0.12182644762E+03 -0.83437764455E+02 -0.56682466049E+03  0.61075587563E+03  0.17300000000E+03 0.  1.
         -6    1    1    2    0  502 -0.12182644762E+03  0.83437764455E+02 -0.69952644811E+02  0.23796200620E+03  0.17300000000E+03 0. -1.
<mgrwt>
<rscale>  2 0.22744789E+03</rscale>
<asrwt>0</asrwt>
<pdfrwt beam="1">  1       21 0.16303121E-01 0.22744789E+03</pdfrwt>
<pdfrwt beam="2">  1       21 0.11426886E+00 0.22744789E+03</pdfrwt>
<totfact> 0.19641470E+04</totfact>
</mgrwt>
</event>
<event>
 4    2  0.4024741E+000  0.1805712E+03  0.7546771E-02  0.1167251E+00
         21   -1    0    0  503  502  0.00000000000E+00  0.00000000000E+00  0.83556987238E+02  0.83556987238E+02  0.00000000000E+00 0. -1.
         21   -1    0    0  501  503 -0.00000000000E+00 -0.00000000000E+00 -0.39352474672E+03  0.39352474672E+03  0.00000000000E+00 0. -1.
          6    1    1    2  501    0  0.51706807357E+02  0.18305022831E+01 -0.17683031607E+03  0.25273485186E+03  0.17300000000E+03 0.  1.
         -6    1    1    2    0  502 -0.51706807357E+02 -0.18305022831E+01 -0.13313744341E+03  0.22434688209E+03  0.17300000000E+03 0.  1.
<mgrwt>
<rscale>  2 0.18057116E+03</rscale>
<asrwt>0</asrwt>
<pdfrwt beam="1">  1       21 0.12854921E-01 0.18057116E+03</pdfrwt>
<pdfrwt beam="2">  1       21 0.60542269E-01 0.18057116E+03</pdfrwt>
<totfact> 0.13237927E+05</totfact>
</mgrwt>
</event>
<event>
 4    2  0.4024741E+000  0.2394095E+03  0.7546771E-02  0.1120187E+00
         21   -1    0    0  501  502  0.00000000000E+00  0.00000000000E+00  0.12704005568E+04  0.12704005568E+04  0.00000000000E+00 0. -1.
         21   -1    0    0  502  503 -0.00000000000E+00 -0.00000000000E+00 -0.48431036918E+02  0.48431036918E+02  0.00000000000E+00 0.  1.
          6    1    1    2  501    0  0.15565090166E+03  0.56220153841E+02  0.43849496888E+03  0.49959458225E+03  0.17300000000E+03 0.  1.
         -6    1    1    2    0  503 -0.15565090166E+03 -0.56220153841E+02  0.78347455102E+03  0.81923701149E+03  0.17300000000E+03 0. -1.
<mgrwt>
<rscale>  2 0.23940950E+03</rscale>
<asrwt>0</asrwt>
<pdfrwt beam="1">  1       21 0.19544621E+00 0.23940950E+03</pdfrwt>
<pdfrwt beam="2">  1       21 0.74509297E-02 0.23940950E+03</pdfrwt>
<totfact> 0.18878856E+04</totfact>
</mgrwt>
</event>
<event>
 4    2  0.4024741E+000  0.1937296E+03  0.7546771E-02  0.1155140E+00
         21   -1    0    0  501  502  0.00000000000E+00  0.00000000000E+00  0.17693021083E+04  0.17693021083E+04  0.00000000000E+00 0.  1.
         21   -1    0    0  502  503 -0.00000000000E+00 -0.00000000000E+00 -0.24372023706E+02  0.24372023706E+02  0.00000000000E+00 0. -1.
          6    1    1    2  501    0  0.20193634799E+02  0.84819714065E+02  0.11953773154E+04  0.12109740266E+04  0.17300000000E+03 0.  1.
         -6    1    1    2    0  503 -0.20193634799E+02 -0.84819714065E+02  0.54955276916E+03  0.58270010544E+03  0.17300000000E+03 0. -1.
<mgrwt>
<rscale>  2 0.19372962E+03</rscale>
<asrwt>0</asrwt>
<pdfrwt beam="1">  1       21 0.27220022E+00 0.19372962E+03</pdfrwt>
<pdfrwt beam="2">  1       21 0.37495435E-02 0.19372962E+03</pdfrwt>
<totfact> 0.21533342E+04</totfact>
</mgrwt>
</event>
<event>
 4    2  0.4024741E+000  0.2042657E+03  0.7546771E-02  0.1146189E+00
         21   -1    0    0  503  502  0.00000000000E+00  0.00000000000E+00  0.29633032093E+03  0.29633032093E+03  0.00000000000E+00 0. -1.
         21   -1    0    0  501  503 -0.00000000000E+00 -0.00000000000E+00 -0.14080643232E+03  0.14080643232E+03  0.00000000000E+00 0.  1.
          6    1    1    2  501    0  0.93154391407E+02 -0.55836809387E+02  0.78673250840E+02  0.21889259996E+03  0.17300000000E+03 0. -1.
         -6    1    1    2    0  502 -0.93154391407E+02  0.55836809387E+02  0.76850637771E+02  0.21824415329E+03  0.17300000000E+03 0. -1.
<mgrwt>
<rscale>  2 0.20426573E+03</rscale>
<asrwt>0</asrwt>
<pdfrwt beam="1">  1       21 0.45589280E-01 0.20426573E+03</pdfrwt>
<pdfrwt beam="2">  1       21 0.21662528E-01 0.20426573E+03</pdfrwt>
<totfact> 0.91247255E+04</totfact>
</mgrwt>
</event>
<event>
 4    2  0.4024741E+000  0.1749845E+03  0.7546771E-02  0.1172747E+00
         21   -1    0    0  501  502  0.00000000000E+00  0.00000000000E+00  0.38462804620E+03  0.38462804620E+03  0.00000000000E+00 0.  1.
         21   -1    0    0  502  503 -0.00000000000E+00 -0.00000000000E+00 -0.90067520941E+02  0.90067520941E+02  0.00000000000E+00 0.  1.
          6    1    1    2  501    0 -0.26254905506E+02 -0.11144623122E+01  0.22816228004E+03  0.28753710738E+03  0.17300000000E+03 0.  1.
         -6    1    1    2    0  503  0.26254905506E+02  0.11144623122E+01  0.66398245215E+02  0.18715845975E+03  0.17300000000E+03 0.  1.
<mgrwt>
<rscale>  2 0.17498446E+03</rscale>
<asrwt>0</asrwt>
<pdfrwt beam="1">  1       21 0.59173545E-01 0.17498446E+03</pdfrwt>
<pdfrwt beam="2">  1       21 0.13856542E-01 0.17498446E+03</pdfrwt>
<totfact> 0.12170039E+05</totfact>
</mgrwt>
</event>
<event>
 4    2  0.4024741E+000  0.3251084E+03  0.7546771E-02  0.1073322E+00
         21   -1    0    0  501  502  0.00000000000E+00  0.00000000000E+00  0.84733899949E+03  0.84733899949E+03  0.00000000000E+00 0.  1.
         21   -1    0    0  502  503 -0.00000000000E+00 -0.00000000000E+00 -0.22064486878E+03  0.22064486878E+03  0.00000000000E+00 0. -1.
          6    1    1    2  501    0  0.23748887003E+03 -0.13915999468E+03  0.66540357764E+03  0.74057909006E+03  0.17300000000E+03 0.  1.
         -6    1    1    2    0  503 -0.23748887003E+03  0.13915999468E+03 -0.38709446925E+02  0.32740477820E+03  0.17300000000E+03 0. -1.
<mgrwt>
<rscale>  2 0.32510839E+03</rscale>
<asrwt>0</asrwt>
<pdfrwt beam="1">  1       21 0.13035985E+00 0.32510839E+03</pdfrwt>
<pdfrwt beam="2">  1       21 0.33945365E-01 0.32510839E+03</pdfrwt>
<totfact> 0.32831836E+03</totfact>
</mgrwt>
</event>
<event>
 4    2  0.4024741E+000  0.1860016E+03  0.7546771E-02  0.1162118E+00
         21   -1    0    0  501  502  0.00000000000E+00  0.00000000000E+00  0.63530061420E+03  0.63530061420E+03  0.00000000000E+00 0. -1.
         21   -1    0    0  502  503 -0.00000000000E+00 -0.00000000000E+00 -0.66075070658E+02  0.66075070658E+02  0.00000000000E+00 0. -1.
          6    1    1    2  501    0 -0.14625733803E+02  0.66735893701E+02  0.13756172094E+03  0.23134350794E+03  0.17300000000E+03 0. -1.
         -6    1    1    2    0  503  0.14625733803E+02 -0.66735893701E+02  0.43166382260E+03  0.47003217691E+03  0.17300000000E+03 0. -1.
<mgrwt>
<rscale>  2 0.18600159E+03</rscale>
<asrwt>0</asrwt>
<pdfrwt beam="1">  1       21 0.97738552E-01 0.18600159E+03</pdfrwt>
<pdfrwt beam="2">  1       21 0.10165396E-01 0.18600159E+03</pdfrwt>
<totfact> 0.68512680E+04</totfact>
</mgrwt>
</event>
<event>
 4    2  0.4024741E+000  0.1744731E+03  0.7546771E-02  0.1173262E+00
         21   -1    0    0  503  502  0.00000000000E+00  0.00000000000E+00  0.16486289144E+03  0.16486289144E+03  0.00000000000E+00 0. -1.
         21   -1    0    0  501  503 -0.00000000000E+00 -0.00000000000E+00 -0.21830826331E+03  0.21830826331E+03  0.00000000000E+00 0. -1.
          6    1    1    2  501    0  0.14455222014E+02 -0.17404563381E+02 -0.10195684623E+03  0.20207936748E+03  0.17300000000E+03 0. -1.
         -6    1    1    2    0  502 -0.14455222014E+02  0.17404563381E+02  0.48511474358E+02  0.18109178726E+03  0.17300000000E+03 0. -1.
<mgrwt>
<rscale>  2 0.17447313E+03</rscale>
<asrwt>0</asrwt>
<pdfrwt beam="1">  1       21 0.25363522E-01 0.17447313E+03</pdfrwt>
<pdfrwt beam="2">  1       21 0.33585887E-01 0.17447313E+03</pdfrwt>
<totfact> 0.12661559E+05</totfact>
</mgrwt>
</event>
<event>
 4    2  0.4024741E+000  0.2088852E+03  0.7546771E-02  0.1142452E+00
         21   -1    0    0  503  502  0.00000000000E+00  0.00000000000E+00  0.37689811619E+03  0.37689811619E+03  0.00000000000E+00 0. -1.
         21   -1    0    0  501  503 -0.00000000000E+00 -0.00000000000E+00 -0.11958128091E+03  0.11958128091E+03  0.00000000000E+00 0. -1.
          6    1    1    2  501    0  0.11044617038E+03 -0.38802912953E+02  0.17298318859E+03  0.27121247416E+03  0.17300000000E+03 0. -1.
         -6    1    1    2    0  502 -0.11044617038E+03  0.38802912953E+02  0.84333646686E+02  0.22526692294E+03  0.17300000000E+03 0. -1.
<mgrwt>
<rscale>  2 0.20888519E+03</rscale>
<asrwt>0</asrwt>
<pdfrwt beam="1">  1       21 0.57984325E-01 0.20888519E+03</pdfrwt>
<pdfrwt beam="2">  1       21 0.18397120E-01 0.20888519E+03</pdfrwt>
<totfact> 0.74639938E+04</totfact>
</mgrwt>
</event>
<event>
 4    2  0.4024741E+000  0.2305823E+03  0.7546771E-02  0.1126231E+00
         21   -1    0    0  503  502  0.00000000000E+00  0.00000000000E+00  0.28969102208E+02  0.28969102208E+02  0.00000000000E+00 0.  1.
         21   -1    0    0  501  503 -0.00000000000E+00 -0.00000000000E+00 -0.19095197745E+04  0.19095197745E+04  0.00000000000E+00 0. -1.
          6    1    1    2  501    0 -0.13462743478E+03  0.71516722955E+02 -0.74924146641E+03  0.78392025286E+03  0.17300000000E+03 0.  1.
         -6    1    1    2    0  502  0.13462743478E+03 -0.71516722955E+02 -0.11313092059E+04  0.11545686239E+04  0.17300000000E+03 0.  1.
<mgrwt>
<rscale>  2 0.23058228E+03</rscale>
<asrwt>0</asrwt>
<pdfrwt beam="1">  1       21 0.44567837E-02 0.23058228E+03</pdfrwt>
<pdfrwt beam="2">  1       21 0.29377236E+00 0.23058228E+03</pdfrwt>
<totfact> 0.11673278E+04</totfact>
</mgrwt>
</event>
<event>
 4    2  0.4024741E+000  0.2016470E+03  0.7546771E-02  0.1148357E+00
         21   -1    0    0  503  502  0.00000000000E+00  0.00000000000E+00  0.91202915384E+02  0.91202915384E+02  0.00000000000E+00 0.  1.
         21   -1    0    0  501  503 -0.00000000000E+00 -0.00000000000E+00 -0.71913706034E+03  0.71913706034E+03  0.00000000000E+00 0. -1.
          6    1    1    2  501    0 -0.10174629872E+03  0.19498559930E+02 -0.56374406872E+03  0.59872270557E+03  0.17300000000E+03 0. -1.
         -6    1    1    2    0  502  0.10174629872E+03 -0.19498559930E+02 -0.64190076235E+02  0.21161727016E+03  0.17300000000E+03 0.  1.
<mgrwt>
<rscale>  2 0.20164698E+03</rscale>
<asrwt>0</asrwt>
<pdfrwt beam="1">  1       21 0.14031217E-01 0.20164698E+03</pdfrwt>
<pdfrwt beam="2">  1       21 0.11063647E+00 0.20164698E+03</pdfrwt>
<totfact> 0.28370745E+04</totfact>
</mgrwt>
</event>
<event>
 4    2  0.4024741E+000  0.1938398E+03  0.7546771E-02  0.1155043E+00
         21   -1    0    0  503  502  0.00000000000E+00  0.00000000000E+00  0.10342522361E+04  0.10342522361E+04  0.00000000000E+00 0.  1.
         21   -1    0    0  501  503 -0.00000000000E+00 -0.00000000000E+00 -0.44940465521E+02  0.44940465521E+02  0.00000000000E+00 0.  1.
          6    1    1    2  501    0  0.22127200955E+02  0.84588685843E+02  0.25845781982E+03  0.32307012152E+03  0.17300000000E+03 0.  1.
         -6    1    1    2    0  502 -0.22127200955E+02 -0.84588685843E+02  0.73085395080E+03  0.75612258014E+03  0.17300000000E+03 0.  1.
<mgrwt>
<rscale>  2 0.19383978E+03</rscale>
<asrwt>0</asrwt>
<pdfrwt beam="1">  1       21 0.15911571E+00 0.19383978E+03</pdfrwt>
<pdfrwt beam="2">  1       21 0.69139186E-02 0.19383978E+03</pdfrwt>
<totfact> 0.39453230E+04</totfact>
</mgrwt>
</event>
<event>
 4    2  0.4024741E+000  0.2284830E+03  0.7546771E-02  0.1127712E+00
         21   -1    0    0  501  502  0.00000000000E+00  0.00000000000E+00  0.94305995486E+03  0.94305995486E+03  0.00000000000E+00 0. -1.
         21   -1    0    0  502  503 -0.00000000000E+00 -0.00000000000E+00 -0.73392642477E+02  0.73392642477E+02  0.00000000000E+00 0.  1.
          6    1    1    2  501    0  0.28061614534E+02  0.14658801169E+03  0.68677688339E+03  0.72378656173E+03  0.17300000000E+03 0. -1.
         -6    1    1    2    0  503 -0.28061614534E+02 -0.14658801169E+03  0.18289042899E+03  0.29266603561E+03  0.17300000000E+03 0.  1.
<mgrwt>
<rscale>  2 0.22848304E+03</rscale>
<asrwt>0</asrwt>
<pdfrwt beam="1">  1       21 0.14508614E+00 0.22848304E+03</pdfrwt>
<pdfrwt beam="2">  1       21 0.11291176E-01 0.22848304E+03</pdfrwt>
<totfact> 0.20860225E+04</totfact>
</mgrwt>
</event>
<event>
 4    2  0.4024741E+000  0.2453322E+03  0.7546771E-02  0.1116291E+00
         21   -1    0    0  501  502  0.00000000000E+00  0.00000000000E+00  0.96984512264E+03  0.96984512264E+03  0.00000000000E+00 0. -1.
         21   -1    0    0  502  503 -0.00000000000E+00 -0.00000000000E+00 -0.15807131501E+03  0.15807131501E+03  0.00000000000E+00 0.  1.
          6    1    1    2  501    0  0.11698441646E+03 -0.12873822964E+03  0.84541156228E+03  0.88028892706E+03  0.17300000000E+03 0. -1.
         -6    1    1    2    0  503 -0.11698441646E+03  0.12873822964E+03 -0.33637754654E+02  0.24762751059E+03  0.17300000000E+03 0. -1.
<mgrwt>
<rscale>  2 0.24533219E+03</rscale>
<asrwt>0</asrwt>
<pdfrwt beam="1">  1       21 0.14920694E+00 0.24533219E+03</pdfrwt>
<pdfrwt beam="2">  1       21 0.24318664E-01 0.24533219E+03</pdfrwt>
<totfact> 0.46463680E+03</totfact>
</mgrwt>
</event>
<event>
 4    2  0.4024741E+000  0.1872603E+03  0.7546771E-02  0.1160956E+00
         21   -1    0    0  501  502  0.00000000000E+00  0.00000000000E+00  0.28219512475E+03  0.28219512475E+03  0.00000000000E+00 0. -1.
         21   -1    0    0  502  503 -0.00000000000E+00 -0.00000000000E+00 -0.14686194756E+03  0.14686194756E+03  0.00000000000E+00 0. -1.
          6    1    1    2  501    0 -0.67367254726E+02 -0.24476178641E+02  0.15182042854E+03  0.24107233946E+03  0.17300000000E+03 0. -1.
         -6    1    1    2    0  503  0.67367254726E+02  0.24476178641E+02 -0.16487251346E+02  0.18798473286E+03  0.17300000000E+03 0. -1.
<mgrwt>
<rscale>  2 0.18726033E+03</rscale>
<asrwt>0</asrwt>
<pdfrwt beam="1">  1       21 0.43414634E-01 0.18726033E+03</pdfrwt>
<pdfrwt beam="2">  1       21 0.22594146E-01 0.18726033E+03</pdfrwt>
<totfact> 0.93809970E+04</totfact>
</mgrwt>
</event>
<event>
 4    2  0.4024741E+000  0.1883538E+03  0.7546771E-02  0.1159955E+00
         21   -1    0    0  503  502  0.00000000000E+00  0.00000000000E+00  0.10905422351E+04  0.10905422351E+04  0.00000000000E+00 0.  1.
         21   -1    0    0  501  503 -0.00000000000E+00 -0.00000000000E+00 -0.32999175697E+02  0.32999175697E+02  0.00000000000E+00 0.  1.
          6    1    1    2  501    0  0.59516918818E+02  0.44787030265E+02  0.46190499202E+03  0.49883199913E+03  0.17300000000E+03 0.  1.
         -6    1    1    2    0  502 -0.59516918818E+02 -0.44787030265E+02  0.59563806735E+03  0.62470941164E+03  0.17300000000E+03 0.  1.
<mgrwt>
<rscale>  2 0.18835377E+03</rscale>
<asrwt>0</asrwt>
<pdfrwt beam="1">  1       21 0.16777570E+00 0.18835377E+03</pdfrwt>
<pdfrwt beam="2">  1       21 0.50767971E-02 0.18835377E+03</pdfrwt>
<totfact> 0.58133977E+04</totfact>
</mgrwt>
</event>
<event>
 4    2  0.4024741E+000  0.2030615E+03  0.7546771E-02  0.1147181E+00
         21   -1    0    0  503  502  0.00000000000E+00  0.00000000000E+00  0.12245750025E+03  0.12245750025E+03  0.00000000000E+00 0.  1.
         21   -1    0    0  501  503 -0.00000000000E+00 -0.00000000000E+00 -0.33692943626E+03  0.33692943626E+03  0.00000000000E+00 0.  1.
          6    1    1    2  501    0  0.91271403465E+02  0.54539024945E+02 -0.11295319625E+03  0.23236264518E+03  0.17300000000E+03 0.  1.
         -6    1    1    2    0  502 -0.91271403465E+02 -0.54539024945E+02 -0.10151873976E+03  0.22702429133E+03  0.17300000000E+03 0.  1.
<mgrwt>
<rscale>  2 0.20306150E+03</rscale>
<asrwt>0</asrwt>
<pdfrwt beam="1">  1       21 0.18839615E-01 0.20306150E+03</pdfrwt>
<pdfrwt beam="2">  1       21 0.51835298E-01 0.20306150E+03</pdfrwt>
<totfact> 0.90782131E+04</totfact>
</mgrwt>
</event>
<event>
 4    2  0.4024741E+000  0.2251306E+03  0.7546771E-02  0.1130115E+00
         21   -1    0    0  503  502  0.00000000000E+00  0.00000000000E+00  0.32413952391E+03  0.32413952391E+03  0.00000000000E+00 0.  1.
         21   -1    0    0  501  503 -0.00000000000E+00 -0.00000000000E+00 -0.48346420936E+03  0.48346420936E+03  0.00000000000E+00 0.  1.
          6    1    1    2  501    0  0.14399589938E+03 -0.44709031604E+01 -0.41180637602E+03  0.46932749690E+03  0.17300000000E+03 0.  1.
         -6    1    1    2    0  502 -0.14399589938E+03  0.44709031604E+01  0.25248169058E+03  0.33827623637E+03  0.17300000000E+03 0.  1.
<mgrwt>
<rscale>  2 0.22513065E+03</rscale>
<asrwt>0</asrwt>
<pdfrwt beam="1">  1       21 0.49867619E-01 0.22513065E+03</pdfrwt>
<pdfrwt beam="2">  1       21 0.74379109E-01 0.22513065E+03</pdfrwt>
<totfact> 0.60621221E+03</totfact>
</mgrwt>
</event>
<event>
 4    2  0.4024741E+000  0.1911854E+03  0.7546771E-02  0.1157396E+00
         21   -1    0    0  503  502  0.00000000000E+00  0.00000000000E+00  0.40676991433E+03  0.40676991433E+03  0.00000000000E+00 0. -1.
         21   -1    0    0  501  503 -0.00000000000E+00 -0.00000000000E+00 -0.27699631238E+03  0.27699631238E+03  0.00000000000E+00 0.  1.
          6    1    1    2  501    0 -0.14959281422E+02  0.79994329852E+02 -0.21612272051E+03  0.28854965470E+03  0.17300000000E+03 0.  1.
         -6    1    1    2    0  502  0.14959281422E+02 -0.79994329852E+02  0.34589632245E+03  0.39521657201E+03  0.17300000000E+03 0. -1.
<mgrwt>
<rscale>  2 0.19118544E+03</rscale>
<asrwt>0</asrwt>
<pdfrwt beam="1">  1       21 0.62579987E-01 0.19118544E+03</pdfrwt>
<pdfrwt beam="2">  1       21 0.42614817E-01 0.19118544E+03</pdfrwt>
<totfact> 0.12548152E+04</totfact>
</mgrwt>
</event>
<event>
 4    2  0.4024741E+000  0.2601025E+03  0.7546771E-02  0.1107082E+00
         21   -1    0    0  501  502  0.00000000000E+00  0.00000000000E+00  0.19210835879E+04  0.19210835879E+04  0.00000000000E+00 0. -1.
         21   -1    0    0  502  503 -0.00000000000E+00 -0.00000000000E+00 -0.35856197733E+02  0.35856197733E+02  0.00000000000E+00 0.  1.
          6    1    1    2  501    0  0.19138603817E+03 -0.33101610505E+02  0.10733338311E+04  0.11043997670E+04  0.17300000000E+03 0. -1.
         -6    1    1    2    0  503 -0.19138603817E+03  0.33101610505E+02  0.81189355905E+03  0.85254001868E+03  0.17300000000E+03 0.  1.
<mgrwt>
<rscale>  2 0.26010254E+03</rscale>
<asrwt>0</asrwt>
<pdfrwt beam="1">  1       21 0.29555124E+00 0.26010254E+03</pdfrwt>
<pdfrwt beam="2">  1       21 0.55163396E-02 0.26010254E+03</pdfrwt>
<totfact> 0.77309624E+03</totfact>
</mgrwt>
</event>
<event>
 4    2  0.4024741E+000  0.2782164E+03  0.7546771E-02  0.1096667E+00
         21   -1    0    0  501  502  0.00000000000E+00  0.00000000000E+00  0.84169164720E+02  0.84169164720E+02  0.00000000000E+00 0. -1.
         21   -1    0    0  502  503 -0.00000000000E+00 -0.00000000000E+00 -0.91968575342E+03  0.91968575342E+03  0.00000000000E+00 0. -1.
          6    1    1    2  501    0  0.13126015433E+03 -0.17391424146E+03 -0.42170668637E+03  0.50521373776E+03  0.17300000000E+03 0. -1.
         -6    1    1    2    0  503 -0.13126015433E+03  0.17391424146E+03 -0.41380990234E+03  0.49864118038E+03  0.17300000000E+03 0. -1.
<mgrwt>
<rscale>  2 0.27821645E+03</rscale>
<asrwt>0</asrwt>
<pdfrwt beam="1">  1       21 0.12949102E-01 0.27821645E+03</pdfrwt>
<pdfrwt beam="2">  1       21 0.14149012E+00 0.27821645E+03</pdfrwt>
<totfact> 0.16954351E+04</totfact>
</mgrwt>
</event>
<event>
 4    2  0.4024741E+000  0.1787650E+03  0.7546771E-02  0.1169004E+00
         21   -1    0    0  501  502  0.00000000000E+00  0.00000000000E+00  0.11034213122E+03  0.11034213122E+03  0.00000000000E+00 0. -1.
         21   -1    0    0  502  503 -0.00000000000E+00 -0.00000000000E+00 -0.58458144385E+03  0.58458144385E+03  0.00000000000E+00 0. -1.
          6    1    1    2  501    0 -0.27259358360E+02  0.35844732801E+02  0.96942549202E+01  0.17902764051E+03  0.17300000000E+03 0. -1.
         -6    1    1    2    0  503  0.27259358360E+02 -0.35844732801E+02 -0.48393356756E+03  0.51589593456E+03  0.17300000000E+03 0. -1.
<mgrwt>
<rscale>  2 0.17876498E+03</rscale>
<asrwt>0</asrwt>
<pdfrwt beam="1">  1       21 0.16975712E-01 0.17876498E+03</pdfrwt>
<pdfrwt beam="2">  1       21 0.89935607E-01 0.17876498E+03</pdfrwt>
<totfact> 0.33166432E+04</totfact>
</mgrwt>
</event>
<event>
 4    2  0.4024741E+000  0.2111964E+03  0.7546771E-02  0.1140622E+00
         21   -1    0    0  501  502  0.00000000000E+00  0.00000000000E+00  0.93604546534E+02  0.93604546534E+02  0.00000000000E+00 0. -1.
         21   -1    0    0  502  503 -0.00000000000E+00 -0.00000000000E+00 -0.66619850899E+03  0.66619850899E+03  0.00000000000E+00 0. -1.
          6    1    1    2  501    0 -0.26316043284E+02  0.11824717860E+03 -0.83582627000E+02  0.22713428829E+03  0.17300000000E+03 0. -1.
         -6    1    1    2    0  503  0.26316043284E+02 -0.11824717860E+03 -0.48901133545E+03  0.53266876723E+03  0.17300000000E+03 0. -1.
<mgrwt>
<rscale>  2 0.21119642E+03</rscale>
<asrwt>0</asrwt>
<pdfrwt beam="1">  1       21 0.14400700E-01 0.21119642E+03</pdfrwt>
<pdfrwt beam="2">  1       21 0.10249208E+00 0.21119642E+03</pdfrwt>
<totfact> 0.32368885E+04</totfact>
</mgrwt>
</event>
<event>
 4    2  0.4024741E+000  0.1763697E+03  0.7546771E-02  0.1171363E+00
         21   -1    0    0  503  502  0.00000000000E+00  0.00000000000E+00  0.81083833585E+02  0.81083833585E+02  0.00000000000E+00 0. -1.
         21   -1    0    0  501  503 -0.00000000000E+00 -0.00000000000E+00 -0.64627867652E+03  0.64627867652E+03  0.00000000000E+00 0. -1.
          6    1    1    2  501    0 -0.10670519115E+02  0.32609752800E+02 -0.51444253690E+03  0.54383580218E+03  0.17300000000E+03 0. -1.
         -6    1    1    2    0  502  0.10670519115E+02 -0.32609752800E+02 -0.50752306037E+02  0.18352670793E+03  0.17300000000E+03 0. -1.
<mgrwt>
<rscale>  2 0.17636966E+03</rscale>
<asrwt>0</asrwt>
<pdfrwt beam="1">  1       21 0.12474436E-01 0.17636966E+03</pdfrwt>
<pdfrwt beam="2">  1       21 0.99427489E-01 0.17636966E+03</pdfrwt>
<totfact> 0.45940597E+04</totfact>
</mgrwt>
</event>
<event>
 4    2  0.4024741E+000  0.3195003E+03  0.7546771E-02  0.1075879E+00
         21   -1    0    0  501  502  0.00000000000E+00  0.00000000000E+00  0.53273978434E+03  0.53273978434E+03  0.00000000000E+00 0.  1.
         21   -1    0    0  502  503 -0.00000000000E+00 -0.00000000000E+00 -0.27760821449E+03  0.27760821449E+03  0.00000000000E+00 0. -1.
          6    1    1    2  501    0  0.26757187336E+03 -0.23595527812E+02  0.35307264949E+03  0.47617302755E+03  0.17300000000E+03 0.  1.
         -6    1    1    2    0  503 -0.26757187336E+03  0.23595527812E+02 -0.97941079645E+02  0.33417497128E+03  0.17300000000E+03 0. -1.
<mgrwt>
<rscale>  2 0.31950032E+03</rscale>
<asrwt>0</asrwt>
<pdfrwt beam="1">  1       21 0.81959967E-01 0.31950032E+03</pdfrwt>
<pdfrwt beam="2">  1       21 0.42708956E-01 0.31950032E+03</pdfrwt>
<totfact> 0.63710502E+03</totfact>
</mgrwt>
</event>
<event>
 4    2  0.4024741E+000  0.1841169E+03  0.7546771E-02  0.1163877E+00
         21   -1    0    0  503  502  0.00000000000E+00  0.00000000000E+00  0.29982546950E+03  0.29982546950E+03  0.00000000000E+00 0.  1.
         21   -1    0    0  501  503 -0.00000000000E+00 -0.00000000000E+00 -0.30142603431E+03  0.30142603431E+03  0.00000000000E+00 0.  1.
          6    1    1    2  501    0  0.53260526761E+02  0.33665231047E+02 -0.23844828048E+03  0.30125838404E+03  0.17300000000E+03 0.  1.
         -6    1    1    2    0  502 -0.53260526761E+02 -0.33665231047E+02  0.23684771566E+03  0.29999311977E+03  0.17300000000E+03 0.  1.
<mgrwt>
<rscale>  2 0.18411690E+03</rscale>
<asrwt>0</asrwt>
<pdfrwt beam="1">  1       21 0.46126995E-01 0.18411690E+03</pdfrwt>
<pdfrwt beam="2">  1       21 0.46373236E-01 0.18411690E+03</pdfrwt>
<totfact> 0.20161978E+04</totfact>
</mgrwt>
</event>
<event>
 4    2  0.4024741E+000  0.2315104E+03  0.7546771E-02  0.1125581E+00
         21   -1    0    0  501  502  0.00000000000E+00  0.00000000000E+00  0.38682267136E+03  0.38682267136E+03  0.00000000000E+00 0. -1.
         21   -1    0    0  502  503 -0.00000000000E+00 -0.00000000000E+00 -0.24628786508E+03  0.24628786508E+03  0.00000000000E+00 0. -1.
          6    1    1    2  501    0 -0.13547772152E+03  0.72896279127E+02  0.27962929522E+03  0.36302840562E+03  0.17300000000E+03 0. -1.
         -6    1    1    2    0  503  0.13547772152E+03 -0.72896279127E+02 -0.13909448893E+03  0.27008213083E+03  0.17300000000E+03 0. -1.
<mgrwt>
<rscale>  2 0.23151043E+03</rscale>
<asrwt>0</asrwt>
<pdfrwt beam="1">  1       21 0.59511180E-01 0.23151043E+03</pdfrwt>
<pdfrwt beam="2">  1       21 0.37890441E-01 0.23151043E+03</pdfrwt>
<totfact> 0.17315355E+04</totfact>
</mgrwt>
</event>
<event>
 4    2  0.4024741E+000  0.2421846E+03  0.7546771E-02  0.1118346E+00
         21   -1    0    0  501  502  0.00000000000E+00  0.00000000000E+00  0.35151032718E+03  0.35151032718E+03  0.00000000000E+00 0. -1.
         21   -1    0    0  502  503 -0.00000000000E+00 -0.00000000000E+00 -0.17069518463E+04  0.17069518463E+04  0.00000000000E+00 0. -1.
          6    1    1    2  501    0 -0.36783268072E+01 -0.16944271131E+03  0.29991129088E+03  0.38548689330E+03  0.17300000000E+03 0. -1.
         -6    1    1    2    0  503  0.36783268072E+01  0.16944271131E+03 -0.16553528101E+04  0.16729752802E+04  0.17300000000E+03 0. -1.
<mgrwt>
<rscale>  2 0.24218456E+03</rscale>
<asrwt>0</asrwt>
<pdfrwt beam="1">  1       21 0.54078513E-01 0.24218456E+03</pdfrwt>
<pdfrwt beam="2">  1       21 0.26260797E+00 0.24218456E+03</pdfrwt>
<totfact> 0.16977915E+02</totfact>
</mgrwt>
</event>
<event>
 4    2  0.4024741E+000  0.2103464E+03  0.7546771E-02  0.1141292E+00
         21   -1    0    0  501  502  0.00000000000E+00  0.00000000000E+00  0.47543019218E+02  0.47543019218E+02  0.00000000000E+00 0. -1.
         21   -1    0    0  502  503 -0.00000000000E+00 -0.00000000000E+00 -0.18453116348E+04  0.18453116348E+04  0.00000000000E+00 0. -1.
          6    1    1    2  501    0 -0.27507366087E+02  0.11644729107E+03 -0.23256244759E+03  0.31357761211E+03  0.17300000000E+03 0. -1.
         -6    1    1    2    0  503  0.27507366087E+02 -0.11644729107E+03 -0.15652061680E+04  0.15792770419E+04  0.17300000000E+03 0. -1.
<mgrwt>
<rscale>  2 0.21034644E+03</rscale>
<asrwt>0</asrwt>
<pdfrwt beam="1">  1       21 0.73143094E-02 0.21034644E+03</pdfrwt>
<pdfrwt beam="2">  1       21 0.28389415E+00 0.21034644E+03</pdfrwt>
<totfact> 0.58145225E+03</totfact>
</mgrwt>
</event>
<event>
 4    2  0.4024741E+000  0.1731657E+03  0.7546771E-02  0.1174586E+00
         21   -1    0    0  503  502  0.00000000000E+00  0.00000000000E+00  0.37940619952E+03  0.37940619952E+03  0.00000000000E+00 0. -1.
         21   -1    0    0  501  503 -0.00000000000E+00 -0.00000000000E+00 -0.13511777899E+03  0.13511777899E+03  0.00000000000E+00 0. -1.
          6    1    1    2  501    0  0.58243425663E+01  0.48424233958E+01 -0.43598374014E+02  0.17856984697E+03  0.17300000000E+03 0. -1.
         -6    1    1    2    0  502 -0.58243425663E+01 -0.48424233958E+01  0.28788679454E+03  0.33595413155E+03  0.17300000000E+03 0. -1.
<mgrwt>
<rscale>  2 0.17316574E+03</rscale>
<asrwt>0</asrwt>
<pdfrwt beam="1">  1       21 0.58370184E-01 0.17316574E+03</pdfrwt>
<pdfrwt beam="2">  1       21 0.20787351E-01 0.17316574E+03</pdfrwt>
<totfact> 0.59553485E+04</totfact>
</mgrwt>
</event>
<event>
 4    2  0.4024741E+000  0.1907210E+03  0.7546771E-02  0.1157813E+00
         21   -1    0    0  503  502  0.00000000000E+00  0.00000000000E+00  0.49159169035E+03  0.49159169035E+03  0.00000000000E+00 0.  1.
         21   -1    0    0  501  503 -0.00000000000E+00 -0.00000000000E+00 -0.81822713253E+02  0.81822713253E+02  0.00000000000E+00 0. -1.
          6    1    1    2  501    0  0.71708732895E+02  0.36101966803E+02  0.11619623452E+03  0.22332948596E+03  0.17300000000E+03 0. -1.
         -6    1    1    2    0  502 -0.71708732895E+02 -0.36101966803E+02  0.29357274257E+03  0.35008491764E+03  0.17300000000E+03 0.  1.
<mgrwt>
<rscale>  2 0.19072099E+03</rscale>
<asrwt>0</asrwt>
<pdfrwt beam="1">  1       21 0.75629489E-01 0.19072099E+03</pdfrwt>
<pdfrwt beam="2">  1       21 0.12588110E-01 0.19072099E+03</pdfrwt>
<totfact> 0.84118159E+04</totfact>
</mgrwt>
</event>
<event>
 4    2  0.4024741E+000  0.2851906E+03  0.7546771E-02  0.1092887E+00
         21   -1    0    0  503  502  0.00000000000E+00  0.00000000000E+00  0.21903501470E+03  0.21903501470E+03  0.00000000000E+00 0. -1.
         21   -1    0    0  501  503 -0.00000000000E+00 -0.00000000000E+00 -0.45202452563E+03  0.45202452563E+03  0.00000000000E+00 0. -1.
          6    1    1    2  501    0 -0.22291949962E+03 -0.41371169944E+02  0.25273634117E+02  0.28630828419E+03  0.17300000000E+03 0. -1.
         -6    1    1    2    0  502  0.22291949962E+03  0.41371169944E+02 -0.25826314504E+03  0.38475125614E+03  0.17300000000E+03 0. -1.
<mgrwt>
<rscale>  2 0.28519060E+03</rscale>
<asrwt>0</asrwt>
<pdfrwt beam="1">  1       21 0.33697695E-01 0.28519060E+03</pdfrwt>
<pdfrwt beam="2">  1       21 0.69542233E-01 0.28519060E+03</pdfrwt>
<totfact> 0.15172027E+04</totfact>
</mgrwt>
</event>
<event>
 4    2  0.4024741E+000  0.2110578E+03  0.7546771E-02  0.1140731E+00
         21   -1    0    0  501  502  0.00000000000E+00  0.00000000000E+00  0.46679895976E+03  0.46679895976E+03  0.00000000000E+00 0. -1.
         21   -1    0    0  502  503 -0.00000000000E+00 -0.00000000000E+00 -0.41926108184E+03  0.41926108184E+03  0.00000000000E+00 0. -1.
          6    1    1    2  501    0  0.66554441837E+02 -0.10093025985E+03  0.41312943769E+03  0.46391954407E+03  0.17300000000E+03 0. -1.
         -6    1    1    2    0  503 -0.66554441837E+02  0.10093025985E+03 -0.36559155977E+03  0.42214049753E+03  0.17300000000E+03 0. -1.
<mgrwt>
<rscale>  2 0.21105784E+03</rscale>
<asrwt>0</asrwt>
<pdfrwt beam="1">  1       21 0.71815224E-01 0.21105784E+03</pdfrwt>
<pdfrwt beam="2">  1       21 0.64501705E-01 0.21105784E+03</pdfrwt>
<totfact> 0.38239128E+03</totfact>
</mgrwt>
</event>
<event>
 4    2  0.4024741E+000  0.2474437E+03  0.7546771E-02  0.1114931E+00
         21   -1    0    0  503  502  0.00000000000E+00  0.00000000000E+00  0.32783219859E+03  0.32783219859E+03  0.00000000000E+00 0. -1.
         21   -1    0    0  501  503 -0.00000000000E+00 -0.00000000000E+00 -0.53122941428E+03  0.53122941428E+03  0.00000000000E+00 0.  1.
          6    1    1    2  501    0  0.15689417956E+03 -0.81753147143E+02 -0.44757740638E+03  0.51142340126E+03  0.17300000000E+03 0.  1.
         -6    1    1    2    0  502 -0.15689417956E+03  0.81753147143E+02  0.24418019070E+03  0.34763821162E+03  0.17300000000E+03 0. -1.
<mgrwt>
<rscale>  2 0.24744365E+03</rscale>
<asrwt>0</asrwt>
<pdfrwt beam="1">  1       21 0.50435724E-01 0.24744365E+03</pdfrwt>
<pdfrwt beam="2">  1       21 0.81727601E-01 0.24744365E+03</pdfrwt>
<totfact> 0.47149932E+03</totfact>
</mgrwt>
</event>
<event>
 4    2  0.4024741E+000  0.2169925E+03  0.7546771E-02  0.1136145E+00
         21   -1    0    0  503  502  0.00000000000E+00  0.00000000000E+00  0.23646676534E+03  0.23646676534E+03  0.00000000000E+00 0. -1.
         21   -1    0    0  501  503 -0.00000000000E+00 -0.00000000000E+00 -0.30300439233E+03  0.30300439233E+03  0.00000000000E+00 0.  1.
          6    1    1    2  501    0 -0.11842572114E+03 -0.55965302722E+02 -0.19120602555E+03  0.28921533629E+03  0.17300000000E+03 0.  1.
         -6    1    1    2    0  502  0.11842572114E+03  0.55965302722E+02  0.12466839856E+03  0.25025582139E+03  0.17300000000E+03 0. -1.
<mgrwt>
<rscale>  2 0.21699255E+03</rscale>
<asrwt>0</asrwt>
<pdfrwt beam="1">  1       21 0.36379502E-01 0.21699255E+03</pdfrwt>
<pdfrwt beam="2">  1       21 0.46616060E-01 0.21699255E+03</pdfrwt>
<totfact> 0.31698321E+04</totfact>
</mgrwt>
</event>
<event>
 4    2  0.4024741E+000  0.2115923E+03  0.7546771E-02  0.1140311E+00
         21   -1    0    0  501  502  0.00000000000E+00  0.00000000000E+00  0.11572695597E+04  0.11572695597E+04  0.00000000000E+00 0. -1.
         21   -1    0    0  502  503 -0.00000000000E+00 -0.00000000000E+00 -0.10968002055E+03  0.10968002055E+03  0.00000000000E+00 0. -1.
          6    1    1    2  501    0 -0.10390101639E+03  0.63614952220E+02  0.10334463941E+04  0.10548851752E+04  0.17300000000E+03 0. -1.
         -6    1    1    2    0  503  0.10390101639E+03 -0.63614952220E+02  0.14143145079E+02  0.21206440509E+03  0.17300000000E+03 0. -1.
<mgrwt>
<rscale>  2 0.21159226E+03</rscale>
<asrwt>0</asrwt>
<pdfrwt beam="1">  1       21 0.17804146E+00 0.21159226E+03</pdfrwt>
<pdfrwt beam="2">  1       21 0.16873850E-01 0.21159226E+03</pdfrwt>
<totfact> 0.58404488E+03</totfact>
</mgrwt>
</event>
<event>
 4    2  0.4024741E+000  0.2605969E+03  0.7546771E-02  0.1106785E+00
         21   -1    0    0  501  502  0.00000000000E+00  0.00000000000E+00  0.63651079538E+03  0.63651079538E+03  0.00000000000E+00 0.  1.
         21   -1    0    0  502  503 -0.00000000000E+00 -0.00000000000E+00 -0.13465938877E+03  0.13465938877E+03  0.00000000000E+00 0.  1.
          6    1    1    2  501    0  0.16219038719E+03  0.10805558480E+03  0.75203599251E+02  0.27123110523E+03  0.17300000000E+03 0.  1.
         -6    1    1    2    0  503 -0.16219038719E+03 -0.10805558480E+03  0.42664780736E+03  0.49993907892E+03  0.17300000000E+03 0.  1.
<mgrwt>
<rscale>  2 0.26059687E+03</rscale>
<asrwt>0</asrwt>
<pdfrwt beam="1">  1       21 0.97924736E-01 0.26059687E+03</pdfrwt>
<pdfrwt beam="2">  1       21 0.20716829E-01 0.26059687E+03</pdfrwt>
<totfact> 0.17945851E+04</totfact>
</mgrwt>
</event>
<event>
 4    2  0.4024741E+000  0.2937539E+03  0.7546771E-02  0.1088405E+00
         21   -1    0    0  503  502  0.00000000000E+00  0.00000000000E+00  0.36675981803E+03  0.36675981803E+03  0.00000000000E+00 0. -1.
         21   -1    0    0  501  503 -0.00000000000E+00 -0.00000000000E+00 -0.25458554811E+03  0.25458554811E+03  0.00000000000E+00 0.  1.
          6    1    1    2  501    0 -0.17906158735E+03 -0.15588241441E+03  0.14163778239E+03  0.32611752573E+03  0.17300000000E+03 0. -1.
         -6    1    1    2    0  502  0.17906158735E+03  0.15588241441E+03 -0.29463512476E+02  0.29522784041E+03  0.17300000000E+03 0.  1.
<mgrwt>
<rscale>  2 0.29375394E+03</rscale>
<asrwt>0</asrwt>
<pdfrwt beam="1">  1       21 0.56424587E-01 0.29375394E+03</pdfrwt>
<pdfrwt beam="2">  1       21 0.39167007E-01 0.29375394E+03</pdfrwt>
<totfact> 0.17632760E+04</totfact>
</mgrwt>
</event>
<event>
 4    2  0.4024741E+000  0.2416696E+03  0.7546771E-02  0.1118686E+00
         21   -1    0    0  501  502  0.00000000000E+00  0.00000000000E+00  0.12617989924E+04  0.12617989924E+04  0.00000000000E+00 0.  1.
         21   -1    0    0  502  503 -0.00000000000E+00 -0.00000000000E+00 -0.62171195010E+02  0.62171195010E+02  0.00000000000E+00 0. -1.
          6    1    1    2  501    0 -0.52785669499E+02  0.16027750295E+03  0.93442753099E+03  0.96517304952E+03  0.17300000000E+03 0.  1.
         -6    1    1    2    0  503  0.52785669499E+02 -0.16027750295E+03  0.26520026639E+03  0.35879713788E+03  0.17300000000E+03 0. -1.
<mgrwt>
<rscale>  2 0.24166962E+03</rscale>
<asrwt>0</asrwt>
<pdfrwt beam="1">  1       21 0.19412290E+00 0.24166962E+03</pdfrwt>
<pdfrwt beam="2">  1       21 0.95648002E-02 0.24166962E+03</pdfrwt>
<totfact> 0.12405928E+04</totfact>
</mgrwt>
</event>
<event>
 4    2  0.4024741E+000  0.2015145E+03  0.7546771E-02  0.1148468E+00
         21   -1    0    0  503  502  0.00000000000E+00  0.00000000000E+00  0.44525062267E+02  0.44525062267E+02  0.00000000000E+00 0.  1.
         21   -1    0    0  501  503 -0.00000000000E+00 -0.00000000000E+00 -0.10504459403E+04  0.10504459403E+04  0.00000000000E+00 0.  1.
          6    1    1    2  501    0 -0.85351395091E+02  0.58259906484E+02 -0.70169933891E+03  0.73006166834E+03  0.17300000000E+03 0.  1.
         -6    1    1    2    0  502  0.85351395091E+02 -0.58259906484E+02 -0.30422153917E+03  0.36490933428E+03  0.17300000000E+03 0.  1.
<mgrwt>
<rscale>  2 0.20151446E+03</rscale>
<asrwt>0</asrwt>
<pdfrwt beam="1">  1       21 0.68500096E-02 0.20151446E+03</pdfrwt>
<pdfrwt beam="2">  1       21 0.16160707E+00 0.20151446E+03</pdfrwt>
<totfact> 0.38260555E+04</totfact>
</mgrwt>
</event>
<event>
 4    2  0.4024741E+000  0.1829136E+03  0.7546771E-02  0.1165013E+00
         21   -1    0    0  503  502  0.00000000000E+00  0.00000000000E+00  0.24890967707E+03  0.24890967707E+03  0.00000000000E+00 0. -1.
         21   -1    0    0  501  503 -0.00000000000E+00 -0.00000000000E+00 -0.13770273795E+03  0.13770273795E+03  0.00000000000E+00 0. -1.
          6    1    1    2  501    0 -0.41025679231E+02  0.42956861510E+02  0.25738026932E+02  0.18471557687E+03  0.17300000000E+03 0. -1.
         -6    1    1    2    0  502  0.41025679231E+02 -0.42956861510E+02  0.85468912191E+02  0.20189683816E+03  0.17300000000E+03 0. -1.
<mgrwt>
<rscale>  2 0.18291364E+03</rscale>
<asrwt>0</asrwt>
<pdfrwt beam="1">  1       21 0.38293796E-01 0.18291364E+03</pdfrwt>
<pdfrwt beam="2">  1       21 0.21185037E-01 0.18291364E+03</pdfrwt>
<totfact> 0.13672677E+05</totfact>
</mgrwt>
</event>
<event>
 4    2  0.4024741E+000  0.2195221E+03  0.7546771E-02  0.1134240E+00
         21   -1    0    0  503  502  0.00000000000E+00  0.00000000000E+00  0.82792991805E+03  0.82792991805E+03  0.00000000000E+00 0.  1.
         21   -1    0    0  501  503 -0.00000000000E+00 -0.00000000000E+00 -0.93310138566E+02  0.93310138566E+02  0.00000000000E+00 0.  1.
          6    1    1    2  501    0 -0.13391482609E+03  0.18103968535E+02  0.84781754287E+02  0.23532505218E+03  0.17300000000E+03 0. -1.
         -6    1    1    2    0  502  0.13391482609E+03 -0.18103968535E+02  0.64983802520E+03  0.68591500444E+03  0.17300000000E+03 0. -1.
<mgrwt>
<rscale>  2 0.21952206E+03</rscale>
<asrwt>0</asrwt>
<pdfrwt beam="1">  1       21 0.12737383E+00 0.21952206E+03</pdfrwt>
<pdfrwt beam="2">  1       21 0.14355407E-01 0.21952206E+03</pdfrwt>
<totfact> 0.19008475E+04</totfact>
</mgrwt>
</event>
<event>
 4    2  0.4024741E+000  0.1973687E+03  0.7546771E-02  0.1151978E+00
         21   -1    0    0  501  502  0.00000000000E+00  0.00000000000E+00  0.20121005083E+03  0.20121005083E+03  0.00000000000E+00 0.  1.
         21   -1    0    0  502  503 -0.00000000000E+00 -0.00000000000E+00 -0.21363639038E+03  0.21363639038E+03  0.00000000000E+00 0. -1.
          6    1    1    2  501    0 -0.66463937874E+02  0.67881928439E+02  0.57308465192E+02  0.20552048907E+03  0.17300000000E+03 0.  1.
         -6    1    1    2    0  503  0.66463937874E+02 -0.67881928439E+02 -0.69734804739E+02  0.20932595214E+03  0.17300000000E+03 0. -1.
<mgrwt>
<rscale>  2 0.19736872E+03</rscale>
<asrwt>0</asrwt>
<pdfrwt beam="1">  1       21 0.30955392E-01 0.19736872E+03</pdfrwt>
<pdfrwt beam="2">  1       21 0.32867137E-01 0.19736872E+03</pdfrwt>
<totfact> 0.89147417E+04</totfact>
</mgrwt>
</event>
<event>
 4    2  0.4024741E+000  0.2383668E+03  0.7546771E-02  0.1120886E+00
         21   -1    0    0  503  502  0.00000000000E+00  0.00000000000E+00  0.18778038039E+03  0.18778038039E+03  0.00000000000E+00 0.  1.
         21   -1    0    0  501  503 -0.00000000000E+00 -0.00000000000E+00 -0.32438882083E+03  0.32438882083E+03  0.00000000000E+00 0. -1.
          6    1    1    2  501    0  0.13798041006E+03  0.88606640863E+02 -0.13470283832E+03  0.27379478632E+03  0.17300000000E+03 0.  1.
         -6    1    1    2    0  502 -0.13798041006E+03 -0.88606640863E+02 -0.19056021242E+01  0.23837441491E+03  0.17300000000E+03 0. -1.
<mgrwt>
<rscale>  2 0.23836680E+03</rscale>
<asrwt>0</asrwt>
<pdfrwt beam="1">  1       21 0.28889289E-01 0.23836680E+03</pdfrwt>
<pdfrwt beam="2">  1       21 0.49905972E-01 0.23836680E+03</pdfrwt>
<totfact> 0.42928901E+04</totfact>
</mgrwt>
</event>
<event>
 4    2  0.4024741E+000  0.1834284E+03  0.7546771E-02  0.1164526E+00
         21   -1    0    0  503  502  0.00000000000E+00  0.00000000000E+00  0.29069723311E+03  0.29069723311E+03  0.00000000000E+00 0.  1.
         21   -1    0    0  501  503 -0.00000000000E+00 -0.00000000000E+00 -0.19937575263E+03  0.19937575263E+03  0.00000000000E+00 0.  1.
          6    1    1    2  501    0  0.59953296759E+02  0.11071825680E+02 -0.11304201310E+03  0.21546340720E+03  0.17300000000E+03 0.  1.
         -6    1    1    2    0  502 -0.59953296759E+02 -0.11071825680E+02  0.20436349358E+03  0.27460957854E+03  0.17300000000E+03 0.  1.
<mgrwt>
<rscale>  2 0.18342841E+03</rscale>
<asrwt>0</asrwt>
<pdfrwt beam="1">  1       21 0.44722651E-01 0.18342841E+03</pdfrwt>
<pdfrwt beam="2">  1       21 0.30673193E-01 0.18342841E+03</pdfrwt>
<totfact> 0.49186291E+04</totfact>
</mgrwt>
</event>
<event>
 4    2  0.4024741E+000  0.2009981E+03  0.7546771E-02  0.1148900E+00
         21   -1    0    0  503  502  0.00000000000E+00  0.00000000000E+00  0.23141706938E+03  0.23141706938E+03  0.00000000000E+00 0.  1.
         21   -1    0    0  501  503 -0.00000000000E+00 -0.00000000000E+00 -0.17594177345E+03  0.17594177345E+03  0.00000000000E+00 0.  1.
          6    1    1    2  501    0 -0.10195076940E+03 -0.87902498844E+01  0.98025626028E+01  0.20123697003E+03  0.17300000000E+03 0. -1.
         -6    1    1    2    0  502  0.10195076940E+03  0.87902498844E+01  0.45672733327E+02  0.20612187279E+03  0.17300000000E+03 0. -1.
<mgrwt>
<rscale>  2 0.20099808E+03</rscale>
<asrwt>0</asrwt>
<pdfrwt beam="1">  1       21 0.35602626E-01 0.20099808E+03</pdfrwt>
<pdfrwt beam="2">  1       21 0.27067965E-01 0.20099808E+03</pdfrwt>
<totfact> 0.98603871E+04</totfact>
</mgrwt>
</event>
<event>
 4    2  0.4024741E+000  0.3188854E+03  0.7546771E-02  0.1076163E+00
         21   -1    0    0  501  502  0.00000000000E+00  0.00000000000E+00  0.20198418063E+03  0.20198418063E+03  0.00000000000E+00 0. -1.
         21   -1    0    0  502  503 -0.00000000000E+00 -0.00000000000E+00 -0.14710249459E+04  0.14710249459E+04  0.00000000000E+00 0.  1.
          6    1    1    2  501    0  0.10641843017E+03  0.24583329618E+03  0.43904491482E+02  0.32189361000E+03  0.17300000000E+03 0. -1.
         -6    1    1    2    0  503 -0.10641843017E+03 -0.24583329618E+03 -0.13129452568E+04  0.13511155165E+04  0.17300000000E+03 0.  1.
<mgrwt>
<rscale>  2 0.31888539E+03</rscale>
<asrwt>0</asrwt>
<pdfrwt beam="1">  1       21 0.31074490E-01 0.31888539E+03</pdfrwt>
<pdfrwt beam="2">  1       21 0.22631152E+00 0.31888539E+03</pdfrwt>
<totfact> 0.81483078E+02</totfact>
</mgrwt>
</event>
<event>
 4    2  0.4024741E+000  0.2531416E+03  0.7546771E-02  0.1111335E+00
         21   -1    0    0  501  502  0.00000000000E+00  0.00000000000E+00  0.20005306822E+03  0.20005306822E+03  0.00000000000E+00 0. -1.
         21   -1    0    0  502  503 -0.00000000000E+00 -0.00000000000E+00 -0.34822608772E+03  0.34822608772E+03  0.00000000000E+00 0. -1.
          6    1    1    2  501    0 -0.18427384575E+03 -0.13957665391E+02 -0.15169397250E+03  0.29511307654E+03  0.17300000000E+03 0. -1.
         -6    1    1    2    0  503  0.18427384575E+03  0.13957665391E+02  0.35209529980E+01  0.25316607941E+03  0.17300000000E+03 0. -1.
<mgrwt>
<rscale>  2 0.25314159E+03</rscale>
<asrwt>0</asrwt>
<pdfrwt beam="1">  1       21 0.30777395E-01 0.25314159E+03</pdfrwt>
<pdfrwt beam="2">  1       21 0.53573244E-01 0.25314159E+03</pdfrwt>
<totfact> 0.32449514E+04</totfact>
</mgrwt>
</event>
<event>
 4    2  0.4024741E+000  0.2272008E+03  0.7546771E-02  0.1128626E+00
         21   -1    0    0  503  502  0.00000000000E+00  0.00000000000E+00  0.93279194605E+03  0.93279194605E+03  0.00000000000E+00 0.  1.
         21   -1    0    0  501  503 -0.00000000000E+00 -0.00000000000E+00 -0.95903834625E+02  0.95903834625E+02  0.00000000000E+00 0.  1.
          6    1    1    2  501    0  0.13550659856E+03 -0.57699085328E+02  0.83932400937E+02  0.24220832073E+03  0.17300000000E+03 0.  1.
         -6    1    1    2    0  502 -0.13550659856E+03  0.57699085328E+02  0.75295571049E+03  0.78648745995E+03  0.17300000000E+03 0.  1.
<mgrwt>
<rscale>  2 0.22720084E+03</rscale>
<asrwt>0</asrwt>
<pdfrwt beam="1">  1       21 0.14350645E+00 0.22720084E+03</pdfrwt>
<pdfrwt beam="2">  1       21 0.14754437E-01 0.22720084E+03</pdfrwt>
<totfact> 0.13250920E+04</totfact>
</mgrwt>
</event>
<event>
 4    2  0.4024741E+000  0.1974036E+03  0.7546771E-02  0.1151948E+00
         21   -1    0    0  501  502  0.00000000000E+00  0.00000000000E+00  0.85855176958E+03  0.85855176958E+03  0.00000000000E+00 0.  1.
         21   -1    0    0  502  503 -0.00000000000E+00 -0.00000000000E+00 -0.11417356758E+03  0.11417356758E+03  0.00000000000E+00 0.  1.
          6    1    1    2  501    0 -0.13513653981E+02  0.94109238228E+02  0.74969635486E+03  0.77525014805E+03  0.17300000000E+03 0.  1.
         -6    1    1    2    0  503  0.13513653981E+02 -0.94109238228E+02 -0.53181528670E+01  0.19747518911E+03  0.17300000000E+03 0.  1.
<mgrwt>
<rscale>  2 0.19740357E+03</rscale>
<asrwt>0</asrwt>
<pdfrwt beam="1">  1       21 0.13208488E+00 0.19740357E+03</pdfrwt>
<pdfrwt beam="2">  1       21 0.17565165E-01 0.19740357E+03</pdfrwt>
<totfact> 0.12154886E+04</totfact>
</mgrwt>
</event>
<event>
 4    2  0.4024741E+000  0.3358942E+03  0.7546771E-02  0.1068558E+00
         21   -1    0    0  501  502  0.00000000000E+00  0.00000000000E+00  0.48930285431E+02  0.48930285431E+02  0.00000000000E+00 0. -1.
         21   -1    0    0  502  503 -0.00000000000E+00 -0.00000000000E+00 -0.23375712148E+04  0.23375712148E+04  0.00000000000E+00 0.  1.
          6    1    1    2  501    0 -0.25868950081E+03 -0.12639470913E+03 -0.12833690637E+04  0.13265975403E+04  0.17300000000E+03 0. -1.
         -6    1    1    2    0  503  0.25868950081E+03  0.12639470913E+03 -0.10052718657E+04  0.10599039599E+04  0.17300000000E+03 0.  1.
<mgrwt>
<rscale>  2 0.33589415E+03</rscale>
<asrwt>0</asrwt>
<pdfrwt beam="1">  1       21 0.75277382E-02 0.33589415E+03</pdfrwt>
<pdfrwt beam="2">  1       21 0.35962625E+00 0.33589415E+03</pdfrwt>
<totfact> 0.17625535E+03</totfact>
</mgrwt>
</event>
<event>
 4    2  0.4024741E+000  0.3303824E+03  0.7546771E-02  0.1070968E+00
         21   -1    0    0  501  502  0.00000000000E+00  0.00000000000E+00  0.13229047739E+03  0.13229047739E+03  0.00000000000E+00 0. -1.
         21   -1    0    0  502  503 -0.00000000000E+00 -0.00000000000E+00 -0.12948093020E+04  0.12948093020E+04  0.00000000000E+00 0.  1.
          6    1    1    2  501    0 -0.23297212408E+03  0.15794785087E+03 -0.15148831817E+03  0.36345734926E+03  0.17300000000E+03 0. -1.
         -6    1    1    2    0  503  0.23297212408E+03 -0.15794785087E+03 -0.10110305064E+04  0.10636424301E+04  0.17300000000E+03 0.  1.
<mgrwt>
<rscale>  2 0.33038241E+03</rscale>
<asrwt>0</asrwt>
<pdfrwt beam="1">  1       21 0.20352382E-01 0.33038241E+03</pdfrwt>
<pdfrwt beam="2">  1       21 0.19920143E+00 0.33038241E+03</pdfrwt>
<totfact> 0.27342414E+03</totfact>
</mgrwt>
</event>
<event>
 4    2  0.4024741E+000  0.1824604E+03  0.7546771E-02  0.1165443E+00
         21   -1    0    0  501  502  0.00000000000E+00  0.00000000000E+00  0.49976048427E+03  0.49976048427E+03  0.00000000000E+00 0. -1.
         21   -1    0    0  502  503 -0.00000000000E+00 -0.00000000000E+00 -0.67761664325E+02  0.67761664325E+02  0.00000000000E+00 0. -1.
          6    1    1    2  501    0 -0.25953012365E+02  0.51857718759E+02  0.17909408422E+03  0.25566867788E+03  0.17300000000E+03 0. -1.
         -6    1    1    2    0  503  0.25953012365E+02 -0.51857718759E+02  0.25290473572E+03  0.31185347072E+03  0.17300000000E+03 0. -1.
<mgrwt>
<rscale>  2 0.18246036E+03</rscale>
<asrwt>0</asrwt>
<pdfrwt beam="1">  1       21 0.76886226E-01 0.18246036E+03</pdfrwt>
<pdfrwt beam="2">  1       21 0.10424872E-01 0.18246036E+03</pdfrwt>
<totfact> 0.11381140E+05</totfact>
</mgrwt>
</event>
<event>
 4    2  0.4024741E+000  0.2008187E+03  0.7546771E-02  0.1149050E+00
         21   -1    0    0  503  502  0.00000000000E+00  0.00000000000E+00  0.44888361764E+03  0.44888361764E+03  0.00000000000E+00 0.  1.
         21   -1    0    0  501  503 -0.00000000000E+00 -0.00000000000E+00 -0.16276971325E+03  0.16276971325E+03  0.00000000000E+00 0.  1.
          6    1    1    2  501    0  0.59206071244E+02  0.83028973065E+02 -0.61652416339E+02  0.21006948774E+03  0.17300000000E+03 0.  1.
         -6    1    1    2    0  502 -0.59206071244E+02 -0.83028973065E+02  0.34776632073E+03  0.40158384314E+03  0.17300000000E+03 0.  1.
<mgrwt>
<rscale>  2 0.20081875E+03</rscale>
<asrwt>0</asrwt>
<pdfrwt beam="1">  1       21 0.69059017E-01 0.20081875E+03</pdfrwt>
<pdfrwt beam="2">  1       21 0.25041495E-01 0.20081875E+03</pdfrwt>
<totfact> 0.28691218E+04</totfact>
</mgrwt>
</event>
<event>
 4    2  0.4024741E+000  0.2075306E+03  0.7546771E-02  0.1143537E+00
         21   -1    0    0  501  502  0.00000000000E+00  0.00000000000E+00  0.64679812023E+02  0.64679812023E+02  0.00000000000E+00 0.  1.
         21   -1    0    0  502  503 -0.00000000000E+00 -0.00000000000E+00 -0.66816238628E+03  0.66816238628E+03  0.00000000000E+00 0. -1.
          6    1    1    2  501    0 -0.10193344999E+03  0.52436075062E+02 -0.28032382951E+03  0.34878420203E+03  0.17300000000E+03 0.  1.
         -6    1    1    2    0  503  0.10193344999E+03 -0.52436075062E+02 -0.32315874475E+03  0.38405799627E+03  0.17300000000E+03 0. -1.
<mgrwt>
<rscale>  2 0.20753065E+03</rscale>
<asrwt>0</asrwt>
<pdfrwt beam="1">  1       21 0.99507405E-02 0.20753065E+03</pdfrwt>
<pdfrwt beam="2">  1       21 0.10279421E+00 0.20753065E+03</pdfrwt>
<totfact> 0.62472024E+04</totfact>
</mgrwt>
</event>
<event>
 4    2  0.4024741E+000  0.2343818E+03  0.7546771E-02  0.1123593E+00
         21   -1    0    0  501  502  0.00000000000E+00  0.00000000000E+00  0.13472222143E+03  0.13472222143E+03  0.00000000000E+00 0.  1.
         21   -1    0    0  502  503 -0.00000000000E+00 -0.00000000000E+00 -0.49243791362E+03  0.49243791362E+03  0.00000000000E+00 0. -1.
          6    1    1    2  501    0 -0.45975918885E+02 -0.15130115000E+03 -0.48826381759E+02  0.23941353066E+03  0.17300000000E+03 0.  1.
         -6    1    1    2    0  503  0.45975918885E+02  0.15130115000E+03 -0.30888931043E+03  0.38774660438E+03  0.17300000000E+03 0.  1.
<mgrwt>
<rscale>  2 0.23438179E+03</rscale>
<asrwt>0</asrwt>
<pdfrwt beam="1">  1       21 0.20726496E-01 0.23438179E+03</pdfrwt>
<pdfrwt beam="2">  1       21 0.75759678E-01 0.23438179E+03</pdfrwt>
<totfact> 0.32851403E+04</totfact>
</mgrwt>
</event>
<event>
 4    2  0.4024741E+000  0.2741843E+03  0.7546771E-02  0.1098908E+00
         21   -1    0    0  501  502  0.00000000000E+00  0.00000000000E+00  0.30400048245E+04  0.30400048245E+04  0.00000000000E+00 0. -1.
         21   -1    0    0  502  503 -0.00000000000E+00 -0.00000000000E+00 -0.32770274126E+02  0.32770274126E+02  0.00000000000E+00 0.  1.
          6    1    1    2  501    0 -0.13566910543E+03 -0.16383511133E+03  0.22646727782E+04  0.22812101705E+04  0.17300000000E+03 0. -1.
         -6    1    1    2    0  503  0.13566910543E+03  0.16383511133E+03  0.74256177217E+03  0.79156492808E+03  0.17300000000E+03 0.  1.
<mgrwt>
<rscale>  2 0.27418434E+03</rscale>
<asrwt>0</asrwt>
<pdfrwt beam="1">  1       21 0.46769283E+00 0.27418434E+03</pdfrwt>
<pdfrwt beam="2">  1       21 0.50415830E-02 0.27418434E+03</pdfrwt>
<totfact> 0.75239734E+02</totfact>
</mgrwt>
</event>
<event>
 4    2  0.4024741E+000  0.1926156E+03  0.7546771E-02  0.1156123E+00
         21   -1    0    0  501  502  0.00000000000E+00  0.00000000000E+00  0.11752329748E+03  0.11752329748E+03  0.00000000000E+00 0. -1.
         21   -1    0    0  502  503 -0.00000000000E+00 -0.00000000000E+00 -0.32438276108E+03  0.32438276108E+03  0.00000000000E+00 0. -1.
          6    1    1    2  501    0  0.11861452453E+02  0.83851472336E+02 -0.67256667774E+02  0.20402015299E+03  0.17300000000E+03 0. -1.
         -6    1    1    2    0  503 -0.11861452453E+02 -0.83851472336E+02 -0.13960279583E+03  0.23788590557E+03  0.17300000000E+03 0. -1.
<mgrwt>
<rscale>  2 0.19261558E+03</rscale>
<asrwt>0</asrwt>
<pdfrwt beam="1">  1       21 0.18080507E-01 0.19261558E+03</pdfrwt>
<pdfrwt beam="2">  1       21 0.49905040E-01 0.19261558E+03</pdfrwt>
<totfact> 0.10653055E+05</totfact>
</mgrwt>
</event>
<event>
 4    2  0.4024741E+000  0.1739197E+03  0.7546771E-02  0.1173821E+00
         21   -1    0    0  501  502  0.00000000000E+00  0.00000000000E+00  0.14642276872E+03  0.14642276872E+03  0.00000000000E+00 0. -1.
         21   -1    0    0  502  503 -0.00000000000E+00 -0.00000000000E+00 -0.20868336715E+03  0.20868336715E+03  0.00000000000E+00 0. -1.
          6    1    1    2  501    0 -0.17505162231E+02 -0.35539239826E+01 -0.48954485428E+02  0.18067817445E+03  0.17300000000E+03 0. -1.
         -6    1    1    2    0  503  0.17505162231E+02  0.35539239826E+01 -0.13306113010E+02  0.17442796142E+03  0.17300000000E+03 0. -1.
<mgrwt>
<rscale>  2 0.17391970E+03</rscale>
<asrwt>0</asrwt>
<pdfrwt beam="1">  1       21 0.22526580E-01 0.17391970E+03</pdfrwt>
<pdfrwt beam="2">  1       21 0.32105133E-01 0.17391970E+03</pdfrwt>
<totfact> 0.17325966E+05</totfact>
</mgrwt>
</event>
<event>
 4    2  0.4024741E+000  0.2006791E+03  0.7546771E-02  0.1149167E+00
         21   -1    0    0  501  502  0.00000000000E+00  0.00000000000E+00  0.30937864938E+03  0.30937864938E+03  0.00000000000E+00 0. -1.
         21   -1    0    0  502  503 -0.00000000000E+00 -0.00000000000E+00 -0.18469470340E+03  0.18469470340E+03  0.00000000000E+00 0. -1.
          6    1    1    2  501    0  0.96505310485E+02  0.32091054695E+02  0.19656502596E+03  0.28090909592E+03  0.17300000000E+03 0. -1.
         -6    1    1    2    0  503 -0.96505310485E+02 -0.32091054695E+02 -0.71881079982E+02  0.21316425686E+03  0.17300000000E+03 0. -1.
<mgrwt>
<rscale>  2 0.20067912E+03</rscale>
<asrwt>0</asrwt>
<pdfrwt beam="1">  1       21 0.47596715E-01 0.20067912E+03</pdfrwt>
<pdfrwt beam="2">  1       21 0.28414570E-01 0.20067912E+03</pdfrwt>
<totfact> 0.49788868E+04</totfact>
</mgrwt>
</event>
<event>
 4    2  0.4024741E+000  0.2002567E+03  0.7546771E-02  0.1149523E+00
         21   -1    0    0  503  502  0.00000000000E+00  0.00000000000E+00  0.15937730112E+03  0.15937730112E+03  0.00000000000E+00 0. -1.
         21   -1    0    0  501  503 -0.00000000000E+00 -0.00000000000E+00 -0.83619128853E+03  0.83619128853E+03  0.00000000000E+00 0. -1.
          6    1    1    2  501    0  0.43210943948E+01  0.10077244348E+03 -0.75461128193E+03  0.78073103182E+03  0.17300000000E+03 0. -1.
         -6    1    1    2    0  502 -0.43210943948E+01 -0.10077244348E+03  0.77797294528E+02  0.21483755784E+03  0.17300000000E+03 0. -1.
<mgrwt>
<rscale>  2 0.20025673E+03</rscale>
<asrwt>0</asrwt>
<pdfrwt beam="1">  1       21 0.24519585E-01 0.20025673E+03</pdfrwt>
<pdfrwt beam="2">  1       21 0.12864481E+00 0.20025673E+03</pdfrwt>
<totfact> 0.69348452E+03</totfact>
</mgrwt>
</event>
<event>
 4    2  0.4024741E+000  0.2379196E+03  0.7546771E-02  0.1121187E+00
         21   -1    0    0  503  502  0.00000000000E+00  0.00000000000E+00  0.41477123152E+03  0.41477123152E+03  0.00000000000E+00 0. -1.
         21   -1    0    0  501  503 -0.00000000000E+00 -0.00000000000E+00 -0.13811880954E+03  0.13811880954E+03  0.00000000000E+00 0.  1.
          6    1    1    2  501    0  0.79038116755E+02 -0.14293260676E+03  0.16848791169E+03  0.29153718521E+03  0.17300000000E+03 0.  1.
         -6    1    1    2    0  502 -0.79038116755E+02  0.14293260676E+03  0.10816451029E+03  0.26135285585E+03  0.17300000000E+03 0. -1.
<mgrwt>
<rscale>  2 0.23791964E+03</rscale>
<asrwt>0</asrwt>
<pdfrwt beam="1">  1       21 0.63810958E-01 0.23791964E+03</pdfrwt>
<pdfrwt beam="2">  1       21 0.21249048E-01 0.23791964E+03</pdfrwt>
<totfact> 0.45766277E+04</totfact>
</mgrwt>
</event>
<event>
 4    2  0.4024741E+000  0.1845452E+03  0.7546771E-02  0.1163475E+00
         21   -1    0    0  501  502  0.00000000000E+00  0.00000000000E+00  0.66898859304E+02  0.66898859304E+02  0.00000000000E+00 0. -1.
         21   -1    0    0  502  503 -0.00000000000E+00 -0.00000000000E+00 -0.52754437383E+03  0.52754437383E+03  0.00000000000E+00 0. -1.
          6    1    1    2  501    0  0.16073765083E+02 -0.62205692804E+02 -0.28592734868E+03  0.34031068580E+03  0.17300000000E+03 0.  1.
         -6    1    1    2    0  503 -0.16073765083E+02  0.62205692804E+02 -0.17471816584E+03  0.25413254734E+03  0.17300000000E+03 0.  1.
<mgrwt>
<rscale>  2 0.18454515E+03</rscale>
<asrwt>0</asrwt>
<pdfrwt beam="1">  1       21 0.10292132E-01 0.18454515E+03</pdfrwt>
<pdfrwt beam="2">  1       21 0.81160671E-01 0.18454515E+03</pdfrwt>
<totfact> 0.10298544E+05</totfact>
</mgrwt>
</event>
<event>
 4    2  0.4024741E+000  0.1999182E+03  0.7546771E-02  0.1149808E+00
         21   -1    0    0  503  502  0.00000000000E+00  0.00000000000E+00  0.10477548116E+03  0.10477548116E+03  0.00000000000E+00 0.  1.
         21   -1    0    0  501  503 -0.00000000000E+00 -0.00000000000E+00 -0.63967853382E+03  0.63967853382E+03  0.00000000000E+00 0.  1.
          6    1    1    2  501    0  0.97274534645E+02  0.23998579278E+02 -0.50394753363E+03  0.54215346863E+03  0.17300000000E+03 0.  1.
         -6    1    1    2    0  502 -0.97274534645E+02 -0.23998579278E+02 -0.30955519030E+02  0.20230054636E+03  0.17300000000E+03 0.  1.
<mgrwt>
<rscale>  2 0.19991815E+03</rscale>
<asrwt>0</asrwt>
<pdfrwt beam="1">  1       21 0.16119305E-01 0.19991815E+03</pdfrwt>
<pdfrwt beam="2">  1       21 0.98412083E-01 0.19991815E+03</pdfrwt>
<totfact> 0.29205261E+04</totfact>
</mgrwt>
</event>
<event>
 4    2  0.4024741E+000  0.3400467E+03  0.7546771E-02  0.1066776E+00
         21   -1    0    0  503  502  0.00000000000E+00  0.00000000000E+00  0.10776640066E+03  0.10776640066E+03  0.00000000000E+00 0. -1.
         21   -1    0    0  501  503 -0.00000000000E+00 -0.00000000000E+00 -0.11060285355E+04  0.11060285355E+04  0.00000000000E+00 0.  1.
          6    1    1    2  501    0 -0.29253514092E+03 -0.11222027738E+02 -0.60403088491E+03  0.69317029113E+03  0.17300000000E+03 0.  1.
         -6    1    1    2    0  502  0.29253514092E+03  0.11222027738E+02 -0.39423124987E+03  0.52062464498E+03  0.17300000000E+03 0. -1.
<mgrwt>
<rscale>  2 0.34004668E+03</rscale>
<asrwt>0</asrwt>
<pdfrwt beam="1">  1       21 0.16579446E-01 0.34004668E+03</pdfrwt>
<pdfrwt beam="2">  1       21 0.17015824E+00 0.34004668E+03</pdfrwt>
<totfact> 0.63301154E+03</totfact>
</mgrwt>
</event>
<event>
 4    2  0.4024741E+000  0.2222914E+03  0.7546771E-02  0.1132186E+00
         21   -1    0    0  501  502  0.00000000000E+00  0.00000000000E+00  0.14170923997E+03  0.14170923997E+03  0.00000000000E+00 0.  1.
         21   -1    0    0  502  503 -0.00000000000E+00 -0.00000000000E+00 -0.38910949573E+03  0.38910949573E+03  0.00000000000E+00 0. -1.
          6    1    1    2  501    0 -0.13384820598E+03 -0.39612221093E+02 -0.20923487739E+03  0.30527480115E+03  0.17300000000E+03 0. -1.
         -6    1    1    2    0  503  0.13384820598E+03  0.39612221093E+02 -0.38165378382E+02  0.22554393455E+03  0.17300000000E+03 0.  1.
<mgrwt>
<rscale>  2 0.22229141E+03</rscale>
<asrwt>0</asrwt>
<pdfrwt beam="1">  1       21 0.21801422E-01 0.22229141E+03</pdfrwt>
<pdfrwt beam="2">  1       21 0.59862999E-01 0.22229141E+03</pdfrwt>
<totfact> 0.50417509E+04</totfact>
</mgrwt>
</event>
<event>
 4    2  0.4024741E+000  0.2149968E+03  0.7546771E-02  0.1137669E+00
         21   -1    0    0  501  502  0.00000000000E+00  0.00000000000E+00  0.14906514046E+03  0.14906514046E+03  0.00000000000E+00 0.  1.
         21   -1    0    0  502  503 -0.00000000000E+00 -0.00000000000E+00 -0.40349497055E+03  0.40349497055E+03  0.00000000000E+00 0. -1.
          6    1    1    2  501    0 -0.26901405567E+02  0.12478363840E+03  0.57126216259E+01  0.21507272277E+03  0.17300000000E+03 0.  1.
         -6    1    1    2    0  503  0.26901405567E+02 -0.12478363840E+03 -0.26014245172E+03  0.33748738824E+03  0.17300000000E+03 0. -1.
<mgrwt>
<rscale>  2 0.21499684E+03</rscale>
<asrwt>0</asrwt>
<pdfrwt beam="1">  1       21 0.22933099E-01 0.21499684E+03</pdfrwt>
<pdfrwt beam="2">  1       21 0.62076148E-01 0.21499684E+03</pdfrwt>
<totfact> 0.42498886E+04</totfact>
</mgrwt>
</event>
<event>
 4    2  0.4024741E+000  0.2482168E+03  0.7546771E-02  0.1114437E+00
         21   -1    0    0  503  502  0.00000000000E+00  0.00000000000E+00  0.38208037224E+03  0.38208037224E+03  0.00000000000E+00 0. -1.
         21   -1    0    0  501  503 -0.00000000000E+00 -0.00000000000E+00 -0.18802788357E+03  0.18802788357E+03  0.00000000000E+00 0.  1.
          6    1    1    2  501    0  0.14100459978E+03 -0.10862913880E+03 -0.10541091147E+02  0.24844053928E+03  0.17300000000E+03 0.  1.
         -6    1    1    2    0  502 -0.14100459978E+03  0.10862913880E+03  0.20459357981E+03  0.32166771653E+03  0.17300000000E+03 0. -1.
<mgrwt>
<rscale>  2 0.24821681E+03</rscale>
<asrwt>0</asrwt>
<pdfrwt beam="1">  1       21 0.58781596E-01 0.24821681E+03</pdfrwt>
<pdfrwt beam="2">  1       21 0.28927367E-01 0.24821681E+03</pdfrwt>
<totfact> 0.30116869E+04</totfact>
</mgrwt>
</event>
<event>
 4    2  0.4024741E+000  0.2165505E+03  0.7546771E-02  0.1136481E+00
         21   -1    0    0  503  502  0.00000000000E+00  0.00000000000E+00  0.26653301112E+03  0.26653301112E+03  0.00000000000E+00 0. -1.
         21   -1    0    0  501  503 -0.00000000000E+00 -0.00000000000E+00 -0.22104924704E+03  0.22104924704E+03  0.00000000000E+00 0. -1.
          6    1    1    2  501    0 -0.12770739337E+03  0.25611016962E+02  0.13287071292E+03  0.25406441872E+03  0.17300000000E+03 0. -1.
         -6    1    1    2    0  502  0.12770739337E+03 -0.25611016962E+02 -0.87386948840E+02  0.23351783944E+03  0.17300000000E+03 0. -1.
<mgrwt>
<rscale>  2 0.21655046E+03</rscale>
<asrwt>0</asrwt>
<pdfrwt beam="1">  1       21 0.41005079E-01 0.21655046E+03</pdfrwt>
<pdfrwt beam="2">  1       21 0.34007577E-01 0.21655046E+03</pdfrwt>
<totfact> 0.47175048E+04</totfact>
</mgrwt>
</event>
<event>
 4    2  0.4024741E+000  0.1895522E+03  0.7546771E-02  0.1158866E+00
         21   -1    0    0  501  502  0.00000000000E+00  0.00000000000E+00  0.20937870050E+03  0.20937870050E+03  0.00000000000E+00 0. -1.
         21   -1    0    0  502  503 -0.00000000000E+00 -0.00000000000E+00 -0.17490829632E+03  0.17490829632E+03  0.00000000000E+00 0. -1.
          6    1    1    2  501    0  0.74148377358E+02  0.22428797360E+02  0.43648310610E+02  0.19451274466E+03  0.17300000000E+03 0. -1.
         -6    1    1    2    0  503 -0.74148377358E+02 -0.22428797360E+02 -0.91779064298E+01  0.18977425216E+03  0.17300000000E+03 0. -1.
<mgrwt>
<rscale>  2 0.18955219E+03</rscale>
<asrwt>0</asrwt>
<pdfrwt beam="1">  1       21 0.32212108E-01 0.18955219E+03</pdfrwt>
<pdfrwt beam="2">  1       21 0.26908969E-01 0.18955219E+03</pdfrwt>
<totfact> 0.12209196E+05</totfact>
</mgrwt>
</event>
<event>
 4    2  0.4024741E+000  0.2334676E+03  0.7546771E-02  0.1124223E+00
         21   -1    0    0  501  502  0.00000000000E+00  0.00000000000E+00  0.80565198992E+02  0.80565198992E+02  0.00000000000E+00 0. -1.
         21   -1    0    0  502  503 -0.00000000000E+00 -0.00000000000E+00 -0.68340868181E+03  0.68340868181E+03  0.00000000000E+00 0.  1.
          6    1    1    2  501    0  0.76235135040E+02  0.13699029494E+03 -0.33966308438E+03  0.41216276835E+03  0.17300000000E+03 0.  1.
         -6    1    1    2    0  503 -0.76235135040E+02 -0.13699029494E+03 -0.26318039844E+03  0.35181111245E+03  0.17300000000E+03 0. -1.
<mgrwt>
<rscale>  2 0.23346764E+03</rscale>
<asrwt>0</asrwt>
<pdfrwt beam="1">  1       21 0.12394646E-01 0.23346764E+03</pdfrwt>
<pdfrwt beam="2">  1       21 0.10513980E+00 0.23346764E+03</pdfrwt>
<totfact> 0.39491564E+04</totfact>
</mgrwt>
</event>
<event>
 4    2  0.4024741E+000  0.1834686E+03  0.7546771E-02  0.1164488E+00
         21   -1    0    0  503  502  0.00000000000E+00  0.00000000000E+00  0.16595163372E+04  0.16595163372E+04  0.00000000000E+00 0. -1.
         21   -1    0    0  501  503 -0.00000000000E+00 -0.00000000000E+00 -0.54547635099E+02  0.54547635099E+02  0.00000000000E+00 0. -1.
          6    1    1    2  501    0 -0.12927474289E+01 -0.61074097317E+02  0.12323493807E+03  0.22101485588E+03  0.17300000000E+03 0. -1.
         -6    1    1    2    0  502  0.12927474289E+01  0.61074097317E+02  0.14817337640E+04  0.14930491164E+04  0.17300000000E+03 0. -1.
<mgrwt>
<rscale>  2 0.18346857E+03</rscale>
<asrwt>0</asrwt>
<pdfrwt beam="1">  1       21 0.25531017E+00 0.18346857E+03</pdfrwt>
<pdfrwt beam="2">  1       21 0.83919451E-02 0.18346857E+03</pdfrwt>
<totfact> 0.68979832E+03</totfact>
</mgrwt>
</event>
<event>
 4    2  0.4024741E+000  0.2085755E+03  0.7546771E-02  0.1142699E+00
         21   -1    0    0  503  502  0.00000000000E+00  0.00000000000E+00  0.32368081582E+03  0.32368081582E+03  0.00000000000E+00 0. -1.
         21   -1    0    0  501  503 -0.00000000000E+00 -0.00000000000E+00 -0.13544558633E+03  0.13544558633E+03  0.00000000000E+00 0.  1.
          6    1    1    2  501    0 -0.31549190521E+02 -0.11215792916E+03  0.73979236389E+02  0.22130675523E+03  0.17300000000E+03 0. -1.
         -6    1    1    2    0  502  0.31549190521E+02  0.11215792916E+03  0.11425599310E+03  0.23781964691E+03  0.17300000000E+03 0. -1.
<mgrwt>
<rscale>  2 0.20857553E+03</rscale>
<asrwt>0</asrwt>
<pdfrwt beam="1">  1       21 0.49797049E-01 0.20857553E+03</pdfrwt>
<pdfrwt beam="2">  1       21 0.20837783E-01 0.20857553E+03</pdfrwt>
<totfact> 0.81591266E+04</totfact>
</mgrwt>
</event>
<event>
 4    2  0.4024741E+000  0.2083790E+03  0.7546771E-02  0.1142856E+00
         21   -1    0    0  503  502  0.00000000000E+00  0.00000000000E+00  0.94312843066E+03  0.94312843066E+03  0.00000000000E+00 0.  1.
         21   -1    0    0  501  503 -0.00000000000E+00 -0.00000000000E+00 -0.47840046369E+02  0.47840046369E+02  0.00000000000E+00 0.  1.
          6    1    1    2  501    0 -0.10352075817E+03  0.52690183442E+02  0.35153738103E+03  0.40865674234E+03  0.17300000000E+03 0.  1.
         -6    1    1    2    0  502  0.10352075817E+03 -0.52690183442E+02  0.54375100326E+03  0.58231173468E+03  0.17300000000E+03 0.  1.
<mgrwt>
<rscale>  2 0.20837899E+03</rscale>
<asrwt>0</asrwt>
<pdfrwt beam="1">  1       21 0.14509667E+00 0.20837899E+03</pdfrwt>
<pdfrwt beam="2">  1       21 0.73600078E-02 0.20837899E+03</pdfrwt>
<totfact> 0.44825987E+04</totfact>
</mgrwt>
</event>
<event>
 4    2  0.4024741E+000  0.2076820E+03  0.7546771E-02  0.1143415E+00
         21   -1    0    0  501  502  0.00000000000E+00  0.00000000000E+00  0.93152011046E+03  0.93152011046E+03  0.00000000000E+00 0. -1.
         21   -1    0    0  502  503 -0.00000000000E+00 -0.00000000000E+00 -0.46537085465E+02  0.46537085465E+02  0.00000000000E+00 0. -1.
          6    1    1    2  501    0  0.11270797566E+03  0.22354118916E+02  0.47720523891E+03  0.52043888638E+03  0.17300000000E+03 0. -1.
         -6    1    1    2    0  503 -0.11270797566E+03 -0.22354118916E+02  0.40777778608E+03  0.45761830955E+03  0.17300000000E+03 0. -1.
<mgrwt>
<rscale>  2 0.20768195E+03</rscale>
<asrwt>0</asrwt>
<pdfrwt beam="1">  1       21 0.14331077E+00 0.20768195E+03</pdfrwt>
<pdfrwt beam="2">  1       21 0.71595523E-02 0.20768195E+03</pdfrwt>
<totfact> 0.48589098E+04</totfact>
</mgrwt>
</event>
<event>
 4    2  0.4024741E+000  0.3913022E+03  0.7546771E-02  0.1046834E+00
         21   -1    0    0  501  502  0.00000000000E+00  0.00000000000E+00  0.10337887741E+03  0.10337887741E+03  0.00000000000E+00 0.  1.
         21   -1    0    0  502  503 -0.00000000000E+00 -0.00000000000E+00 -0.14811874245E+04  0.14811874245E+04  0.00000000000E+00 0. -1.
          6    1    1    2  501    0  0.31961861352E+03 -0.14502525367E+03 -0.69390935244E+03  0.79663515596E+03  0.17300000000E+03 0. -1.
         -6    1    1    2    0  503 -0.31961861352E+03  0.14502525367E+03 -0.68389919461E+03  0.78793114591E+03  0.17300000000E+03 0.  1.
<mgrwt>
<rscale>  2 0.39130216E+03</rscale>
<asrwt>0</asrwt>
<pdfrwt beam="1">  1       21 0.15904444E-01 0.39130216E+03</pdfrwt>
<pdfrwt beam="2">  1       21 0.22787497E+00 0.39130216E+03</pdfrwt>
<totfact> 0.27509379E+03</totfact>
</mgrwt>
</event>
<event>
 4    2  0.4024741E+000  0.2328377E+03  0.7546771E-02  0.1124658E+00
         21   -1    0    0  503  502  0.00000000000E+00  0.00000000000E+00  0.16370852154E+03  0.16370852154E+03  0.00000000000E+00 0.  1.
         21   -1    0    0  501  503 -0.00000000000E+00 -0.00000000000E+00 -0.77680014683E+03  0.77680014683E+03  0.00000000000E+00 0.  1.
          6    1    1    2  501    0  0.12680552049E+02  0.15531768986E+03 -0.66272726662E+03  0.70243918677E+03  0.17300000000E+03 0.  1.
         -6    1    1    2    0  502 -0.12680552049E+02 -0.15531768986E+03  0.49635641323E+02  0.23806948161E+03  0.17300000000E+03 0.  1.
<mgrwt>
<rscale>  2 0.23283767E+03</rscale>
<asrwt>0</asrwt>
<pdfrwt beam="1">  1       21 0.25185927E-01 0.23283767E+03</pdfrwt>
<pdfrwt beam="2">  1       21 0.11950771E+00 0.23283767E+03</pdfrwt>
<totfact> 0.77439101E+03</totfact>
</mgrwt>
</event>
<event>
 4    2  0.4024741E+000  0.5772532E+03  0.7546771E-02  0.9953756E-01
         21   -1    0    0  503  502  0.00000000000E+00  0.00000000000E+00  0.13631163777E+04  0.13631163777E+04  0.00000000000E+00 0.  1.
         21   -1    0    0  501  503 -0.00000000000E+00 -0.00000000000E+00 -0.72068717546E+03  0.72068717546E+03  0.00000000000E+00 0. -1.
          6    1    1    2  501    0 -0.57260675291E+02 -0.54773480479E+03 -0.52574472052E+03  0.78078723893E+03  0.17300000000E+03 0. -1.
         -6    1    1    2    0  502  0.57260675291E+02  0.54773480479E+03  0.11681739228E+04  0.13030163142E+04  0.17300000000E+03 0.  1.
<mgrwt>
<rscale>  2 0.57725315E+03</rscale>
<asrwt>0</asrwt>
<pdfrwt beam="1">  1       21 0.20971021E+00 0.57725315E+03</pdfrwt>
<pdfrwt beam="2">  1       21 0.11087495E+00 0.57725315E+03</pdfrwt>
<totfact> 0.54696725E+01</totfact>
</mgrwt>
</event>
<event>
 4    2  0.4024741E+000  0.1986532E+03  0.7546771E-02  0.1150880E+00
         21   -1    0    0  501  502  0.00000000000E+00  0.00000000000E+00  0.82898693689E+03  0.82898693689E+03  0.00000000000E+00 0. -1.
         21   -1    0    0  502  503 -0.00000000000E+00 -0.00000000000E+00 -0.50255018117E+02  0.50255018117E+02  0.00000000000E+00 0.  1.
          6    1    1    2  501    0 -0.17923003231E+02 -0.95983553272E+02  0.28839493147E+03  0.35019239432E+03  0.17300000000E+03 0.  1.
         -6    1    1    2    0  503  0.17923003231E+02  0.95983553272E+02  0.49033698731E+03  0.52904956069E+03  0.17300000000E+03 0. -1.
<mgrwt>
<rscale>  2 0.19865316E+03</rscale>
<asrwt>0</asrwt>
<pdfrwt beam="1">  1       21 0.12753644E+00 0.19865316E+03</pdfrwt>
<pdfrwt beam="2">  1       21 0.77315419E-02 0.19865316E+03</pdfrwt>
<totfact> 0.57578943E+04</totfact>
</mgrwt>
</event>
<event>
 4    2  0.4024741E+000  0.1930899E+03  0.7546771E-02  0.1155704E+00
         21   -1    0    0  503  502  0.00000000000E+00  0.00000000000E+00  0.11332806514E+03  0.11332806514E+03  0.00000000000E+00 0.  1.
         21   -1    0    0  501  503 -0.00000000000E+00 -0.00000000000E+00 -0.33007160456E+03  0.33007160456E+03  0.00000000000E+00 0.  1.
          6    1    1    2  501    0 -0.59842640986E+02 -0.61429330457E+02 -0.12106772087E+03  0.22790589584E+03  0.17300000000E+03 0. -1.
         -6    1    1    2    0  502  0.59842640986E+02  0.61429330457E+02 -0.95675818555E+02  0.21549377387E+03  0.17300000000E+03 0. -1.
<mgrwt>
<rscale>  2 0.19308989E+03</rscale>
<asrwt>0</asrwt>
<pdfrwt beam="1">  1       21 0.17435087E-01 0.19308989E+03</pdfrwt>
<pdfrwt beam="2">  1       21 0.50780247E-01 0.19308989E+03</pdfrwt>
<totfact> 0.10984860E+05</totfact>
</mgrwt>
</event>
<event>
 4    2  0.4024741E+000  0.2587751E+03  0.7546771E-02  0.1107881E+00
         21   -1    0    0  501  502  0.00000000000E+00  0.00000000000E+00  0.46387443159E+03  0.46387443159E+03  0.00000000000E+00 0. -1.
         21   -1    0    0  502  503 -0.00000000000E+00 -0.00000000000E+00 -0.47817991363E+03  0.47817991363E+03  0.00000000000E+00 0. -1.
          6    1    1    2  501    0 -0.16349278158E+03  0.10151683697E+03  0.38640360076E+03  0.46505085797E+03  0.17300000000E+03 0. -1.
         -6    1    1    2    0  503  0.16349278158E+03 -0.10151683697E+03 -0.40070908280E+03  0.47700348725E+03  0.17300000000E+03 0. -1.
<mgrwt>
<rscale>  2 0.25877511E+03</rscale>
<asrwt>0</asrwt>
<pdfrwt beam="1">  1       21 0.71365297E-01 0.25877511E+03</pdfrwt>
<pdfrwt beam="2">  1       21 0.73566141E-01 0.25877511E+03</pdfrwt>
<totfact> 0.28035340E+03</totfact>
</mgrwt>
</event>
<event>
 4    2  0.4024741E+000  0.2577421E+03  0.7546771E-02  0.1108507E+00
         21   -1    0    0  501  502  0.00000000000E+00  0.00000000000E+00  0.22216982359E+03  0.22216982359E+03  0.00000000000E+00 0.  1.
         21   -1    0    0  502  503 -0.00000000000E+00 -0.00000000000E+00 -0.41744053757E+03  0.41744053757E+03  0.00000000000E+00 0.  1.
          6    1    1    2  501    0  0.17947229474E+03 -0.65510776445E+02 -0.26797679258E+03  0.37180980053E+03  0.17300000000E+03 0.  1.
         -6    1    1    2    0  503 -0.17947229474E+03  0.65510776445E+02  0.72706078607E+02  0.26780056063E+03  0.17300000000E+03 0.  1.
<mgrwt>
<rscale>  2 0.25774205E+03</rscale>
<asrwt>0</asrwt>
<pdfrwt beam="1">  1       21 0.34179973E-01 0.25774205E+03</pdfrwt>
<pdfrwt beam="2">  1       21 0.64221621E-01 0.25774205E+03</pdfrwt>
<totfact> 0.17803814E+04</totfact>
</mgrwt>
</event>
<event>
 4    2  0.4024741E+000  0.1856775E+03  0.7546771E-02  0.1162419E+00
         21   -1    0    0  503  502  0.00000000000E+00  0.00000000000E+00  0.15792850496E+03  0.15792850496E+03  0.00000000000E+00 0.  1.
         21   -1    0    0  501  503 -0.00000000000E+00 -0.00000000000E+00 -0.40952641678E+03  0.40952641678E+03  0.00000000000E+00 0.  1.
          6    1    1    2  501    0 -0.20668486275E+00  0.67432216565E+02 -0.31967841956E+03  0.36968965158E+03  0.17300000000E+03 0.  1.
         -6    1    1    2    0  502  0.20668486275E+00 -0.67432216565E+02  0.68080507738E+02  0.19776527017E+03  0.17300000000E+03 0.  1.
<mgrwt>
<rscale>  2 0.18567753E+03</rscale>
<asrwt>0</asrwt>
<pdfrwt beam="1">  1       21 0.24296693E-01 0.18567753E+03</pdfrwt>
<pdfrwt beam="2">  1       21 0.63004064E-01 0.18567753E+03</pdfrwt>
<totfact> 0.37432355E+04</totfact>
</mgrwt>
</event>
<event>
 4    2  0.4024741E+000  0.1829231E+03  0.7546771E-02  0.1165004E+00
         21   -1    0    0  501  502  0.00000000000E+00  0.00000000000E+00  0.10873132640E+03  0.10873132640E+03  0.00000000000E+00 0. -1.
         21   -1    0    0  502  503 -0.00000000000E+00 -0.00000000000E+00 -0.45003733424E+03  0.45003733424E+03  0.00000000000E+00 0. -1.
          6    1    1    2  501    0 -0.49619660518E+02 -0.32706857798E+02 -0.13552359298E+02  0.18342441413E+03  0.17300000000E+03 0. -1.
         -6    1    1    2    0  503  0.49619660518E+02  0.32706857798E+02 -0.32775364854E+03  0.37534424651E+03  0.17300000000E+03 0. -1.
<mgrwt>
<rscale>  2 0.18292307E+03</rscale>
<asrwt>0</asrwt>
<pdfrwt beam="1">  1       21 0.16727897E-01 0.18292307E+03</pdfrwt>
<pdfrwt beam="2">  1       21 0.69236512E-01 0.18292307E+03</pdfrwt>
<totfact> 0.61269057E+04</totfact>
</mgrwt>
</event>
<event>
 4    2  0.4024741E+000  0.1845261E+03  0.7546771E-02  0.1163493E+00
         21   -1    0    0  503  502  0.00000000000E+00  0.00000000000E+00  0.14123132811E+03  0.14123132811E+03  0.00000000000E+00 0.  1.
         21   -1    0    0  501  503 -0.00000000000E+00 -0.00000000000E+00 -0.43173049236E+03  0.43173049236E+03  0.00000000000E+00 0. -1.
          6    1    1    2  501    0  0.39963936962E+02 -0.50237252220E+02 -0.33561733275E+03  0.38299985876E+03  0.17300000000E+03 0. -1.
         -6    1    1    2    0  502 -0.39963936962E+02  0.50237252220E+02  0.45118168502E+02  0.18996196171E+03  0.17300000000E+03 0.  1.
<mgrwt>
<rscale>  2 0.18452614E+03</rscale>
<asrwt>0</asrwt>
<pdfrwt beam="1">  1       21 0.21727897E-01 0.18452614E+03</pdfrwt>
<pdfrwt beam="2">  1       21 0.66420076E-01 0.18452614E+03</pdfrwt>
<totfact> 0.41253506E+04</totfact>
</mgrwt>
</event>
<event>
 4    2  0.4024741E+000  0.1819198E+03  0.7546771E-02  0.1165958E+00
         21   -1    0    0  501  502  0.00000000000E+00  0.00000000000E+00  0.11711365020E+03  0.11711365020E+03  0.00000000000E+00 0. -1.
         21   -1    0    0  502  503 -0.00000000000E+00 -0.00000000000E+00 -0.64550175619E+03  0.64550175619E+03  0.00000000000E+00 0. -1.
          6    1    1    2  501    0 -0.27740117937E+02 -0.48952047335E+02  0.21715762971E+02  0.18321133001E+03  0.17300000000E+03 0. -1.
         -6    1    1    2    0  503  0.27740117937E+02  0.48952047335E+02 -0.55010386897E+03  0.57940407639E+03  0.17300000000E+03 0. -1.
<mgrwt>
<rscale>  2 0.18191981E+03</rscale>
<asrwt>0</asrwt>
<pdfrwt beam="1">  1       21 0.18017485E-01 0.18191981E+03</pdfrwt>
<pdfrwt beam="2">  1       21 0.99307962E-01 0.18191981E+03</pdfrwt>
<totfact> 0.23539018E+04</totfact>
</mgrwt>
</event>
<event>
 4    2  0.4024741E+000  0.1805376E+03  0.7546771E-02  0.1167284E+00
         21   -1    0    0  503  502  0.00000000000E+00  0.00000000000E+00  0.63347805028E+03  0.63347805028E+03  0.00000000000E+00 0. -1.
         21   -1    0    0  501  503 -0.00000000000E+00 -0.00000000000E+00 -0.51474192804E+02  0.51474192804E+02  0.00000000000E+00 0. -1.
          6    1    1    2  501    0  0.28441815479E+02  0.43079892359E+02  0.29808742881E+03  0.34849667030E+03  0.17300000000E+03 0. -1.
         -6    1    1    2    0  502 -0.28441815479E+02 -0.43079892359E+02  0.28391642867E+03  0.33645557279E+03  0.17300000000E+03 0. -1.
<mgrwt>
<rscale>  2 0.18053757E+03</rscale>
<asrwt>0</asrwt>
<pdfrwt beam="1">  1       21 0.97458156E-01 0.18053757E+03</pdfrwt>
<pdfrwt beam="2">  1       21 0.79191070E-02 0.18053757E+03</pdfrwt>
<totfact> 0.10707841E+05</totfact>
</mgrwt>
</event>
<event>
 4    2  0.4024741E+000  0.1812205E+03  0.7546771E-02  0.1166627E+00
         21   -1    0    0  501  502  0.00000000000E+00  0.00000000000E+00  0.15021711392E+03  0.15021711392E+03  0.00000000000E+00 0. -1.
         21   -1    0    0  502  503 -0.00000000000E+00 -0.00000000000E+00 -0.25040422143E+03  0.25040422143E+03  0.00000000000E+00 0. -1.
          6    1    1    2  501    0 -0.12052957575E+02  0.52598270374E+02  0.21269178680E+02  0.18246432472E+03  0.17300000000E+03 0. -1.
         -6    1    1    2    0  503  0.12052957575E+02 -0.52598270374E+02 -0.12145628619E+03  0.21815701063E+03  0.17300000000E+03 0. -1.
<mgrwt>
<rscale>  2 0.18122045E+03</rscale>
<asrwt>0</asrwt>
<pdfrwt beam="1">  1       21 0.23110326E-01 0.18122045E+03</pdfrwt>
<pdfrwt beam="2">  1       21 0.38523726E-01 0.18122045E+03</pdfrwt>
<totfact> 0.11474924E+05</totfact>
</mgrwt>
</event>
<event>
 4    2  0.4024741E+000  0.3564968E+03  0.7546771E-02  0.1059980E+00
         21   -1    0    0  503  502  0.00000000000E+00  0.00000000000E+00  0.14653180598E+03  0.14653180598E+03  0.00000000000E+00 0.  1.
         21   -1    0    0  501  503 -0.00000000000E+00 -0.00000000000E+00 -0.10272401879E+04  0.10272401879E+04  0.00000000000E+00 0. -1.
          6    1    1    2  501    0  0.86077472399E+01 -0.31158767903E+03 -0.67191726602E+03  0.76063314904E+03  0.17300000000E+03 0.  1.
         -6    1    1    2    0  502 -0.86077472399E+01  0.31158767903E+03 -0.20879111589E+03  0.41313884483E+03  0.17300000000E+03 0.  1.
<mgrwt>
<rscale>  2 0.35649681E+03</rscale>
<asrwt>0</asrwt>
<pdfrwt beam="1">  1       21 0.22543355E-01 0.35649681E+03</pdfrwt>
<pdfrwt beam="2">  1       21 0.15803695E+00 0.35649681E+03</pdfrwt>
<totfact> 0.43209375E+03</totfact>
</mgrwt>
</event>
<event>
 4    2  0.4024741E+000  0.1867143E+03  0.7546771E-02  0.1161459E+00
         21   -1    0    0  503  502  0.00000000000E+00  0.00000000000E+00  0.11824252316E+03  0.11824252316E+03  0.00000000000E+00 0.  1.
         21   -1    0    0  501  503 -0.00000000000E+00 -0.00000000000E+00 -0.37721768749E+03  0.37721768749E+03  0.00000000000E+00 0. -1.
          6    1    1    2  501    0  0.58646217339E+02 -0.38650448900E+02 -0.24525763853E+03  0.30824267269E+03  0.17300000000E+03 0. -1.
         -6    1    1    2    0  502 -0.58646217339E+02  0.38650448900E+02 -0.13717525798E+02  0.18721753797E+03  0.17300000000E+03 0.  1.
<mgrwt>
<rscale>  2 0.18671432E+03</rscale>
<asrwt>0</asrwt>
<pdfrwt beam="1">  1       21 0.18191158E-01 0.18671432E+03</pdfrwt>
<pdfrwt beam="2">  1       21 0.58033490E-01 0.18671432E+03</pdfrwt>
<totfact> 0.76807987E+04</totfact>
</mgrwt>
</event>
<event>
 4    2  0.4024741E+000  0.2160588E+03  0.7546771E-02  0.1136856E+00
         21   -1    0    0  501  502  0.00000000000E+00  0.00000000000E+00  0.64337364844E+03  0.64337364844E+03  0.00000000000E+00 0.  1.
         21   -1    0    0  502  503 -0.00000000000E+00 -0.00000000000E+00 -0.93009597374E+02  0.93009597374E+02  0.00000000000E+00 0. -1.
          6    1    1    2  501    0  0.11642033856E+03 -0.56557099322E+02  0.44783814007E+03  0.49723274270E+03  0.17300000000E+03 0.  1.
         -6    1    1    2    0  503 -0.11642033856E+03  0.56557099322E+02  0.10252591100E+03  0.23915050312E+03  0.17300000000E+03 0. -1.
<mgrwt>
<rscale>  2 0.21605879E+03</rscale>
<asrwt>0</asrwt>
<pdfrwt beam="1">  1       21 0.98980559E-01 0.21605879E+03</pdfrwt>
<pdfrwt beam="2">  1       21 0.14309169E-01 0.21605879E+03</pdfrwt>
<totfact> 0.35495529E+04</totfact>
</mgrwt>
</event>
<event>
 4    2  0.4024741E+000  0.2383050E+03  0.7546771E-02  0.1120927E+00
         21   -1    0    0  503  502  0.00000000000E+00  0.00000000000E+00  0.12535727796E+03  0.12535727796E+03  0.00000000000E+00 0. -1.
         21   -1    0    0  501  503 -0.00000000000E+00 -0.00000000000E+00 -0.84592709673E+03  0.84592709673E+03  0.00000000000E+00 0.  1.
          6    1    1    2  501    0  0.91796103175E+02  0.13577085928E+03 -0.69126001555E+03  0.73118373880E+03  0.17300000000E+03 0.  1.
         -6    1    1    2    0  502 -0.91796103175E+02 -0.13577085928E+03 -0.29309803222E+02  0.24010063589E+03  0.17300000000E+03 0.  1.
<mgrwt>
<rscale>  2 0.23830495E+03</rscale>
<asrwt>0</asrwt>
<pdfrwt beam="1">  1       21 0.19285735E-01 0.23830495E+03</pdfrwt>
<pdfrwt beam="2">  1       21 0.13014263E+00 0.23830495E+03</pdfrwt>
<totfact> 0.10324463E+04</totfact>
</mgrwt>
</event>
<event>
 4    2  0.4024741E+000  0.2399524E+03  0.7546771E-02  0.1119825E+00
         21   -1    0    0  503  502  0.00000000000E+00  0.00000000000E+00  0.62873344269E+03  0.62873344269E+03  0.00000000000E+00 0.  1.
         21   -1    0    0  501  503 -0.00000000000E+00 -0.00000000000E+00 -0.11277159056E+03  0.11277159056E+03  0.00000000000E+00 0.  1.
          6    1    1    2  501    0 -0.81444982603E+02 -0.14496508986E+03  0.97248819477E+02  0.25891020714E+03  0.17300000000E+03 0.  1.
         -6    1    1    2    0  502  0.81444982603E+02  0.14496508986E+03  0.41871303266E+03  0.48259482611E+03  0.17300000000E+03 0.  1.
<mgrwt>
<rscale>  2 0.23995242E+03</rscale>
<asrwt>0</asrwt>
<pdfrwt beam="1">  1       21 0.96728220E-01 0.23995242E+03</pdfrwt>
<pdfrwt beam="2">  1       21 0.17349476E-01 0.23995242E+03</pdfrwt>
<totfact> 0.26003539E+04</totfact>
</mgrwt>
</event>
<event>
 4    2  0.4024741E+000  0.1734090E+03  0.7546771E-02  0.1174339E+00
         21   -1    0    0  501  502  0.00000000000E+00  0.00000000000E+00  0.91361115403E+02  0.91361115403E+02  0.00000000000E+00 0. -1.
         21   -1    0    0  502  503 -0.00000000000E+00 -0.00000000000E+00 -0.35974605016E+03  0.35974605016E+03  0.00000000000E+00 0. -1.
          6    1    1    2  501    0  0.64376298465E+01  0.10012418283E+02 -0.19998067434E+03  0.26469409080E+03  0.17300000000E+03 0.  1.
         -6    1    1    2    0  503 -0.64376298465E+01 -0.10012418283E+02 -0.68404260419E+02  0.18641307476E+03  0.17300000000E+03 0.  1.
<mgrwt>
<rscale>  2 0.17340903E+03</rscale>
<asrwt>0</asrwt>
<pdfrwt beam="1">  1       21 0.14055556E-01 0.17340903E+03</pdfrwt>
<pdfrwt beam="2">  1       21 0.55345546E-01 0.17340903E+03</pdfrwt>
<totfact> 0.13679012E+05</totfact>
</mgrwt>
</event>
<event>
 4    2  0.4024741E+000  0.2076877E+03  0.7546771E-02  0.1143410E+00
         21   -1    0    0  501  502  0.00000000000E+00  0.00000000000E+00  0.13209280201E+04  0.13209280201E+04  0.00000000000E+00 0. -1.
         21   -1    0    0  502  503 -0.00000000000E+00 -0.00000000000E+00 -0.67754345862E+02  0.67754345862E+02  0.00000000000E+00 0.  1.
          6    1    1    2  501    0  0.57466625595E+02 -0.99512692215E+02  0.11263419076E+04  0.11453297699E+04  0.17300000000E+03 0. -1.
         -6    1    1    2    0  503 -0.57466625595E+02  0.99512692215E+02  0.12683176655E+03  0.24335259599E+03  0.17300000000E+03 0.  1.
<mgrwt>
<rscale>  2 0.20768772E+03</rscale>
<asrwt>0</asrwt>
<pdfrwt beam="1">  1       21 0.20321968E+00 0.20768772E+03</pdfrwt>
<pdfrwt beam="2">  1       21 0.10423746E-01 0.20768772E+03</pdfrwt>
<totfact> 0.95342070E+03</totfact>
</mgrwt>
</event>
<event>
 4    2  0.4024741E+000  0.2102509E+03  0.7546771E-02  0.1141367E+00
         21   -1    0    0  501  502  0.00000000000E+00  0.00000000000E+00  0.81657134922E+02  0.81657134922E+02  0.00000000000E+00 0. -1.
         21   -1    0    0  502  503 -0.00000000000E+00 -0.00000000000E+00 -0.56095780869E+03  0.56095780869E+03  0.00000000000E+00 0. -1.
          6    1    1    2  501    0 -0.63942043362E+02  0.10093490874E+03 -0.17958517036E+03  0.27650727681E+03  0.17300000000E+03 0. -1.
         -6    1    1    2    0  503  0.63942043362E+02 -0.10093490874E+03 -0.29971550340E+03  0.36610766680E+03  0.17300000000E+03 0. -1.
<mgrwt>
<rscale>  2 0.21025090E+03</rscale>
<asrwt>0</asrwt>
<pdfrwt beam="1">  1       21 0.12562636E-01 0.21025090E+03</pdfrwt>
<pdfrwt beam="2">  1       21 0.86301203E-01 0.21025090E+03</pdfrwt>
<totfact> 0.62038133E+04</totfact>
</mgrwt>
</event>
<event>
 4    2  0.4024741E+000  0.2210918E+03  0.7546771E-02  0.1133072E+00
         21   -1    0    0  503  502  0.00000000000E+00  0.00000000000E+00  0.81792313672E+03  0.81792313672E+03  0.00000000000E+00 0.  1.
         21   -1    0    0  501  503 -0.00000000000E+00 -0.00000000000E+00 -0.76707518624E+02  0.76707518624E+02  0.00000000000E+00 0. -1.
          6    1    1    2  501    0 -0.43776559965E+02 -0.13052269909E+03  0.16037083862E+03  0.27313067945E+03  0.17300000000E+03 0. -1.
         -6    1    1    2    0  502  0.43776559965E+02  0.13052269909E+03  0.58084477948E+03  0.62149997589E+03  0.17300000000E+03 0.  1.
<mgrwt>
<rscale>  2 0.22109175E+03</rscale>
<asrwt>0</asrwt>
<pdfrwt beam="1">  1       21 0.12583432E+00 0.22109175E+03</pdfrwt>
<pdfrwt beam="2">  1       21 0.11801157E-01 0.22109175E+03</pdfrwt>
<totfact> 0.27896522E+04</totfact>
</mgrwt>
</event>
<event>
 4    2  0.4024741E+000  0.1741216E+03  0.7546771E-02  0.1173617E+00
         21   -1    0    0  501  502  0.00000000000E+00  0.00000000000E+00  0.45828430417E+02  0.45828430417E+02  0.00000000000E+00 0.  1.
         21   -1    0    0  502  503 -0.00000000000E+00 -0.00000000000E+00 -0.76779090309E+03  0.76779090309E+03  0.00000000000E+00 0.  1.
          6    1    1    2  501    0 -0.12545857214E+02  0.15229567842E+02 -0.20966289598E+03  0.27253782897E+03  0.17300000000E+03 0.  1.
         -6    1    1    2    0  503  0.12545857214E+02 -0.15229567842E+02 -0.51229957670E+03  0.54108150454E+03  0.17300000000E+03 0.  1.
<mgrwt>
<rscale>  2 0.17412162E+03</rscale>
<asrwt>0</asrwt>
<pdfrwt beam="1">  1       21 0.70505274E-02 0.17412162E+03</pdfrwt>
<pdfrwt beam="2">  1       21 0.11812168E+00 0.17412162E+03</pdfrwt>
<totfact> 0.82737964E+04</totfact>
</mgrwt>
</event>
<event>
 4    2  0.4024741E+000  0.2518985E+03  0.7546771E-02  0.1112111E+00
         21   -1    0    0  503  502  0.00000000000E+00  0.00000000000E+00  0.12930010188E+04  0.12930010188E+04  0.00000000000E+00 0.  1.
         21   -1    0    0  501  503 -0.00000000000E+00 -0.00000000000E+00 -0.43467744410E+03  0.43467744410E+03  0.00000000000E+00 0. -1.
          6    1    1    2  501    0 -0.20513406611E+02  0.18194240843E+03 -0.38445476717E+03  0.45962844542E+03  0.17300000000E+03 0. -1.
         -6    1    1    2    0  502  0.20513406611E+02 -0.18194240843E+03  0.12427783418E+04  0.12680500174E+04  0.17300000000E+03 0.  1.
<mgrwt>
<rscale>  2 0.25189847E+03</rscale>
<asrwt>0</asrwt>
<pdfrwt beam="1">  1       21 0.19892323E+00 0.25189847E+03</pdfrwt>
<pdfrwt beam="2">  1       21 0.66873453E-01 0.25189847E+03</pdfrwt>
<totfact> 0.26114085E+02</totfact>
</mgrwt>
</event>
<event>
 4    2  0.4024741E+000  0.1837450E+03  0.7546771E-02  0.1164227E+00
         21   -1    0    0  501  502  0.00000000000E+00  0.00000000000E+00  0.27934034851E+02  0.27934034851E+02  0.00000000000E+00 0. -1.
         21   -1    0    0  502  503 -0.00000000000E+00 -0.00000000000E+00 -0.12247768023E+04  0.12247768023E+04  0.00000000000E+00 0.  1.
          6    1    1    2  501    0  0.39542224733E+02 -0.47640675776E+02 -0.52652834804E+03  0.55766864966E+03  0.17300000000E+03 0. -1.
         -6    1    1    2    0  503 -0.39542224733E+02  0.47640675776E+02 -0.67031441945E+03  0.69504218753E+03  0.17300000000E+03 0.  1.
<mgrwt>
<rscale>  2 0.18374499E+03</rscale>
<asrwt>0</asrwt>
<pdfrwt beam="1">  1       21 0.42975447E-02 0.18374499E+03</pdfrwt>
<pdfrwt beam="2">  1       21 0.18842716E+00 0.18374499E+03</pdfrwt>
<totfact> 0.55796291E+04</totfact>
</mgrwt>
</event>
<event>
 4    2  0.4024741E+000  0.1840784E+03  0.7546771E-02  0.1163913E+00
         21   -1    0    0  501  502  0.00000000000E+00  0.00000000000E+00  0.18493729022E+03  0.18493729022E+03  0.00000000000E+00 0.  1.
         21   -1    0    0  502  503 -0.00000000000E+00 -0.00000000000E+00 -0.20548515040E+03  0.20548515040E+03  0.00000000000E+00 0. -1.
          6    1    1    2  501    0  0.32997581964E+02 -0.53544656872E+02  0.53978941676E+02  0.19182960366E+03  0.17300000000E+03 0.  1.
         -6    1    1    2    0  503 -0.32997581964E+02  0.53544656872E+02 -0.74526801855E+02  0.19859283695E+03  0.17300000000E+03 0. -1.
<mgrwt>
<rscale>  2 0.18407844E+03</rscale>
<asrwt>0</asrwt>
<pdfrwt beam="1">  1       21 0.28451891E-01 0.18407844E+03</pdfrwt>
<pdfrwt beam="2">  1       21 0.31613100E-01 0.18407844E+03</pdfrwt>
<totfact> 0.11396650E+05</totfact>
</mgrwt>
</event>
<event>
 4    2  0.4024741E+000  0.1956992E+03  0.7546771E-02  0.1153419E+00
         21   -1    0    0  501  502  0.00000000000E+00  0.00000000000E+00  0.98781894364E+03  0.98781894364E+03  0.00000000000E+00 0. -1.
         21   -1    0    0  502  503 -0.00000000000E+00 -0.00000000000E+00 -0.14633514971E+03  0.14633514971E+03  0.00000000000E+00 0. -1.
          6    1    1    2  501    0 -0.72426341461E+02 -0.55889350724E+02  0.90692807274E+03  0.92780209290E+03  0.17300000000E+03 0. -1.
         -6    1    1    2    0  503  0.72426341461E+02  0.55889350724E+02 -0.65444278812E+02  0.20635200045E+03  0.17300000000E+03 0. -1.
<mgrwt>
<rscale>  2 0.19569924E+03</rscale>
<asrwt>0</asrwt>
<pdfrwt beam="1">  1       21 0.15197214E+00 0.19569924E+03</pdfrwt>
<pdfrwt beam="2">  1       21 0.22513101E-01 0.19569924E+03</pdfrwt>
<totfact> 0.53235623E+03</totfact>
</mgrwt>
</event>
<event>
 4    2  0.4024741E+000  0.2450242E+03  0.7546771E-02  0.1116490E+00
         21   -1    0    0  501  502  0.00000000000E+00  0.00000000000E+00  0.19336722417E+03  0.19336722417E+03  0.00000000000E+00 0. -1.
         21   -1    0    0  502  503 -0.00000000000E+00 -0.00000000000E+00 -0.55123492803E+03  0.55123492803E+03  0.00000000000E+00 0.  1.
          6    1    1    2  501    0 -0.67412498343E+02 -0.15988561293E+03  0.67110043814E+02  0.25404844447E+03  0.17300000000E+03 0. -1.
         -6    1    1    2    0  503  0.67412498343E+02  0.15988561293E+03 -0.42497774767E+03  0.49055370773E+03  0.17300000000E+03 0.  1.
<mgrwt>
<rscale>  2 0.24502419E+03</rscale>
<asrwt>0</asrwt>
<pdfrwt beam="1">  1       21 0.29748804E-01 0.24502419E+03</pdfrwt>
<pdfrwt beam="2">  1       21 0.84805373E-01 0.24502419E+03</pdfrwt>
<totfact> 0.12637030E+04</totfact>
</mgrwt>
</event>
<event>
 4    2  0.4024741E+000  0.1912891E+03  0.7546771E-02  0.1157304E+00
         21   -1    0    0  503  502  0.00000000000E+00  0.00000000000E+00  0.32691558296E+03  0.32691558296E+03  0.00000000000E+00 0. -1.
         21   -1    0    0  501  503 -0.00000000000E+00 -0.00000000000E+00 -0.22358938697E+03  0.22358938697E+03  0.00000000000E+00 0.  1.
          6    1    1    2  501    0  0.76167742108E+02  0.29342980911E+02 -0.14285231668E+03  0.23874320901E+03  0.17300000000E+03 0.  1.
         -6    1    1    2    0  502 -0.76167742108E+02 -0.29342980911E+02  0.24617851268E+03  0.31176176092E+03  0.17300000000E+03 0. -1.
<mgrwt>
<rscale>  2 0.19128914E+03</rscale>
<asrwt>0</asrwt>
<pdfrwt beam="1">  1       21 0.50294705E-01 0.19128914E+03</pdfrwt>
<pdfrwt beam="2">  1       21 0.34398367E-01 0.19128914E+03</pdfrwt>
<totfact> 0.30679980E+04</totfact>
</mgrwt>
</event>
<event>
 4    2  0.4024741E+000  0.2547058E+03  0.7546771E-02  0.1110366E+00
         21   -1    0    0  501  502  0.00000000000E+00  0.00000000000E+00  0.23031929834E+04  0.23031929834E+04  0.00000000000E+00 0. -1.
         21   -1    0    0  502  503 -0.00000000000E+00 -0.00000000000E+00 -0.60297967817E+02  0.60297967817E+02  0.00000000000E+00 0. -1.
          6    1    1    2  501    0 -0.22021865438E+02 -0.18563697043E+03  0.25880362168E+03  0.36311755939E+03  0.17300000000E+03 0. -1.
         -6    1    1    2    0  503  0.22021865438E+02  0.18563697043E+03  0.19840913939E+04  0.20003733919E+04  0.17300000000E+03 0. -1.
<mgrwt>
<rscale>  2 0.25470581E+03</rscale>
<asrwt>0</asrwt>
<pdfrwt beam="1">  1       21 0.35433731E+00 0.25470581E+03</pdfrwt>
<pdfrwt beam="2">  1       21 0.92766122E-02 0.25470581E+03</pdfrwt>
<totfact> 0.14140449E+03</totfact>
</mgrwt>
</event>
<event>
 4    2  0.4024741E+000  0.1897718E+03  0.7546771E-02  0.1158667E+00
         21   -1    0    0  503  502  0.00000000000E+00  0.00000000000E+00  0.16877461063E+03  0.16877461063E+03  0.00000000000E+00 0.  1.
         21   -1    0    0  501  503 -0.00000000000E+00 -0.00000000000E+00 -0.28903608640E+03  0.28903608640E+03  0.00000000000E+00 0.  1.
          6    1    1    2  501    0 -0.71863846307E+02  0.30330483279E+02 -0.17724182956E+03  0.25966905239E+03  0.17300000000E+03 0.  1.
         -6    1    1    2    0  502  0.71863846307E+02 -0.30330483279E+02  0.56980353797E+02  0.19814164464E+03  0.17300000000E+03 0.  1.
<mgrwt>
<rscale>  2 0.18977184E+03</rscale>
<asrwt>0</asrwt>
<pdfrwt beam="1">  1       21 0.25965325E-01 0.18977184E+03</pdfrwt>
<pdfrwt beam="2">  1       21 0.44467090E-01 0.18977184E+03</pdfrwt>
<totfact> 0.68495102E+04</totfact>
</mgrwt>
</event>
<event>
 4    2  0.4024741E+000  0.1939274E+03  0.7546771E-02  0.1154966E+00
         21   -1    0    0  501  502  0.00000000000E+00  0.00000000000E+00  0.13915341130E+03  0.13915341130E+03  0.00000000000E+00 0.  1.
         21   -1    0    0  502  503 -0.00000000000E+00 -0.00000000000E+00 -0.30033992116E+03  0.30033992116E+03  0.00000000000E+00 0.  1.
          6    1    1    2  501    0 -0.52860437313E+02  0.69889877555E+02 -0.11051971191E+02  0.19424203172E+03  0.17300000000E+03 0.  1.
         -6    1    1    2    0  503  0.52860437313E+02 -0.69889877555E+02 -0.15013453867E+03  0.24525130075E+03  0.17300000000E+03 0.  1.
<mgrwt>
<rscale>  2 0.19392736E+03</rscale>
<asrwt>0</asrwt>
<pdfrwt beam="1">  1       21 0.21408217E-01 0.19392736E+03</pdfrwt>
<pdfrwt beam="2">  1       21 0.46206142E-01 0.19392736E+03</pdfrwt>
<totfact> 0.91146200E+04</totfact>
</mgrwt>
</event>
<event>
 4    2  0.4024741E+000  0.2719719E+03  0.7546771E-02  0.1100156E+00
         21   -1    0    0  503  502  0.00000000000E+00  0.00000000000E+00  0.13929927510E+04  0.13929927510E+04  0.00000000000E+00 0. -1.
         21   -1    0    0  501  503 -0.00000000000E+00 -0.00000000000E+00 -0.86080208497E+02  0.86080208497E+02  0.00000000000E+00 0. -1.
          6    1    1    2  501    0  0.19318095563E+02  0.20896541437E+03  0.19570371533E+03  0.33506518382E+03  0.17300000000E+03 0. -1.
         -6    1    1    2    0  502 -0.19318095563E+02 -0.20896541437E+03  0.11112088272E+04  0.11440077757E+04  0.17300000000E+03 0. -1.
<mgrwt>
<rscale>  2 0.27197193E+03</rscale>
<asrwt>0</asrwt>
<pdfrwt beam="1">  1       21 0.21430656E+00 0.27197193E+03</pdfrwt>
<pdfrwt beam="2">  1       21 0.13243110E-01 0.27197193E+03</pdfrwt>
<totfact> 0.50271779E+03</totfact>
</mgrwt>
</event>
<event>
 4    2  0.4024741E+000  0.2230886E+03  0.7546771E-02  0.1131601E+00
         21   -1    0    0  503  502  0.00000000000E+00  0.00000000000E+00  0.16384379734E+03  0.16384379734E+03  0.00000000000E+00 0.  1.
         21   -1    0    0  501  503 -0.00000000000E+00 -0.00000000000E+00 -0.43325025288E+03  0.43325025288E+03  0.00000000000E+00 0.  1.
          6    1    1    2  501    0  0.14074799927E+03  0.54353173370E+01 -0.29792140621E+03  0.37219041666E+03  0.17300000000E+03 0.  1.
         -6    1    1    2    0  502 -0.14074799927E+03 -0.54353173370E+01  0.28514950670E+02  0.22490363355E+03  0.17300000000E+03 0.  1.
<mgrwt>
<rscale>  2 0.22308864E+03</rscale>
<asrwt>0</asrwt>
<pdfrwt beam="1">  1       21 0.25206738E-01 0.22308864E+03</pdfrwt>
<pdfrwt beam="2">  1       21 0.66653884E-01 0.22308864E+03</pdfrwt>
<totfact> 0.30268305E+04</totfact>
</mgrwt>
</event>
<event>
 4    2  0.4024741E+000  0.2952969E+03  0.7546771E-02  0.1087616E+00
         21   -1    0    0  501  502  0.00000000000E+00  0.00000000000E+00  0.61517304751E+03  0.61517304751E+03  0.00000000000E+00 0. -1.
         21   -1    0    0  502  503 -0.00000000000E+00 -0.00000000000E+00 -0.50133491806E+03  0.50133491806E+03  0.00000000000E+00 0. -1.
          6    1    1    2  501    0 -0.23733667470E+03  0.30700942883E+02  0.52970996766E+03  0.60645931017E+03  0.17300000000E+03 0. -1.
         -6    1    1    2    0  503  0.23733667470E+03 -0.30700942883E+02 -0.41587183822E+03  0.51004865540E+03  0.17300000000E+03 0. -1.
<mgrwt>
<rscale>  2 0.29529688E+03</rscale>
<asrwt>0</asrwt>
<pdfrwt beam="1">  1       21 0.94642007E-01 0.29529688E+03</pdfrwt>
<pdfrwt beam="2">  1       21 0.77128449E-01 0.29529688E+03</pdfrwt>
<totfact> 0.12873835E+03</totfact>
</mgrwt>
</event>
<event>
 4    2  0.4024741E+000  0.2282739E+03  0.7546771E-02  0.1127861E+00
         21   -1    0    0  503  502  0.00000000000E+00  0.00000000000E+00  0.10799833403E+03  0.10799833403E+03  0.00000000000E+00 0. -1.
         21   -1    0    0  501  503 -0.00000000000E+00 -0.00000000000E+00 -0.55777037350E+03  0.55777037350E+03  0.00000000000E+00 0.  1.
          6    1    1    2  501    0 -0.14467986224E+03  0.35323234015E+02 -0.10259822489E+03  0.25027063181E+03  0.17300000000E+03 0. -1.
         -6    1    1    2    0  502  0.14467986224E+03 -0.35323234015E+02 -0.34717381458E+03  0.41549807572E+03  0.17300000000E+03 0.  1.
<mgrwt>
<rscale>  2 0.22827394E+03</rscale>
<asrwt>0</asrwt>
<pdfrwt beam="1">  1       21 0.16615128E-01 0.22827394E+03</pdfrwt>
<pdfrwt beam="2">  1       21 0.85810827E-01 0.22827394E+03</pdfrwt>
<totfact> 0.37460141E+04</totfact>
</mgrwt>
</event>
<event>
 4    2  0.4024741E+000  0.3422360E+03  0.7546771E-02  0.1065848E+00
         21   -1    0    0  503  502  0.00000000000E+00  0.00000000000E+00  0.83198346165E+03  0.83198346165E+03  0.00000000000E+00 0. -1.
         21   -1    0    0  501  503 -0.00000000000E+00 -0.00000000000E+00 -0.14287517273E+03  0.14287517273E+03  0.00000000000E+00 0.  1.
          6    1    1    2  501    0  0.14745468488E+03  0.25583901297E+03  0.28550875027E+03  0.44569129578E+03  0.17300000000E+03 0.  1.
         -6    1    1    2    0  502 -0.14745468488E+03 -0.25583901297E+03  0.40359953865E+03  0.52916733861E+03  0.17300000000E+03 0. -1.
<mgrwt>
<rscale>  2 0.34223601E+03</rscale>
<asrwt>0</asrwt>
<pdfrwt beam="1">  1       21 0.12799745E+00 0.34223601E+03</pdfrwt>
<pdfrwt beam="2">  1       21 0.21980796E-01 0.34223601E+03</pdfrwt>
<totfact> 0.79778892E+03</totfact>
</mgrwt>
</event>
<event>
 4    2  0.4024741E+000  0.3325451E+03  0.7546771E-02  0.1070016E+00
         21   -1    0    0  503  502  0.00000000000E+00  0.00000000000E+00  0.42241273805E+02  0.42241273805E+02  0.00000000000E+00 0.  1.
         21   -1    0    0  501  503 -0.00000000000E+00 -0.00000000000E+00 -0.26303361498E+04  0.26303361498E+04  0.00000000000E+00 0. -1.
          6    1    1    2  501    0  0.19730216254E+03 -0.20427703550E+03 -0.13856840175E+04  0.14250285776E+04  0.17300000000E+03 0. -1.
         -6    1    1    2    0  502 -0.19730216254E+03  0.20427703550E+03 -0.12024108585E+04  0.12475488460E+04  0.17300000000E+03 0.  1.
<mgrwt>
<rscale>  2 0.33254511E+03</rscale>
<asrwt>0</asrwt>
<pdfrwt beam="1">  1       21 0.64986589E-02 0.33254511E+03</pdfrwt>
<pdfrwt beam="2">  1       21 0.40466701E+00 0.33254511E+03</pdfrwt>
<totfact> 0.11964660E+03</totfact>
</mgrwt>
</event>
<event>
 4    2  0.4024741E+000  0.2050121E+03  0.7546771E-02  0.1145578E+00
         21   -1    0    0  503  502  0.00000000000E+00  0.00000000000E+00  0.58501902693E+03  0.58501902693E+03  0.00000000000E+00 0.  1.
         21   -1    0    0  501  503 -0.00000000000E+00 -0.00000000000E+00 -0.11202987542E+03  0.11202987542E+03  0.00000000000E+00 0.  1.
          6    1    1    2  501    0 -0.95326441565E+02  0.54898204372E+02  0.27755116555E+02  0.20688230905E+03  0.17300000000E+03 0.  1.
         -6    1    1    2    0  502  0.95326441565E+02 -0.54898204372E+02  0.44523403496E+03  0.49016659330E+03  0.17300000000E+03 0.  1.
<mgrwt>
<rscale>  2 0.20501206E+03</rscale>
<asrwt>0</asrwt>
<pdfrwt beam="1">  1       21 0.90002925E-01 0.20501206E+03</pdfrwt>
<pdfrwt beam="2">  1       21 0.17235366E-01 0.20501206E+03</pdfrwt>
<totfact> 0.31733745E+04</totfact>
</mgrwt>
</event>
<event>
 4    2  0.4024741E+000  0.1768627E+03  0.7546771E-02  0.1170874E+00
         21   -1    0    0  501  502  0.00000000000E+00  0.00000000000E+00  0.17163916832E+02  0.17163916832E+02  0.00000000000E+00 0. -1.
         21   -1    0    0  502  503 -0.00000000000E+00 -0.00000000000E+00 -0.18301065554E+04  0.18301065554E+04  0.00000000000E+00 0. -1.
          6    1    1    2  501    0  0.34311111692E+02  0.13196956196E+02 -0.84673665148E+03  0.86501061785E+03  0.17300000000E+03 0. -1.
         -6    1    1    2    0  503 -0.34311111692E+02 -0.13196956196E+02 -0.96620598704E+03  0.98225985433E+03  0.17300000000E+03 0. -1.
<mgrwt>
<rscale>  2 0.17686269E+03</rscale>
<asrwt>0</asrwt>
<pdfrwt beam="1">  1       21 0.26406019E-02 0.17686269E+03</pdfrwt>
<pdfrwt beam="2">  1       21 0.28155493E+00 0.17686269E+03</pdfrwt>
<totfact> 0.34547132E+04</totfact>
</mgrwt>
</event>
<event>
 4    2  0.4024741E+000  0.1758637E+03  0.7546771E-02  0.1171867E+00
         21   -1    0    0  501  502  0.00000000000E+00  0.00000000000E+00  0.12372222961E+03  0.12372222961E+03  0.00000000000E+00 0.  1.
         21   -1    0    0  502  503 -0.00000000000E+00 -0.00000000000E+00 -0.29130722205E+03  0.29130722205E+03  0.00000000000E+00 0.  1.
          6    1    1    2  501    0  0.27654855354E+02 -0.15304911141E+02 -0.56308686103E+01  0.17595379510E+03  0.17300000000E+03 0.  1.
         -6    1    1    2    0  503 -0.27654855354E+02  0.15304911141E+02 -0.16195412383E+03  0.23907565655E+03  0.17300000000E+03 0.  1.
<mgrwt>
<rscale>  2 0.17586367E+03</rscale>
<asrwt>0</asrwt>
<pdfrwt beam="1">  1       21 0.19034189E-01 0.17586367E+03</pdfrwt>
<pdfrwt beam="2">  1       21 0.44816496E-01 0.17586367E+03</pdfrwt>
<totfact> 0.12168380E+05</totfact>
</mgrwt>
</event>
<event>
 4    2  0.4024741E+000  0.2808809E+03  0.7546771E-02  0.1095209E+00
         21   -1    0    0  501  502  0.00000000000E+00  0.00000000000E+00  0.18939543973E+03  0.18939543973E+03  0.00000000000E+00 0.  1.
         21   -1    0    0  502  503 -0.00000000000E+00 -0.00000000000E+00 -0.69814115523E+03  0.69814115523E+03  0.00000000000E+00 0. -1.
          6    1    1    2  501    0  0.19810150275E+03 -0.98594510931E+02  0.27457911747E+02  0.28221980777E+03  0.17300000000E+03 0.  1.
         -6    1    1    2    0  503 -0.19810150275E+03  0.98594510931E+02 -0.53620362725E+03  0.60531678719E+03  0.17300000000E+03 0. -1.
<mgrwt>
<rscale>  2 0.28088091E+03</rscale>
<asrwt>0</asrwt>
<pdfrwt beam="1">  1       21 0.29137759E-01 0.28088091E+03</pdfrwt>
<pdfrwt beam="2">  1       21 0.10740633E+00 0.28088091E+03</pdfrwt>
<totfact> 0.73784214E+03</totfact>
</mgrwt>
</event>
<event>
 4    2  0.4024741E+000  0.2186999E+03  0.7546771E-02  0.1134856E+00
         21   -1    0    0  501  502  0.00000000000E+00  0.00000000000E+00  0.29980797283E+03  0.29980797283E+03  0.00000000000E+00 0.  1.
         21   -1    0    0  502  503 -0.00000000000E+00 -0.00000000000E+00 -0.16077074257E+03  0.16077074257E+03  0.00000000000E+00 0.  1.
          6    1    1    2  501    0  0.74526494653E+01 -0.13358551169E+03  0.49322330276E+02  0.22419260287E+03  0.17300000000E+03 0.  1.
         -6    1    1    2    0  503 -0.74526494653E+01  0.13358551169E+03  0.89714899984E+02  0.23638611253E+03  0.17300000000E+03 0.  1.
<mgrwt>
<rscale>  2 0.21869986E+03</rscale>
<asrwt>0</asrwt>
<pdfrwt beam="1">  1       21 0.46124303E-01 0.21869986E+03</pdfrwt>
<pdfrwt beam="2">  1       21 0.24733960E-01 0.21869986E+03</pdfrwt>
<totfact> 0.68839887E+04</totfact>
</mgrwt>
</event>
<event>
 4    2  0.4024741E+000  0.2709599E+03  0.7546771E-02  0.1100731E+00
         21   -1    0    0  501  502  0.00000000000E+00  0.00000000000E+00  0.57323388107E+03  0.57323388107E+03  0.00000000000E+00 0. -1.
         21   -1    0    0  502  503 -0.00000000000E+00 -0.00000000000E+00 -0.16167874270E+03  0.16167874270E+03  0.00000000000E+00 0. -1.
          6    1    1    2  501    0  0.12435449590E+03 -0.16741035612E+03  0.37328987254E+03  0.46126412924E+03  0.17300000000E+03 0. -1.
         -6    1    1    2    0  503 -0.12435449590E+03  0.16741035612E+03  0.38265265834E+02  0.27364849453E+03  0.17300000000E+03 0. -1.
<mgrwt>
<rscale>  2 0.27095990E+03</rscale>
<asrwt>0</asrwt>
<pdfrwt beam="1">  1       21 0.88189827E-01 0.27095990E+03</pdfrwt>
<pdfrwt beam="2">  1       21 0.24873653E-01 0.27095990E+03</pdfrwt>
<totfact> 0.16123472E+04</totfact>
</mgrwt>
</event>
<event>
 4    2  0.4024741E+000  0.3870207E+03  0.7546771E-02  0.1048369E+00
         21   -1    0    0  501  502  0.00000000000E+00  0.00000000000E+00  0.62212948615E+03  0.62212948615E+03  0.00000000000E+00 0.  1.
         21   -1    0    0  502  503 -0.00000000000E+00 -0.00000000000E+00 -0.45494921441E+03  0.45494921441E+03  0.00000000000E+00 0. -1.
          6    1    1    2  501    0 -0.27383243750E+02 -0.34511767159E+03  0.45310584013E+03  0.59589424534E+03  0.17300000000E+03 0.  1.
         -6    1    1    2    0  503  0.27383243750E+02  0.34511767159E+03 -0.28592556839E+03  0.48118445521E+03  0.17300000000E+03 0. -1.
<mgrwt>
<rscale>  2 0.38702073E+03</rscale>
<asrwt>0</asrwt>
<pdfrwt beam="1">  1       21 0.95712229E-01 0.38702073E+03</pdfrwt>
<pdfrwt beam="2">  1       21 0.69992187E-01 0.38702073E+03</pdfrwt>
<totfact> 0.14851718E+03</totfact>
</mgrwt>
</event>
<event>
 4    2  0.4024741E+000  0.4399045E+03  0.7546771E-02  0.1030776E+00
         21   -1    0    0  503  502  0.00000000000E+00  0.00000000000E+00  0.58897556914E+03  0.58897556914E+03  0.00000000000E+00 0. -1.
         21   -1    0    0  501  503 -0.00000000000E+00 -0.00000000000E+00 -0.33507746828E+03  0.33507746828E+03  0.00000000000E+00 0.  1.
          6    1    1    2  501    0 -0.30877160420E+03 -0.26124132860E+03  0.62530097349E+02  0.44432639850E+03  0.17300000000E+03 0.  1.
         -6    1    1    2    0  502  0.30877160420E+03  0.26124132860E+03  0.19136800350E+03  0.47972663892E+03  0.17300000000E+03 0. -1.
<mgrwt>
<rscale>  2 0.43990446E+03</rscale>
<asrwt>0</asrwt>
<pdfrwt beam="1">  1       21 0.90611626E-01 0.43990446E+03</pdfrwt>
<pdfrwt beam="2">  1       21 0.51550380E-01 0.43990446E+03</pdfrwt>
<totfact> 0.32334590E+03</totfact>
</mgrwt>
</event>
<event>
 4    2  0.4024741E+000  0.2207009E+03  0.7546771E-02  0.1133362E+00
         21   -1    0    0  501  502  0.00000000000E+00  0.00000000000E+00  0.47214999005E+03  0.47214999005E+03  0.00000000000E+00 0.  1.
         21   -1    0    0  502  503 -0.00000000000E+00 -0.00000000000E+00 -0.23744986873E+03  0.23744986873E+03  0.00000000000E+00 0. -1.
          6    1    1    2  501    0 -0.68582028116E+02 -0.11864394600E+03  0.38416658220E+03  0.44304948187E+03  0.17300000000E+03 0.  1.
         -6    1    1    2    0  503  0.68582028116E+02  0.11864394600E+03 -0.14946646089E+03  0.26655037692E+03  0.17300000000E+03 0.  1.
<mgrwt>
<rscale>  2 0.22070088E+03</rscale>
<asrwt>0</asrwt>
<pdfrwt beam="1">  1       21 0.72638460E-01 0.22070088E+03</pdfrwt>
<pdfrwt beam="2">  1       21 0.36530749E-01 0.22070088E+03</pdfrwt>
<totfact> 0.12116856E+04</totfact>
</mgrwt>
</event>
<event>
 4    2  0.4024741E+000  0.2537407E+03  0.7546771E-02  0.1110963E+00
         21   -1    0    0  503  502  0.00000000000E+00  0.00000000000E+00  0.44039747611E+03  0.44039747611E+03  0.00000000000E+00 0. -1.
         21   -1    0    0  501  503 -0.00000000000E+00 -0.00000000000E+00 -0.22459490485E+03  0.22459490485E+03  0.00000000000E+00 0.  1.
          6    1    1    2  501    0  0.17593997171E+03 -0.59164683149E+02 -0.88544095893E+02  0.26874595866E+03  0.17300000000E+03 0.  1.
         -6    1    1    2    0  502 -0.17593997171E+03  0.59164683149E+02  0.30434666716E+03  0.39624642230E+03  0.17300000000E+03 0. -1.
<mgrwt>
<rscale>  2 0.25374068E+03</rscale>
<asrwt>0</asrwt>
<pdfrwt beam="1">  1       21 0.67753458E-01 0.25374068E+03</pdfrwt>
<pdfrwt beam="2">  1       21 0.34553062E-01 0.25374068E+03</pdfrwt>
<totfact> 0.15518802E+04</totfact>
</mgrwt>
</event>
<event>
 4    2  0.4024741E+000  0.3308007E+03  0.7546771E-02  0.1070783E+00
         21   -1    0    0  503  502  0.00000000000E+00  0.00000000000E+00  0.61170971184E+03  0.61170971184E+03  0.00000000000E+00 0.  1.
         21   -1    0    0  501  503 -0.00000000000E+00 -0.00000000000E+00 -0.26992083899E+03  0.26992083899E+03  0.00000000000E+00 0. -1.
          6    1    1    2  501    0  0.64086853216E+01  0.28188474700E+03 -0.85100519435E+02  0.34157163267E+03  0.17300000000E+03 0. -1.
         -6    1    1    2    0  502 -0.64086853216E+01 -0.28188474700E+03  0.42688939228E+03  0.54005891815E+03  0.17300000000E+03 0. -1.
<mgrwt>
<rscale>  2 0.33080067E+03</rscale>
<asrwt>0</asrwt>
<pdfrwt beam="1">  1       21 0.94109186E-01 0.33080067E+03</pdfrwt>
<pdfrwt beam="2">  1       21 0.41526283E-01 0.33080067E+03</pdfrwt>
<totfact> 0.48617265E+03</totfact>
</mgrwt>
</event>
<event>
 4    2  0.4024741E+000  0.1798310E+03  0.7546771E-02  0.1167967E+00
         21   -1    0    0  503  502  0.00000000000E+00  0.00000000000E+00  0.35875826542E+02  0.35875826542E+02  0.00000000000E+00 0. -1.
         21   -1    0    0  501  503 -0.00000000000E+00 -0.00000000000E+00 -0.91198607748E+03  0.91198607748E+03  0.00000000000E+00 0. -1.
          6    1    1    2  501    0  0.49092155979E+02 -0.37767939513E+00 -0.48906811899E+03  0.52108234228E+03  0.17300000000E+03 0. -1.
         -6    1    1    2    0  502 -0.49092155979E+02  0.37767939513E+00 -0.38704213195E+03  0.42677956174E+03  0.17300000000E+03 0. -1.
<mgrwt>
<rscale>  2 0.17983098E+03</rscale>
<asrwt>0</asrwt>
<pdfrwt beam="1">  1       21 0.55193588E-02 0.17983098E+03</pdfrwt>
<pdfrwt beam="2">  1       21 0.14030553E+00 0.17983098E+03</pdfrwt>
<totfact> 0.81419125E+04</totfact>
</mgrwt>
</event>
<event>
 4    2  0.4024741E+000  0.2103604E+03  0.7546771E-02  0.1141281E+00
         21   -1    0    0  503  502  0.00000000000E+00  0.00000000000E+00  0.63525604273E+03  0.63525604273E+03  0.00000000000E+00 0.  1.
         21   -1    0    0  501  503 -0.00000000000E+00 -0.00000000000E+00 -0.70492571516E+02  0.70492571516E+02  0.00000000000E+00 0. -1.
          6    1    1    2  501    0  0.10331620062E+03 -0.60400889761E+02  0.24401665842E+03  0.32217329868E+03  0.17300000000E+03 0. -1.
         -6    1    1    2    0  502 -0.10331620062E+03  0.60400889761E+02  0.32074681280E+03  0.38357531558E+03  0.17300000000E+03 0.  1.
<mgrwt>
<rscale>  2 0.21036042E+03</rscale>
<asrwt>0</asrwt>
<pdfrwt beam="1">  1       21 0.97731695E-01 0.21036042E+03</pdfrwt>
<pdfrwt beam="2">  1       21 0.10845011E-01 0.21036042E+03</pdfrwt>
<totfact> 0.60393344E+04</totfact>
</mgrwt>
</event>
<event>
 4    2  0.4024741E+000  0.2146350E+03  0.7546771E-02  0.1137947E+00
         21   -1    0    0  503  502  0.00000000000E+00  0.00000000000E+00  0.14872578099E+03  0.14872578099E+03  0.00000000000E+00 0.  1.
         21   -1    0    0  501  503 -0.00000000000E+00 -0.00000000000E+00 -0.43011614389E+03  0.43011614389E+03  0.00000000000E+00 0. -1.
          6    1    1    2  501    0  0.10596993166E+03  0.70068288244E+02  0.12408159051E+02  0.21499338093E+03  0.17300000000E+03 0.  1.
         -6    1    1    2    0  502 -0.10596993166E+03 -0.70068288244E+02 -0.29379852195E+03  0.36384854395E+03  0.17300000000E+03 0. -1.
<mgrwt>
<rscale>  2 0.21463502E+03</rscale>
<asrwt>0</asrwt>
<pdfrwt beam="1">  1       21 0.22880889E-01 0.21463502E+03</pdfrwt>
<pdfrwt beam="2">  1       21 0.66171715E-01 0.21463502E+03</pdfrwt>
<totfact> 0.37146361E+04</totfact>
</mgrwt>
</event>
<event>
 4    2  0.4024741E+000  0.2258015E+03  0.7546771E-02  0.1129630E+00
         21   -1    0    0  503  502  0.00000000000E+00  0.00000000000E+00  0.27947054390E+03  0.27947054390E+03  0.00000000000E+00 0.  1.
         21   -1    0    0  501  503 -0.00000000000E+00 -0.00000000000E+00 -0.24371726102E+03  0.24371726102E+03  0.00000000000E+00 0. -1.
          6    1    1    2  501    0  0.14403086251E+03 -0.17675493018E+02 -0.11329437016E+03  0.25263001944E+03  0.17300000000E+03 0. -1.
         -6    1    1    2    0  502 -0.14403086251E+03  0.17675493018E+02  0.14904765304E+03  0.27055778548E+03  0.17300000000E+03 0.  1.
<mgrwt>
<rscale>  2 0.22580149E+03</rscale>
<asrwt>0</asrwt>
<pdfrwt beam="1">  1       21 0.42995468E-01 0.22580149E+03</pdfrwt>
<pdfrwt beam="2">  1       21 0.37494964E-01 0.22580149E+03</pdfrwt>
<totfact> 0.35088981E+04</totfact>
</mgrwt>
</event>
<event>
 4    2  0.4024741E+000  0.2621419E+03  0.7546771E-02  0.1105863E+00
         21   -1    0    0  501  502  0.00000000000E+00  0.00000000000E+00  0.22020092991E+03  0.22020092991E+03  0.00000000000E+00 0. -1.
         21   -1    0    0  502  503 -0.00000000000E+00 -0.00000000000E+00 -0.38316060170E+03  0.38316060170E+03  0.00000000000E+00 0. -1.
          6    1    1    2  501    0 -0.81177434392E+01  0.19678280324E+03  0.48465176436E+02  0.26658440078E+03  0.17300000000E+03 0. -1.
         -6    1    1    2    0  503  0.81177434392E+01 -0.19678280324E+03 -0.21142484822E+03  0.33677713084E+03  0.17300000000E+03 0. -1.
<mgrwt>
<rscale>  2 0.26214189E+03</rscale>
<asrwt>0</asrwt>
<pdfrwt beam="1">  1       21 0.33877066E-01 0.26214189E+03</pdfrwt>
<pdfrwt beam="2">  1       21 0.58947784E-01 0.26214189E+03</pdfrwt>
<totfact> 0.21786407E+04</totfact>
</mgrwt>
</event>
<event>
 4    2  0.4024741E+000  0.2178430E+03  0.7546771E-02  0.1135501E+00
         21   -1    0    0  501  502  0.00000000000E+00  0.00000000000E+00  0.88627847156E+03  0.88627847156E+03  0.00000000000E+00 0.  1.
         21   -1    0    0  502  503 -0.00000000000E+00 -0.00000000000E+00 -0.18016586925E+03  0.18016586925E+03  0.00000000000E+00 0.  1.
          6    1    1    2  501    0  0.75403541731E+02  0.10881585577E+03  0.80007425111E+03  0.82920105636E+03  0.17300000000E+03 0.  1.
         -6    1    1    2    0  503 -0.75403541731E+02 -0.10881585577E+03 -0.93961648803E+02  0.23724328445E+03  0.17300000000E+03 0.  1.
<mgrwt>
<rscale>  2 0.21784303E+03</rscale>
<asrwt>0</asrwt>
<pdfrwt beam="1">  1       21 0.13635053E+00 0.21784303E+03</pdfrwt>
<pdfrwt beam="2">  1       21 0.27717826E-01 0.21784303E+03</pdfrwt>
<totfact> 0.46629095E+03</totfact>
</mgrwt>
</event>
<event>
 4    2  0.4024741E+000  0.1847066E+03  0.7546771E-02  0.1163324E+00
         21   -1    0    0  503  502  0.00000000000E+00  0.00000000000E+00  0.15981821441E+03  0.15981821441E+03  0.00000000000E+00 0. -1.
         21   -1    0    0  501  503 -0.00000000000E+00 -0.00000000000E+00 -0.37483878099E+03  0.37483878099E+03  0.00000000000E+00 0. -1.
          6    1    1    2  501    0  0.35607455783E+02  0.54033667791E+02 -0.28291110791E+03  0.33786864776E+03  0.17300000000E+03 0. -1.
         -6    1    1    2    0  502 -0.35607455783E+02 -0.54033667791E+02  0.67890541330E+02  0.19678834763E+03  0.17300000000E+03 0. -1.
<mgrwt>
<rscale>  2 0.18470660E+03</rscale>
<asrwt>0</asrwt>
<pdfrwt beam="1">  1       21 0.24587418E-01 0.18470660E+03</pdfrwt>
<pdfrwt beam="2">  1       21 0.57667504E-01 0.18470660E+03</pdfrwt>
<totfact> 0.44273213E+04</totfact>
</mgrwt>
</event>
<event>
 4    2  0.4024741E+000  0.3060874E+03  0.7546771E-02  0.1082237E+00
         21   -1    0    0  503  502  0.00000000000E+00  0.00000000000E+00  0.86158819966E+03  0.86158819966E+03  0.00000000000E+00 0. -1.
         21   -1    0    0  501  503 -0.00000000000E+00 -0.00000000000E+00 -0.11881621412E+03  0.11881621412E+03  0.00000000000E+00 0.  1.
          6    1    1    2  501    0 -0.25145185110E+03 -0.23075210755E+02  0.51413600269E+03  0.59835217726E+03  0.17300000000E+03 0. -1.
         -6    1    1    2    0  502  0.25145185110E+03  0.23075210755E+02  0.22863598285E+03  0.38205223652E+03  0.17300000000E+03 0.  1.
<mgrwt>
<rscale>  2 0.30608740E+03</rscale>
<asrwt>0</asrwt>
<pdfrwt beam="1">  1       21 0.13255203E+00 0.30608740E+03</pdfrwt>
<pdfrwt beam="2">  1       21 0.18279418E-01 0.30608740E+03</pdfrwt>
<totfact> 0.10504308E+04</totfact>
</mgrwt>
</event>
<event>
 4    2  0.4024741E+000  0.2346268E+03  0.7546771E-02  0.1123425E+00
         21   -1    0    0  503  502  0.00000000000E+00  0.00000000000E+00  0.18783473191E+04  0.18783473191E+04  0.00000000000E+00 0. -1.
         21   -1    0    0  501  503 -0.00000000000E+00 -0.00000000000E+00 -0.94587672934E+02  0.94587672934E+02  0.00000000000E+00 0. -1.
          6    1    1    2  501    0  0.25667333077E+01  0.15847450086E+03  0.72366543297E+02  0.24553344402E+03  0.17300000000E+03 0. -1.
         -6    1    1    2    0  502 -0.25667333077E+01 -0.15847450086E+03  0.17113931029E+04  0.17274015480E+04  0.17300000000E+03 0. -1.
<mgrwt>
<rscale>  2 0.23462684E+03</rscale>
<asrwt>0</asrwt>
<pdfrwt beam="1">  1       21 0.28897648E+00 0.23462684E+03</pdfrwt>
<pdfrwt beam="2">  1       21 0.14551951E-01 0.23462684E+03</pdfrwt>
<totfact> 0.15593099E+03</totfact>
</mgrwt>
</event>
<event>
 4    2  0.4024741E+000  0.3267513E+03  0.7546771E-02  0.1072583E+00
         21   -1    0    0  503  502  0.00000000000E+00  0.00000000000E+00  0.15543071042E+03  0.15543071042E+03  0.00000000000E+00 0. -1.
         21   -1    0    0  501  503 -0.00000000000E+00 -0.00000000000E+00 -0.72055405554E+03  0.72055405554E+03  0.00000000000E+00 0.  1.
          6    1    1    2  501    0 -0.35981923330E+02  0.27485034583E+03 -0.18791439670E+03  0.37693266229E+03  0.17300000000E+03 0.  1.
         -6    1    1    2    0  502  0.35981923330E+02 -0.27485034583E+03 -0.37720894842E+03  0.49905210367E+03  0.17300000000E+03 0. -1.
<mgrwt>
<rscale>  2 0.32675130E+03</rscale>
<asrwt>0</asrwt>
<pdfrwt beam="1">  1       21 0.23912417E-01 0.32675130E+03</pdfrwt>
<pdfrwt beam="2">  1       21 0.11085447E+00 0.32675130E+03</pdfrwt>
<totfact> 0.98068686E+03</totfact>
</mgrwt>
</event>
<event>
 4    2  0.4024741E+000  0.2904957E+03  0.7546771E-02  0.1090091E+00
         21   -1    0    0  503  502  0.00000000000E+00  0.00000000000E+00  0.18429940584E+03  0.18429940584E+03  0.00000000000E+00 0. -1.
         21   -1    0    0  501  503 -0.00000000000E+00 -0.00000000000E+00 -0.45828366667E+03  0.45828366667E+03  0.00000000000E+00 0. -1.
          6    1    1    2  501    0 -0.19490895291E+03  0.12833268745E+03 -0.12750588785E+03  0.31724679672E+03  0.17300000000E+03 0. -1.
         -6    1    1    2    0  502  0.19490895291E+03 -0.12833268745E+03 -0.14647837298E+03  0.32533627579E+03  0.17300000000E+03 0. -1.
<mgrwt>
<rscale>  2 0.29049575E+03</rscale>
<asrwt>0</asrwt>
<pdfrwt beam="1">  1       21 0.28353755E-01 0.29049575E+03</pdfrwt>
<pdfrwt beam="2">  1       21 0.70505180E-01 0.29049575E+03</pdfrwt>
<totfact> 0.20645743E+04</totfact>
</mgrwt>
</event>
<event>
 4    2  0.4024741E+000  0.2080773E+03  0.7546771E-02  0.1143098E+00
         21   -1    0    0  501  502  0.00000000000E+00  0.00000000000E+00  0.18540872248E+03  0.18540872248E+03  0.00000000000E+00 0.  1.
         21   -1    0    0  502  503 -0.00000000000E+00 -0.00000000000E+00 -0.24887875984E+03  0.24887875984E+03  0.00000000000E+00 0. -1.
          6    1    1    2  501    0 -0.64857000417E+02  0.95711609291E+02  0.22212287946E+02  0.20925947623E+03  0.17300000000E+03 0.  1.
         -6    1    1    2    0  503  0.64857000417E+02 -0.95711609291E+02 -0.85682325303E+02  0.22502800609E+03  0.17300000000E+03 0. -1.
<mgrwt>
<rscale>  2 0.20807725E+03</rscale>
<asrwt>0</asrwt>
<pdfrwt beam="1">  1       21 0.28524419E-01 0.20807725E+03</pdfrwt>
<pdfrwt beam="2">  1       21 0.38289040E-01 0.20807725E+03</pdfrwt>
<totfact> 0.76799479E+04</totfact>
</mgrwt>
</event>
<event>
 4    2  0.4024741E+000  0.1763814E+03  0.7546771E-02  0.1171352E+00
         21   -1    0    0  501  502  0.00000000000E+00  0.00000000000E+00  0.59608182444E+02  0.59608182444E+02  0.00000000000E+00 0.  1.
         21   -1    0    0  502  503 -0.00000000000E+00 -0.00000000000E+00 -0.67824134310E+03  0.67824134310E+03  0.00000000000E+00 0.  1.
          6    1    1    2  501    0  0.34270394592E+02  0.26320298916E+01 -0.13219880124E+03  0.22042438744E+03  0.17300000000E+03 0. -1.
         -6    1    1    2    0  503 -0.34270394592E+02 -0.26320298916E+01 -0.48643435942E+03  0.51742513811E+03  0.17300000000E+03 0. -1.
<mgrwt>
<rscale>  2 0.17638137E+03</rscale>
<asrwt>0</asrwt>
<pdfrwt beam="1">  1       21 0.91704895E-02 0.17638137E+03</pdfrwt>
<pdfrwt beam="2">  1       21 0.10434482E+00 0.17638137E+03</pdfrwt>
<totfact> 0.70630143E+04</totfact>
</mgrwt>
</event>
<event>
 4    2  0.4024741E+000  0.1797796E+03  0.7546771E-02  0.1168017E+00
         21   -1    0    0  501  502  0.00000000000E+00  0.00000000000E+00  0.12441839945E+03  0.12441839945E+03  0.00000000000E+00 0.  1.
         21   -1    0    0  502  503 -0.00000000000E+00 -0.00000000000E+00 -0.15091492191E+04  0.15091492191E+04  0.00000000000E+00 0.  1.
          6    1    1    2  501    0 -0.40725667958E+02  0.27076341276E+02  0.50803293986E+02  0.18681992123E+03  0.17300000000E+03 0.  1.
         -6    1    1    2    0  503  0.40725667958E+02 -0.27076341276E+02 -0.14355341137E+04  0.14467476973E+04  0.17300000000E+03 0.  1.
<mgrwt>
<rscale>  2 0.17977961E+03</rscale>
<asrwt>0</asrwt>
<pdfrwt beam="1">  1       21 0.19141290E-01 0.17977961E+03</pdfrwt>
<pdfrwt beam="2">  1       21 0.23217683E+00 0.17977961E+03</pdfrwt>
<totfact> 0.21568779E+03</totfact>
</mgrwt>
</event>
<event>
 4    2  0.4024741E+000  0.3897796E+03  0.7546771E-02  0.1047377E+00
         21   -1    0    0  501  502  0.00000000000E+00  0.00000000000E+00  0.55642986114E+03  0.55642986114E+03  0.00000000000E+00 0.  1.
         21   -1    0    0  502  503 -0.00000000000E+00 -0.00000000000E+00 -0.41425784455E+03  0.41425784455E+03  0.00000000000E+00 0. -1.
          6    1    1    2  501    0  0.30570277987E+03  0.16895242592E+03  0.35445841798E+03  0.52684806341E+03  0.17300000000E+03 0.  1.
         -6    1    1    2    0  503 -0.30570277987E+03 -0.16895242592E+03 -0.21228640139E+03  0.44383964228E+03  0.17300000000E+03 0. -1.
<mgrwt>
<rscale>  2 0.38977957E+03</rscale>
<asrwt>0</asrwt>
<pdfrwt beam="1">  1       21 0.85604594E-01 0.38977957E+03</pdfrwt>
<pdfrwt beam="2">  1       21 0.63731976E-01 0.38977957E+03</pdfrwt>
<totfact> 0.23785806E+03</totfact>
</mgrwt>
</event>
<event>
 4    2  0.4024741E+000  0.2440857E+03  0.7546771E-02  0.1117101E+00
         21   -1    0    0  503  502  0.00000000000E+00  0.00000000000E+00  0.60598684330E+03  0.60598684330E+03  0.00000000000E+00 0.  1.
         21   -1    0    0  501  503 -0.00000000000E+00 -0.00000000000E+00 -0.10083903814E+03  0.10083903814E+03  0.00000000000E+00 0. -1.
          6    1    1    2  501    0 -0.16066822400E+03 -0.61923854347E+02  0.19666496894E+03  0.31345645942E+03  0.17300000000E+03 0. -1.
         -6    1    1    2    0  502  0.16066822400E+03  0.61923854347E+02  0.30848283622E+03  0.39336942202E+03  0.17300000000E+03 0.  1.
<mgrwt>
<rscale>  2 0.24408573E+03</rscale>
<asrwt>0</asrwt>
<pdfrwt beam="1">  1       21 0.93228743E-01 0.24408573E+03</pdfrwt>
<pdfrwt beam="2">  1       21 0.15513698E-01 0.24408573E+03</pdfrwt>
<totfact> 0.34791285E+04</totfact>
</mgrwt>
</event>
<event>
 4    2  0.4024741E+000  0.3012369E+03  0.7546771E-02  0.1084624E+00
         21   -1    0    0  501  502  0.00000000000E+00  0.00000000000E+00  0.99013576758E+03  0.99013576758E+03  0.00000000000E+00 0.  1.
         21   -1    0    0  502  503 -0.00000000000E+00 -0.00000000000E+00 -0.12707198737E+03  0.12707198737E+03  0.00000000000E+00 0. -1.
          6    1    1    2  501    0  0.93766871760E+02 -0.22808431862E+03  0.72646904850E+03  0.78644832066E+03  0.17300000000E+03 0.  1.
         -6    1    1    2    0  503 -0.93766871760E+02  0.22808431862E+03  0.13659473171E+03  0.33075943429E+03  0.17300000000E+03 0. -1.
<mgrwt>
<rscale>  2 0.30123692E+03</rscale>
<asrwt>0</asrwt>
<pdfrwt beam="1">  1       21 0.15232858E+00 0.30123692E+03</pdfrwt>
<pdfrwt beam="2">  1       21 0.19549537E-01 0.30123692E+03</pdfrwt>
<totfact> 0.64347125E+03</totfact>
</mgrwt>
</event>
<event>
 4    2  0.4024741E+000  0.1836928E+03  0.7546771E-02  0.1164276E+00
         21   -1    0    0  503  502  0.00000000000E+00  0.00000000000E+00  0.87591715979E+02  0.87591715979E+02  0.00000000000E+00 0.  1.
         21   -1    0    0  501  503 -0.00000000000E+00 -0.00000000000E+00 -0.68287637975E+03  0.68287637975E+03  0.00000000000E+00 0.  1.
          6    1    1    2  501    0 -0.95261400893E+01  0.61018943485E+02 -0.55197554083E+03  0.58173882153E+03  0.17300000000E+03 0.  1.
         -6    1    1    2    0  502  0.95261400893E+01 -0.61018943485E+02 -0.43309122949E+02  0.18872927420E+03  0.17300000000E+03 0.  1.
<mgrwt>
<rscale>  2 0.18369284E+03</rscale>
<asrwt>0</asrwt>
<pdfrwt beam="1">  1       21 0.13475648E-01 0.18369284E+03</pdfrwt>
<pdfrwt beam="2">  1       21 0.10505791E+00 0.18369284E+03</pdfrwt>
<totfact> 0.34932549E+04</totfact>
</mgrwt>
</event>
<event>
 4    2  0.4024741E+000  0.1912130E+03  0.7546771E-02  0.1157372E+00
         21   -1    0    0  501  502  0.00000000000E+00  0.00000000000E+00  0.15628957873E+03  0.15628957873E+03  0.00000000000E+00 0. -1.
         21   -1    0    0  502  503 -0.00000000000E+00 -0.00000000000E+00 -0.26607446870E+03  0.26607446870E+03  0.00000000000E+00 0. -1.
          6    1    1    2  501    0 -0.50031428809E+02 -0.64267287373E+02  0.18497912469E+02  0.19210570231E+03  0.17300000000E+03 0. -1.
         -6    1    1    2    0  503  0.50031428809E+02  0.64267287373E+02 -0.12828280244E+03  0.23025834512E+03  0.17300000000E+03 0. -1.
<mgrwt>
<rscale>  2 0.19121304E+03</rscale>
<asrwt>0</asrwt>
<pdfrwt beam="1">  1       21 0.24044551E-01 0.19121304E+03</pdfrwt>
<pdfrwt beam="2">  1       21 0.40934533E-01 0.19121304E+03</pdfrwt>
<totfact> 0.93837077E+04</totfact>
</mgrwt>
</event>
<event>
 4    2  0.4024741E+000  0.1985796E+03  0.7546771E-02  0.1150943E+00
         21   -1    0    0  503  502  0.00000000000E+00  0.00000000000E+00  0.14986507313E+03  0.14986507313E+03  0.00000000000E+00 0. -1.
         21   -1    0    0  501  503 -0.00000000000E+00 -0.00000000000E+00 -0.26869398847E+03  0.26869398847E+03  0.00000000000E+00 0.  1.
          6    1    1    2  501    0 -0.64295122451E+02 -0.73287161794E+02 -0.89532286192E+02  0.21782998215E+03  0.17300000000E+03 0.  1.
         -6    1    1    2    0  502  0.64295122451E+02  0.73287161794E+02 -0.29296629146E+02  0.20072907944E+03  0.17300000000E+03 0. -1.
<mgrwt>
<rscale>  2 0.19857963E+03</rscale>
<asrwt>0</asrwt>
<pdfrwt beam="1">  1       21 0.23056166E-01 0.19857963E+03</pdfrwt>
<pdfrwt beam="2">  1       21 0.41337536E-01 0.19857963E+03</pdfrwt>
<totfact> 0.99321143E+04</totfact>
</mgrwt>
</event>
<event>
 4    2  0.4024741E+000  0.3007207E+03  0.7546771E-02  0.1084881E+00
         21   -1    0    0  501  502  0.00000000000E+00  0.00000000000E+00  0.19410647382E+03  0.19410647382E+03  0.00000000000E+00 0. -1.
         21   -1    0    0  502  503 -0.00000000000E+00 -0.00000000000E+00 -0.55344168802E+03  0.55344168802E+03  0.00000000000E+00 0.  1.
          6    1    1    2  501    0 -0.23135579898E+03 -0.83537178008E+02 -0.31006776304E+02  0.30231504430E+03  0.17300000000E+03 0. -1.
         -6    1    1    2    0  503  0.23135579898E+03  0.83537178008E+02 -0.32832843790E+03  0.44523311755E+03  0.17300000000E+03 0.  1.
<mgrwt>
<rscale>  2 0.30072074E+03</rscale>
<asrwt>0</asrwt>
<pdfrwt beam="1">  1       21 0.29862535E-01 0.30072074E+03</pdfrwt>
<pdfrwt beam="2">  1       21 0.85144874E-01 0.30072074E+03</pdfrwt>
<totfact> 0.12093698E+04</totfact>
</mgrwt>
</event>
<event>
 4    2  0.4024741E+000  0.2425151E+03  0.7546771E-02  0.1118129E+00
         21   -1    0    0  501  502  0.00000000000E+00  0.00000000000E+00  0.69576388460E+03  0.69576388460E+03  0.00000000000E+00 0.  1.
         21   -1    0    0  502  503 -0.00000000000E+00 -0.00000000000E+00 -0.12399306492E+03  0.12399306492E+03  0.00000000000E+00 0.  1.
          6    1    1    2  501    0 -0.19351203060E+02 -0.16884928467E+03  0.54653989639E+02  0.24859728191E+03  0.17300000000E+03 0.  1.
         -6    1    1    2    0  503  0.19351203060E+02  0.16884928467E+03  0.51711683004E+03  0.57115966761E+03  0.17300000000E+03 0.  1.
<mgrwt>
<rscale>  2 0.24251505E+03</rscale>
<asrwt>0</asrwt>
<pdfrwt beam="1">  1       21 0.10704060E+00 0.24251505E+03</pdfrwt>
<pdfrwt beam="2">  1       21 0.19075857E-01 0.24251505E+03</pdfrwt>
<totfact> 0.17071544E+04</totfact>
</mgrwt>
</event>
<event>
 4    2  0.4024741E+000  0.1992849E+03  0.7546771E-02  0.1150344E+00
         21   -1    0    0  503  502  0.00000000000E+00  0.00000000000E+00  0.21458886339E+03  0.21458886339E+03  0.00000000000E+00 0.  1.
         21   -1    0    0  501  503 -0.00000000000E+00 -0.00000000000E+00 -0.24294131236E+03  0.24294131236E+03  0.00000000000E+00 0.  1.
          6    1    1    2  501    0 -0.54452272278E+01 -0.98771621118E+02 -0.12582695941E+03  0.23568391407E+03  0.17300000000E+03 0.  1.
         -6    1    1    2    0  502  0.54452272278E+01  0.98771621118E+02  0.97474510443E+02  0.22184626169E+03  0.17300000000E+03 0.  1.
<mgrwt>
<rscale>  2 0.19928493E+03</rscale>
<asrwt>0</asrwt>
<pdfrwt beam="1">  1       21 0.33013672E-01 0.19928493E+03</pdfrwt>
<pdfrwt beam="2">  1       21 0.37375586E-01 0.19928493E+03</pdfrwt>
<totfact> 0.60798737E+04</totfact>
</mgrwt>
</event>
<event>
 4    2  0.4024741E+000  0.1777995E+03  0.7546771E-02  0.1169950E+00
         21   -1    0    0  501  502  0.00000000000E+00  0.00000000000E+00  0.15331958172E+03  0.15331958172E+03  0.00000000000E+00 0. -1.
         21   -1    0    0  502  503 -0.00000000000E+00 -0.00000000000E+00 -0.23970111458E+03  0.23970111458E+03  0.00000000000E+00 0. -1.
          6    1    1    2  501    0 -0.36442409852E+02  0.18857986031E+02  0.30287205683E+02  0.18036071551E+03  0.17300000000E+03 0. -1.
         -6    1    1    2    0  503  0.36442409852E+02 -0.18857986031E+02 -0.11666873854E+03  0.21265998078E+03  0.17300000000E+03 0. -1.
<mgrwt>
<rscale>  2 0.17779953E+03</rscale>
<asrwt>0</asrwt>
<pdfrwt beam="1">  1       21 0.23587628E-01 0.17779953E+03</pdfrwt>
<pdfrwt beam="2">  1       21 0.36877095E-01 0.17779953E+03</pdfrwt>
<totfact> 0.12062125E+05</totfact>
</mgrwt>
</event>
<event>
 4    2  0.4024741E+000  0.3455238E+03  0.7546771E-02  0.1064467E+00
         21   -1    0    0  503  502  0.00000000000E+00  0.00000000000E+00  0.23961022889E+03  0.23961022889E+03  0.00000000000E+00 0.  1.
         21   -1    0    0  501  503 -0.00000000000E+00 -0.00000000000E+00 -0.50231121938E+03  0.50231121938E+03  0.00000000000E+00 0. -1.
          6    1    1    2  501    0 -0.13876553828E+03 -0.26495625222E+03 -0.16469084920E+03  0.38276594156E+03  0.17300000000E+03 0.  1.
         -6    1    1    2    0  502  0.13876553828E+03  0.26495625222E+03 -0.98010141290E+02  0.35915550671E+03  0.17300000000E+03 0.  1.
<mgrwt>
<rscale>  2 0.34552379E+03</rscale>
<asrwt>0</asrwt>
<pdfrwt beam="1">  1       21 0.36863112E-01 0.34552379E+03</pdfrwt>
<pdfrwt beam="2">  1       21 0.77278649E-01 0.34552379E+03</pdfrwt>
<totfact> 0.97405857E+03</totfact>
</mgrwt>
</event>
<event>
 4    2  0.4024741E+000  0.2602497E+03  0.7546771E-02  0.1106993E+00
         21   -1    0    0  503  502  0.00000000000E+00  0.00000000000E+00  0.29451448310E+02  0.29451448310E+02  0.00000000000E+00 0.  1.
         21   -1    0    0  501  503 -0.00000000000E+00 -0.00000000000E+00 -0.27826494299E+04  0.27826494299E+04  0.00000000000E+00 0.  1.
          6    1    1    2  501    0  0.19421677842E+03  0.89865992963E+01 -0.19623540721E+04  0.19795361629E+04  0.17300000000E+03 0.  1.
         -6    1    1    2    0  502 -0.19421677842E+03 -0.89865992963E+01 -0.79084390956E+03  0.83256471537E+03  0.17300000000E+03 0.  1.
<mgrwt>
<rscale>  2 0.26024972E+03</rscale>
<asrwt>0</asrwt>
<pdfrwt beam="1">  1       21 0.45309917E-02 0.26024972E+03</pdfrwt>
<pdfrwt beam="2">  1       21 0.42809994E+00 0.26024972E+03</pdfrwt>
<totfact> 0.16841774E+03</totfact>
</mgrwt>
</event>
<event>
 4    2  0.4024741E+000  0.1755789E+03  0.7546771E-02  0.1172152E+00
         21   -1    0    0  503  502  0.00000000000E+00  0.00000000000E+00  0.85104981649E+02  0.85104981649E+02  0.00000000000E+00 0. -1.
         21   -1    0    0  501  503 -0.00000000000E+00 -0.00000000000E+00 -0.98994866338E+03  0.98994866338E+03  0.00000000000E+00 0. -1.
          6    1    1    2  501    0  0.12830312367E+01  0.29955272824E+02 -0.88045237491E+03  0.89778858816E+03  0.17300000000E+03 0. -1.
         -6    1    1    2    0  502 -0.12830312367E+01 -0.29955272824E+02 -0.24391306819E+02  0.17726505687E+03  0.17300000000E+03 0. -1.
<mgrwt>
<rscale>  2 0.17557894E+03</rscale>
<asrwt>0</asrwt>
<pdfrwt beam="1">  1       21 0.13093074E-01 0.17557894E+03</pdfrwt>
<pdfrwt beam="2">  1       21 0.15229980E+00 0.17557894E+03</pdfrwt>
<totfact> 0.14589973E+04</totfact>
</mgrwt>
</event>
<event>
 4    2  0.4024741E+000  0.1765654E+03  0.7546771E-02  0.1171169E+00
         21   -1    0    0  503  502  0.00000000000E+00  0.00000000000E+00  0.41584892782E+03  0.41584892782E+03  0.00000000000E+00 0.  1.
         21   -1    0    0  501  503 -0.00000000000E+00 -0.00000000000E+00 -0.75182213797E+02  0.75182213797E+02  0.00000000000E+00 0.  1.
          6    1    1    2  501    0 -0.28304384894E+02 -0.21100142961E+02  0.18343920584E+03  0.25460812335E+03  0.17300000000E+03 0.  1.
         -6    1    1    2    0  502  0.28304384894E+02  0.21100142961E+02  0.15722750819E+03  0.23642301827E+03  0.17300000000E+03 0.  1.
<mgrwt>
<rscale>  2 0.17656544E+03</rscale>
<asrwt>0</asrwt>
<pdfrwt beam="1">  1       21 0.63976757E-01 0.17656544E+03</pdfrwt>
<pdfrwt beam="2">  1       21 0.11566495E-01 0.17656544E+03</pdfrwt>
<totfact> 0.14215837E+05</totfact>
</mgrwt>
</event>
<event>
 4    2  0.4024741E+000  0.1760981E+03  0.7546771E-02  0.1171634E+00
         21   -1    0    0  503  502  0.00000000000E+00  0.00000000000E+00  0.72024059700E+03  0.72024059700E+03  0.00000000000E+00 0. -1.
         21   -1    0    0  501  503 -0.00000000000E+00 -0.00000000000E+00 -0.46175831748E+02  0.46175831748E+02  0.00000000000E+00 0. -1.
          6    1    1    2  501    0 -0.11945569942E+02  0.30640476740E+02  0.23742147018E+03  0.29560021982E+03  0.17300000000E+03 0. -1.
         -6    1    1    2    0  502  0.11945569942E+02 -0.30640476740E+02  0.43664329507E+03  0.47081620892E+03  0.17300000000E+03 0. -1.
<mgrwt>
<rscale>  2 0.17609808E+03</rscale>
<asrwt>0</asrwt>
<pdfrwt beam="1">  1       21 0.11080624E+00 0.17609808E+03</pdfrwt>
<pdfrwt beam="2">  1       21 0.71039746E-02 0.17609808E+03</pdfrwt>
<totfact> 0.95298028E+04</totfact>
</mgrwt>
</event>
<event>
 4    2  0.4024741E+000  0.1731298E+03  0.7546771E-02  0.1174623E+00
         21   -1    0    0  503  502  0.00000000000E+00  0.00000000000E+00  0.19638904019E+04  0.19638904019E+04  0.00000000000E+00 0. -1.
         21   -1    0    0  501  503 -0.00000000000E+00 -0.00000000000E+00 -0.76948357285E+02  0.76948357285E+02  0.00000000000E+00 0. -1.
          6    1    1    2  501    0 -0.26298574366E+01 -0.61656083808E+01  0.29838127063E+02  0.17568222649E+03  0.17300000000E+03 0. -1.
         -6    1    1    2    0  502  0.26298574366E+01  0.61656083808E+01  0.18571039176E+04  0.18651565327E+04  0.17300000000E+03 0. -1.
<mgrwt>
<rscale>  2 0.17312981E+03</rscale>
<asrwt>0</asrwt>
<pdfrwt beam="1">  1       21 0.30213695E+00 0.17312981E+03</pdfrwt>
<pdfrwt beam="2">  1       21 0.11838210E-01 0.17312981E+03</pdfrwt>
<totfact> 0.20478738E+03</totfact>
</mgrwt>
</event>
<event>
 4    2  0.4024741E+000  0.1765566E+03  0.7546771E-02  0.1171178E+00
         21   -1    0    0  503  502  0.00000000000E+00  0.00000000000E+00  0.85308236107E+02  0.85308236107E+02  0.00000000000E+00 0. -1.
         21   -1    0    0  501  503 -0.00000000000E+00 -0.00000000000E+00 -0.36695825671E+03  0.36695825671E+03  0.00000000000E+00 0.  1.
          6    1    1    2  501    0 -0.18468883996E+01  0.35210981721E+02 -0.12612214898E+03  0.21697700499E+03  0.17300000000E+03 0.  1.
         -6    1    1    2    0  502  0.18468883996E+01 -0.35210981721E+02 -0.15552787162E+03  0.23528948782E+03  0.17300000000E+03 0. -1.
<mgrwt>
<rscale>  2 0.17655658E+03</rscale>
<asrwt>0</asrwt>
<pdfrwt beam="1">  1       21 0.13124344E-01 0.17655658E+03</pdfrwt>
<pdfrwt beam="2">  1       21 0.56455118E-01 0.17655658E+03</pdfrwt>
<totfact> 0.14825172E+05</totfact>
</mgrwt>
</event>
<event>
 4    2  0.4024741E+000  0.2119386E+03  0.7546771E-02  0.1140040E+00
         21   -1    0    0  501  502  0.00000000000E+00  0.00000000000E+00  0.53099252738E+03  0.53099252738E+03  0.00000000000E+00 0.  1.
         21   -1    0    0  502  503 -0.00000000000E+00 -0.00000000000E+00 -0.91733651323E+02  0.91733651323E+02  0.00000000000E+00 0. -1.
          6    1    1    2  501    0  0.11311258514E+03  0.46845689282E+02  0.30650296817E+03  0.37264197968E+03  0.17300000000E+03 0.  1.
         -6    1    1    2    0  503 -0.11311258514E+03 -0.46845689282E+02  0.13275590789E+03  0.25008419902E+03  0.17300000000E+03 0. -1.
<mgrwt>
<rscale>  2 0.21193861E+03</rscale>
<asrwt>0</asrwt>
<pdfrwt beam="1">  1       21 0.81691156E-01 0.21193861E+03</pdfrwt>
<pdfrwt beam="2">  1       21 0.14112870E-01 0.21193861E+03</pdfrwt>
<totfact> 0.56953498E+04</totfact>
</mgrwt>
</event>
<event>
 4    2  0.4024741E+000  0.2653866E+03  0.7546771E-02  0.1103949E+00
         21   -1    0    0  501  502  0.00000000000E+00  0.00000000000E+00  0.16629256093E+04  0.16629256093E+04  0.00000000000E+00 0.  1.
         21   -1    0    0  502  503 -0.00000000000E+00 -0.00000000000E+00 -0.42353923329E+02  0.42353923329E+02  0.00000000000E+00 0. -1.
          6    1    1    2  501    0 -0.48341765680E+02 -0.19535634511E+03  0.81408165910E+03  0.85624702952E+03  0.17300000000E+03 0.  1.
         -6    1    1    2    0  503  0.48341765680E+02  0.19535634511E+03  0.80649002684E+03  0.84903250307E+03  0.17300000000E+03 0. -1.
<mgrwt>
<rscale>  2 0.26538656E+03</rscale>
<asrwt>0</asrwt>
<pdfrwt beam="1">  1       21 0.25583466E+00 0.26538656E+03</pdfrwt>
<pdfrwt beam="2">  1       21 0.65159895E-02 0.26538656E+03</pdfrwt>
<totfact> 0.98977487E+03</totfact>
</mgrwt>
</event>
<event>
 4    2  0.4024741E+000  0.2465931E+03  0.7546771E-02  0.1115477E+00
         21   -1    0    0  503  502  0.00000000000E+00  0.00000000000E+00  0.11487245983E+04  0.11487245983E+04  0.00000000000E+00 0. -1.
         21   -1    0    0  501  503 -0.00000000000E+00 -0.00000000000E+00 -0.73037011963E+02  0.73037011963E+02  0.00000000000E+00 0. -1.
          6    1    1    2  501    0 -0.77452391766E+02 -0.15773478929E+03  0.85832382952E+03  0.89304419435E+03  0.17300000000E+03 0. -1.
         -6    1    1    2    0  502  0.77452391766E+02  0.15773478929E+03  0.21736375681E+03  0.32871741590E+03  0.17300000000E+03 0. -1.
<mgrwt>
<rscale>  2 0.24659306E+03</rscale>
<asrwt>0</asrwt>
<pdfrwt beam="1">  1       21 0.17672685E+00 0.24659306E+03</pdfrwt>
<pdfrwt beam="2">  1       21 0.11236464E-01 0.24659306E+03</pdfrwt>
<totfact> 0.12171264E+04</totfact>
</mgrwt>
</event>
<event>
 4    2  0.4024741E+000  0.1882421E+03  0.7546771E-02  0.1160056E+00
         21   -1    0    0  501  502  0.00000000000E+00  0.00000000000E+00  0.83642846739E+02  0.83642846739E+02  0.00000000000E+00 0.  1.
         21   -1    0    0  502  503 -0.00000000000E+00 -0.00000000000E+00 -0.87693680413E+03  0.87693680413E+03  0.00000000000E+00 0.  1.
          6    1    1    2  501    0 -0.72459199968E+02  0.15991962919E+02 -0.51338693564E+02  0.19511724679E+03  0.17300000000E+03 0.  1.
         -6    1    1    2    0  503  0.72459199968E+02 -0.15991962919E+02 -0.74195526383E+03  0.76546240408E+03  0.17300000000E+03 0.  1.
<mgrwt>
<rscale>  2 0.18824207E+03</rscale>
<asrwt>0</asrwt>
<pdfrwt beam="1">  1       21 0.12868130E-01 0.18824207E+03</pdfrwt>
<pdfrwt beam="2">  1       21 0.13491335E+00 0.18824207E+03</pdfrwt>
<totfact> 0.20429550E+04</totfact>
</mgrwt>
</event>
<event>
 4    2  0.4024741E+000  0.2357741E+03  0.7546771E-02  0.1122640E+00
         21   -1    0    0  501  502  0.00000000000E+00  0.00000000000E+00  0.43063676876E+03  0.43063676876E+03  0.00000000000E+00 0. -1.
         21   -1    0    0  502  503 -0.00000000000E+00 -0.00000000000E+00 -0.12977310102E+03  0.12977310102E+03  0.00000000000E+00 0.  1.
          6    1    1    2  501    0 -0.52524530108E+02 -0.15133267479E+03  0.17081291581E+03  0.29114679619E+03  0.17300000000E+03 0.  1.
         -6    1    1    2    0  503  0.52524530108E+02  0.15133267479E+03  0.13005075193E+03  0.26926307359E+03  0.17300000000E+03 0. -1.
<mgrwt>
<rscale>  2 0.23577405E+03</rscale>
<asrwt>0</asrwt>
<pdfrwt beam="1">  1       21 0.66251810E-01 0.23577405E+03</pdfrwt>
<pdfrwt beam="2">  1       21 0.19965093E-01 0.23577405E+03</pdfrwt>
<totfact> 0.47447941E+04</totfact>
</mgrwt>
</event>
<event>
 4    2  0.4024741E+000  0.2362040E+03  0.7546771E-02  0.1122348E+00
         21   -1    0    0  503  502  0.00000000000E+00  0.00000000000E+00  0.49101666569E+03  0.49101666569E+03  0.00000000000E+00 0. -1.
         21   -1    0    0  501  503 -0.00000000000E+00 -0.00000000000E+00 -0.30360404744E+03  0.30360404744E+03  0.00000000000E+00 0. -1.
          6    1    1    2  501    0  0.16761738237E+02  0.15994492288E+03 -0.22058157822E+03  0.32318503504E+03  0.17300000000E+03 0. -1.
         -6    1    1    2    0  502 -0.16761738237E+02 -0.15994492288E+03  0.40799419647E+03  0.47143567809E+03  0.17300000000E+03 0. -1.
<mgrwt>
<rscale>  2 0.23620401E+03</rscale>
<asrwt>0</asrwt>
<pdfrwt beam="1">  1       21 0.75541026E-01 0.23620401E+03</pdfrwt>
<pdfrwt beam="2">  1       21 0.46708315E-01 0.23620401E+03</pdfrwt>
<totfact> 0.66622856E+03</totfact>
</mgrwt>
</event>
<event>
 4    2  0.4024741E+000  0.2159459E+03  0.7546771E-02  0.1136942E+00
         21   -1    0    0  501  502  0.00000000000E+00  0.00000000000E+00  0.54002422973E+02  0.54002422973E+02  0.00000000000E+00 0.  1.
         21   -1    0    0  502  503 -0.00000000000E+00 -0.00000000000E+00 -0.86675565205E+03  0.86675565205E+03  0.00000000000E+00 0.  1.
          6    1    1    2  501    0 -0.15970685958E+02 -0.12825189241E+03 -0.37828332685E+03  0.43558109014E+03  0.17300000000E+03 0.  1.
         -6    1    1    2    0  503  0.15970685958E+02  0.12825189241E+03 -0.43446990223E+03  0.48517698488E+03  0.17300000000E+03 0.  1.
<mgrwt>
<rscale>  2 0.21594585E+03</rscale>
<asrwt>0</asrwt>
<pdfrwt beam="1">  1       21 0.83080649E-02 0.21594585E+03</pdfrwt>
<pdfrwt beam="2">  1       21 0.13334703E+00 0.21594585E+03</pdfrwt>
<totfact> 0.44964195E+04</totfact>
</mgrwt>
</event>
<event>
 4    2  0.4024741E+000  0.1953397E+03  0.7546771E-02  0.1153732E+00
         21   -1    0    0  501  502  0.00000000000E+00  0.00000000000E+00  0.15633333258E+03  0.15633333258E+03  0.00000000000E+00 0. -1.
         21   -1    0    0  502  503 -0.00000000000E+00 -0.00000000000E+00 -0.32334785671E+03  0.32334785671E+03  0.00000000000E+00 0.  1.
          6    1    1    2  501    0 -0.66987361254E+02 -0.61166031742E+02  0.35244656292E+02  0.19849376767E+03  0.17300000000E+03 0. -1.
         -6    1    1    2    0  503  0.66987361254E+02  0.61166031742E+02 -0.20225918042E+03  0.28118742161E+03  0.17300000000E+03 0.  1.
<mgrwt>
<rscale>  2 0.19533968E+03</rscale>
<asrwt>0</asrwt>
<pdfrwt beam="1">  1       21 0.24051282E-01 0.19533968E+03</pdfrwt>
<pdfrwt beam="2">  1       21 0.49745823E-01 0.19533968E+03</pdfrwt>
<totfact> 0.62719014E+04</totfact>
</mgrwt>
</event>
<event>
 4    2  0.4024741E+000  0.1832472E+03  0.7546771E-02  0.1164697E+00
         21   -1    0    0  501  502  0.00000000000E+00  0.00000000000E+00  0.66481706800E+03  0.66481706800E+03  0.00000000000E+00 0. -1.
         21   -1    0    0  502  503 -0.00000000000E+00 -0.00000000000E+00 -0.15777299165E+03  0.15777299165E+03  0.00000000000E+00 0. -1.
          6    1    1    2  501    0  0.17881535063E+02 -0.57712978109E+02  0.59264970320E+03  0.62033314262E+03  0.17300000000E+03 0. -1.
         -6    1    1    2    0  503 -0.17881535063E+02  0.57712978109E+02 -0.85605626843E+02  0.20225691703E+03  0.17300000000E+03 0. -1.
<mgrwt>
<rscale>  2 0.18324720E+03</rscale>
<asrwt>0</asrwt>
<pdfrwt beam="1">  1       21 0.10227955E+00 0.18324720E+03</pdfrwt>
<pdfrwt beam="2">  1       21 0.24272768E-01 0.18324720E+03</pdfrwt>
<totfact> 0.12546626E+04</totfact>
</mgrwt>
</event>
<event>
 4    2  0.4024741E+000  0.4123542E+03  0.7546771E-02  0.1039584E+00
         21   -1    0    0  503  502  0.00000000000E+00  0.00000000000E+00  0.19699168020E+03  0.19699168020E+03  0.00000000000E+00 0. -1.
         21   -1    0    0  501  503 -0.00000000000E+00 -0.00000000000E+00 -0.12445685477E+04  0.12445685477E+04  0.00000000000E+00 0.  1.
          6    1    1    2  501    0  0.16287427998E+03  0.33701478401E+03 -0.92280111394E+03  0.10107412585E+04  0.17300000000E+03 0.  1.
         -6    1    1    2    0  502 -0.16287427998E+03 -0.33701478401E+03 -0.12477575354E+03  0.43081896939E+03  0.17300000000E+03 0. -1.
<mgrwt>
<rscale>  2 0.41235421E+03</rscale>
<asrwt>0</asrwt>
<pdfrwt beam="1">  1       21 0.30306412E-01 0.41235421E+03</pdfrwt>
<pdfrwt beam="2">  1       21 0.19147208E+00 0.41235421E+03</pdfrwt>
<totfact> 0.13637252E+03</totfact>
</mgrwt>
</event>
<event>
 4    2  0.4024741E+000  0.1792048E+03  0.7546771E-02  0.1168575E+00
         21   -1    0    0  503  502  0.00000000000E+00  0.00000000000E+00  0.63122673320E+02  0.63122673320E+02  0.00000000000E+00 0.  1.
         21   -1    0    0  501  503 -0.00000000000E+00 -0.00000000000E+00 -0.52847259175E+03  0.52847259175E+03  0.00000000000E+00 0.  1.
          6    1    1    2  501    0  0.37501142969E+02  0.27911004622E+02 -0.28980221300E+03  0.34073403494E+03  0.17300000000E+03 0.  1.
         -6    1    1    2    0  502 -0.37501142969E+02 -0.27911004622E+02 -0.17554770542E+03  0.25086123013E+03  0.17300000000E+03 0.  1.
<mgrwt>
<rscale>  2 0.17920480E+03</rscale>
<asrwt>0</asrwt>
<pdfrwt beam="1">  1       21 0.97111803E-02 0.17920480E+03</pdfrwt>
<pdfrwt beam="2">  1       21 0.81303477E-01 0.17920480E+03</pdfrwt>
<totfact> 0.11388446E+05</totfact>
</mgrwt>
</event>
<event>
 4    2  0.4024741E+000  0.1730895E+03  0.7546771E-02  0.1174664E+00
         21   -1    0    0  503  502  0.00000000000E+00  0.00000000000E+00  0.77664207594E+03  0.77664207594E+03  0.00000000000E+00 0. -1.
         21   -1    0    0  501  503 -0.00000000000E+00 -0.00000000000E+00 -0.10276048449E+03  0.10276048449E+03  0.00000000000E+00 0. -1.
          6    1    1    2  501    0 -0.17959266853E+00 -0.55632174195E+01 -0.10562281848E+02  0.17341148589E+03  0.17300000000E+03 0. -1.
         -6    1    1    2    0  502  0.17959266853E+00  0.55632174195E+01  0.68444387329E+03  0.70599107454E+03  0.17300000000E+03 0. -1.
<mgrwt>
<rscale>  2 0.17308952E+03</rscale>
<asrwt>0</asrwt>
<pdfrwt beam="1">  1       21 0.11948339E+00 0.17308952E+03</pdfrwt>
<pdfrwt beam="2">  1       21 0.15809306E-01 0.17308952E+03</pdfrwt>
<totfact> 0.19269061E+04</totfact>
</mgrwt>
</event>
<event>
 4    2  0.4024741E+000  0.2207480E+03  0.7546771E-02  0.1133327E+00
         21   -1    0    0  503  502  0.00000000000E+00  0.00000000000E+00  0.54278501854E+02  0.54278501854E+02  0.00000000000E+00 0.  1.
         21   -1    0    0  501  503 -0.00000000000E+00 -0.00000000000E+00 -0.12357928805E+04  0.12357928805E+04  0.00000000000E+00 0. -1.
          6    1    1    2  501    0 -0.44343886566E+01  0.13704392365E+03 -0.92810887364E+03  0.95399988582E+03  0.17300000000E+03 0. -1.
         -6    1    1    2    0  502  0.44343886566E+01 -0.13704392365E+03 -0.25340550498E+03  0.33607149650E+03  0.17300000000E+03 0.  1.
<mgrwt>
<rscale>  2 0.22074805E+03</rscale>
<asrwt>0</asrwt>
<pdfrwt beam="1">  1       21 0.83505396E-02 0.22074805E+03</pdfrwt>
<pdfrwt beam="2">  1       21 0.19012196E+00 0.22074805E+03</pdfrwt>
<totfact> 0.16983594E+04</totfact>
</mgrwt>
</event>
<event>
 4    2  0.4024741E+000  0.1991443E+03  0.7546771E-02  0.1150463E+00
         21   -1    0    0  501  502  0.00000000000E+00  0.00000000000E+00  0.29502482642E+03  0.29502482642E+03  0.00000000000E+00 0.  1.
         21   -1    0    0  502  503 -0.00000000000E+00 -0.00000000000E+00 -0.22547934557E+03  0.22547934557E+03  0.00000000000E+00 0.  1.
          6    1    1    2  501    0  0.77119211279E+02  0.61498515627E+02  0.20015669589E+03  0.28234932811E+03  0.17300000000E+03 0.  1.
         -6    1    1    2    0  503 -0.77119211279E+02 -0.61498515627E+02 -0.13061121504E+03  0.23815484389E+03  0.17300000000E+03 0.  1.
<mgrwt>
<rscale>  2 0.19914427E+03</rscale>
<asrwt>0</asrwt>
<pdfrwt beam="1">  1       21 0.45388435E-01 0.19914427E+03</pdfrwt>
<pdfrwt beam="2">  1       21 0.34689130E-01 0.19914427E+03</pdfrwt>
<totfact> 0.37164979E+04</totfact>
</mgrwt>
</event>
<event>
 4    2  0.4024741E+000  0.1769323E+03  0.7546771E-02  0.1170805E+00
         21   -1    0    0  501  502  0.00000000000E+00  0.00000000000E+00  0.12714243504E+04  0.12714243504E+04  0.00000000000E+00 0.  1.
         21   -1    0    0  502  503 -0.00000000000E+00 -0.00000000000E+00 -0.66754576846E+02  0.66754576846E+02  0.00000000000E+00 0.  1.
          6    1    1    2  501    0 -0.32695228278E+02 -0.17523354276E+02  0.11338951821E+04  0.11476163687E+04  0.17300000000E+03 0.  1.
         -6    1    1    2    0  503  0.32695228278E+02  0.17523354276E+02  0.70774591466E+02  0.19056255848E+03  0.17300000000E+03 0.  1.
<mgrwt>
<rscale>  2 0.17693232E+03</rscale>
<asrwt>0</asrwt>
<pdfrwt beam="1">  1       21 0.19560373E+00 0.17693232E+03</pdfrwt>
<pdfrwt beam="2">  1       21 0.10269936E-01 0.17693232E+03</pdfrwt>
<totfact> 0.11243938E+04</totfact>
</mgrwt>
</event>
<event>
 4    2  0.4024741E+000  0.2700678E+03  0.7546771E-02  0.1101241E+00
         21   -1    0    0  503  502  0.00000000000E+00  0.00000000000E+00  0.15204087617E+03  0.15204087617E+03  0.00000000000E+00 0.  1.
         21   -1    0    0  501  503 -0.00000000000E+00 -0.00000000000E+00 -0.48706654466E+03  0.48706654466E+03  0.00000000000E+00 0.  1.
          6    1    1    2  501    0 -0.42366588062E+02 -0.20300910901E+03 -0.12825977655E+03  0.29897691618E+03  0.17300000000E+03 0.  1.
         -6    1    1    2    0  502  0.42366588062E+02  0.20300910901E+03 -0.20676589194E+03  0.34013050465E+03  0.17300000000E+03 0.  1.
<mgrwt>
<rscale>  2 0.27006782E+03</rscale>
<asrwt>0</asrwt>
<pdfrwt beam="1">  1       21 0.23390904E-01 0.27006782E+03</pdfrwt>
<pdfrwt beam="2">  1       21 0.74933315E-01 0.27006782E+03</pdfrwt>
<totfact> 0.26346691E+04</totfact>
</mgrwt>
</event>
<event>
 4    2  0.4024741E+000  0.1820135E+03  0.7546771E-02  0.1165868E+00
         21   -1    0    0  501  502  0.00000000000E+00  0.00000000000E+00  0.17276948590E+04  0.17276948590E+04  0.00000000000E+00 0.  1.
         21   -1    0    0  502  503 -0.00000000000E+00 -0.00000000000E+00 -0.19516871744E+02  0.19516871744E+02  0.00000000000E+00 0.  1.
          6    1    1    2  501    0  0.34198413220E+02  0.45059918193E+02  0.73850365658E+03  0.76060277312E+03  0.17300000000E+03 0.  1.
         -6    1    1    2    0  503 -0.34198413220E+02 -0.45059918193E+02  0.96967433064E+03  0.98660895759E+03  0.17300000000E+03 0.  1.
<mgrwt>
<rscale>  2 0.18201354E+03</rscale>
<asrwt>0</asrwt>
<pdfrwt beam="1">  1       21 0.26579909E+00 0.18201354E+03</pdfrwt>
<pdfrwt beam="2">  1       21 0.30025970E-02 0.18201354E+03</pdfrwt>
<totfact> 0.34288351E+04</totfact>
</mgrwt>
</event>
<event>
 4    2  0.4024741E+000  0.1760110E+03  0.7546771E-02  0.1171720E+00
         21   -1    0    0  501  502  0.00000000000E+00  0.00000000000E+00  0.25740537962E+02  0.25740537962E+02  0.00000000000E+00 0.  1.
         21   -1    0    0  502  503 -0.00000000000E+00 -0.00000000000E+00 -0.13313584844E+04  0.13313584844E+04  0.00000000000E+00 0.  1.
          6    1    1    2  501    0  0.27720374984E+02 -0.16806207158E+02 -0.44256467801E+03  0.47628075965E+03  0.17300000000E+03 0.  1.
         -6    1    1    2    0  503 -0.27720374984E+02  0.16806207158E+02 -0.86305326842E+03  0.88081826271E+03  0.17300000000E+03 0.  1.
<mgrwt>
<rscale>  2 0.17601099E+03</rscale>
<asrwt>0</asrwt>
<pdfrwt beam="1">  1       21 0.39600839E-02 0.17601099E+03</pdfrwt>
<pdfrwt beam="2">  1       21 0.20482432E+00 0.17601099E+03</pdfrwt>
<totfact> 0.50408995E+04</totfact>
</mgrwt>
</event>
<event>
 4    2  0.4024741E+000  0.2072569E+03  0.7546771E-02  0.1143757E+00
         21   -1    0    0  503  502  0.00000000000E+00  0.00000000000E+00  0.13248805252E+04  0.13248805252E+04  0.00000000000E+00 0.  1.
         21   -1    0    0  501  503 -0.00000000000E+00 -0.00000000000E+00 -0.41047443452E+02  0.41047443452E+02  0.00000000000E+00 0. -1.
          6    1    1    2  501    0  0.40084332817E+02 -0.10686292326E+03  0.95498721513E+03  0.97721851147E+03  0.17300000000E+03 0.  1.
         -6    1    1    2    0  502 -0.40084332817E+02  0.10686292326E+03  0.32884586658E+03  0.38870945714E+03  0.17300000000E+03 0. -1.
<mgrwt>
<rscale>  2 0.20725694E+03</rscale>
<asrwt>0</asrwt>
<pdfrwt beam="1">  1       21 0.20382774E+00 0.20725694E+03</pdfrwt>
<pdfrwt beam="2">  1       21 0.63149923E-02 0.20725694E+03</pdfrwt>
<totfact> 0.22676361E+04</totfact>
</mgrwt>
</event>
<event>
 4    2  0.4024741E+000  0.2010939E+03  0.7546771E-02  0.1148819E+00
         21   -1    0    0  501  502  0.00000000000E+00  0.00000000000E+00  0.27113562945E+03  0.27113562945E+03  0.00000000000E+00 0. -1.
         21   -1    0    0  502  503 -0.00000000000E+00 -0.00000000000E+00 -0.27331000299E+03  0.27331000299E+03  0.00000000000E+00 0.  1.
          6    1    1    2  501    0  0.79887037974E+00  0.10251402772E+03  0.18239538077E+03  0.27149003481E+03  0.17300000000E+03 0. -1.
         -6    1    1    2    0  503 -0.79887037974E+00 -0.10251402772E+03 -0.18456975431E+03  0.27295559763E+03  0.17300000000E+03 0.  1.
<mgrwt>
<rscale>  2 0.20109392E+03</rscale>
<asrwt>0</asrwt>
<pdfrwt beam="1">  1       21 0.41713173E-01 0.20109392E+03</pdfrwt>
<pdfrwt beam="2">  1       21 0.42047693E-01 0.20109392E+03</pdfrwt>
<totfact> 0.29978718E+04</totfact>
</mgrwt>
</event>
<event>
 4    2  0.4024741E+000  0.2387339E+03  0.7546771E-02  0.1120639E+00
         21   -1    0    0  501  502  0.00000000000E+00  0.00000000000E+00  0.43641779669E+03  0.43641779669E+03  0.00000000000E+00 0.  1.
         21   -1    0    0  502  503 -0.00000000000E+00 -0.00000000000E+00 -0.13064184207E+03  0.13064184207E+03  0.00000000000E+00 0.  1.
          6    1    1    2  501    0  0.11690262476E+03 -0.11575256657E+03  0.15827011082E+03  0.28643203089E+03  0.17300000000E+03 0.  1.
         -6    1    1    2    0  503 -0.11690262476E+03  0.11575256657E+03  0.14750584379E+03  0.28062760786E+03  0.17300000000E+03 0.  1.
<mgrwt>
<rscale>  2 0.23873391E+03</rscale>
<asrwt>0</asrwt>
<pdfrwt beam="1">  1       21 0.67141199E-01 0.23873391E+03</pdfrwt>
<pdfrwt beam="2">  1       21 0.20098745E-01 0.23873391E+03</pdfrwt>
<totfact> 0.45446564E+04</totfact>
</mgrwt>
</event>
<event>
 4    2  0.4024741E+000  0.2971010E+03  0.7546771E-02  0.1086699E+00
         21   -1    0    0  501  502  0.00000000000E+00  0.00000000000E+00  0.56781358013E+03  0.56781358013E+03  0.00000000000E+00 0.  1.
         21   -1    0    0  502  503 -0.00000000000E+00 -0.00000000000E+00 -0.17627428323E+03  0.17627428323E+03  0.00000000000E+00 0. -1.
          6    1    1    2  501    0  0.19338757259E+03 -0.14471092244E+03  0.32363150485E+03  0.43932488575E+03  0.17300000000E+03 0.  1.
         -6    1    1    2    0  503 -0.19338757259E+03  0.14471092244E+03  0.67907792049E+02  0.30476297762E+03  0.17300000000E+03 0. -1.
<mgrwt>
<rscale>  2 0.29710100E+03</rscale>
<asrwt>0</asrwt>
<pdfrwt beam="1">  1       21 0.87355935E-01 0.29710100E+03</pdfrwt>
<pdfrwt beam="2">  1       21 0.27119121E-01 0.29710100E+03</pdfrwt>
<totfact> 0.13782102E+04</totfact>
</mgrwt>
</event>
<event>
 4    2  0.4024741E+000  0.1759727E+03  0.7546771E-02  0.1171759E+00
         21   -1    0    0  501  502  0.00000000000E+00  0.00000000000E+00  0.48989465757E+03  0.48989465757E+03  0.00000000000E+00 0.  1.
         21   -1    0    0  502  503 -0.00000000000E+00 -0.00000000000E+00 -0.10190764040E+03  0.10190764040E+03  0.00000000000E+00 0.  1.
          6    1    1    2  501    0 -0.26605353762E+02 -0.18153020133E+02  0.37633435511E+03  0.41544424875E+03  0.17300000000E+03 0.  1.
         -6    1    1    2    0  503  0.26605353762E+02  0.18153020133E+02  0.11652662067E+02  0.17635804921E+03  0.17300000000E+03 0.  1.
<mgrwt>
<rscale>  2 0.17597266E+03</rscale>
<asrwt>0</asrwt>
<pdfrwt beam="1">  1       21 0.75368408E-01 0.17597266E+03</pdfrwt>
<pdfrwt beam="2">  1       21 0.15678099E-01 0.17597266E+03</pdfrwt>
<totfact> 0.57356030E+04</totfact>
</mgrwt>
</event>
<event>
 4    2  0.4024741E+000  0.2119471E+03  0.7546771E-02  0.1140033E+00
         21   -1    0    0  503  502  0.00000000000E+00  0.00000000000E+00  0.61447396689E+03  0.61447396689E+03  0.00000000000E+00 0. -1.
         21   -1    0    0  501  503 -0.00000000000E+00 -0.00000000000E+00 -0.35526285853E+03  0.35526285853E+03  0.00000000000E+00 0.  1.
          6    1    1    2  501    0 -0.12080324190E+03 -0.19979016450E+02 -0.30250461037E+03  0.36936516301E+03  0.17300000000E+03 0.  1.
         -6    1    1    2    0  502  0.12080324190E+03  0.19979016450E+02  0.56171571873E+03  0.60037166241E+03  0.17300000000E+03 0. -1.
<mgrwt>
<rscale>  2 0.21194713E+03</rscale>
<asrwt>0</asrwt>
<pdfrwt beam="1">  1       21 0.94534457E-01 0.21194713E+03</pdfrwt>
<pdfrwt beam="2">  1       21 0.54655824E-01 0.21194713E+03</pdfrwt>
<totfact> 0.29142890E+03</totfact>
</mgrwt>
</event>
<event>
 4    2  0.4024741E+000  0.1879127E+03  0.7546771E-02  0.1160358E+00
         21   -1    0    0  501  502  0.00000000000E+00  0.00000000000E+00  0.72384027022E+02  0.72384027022E+02  0.00000000000E+00 0. -1.
         21   -1    0    0  502  503 -0.00000000000E+00 -0.00000000000E+00 -0.88463577858E+03  0.88463577858E+03  0.00000000000E+00 0. -1.
          6    1    1    2  501    0  0.34553197714E+02 -0.64716716698E+02 -0.85648709512E+02  0.20651120631E+03  0.17300000000E+03 0. -1.
         -6    1    1    2    0  503 -0.34553197714E+02  0.64716716698E+02 -0.72660304204E+03  0.75050859928E+03  0.17300000000E+03 0. -1.
<mgrwt>
<rscale>  2 0.18791268E+03</rscale>
<asrwt>0</asrwt>
<pdfrwt beam="1">  1       21 0.11136004E-01 0.18791268E+03</pdfrwt>
<pdfrwt beam="2">  1       21 0.13609782E+00 0.18791268E+03</pdfrwt>
<totfact> 0.25878360E+04</totfact>
</mgrwt>
</event>
<event>
 4    2  0.4024741E+000  0.1819002E+03  0.7546771E-02  0.1165977E+00
         21   -1    0    0  501  502  0.00000000000E+00  0.00000000000E+00  0.20939513984E+03  0.20939513984E+03  0.00000000000E+00 0. -1.
         21   -1    0    0  502  503 -0.00000000000E+00 -0.00000000000E+00 -0.16503958224E+03  0.16503958224E+03  0.00000000000E+00 0.  1.
          6    1    1    2  501    0  0.57709280188E+01 -0.55905102846E+02  0.60800770285E+02  0.19179264272E+03  0.17300000000E+03 0. -1.
         -6    1    1    2    0  503 -0.57709280188E+01  0.55905102846E+02 -0.16445212685E+02  0.18264207936E+03  0.17300000000E+03 0.  1.
<mgrwt>
<rscale>  2 0.18190020E+03</rscale>
<asrwt>0</asrwt>
<pdfrwt beam="1">  1       21 0.32214637E-01 0.18190020E+03</pdfrwt>
<pdfrwt beam="2">  1       21 0.25390705E-01 0.18190020E+03</pdfrwt>
<totfact> 0.13679531E+05</totfact>
</mgrwt>
</event>
<event>
 4    2  0.4024741E+000  0.2364055E+03  0.7546771E-02  0.1122211E+00
         21   -1    0    0  503  502  0.00000000000E+00  0.00000000000E+00  0.65083965520E+03  0.65083965520E+03  0.00000000000E+00 0. -1.
         21   -1    0    0  501  503 -0.00000000000E+00 -0.00000000000E+00 -0.12404745521E+03  0.12404745521E+03  0.00000000000E+00 0. -1.
          6    1    1    2  501    0 -0.14311679664E+03 -0.74001083230E+02  0.48455625102E+02  0.24132037917E+03  0.17300000000E+03 0. -1.
         -6    1    1    2    0  502  0.14311679664E+03  0.74001083230E+02  0.47833657489E+03  0.53356673123E+03  0.17300000000E+03 0. -1.
<mgrwt>
<rscale>  2 0.23640554E+03</rscale>
<asrwt>0</asrwt>
<pdfrwt beam="1">  1       21 0.10012918E+00 0.23640554E+03</pdfrwt>
<pdfrwt beam="2">  1       21 0.19084224E-01 0.23640554E+03</pdfrwt>
<totfact> 0.20099555E+04</totfact>
</mgrwt>
</event>
<event>
 4    2  0.4024741E+000  0.1993697E+03  0.7546771E-02  0.1150272E+00
         21   -1    0    0  501  502  0.00000000000E+00  0.00000000000E+00  0.87787923323E+02  0.87787923323E+02  0.00000000000E+00 0. -1.
         21   -1    0    0  502  503 -0.00000000000E+00 -0.00000000000E+00 -0.90694345078E+03  0.90694345078E+03  0.00000000000E+00 0.  1.
          6    1    1    2  501    0  0.92842825843E+02  0.34633831371E+02 -0.57617554441E+02  0.20752849242E+03  0.17300000000E+03 0. -1.
         -6    1    1    2    0  503 -0.92842825843E+02 -0.34633831371E+02 -0.76153797302E+03  0.78720288169E+03  0.17300000000E+03 0.  1.
<mgrwt>
<rscale>  2 0.19936974E+03</rscale>
<asrwt>0</asrwt>
<pdfrwt beam="1">  1       21 0.13505835E-01 0.19936974E+03</pdfrwt>
<pdfrwt beam="2">  1       21 0.13952976E+00 0.19936974E+03</pdfrwt>
<totfact> 0.17048985E+04</totfact>
</mgrwt>
</event>
<event>
 4    2  0.4024741E+000  0.1839536E+03  0.7546771E-02  0.1164031E+00
         21   -1    0    0  503  502  0.00000000000E+00  0.00000000000E+00  0.86503309446E+02  0.86503309446E+02  0.00000000000E+00 0. -1.
         21   -1    0    0  501  503 -0.00000000000E+00 -0.00000000000E+00 -0.39158744822E+03  0.39158744822E+03  0.00000000000E+00 0. -1.
          6    1    1    2  501    0 -0.36496548062E+02 -0.50773207189E+02 -0.14489184074E+03  0.23416353709E+03  0.17300000000E+03 0. -1.
         -6    1    1    2    0  502  0.36496548062E+02  0.50773207189E+02 -0.16019229803E+03  0.24392722058E+03  0.17300000000E+03 0. -1.
<mgrwt>
<rscale>  2 0.18395357E+03</rscale>
<asrwt>0</asrwt>
<pdfrwt beam="1">  1       21 0.13308201E-01 0.18395357E+03</pdfrwt>
<pdfrwt beam="2">  1       21 0.60244224E-01 0.18395357E+03</pdfrwt>
<totfact> 0.12555365E+05</totfact>
</mgrwt>
</event>
<event>
 4    2  0.4024741E+000  0.2575643E+03  0.7546771E-02  0.1108616E+00
         21   -1    0    0  501  502  0.00000000000E+00  0.00000000000E+00  0.61663188962E+03  0.61663188962E+03  0.00000000000E+00 0. -1.
         21   -1    0    0  502  503 -0.00000000000E+00 -0.00000000000E+00 -0.20086452814E+03  0.20086452814E+03  0.00000000000E+00 0. -1.
          6    1    1    2  501    0 -0.14127812301E+03  0.12826092679E+03  0.48643233496E+03  0.55041419847E+03  0.17300000000E+03 0. -1.
         -6    1    1    2    0  503  0.14127812301E+03 -0.12826092679E+03 -0.70664973478E+02  0.26708221929E+03  0.17300000000E+03 0. -1.
<mgrwt>
<rscale>  2 0.25756431E+03</rscale>
<asrwt>0</asrwt>
<pdfrwt beam="1">  1       21 0.94866444E-01 0.25756431E+03</pdfrwt>
<pdfrwt beam="2">  1       21 0.30902235E-01 0.25756431E+03</pdfrwt>
<totfact> 0.89691680E+03</totfact>
</mgrwt>
</event>
<event>
 4    2  0.4024741E+000  0.2205394E+03  0.7546771E-02  0.1133482E+00
         21   -1    0    0  503  502  0.00000000000E+00  0.00000000000E+00  0.20038263322E+03  0.20038263322E+03  0.00000000000E+00 0. -1.
         21   -1    0    0  501  503 -0.00000000000E+00 -0.00000000000E+00 -0.31087883393E+03  0.31087883393E+03  0.00000000000E+00 0. -1.
          6    1    1    2  501    0  0.11413335465E+03 -0.75380352803E+02 -0.17494052929E+03  0.28149921673E+03  0.17300000000E+03 0. -1.
         -6    1    1    2    0  502 -0.11413335465E+03  0.75380352803E+02  0.64444328573E+02  0.22976225042E+03  0.17300000000E+03 0. -1.
<mgrwt>
<rscale>  2 0.22053938E+03</rscale>
<asrwt>0</asrwt>
<pdfrwt beam="1">  1       21 0.30828097E-01 0.22053938E+03</pdfrwt>
<pdfrwt beam="2">  1       21 0.47827513E-01 0.22053938E+03</pdfrwt>
<totfact> 0.41647972E+04</totfact>
</mgrwt>
</event>
<event>
 4    2  0.4024741E+000  0.3297898E+03  0.7546771E-02  0.1071230E+00
         21   -1    0    0  501  502  0.00000000000E+00  0.00000000000E+00  0.86488941710E+02  0.86488941710E+02  0.00000000000E+00 0.  1.
         21   -1    0    0  502  503 -0.00000000000E+00 -0.00000000000E+00 -0.12727334188E+04  0.12727334188E+04  0.00000000000E+00 0. -1.
          6    1    1    2  501    0  0.27847202536E+03 -0.35855477168E+02 -0.51881125211E+03  0.61475718741E+03  0.17300000000E+03 0.  1.
         -6    1    1    2    0  503 -0.27847202536E+03  0.35855477168E+02 -0.66743322493E+03  0.74446517305E+03  0.17300000000E+03 0. -1.
<mgrwt>
<rscale>  2 0.32978976E+03</rscale>
<asrwt>0</asrwt>
<pdfrwt beam="1">  1       21 0.13305993E-01 0.32978976E+03</pdfrwt>
<pdfrwt beam="2">  1       21 0.19580512E+00 0.32978976E+03</pdfrwt>
<totfact> 0.63453708E+03</totfact>
</mgrwt>
</event>
<event>
 4    2  0.4024741E+000  0.2561082E+03  0.7546771E-02  0.1109504E+00
         21   -1    0    0  503  502  0.00000000000E+00  0.00000000000E+00  0.68055359406E+02  0.68055359406E+02  0.00000000000E+00 0.  1.
         21   -1    0    0  501  503 -0.00000000000E+00 -0.00000000000E+00 -0.17724319197E+04  0.17724319197E+04  0.00000000000E+00 0. -1.
          6    1    1    2  501    0 -0.39224173866E+02 -0.18472645318E+03 -0.14737652176E+04  0.14958527050E+04  0.17300000000E+03 0. -1.
         -6    1    1    2    0  502  0.39224173866E+02  0.18472645318E+03 -0.23061134270E+03  0.34463457415E+03  0.17300000000E+03 0.  1.
<mgrwt>
<rscale>  2 0.25610818E+03</rscale>
<asrwt>0</asrwt>
<pdfrwt beam="1">  1       21 0.10470056E-01 0.25610818E+03</pdfrwt>
<pdfrwt beam="2">  1       21 0.27268182E+00 0.25610818E+03</pdfrwt>
<totfact> 0.34457308E+03</totfact>
</mgrwt>
</event>
<event>
 4    2  0.4024741E+000  0.1902357E+03  0.7546771E-02  0.1158249E+00
         21   -1    0    0  503  502  0.00000000000E+00  0.00000000000E+00  0.11094416102E+03  0.11094416102E+03  0.00000000000E+00 0. -1.
         21   -1    0    0  501  503 -0.00000000000E+00 -0.00000000000E+00 -0.32715968226E+03  0.32715968226E+03  0.00000000000E+00 0. -1.
          6    1    1    2  501    0  0.57804730301E+02  0.54029800006E+02 -0.11999286219E+03  0.22491752513E+03  0.17300000000E+03 0. -1.
         -6    1    1    2    0  502 -0.57804730301E+02 -0.54029800006E+02 -0.96222659054E+02  0.21318631816E+03  0.17300000000E+03 0. -1.
<mgrwt>
<rscale>  2 0.19023566E+03</rscale>
<asrwt>0</asrwt>
<pdfrwt beam="1">  1       21 0.17068333E-01 0.19023566E+03</pdfrwt>
<pdfrwt beam="2">  1       21 0.50332258E-01 0.19023566E+03</pdfrwt>
<totfact> 0.11648460E+05</totfact>
</mgrwt>
</event>
<event>
 4    2  0.4024741E+000  0.3334053E+03  0.7546771E-02  0.1069640E+00
         21   -1    0    0  501  502  0.00000000000E+00  0.00000000000E+00  0.10447874276E+03  0.10447874276E+03  0.00000000000E+00 0. -1.
         21   -1    0    0  502  503 -0.00000000000E+00 -0.00000000000E+00 -0.10658618828E+04  0.10658618828E+04  0.00000000000E+00 0.  1.
          6    1    1    2  501    0 -0.73213120792E+02  0.27544498673E+03 -0.45584262050E+03  0.56475799811E+03  0.17300000000E+03 0. -1.
         -6    1    1    2    0  503  0.73213120792E+02 -0.27544498673E+03 -0.50554051956E+03  0.60558262747E+03  0.17300000000E+03 0.  1.
<mgrwt>
<rscale>  2 0.33340531E+03</rscale>
<asrwt>0</asrwt>
<pdfrwt beam="1">  1       21 0.16073653E-01 0.33340531E+03</pdfrwt>
<pdfrwt beam="2">  1       21 0.16397875E+00 0.33340531E+03</pdfrwt>
<totfact> 0.74600498E+03</totfact>
</mgrwt>
</event>
<event>
 4    2  0.4024741E+000  0.2292405E+03  0.7546771E-02  0.1127175E+00
         21   -1    0    0  503  502  0.00000000000E+00  0.00000000000E+00  0.35822817628E+02  0.35822817628E+02  0.00000000000E+00 0.  1.
         21   -1    0    0  501  503 -0.00000000000E+00 -0.00000000000E+00 -0.17731660436E+04  0.17731660436E+04  0.00000000000E+00 0. -1.
          6    1    1    2  501    0  0.34292328831E+02  0.14644537466E+03 -0.12445321836E+04  0.12654689121E+04  0.17300000000E+03 0. -1.
         -6    1    1    2    0  502 -0.34292328831E+02 -0.14644537466E+03 -0.49281104238E+03  0.54351994909E+03  0.17300000000E+03 0. -1.
<mgrwt>
<rscale>  2 0.22924051E+03</rscale>
<asrwt>0</asrwt>
<pdfrwt beam="1">  1       21 0.55112028E-02 0.22924051E+03</pdfrwt>
<pdfrwt beam="2">  1       21 0.27279477E+00 0.22924051E+03</pdfrwt>
<totfact> 0.10788581E+04</totfact>
</mgrwt>
</event>
<event>
 4    2  0.4024741E+000  0.3151529E+03  0.7546771E-02  0.1077902E+00
         21   -1    0    0  503  502  0.00000000000E+00  0.00000000000E+00  0.25746022638E+03  0.25746022638E+03  0.00000000000E+00 0. -1.
         21   -1    0    0  501  503 -0.00000000000E+00 -0.00000000000E+00 -0.52422281728E+03  0.52422281728E+03  0.00000000000E+00 0.  1.
          6    1    1    2  501    0  0.17400091638E+02  0.26284895339E+03 -0.33423882996E+03  0.45938756072E+03  0.17300000000E+03 0. -1.
         -6    1    1    2    0  502 -0.17400091638E+02 -0.26284895339E+03  0.67476239066E+02  0.32229548295E+03  0.17300000000E+03 0.  1.
<mgrwt>
<rscale>  2 0.31515288E+03</rscale>
<asrwt>0</asrwt>
<pdfrwt beam="1">  1       21 0.39609266E-01 0.31515288E+03</pdfrwt>
<pdfrwt beam="2">  1       21 0.80649664E-01 0.31515288E+03</pdfrwt>
<totfact> 0.77325527E+03</totfact>
</mgrwt>
</event>
<event>
 4    2  0.4024741E+000  0.2193977E+03  0.7546771E-02  0.1134333E+00
         21   -1    0    0  501  502  0.00000000000E+00  0.00000000000E+00  0.34826093268E+02  0.34826093268E+02  0.00000000000E+00 0.  1.
         21   -1    0    0  502  503 -0.00000000000E+00 -0.00000000000E+00 -0.14493503586E+04  0.14493503586E+04  0.00000000000E+00 0.  1.
          6    1    1    2  501    0  0.12139984939E+03  0.58893395387E+02 -0.54748634319E+03  0.58981069118E+03  0.17300000000E+03 0.  1.
         -6    1    1    2    0  503 -0.12139984939E+03 -0.58893395387E+02 -0.86703792211E+03  0.89436576066E+03  0.17300000000E+03 0.  1.
<mgrwt>
<rscale>  2 0.21939771E+03</rscale>
<asrwt>0</asrwt>
<pdfrwt beam="1">  1       21 0.53578598E-02 0.21939771E+03</pdfrwt>
<pdfrwt beam="2">  1       21 0.22297701E+00 0.21939771E+03</pdfrwt>
<totfact> 0.22605785E+04</totfact>
</mgrwt>
</event>
<event>
 4    2  0.4024741E+000  0.1882424E+03  0.7546771E-02  0.1160056E+00
         21   -1    0    0  503  502  0.00000000000E+00  0.00000000000E+00  0.39946629641E+03  0.39946629641E+03  0.00000000000E+00 0. -1.
         21   -1    0    0  501  503 -0.00000000000E+00 -0.00000000000E+00 -0.89138810936E+02  0.89138810936E+02  0.00000000000E+00 0. -1.
          6    1    1    2  501    0 -0.19340976825E+02  0.71638778526E+02  0.13814687962E+03  0.23349464302E+03  0.17300000000E+03 0.  1.
         -6    1    1    2    0  502  0.19340976825E+02 -0.71638778526E+02  0.17218060586E+03  0.25511046432E+03  0.17300000000E+03 0.  1.
<mgrwt>
<rscale>  2 0.18824236E+03</rscale>
<asrwt>0</asrwt>
<pdfrwt beam="1">  1       21 0.61456352E-01 0.18824236E+03</pdfrwt>
<pdfrwt beam="2">  1       21 0.13713663E-01 0.18824236E+03</pdfrwt>
<totfact> 0.11377474E+05</totfact>
</mgrwt>
</event>
<event>
 4    2  0.4024741E+000  0.1829849E+03  0.7546771E-02  0.1164945E+00
         21   -1    0    0  503  502  0.00000000000E+00  0.00000000000E+00  0.10343886326E+04  0.10343886326E+04  0.00000000000E+00 0.  1.
         21   -1    0    0  501  503 -0.00000000000E+00 -0.00000000000E+00 -0.49310742835E+02  0.49310742835E+02  0.00000000000E+00 0.  1.
          6    1    1    2  501    0  0.59231675176E+02  0.67875960884E+01  0.17494623282E+03  0.25315933161E+03  0.17300000000E+03 0.  1.
         -6    1    1    2    0  502 -0.59231675176E+02 -0.67875960884E+01  0.81013165692E+03  0.83054004380E+03  0.17300000000E+03 0.  1.
<mgrwt>
<rscale>  2 0.18298487E+03</rscale>
<asrwt>0</asrwt>
<pdfrwt beam="1">  1       21 0.15913670E+00 0.18298487E+03</pdfrwt>
<pdfrwt beam="2">  1       21 0.75862689E-02 0.18298487E+03</pdfrwt>
<totfact> 0.33813754E+04</totfact>
</mgrwt>
</event>
<event>
 4    2  0.4024741E+000  0.1745663E+03  0.7546771E-02  0.1173168E+00
         21   -1    0    0  501  502  0.00000000000E+00  0.00000000000E+00  0.12061345139E+04  0.12061345139E+04  0.00000000000E+00 0. -1.
         21   -1    0    0  502  503 -0.00000000000E+00 -0.00000000000E+00 -0.27997278366E+02  0.27997278366E+02  0.00000000000E+00 0. -1.
          6    1    1    2  501    0  0.19055714785E+02 -0.13463291464E+02  0.78182567078E+03  0.80107724969E+03  0.17300000000E+03 0. -1.
         -6    1    1    2    0  503 -0.19055714785E+02  0.13463291464E+02  0.39631156471E+03  0.43305454253E+03  0.17300000000E+03 0. -1.
<mgrwt>
<rscale>  2 0.17456626E+03</rscale>
<asrwt>0</asrwt>
<pdfrwt beam="1">  1       21 0.18555912E+00 0.17456626E+03</pdfrwt>
<pdfrwt beam="2">  1       21 0.43072745E-02 0.17456626E+03</pdfrwt>
<totfact> 0.58408388E+04</totfact>
</mgrwt>
</event>
<event>
 4    2  0.4024741E+000  0.3370144E+03  0.7546771E-02  0.1068075E+00
         21   -1    0    0  503  502  0.00000000000E+00  0.00000000000E+00  0.79071188976E+03  0.79071188976E+03  0.00000000000E+00 0.  1.
         21   -1    0    0  501  503 -0.00000000000E+00 -0.00000000000E+00 -0.15334075559E+03  0.15334075559E+03  0.00000000000E+00 0. -1.
          6    1    1    2  501    0  0.16012387313E+03 -0.24085270404E+03  0.19996748469E+03  0.39187456504E+03  0.17300000000E+03 0.  1.
         -6    1    1    2    0  502 -0.16012387313E+03  0.24085270404E+03  0.43740364948E+03  0.55217808031E+03  0.17300000000E+03 0. -1.
<mgrwt>
<rscale>  2 0.33701436E+03</rscale>
<asrwt>0</asrwt>
<pdfrwt beam="1">  1       21 0.12164798E+00 0.33701436E+03</pdfrwt>
<pdfrwt beam="2">  1       21 0.23590886E-01 0.33701436E+03</pdfrwt>
<totfact> 0.79498827E+03</totfact>
</mgrwt>
</event>
<event>
 4    2  0.4024741E+000  0.1912481E+03  0.7546771E-02  0.1157340E+00
         21   -1    0    0  503  502  0.00000000000E+00  0.00000000000E+00  0.24969583782E+03  0.24969583782E+03  0.00000000000E+00 0.  1.
         21   -1    0    0  501  503 -0.00000000000E+00 -0.00000000000E+00 -0.25917922111E+03  0.25917922111E+03  0.00000000000E+00 0.  1.
          6    1    1    2  501    0 -0.81382344037E+02  0.48753121441E+01 -0.17252099495E+03  0.25756426050E+03  0.17300000000E+03 0.  1.
         -6    1    1    2    0  502  0.81382344037E+02 -0.48753121441E+01  0.16303761166E+03  0.25131079843E+03  0.17300000000E+03 0.  1.
<mgrwt>
<rscale>  2 0.19124815E+03</rscale>
<asrwt>0</asrwt>
<pdfrwt beam="1">  1       21 0.38414744E-01 0.19124815E+03</pdfrwt>
<pdfrwt beam="2">  1       21 0.39873726E-01 0.19124815E+03</pdfrwt>
<totfact> 0.39643414E+04</totfact>
</mgrwt>
</event>
<event>
 4    2  0.4024741E+000  0.2265664E+03  0.7546771E-02  0.1129080E+00
         21   -1    0    0  501  502  0.00000000000E+00  0.00000000000E+00  0.41386451559E+02  0.41386451559E+02  0.00000000000E+00 0.  1.
         21   -1    0    0  502  503 -0.00000000000E+00 -0.00000000000E+00 -0.13421855296E+04  0.13421855296E+04  0.00000000000E+00 0. -1.
          6    1    1    2  501    0 -0.94100346617E+02 -0.11201993230E+03 -0.45981642345E+03  0.51260460761E+03  0.17300000000E+03 0.  1.
         -6    1    1    2    0  503  0.94100346617E+02  0.11201993230E+03 -0.84098265459E+03  0.87096737355E+03  0.17300000000E+03 0. -1.
<mgrwt>
<rscale>  2 0.22656642E+03</rscale>
<asrwt>0</asrwt>
<pdfrwt beam="1">  1       21 0.63671463E-02 0.22656642E+03</pdfrwt>
<pdfrwt beam="2">  1       21 0.20649008E+00 0.22656642E+03</pdfrwt>
<totfact> 0.21210232E+04</totfact>
</mgrwt>
</event>
<event>
 4    2  0.4024741E+000  0.2018910E+03  0.7546771E-02  0.1148153E+00
         21   -1    0    0  501  502  0.00000000000E+00  0.00000000000E+00  0.41970691187E+02  0.41970691187E+02  0.00000000000E+00 0.  1.
         21   -1    0    0  502  503 -0.00000000000E+00 -0.00000000000E+00 -0.97767593341E+03  0.97767593341E+03  0.00000000000E+00 0.  1.
          6    1    1    2  501    0  0.13358045445E+02  0.10321120355E+03 -0.42621153205E+03  0.47161028400E+03  0.17300000000E+03 0.  1.
         -6    1    1    2    0  503 -0.13358045445E+02 -0.10321120355E+03 -0.50949371017E+03  0.54803634060E+03  0.17300000000E+03 0.  1.
<mgrwt>
<rscale>  2 0.20189103E+03</rscale>
<asrwt>0</asrwt>
<pdfrwt beam="1">  1       21 0.64570305E-02 0.20189103E+03</pdfrwt>
<pdfrwt beam="2">  1       21 0.15041166E+00 0.20189103E+03</pdfrwt>
<totfact> 0.51319907E+04</totfact>
</mgrwt>
</event>
<event>
 4    2  0.4024741E+000  0.2109225E+03  0.7546771E-02  0.1140838E+00
         21   -1    0    0  503  502  0.00000000000E+00  0.00000000000E+00  0.11701042665E+03  0.11701042665E+03  0.00000000000E+00 0.  1.
         21   -1    0    0  501  503 -0.00000000000E+00 -0.00000000000E+00 -0.62439162728E+03  0.62439162728E+03  0.00000000000E+00 0. -1.
          6    1    1    2  501    0 -0.18582121501E+01 -0.12064767564E+03 -0.48551194227E+03  0.52934880814E+03  0.17300000000E+03 0. -1.
         -6    1    1    2    0  502  0.18582121501E+01  0.12064767564E+03 -0.21869258355E+02  0.21205324579E+03  0.17300000000E+03 0.  1.
<mgrwt>
<rscale>  2 0.21092253E+03</rscale>
<asrwt>0</asrwt>
<pdfrwt beam="1">  1       21 0.18001604E-01 0.21092253E+03</pdfrwt>
<pdfrwt beam="2">  1       21 0.96060249E-01 0.21092253E+03</pdfrwt>
<totfact> 0.25066826E+04</totfact>
</mgrwt>
</event>
<event>
 4    2  0.4024741E+000  0.1977609E+03  0.7546771E-02  0.1151642E+00
         21   -1    0    0  501  502  0.00000000000E+00  0.00000000000E+00  0.37476835667E+03  0.37476835667E+03  0.00000000000E+00 0. -1.
         21   -1    0    0  502  503 -0.00000000000E+00 -0.00000000000E+00 -0.18918950035E+03  0.18918950035E+03  0.00000000000E+00 0. -1.
          6    1    1    2  501    0 -0.95477306502E+02 -0.80294811872E+01  0.28161091403E+03  0.34411349222E+03  0.17300000000E+03 0. -1.
         -6    1    1    2    0  503  0.95477306502E+02  0.80294811872E+01 -0.96032057715E+02  0.21984436480E+03  0.17300000000E+03 0. -1.
<mgrwt>
<rscale>  2 0.19776094E+03</rscale>
<asrwt>0</asrwt>
<pdfrwt beam="1">  1       21 0.57656670E-01 0.19776094E+03</pdfrwt>
<pdfrwt beam="2">  1       21 0.29106077E-01 0.19776094E+03</pdfrwt>
<totfact> 0.31804424E+04</totfact>
</mgrwt>
</event>
<event>
 4    2  0.4024741E+000  0.1830454E+03  0.7546771E-02  0.1164888E+00
         21   -1    0    0  503  502  0.00000000000E+00  0.00000000000E+00  0.75886096009E+03  0.75886096009E+03  0.00000000000E+00 0.  1.
         21   -1    0    0  501  503 -0.00000000000E+00 -0.00000000000E+00 -0.13742492859E+03  0.13742492859E+03  0.00000000000E+00 0.  1.
          6    1    1    2  501    0 -0.41742323806E+02  0.42827696848E+02 -0.58480860065E+02  0.19216046474E+03  0.17300000000E+03 0.  1.
         -6    1    1    2    0  502  0.41742323806E+02 -0.42827696848E+02  0.67991689157E+03  0.70412542395E+03  0.17300000000E+03 0.  1.
<mgrwt>
<rscale>  2 0.18304544E+03</rscale>
<asrwt>0</asrwt>
<pdfrwt beam="1">  1       21 0.11674784E+00 0.18304544E+03</pdfrwt>
<pdfrwt beam="2">  1       21 0.21142297E-01 0.18304544E+03</pdfrwt>
<totfact> 0.11834102E+04</totfact>
</mgrwt>
</event>
<event>
 4    2  0.4024741E+000  0.2101833E+03  0.7546771E-02  0.1141421E+00
         21   -1    0    0  501  502  0.00000000000E+00  0.00000000000E+00  0.56976143239E+02  0.56976143239E+02  0.00000000000E+00 0.  1.
         21   -1    0    0  502  503 -0.00000000000E+00 -0.00000000000E+00 -0.81128904667E+03  0.81128904667E+03  0.00000000000E+00 0.  1.
          6    1    1    2  501    0  0.41822393935E+02 -0.11179852436E+03 -0.46851672862E+03  0.51350262675E+03  0.17300000000E+03 0. -1.
         -6    1    1    2    0  503 -0.41822393935E+02  0.11179852436E+03 -0.28579617481E+03  0.35476256316E+03  0.17300000000E+03 0. -1.
<mgrwt>
<rscale>  2 0.21018331E+03</rscale>
<asrwt>0</asrwt>
<pdfrwt beam="1">  1       21 0.87655603E-02 0.21018331E+03</pdfrwt>
<pdfrwt beam="2">  1       21 0.12481370E+00 0.21018331E+03</pdfrwt>
<totfact> 0.48528781E+04</totfact>
</mgrwt>
</event>
<event>
 4    2  0.4024741E+000  0.2020739E+03  0.7546771E-02  0.1148001E+00
         21   -1    0    0  503  502  0.00000000000E+00  0.00000000000E+00  0.76148468553E+03  0.76148468553E+03  0.00000000000E+00 0.  1.
         21   -1    0    0  501  503 -0.00000000000E+00 -0.00000000000E+00 -0.55353639554E+02  0.55353639554E+02  0.00000000000E+00 0. -1.
          6    1    1    2  501    0 -0.97497633630E+02 -0.37404223144E+02  0.28087017311E+03  0.34600855281E+03  0.17300000000E+03 0.  1.
         -6    1    1    2    0  502  0.97497633630E+02  0.37404223144E+02  0.42526087286E+03  0.47082977227E+03  0.17300000000E+03 0.  1.
<mgrwt>
<rscale>  2 0.20207391E+03</rscale>
<asrwt>0</asrwt>
<pdfrwt beam="1">  1       21 0.11715148E+00 0.20207391E+03</pdfrwt>
<pdfrwt beam="2">  1       21 0.85159451E-02 0.20207391E+03</pdfrwt>
<totfact> 0.60007037E+04</totfact>
</mgrwt>
</event>
<event>
 4    2  0.4024741E+000  0.2111615E+03  0.7546771E-02  0.1140650E+00
         21   -1    0    0  501  502  0.00000000000E+00  0.00000000000E+00  0.35056428777E+03  0.35056428777E+03  0.00000000000E+00 0.  1.
         21   -1    0    0  502  503 -0.00000000000E+00 -0.00000000000E+00 -0.24174776031E+03  0.24174776031E+03  0.00000000000E+00 0. -1.
          6    1    1    2  501    0 -0.96486610529E+02  0.73147177551E+02  0.25827516008E+03  0.33360940321E+03  0.17300000000E+03 0.  1.
         -6    1    1    2    0  503  0.96486610529E+02 -0.73147177551E+02 -0.14945863262E+03  0.25870264487E+03  0.17300000000E+03 0. -1.
<mgrwt>
<rscale>  2 0.21116149E+03</rscale>
<asrwt>0</asrwt>
<pdfrwt beam="1">  1       21 0.53932967E-01 0.21116149E+03</pdfrwt>
<pdfrwt beam="2">  1       21 0.37191963E-01 0.21116149E+03</pdfrwt>
<totfact> 0.22425128E+04</totfact>
</mgrwt>
</event>
<event>
 4    2  0.4024741E+000  0.1912293E+03  0.7546771E-02  0.1157357E+00
         21   -1    0    0  503  502  0.00000000000E+00  0.00000000000E+00  0.75135117668E+03  0.75135117668E+03  0.00000000000E+00 0. -1.
         21   -1    0    0  501  503 -0.00000000000E+00 -0.00000000000E+00 -0.87929162002E+02  0.87929162002E+02  0.00000000000E+00 0.  1.
          6    1    1    2  501    0  0.18329371467E+02 -0.79395752785E+02  0.51310864404E+02  0.19799357622E+03  0.17300000000E+03 0.  1.
         -6    1    1    2    0  502 -0.18329371467E+02  0.79395752785E+02  0.61211115028E+03  0.64128676246E+03  0.17300000000E+03 0. -1.
<mgrwt>
<rscale>  2 0.19122932E+03</rscale>
<asrwt>0</asrwt>
<pdfrwt beam="1">  1       21 0.11559248E+00 0.19122932E+03</pdfrwt>
<pdfrwt beam="2">  1       21 0.13527564E-01 0.19122932E+03</pdfrwt>
<totfact> 0.27415521E+04</totfact>
</mgrwt>
</event>
<event>
 4    2  0.4024741E+000  0.1769263E+03  0.7546771E-02  0.1170811E+00
         21   -1    0    0  501  502  0.00000000000E+00  0.00000000000E+00  0.77677156836E+02  0.77677156836E+02  0.00000000000E+00 0. -1.
         21   -1    0    0  502  503 -0.00000000000E+00 -0.00000000000E+00 -0.91080555158E+03  0.91080555158E+03  0.00000000000E+00 0. -1.
          6    1    1    2  501    0 -0.75774419828E+01 -0.36283647412E+02 -0.47518345812E+02  0.18319638066E+03  0.17300000000E+03 0. -1.
         -6    1    1    2    0  503  0.75774419828E+01  0.36283647412E+02 -0.78561004893E+03  0.80528632776E+03  0.17300000000E+03 0. -1.
<mgrwt>
<rscale>  2 0.17692631E+03</rscale>
<asrwt>0</asrwt>
<pdfrwt beam="1">  1       21 0.11950332E-01 0.17692631E+03</pdfrwt>
<pdfrwt beam="2">  1       21 0.14012393E+00 0.17692631E+03</pdfrwt>
<totfact> 0.21326161E+04</totfact>
</mgrwt>
</event>
<event>
 4    2  0.4024741E+000  0.2046966E+03  0.7546771E-02  0.1145836E+00
         21   -1    0    0  503  502  0.00000000000E+00  0.00000000000E+00  0.19218180573E+03  0.19218180573E+03  0.00000000000E+00 0. -1.
         21   -1    0    0  501  503 -0.00000000000E+00 -0.00000000000E+00 -0.22354205525E+03  0.22354205525E+03  0.00000000000E+00 0. -1.
          6    1    1    2  501    0  0.99833773763E+02 -0.44776199940E+02  0.16970938744E+02  0.20539888809E+03  0.17300000000E+03 0. -1.
         -6    1    1    2    0  502 -0.99833773763E+02  0.44776199940E+02 -0.48331188255E+02  0.21032497289E+03  0.17300000000E+03 0. -1.
<mgrwt>
<rscale>  2 0.20469658E+03</rscale>
<asrwt>0</asrwt>
<pdfrwt beam="1">  1       21 0.29566432E-01 0.20469658E+03</pdfrwt>
<pdfrwt beam="2">  1       21 0.34391085E-01 0.20469658E+03</pdfrwt>
<totfact> 0.88877132E+04</totfact>
</mgrwt>
</event>
<event>
 4    2  0.4024741E+000  0.2575027E+03  0.7546771E-02  0.1108653E+00
         21   -1    0    0  503  502  0.00000000000E+00  0.00000000000E+00  0.32522998810E+03  0.32522998810E+03  0.00000000000E+00 0.  1.
         21   -1    0    0  501  503 -0.00000000000E+00 -0.00000000000E+00 -0.20395677940E+03  0.20395677940E+03  0.00000000000E+00 0.  1.
          6    1    1    2  501    0 -0.71200940642E+02  0.17694366052E+03  0.65796678318E+02  0.26577591280E+03  0.17300000000E+03 0.  1.
         -6    1    1    2    0  502  0.71200940642E+02 -0.17694366052E+03  0.55476530384E+02  0.26341085470E+03  0.17300000000E+03 0.  1.
<mgrwt>
<rscale>  2 0.25750269E+03</rscale>
<asrwt>0</asrwt>
<pdfrwt beam="1">  1       21 0.50035383E-01 0.25750269E+03</pdfrwt>
<pdfrwt beam="2">  1       21 0.31377966E-01 0.25750269E+03</pdfrwt>
<totfact> 0.36016679E+04</totfact>
</mgrwt>
</event>
<event>
 4    2  0.4024741E+000  0.2535522E+03  0.7546771E-02  0.1111080E+00
         21   -1    0    0  503  502  0.00000000000E+00  0.00000000000E+00  0.79375427258E+03  0.79375427258E+03  0.00000000000E+00 0. -1.
         21   -1    0    0  501  503 -0.00000000000E+00 -0.00000000000E+00 -0.85489713677E+02  0.85489713677E+02  0.00000000000E+00 0.  1.
          6    1    1    2  501    0  0.11758973242E+03  0.14329129153E+03  0.45495489362E+03  0.52083845349E+03  0.17300000000E+03 0.  1.
         -6    1    1    2    0  502 -0.11758973242E+03 -0.14329129153E+03  0.25330966528E+03  0.35840553277E+03  0.17300000000E+03 0. -1.
<mgrwt>
<rscale>  2 0.25355224E+03</rscale>
<asrwt>0</asrwt>
<pdfrwt beam="1">  1       21 0.12211604E+00 0.25355224E+03</pdfrwt>
<pdfrwt beam="2">  1       21 0.13152264E-01 0.25355224E+03</pdfrwt>
<totfact> 0.24330681E+04</totfact>
</mgrwt>
</event>
<event>
 4    2  0.4024741E+000  0.2371872E+03  0.7546771E-02  0.1121681E+00
         21   -1    0    0  501  502  0.00000000000E+00  0.00000000000E+00  0.38688682463E+03  0.38688682463E+03  0.00000000000E+00 0. -1.
         21   -1    0    0  502  503 -0.00000000000E+00 -0.00000000000E+00 -0.35203768000E+03  0.35203768000E+03  0.00000000000E+00 0. -1.
          6    1    1    2  501    0  0.54662421582E+02 -0.15277695150E+03  0.30047786799E+03  0.38281160692E+03  0.17300000000E+03 0. -1.
         -6    1    1    2    0  503 -0.54662421582E+02  0.15277695150E+03 -0.26562872336E+03  0.35611289771E+03  0.17300000000E+03 0. -1.
<mgrwt>
<rscale>  2 0.23718722E+03</rscale>
<asrwt>0</asrwt>
<pdfrwt beam="1">  1       21 0.59521050E-01 0.23718722E+03</pdfrwt>
<pdfrwt beam="2">  1       21 0.54159643E-01 0.23718722E+03</pdfrwt>
<totfact> 0.82470144E+03</totfact>
</mgrwt>
</event>
<event>
 4    2  0.4024741E+000  0.2324100E+03  0.7546771E-02  0.1124955E+00
         21   -1    0    0  503  502  0.00000000000E+00  0.00000000000E+00  0.13794225331E+03  0.13794225331E+03  0.00000000000E+00 0. -1.
         21   -1    0    0  501  503 -0.00000000000E+00 -0.00000000000E+00 -0.59003640643E+03  0.59003640643E+03  0.00000000000E+00 0. -1.
          6    1    1    2  501    0 -0.13636323172E+03  0.74097863911E+02 -0.43714782187E+03  0.49508851993E+03  0.17300000000E+03 0. -1.
         -6    1    1    2    0  502  0.13636323172E+03 -0.74097863911E+02 -0.14946331246E+02  0.23289013981E+03  0.17300000000E+03 0. -1.
<mgrwt>
<rscale>  2 0.23241004E+03</rscale>
<asrwt>0</asrwt>
<pdfrwt beam="1">  1       21 0.21221885E-01 0.23241004E+03</pdfrwt>
<pdfrwt beam="2">  1       21 0.90774831E-01 0.23241004E+03</pdfrwt>
<totfact> 0.20792217E+04</totfact>
</mgrwt>
</event>
<event>
 4    2  0.4024741E+000  0.2132200E+03  0.7546771E-02  0.1139041E+00
         21   -1    0    0  501  502  0.00000000000E+00  0.00000000000E+00  0.21349021605E+03  0.21349021605E+03  0.00000000000E+00 0.  1.
         21   -1    0    0  502  503 -0.00000000000E+00 -0.00000000000E+00 -0.38649222730E+03  0.38649222730E+03  0.00000000000E+00 0.  1.
          6    1    1    2  501    0 -0.11707152019E+03 -0.42755623046E+02  0.11451956345E+03  0.24202792102E+03  0.17300000000E+03 0.  1.
         -6    1    1    2    0  503  0.11707152019E+03  0.42755623046E+02 -0.28752157470E+03  0.35795452233E+03  0.17300000000E+03 0.  1.
<mgrwt>
<rscale>  2 0.21322004E+03</rscale>
<asrwt>0</asrwt>
<pdfrwt beam="1">  1       21 0.32844649E-01 0.21322004E+03</pdfrwt>
<pdfrwt beam="2">  1       21 0.59460342E-01 0.21322004E+03</pdfrwt>
<totfact> 0.23297832E+04</totfact>
</mgrwt>
</event>
<event>
 4    2  0.4024741E+000  0.1852399E+03  0.7546771E-02  0.1162826E+00
         21   -1    0    0  501  502  0.00000000000E+00  0.00000000000E+00  0.92173128589E+02  0.92173128589E+02  0.00000000000E+00 0. -1.
         21   -1    0    0  502  503 -0.00000000000E+00 -0.00000000000E+00 -0.43805159430E+03  0.43805159430E+03  0.00000000000E+00 0.  1.
          6    1    1    2  501    0  0.61759477973E+02  0.23886914131E+02 -0.70208434992E+02  0.19809856670E+03  0.17300000000E+03 0. -1.
         -6    1    1    2    0  503 -0.61759477973E+02 -0.23886914131E+02 -0.27567003072E+03  0.33212615619E+03  0.17300000000E+03 0.  1.
<mgrwt>
<rscale>  2 0.18523989E+03</rscale>
<asrwt>0</asrwt>
<pdfrwt beam="1">  1       21 0.14180482E-01 0.18523989E+03</pdfrwt>
<pdfrwt beam="2">  1       21 0.67392551E-01 0.18523989E+03</pdfrwt>
<totfact> 0.87761605E+04</totfact>
</mgrwt>
</event>
<event>
 4    2  0.4024741E+000  0.2610341E+03  0.7546771E-02  0.1106524E+00
         21   -1    0    0  503  502  0.00000000000E+00  0.00000000000E+00  0.82127011995E+02  0.82127011995E+02  0.00000000000E+00 0. -1.
         21   -1    0    0  501  503 -0.00000000000E+00 -0.00000000000E+00 -0.83905165367E+03  0.83905165367E+03  0.00000000000E+00 0.  1.
          6    1    1    2  501    0  0.17633622843E+03 -0.84352484414E+02 -0.32977438594E+03  0.42058287258E+03  0.17300000000E+03 0. -1.
         -6    1    1    2    0  502 -0.17633622843E+03  0.84352484414E+02 -0.42715025574E+03  0.50059579309E+03  0.17300000000E+03 0.  1.
<mgrwt>
<rscale>  2 0.26103411E+03</rscale>
<asrwt>0</asrwt>
<pdfrwt beam="1">  1       21 0.12634925E-01 0.26103411E+03</pdfrwt>
<pdfrwt beam="2">  1       21 0.12908487E+00 0.26103411E+03</pdfrwt>
<totfact> 0.22655201E+04</totfact>
</mgrwt>
</event>
<event>
 4    2  0.4024741E+000  0.3210498E+03  0.7546771E-02  0.1075167E+00
         21   -1    0    0  503  502  0.00000000000E+00  0.00000000000E+00  0.20702925487E+03  0.20702925487E+03  0.00000000000E+00 0.  1.
         21   -1    0    0  501  503 -0.00000000000E+00 -0.00000000000E+00 -0.10001812045E+04  0.10001812045E+04  0.00000000000E+00 0.  1.
          6    1    1    2  501    0 -0.87223147509E+02 -0.25600017315E+03 -0.82433730435E+03  0.88464962412E+03  0.17300000000E+03 0.  1.
         -6    1    1    2    0  502  0.87223147509E+02  0.25600017315E+03  0.31185354685E+02  0.32256083528E+03  0.17300000000E+03 0.  1.
<mgrwt>
<rscale>  2 0.32104979E+03</rscale>
<asrwt>0</asrwt>
<pdfrwt beam="1">  1       21 0.31850655E-01 0.32104979E+03</pdfrwt>
<pdfrwt beam="2">  1       21 0.15387403E+00 0.32104979E+03</pdfrwt>
<totfact> 0.24125388E+03</totfact>
</mgrwt>
</event>
<event>
 4    2  0.4024741E+000  0.1970211E+03  0.7546771E-02  0.1152277E+00
         21   -1    0    0  501  502  0.00000000000E+00  0.00000000000E+00  0.61090283901E+03  0.61090283901E+03  0.00000000000E+00 0.  1.
         21   -1    0    0  502  503 -0.00000000000E+00 -0.00000000000E+00 -0.63774882835E+02  0.63774882835E+02  0.00000000000E+00 0.  1.
          6    1    1    2  501    0 -0.46023850914E+02 -0.82280697582E+02  0.29399762702E+03  0.35390946970E+03  0.17300000000E+03 0.  1.
         -6    1    1    2    0  503  0.46023850914E+02  0.82280697582E+02  0.25313032916E+03  0.32076825215E+03  0.17300000000E+03 0.  1.
<mgrwt>
<rscale>  2 0.19702109E+03</rscale>
<asrwt>0</asrwt>
<pdfrwt beam="1">  1       21 0.93985048E-01 0.19702109E+03</pdfrwt>
<pdfrwt beam="2">  1       21 0.98115209E-02 0.19702109E+03</pdfrwt>
<totfact> 0.79556989E+04</totfact>
</mgrwt>
</event>
<event>
 4    2  0.4024741E+000  0.2119035E+03  0.7546771E-02  0.1140067E+00
         21   -1    0    0  501  502  0.00000000000E+00  0.00000000000E+00  0.28755825889E+03  0.28755825889E+03  0.00000000000E+00 0. -1.
         21   -1    0    0  502  503 -0.00000000000E+00 -0.00000000000E+00 -0.15750690098E+03  0.15750690098E+03  0.00000000000E+00 0. -1.
          6    1    1    2  501    0 -0.11332394866E+03  0.46171078407E+02  0.85657458628E+02  0.22856133978E+03  0.17300000000E+03 0. -1.
         -6    1    1    2    0  503  0.11332394866E+03 -0.46171078407E+02  0.44393899288E+02  0.21650382009E+03  0.17300000000E+03 0. -1.
<mgrwt>
<rscale>  2 0.21190348E+03</rscale>
<asrwt>0</asrwt>
<pdfrwt beam="1">  1       21 0.44239732E-01 0.21190348E+03</pdfrwt>
<pdfrwt beam="2">  1       21 0.24231831E-01 0.21190348E+03</pdfrwt>
<totfact> 0.78236171E+04</totfact>
</mgrwt>
</event>
<event>
 4    2  0.4024741E+000  0.3084155E+03  0.7546771E-02  0.1081108E+00
         21   -1    0    0  503  502  0.00000000000E+00  0.00000000000E+00  0.67656250260E+03  0.67656250260E+03  0.00000000000E+00 0. -1.
         21   -1    0    0  501  503 -0.00000000000E+00 -0.00000000000E+00 -0.34233978534E+03  0.34233978534E+03  0.00000000000E+00 0. -1.
          6    1    1    2  501    0 -0.16321999322E+02 -0.25480328148E+03 -0.22397881052E+03  0.38116482980E+03  0.17300000000E+03 0. -1.
         -6    1    1    2    0  502  0.16321999322E+02  0.25480328148E+03  0.55820152778E+03  0.63773745815E+03  0.17300000000E+03 0. -1.
<mgrwt>
<rscale>  2 0.30841550E+03</rscale>
<asrwt>0</asrwt>
<pdfrwt beam="1">  1       21 0.10408654E+00 0.30841550E+03</pdfrwt>
<pdfrwt beam="2">  1       21 0.52667660E-01 0.30841550E+03</pdfrwt>
<totfact> 0.23489722E+03</totfact>
</mgrwt>
</event>
<event>
 4    2  0.4024741E+000  0.1741566E+03  0.7546771E-02  0.1173581E+00
         21   -1    0    0  503  502  0.00000000000E+00  0.00000000000E+00  0.18819170011E+04  0.18819170011E+04  0.00000000000E+00 0. -1.
         21   -1    0    0  501  503 -0.00000000000E+00 -0.00000000000E+00 -0.18604259730E+02  0.18604259730E+02  0.00000000000E+00 0. -1.
          6    1    1    2  501    0  0.96431882672E+01  0.17565010412E+02  0.58419007937E+03  0.60959705504E+03  0.17300000000E+03 0. -1.
         -6    1    1    2    0  502 -0.96431882672E+01 -0.17565010412E+02  0.12791226620E+04  0.12909242058E+04  0.17300000000E+03 0. -1.
<mgrwt>
<rscale>  2 0.17415660E+03</rscale>
<asrwt>0</asrwt>
<pdfrwt beam="1">  1       21 0.28952554E+00 0.17415660E+03</pdfrwt>
<pdfrwt beam="2">  1       21 0.28621953E-02 0.17415660E+03</pdfrwt>
<totfact> 0.27310093E+04</totfact>
</mgrwt>
</event>
<event>
 4    2  0.4024741E+000  0.1762627E+03  0.7546771E-02  0.1171470E+00
         21   -1    0    0  503  502  0.00000000000E+00  0.00000000000E+00  0.46585942418E+03  0.46585942418E+03  0.00000000000E+00 0.  1.
         21   -1    0    0  501  503 -0.00000000000E+00 -0.00000000000E+00 -0.83259574694E+02  0.83259574694E+02  0.00000000000E+00 0.  1.
          6    1    1    2  501    0 -0.18016874118E+02 -0.28547298014E+02  0.68820239405E+02  0.18922151392E+03  0.17300000000E+03 0.  1.
         -6    1    1    2    0  502  0.18016874118E+02  0.28547298014E+02  0.31377961009E+03  0.35989748496E+03  0.17300000000E+03 0.  1.
<mgrwt>
<rscale>  2 0.17626275E+03</rscale>
<asrwt>0</asrwt>
<pdfrwt beam="1">  1       21 0.71670679E-01 0.17626275E+03</pdfrwt>
<pdfrwt beam="2">  1       21 0.12809166E-01 0.17626275E+03</pdfrwt>
<totfact> 0.92419836E+04</totfact>
</mgrwt>
</event>
<event>
 4    2  0.4024741E+000  0.3518537E+03  0.7546771E-02  0.1061857E+00
         21   -1    0    0  501  502  0.00000000000E+00  0.00000000000E+00  0.12261707882E+03  0.12261707882E+03  0.00000000000E+00 0. -1.
         21   -1    0    0  502  503 -0.00000000000E+00 -0.00000000000E+00 -0.11492487016E+04  0.11492487016E+04  0.00000000000E+00 0. -1.
          6    1    1    2  501    0 -0.86123693563E+01 -0.30626431059E+03 -0.29168175181E+03  0.45703308982E+03  0.17300000000E+03 0. -1.
         -6    1    1    2    0  503  0.86123693563E+01  0.30626431059E+03 -0.73494987098E+03  0.81483269062E+03  0.17300000000E+03 0. -1.
<mgrwt>
<rscale>  2 0.35185366E+03</rscale>
<asrwt>0</asrwt>
<pdfrwt beam="1">  1       21 0.18864165E-01 0.35185366E+03</pdfrwt>
<pdfrwt beam="2">  1       21 0.17680750E+00 0.35185366E+03</pdfrwt>
<totfact> 0.44331056E+03</totfact>
</mgrwt>
</event>
<event>
 4    2  0.4024741E+000  0.1883601E+03  0.7546771E-02  0.1159949E+00
         21   -1    0    0  501  502  0.00000000000E+00  0.00000000000E+00  0.36981463709E+02  0.36981463709E+02  0.00000000000E+00 0. -1.
         21   -1    0    0  502  503 -0.00000000000E+00 -0.00000000000E+00 -0.14162692432E+04  0.14162692432E+04  0.00000000000E+00 0.  1.
          6    1    1    2  501    0  0.74260325340E+02 -0.59950608049E+01 -0.27693886141E+03  0.33492487162E+03  0.17300000000E+03 0. -1.
         -6    1    1    2    0  503 -0.74260325340E+02  0.59950608049E+01 -0.11023489181E+04  0.11183258353E+04  0.17300000000E+03 0.  1.
<mgrwt>
<rscale>  2 0.18836012E+03</rscale>
<asrwt>0</asrwt>
<pdfrwt beam="1">  1       21 0.56894568E-02 0.18836012E+03</pdfrwt>
<pdfrwt beam="2">  1       21 0.21788754E+00 0.18836012E+03</pdfrwt>
<totfact> 0.22457230E+04</totfact>
</mgrwt>
</event>
<event>
 4    2  0.4024741E+000  0.2140369E+03  0.7546771E-02  0.1138408E+00
         21   -1    0    0  503  502  0.00000000000E+00  0.00000000000E+00  0.91057901108E+02  0.91057901108E+02  0.00000000000E+00 0. -1.
         21   -1    0    0  501  503 -0.00000000000E+00 -0.00000000000E+00 -0.51126149733E+03  0.51126149733E+03  0.00000000000E+00 0. -1.
          6    1    1    2  501    0  0.61728725391E+01 -0.12587576037E+03 -0.17206619571E+03  0.27462444740E+03  0.17300000000E+03 0. -1.
         -6    1    1    2    0  502 -0.61728725391E+01  0.12587576037E+03 -0.24813740051E+03  0.32769495104E+03  0.17300000000E+03 0. -1.
<mgrwt>
<rscale>  2 0.21403694E+03</rscale>
<asrwt>0</asrwt>
<pdfrwt beam="1">  1       21 0.14008907E-01 0.21403694E+03</pdfrwt>
<pdfrwt beam="2">  1       21 0.78655617E-01 0.21403694E+03</pdfrwt>
<totfact> 0.62837949E+04</totfact>
</mgrwt>
</event>
<event>
 4    2  0.4024741E+000  0.1946432E+03  0.7546771E-02  0.1154339E+00
         21   -1    0    0  503  502  0.00000000000E+00  0.00000000000E+00  0.28875727609E+03  0.28875727609E+03  0.00000000000E+00 0. -1.
         21   -1    0    0  501  503 -0.00000000000E+00 -0.00000000000E+00 -0.15221848298E+03  0.15221848298E+03  0.00000000000E+00 0. -1.
          6    1    1    2  501    0  0.88162309490E+02 -0.13578817404E+02 -0.13655353365E+02  0.19512161790E+03  0.17300000000E+03 0. -1.
         -6    1    1    2    0  502 -0.88162309490E+02  0.13578817404E+02  0.15019414647E+03  0.24585414117E+03  0.17300000000E+03 0. -1.
<mgrwt>
<rscale>  2 0.19464320E+03</rscale>
<asrwt>0</asrwt>
<pdfrwt beam="1">  1       21 0.44424196E-01 0.19464320E+03</pdfrwt>
<pdfrwt beam="2">  1       21 0.23418228E-01 0.19464320E+03</pdfrwt>
<totfact> 0.83390643E+04</totfact>
</mgrwt>
</event>
<event>
 4    2  0.4024741E+000  0.1896463E+03  0.7546771E-02  0.1158781E+00
         21   -1    0    0  501  502  0.00000000000E+00  0.00000000000E+00  0.11512273275E+04  0.11512273275E+04  0.00000000000E+00 0.  1.
         21   -1    0    0  502  503 -0.00000000000E+00 -0.00000000000E+00 -0.11054495507E+03  0.11054495507E+03  0.00000000000E+00 0.  1.
          6    1    1    2  501    0  0.53958115944E+02  0.55903704465E+02  0.10546944284E+04  0.10716090891E+04  0.17300000000E+03 0.  1.
         -6    1    1    2    0  503 -0.53958115944E+02 -0.55903704465E+02 -0.14012055991E+02  0.19016319350E+03  0.17300000000E+03 0.  1.
<mgrwt>
<rscale>  2 0.18964626E+03</rscale>
<asrwt>0</asrwt>
<pdfrwt beam="1">  1       21 0.17711189E+00 0.18964626E+03</pdfrwt>
<pdfrwt beam="2">  1       21 0.17006917E-01 0.18964626E+03</pdfrwt>
<totfact> 0.59518937E+03</totfact>
</mgrwt>
</event>
<event>
 4    2  0.4024741E+000  0.1793922E+03  0.7546771E-02  0.1168393E+00
         21   -1    0    0  503  502  0.00000000000E+00  0.00000000000E+00  0.88765890551E+02  0.88765890551E+02  0.00000000000E+00 0. -1.
         21   -1    0    0  501  503 -0.00000000000E+00 -0.00000000000E+00 -0.39640714561E+03  0.39640714561E+03  0.00000000000E+00 0. -1.
          6    1    1    2  501    0  0.19944020659E+02 -0.43067547382E+02 -0.82918881437E+02  0.19762873904E+03  0.17300000000E+03 0. -1.
         -6    1    1    2    0  502 -0.19944020659E+02  0.43067547382E+02 -0.22472237362E+03  0.28754429711E+03  0.17300000000E+03 0. -1.
<mgrwt>
<rscale>  2 0.17939225E+03</rscale>
<asrwt>0</asrwt>
<pdfrwt beam="1">  1       21 0.13656291E-01 0.17939225E+03</pdfrwt>
<pdfrwt beam="2">  1       21 0.60985715E-01 0.17939225E+03</pdfrwt>
<totfact> 0.11692768E+05</totfact>
</mgrwt>
</event>
<event>
 4    2  0.4024741E+000  0.1733034E+03  0.7546771E-02  0.1174446E+00
         21   -1    0    0  501  502  0.00000000000E+00  0.00000000000E+00  0.32732342462E+03  0.32732342462E+03  0.00000000000E+00 0.  1.
         21   -1    0    0  502  503 -0.00000000000E+00 -0.00000000000E+00 -0.97453105493E+02  0.97453105493E+02  0.00000000000E+00 0.  1.
          6    1    1    2  501    0 -0.71270545727E+01 -0.73660468529E+01  0.63585148088E+02  0.18459990415E+03  0.17300000000E+03 0.  1.
         -6    1    1    2    0  503  0.71270545727E+01  0.73660468529E+01  0.16628517104E+03  0.24017662596E+03  0.17300000000E+03 0.  1.
<mgrwt>
<rscale>  2 0.17330336E+03</rscale>
<asrwt>0</asrwt>
<pdfrwt beam="1">  1       21 0.50357450E-01 0.17330336E+03</pdfrwt>
<pdfrwt beam="2">  1       21 0.14992786E-01 0.17330336E+03</pdfrwt>
<totfact> 0.14834914E+05</totfact>
</mgrwt>
</event>
<event>
 4    2  0.4024741E+000  0.1747055E+03  0.7546771E-02  0.1173028E+00
         21   -1    0    0  503  502  0.00000000000E+00  0.00000000000E+00  0.14496700162E+03  0.14496700162E+03  0.00000000000E+00 0.  1.
         21   -1    0    0  501  503 -0.00000000000E+00 -0.00000000000E+00 -0.21500374929E+03  0.21500374929E+03  0.00000000000E+00 0.  1.
          6    1    1    2  501    0  0.64890121756E+01 -0.23471120442E+02 -0.60939057642E+02  0.18502856407E+03  0.17300000000E+03 0.  1.
         -6    1    1    2    0  502 -0.64890121756E+01  0.23471120442E+02 -0.90976900279E+01  0.17494218684E+03  0.17300000000E+03 0.  1.
<mgrwt>
<rscale>  2 0.17470547E+03</rscale>
<asrwt>0</asrwt>
<pdfrwt beam="1">  1       21 0.22302616E-01 0.17470547E+03</pdfrwt>
<pdfrwt beam="2">  1       21 0.33077500E-01 0.17470547E+03</pdfrwt>
<totfact> 0.16646659E+05</totfact>
</mgrwt>
</event>
<event>
 4    2  0.4024741E+000  0.3015182E+03  0.7546771E-02  0.1084484E+00
         21   -1    0    0  501  502  0.00000000000E+00  0.00000000000E+00  0.20036814631E+03  0.20036814631E+03  0.00000000000E+00 0.  1.
         21   -1    0    0  502  503 -0.00000000000E+00 -0.00000000000E+00 -0.77936556661E+03  0.77936556661E+03  0.00000000000E+00 0.  1.
          6    1    1    2  501    0  0.11297203571E+03 -0.21959405356E+03  0.27146361895E+02  0.30273776470E+03  0.17300000000E+03 0.  1.
         -6    1    1    2    0  503 -0.11297203571E+03  0.21959405356E+03 -0.60614378220E+03  0.67699594822E+03  0.17300000000E+03 0.  1.
<mgrwt>
<rscale>  2 0.30151821E+03</rscale>
<asrwt>0</asrwt>
<pdfrwt beam="1">  1       21 0.30825869E-01 0.30151821E+03</pdfrwt>
<pdfrwt beam="2">  1       21 0.11990239E+00 0.30151821E+03</pdfrwt>
<totfact> 0.49802488E+03</totfact>
</mgrwt>
</event>
<event>
 4    2  0.4024741E+000  0.1841110E+03  0.7546771E-02  0.1163883E+00
         21   -1    0    0  501  502  0.00000000000E+00  0.00000000000E+00  0.70972574080E+03  0.70972574080E+03  0.00000000000E+00 0.  1.
         21   -1    0    0  502  503 -0.00000000000E+00 -0.00000000000E+00 -0.14968912700E+03  0.14968912700E+03  0.00000000000E+00 0.  1.
          6    1    1    2  501    0  0.49714696540E+02  0.38682272476E+02  0.63460773833E+03  0.66077518931E+03  0.17300000000E+03 0.  1.
         -6    1    1    2    0  503 -0.49714696540E+02 -0.38682272476E+02 -0.74571124533E+02  0.19863967849E+03  0.17300000000E+03 0.  1.
<mgrwt>
<rscale>  2 0.18411102E+03</rscale>
<asrwt>0</asrwt>
<pdfrwt beam="1">  1       21 0.10918857E+00 0.18411102E+03</pdfrwt>
<pdfrwt beam="2">  1       21 0.23029097E-01 0.18411102E+03</pdfrwt>
<totfact> 0.11842615E+04</totfact>
</mgrwt>
</event>
<event>
 4    2  0.4024741E+000  0.1902775E+03  0.7546771E-02  0.1158211E+00
         21   -1    0    0  501  502  0.00000000000E+00  0.00000000000E+00  0.12941545212E+03  0.12941545212E+03  0.00000000000E+00 0. -1.
         21   -1    0    0  502  503 -0.00000000000E+00 -0.00000000000E+00 -0.28421780736E+03  0.28421780736E+03  0.00000000000E+00 0.  1.
          6    1    1    2  501    0  0.65545421929E+02  0.44500788311E+02 -0.10329667335E+03  0.21650802577E+03  0.17300000000E+03 0.  1.
         -6    1    1    2    0  503 -0.65545421929E+02 -0.44500788311E+02 -0.51505681890E+02  0.19712523370E+03  0.17300000000E+03 0. -1.
<mgrwt>
<rscale>  2 0.19027749E+03</rscale>
<asrwt>0</asrwt>
<pdfrwt beam="1">  1       21 0.19910070E-01 0.19027749E+03</pdfrwt>
<pdfrwt beam="2">  1       21 0.43725816E-01 0.19027749E+03</pdfrwt>
<totfact> 0.11709815E+05</totfact>
</mgrwt>
</event>
<event>
 4    2  0.4024741E+000  0.2292754E+03  0.7546771E-02  0.1127151E+00
         21   -1    0    0  503  502  0.00000000000E+00  0.00000000000E+00  0.72834967919E+03  0.72834967919E+03  0.00000000000E+00 0.  1.
         21   -1    0    0  501  503 -0.00000000000E+00 -0.00000000000E+00 -0.82122600078E+02  0.82122600078E+02  0.00000000000E+00 0.  1.
          6    1    1    2  501    0 -0.12823458885E+03 -0.78702738918E+02  0.18206189525E+03  0.29276913190E+03  0.17300000000E+03 0.  1.
         -6    1    1    2    0  502  0.12823458885E+03  0.78702738918E+02  0.46416518386E+03  0.51770314737E+03  0.17300000000E+03 0.  1.
<mgrwt>
<rscale>  2 0.22927545E+03</rscale>
<asrwt>0</asrwt>
<pdfrwt beam="1">  1       21 0.11205379E+00 0.22927545E+03</pdfrwt>
<pdfrwt beam="2">  1       21 0.12634247E-01 0.22927545E+03</pdfrwt>
<totfact> 0.32752334E+04</totfact>
</mgrwt>
</event>
<event>
 4    2  0.4024741E+000  0.2006118E+03  0.7546771E-02  0.1149224E+00
         21   -1    0    0  501  502  0.00000000000E+00  0.00000000000E+00  0.40052124454E+03  0.40052124454E+03  0.00000000000E+00 0.  1.
         21   -1    0    0  502  503 -0.00000000000E+00 -0.00000000000E+00 -0.10744562303E+03  0.10744562303E+03  0.00000000000E+00 0.  1.
          6    1    1    2  501    0  0.26241553666E+02  0.98119603123E+02  0.21119792104E+03  0.29128961105E+03  0.17300000000E+03 0.  1.
         -6    1    1    2    0  503 -0.26241553666E+02 -0.98119603123E+02  0.81877700472E+02  0.21667725651E+03  0.17300000000E+03 0.  1.
<mgrwt>
<rscale>  2 0.20061175E+03</rscale>
<asrwt>0</asrwt>
<pdfrwt beam="1">  1       21 0.61618652E-01 0.20061175E+03</pdfrwt>
<pdfrwt beam="2">  1       21 0.16530096E-01 0.20061175E+03</pdfrwt>
<totfact> 0.80093724E+04</totfact>
</mgrwt>
</event>
<event>
 4    2  0.4024741E+000  0.2306911E+03  0.7546771E-02  0.1126154E+00
         21   -1    0    0  501  502  0.00000000000E+00  0.00000000000E+00  0.42903403480E+02  0.42903403480E+02  0.00000000000E+00 0. -1.
         21   -1    0    0  502  503 -0.00000000000E+00 -0.00000000000E+00 -0.15614221132E+04  0.15614221132E+04  0.00000000000E+00 0.  1.
          6    1    1    2  501    0  0.24271036718E+02  0.15066621245E+03 -0.39555048157E+03  0.45790673097E+03  0.17300000000E+03 0. -1.
         -6    1    1    2    0  503 -0.24271036718E+02 -0.15066621245E+03 -0.11229682281E+04  0.11464187857E+04  0.17300000000E+03 0.  1.
<mgrwt>
<rscale>  2 0.23069112E+03</rscale>
<asrwt>0</asrwt>
<pdfrwt beam="1">  1       21 0.66005228E-02 0.23069112E+03</pdfrwt>
<pdfrwt beam="2">  1       21 0.24021882E+00 0.23069112E+03</pdfrwt>
<totfact> 0.12310581E+04</totfact>
</mgrwt>
</event>
<event>
 4    2  0.4024741E+000  0.1905754E+03  0.7546771E-02  0.1157943E+00
         21   -1    0    0  501  502  0.00000000000E+00  0.00000000000E+00  0.41851633254E+03  0.41851633254E+03  0.00000000000E+00 0.  1.
         21   -1    0    0  502  503 -0.00000000000E+00 -0.00000000000E+00 -0.18053080356E+03  0.18053080356E+03  0.00000000000E+00 0.  1.
          6    1    1    2  501    0  0.11701715242E+02  0.79076240944E+02  0.33483781629E+03  0.38527307879E+03  0.17300000000E+03 0.  1.
         -6    1    1    2    0  503 -0.11701715242E+02 -0.79076240944E+02 -0.96852287311E+02  0.21377405731E+03  0.17300000000E+03 0.  1.
<mgrwt>
<rscale>  2 0.19057540E+03</rscale>
<asrwt>0</asrwt>
<pdfrwt beam="1">  1       21 0.64387128E-01 0.19057540E+03</pdfrwt>
<pdfrwt beam="2">  1       21 0.27773970E-01 0.19057540E+03</pdfrwt>
<totfact> 0.27567074E+04</totfact>
</mgrwt>
</event>
<event>
 4    2  0.4024741E+000  0.2085972E+03  0.7546771E-02  0.1142682E+00
         21   -1    0    0  503  502  0.00000000000E+00  0.00000000000E+00  0.19120804810E+03  0.19120804810E+03  0.00000000000E+00 0. -1.
         21   -1    0    0  501  503 -0.00000000000E+00 -0.00000000000E+00 -0.22837827855E+03  0.22837827855E+03  0.00000000000E+00 0. -1.
          6    1    1    2  501    0  0.10022435257E+03 -0.59488480924E+02 -0.60874990628E+01  0.20868602698E+03  0.17300000000E+03 0. -1.
         -6    1    1    2    0  502 -0.10022435257E+03  0.59488480924E+02 -0.31082731381E+02  0.21090029967E+03  0.17300000000E+03 0. -1.
<mgrwt>
<rscale>  2 0.20859722E+03</rscale>
<asrwt>0</asrwt>
<pdfrwt beam="1">  1       21 0.29416623E-01 0.20859722E+03</pdfrwt>
<pdfrwt beam="2">  1       21 0.35135120E-01 0.20859722E+03</pdfrwt>
<totfact> 0.85886992E+04</totfact>
</mgrwt>
</event>
<event>
 4    2  0.4024741E+000  0.9961306E+03  0.7546771E-02  0.9312799E-01
         21   -1    0    0  501  502  0.00000000000E+00  0.00000000000E+00  0.13970733690E+04  0.13970733690E+04  0.00000000000E+00 0. -1.
         21   -1    0    0  502  503 -0.00000000000E+00 -0.00000000000E+00 -0.78879252650E+03  0.78879252650E+03  0.00000000000E+00 0.  1.
          6    1    1    2  501    0  0.91707198428E+03  0.34831908804E+03  0.64901005700E+03  0.11889029672E+04  0.17300000000E+03 0. -1.
         -6    1    1    2    0  503 -0.91707198428E+03 -0.34831908804E+03 -0.40729214474E+02  0.99696292828E+03  0.17300000000E+03 0.  1.
<mgrwt>
<rscale>  2 0.99613062E+03</rscale>
<asrwt>0</asrwt>
<pdfrwt beam="1">  1       21 0.21493436E+00 0.99613062E+03</pdfrwt>
<pdfrwt beam="2">  1       21 0.12135270E+00 0.99613062E+03</pdfrwt>
<totfact> 0.34673583E+01</totfact>
</mgrwt>
</event>
<event>
 4    2  0.4024741E+000  0.1758705E+03  0.7546771E-02  0.1171861E+00
         21   -1    0    0  503  502  0.00000000000E+00  0.00000000000E+00  0.68691891042E+02  0.68691891042E+02  0.00000000000E+00 0.  1.
         21   -1    0    0  501  503 -0.00000000000E+00 -0.00000000000E+00 -0.48757010148E+03  0.48757010148E+03  0.00000000000E+00 0. -1.
          6    1    1    2  501    0  0.19563100167E+01 -0.31584653964E+02 -0.28635955465E+03  0.33605388267E+03  0.17300000000E+03 0. -1.
         -6    1    1    2    0  502 -0.19563100167E+01  0.31584653964E+02 -0.13251865579E+03  0.22020810986E+03  0.17300000000E+03 0.  1.
<mgrwt>
<rscale>  2 0.17587046E+03</rscale>
<asrwt>0</asrwt>
<pdfrwt beam="1">  1       21 0.10567983E-01 0.17587046E+03</pdfrwt>
<pdfrwt beam="2">  1       21 0.75010787E-01 0.17587046E+03</pdfrwt>
<totfact> 0.11769360E+05</totfact>
</mgrwt>
</event>
<event>
 4    2  0.4024741E+000  0.2018333E+03  0.7546771E-02  0.1148201E+00
         21   -1    0    0  503  502  0.00000000000E+00  0.00000000000E+00  0.18365404104E+03  0.18365404104E+03  0.00000000000E+00 0.  1.
         21   -1    0    0  501  503 -0.00000000000E+00 -0.00000000000E+00 -0.27131441469E+03  0.27131441469E+03  0.00000000000E+00 0. -1.
          6    1    1    2  501    0 -0.97664375900E+02  0.35627712461E+02 -0.14099928921E+03  0.24620614081E+03  0.17300000000E+03 0. -1.
         -6    1    1    2    0  502  0.97664375900E+02 -0.35627712461E+02  0.53338915573E+02  0.20876231492E+03  0.17300000000E+03 0.  1.
<mgrwt>
<rscale>  2 0.20183326E+03</rscale>
<asrwt>0</asrwt>
<pdfrwt beam="1">  1       21 0.28254468E-01 0.20183326E+03</pdfrwt>
<pdfrwt beam="2">  1       21 0.41740679E-01 0.20183326E+03</pdfrwt>
<totfact> 0.65875112E+04</totfact>
</mgrwt>
</event>
<event>
 4    2  0.4024741E+000  0.2259459E+03  0.7546771E-02  0.1129526E+00
         21   -1    0    0  503  502  0.00000000000E+00  0.00000000000E+00  0.16655099137E+03  0.16655099137E+03  0.00000000000E+00 0. -1.
         21   -1    0    0  501  503 -0.00000000000E+00 -0.00000000000E+00 -0.41006012867E+03  0.41006012867E+03  0.00000000000E+00 0.  1.
          6    1    1    2  501    0  0.14449663028E+03  0.15597360939E+02 -0.26662483717E+03  0.34948584753E+03  0.17300000000E+03 0.  1.
         -6    1    1    2    0  502 -0.14449663028E+03 -0.15597360939E+02  0.23115699869E+02  0.22712527250E+03  0.17300000000E+03 0. -1.
<mgrwt>
<rscale>  2 0.22594591E+03</rscale>
<asrwt>0</asrwt>
<pdfrwt beam="1">  1       21 0.25623230E-01 0.22594591E+03</pdfrwt>
<pdfrwt beam="2">  1       21 0.63086173E-01 0.22594591E+03</pdfrwt>
<totfact> 0.33029294E+04</totfact>
</mgrwt>
</event>
<event>
 4    2  0.4024741E+000  0.2009388E+03  0.7546771E-02  0.1148949E+00
         21   -1    0    0  501  502  0.00000000000E+00  0.00000000000E+00  0.12508941760E+04  0.12508941760E+04  0.00000000000E+00 0. -1.
         21   -1    0    0  502  503 -0.00000000000E+00 -0.00000000000E+00 -0.37682463762E+02  0.37682463762E+02  0.00000000000E+00 0. -1.
          6    1    1    2  501    0 -0.10211960237E+03 -0.43553070667E+01  0.85060386685E+03  0.87401562926E+03  0.17300000000E+03 0. -1.
         -6    1    1    2    0  503  0.10211960237E+03  0.43553070667E+01  0.36260784534E+03  0.41456101046E+03  0.17300000000E+03 0. -1.
<mgrwt>
<rscale>  2 0.20093875E+03</rscale>
<asrwt>0</asrwt>
<pdfrwt beam="1">  1       21 0.19244523E+00 0.20093875E+03</pdfrwt>
<pdfrwt beam="2">  1       21 0.57973031E-02 0.20093875E+03</pdfrwt>
<totfact> 0.31251270E+04</totfact>
</mgrwt>
</event>
<event>
 4    2  0.4024741E+000  0.2449260E+03  0.7546771E-02  0.1116554E+00
         21   -1    0    0  503  502  0.00000000000E+00  0.00000000000E+00  0.17330315194E+03  0.17330315194E+03  0.00000000000E+00 0.  1.
         21   -1    0    0  501  503 -0.00000000000E+00 -0.00000000000E+00 -0.57883448848E+03  0.57883448848E+03  0.00000000000E+00 0. -1.
          6    1    1    2  501    0 -0.10878167054E+03  0.13500487520E+03 -0.44120312397E+03  0.50462755055E+03  0.17300000000E+03 0. -1.
         -6    1    1    2    0  502  0.10878167054E+03 -0.13500487520E+03  0.35671787431E+02  0.24751008987E+03  0.17300000000E+03 0.  1.
<mgrwt>
<rscale>  2 0.24492605E+03</rscale>
<asrwt>0</asrwt>
<pdfrwt beam="1">  1       21 0.26662024E-01 0.24492605E+03</pdfrwt>
<pdfrwt beam="2">  1       21 0.89051458E-01 0.24492605E+03</pdfrwt>
<totfact> 0.13969108E+04</totfact>
</mgrwt>
</event>
<event>
 4    2  0.4024741E+000  0.2124946E+03  0.7546771E-02  0.1139606E+00
         21   -1    0    0  503  502  0.00000000000E+00  0.00000000000E+00  0.19192658993E+03  0.19192658993E+03  0.00000000000E+00 0. -1.
         21   -1    0    0  501  503 -0.00000000000E+00 -0.00000000000E+00 -0.88804925120E+03  0.88804925120E+03  0.00000000000E+00 0.  1.
          6    1    1    2  501    0  0.73731066765E+02  0.98937743249E+02 -0.81102804383E+03  0.83840350376E+03  0.17300000000E+03 0.  1.
         -6    1    1    2    0  502 -0.73731066765E+02 -0.98937743249E+02  0.11490538256E+03  0.24157233738E+03  0.17300000000E+03 0. -1.
<mgrwt>
<rscale>  2 0.21249458E+03</rscale>
<asrwt>0</asrwt>
<pdfrwt beam="1">  1       21 0.29527168E-01 0.21249458E+03</pdfrwt>
<pdfrwt beam="2">  1       21 0.13662296E+00 0.21249458E+03</pdfrwt>
<totfact> 0.41197761E+03</totfact>
</mgrwt>
</event>
<event>
 4    2  0.4024741E+000  0.2189594E+03  0.7546771E-02  0.1134661E+00
         21   -1    0    0  503  502  0.00000000000E+00  0.00000000000E+00  0.30794178374E+03  0.30794178374E+03  0.00000000000E+00 0. -1.
         21   -1    0    0  501  503 -0.00000000000E+00 -0.00000000000E+00 -0.19463446786E+03  0.19463446786E+03  0.00000000000E+00 0. -1.
          6    1    1    2  501    0  0.72873026108E+02 -0.11271082900E+03 -0.55752332784E+02  0.22594585971E+03  0.17300000000E+03 0. -1.
         -6    1    1    2    0  502 -0.72873026108E+02  0.11271082900E+03  0.16905964867E+03  0.27663039189E+03  0.17300000000E+03 0. -1.
<mgrwt>
<rscale>  2 0.21895938E+03</rscale>
<asrwt>0</asrwt>
<pdfrwt beam="1">  1       21 0.47375659E-01 0.21895938E+03</pdfrwt>
<pdfrwt beam="2">  1       21 0.29943764E-01 0.21895938E+03</pdfrwt>
<totfact> 0.45001350E+04</totfact>
</mgrwt>
</event>
<event>
 4    2  0.4024741E+000  0.2441392E+03  0.7546771E-02  0.1117066E+00
         21   -1    0    0  503  502  0.00000000000E+00  0.00000000000E+00  0.25422960468E+03  0.25422960468E+03  0.00000000000E+00 0.  1.
         21   -1    0    0  501  503 -0.00000000000E+00 -0.00000000000E+00 -0.25072022020E+03  0.25072022020E+03  0.00000000000E+00 0. -1.
          6    1    1    2  501    0  0.17104330229E+03 -0.20472774164E+02 -0.62562930084E+02  0.25202790711E+03  0.17300000000E+03 0. -1.
         -6    1    1    2    0  502 -0.17104330229E+03  0.20472774164E+02  0.66072314566E+02  0.25292191778E+03  0.17300000000E+03 0. -1.
<mgrwt>
<rscale>  2 0.24413919E+03</rscale>
<asrwt>0</asrwt>
<pdfrwt beam="1">  1       21 0.39112247E-01 0.24413919E+03</pdfrwt>
<pdfrwt beam="2">  1       21 0.38572341E-01 0.24413919E+03</pdfrwt>
<totfact> 0.39862035E+04</totfact>
</mgrwt>
</event>
<event>
 4    2  0.4024741E+000  0.2046251E+03  0.7546771E-02  0.1145894E+00
         21   -1    0    0  503  502  0.00000000000E+00  0.00000000000E+00  0.11148813258E+04  0.11148813258E+04  0.00000000000E+00 0. -1.
         21   -1    0    0  501  503 -0.00000000000E+00 -0.00000000000E+00 -0.54524301636E+02  0.54524301636E+02  0.00000000000E+00 0. -1.
          6    1    1    2  501    0  0.27966227362E+01  0.10924561190E+03  0.85635188577E+03  0.88046009397E+03  0.17300000000E+03 0. -1.
         -6    1    1    2    0  502 -0.27966227362E+01 -0.10924561190E+03  0.20400513839E+03  0.28894553346E+03  0.17300000000E+03 0. -1.
<mgrwt>
<rscale>  2 0.20462508E+03</rscale>
<asrwt>0</asrwt>
<pdfrwt beam="1">  1       21 0.17152019E+00 0.20462508E+03</pdfrwt>
<pdfrwt beam="2">  1       21 0.83883549E-02 0.20462508E+03</pdfrwt>
<totfact> 0.22814782E+04</totfact>
</mgrwt>
</event>
<event>
 4    2  0.4024741E+000  0.1757181E+03  0.7546771E-02  0.1172013E+00
         21   -1    0    0  503  502  0.00000000000E+00  0.00000000000E+00  0.21567488650E+04  0.21567488650E+04  0.00000000000E+00 0. -1.
         21   -1    0    0  501  503 -0.00000000000E+00 -0.00000000000E+00 -0.23650166643E+02  0.23650166643E+02  0.00000000000E+00 0. -1.
          6    1    1    2  501    0  0.28509066400E+02 -0.11622130680E+02  0.38166416939E+03  0.42017184459E+03  0.17300000000E+03 0. -1.
         -6    1    1    2    0  502 -0.28509066400E+02  0.11622130680E+02  0.17514345290E+04  0.17602271871E+04  0.17300000000E+03 0. -1.
<mgrwt>
<rscale>  2 0.17571807E+03</rscale>
<asrwt>0</asrwt>
<pdfrwt beam="1">  1       21 0.33180736E+00 0.17571807E+03</pdfrwt>
<pdfrwt beam="2">  1       21 0.36384889E-02 0.17571807E+03</pdfrwt>
<totfact> 0.10473454E+04</totfact>
</mgrwt>
</event>
<event>
 4    2  0.4024741E+000  0.2202732E+03  0.7546771E-02  0.1133680E+00
         21   -1    0    0  503  502  0.00000000000E+00  0.00000000000E+00  0.62547162064E+03  0.62547162064E+03  0.00000000000E+00 0.  1.
         21   -1    0    0  501  503 -0.00000000000E+00 -0.00000000000E+00 -0.89213719324E+02  0.89213719324E+02  0.00000000000E+00 0.  1.
          6    1    1    2  501    0  0.11333999129E+03  0.75797877847E+02  0.39720397212E+03  0.45419298473E+03  0.17300000000E+03 0.  1.
         -6    1    1    2    0  502 -0.11333999129E+03 -0.75797877847E+02  0.13905392920E+03  0.26049235524E+03  0.17300000000E+03 0.  1.
<mgrwt>
<rscale>  2 0.22027318E+03</rscale>
<asrwt>0</asrwt>
<pdfrwt beam="1">  1       21 0.96226400E-01 0.22027318E+03</pdfrwt>
<pdfrwt beam="2">  1       21 0.13725188E-01 0.22027318E+03</pdfrwt>
<totfact> 0.40840224E+04</totfact>
</mgrwt>
</event>
<event>
 4    2  0.4024741E+000  0.2626857E+03  0.7546771E-02  0.1105540E+00
         21   -1    0    0  503  502  0.00000000000E+00  0.00000000000E+00  0.27841986496E+03  0.27841986496E+03  0.00000000000E+00 0.  1.
         21   -1    0    0  501  503 -0.00000000000E+00 -0.00000000000E+00 -0.31150494237E+03  0.31150494237E+03  0.00000000000E+00 0.  1.
          6    1    1    2  501    0 -0.19729897254E+03  0.12160462483E+02 -0.14988919725E+03  0.30244095765E+03  0.17300000000E+03 0.  1.
         -6    1    1    2    0  502  0.19729897254E+03 -0.12160462483E+02  0.11680411984E+03  0.28748384968E+03  0.17300000000E+03 0.  1.
<mgrwt>
<rscale>  2 0.26268567E+03</rscale>
<asrwt>0</asrwt>
<pdfrwt beam="1">  1       21 0.42833826E-01 0.26268567E+03</pdfrwt>
<pdfrwt beam="2">  1       21 0.47923837E-01 0.26268567E+03</pdfrwt>
<totfact> 0.21027935E+04</totfact>
</mgrwt>
</event>
<event>
 4    2  0.4024741E+000  0.1769519E+03  0.7546771E-02  0.1170786E+00
         21   -1    0    0  503  502  0.00000000000E+00  0.00000000000E+00  0.15297270920E+03  0.15297270920E+03  0.00000000000E+00 0.  1.
         21   -1    0    0  501  503 -0.00000000000E+00 -0.00000000000E+00 -0.24388021151E+03  0.24388021151E+03  0.00000000000E+00 0.  1.
          6    1    1    2  501    0  0.31405665712E+02  0.19916639221E+02 -0.12499638073E+03  0.21664737144E+03  0.17300000000E+03 0.  1.
         -6    1    1    2    0  502 -0.31405665712E+02 -0.19916639221E+02  0.34088878421E+02  0.18020554927E+03  0.17300000000E+03 0.  1.
<mgrwt>
<rscale>  2 0.17695194E+03</rscale>
<asrwt>0</asrwt>
<pdfrwt beam="1">  1       21 0.23534263E-01 0.17695194E+03</pdfrwt>
<pdfrwt beam="2">  1       21 0.37520032E-01 0.17695194E+03</pdfrwt>
<totfact> 0.11706821E+05</totfact>
</mgrwt>
</event>
<event>
 4    2  0.4024741E+000  0.2630455E+03  0.7546771E-02  0.1105327E+00
         21   -1    0    0  503  502  0.00000000000E+00  0.00000000000E+00  0.26599538275E+04  0.26599538275E+04  0.00000000000E+00 0. -1.
         21   -1    0    0  501  503 -0.00000000000E+00 -0.00000000000E+00 -0.55716890139E+02  0.55716890139E+02  0.00000000000E+00 0.  1.
          6    1    1    2  501    0 -0.54722329923E+02  0.19044529380E+03  0.22935472944E+04  0.23085822781E+04  0.17300000000E+03 0. -1.
         -6    1    1    2    0  502  0.54722329923E+02 -0.19044529380E+03  0.31068964296E+03  0.40708843949E+03  0.17300000000E+03 0.  1.
<mgrwt>
<rscale>  2 0.26304552E+03</rscale>
<asrwt>0</asrwt>
<pdfrwt beam="1">  1       21 0.40922357E+00 0.26304552E+03</pdfrwt>
<pdfrwt beam="2">  1       21 0.85718313E-02 0.26304552E+03</pdfrwt>
<totfact> 0.73801374E+02</totfact>
</mgrwt>
</event>
<event>
 4    2  0.4024741E+000  0.1859296E+03  0.7546771E-02  0.1162185E+00
         21   -1    0    0  503  502  0.00000000000E+00  0.00000000000E+00  0.88441171086E+02  0.88441171086E+02  0.00000000000E+00 0. -1.
         21   -1    0    0  501  503 -0.00000000000E+00 -0.00000000000E+00 -0.58520835207E+03  0.58520835207E+03  0.00000000000E+00 0. -1.
          6    1    1    2  501    0  0.46505341643E+02  0.49780223203E+02 -0.44248008431E+03  0.47995670891E+03  0.17300000000E+03 0. -1.
         -6    1    1    2    0  502 -0.46505341643E+02 -0.49780223203E+02 -0.54287096679E+02  0.19369281424E+03  0.17300000000E+03 0. -1.
<mgrwt>
<rscale>  2 0.18592960E+03</rscale>
<asrwt>0</asrwt>
<pdfrwt beam="1">  1       21 0.13606334E-01 0.18592960E+03</pdfrwt>
<pdfrwt beam="2">  1       21 0.90032053E-01 0.18592960E+03</pdfrwt>
<totfact> 0.49308256E+04</totfact>
</mgrwt>
</event>
<event>
 4    2  0.4024741E+000  0.1817977E+03  0.7546771E-02  0.1166074E+00
         21   -1    0    0  503  502  0.00000000000E+00  0.00000000000E+00  0.13633408134E+04  0.13633408134E+04  0.00000000000E+00 0. -1.
         21   -1    0    0  501  503 -0.00000000000E+00 -0.00000000000E+00 -0.33958157328E+02  0.33958157328E+02  0.00000000000E+00 0. -1.
          6    1    1    2  501    0  0.53754829311E+02 -0.15225745365E+02  0.29098565908E+03  0.34310794043E+03  0.17300000000E+03 0. -1.
         -6    1    1    2    0  502 -0.53754829311E+02  0.15225745365E+02  0.10383969970E+04  0.10541910303E+04  0.17300000000E+03 0. -1.
<mgrwt>
<rscale>  2 0.18179770E+03</rscale>
<asrwt>0</asrwt>
<pdfrwt beam="1">  1       21 0.20974470E+00 0.18179770E+03</pdfrwt>
<pdfrwt beam="2">  1       21 0.52243329E-02 0.18179770E+03</pdfrwt>
<totfact> 0.29315933E+04</totfact>
</mgrwt>
</event>
<event>
 4    2  0.4024741E+000  0.2700406E+03  0.7546771E-02  0.1101256E+00
         21   -1    0    0  501  502  0.00000000000E+00  0.00000000000E+00  0.19824372054E+04  0.19824372054E+04  0.00000000000E+00 0.  1.
         21   -1    0    0  502  503 -0.00000000000E+00 -0.00000000000E+00 -0.38273098884E+02  0.38273098884E+02  0.00000000000E+00 0.  1.
          6    1    1    2  501    0  0.19442287754E+03 -0.72060314358E+02  0.11713745390E+04  0.12020982717E+04  0.17300000000E+03 0.  1.
         -6    1    1    2    0  503 -0.19442287754E+03  0.72060314358E+02  0.77278956748E+03  0.81861203254E+03  0.17300000000E+03 0.  1.
<mgrwt>
<rscale>  2 0.27004063E+03</rscale>
<asrwt>0</asrwt>
<pdfrwt beam="1">  1       21 0.30499026E+00 0.27004063E+03</pdfrwt>
<pdfrwt beam="2">  1       21 0.58881706E-02 0.27004063E+03</pdfrwt>
<totfact> 0.60352045E+03</totfact>
</mgrwt>
</event>
<event>
 4    2  0.4024741E+000  0.2020355E+03  0.7546771E-02  0.1148033E+00
         21   -1    0    0  501  502  0.00000000000E+00  0.00000000000E+00  0.58246892326E+02  0.58246892326E+02  0.00000000000E+00 0. -1.
         21   -1    0    0  502  503 -0.00000000000E+00 -0.00000000000E+00 -0.70319391866E+03  0.70319391866E+03  0.00000000000E+00 0.  1.
          6    1    1    2  501    0  0.12621744248E+01 -0.10434428747E+03 -0.30017234353E+03  0.36183111977E+03  0.17300000000E+03 0. -1.
         -6    1    1    2    0  503 -0.12621744248E+01  0.10434428747E+03 -0.34477468280E+03  0.39960969121E+03  0.17300000000E+03 0.  1.
<mgrwt>
<rscale>  2 0.20203545E+03</rscale>
<asrwt>0</asrwt>
<pdfrwt beam="1">  1       21 0.89610599E-02 0.20203545E+03</pdfrwt>
<pdfrwt beam="2">  1       21 0.10818369E+00 0.20203545E+03</pdfrwt>
<totfact> 0.66618005E+04</totfact>
</mgrwt>
</event>
<event>
 4    2  0.4024741E+000  0.3264007E+03  0.7546771E-02  0.1072741E+00
         21   -1    0    0  503  502  0.00000000000E+00  0.00000000000E+00  0.50007527254E+03  0.50007527254E+03  0.00000000000E+00 0. -1.
         21   -1    0    0  501  503 -0.00000000000E+00 -0.00000000000E+00 -0.44911917524E+03  0.44911917524E+03  0.00000000000E+00 0. -1.
          6    1    1    2  501    0 -0.27241051651E+03  0.48999066302E+02 -0.31861090388E+03  0.45612531839E+03  0.17300000000E+03 0. -1.
         -6    1    1    2    0  502  0.27241051651E+03 -0.48999066302E+02  0.36956700118E+03  0.49306912939E+03  0.17300000000E+03 0. -1.
<mgrwt>
<rscale>  2 0.32640067E+03</rscale>
<asrwt>0</asrwt>
<pdfrwt beam="1">  1       21 0.76934657E-01 0.32640067E+03</pdfrwt>
<pdfrwt beam="2">  1       21 0.69095258E-01 0.32640067E+03</pdfrwt>
<totfact> 0.26192806E+03</totfact>
</mgrwt>
</event>
<event>
 4    2  0.4024741E+000  0.2118023E+03  0.7546771E-02  0.1140147E+00
         21   -1    0    0  501  502  0.00000000000E+00  0.00000000000E+00  0.39868132505E+02  0.39868132505E+02  0.00000000000E+00 0.  1.
         21   -1    0    0  502  503 -0.00000000000E+00 -0.00000000000E+00 -0.11363605630E+04  0.11363605630E+04  0.00000000000E+00 0.  1.
          6    1    1    2  501    0  0.70719076940E+02  0.99649506416E+02 -0.49000117145E+03  0.53381772169E+03  0.17300000000E+03 0.  1.
         -6    1    1    2    0  503 -0.70719076940E+02 -0.99649506416E+02 -0.60649125900E+03  0.64241097377E+03  0.17300000000E+03 0.  1.
<mgrwt>
<rscale>  2 0.21180229E+03</rscale>
<asrwt>0</asrwt>
<pdfrwt beam="1">  1       21 0.61335599E-02 0.21180229E+03</pdfrwt>
<pdfrwt beam="2">  1       21 0.17482467E+00 0.21180229E+03</pdfrwt>
<totfact> 0.37046199E+04</totfact>
</mgrwt>
</event>
<event>
 4    2  0.4024741E+000  0.2468469E+03  0.7546771E-02  0.1115314E+00
         21   -1    0    0  503  502  0.00000000000E+00  0.00000000000E+00  0.61069390562E+02  0.61069390562E+02  0.00000000000E+00 0.  1.
         21   -1    0    0  501  503 -0.00000000000E+00 -0.00000000000E+00 -0.10212203092E+04  0.10212203092E+04  0.00000000000E+00 0.  1.
          6    1    1    2  501    0 -0.12034705950E+03 -0.12853402606E+03 -0.39807863279E+03  0.46840154618E+03  0.17300000000E+03 0.  1.
         -6    1    1    2    0  502  0.12034705950E+03  0.12853402606E+03 -0.56207228586E+03  0.61388815359E+03  0.17300000000E+03 0.  1.
<mgrwt>
<rscale>  2 0.24684694E+03</rscale>
<asrwt>0</asrwt>
<pdfrwt beam="1">  1       21 0.93952917E-02 0.24684694E+03</pdfrwt>
<pdfrwt beam="2">  1       21 0.15711080E+00 0.24684694E+03</pdfrwt>
<totfact> 0.23164989E+04</totfact>
</mgrwt>
</event>
<event>
 4    2  0.4024741E+000  0.2403032E+03  0.7546771E-02  0.1119591E+00
         21   -1    0    0  503  502  0.00000000000E+00  0.00000000000E+00  0.77050620304E+03  0.77050620304E+03  0.00000000000E+00 0.  1.
         21   -1    0    0  501  503 -0.00000000000E+00 -0.00000000000E+00 -0.12880477199E+03  0.12880477199E+03  0.00000000000E+00 0. -1.
          6    1    1    2  501    0 -0.57329854518E+02  0.15662023015E+03  0.30083079937E+02  0.24217886037E+03  0.17300000000E+03 0. -1.
         -6    1    1    2    0  502  0.57329854518E+02 -0.15662023015E+03  0.61161835111E+03  0.65713211466E+03  0.17300000000E+03 0.  1.
<mgrwt>
<rscale>  2 0.24030316E+03</rscale>
<asrwt>0</asrwt>
<pdfrwt beam="1">  1       21 0.11853941E+00 0.24030316E+03</pdfrwt>
<pdfrwt beam="2">  1       21 0.19816119E-01 0.24030316E+03</pdfrwt>
<totfact> 0.12398789E+04</totfact>
</mgrwt>
</event>
<event>
 4    2  0.4024741E+000  0.1804279E+03  0.7546771E-02  0.1167390E+00
         21   -1    0    0  501  502  0.00000000000E+00  0.00000000000E+00  0.22545877792E+03  0.22545877792E+03  0.00000000000E+00 0. -1.
         21   -1    0    0  502  503 -0.00000000000E+00 -0.00000000000E+00 -0.31758705835E+03  0.31758705835E+03  0.00000000000E+00 0. -1.
          6    1    1    2  501    0  0.34350441542E+02 -0.38016850280E+02  0.15444954130E+03  0.23750556740E+03  0.17300000000E+03 0. -1.
         -6    1    1    2    0  503 -0.34350441542E+02  0.38016850280E+02 -0.24657782172E+03  0.30554026887E+03  0.17300000000E+03 0. -1.
<mgrwt>
<rscale>  2 0.18042792E+03</rscale>
<asrwt>0</asrwt>
<pdfrwt beam="1">  1       21 0.34685966E-01 0.18042792E+03</pdfrwt>
<pdfrwt beam="2">  1       21 0.48859547E-01 0.18042792E+03</pdfrwt>
<totfact> 0.32236837E+04</totfact>
</mgrwt>
</event>
<event>
 4    2  0.4024741E+000  0.1835259E+03  0.7546771E-02  0.1164434E+00
         21   -1    0    0  501  502  0.00000000000E+00  0.00000000000E+00  0.15506116605E+04  0.15506116605E+04  0.00000000000E+00 0.  1.
         21   -1    0    0  502  503 -0.00000000000E+00 -0.00000000000E+00 -0.24583017994E+02  0.24583017994E+02  0.00000000000E+00 0.  1.
          6    1    1    2  501    0  0.28039970672E+02 -0.54465811519E+02  0.49430831496E+03  0.52727836559E+03  0.17300000000E+03 0.  1.
         -6    1    1    2    0  503 -0.28039970672E+02  0.54465811519E+02  0.10317203275E+04  0.10479163129E+04  0.17300000000E+03 0.  1.
<mgrwt>
<rscale>  2 0.18352592E+03</rscale>
<asrwt>0</asrwt>
<pdfrwt beam="1">  1       21 0.23855556E+00 0.18352592E+03</pdfrwt>
<pdfrwt beam="2">  1       21 0.37820040E-02 0.18352592E+03</pdfrwt>
<totfact> 0.33690743E+04</totfact>
</mgrwt>
</event>
<event>
 4    2  0.4024741E+000  0.1953518E+03  0.7546771E-02  0.1153721E+00
         21   -1    0    0  503  502  0.00000000000E+00  0.00000000000E+00  0.20344480677E+03  0.20344480677E+03  0.00000000000E+00 0. -1.
         21   -1    0    0  501  503 -0.00000000000E+00 -0.00000000000E+00 -0.20862687146E+03  0.20862687146E+03  0.00000000000E+00 0.  1.
          6    1    1    2  501    0  0.89897576328E+02  0.12318512672E+02  0.62849099191E+02  0.20521288764E+03  0.17300000000E+03 0.  1.
         -6    1    1    2    0  502 -0.89897576328E+02 -0.12318512672E+02 -0.68031163890E+02  0.20685879059E+03  0.17300000000E+03 0.  1.
<mgrwt>
<rscale>  2 0.19535179E+03</rscale>
<asrwt>0</asrwt>
<pdfrwt beam="1">  1       21 0.31299201E-01 0.19535179E+03</pdfrwt>
<pdfrwt beam="2">  1       21 0.32096442E-01 0.19535179E+03</pdfrwt>
<totfact> 0.91489151E+04</totfact>
</mgrwt>
</event>
<event>
 4    2  0.4024741E+000  0.1887758E+03  0.7546771E-02  0.1159570E+00
         21   -1    0    0  503  502  0.00000000000E+00  0.00000000000E+00  0.96782205227E+02  0.96782205227E+02  0.00000000000E+00 0.  1.
         21   -1    0    0  501  503 -0.00000000000E+00 -0.00000000000E+00 -0.37006970967E+03  0.37006970967E+03  0.00000000000E+00 0. -1.
          6    1    1    2  501    0 -0.13676267632E+02 -0.74298432901E+02 -0.15318556682E+03  0.24310926620E+03  0.17300000000E+03 0. -1.
         -6    1    1    2    0  502  0.13676267632E+02  0.74298432901E+02 -0.12010193762E+03  0.22374264870E+03  0.17300000000E+03 0.  1.
<mgrwt>
<rscale>  2 0.18877579E+03</rscale>
<asrwt>0</asrwt>
<pdfrwt beam="1">  1       21 0.14889570E-01 0.18877579E+03</pdfrwt>
<pdfrwt beam="2">  1       21 0.56933803E-01 0.18877579E+03</pdfrwt>
<totfact> 0.11541454E+05</totfact>
</mgrwt>
</event>
<event>
 4    2  0.4024741E+000  0.2681121E+03  0.7546771E-02  0.1102365E+00
         21   -1    0    0  501  502  0.00000000000E+00  0.00000000000E+00  0.54281369903E+02  0.54281369903E+02  0.00000000000E+00 0. -1.
         21   -1    0    0  502  503 -0.00000000000E+00 -0.00000000000E+00 -0.13253492313E+04  0.13253492313E+04  0.00000000000E+00 0. -1.
          6    1    1    2  501    0  0.55016786705E+02  0.19730246675E+03 -0.65506319431E+03  0.70780781201E+03  0.17300000000E+03 0. -1.
         -6    1    1    2    0  503 -0.55016786705E+02 -0.19730246675E+03 -0.61600466706E+03  0.67182278916E+03  0.17300000000E+03 0. -1.
<mgrwt>
<rscale>  2 0.26811212E+03</rscale>
<asrwt>0</asrwt>
<pdfrwt beam="1">  1       21 0.83509798E-02 0.26811212E+03</pdfrwt>
<pdfrwt beam="2">  1       21 0.20389989E+00 0.26811212E+03</pdfrwt>
<totfact> 0.13385029E+04</totfact>
</mgrwt>
</event>
<event>
 4    2  0.4024741E+000  0.2404055E+03  0.7546771E-02  0.1119523E+00
         21   -1    0    0  503  502  0.00000000000E+00  0.00000000000E+00  0.28254367509E+03  0.28254367509E+03  0.00000000000E+00 0.  1.
         21   -1    0    0  501  503 -0.00000000000E+00 -0.00000000000E+00 -0.23389110907E+03  0.23389110907E+03  0.00000000000E+00 0.  1.
          6    1    1    2  501    0 -0.13265405025E+03  0.10133473457E+03 -0.67127855118E+02  0.24960163143E+03  0.17300000000E+03 0.  1.
         -6    1    1    2    0  502  0.13265405025E+03 -0.10133473457E+03  0.11578042114E+03  0.26683315274E+03  0.17300000000E+03 0.  1.
<mgrwt>
<rscale>  2 0.24040554E+03</rscale>
<asrwt>0</asrwt>
<pdfrwt beam="1">  1       21 0.43468258E-01 0.24040554E+03</pdfrwt>
<pdfrwt beam="2">  1       21 0.35983247E-01 0.24040554E+03</pdfrwt>
<totfact> 0.37016014E+04</totfact>
</mgrwt>
</event>
<event>
 4    2  0.4024741E+000  0.2070207E+03  0.7546771E-02  0.1143947E+00
         21   -1    0    0  503  502  0.00000000000E+00  0.00000000000E+00  0.12840759461E+03  0.12840759461E+03  0.00000000000E+00 0. -1.
         21   -1    0    0  501  503 -0.00000000000E+00 -0.00000000000E+00 -0.11261059981E+04  0.11261059981E+04  0.00000000000E+00 0.  1.
          6    1    1    2  501    0 -0.10832772884E+03 -0.34549847765E+02 -0.10250028643E+04  0.10456999859E+04  0.17300000000E+03 0.  1.
         -6    1    1    2    0  502  0.10832772884E+03  0.34549847765E+02  0.27304460742E+02  0.20881360682E+03  0.17300000000E+03 0. -1.
<mgrwt>
<rscale>  2 0.20702074E+03</rscale>
<asrwt>0</asrwt>
<pdfrwt beam="1">  1       21 0.19755016E-01 0.20702074E+03</pdfrwt>
<pdfrwt beam="2">  1       21 0.17324707E+00 0.20702074E+03</pdfrwt>
<totfact> 0.47240585E+03</totfact>
</mgrwt>
</event>
<event>
 4    2  0.4024741E+000  0.2869757E+03  0.7546771E-02  0.1091939E+00
         21   -1    0    0  503  502  0.00000000000E+00  0.00000000000E+00  0.16412335941E+03  0.16412335941E+03  0.00000000000E+00 0.  1.
         21   -1    0    0  501  503 -0.00000000000E+00 -0.00000000000E+00 -0.69949368670E+03  0.69949368670E+03  0.00000000000E+00 0.  1.
          6    1    1    2  501    0 -0.42617102236E+02 -0.22496623450E+03 -0.49725224640E+03  0.57412091115E+03  0.17300000000E+03 0.  1.
         -6    1    1    2    0  502  0.42617102236E+02  0.22496623450E+03 -0.38118080893E+02  0.28949613496E+03  0.17300000000E+03 0.  1.
<mgrwt>
<rscale>  2 0.28697565E+03</rscale>
<asrwt>0</asrwt>
<pdfrwt beam="1">  1       21 0.25249748E-01 0.28697565E+03</pdfrwt>
<pdfrwt beam="2">  1       21 0.10761441E+00 0.28697565E+03</pdfrwt>
<totfact> 0.96718371E+03</totfact>
</mgrwt>
</event>
<event>
 4    2  0.4024741E+000  0.1835054E+03  0.7546771E-02  0.1164453E+00
         21   -1    0    0  501  502  0.00000000000E+00  0.00000000000E+00  0.13246553249E+04  0.13246553249E+04  0.00000000000E+00 0. -1.
         21   -1    0    0  502  503 -0.00000000000E+00 -0.00000000000E+00 -0.27683323117E+02  0.27683323117E+02  0.00000000000E+00 0.  1.
          6    1    1    2  501    0  0.56573332831E+02  0.23338815126E+02  0.45519542503E+03  0.49079233617E+03  0.17300000000E+03 0.  1.
         -6    1    1    2    0  503 -0.56573332831E+02 -0.23338815126E+02  0.84177657674E+03  0.86154631183E+03  0.17300000000E+03 0.  1.
<mgrwt>
<rscale>  2 0.18350543E+03</rscale>
<asrwt>0</asrwt>
<pdfrwt beam="1">  1       21 0.20379308E+00 0.18350543E+03</pdfrwt>
<pdfrwt beam="2">  1       21 0.42589738E-02 0.18350543E+03</pdfrwt>
<totfact> 0.45062702E+04</totfact>
</mgrwt>
</event>
<event>
 4    2  0.4024741E+000  0.2082514E+03  0.7546771E-02  0.1142958E+00
         21   -1    0    0  503  502  0.00000000000E+00  0.00000000000E+00  0.99296200601E+02  0.99296200601E+02  0.00000000000E+00 0. -1.
         21   -1    0    0  501  503 -0.00000000000E+00 -0.00000000000E+00 -0.13757347417E+04  0.13757347417E+04  0.00000000000E+00 0.  1.
          6    1    1    2  501    0  0.18693754165E+02 -0.11441239518E+03 -0.12475185088E+04  0.12647810413E+04  0.17300000000E+03 0.  1.
         -6    1    1    2    0  502 -0.18693754165E+02  0.11441239518E+03 -0.28920032330E+02  0.21024990104E+03  0.17300000000E+03 0. -1.
<mgrwt>
<rscale>  2 0.20825142E+03</rscale>
<asrwt>0</asrwt>
<pdfrwt beam="1">  1       21 0.15276340E-01 0.20825142E+03</pdfrwt>
<pdfrwt beam="2">  1       21 0.21165148E+00 0.20825142E+03</pdfrwt>
<totfact> 0.42364030E+03</totfact>
</mgrwt>
</event>
<event>
 4    2  0.4024741E+000  0.2432062E+03  0.7546771E-02  0.1117675E+00
         21   -1    0    0  503  502  0.00000000000E+00  0.00000000000E+00  0.55197743474E+02  0.55197743474E+02  0.00000000000E+00 0. -1.
         21   -1    0    0  501  503 -0.00000000000E+00 -0.00000000000E+00 -0.15618487730E+04  0.15618487730E+04  0.00000000000E+00 0.  1.
          6    1    1    2  501    0 -0.86500666897E+02 -0.14743779969E+03 -0.12063131569E+04  0.12305855121E+04  0.17300000000E+03 0.  1.
         -6    1    1    2    0  502  0.86500666897E+02  0.14743779969E+03 -0.30033787266E+03  0.38646100438E+03  0.17300000000E+03 0. -1.
<mgrwt>
<rscale>  2 0.24320623E+03</rscale>
<asrwt>0</asrwt>
<pdfrwt beam="1">  1       21 0.84919607E-02 0.24320623E+03</pdfrwt>
<pdfrwt beam="2">  1       21 0.24028442E+00 0.24320623E+03</pdfrwt>
<totfact> 0.78538161E+03</totfact>
</mgrwt>
</event>
<event>
 4    2  0.4024741E+000  0.1787758E+03  0.7546771E-02  0.1168993E+00
         21   -1    0    0  503  502  0.00000000000E+00  0.00000000000E+00  0.98095001955E+02  0.98095001955E+02  0.00000000000E+00 0.  1.
         21   -1    0    0  501  503 -0.00000000000E+00 -0.00000000000E+00 -0.32668397401E+03  0.32668397401E+03  0.00000000000E+00 0.  1.
          6    1    1    2  501    0 -0.45066257408E+02 -0.90450726209E+00 -0.10333809110E+03  0.20649345453E+03  0.17300000000E+03 0.  1.
         -6    1    1    2    0  502  0.45066257408E+02  0.90450726209E+00 -0.12525088095E+03  0.21828552144E+03  0.17300000000E+03 0.  1.
<mgrwt>
<rscale>  2 0.17877580E+03</rscale>
<asrwt>0</asrwt>
<pdfrwt beam="1">  1       21 0.15091539E-01 0.17877580E+03</pdfrwt>
<pdfrwt beam="2">  1       21 0.50259073E-01 0.17877580E+03</pdfrwt>
<totfact> 0.14691359E+05</totfact>
</mgrwt>
</event>
<event>
 4    2  0.4024741E+000  0.4823271E+03  0.7546771E-02  0.1018498E+00
         21   -1    0    0  503  502  0.00000000000E+00  0.00000000000E+00  0.44682951305E+03  0.44682951305E+03  0.00000000000E+00 0. -1.
         21   -1    0    0  501  503 -0.00000000000E+00 -0.00000000000E+00 -0.80607754669E+03  0.80607754669E+03  0.00000000000E+00 0.  1.
          6    1    1    2  501    0  0.34117767795E+02 -0.44893918064E+03 -0.55240387292E+03  0.73334129081E+03  0.17300000000E+03 0.  1.
         -6    1    1    2    0  502 -0.34117767795E+02  0.44893918064E+03  0.19315583928E+03  0.51956576892E+03  0.17300000000E+03 0. -1.
<mgrwt>
<rscale>  2 0.48232708E+03</rscale>
<asrwt>0</asrwt>
<pdfrwt beam="1">  1       21 0.68743003E-01 0.48232708E+03</pdfrwt>
<pdfrwt beam="2">  1       21 0.12401193E+00 0.48232708E+03</pdfrwt>
<totfact> 0.78148771E+02</totfact>
</mgrwt>
</event>
<event>
 4    2  0.4024741E+000  0.2349509E+03  0.7546771E-02  0.1123203E+00
         21   -1    0    0  503  502  0.00000000000E+00  0.00000000000E+00  0.10881791582E+04  0.10881791582E+04  0.00000000000E+00 0.  1.
         21   -1    0    0  501  503 -0.00000000000E+00 -0.00000000000E+00 -0.11472111473E+03  0.11472111473E+03  0.00000000000E+00 0.  1.
          6    1    1    2  501    0  0.66272848243E+02 -0.14450203435E+03  0.37526533477E+02  0.23792891598E+03  0.17300000000E+03 0.  1.
         -6    1    1    2    0  502 -0.66272848243E+02  0.14450203435E+03  0.93593151003E+03  0.96497135699E+03  0.17300000000E+03 0.  1.
<mgrwt>
<rscale>  2 0.23495091E+03</rscale>
<asrwt>0</asrwt>
<pdfrwt beam="1">  1       21 0.16741217E+00 0.23495091E+03</pdfrwt>
<pdfrwt beam="2">  1       21 0.17649403E-01 0.23495091E+03</pdfrwt>
<totfact> 0.62683836E+03</totfact>
</mgrwt>
</event>
<event>
 4    2  0.4024741E+000  0.1958199E+03  0.7546771E-02  0.1153314E+00
         21   -1    0    0  503  502  0.00000000000E+00  0.00000000000E+00  0.66128671407E+02  0.66128671407E+02  0.00000000000E+00 0. -1.
         21   -1    0    0  501  503 -0.00000000000E+00 -0.00000000000E+00 -0.80092872713E+03  0.80092872713E+03  0.00000000000E+00 0. -1.
          6    1    1    2  501    0 -0.59339261994E+02 -0.69966302883E+02 -0.59516329251E+03  0.62654989929E+03  0.17300000000E+03 0. -1.
         -6    1    1    2    0  502  0.59339261994E+02  0.69966302883E+02 -0.13963676322E+03  0.24050749925E+03  0.17300000000E+03 0. -1.
<mgrwt>
<rscale>  2 0.19581990E+03</rscale>
<asrwt>0</asrwt>
<pdfrwt beam="1">  1       21 0.10173641E-01 0.19581990E+03</pdfrwt>
<pdfrwt beam="2">  1       21 0.12321981E+00 0.19581990E+03</pdfrwt>
<totfact> 0.38849615E+04</totfact>
</mgrwt>
</event>
<event>
 4    2  0.4024741E+000  0.2145991E+03  0.7546771E-02  0.1137975E+00
         21   -1    0    0  503  502  0.00000000000E+00  0.00000000000E+00  0.94186618571E+03  0.94186618571E+03  0.00000000000E+00 0.  1.
         21   -1    0    0  501  503 -0.00000000000E+00 -0.00000000000E+00 -0.21657296093E+03  0.21657296093E+03  0.00000000000E+00 0.  1.
          6    1    1    2  501    0  0.11531697957E+03  0.53157960855E+02 -0.14701132422E+03  0.26012516992E+03  0.17300000000E+03 0.  1.
         -6    1    1    2    0  502 -0.11531697957E+03 -0.53157960855E+02  0.87230454899E+03  0.89831397672E+03  0.17300000000E+03 0.  1.
<mgrwt>
<rscale>  2 0.21459910E+03</rscale>
<asrwt>0</asrwt>
<pdfrwt beam="1">  1       21 0.14490249E+00 0.21459910E+03</pdfrwt>
<pdfrwt beam="2">  1       21 0.33318918E-01 0.21459910E+03</pdfrwt>
<totfact> 0.27842109E+03</totfact>
</mgrwt>
</event>
<event>
 4    2  0.4024741E+000  0.1854836E+03  0.7546771E-02  0.1162599E+00
         21   -1    0    0  501  502  0.00000000000E+00  0.00000000000E+00  0.78261371845E+03  0.78261371845E+03  0.00000000000E+00 0.  1.
         21   -1    0    0  502  503 -0.00000000000E+00 -0.00000000000E+00 -0.44361191096E+02  0.44361191096E+02  0.00000000000E+00 0.  1.
          6    1    1    2  501    0 -0.89785151195E+00  0.66890773046E+02  0.40841810331E+03  0.44856385138E+03  0.17300000000E+03 0.  1.
         -6    1    1    2    0  503  0.89785151195E+00 -0.66890773046E+02  0.32983442405E+03  0.37841105816E+03  0.17300000000E+03 0.  1.
<mgrwt>
<rscale>  2 0.18548364E+03</rscale>
<asrwt>0</asrwt>
<pdfrwt beam="1">  1       21 0.12040210E+00 0.18548364E+03</pdfrwt>
<pdfrwt beam="2">  1       21 0.68247992E-02 0.18548364E+03</pdfrwt>
<totfact> 0.83035588E+04</totfact>
</mgrwt>
</event>
<event>
 4    2  0.4024741E+000  0.2259643E+03  0.7546771E-02  0.1129513E+00
         21   -1    0    0  501  502  0.00000000000E+00  0.00000000000E+00  0.12035824002E+04  0.12035824002E+04  0.00000000000E+00 0. -1.
         21   -1    0    0  502  503 -0.00000000000E+00 -0.00000000000E+00 -0.60865496800E+02  0.60865496800E+02  0.00000000000E+00 0. -1.
          6    1    1    2  501    0 -0.89236876593E+02 -0.11475031899E+03  0.91936905750E+03  0.94673085919E+03  0.17300000000E+03 0. -1.
         -6    1    1    2    0  503  0.89236876593E+02  0.11475031899E+03  0.22334784593E+03  0.31771703784E+03  0.17300000000E+03 0. -1.
<mgrwt>
<rscale>  2 0.22596428E+03</rscale>
<asrwt>0</asrwt>
<pdfrwt beam="1">  1       21 0.18516650E+00 0.22596428E+03</pdfrwt>
<pdfrwt beam="2">  1       21 0.93639236E-02 0.22596428E+03</pdfrwt>
<totfact> 0.14932393E+04</totfact>
</mgrwt>
</event>
<event>
 4    2  0.4024741E+000  0.2047439E+03  0.7546771E-02  0.1145797E+00
         21   -1    0    0  501  502  0.00000000000E+00  0.00000000000E+00  0.58055903540E+03  0.58055903540E+03  0.00000000000E+00 0.  1.
         21   -1    0    0  502  503 -0.00000000000E+00 -0.00000000000E+00 -0.12501235768E+03  0.12501235768E+03  0.00000000000E+00 0. -1.
          6    1    1    2  501    0  0.38413243087E+02 -0.10254496308E+03  0.45705862124E+03  0.50082195433E+03  0.17300000000E+03 0.  1.
         -6    1    1    2    0  503 -0.38413243087E+02  0.10254496308E+03 -0.15119435160E+01  0.20474943876E+03  0.17300000000E+03 0. -1.
<mgrwt>
<rscale>  2 0.20474386E+03</rscale>
<asrwt>0</asrwt>
<pdfrwt beam="1">  1       21 0.89316773E-01 0.20474386E+03</pdfrwt>
<pdfrwt beam="2">  1       21 0.19232671E-01 0.20474386E+03</pdfrwt>
<totfact> 0.26363991E+04</totfact>
</mgrwt>
</event>
<event>
 4    2  0.4024741E+000  0.2349878E+03  0.7546771E-02  0.1123178E+00
         21   -1    0    0  501  502  0.00000000000E+00  0.00000000000E+00  0.16861358382E+04  0.16861358382E+04  0.00000000000E+00 0.  1.
         21   -1    0    0  502  503 -0.00000000000E+00 -0.00000000000E+00 -0.61550976447E+02  0.61550976447E+02  0.00000000000E+00 0. -1.
          6    1    1    2  501    0  0.14048714885E+03  0.74522604942E+02  0.14100530610E+04  0.14294995252E+04  0.17300000000E+03 0.  1.
         -6    1    1    2    0  503 -0.14048714885E+03 -0.74522604942E+02  0.21453180072E+03  0.31818728944E+03  0.17300000000E+03 0. -1.
<mgrwt>
<rscale>  2 0.23498778E+03</rscale>
<asrwt>0</asrwt>
<pdfrwt beam="1">  1       21 0.25940548E+00 0.23498778E+03</pdfrwt>
<pdfrwt beam="2">  1       21 0.94693823E-02 0.23498778E+03</pdfrwt>
<totfact> 0.50205939E+03</totfact>
</mgrwt>
</event>
<event>
 4    2  0.4024741E+000  0.2568638E+03  0.7546771E-02  0.1109042E+00
         21   -1    0    0  501  502  0.00000000000E+00  0.00000000000E+00  0.27872646963E+03  0.27872646963E+03  0.00000000000E+00 0.  1.
         21   -1    0    0  502  503 -0.00000000000E+00 -0.00000000000E+00 -0.32822418696E+03  0.32822418696E+03  0.00000000000E+00 0.  1.
          6    1    1    2  501    0 -0.83637848755E+02 -0.17045447168E+03 -0.18498779758E+03  0.31654304907E+03  0.17300000000E+03 0.  1.
         -6    1    1    2    0  503  0.83637848755E+02  0.17045447168E+03  0.13549008025E+03  0.29040760752E+03  0.17300000000E+03 0.  1.
<mgrwt>
<rscale>  2 0.25686381E+03</rscale>
<asrwt>0</asrwt>
<pdfrwt beam="1">  1       21 0.42880995E-01 0.25686381E+03</pdfrwt>
<pdfrwt beam="2">  1       21 0.50496029E-01 0.25686381E+03</pdfrwt>
<totfact> 0.18854017E+04</totfact>
</mgrwt>
</event>
<event>
 4    2  0.4024741E+000  0.2119745E+03  0.7546771E-02  0.1140012E+00
         21   -1    0    0  501  502  0.00000000000E+00  0.00000000000E+00  0.81363499060E+02  0.81363499060E+02  0.00000000000E+00 0.  1.
         21   -1    0    0  502  503 -0.00000000000E+00 -0.00000000000E+00 -0.55537284520E+03  0.55537284520E+03  0.00000000000E+00 0.  1.
          6    1    1    2  501    0 -0.97856357787E+02 -0.73677100892E+02 -0.26086906953E+03  0.33613368381E+03  0.17300000000E+03 0. -1.
         -6    1    1    2    0  503  0.97856357787E+02  0.73677100892E+02 -0.21314027661E+03  0.30060266045E+03  0.17300000000E+03 0. -1.
<mgrwt>
<rscale>  2 0.21197448E+03</rscale>
<asrwt>0</asrwt>
<pdfrwt beam="1">  1       21 0.12517462E-01 0.21197448E+03</pdfrwt>
<pdfrwt beam="2">  1       21 0.85441972E-01 0.21197448E+03</pdfrwt>
<totfact> 0.63843767E+04</totfact>
</mgrwt>
</event>
<event>
 4    2  0.4024741E+000  0.2540105E+03  0.7546771E-02  0.1110796E+00
         21   -1    0    0  503  502  0.00000000000E+00  0.00000000000E+00  0.23635778957E+03  0.23635778957E+03  0.00000000000E+00 0.  1.
         21   -1    0    0  501  503 -0.00000000000E+00 -0.00000000000E+00 -0.27650616161E+03  0.27650616161E+03  0.00000000000E+00 0.  1.
          6    1    1    2  501    0  0.18421915489E+03  0.25605662705E+02 -0.49025432178E+02  0.25869835715E+03  0.17300000000E+03 0.  1.
         -6    1    1    2    0  502 -0.18421915489E+03 -0.25605662705E+02  0.88770601408E+01  0.25416559403E+03  0.17300000000E+03 0.  1.
<mgrwt>
<rscale>  2 0.25401053E+03</rscale>
<asrwt>0</asrwt>
<pdfrwt beam="1">  1       21 0.36362737E-01 0.25401053E+03</pdfrwt>
<pdfrwt beam="2">  1       21 0.42539410E-01 0.25401053E+03</pdfrwt>
<totfact> 0.37670729E+04</totfact>
</mgrwt>
</event>
<event>
 4    2  0.4024741E+000  0.2235497E+03  0.7546771E-02  0.1131264E+00
         21   -1    0    0  503  502  0.00000000000E+00  0.00000000000E+00  0.24775407775E+03  0.24775407775E+03  0.00000000000E+00 0.  1.
         21   -1    0    0  501  503 -0.00000000000E+00 -0.00000000000E+00 -0.22367148803E+03  0.22367148803E+03  0.00000000000E+00 0. -1.
          6    1    1    2  501    0 -0.50174108846E+02  0.13239345290E+03 -0.61818653688E+02  0.23193967645E+03  0.17300000000E+03 0. -1.
         -6    1    1    2    0  502  0.50174108846E+02 -0.13239345290E+03  0.85901243401E+02  0.23948588933E+03  0.17300000000E+03 0.  1.
<mgrwt>
<rscale>  2 0.22354970E+03</rscale>
<asrwt>0</asrwt>
<pdfrwt beam="1">  1       21 0.38116012E-01 0.22354970E+03</pdfrwt>
<pdfrwt beam="2">  1       21 0.34410998E-01 0.22354970E+03</pdfrwt>
<totfact> 0.53258041E+04</totfact>
</mgrwt>
</event>
<event>
 4    2  0.4024741E+000  0.1730883E+03  0.7546771E-02  0.1174665E+00
         21   -1    0    0  501  502  0.00000000000E+00  0.00000000000E+00  0.13329696037E+04  0.13329696037E+04  0.00000000000E+00 0. -1.
         21   -1    0    0  502  503 -0.00000000000E+00 -0.00000000000E+00 -0.46205720166E+02  0.46205720166E+02  0.00000000000E+00 0. -1.
          6    1    1    2  501    0 -0.15688169927E+01  0.53021228577E+01  0.11375670372E+04  0.11506599576E+04  0.17300000000E+03 0. -1.
         -6    1    1    2    0  503  0.15688169927E+01 -0.53021228577E+01  0.14919684626E+03  0.22851536629E+03  0.17300000000E+03 0. -1.
<mgrwt>
<rscale>  2 0.17308834E+03</rscale>
<asrwt>0</asrwt>
<pdfrwt beam="1">  1       21 0.20507222E+00 0.17308834E+03</pdfrwt>
<pdfrwt beam="2">  1       21 0.71085733E-02 0.17308834E+03</pdfrwt>
<totfact> 0.18649202E+04</totfact>
</mgrwt>
</event>
<event>
 4    2  0.4024741E+000  0.2000236E+03  0.7546771E-02  0.1149719E+00
         21   -1    0    0  501  502  0.00000000000E+00  0.00000000000E+00  0.18281550874E+03  0.18281550874E+03  0.00000000000E+00 0.  1.
         21   -1    0    0  502  503 -0.00000000000E+00 -0.00000000000E+00 -0.14027205546E+04  0.14027205546E+04  0.00000000000E+00 0.  1.
          6    1    1    2  501    0 -0.62163061372E+02 -0.78842926503E+02  0.11835094480E+03  0.23241428397E+03  0.17300000000E+03 0.  1.
         -6    1    1    2    0  503  0.62163061372E+02  0.78842926503E+02 -0.13382559907E+04  0.13531217794E+04  0.17300000000E+03 0.  1.
<mgrwt>
<rscale>  2 0.20002363E+03</rscale>
<asrwt>0</asrwt>
<pdfrwt beam="1">  1       21 0.28125464E-01 0.20002363E+03</pdfrwt>
<pdfrwt beam="2">  1       21 0.21580315E+00 0.20002363E+03</pdfrwt>
<totfact> 0.12790802E+03</totfact>
</mgrwt>
</event>
<event>
 4    2  0.4024741E+000  0.1806832E+03  0.7546771E-02  0.1167143E+00
         21   -1    0    0  501  502  0.00000000000E+00  0.00000000000E+00  0.40886522491E+03  0.40886522491E+03  0.00000000000E+00 0. -1.
         21   -1    0    0  502  503 -0.00000000000E+00 -0.00000000000E+00 -0.11529467330E+03  0.11529467330E+03  0.00000000000E+00 0.  1.
          6    1    1    2  501    0  0.33830511718E+02  0.39660071743E+02  0.14648742541E+01  0.18068915482E+03  0.17300000000E+03 0.  1.
         -6    1    1    2    0  503 -0.33830511718E+02 -0.39660071743E+02  0.29210567736E+03  0.34347074338E+03  0.17300000000E+03 0. -1.
<mgrwt>
<rscale>  2 0.18068322E+03</rscale>
<asrwt>0</asrwt>
<pdfrwt beam="1">  1       21 0.62902342E-01 0.18068322E+03</pdfrwt>
<pdfrwt beam="2">  1       21 0.17737642E-01 0.18068322E+03</pdfrwt>
<totfact> 0.67865079E+04</totfact>
</mgrwt>
</event>
<event>
 4    2  0.4024741E+000  0.1867240E+03  0.7546771E-02  0.1161450E+00
         21   -1    0    0  501  502  0.00000000000E+00  0.00000000000E+00  0.48585639576E+03  0.48585639576E+03  0.00000000000E+00 0.  1.
         21   -1    0    0  502  503 -0.00000000000E+00 -0.00000000000E+00 -0.74238932094E+02  0.74238932094E+02  0.00000000000E+00 0.  1.
          6    1    1    2  501    0  0.69998639971E+02 -0.60875619612E+01  0.25696534377E+03  0.31764296924E+03  0.17300000000E+03 0.  1.
         -6    1    1    2    0  503 -0.69998639971E+02  0.60875619612E+01  0.15465211989E+03  0.24245235861E+03  0.17300000000E+03 0.  1.
<mgrwt>
<rscale>  2 0.18672404E+03</rscale>
<asrwt>0</asrwt>
<pdfrwt beam="1">  1       21 0.74747136E-01 0.18672404E+03</pdfrwt>
<pdfrwt beam="2">  1       21 0.11421374E-01 0.18672404E+03</pdfrwt>
<totfact> 0.10291490E+05</totfact>
</mgrwt>
</event>
<event>
 4    2  0.4024741E+000  0.2040820E+03  0.7546771E-02  0.1146340E+00
         21   -1    0    0  501  502  0.00000000000E+00  0.00000000000E+00  0.16983187103E+03  0.16983187103E+03  0.00000000000E+00 0. -1.
         21   -1    0    0  502  503 -0.00000000000E+00 -0.00000000000E+00 -0.50751789554E+03  0.50751789554E+03  0.00000000000E+00 0.  1.
          6    1    1    2  501    0  0.74754591528E+02  0.78308386541E+02  0.74623210936E+02  0.21729720653E+03  0.17300000000E+03 0. -1.
         -6    1    1    2    0  503 -0.74754591528E+02 -0.78308386541E+02 -0.41230923545E+03  0.46005256003E+03  0.17300000000E+03 0.  1.
<mgrwt>
<rscale>  2 0.20408197E+03</rscale>
<asrwt>0</asrwt>
<pdfrwt beam="1">  1       21 0.26127980E-01 0.20408197E+03</pdfrwt>
<pdfrwt beam="2">  1       21 0.78079676E-01 0.20408197E+03</pdfrwt>
<totfact> 0.20083524E+04</totfact>
</mgrwt>
</event>
<event>
 4    2  0.4024741E+000  0.2441863E+03  0.7546771E-02  0.1117035E+00
         21   -1    0    0  501  502  0.00000000000E+00  0.00000000000E+00  0.14865128312E+03  0.14865128312E+03  0.00000000000E+00 0. -1.
         21   -1    0    0  502  503 -0.00000000000E+00 -0.00000000000E+00 -0.50781326448E+03  0.50781326448E+03  0.00000000000E+00 0. -1.
          6    1    1    2  501    0 -0.99348080209E+02 -0.14081152152E+03 -0.29128695444E+02  0.24591747911E+03  0.17300000000E+03 0. -1.
         -6    1    1    2    0  503  0.99348080209E+02  0.14081152152E+03 -0.33003328591E+03  0.41054706849E+03  0.17300000000E+03 0. -1.
<mgrwt>
<rscale>  2 0.24418625E+03</rscale>
<asrwt>0</asrwt>
<pdfrwt beam="1">  1       21 0.22869428E-01 0.24418625E+03</pdfrwt>
<pdfrwt beam="2">  1       21 0.78125117E-01 0.24418625E+03</pdfrwt>
<totfact> 0.25324724E+04</totfact>
</mgrwt>
</event>
<event>
 4    2  0.4024741E+000  0.1734718E+03  0.7546771E-02  0.1174275E+00
         21   -1    0    0  501  502  0.00000000000E+00  0.00000000000E+00  0.15849737611E+03  0.15849737611E+03  0.00000000000E+00 0.  1.
         21   -1    0    0  502  503 -0.00000000000E+00 -0.00000000000E+00 -0.20463459537E+03  0.20463459537E+03  0.00000000000E+00 0.  1.
          6    1    1    2  501    0  0.12001560789E+02  0.44062186397E+01  0.25716775975E+02  0.17536762754E+03  0.17300000000E+03 0. -1.
         -6    1    1    2    0  503 -0.12001560789E+02 -0.44062186397E+01 -0.71853995234E+02  0.18776434394E+03  0.17300000000E+03 0. -1.
<mgrwt>
<rscale>  2 0.17347176E+03</rscale>
<asrwt>0</asrwt>
<pdfrwt beam="1">  1       21 0.24384212E-01 0.17347176E+03</pdfrwt>
<pdfrwt beam="2">  1       21 0.31482245E-01 0.17347176E+03</pdfrwt>
<totfact> 0.15499181E+05</totfact>
</mgrwt>
</event>
<event>
 4    2  0.4024741E+000  0.2387948E+03  0.7546771E-02  0.1120598E+00
         21   -1    0    0  501  502  0.00000000000E+00  0.00000000000E+00  0.83966290702E+03  0.83966290702E+03  0.00000000000E+00 0.  1.
         21   -1    0    0  502  503 -0.00000000000E+00 -0.00000000000E+00 -0.12355666661E+03  0.12355666661E+03  0.00000000000E+00 0. -1.
          6    1    1    2  501    0  0.12225379826E+03 -0.11021789520E+03  0.68125581152E+03  0.72189504524E+03  0.17300000000E+03 0.  1.
         -6    1    1    2    0  503 -0.12225379826E+03  0.11021789520E+03  0.34850428890E+02  0.24132452839E+03  0.17300000000E+03 0. -1.
<mgrwt>
<rscale>  2 0.23879484E+03</rscale>
<asrwt>0</asrwt>
<pdfrwt beam="1">  1       21 0.12917891E+00 0.23879484E+03</pdfrwt>
<pdfrwt beam="2">  1       21 0.19008718E-01 0.23879484E+03</pdfrwt>
<totfact> 0.10806598E+04</totfact>
</mgrwt>
</event>
<event>
 4    2  0.4024741E+000  0.3072532E+03  0.7546771E-02  0.1081670E+00
         21   -1    0    0  501  502  0.00000000000E+00  0.00000000000E+00  0.60247300638E+03  0.60247300638E+03  0.00000000000E+00 0.  1.
         21   -1    0    0  502  503 -0.00000000000E+00 -0.00000000000E+00 -0.42198416890E+03  0.42198416890E+03  0.00000000000E+00 0.  1.
          6    1    1    2  501    0  0.13431129435E+03 -0.21549019609E+03  0.49638411351E+03  0.58378226810E+03  0.17300000000E+03 0.  1.
         -6    1    1    2    0  503 -0.13431129435E+03  0.21549019609E+03 -0.31589527603E+03  0.44067490718E+03  0.17300000000E+03 0.  1.
<mgrwt>
<rscale>  2 0.30725323E+03</rscale>
<asrwt>0</asrwt>
<pdfrwt beam="1">  1       21 0.92688155E-01 0.30725323E+03</pdfrwt>
<pdfrwt beam="2">  1       21 0.64920641E-01 0.30725323E+03</pdfrwt>
<totfact> 0.19736627E+03</totfact>
</mgrwt>
</event>
<event>
 4    2  0.4024741E+000  0.2117929E+03  0.7546771E-02  0.1140154E+00
         21   -1    0    0  501  502  0.00000000000E+00  0.00000000000E+00  0.11072891787E+03  0.11072891787E+03  0.00000000000E+00 0. -1.
         21   -1    0    0  502  503 -0.00000000000E+00 -0.00000000000E+00 -0.45109477091E+03  0.45109477091E+03  0.00000000000E+00 0. -1.
          6    1    1    2  501    0  0.89833081885E+02 -0.82808472353E+02 -0.80482832612E+02  0.22656944198E+03  0.17300000000E+03 0. -1.
         -6    1    1    2    0  503 -0.89833081885E+02  0.82808472353E+02 -0.25988302043E+03  0.33525424680E+03  0.17300000000E+03 0. -1.
<mgrwt>
<rscale>  2 0.21179288E+03</rscale>
<asrwt>0</asrwt>
<pdfrwt beam="1">  1       21 0.17035218E-01 0.21179288E+03</pdfrwt>
<pdfrwt beam="2">  1       21 0.69399195E-01 0.21179288E+03</pdfrwt>
<totfact> 0.58163287E+04</totfact>
</mgrwt>
</event>
<event>
 4    2  0.4024741E+000  0.2179147E+03  0.7546771E-02  0.1135447E+00
         21   -1    0    0  501  502  0.00000000000E+00  0.00000000000E+00  0.64584564982E+02  0.64584564982E+02  0.00000000000E+00 0.  1.
         21   -1    0    0  502  503 -0.00000000000E+00 -0.00000000000E+00 -0.11262019686E+04  0.11262019686E+04  0.00000000000E+00 0.  1.
          6    1    1    2  501    0  0.10764113790E+03  0.77273546560E+02 -0.18001744692E+03  0.28265366929E+03  0.17300000000E+03 0.  1.
         -6    1    1    2    0  503 -0.10764113790E+03 -0.77273546560E+02 -0.88159995673E+03  0.90813286433E+03  0.17300000000E+03 0.  1.
<mgrwt>
<rscale>  2 0.21791470E+03</rscale>
<asrwt>0</asrwt>
<pdfrwt beam="1">  1       21 0.99360870E-02 0.21791470E+03</pdfrwt>
<pdfrwt beam="2">  1       21 0.17326184E+00 0.21791470E+03</pdfrwt>
<totfact> 0.16320394E+04</totfact>
</mgrwt>
</event>
<event>
 4    2  0.4024741E+000  0.2966990E+03  0.7546771E-02  0.1086902E+00
         21   -1    0    0  501  502  0.00000000000E+00  0.00000000000E+00  0.17114655231E+03  0.17114655231E+03  0.00000000000E+00 0. -1.
         21   -1    0    0  502  503 -0.00000000000E+00 -0.00000000000E+00 -0.73747449741E+03  0.73747449741E+03  0.00000000000E+00 0. -1.
          6    1    1    2  501    0  0.22637723009E+03  0.82792948419E+02 -0.33275222558E+02  0.29855914498E+03  0.17300000000E+03 0. -1.
         -6    1    1    2    0  503 -0.22637723009E+03 -0.82792948419E+02 -0.53305272255E+03  0.61006190475E+03  0.17300000000E+03 0. -1.
<mgrwt>
<rscale>  2 0.29669904E+03</rscale>
<asrwt>0</asrwt>
<pdfrwt beam="1">  1       21 0.26330239E-01 0.29669904E+03</pdfrwt>
<pdfrwt beam="2">  1       21 0.11345761E+00 0.29669904E+03</pdfrwt>
<totfact> 0.77969247E+03</totfact>
</mgrwt>
</event>
<event>
 4    2  0.4024741E+000  0.1998448E+03  0.7546771E-02  0.1149870E+00
         21   -1    0    0  503  502  0.00000000000E+00  0.00000000000E+00  0.19003292796E+03  0.19003292796E+03  0.00000000000E+00 0.  1.
         21   -1    0    0  501  503 -0.00000000000E+00 -0.00000000000E+00 -0.55139692537E+03  0.55139692537E+03  0.00000000000E+00 0.  1.
          6    1    1    2  501    0  0.93427993012E+02 -0.35779449561E+02 -0.47231305718E+03  0.51285239872E+03  0.17300000000E+03 0.  1.
         -6    1    1    2    0  502 -0.93427993012E+02  0.35779449561E+02  0.11094905978E+03  0.22857745461E+03  0.17300000000E+03 0.  1.
<mgrwt>
<rscale>  2 0.19984484E+03</rscale>
<asrwt>0</asrwt>
<pdfrwt beam="1">  1       21 0.29235835E-01 0.19984484E+03</pdfrwt>
<pdfrwt beam="2">  1       21 0.84830295E-01 0.19984484E+03</pdfrwt>
<totfact> 0.13423869E+04</totfact>
</mgrwt>
</event>
<event>
 4    2  0.4024741E+000  0.2172816E+03  0.7546771E-02  0.1135926E+00
         21   -1    0    0  501  502  0.00000000000E+00  0.00000000000E+00  0.81175636006E+03  0.81175636006E+03  0.00000000000E+00 0. -1.
         21   -1    0    0  502  503 -0.00000000000E+00 -0.00000000000E+00 -0.58858846676E+02  0.58858846676E+02  0.00000000000E+00 0.  1.
          6    1    1    2  501    0  0.26597614512E+02  0.12874331318E+03  0.32899577559E+03  0.39427083856E+03  0.17300000000E+03 0. -1.
         -6    1    1    2    0  503 -0.26597614512E+02 -0.12874331318E+03  0.42390173780E+03  0.47634436817E+03  0.17300000000E+03 0.  1.
<mgrwt>
<rscale>  2 0.21728155E+03</rscale>
<asrwt>0</asrwt>
<pdfrwt beam="1">  1       21 0.12488559E+00 0.21728155E+03</pdfrwt>
<pdfrwt beam="2">  1       21 0.90552078E-02 0.21728155E+03</pdfrwt>
<totfact> 0.45601461E+04</totfact>
</mgrwt>
</event>
<event>
 4    2  0.4024741E+000  0.2670525E+03  0.7546771E-02  0.1102978E+00
         21   -1    0    0  503  502  0.00000000000E+00  0.00000000000E+00  0.63485275522E+03  0.63485275522E+03  0.00000000000E+00 0. -1.
         21   -1    0    0  501  503 -0.00000000000E+00 -0.00000000000E+00 -0.12629077103E+03  0.12629077103E+03  0.00000000000E+00 0.  1.
          6    1    1    2  501    0 -0.20343376870E+03 -0.16523227723E+01  0.38078578558E+03  0.46509659526E+03  0.17300000000E+03 0. -1.
         -6    1    1    2    0  502  0.20343376870E+03  0.16523227723E+01  0.12777619860E+03  0.29604693099E+03  0.17300000000E+03 0.  1.
<mgrwt>
<rscale>  2 0.26705248E+03</rscale>
<asrwt>0</asrwt>
<pdfrwt beam="1">  1       21 0.97669653E-01 0.26705248E+03</pdfrwt>
<pdfrwt beam="2">  1       21 0.19429350E-01 0.26705248E+03</pdfrwt>
<totfact> 0.20313075E+04</totfact>
</mgrwt>
</event>
<event>
 4    2  0.4024741E+000  0.1836701E+03  0.7546771E-02  0.1164298E+00
         21   -1    0    0  501  502  0.00000000000E+00  0.00000000000E+00  0.14217981160E+03  0.14217981160E+03  0.00000000000E+00 0.  1.
         21   -1    0    0  502  503 -0.00000000000E+00 -0.00000000000E+00 -0.23981744194E+03  0.23981744194E+03  0.00000000000E+00 0.  1.
          6    1    1    2  501    0 -0.43335842958E+02 -0.43905891202E+02 -0.68511757570E+02  0.19603209812E+03  0.17300000000E+03 0.  1.
         -6    1    1    2    0  503  0.43335842958E+02  0.43905891202E+02 -0.29125872771E+02  0.18596515542E+03  0.17300000000E+03 0.  1.
<mgrwt>
<rscale>  2 0.18367015E+03</rscale>
<asrwt>0</asrwt>
<pdfrwt beam="1">  1       21 0.21873817E-01 0.18367015E+03</pdfrwt>
<pdfrwt beam="2">  1       21 0.36894991E-01 0.18367015E+03</pdfrwt>
<totfact> 0.13866438E+05</totfact>
</mgrwt>
</event>
<event>
 4    2  0.4024741E+000  0.2583551E+03  0.7546771E-02  0.1108136E+00
         21   -1    0    0  503  502  0.00000000000E+00  0.00000000000E+00  0.10127101485E+03  0.10127101485E+03  0.00000000000E+00 0. -1.
         21   -1    0    0  501  503 -0.00000000000E+00 -0.00000000000E+00 -0.72925968579E+03  0.72925968579E+03  0.00000000000E+00 0.  1.
          6    1    1    2  501    0 -0.14817199761E+03  0.12191569056E+03 -0.18518744738E+03  0.31787067677E+03  0.17300000000E+03 0. -1.
         -6    1    1    2    0  502  0.14817199761E+03 -0.12191569056E+03 -0.44280122356E+03  0.51266002387E+03  0.17300000000E+03 0.  1.
<mgrwt>
<rscale>  2 0.25835514E+03</rscale>
<asrwt>0</asrwt>
<pdfrwt beam="1">  1       21 0.15580155E-01 0.25835514E+03</pdfrwt>
<pdfrwt beam="2">  1       21 0.11219380E+00 0.25835514E+03</pdfrwt>
<totfact> 0.21976549E+04</totfact>
</mgrwt>
</event>
<event>
 4    2  0.4024741E+000  0.2010692E+03  0.7546771E-02  0.1148840E+00
         21   -1    0    0  503  502  0.00000000000E+00  0.00000000000E+00  0.22867861675E+03  0.22867861675E+03  0.00000000000E+00 0. -1.
         21   -1    0    0  501  503 -0.00000000000E+00 -0.00000000000E+00 -0.30616243622E+03  0.30616243622E+03  0.00000000000E+00 0.  1.
          6    1    1    2  501    0  0.88825374196E+02  0.51086897974E+02 -0.21257575595E+03  0.29260428955E+03  0.17300000000E+03 0.  1.
         -6    1    1    2    0  502 -0.88825374196E+02 -0.51086897974E+02  0.13509193649E+03  0.24223676342E+03  0.17300000000E+03 0. -1.
<mgrwt>
<rscale>  2 0.20106919E+03</rscale>
<asrwt>0</asrwt>
<pdfrwt beam="1">  1       21 0.35181326E-01 0.20106919E+03</pdfrwt>
<pdfrwt beam="2">  1       21 0.47101913E-01 0.20106919E+03</pdfrwt>
<totfact> 0.33444584E+04</totfact>
</mgrwt>
</event>
<event>
 4    2  0.4024741E+000  0.2355827E+03  0.7546771E-02  0.1122771E+00
         21   -1    0    0  501  502  0.00000000000E+00  0.00000000000E+00  0.43281317710E+03  0.43281317710E+03  0.00000000000E+00 0. -1.
         21   -1    0    0  502  503 -0.00000000000E+00 -0.00000000000E+00 -0.13829235420E+03  0.13829235420E+03  0.00000000000E+00 0. -1.
          6    1    1    2  501    0 -0.32437773270E+02  0.15658223683E+03  0.22429014738E+03  0.32527722982E+03  0.17300000000E+03 0. -1.
         -6    1    1    2    0  503  0.32437773270E+02 -0.15658223683E+03  0.70230675522E+02  0.24582830148E+03  0.17300000000E+03 0. -1.
<mgrwt>
<rscale>  2 0.23558269E+03</rscale>
<asrwt>0</asrwt>
<pdfrwt beam="1">  1       21 0.66586642E-01 0.23558269E+03</pdfrwt>
<pdfrwt beam="2">  1       21 0.21275747E-01 0.23558269E+03</pdfrwt>
<totfact> 0.41636316E+04</totfact>
</mgrwt>
</event>
<event>
 4    2  0.4024741E+000  0.1758404E+03  0.7546771E-02  0.1171891E+00
         21   -1    0    0  501  502  0.00000000000E+00  0.00000000000E+00  0.40865617547E+02  0.40865617547E+02  0.00000000000E+00 0. -1.
         21   -1    0    0  502  503 -0.00000000000E+00 -0.00000000000E+00 -0.14630554299E+04  0.14630554299E+04  0.00000000000E+00 0. -1.
          6    1    1    2  501    0  0.15927134419E+02 -0.27150677961E+02 -0.18857815798E+03  0.25784017257E+03  0.17300000000E+03 0. -1.
         -6    1    1    2    0  503 -0.15927134419E+02  0.27150677961E+02 -0.12336116544E+04  0.12460808749E+04  0.17300000000E+03 0. -1.
<mgrwt>
<rscale>  2 0.17584036E+03</rscale>
<asrwt>0</asrwt>
<pdfrwt beam="1">  1       21 0.62870176E-02 0.17584036E+03</pdfrwt>
<pdfrwt beam="2">  1       21 0.22508547E+00 0.17584036E+03</pdfrwt>
<totfact> 0.17292649E+04</totfact>
</mgrwt>
</event>
<event>
 4    2  0.4024741E+000  0.2969912E+03  0.7546771E-02  0.1086754E+00
         21   -1    0    0  501  502  0.00000000000E+00  0.00000000000E+00  0.12256942059E+03  0.12256942059E+03  0.00000000000E+00 0. -1.
         21   -1    0    0  502  503 -0.00000000000E+00 -0.00000000000E+00 -0.10421629107E+04  0.10421629107E+04  0.00000000000E+00 0. -1.
          6    1    1    2  501    0 -0.24139231453E+03 -0.21224969683E+01 -0.13581527818E+03  0.32657241815E+03  0.17300000000E+03 0. -1.
         -6    1    1    2    0  503  0.24139231453E+03  0.21224969683E+01 -0.78377821193E+03  0.83815991314E+03  0.17300000000E+03 0. -1.
<mgrwt>
<rscale>  2 0.29699117E+03</rscale>
<asrwt>0</asrwt>
<pdfrwt beam="1">  1       21 0.18856834E-01 0.29699117E+03</pdfrwt>
<pdfrwt beam="2">  1       21 0.16033276E+00 0.29699117E+03</pdfrwt>
<totfact> 0.60047816E+03</totfact>
</mgrwt>
</event>
<event>
 4    2  0.4024741E+000  0.2813295E+03  0.7546771E-02  0.1094965E+00
         21   -1    0    0  501  502  0.00000000000E+00  0.00000000000E+00  0.50105178639E+03  0.50105178639E+03  0.00000000000E+00 0.  1.
         21   -1    0    0  502  503 -0.00000000000E+00 -0.00000000000E+00 -0.16932142845E+03  0.16932142845E+03  0.00000000000E+00 0. -1.
          6    1    1    2  501    0 -0.16546384039E+03  0.14778028574E+03  0.25268947017E+03  0.37815111221E+03  0.17300000000E+03 0.  1.
         -6    1    1    2    0  503  0.16546384039E+03 -0.14778028574E+03  0.79040887768E+02  0.29222210263E+03  0.17300000000E+03 0. -1.
<mgrwt>
<rscale>  2 0.28132951E+03</rscale>
<asrwt>0</asrwt>
<pdfrwt beam="1">  1       21 0.77084889E-01 0.28132951E+03</pdfrwt>
<pdfrwt beam="2">  1       21 0.26049451E-01 0.28132951E+03</pdfrwt>
<totfact> 0.19996223E+04</totfact>
</mgrwt>
</event>
<event>
 4    2  0.4024741E+000  0.1850835E+03  0.7546771E-02  0.1162972E+00
         21   -1    0    0  501  502  0.00000000000E+00  0.00000000000E+00  0.13604164188E+04  0.13604164188E+04  0.00000000000E+00 0.  1.
         21   -1    0    0  502  503 -0.00000000000E+00 -0.00000000000E+00 -0.41870939354E+02  0.41870939354E+02  0.00000000000E+00 0.  1.
          6    1    1    2  501    0  0.21312746068E+02 -0.62230784009E+02  0.11019478954E+04  0.11173831338E+04  0.17300000000E+03 0.  1.
         -6    1    1    2    0  503 -0.21312746068E+02  0.62230784009E+02  0.21659758411E+03  0.28490422437E+03  0.17300000000E+03 0.  1.
<mgrwt>
<rscale>  2 0.18508350E+03</rscale>
<asrwt>0</asrwt>
<pdfrwt beam="1">  1       21 0.20929480E+00 0.18508350E+03</pdfrwt>
<pdfrwt beam="2">  1       21 0.64416840E-02 0.18508350E+03</pdfrwt>
<totfact> 0.20584597E+04</totfact>
</mgrwt>
</event>
<event>
 4    2  0.4024741E+000  0.2309411E+03  0.7546771E-02  0.1125979E+00
         21   -1    0    0  501  502  0.00000000000E+00  0.00000000000E+00  0.10470072748E+03  0.10470072748E+03  0.00000000000E+00 0.  1.
         21   -1    0    0  502  503 -0.00000000000E+00 -0.00000000000E+00 -0.59098037149E+03  0.59098037149E+03  0.00000000000E+00 0. -1.
          6    1    1    2  501    0 -0.15155390725E+03  0.20885616222E+02 -0.37238242842E+03  0.43818086307E+03  0.17300000000E+03 0. -1.
         -6    1    1    2    0  503  0.15155390725E+03 -0.20885616222E+02 -0.11389721560E+03  0.25750023590E+03  0.17300000000E+03 0.  1.
<mgrwt>
<rscale>  2 0.23094111E+03</rscale>
<asrwt>0</asrwt>
<pdfrwt beam="1">  1       21 0.16107804E-01 0.23094111E+03</pdfrwt>
<pdfrwt beam="2">  1       21 0.90920057E-01 0.23094111E+03</pdfrwt>
<totfact> 0.34642595E+04</totfact>
</mgrwt>
</event>
<event>
 4    2  0.4024741E+000  0.1898128E+03  0.7546771E-02  0.1158630E+00
         21   -1    0    0  503  502  0.00000000000E+00  0.00000000000E+00  0.91540581026E+03  0.91540581026E+03  0.00000000000E+00 0. -1.
         21   -1    0    0  501  503 -0.00000000000E+00 -0.00000000000E+00 -0.75228740190E+02  0.75228740190E+02  0.00000000000E+00 0. -1.
          6    1    1    2  501    0  0.56685292333E+02 -0.53727820886E+02  0.78062335820E+02  0.20523798230E+03  0.17300000000E+03 0. -1.
         -6    1    1    2    0  502 -0.56685292333E+02  0.53727820886E+02  0.76211473425E+03  0.78539656815E+03  0.17300000000E+03 0. -1.
<mgrwt>
<rscale>  2 0.18981281E+03</rscale>
<asrwt>0</asrwt>
<pdfrwt beam="1">  1       21 0.14083165E+00 0.18981281E+03</pdfrwt>
<pdfrwt beam="2">  1       21 0.11573653E-01 0.18981281E+03</pdfrwt>
<totfact> 0.22100384E+04</totfact>
</mgrwt>
</event>
<event>
 4    2  0.4024741E+000  0.1789248E+03  0.7546771E-02  0.1168848E+00
         21   -1    0    0  501  502  0.00000000000E+00  0.00000000000E+00  0.11797337741E+04  0.11797337741E+04  0.00000000000E+00 0.  1.
         21   -1    0    0  502  503 -0.00000000000E+00 -0.00000000000E+00 -0.44622612057E+02  0.44622612057E+02  0.00000000000E+00 0.  1.
          6    1    1    2  501    0 -0.45651261211E+02 -0.10277019372E+01  0.95077223628E+03  0.96746159568E+03  0.17300000000E+03 0.  1.
         -6    1    1    2    0  503  0.45651261211E+02  0.10277019372E+01  0.18433892573E+03  0.25689479045E+03  0.17300000000E+03 0.  1.
<mgrwt>
<rscale>  2 0.17892483E+03</rscale>
<asrwt>0</asrwt>
<pdfrwt beam="1">  1       21 0.18149748E+00 0.17892483E+03</pdfrwt>
<pdfrwt beam="2">  1       21 0.68650181E-02 0.17892483E+03</pdfrwt>
<totfact> 0.28072493E+04</totfact>
</mgrwt>
</event>
<event>
 4    2  0.4024741E+000  0.2387722E+03  0.7546771E-02  0.1120613E+00
         21   -1    0    0  501  502  0.00000000000E+00  0.00000000000E+00  0.10481250765E+04  0.10481250765E+04  0.00000000000E+00 0. -1.
         21   -1    0    0  502  503 -0.00000000000E+00 -0.00000000000E+00 -0.81796628547E+02  0.81796628547E+02  0.00000000000E+00 0. -1.
          6    1    1    2  501    0 -0.10748974289E+03 -0.12461590875E+03  0.81016089562E+03  0.84461402210E+03  0.17300000000E+03 0. -1.
         -6    1    1    2    0  503  0.10748974289E+03  0.12461590875E+03  0.15616755232E+03  0.28530768293E+03  0.17300000000E+03 0. -1.
<mgrwt>
<rscale>  2 0.23877221E+03</rscale>
<asrwt>0</asrwt>
<pdfrwt beam="1">  1       21 0.16125000E+00 0.23877221E+03</pdfrwt>
<pdfrwt beam="2">  1       21 0.12584097E-01 0.23877221E+03</pdfrwt>
<totfact> 0.12866246E+04</totfact>
</mgrwt>
</event>
<event>
 4    2  0.4024741E+000  0.1869851E+03  0.7546771E-02  0.1161209E+00
         21   -1    0    0  503  502  0.00000000000E+00  0.00000000000E+00  0.29886247073E+03  0.29886247073E+03  0.00000000000E+00 0.  1.
         21   -1    0    0  501  503 -0.00000000000E+00 -0.00000000000E+00 -0.43236430693E+03  0.43236430693E+03  0.00000000000E+00 0.  1.
          6    1    1    2  501    0 -0.70745943485E+02 -0.54266460381E+01 -0.37900738571E+03  0.42262280515E+03  0.17300000000E+03 0.  1.
         -6    1    1    2    0  502  0.70745943485E+02  0.54266460381E+01  0.24550554952E+03  0.30860397251E+03  0.17300000000E+03 0.  1.
<mgrwt>
<rscale>  2 0.18698513E+03</rscale>
<asrwt>0</asrwt>
<pdfrwt beam="1">  1       21 0.45978842E-01 0.18698513E+03</pdfrwt>
<pdfrwt beam="2">  1       21 0.66517585E-01 0.18698513E+03</pdfrwt>
<totfact> 0.94328941E+03</totfact>
</mgrwt>
</event>
<event>
 4    2  0.4024741E+000  0.1770668E+03  0.7546771E-02  0.1170672E+00
         21   -1    0    0  503  502  0.00000000000E+00  0.00000000000E+00  0.31790946107E+03  0.31790946107E+03  0.00000000000E+00 0.  1.
         21   -1    0    0  501  503 -0.00000000000E+00 -0.00000000000E+00 -0.11591244920E+03  0.11591244920E+03  0.00000000000E+00 0.  1.
          6    1    1    2  501    0 -0.20991590772E+02  0.31352811193E+02  0.17220827308E+02  0.17790222749E+03  0.17300000000E+03 0.  1.
         -6    1    1    2    0  502  0.20991590772E+02 -0.31352811193E+02  0.18477618456E+03  0.25591968278E+03  0.17300000000E+03 0.  1.
<mgrwt>
<rscale>  2 0.17706678E+03</rscale>
<asrwt>0</asrwt>
<pdfrwt beam="1">  1       21 0.48909148E-01 0.17706678E+03</pdfrwt>
<pdfrwt beam="2">  1       21 0.17832685E-01 0.17706678E+03</pdfrwt>
<totfact> 0.11460296E+05</totfact>
</mgrwt>
</event>
<event>
 4    2  0.4024741E+000  0.3191330E+03  0.7546771E-02  0.1076049E+00
         21   -1    0    0  501  502  0.00000000000E+00  0.00000000000E+00  0.13618051246E+04  0.13618051246E+04  0.00000000000E+00 0.  1.
         21   -1    0    0  502  503 -0.00000000000E+00 -0.00000000000E+00 -0.10108855209E+03  0.10108855209E+03  0.00000000000E+00 0. -1.
          6    1    1    2  501    0  0.10446874697E+03  0.24698814503E+03  0.10034530686E+04  0.10529785961E+04  0.17300000000E+03 0. -1.
         -6    1    1    2    0  503 -0.10446874697E+03 -0.24698814503E+03  0.25726350389E+03  0.40991508061E+03  0.17300000000E+03 0.  1.
<mgrwt>
<rscale>  2 0.31913299E+03</rscale>
<asrwt>0</asrwt>
<pdfrwt beam="1">  1       21 0.20950847E+00 0.31913299E+03</pdfrwt>
<pdfrwt beam="2">  1       21 0.15552086E-01 0.31913299E+03</pdfrwt>
<totfact> 0.39002672E+03</totfact>
</mgrwt>
</event>
<event>
 4    2  0.4024741E+000  0.2228751E+03  0.7546771E-02  0.1131758E+00
         21   -1    0    0  503  502  0.00000000000E+00  0.00000000000E+00  0.20046232654E+03  0.20046232654E+03  0.00000000000E+00 0. -1.
         21   -1    0    0  501  503 -0.00000000000E+00 -0.00000000000E+00 -0.10243976422E+04  0.10243976422E+04  0.00000000000E+00 0. -1.
          6    1    1    2  501    0  0.68555516522E+02 -0.12265581124E+03 -0.94520671070E+03  0.97112771191E+03  0.17300000000E+03 0. -1.
         -6    1    1    2    0  502 -0.68555516522E+02  0.12265581124E+03  0.12127139507E+03  0.25373225680E+03  0.17300000000E+03 0. -1.
<mgrwt>
<rscale>  2 0.22287509E+03</rscale>
<asrwt>0</asrwt>
<pdfrwt beam="1">  1       21 0.30840358E-01 0.22287509E+03</pdfrwt>
<pdfrwt beam="2">  1       21 0.15759964E+00 0.22287509E+03</pdfrwt>
<totfact> 0.25763783E+03</totfact>
</mgrwt>
</event>
<event>
 4    2  0.4024741E+000  0.1755688E+03  0.7546771E-02  0.1172162E+00
         21   -1    0    0  501  502  0.00000000000E+00  0.00000000000E+00  0.24050946356E+02  0.24050946356E+02  0.00000000000E+00 0.  1.
         21   -1    0    0  502  503 -0.00000000000E+00 -0.00000000000E+00 -0.13552613447E+04  0.13552613447E+04  0.00000000000E+00 0.  1.
          6    1    1    2  501    0  0.23443998867E+01  0.29831314516E+02 -0.50485416334E+03  0.53451111287E+03  0.17300000000E+03 0.  1.
         -6    1    1    2    0  503 -0.23443998867E+01 -0.29831314516E+02 -0.82635623496E+03  0.84480117814E+03  0.17300000000E+03 0.  1.
<mgrwt>
<rscale>  2 0.17556880E+03</rscale>
<asrwt>0</asrwt>
<pdfrwt beam="1">  1       21 0.37001445E-02 0.17556880E+03</pdfrwt>
<pdfrwt beam="2">  1       21 0.20850180E+00 0.17556880E+03</pdfrwt>
<totfact> 0.53552796E+04</totfact>
</mgrwt>
</event>
<event>
 4    2  0.4024741E+000  0.2380109E+03  0.7546771E-02  0.1121125E+00
         21   -1    0    0  503  502  0.00000000000E+00  0.00000000000E+00  0.15634135516E+04  0.15634135516E+04  0.00000000000E+00 0.  1.
         21   -1    0    0  501  503 -0.00000000000E+00 -0.00000000000E+00 -0.36570226226E+02  0.36570226226E+02  0.00000000000E+00 0.  1.
          6    1    1    2  501    0 -0.14263153072E+03 -0.79852672388E+02  0.68674896503E+03  0.72682414917E+03  0.17300000000E+03 0.  1.
         -6    1    1    2    0  502  0.14263153072E+03  0.79852672388E+02  0.84009436039E+03  0.87315962870E+03  0.17300000000E+03 0.  1.
<mgrwt>
<rscale>  2 0.23801093E+03</rscale>
<asrwt>0</asrwt>
<pdfrwt beam="1">  1       21 0.24052511E+00 0.23801093E+03</pdfrwt>
<pdfrwt beam="2">  1       21 0.56261899E-02 0.23801093E+03</pdfrwt>
<totfact> 0.16048519E+04</totfact>
</mgrwt>
</event>
<event>
 4    2  0.4024741E+000  0.2192057E+03  0.7546771E-02  0.1134477E+00
         21   -1    0    0  503  502  0.00000000000E+00  0.00000000000E+00  0.29388420500E+03  0.29388420500E+03  0.00000000000E+00 0.  1.
         21   -1    0    0  501  503 -0.00000000000E+00 -0.00000000000E+00 -0.32007947328E+03  0.32007947328E+03  0.00000000000E+00 0.  1.
          6    1    1    2  501    0  0.13291653878E+03  0.21338115476E+02 -0.22780463829E+03  0.31614249110E+03  0.17300000000E+03 0.  1.
         -6    1    1    2    0  502 -0.13291653878E+03 -0.21338115476E+02  0.20160937002E+03  0.29782118718E+03  0.17300000000E+03 0.  1.
<mgrwt>
<rscale>  2 0.21920566E+03</rscale>
<asrwt>0</asrwt>
<pdfrwt beam="1">  1       21 0.45212955E-01 0.21920566E+03</pdfrwt>
<pdfrwt beam="2">  1       21 0.49242996E-01 0.21920566E+03</pdfrwt>
<totfact> 0.18170049E+04</totfact>
</mgrwt>
</event>
<event>
 4    2  0.4024741E+000  0.2018208E+03  0.7546771E-02  0.1148212E+00
         21   -1    0    0  501  502  0.00000000000E+00  0.00000000000E+00  0.12845286557E+03  0.12845286557E+03  0.00000000000E+00 0. -1.
         21   -1    0    0  502  503 -0.00000000000E+00 -0.00000000000E+00 -0.11338064654E+04  0.11338064654E+04  0.00000000000E+00 0. -1.
          6    1    1    2  501    0  0.64441543545E+02  0.81547176764E+02  0.32976367018E+02  0.20449717689E+03  0.17300000000E+03 0. -1.
         -6    1    1    2    0  503 -0.64441543545E+02 -0.81547176764E+02 -0.10383299669E+04  0.10577621541E+04  0.17300000000E+03 0. -1.
<mgrwt>
<rscale>  2 0.20182085E+03</rscale>
<asrwt>0</asrwt>
<pdfrwt beam="1">  1       21 0.19761980E-01 0.20182085E+03</pdfrwt>
<pdfrwt beam="2">  1       21 0.17443176E+00 0.20182085E+03</pdfrwt>
<totfact> 0.46528557E+03</totfact>
</mgrwt>
</event>
<event>
 4    2  0.4024741E+000  0.1814870E+03  0.7546771E-02  0.1166372E+00
         21   -1    0    0  503  502  0.00000000000E+00  0.00000000000E+00  0.28935796013E+03  0.28935796013E+03  0.00000000000E+00 0.  1.
         21   -1    0    0  501  503 -0.00000000000E+00 -0.00000000000E+00 -0.13363312121E+03  0.13363312121E+03  0.00000000000E+00 0.  1.
          6    1    1    2  501    0 -0.23146739563E+02 -0.49726999569E+02 -0.35543105596E+01  0.18152184211E+03  0.17300000000E+03 0.  1.
         -6    1    1    2    0  502  0.23146739563E+02  0.49726999569E+02  0.15927914947E+03  0.24146923923E+03  0.17300000000E+03 0.  1.
<mgrwt>
<rscale>  2 0.18148704E+03</rscale>
<asrwt>0</asrwt>
<pdfrwt beam="1">  1       21 0.44516609E-01 0.18148704E+03</pdfrwt>
<pdfrwt beam="2">  1       21 0.20558942E-01 0.18148704E+03</pdfrwt>
<totfact> 0.10665185E+05</totfact>
</mgrwt>
</event>
<event>
 4    2  0.4024741E+000  0.1785886E+03  0.7546771E-02  0.1169176E+00
         21   -1    0    0  501  502  0.00000000000E+00  0.00000000000E+00  0.23144893769E+02  0.23144893769E+02  0.00000000000E+00 0.  1.
         21   -1    0    0  502  503 -0.00000000000E+00 -0.00000000000E+00 -0.16292839208E+04  0.16292839208E+04  0.00000000000E+00 0.  1.
          6    1    1    2  501    0  0.51179193700E+01  0.44030704159E+02 -0.47860436813E+03  0.51083856276E+03  0.17300000000E+03 0.  1.
         -6    1    1    2    0  503 -0.51179193700E+01 -0.44030704159E+02 -0.11275346589E+04  0.11415902518E+04  0.17300000000E+03 0.  1.
<mgrwt>
<rscale>  2 0.17858862E+03</rscale>
<asrwt>0</asrwt>
<pdfrwt beam="1">  1       21 0.35607515E-02 0.17858862E+03</pdfrwt>
<pdfrwt beam="2">  1       21 0.25065916E+00 0.17858862E+03</pdfrwt>
<totfact> 0.31742735E+04</totfact>
</mgrwt>
</event>
<event>
 4    2  0.4024741E+000  0.1790733E+03  0.7546771E-02  0.1168703E+00
         21   -1    0    0  503  502  0.00000000000E+00  0.00000000000E+00  0.20608466794E+03  0.20608466794E+03  0.00000000000E+00 0.  1.
         21   -1    0    0  501  503 -0.00000000000E+00 -0.00000000000E+00 -0.51266557655E+03  0.51266557655E+03  0.00000000000E+00 0.  1.
          6    1    1    2  501    0  0.41195484800E+02  0.21004020740E+02 -0.45320916327E+03  0.48730460959E+03  0.17300000000E+03 0.  1.
         -6    1    1    2    0  502 -0.41195484800E+02 -0.21004020740E+02  0.14662825465E+03  0.23144563491E+03  0.17300000000E+03 0.  1.
<mgrwt>
<rscale>  2 0.17907327E+03</rscale>
<asrwt>0</asrwt>
<pdfrwt beam="1">  1       21 0.31705334E-01 0.17907327E+03</pdfrwt>
<pdfrwt beam="2">  1       21 0.78871626E-01 0.17907327E+03</pdfrwt>
<totfact> 0.13704752E+04</totfact>
</mgrwt>
</event>
<event>
 4    2  0.4024741E+000  0.2986311E+03  0.7546771E-02  0.1085927E+00
         21   -1    0    0  503  502  0.00000000000E+00  0.00000000000E+00  0.11416047729E+03  0.11416047729E+03  0.00000000000E+00 0. -1.
         21   -1    0    0  501  503 -0.00000000000E+00 -0.00000000000E+00 -0.10498423000E+04  0.10498423000E+04  0.00000000000E+00 0.  1.
          6    1    1    2  501    0 -0.84142093700E+02  0.22841115152E+03 -0.76225639571E+03  0.81866681799E+03  0.17300000000E+03 0.  1.
         -6    1    1    2    0  502  0.84142093700E+02 -0.22841115152E+03 -0.17342542704E+03  0.34533595934E+03  0.17300000000E+03 0. -1.
<mgrwt>
<rscale>  2 0.29863112E+03</rscale>
<asrwt>0</asrwt>
<pdfrwt beam="1">  1       21 0.17563151E-01 0.29863112E+03</pdfrwt>
<pdfrwt beam="2">  1       21 0.16151419E+00 0.29863112E+03</pdfrwt>
<totfact> 0.67150073E+03</totfact>
</mgrwt>
</event>
<event>
 4    2  0.4024741E+000  0.1993172E+03  0.7546771E-02  0.1150316E+00
         21   -1    0    0  501  502  0.00000000000E+00  0.00000000000E+00  0.54153619426E+03  0.54153619426E+03  0.00000000000E+00 0.  1.
         21   -1    0    0  502  503 -0.00000000000E+00 -0.00000000000E+00 -0.12766665169E+03  0.12766665169E+03  0.00000000000E+00 0.  1.
          6    1    1    2  501    0 -0.98546752725E+02  0.93220238787E+01  0.42516433707E+03  0.46956583789E+03  0.17300000000E+03 0.  1.
         -6    1    1    2    0  503  0.98546752725E+02 -0.93220238787E+01 -0.11294794496E+02  0.19963700805E+03  0.17300000000E+03 0.  1.
<mgrwt>
<rscale>  2 0.19931724E+03</rscale>
<asrwt>0</asrwt>
<pdfrwt beam="1">  1       21 0.83313259E-01 0.19931724E+03</pdfrwt>
<pdfrwt beam="2">  1       21 0.19641024E-01 0.19931724E+03</pdfrwt>
<totfact> 0.29837729E+04</totfact>
</mgrwt>
</event>
<event>
 4    2  0.4024741E+000  0.2057166E+03  0.7546771E-02  0.1145004E+00
         21   -1    0    0  503  502  0.00000000000E+00  0.00000000000E+00  0.52191692730E+03  0.52191692730E+03  0.00000000000E+00 0. -1.
         21   -1    0    0  501  503 -0.00000000000E+00 -0.00000000000E+00 -0.81413703984E+02  0.81413703984E+02  0.00000000000E+00 0. -1.
          6    1    1    2  501    0 -0.15847375407E+02  0.11017798228E+03  0.23943685447E+03  0.31567282804E+03  0.17300000000E+03 0. -1.
         -6    1    1    2    0  502  0.15847375407E+02 -0.11017798228E+03  0.20106636885E+03  0.28765780325E+03  0.17300000000E+03 0. -1.
<mgrwt>
<rscale>  2 0.20571662E+03</rscale>
<asrwt>0</asrwt>
<pdfrwt beam="1">  1       21 0.80294910E-01 0.20571662E+03</pdfrwt>
<pdfrwt beam="2">  1       21 0.12525186E-01 0.20571662E+03</pdfrwt>
<totfact> 0.73688977E+04</totfact>
</mgrwt>
</event>
<event>
 4    2  0.4024741E+000  0.1833706E+03  0.7546771E-02  0.1164580E+00
         21   -1    0    0  501  502  0.00000000000E+00  0.00000000000E+00  0.82118403443E+03  0.82118403443E+03  0.00000000000E+00 0. -1.
         21   -1    0    0  502  503 -0.00000000000E+00 -0.00000000000E+00 -0.42543000205E+02  0.42543000205E+02  0.00000000000E+00 0. -1.
          6    1    1    2  501    0  0.60039958040E+02 -0.95384464758E+01  0.47297503055E+03  0.50727720041E+03  0.17300000000E+03 0. -1.
         -6    1    1    2    0  503 -0.60039958040E+02  0.95384464758E+01  0.30566600367E+03  0.35644983423E+03  0.17300000000E+03 0. -1.
<mgrwt>
<rscale>  2 0.18337060E+03</rscale>
<asrwt>0</asrwt>
<pdfrwt beam="1">  1       21 0.12633599E+00 0.18337060E+03</pdfrwt>
<pdfrwt beam="2">  1       21 0.65450775E-02 0.18337060E+03</pdfrwt>
<totfact> 0.79233378E+04</totfact>
</mgrwt>
</event>
<event>
 4    2  0.4024741E+000  0.2003891E+03  0.7546771E-02  0.1149411E+00
         21   -1    0    0  503  502  0.00000000000E+00  0.00000000000E+00  0.23929941364E+03  0.23929941364E+03  0.00000000000E+00 0. -1.
         21   -1    0    0  501  503 -0.00000000000E+00 -0.00000000000E+00 -0.16843091375E+03  0.16843091375E+03  0.00000000000E+00 0.  1.
          6    1    1    2  501    0  0.10111879455E+03  0.13329924232E+01  0.23012788408E+02  0.20170616230E+03  0.17300000000E+03 0.  1.
         -6    1    1    2    0  502 -0.10111879455E+03 -0.13329924232E+01  0.47855711479E+02  0.20602416509E+03  0.17300000000E+03 0. -1.
<mgrwt>
<rscale>  2 0.20038909E+03</rscale>
<asrwt>0</asrwt>
<pdfrwt beam="1">  1       21 0.36815294E-01 0.20038909E+03</pdfrwt>
<pdfrwt beam="2">  1       21 0.25912448E-01 0.20038909E+03</pdfrwt>
<totfact> 0.10032447E+05</totfact>
</mgrwt>
</event>
<event>
 4    2  0.4024741E+000  0.1958753E+03  0.7546771E-02  0.1153266E+00
         21   -1    0    0  503  502  0.00000000000E+00  0.00000000000E+00  0.20699496376E+03  0.20699496376E+03  0.00000000000E+00 0. -1.
         21   -1    0    0  501  503 -0.00000000000E+00 -0.00000000000E+00 -0.24774899919E+03  0.24774899919E+03  0.00000000000E+00 0. -1.
          6    1    1    2  501    0 -0.98844589182E+01  0.91326019255E+02 -0.13448321957E+03  0.23759814954E+03  0.17300000000E+03 0. -1.
         -6    1    1    2    0  502  0.98844589182E+01 -0.91326019255E+02  0.93729184144E+02  0.21714581341E+03  0.17300000000E+03 0. -1.
<mgrwt>
<rscale>  2 0.19587533E+03</rscale>
<asrwt>0</asrwt>
<pdfrwt beam="1">  1       21 0.31845379E-01 0.19587533E+03</pdfrwt>
<pdfrwt beam="2">  1       21 0.38115231E-01 0.19587533E+03</pdfrwt>
<totfact> 0.62852217E+04</totfact>
</mgrwt>
</event>
<event>
 4    2  0.4024741E+000  0.2202003E+03  0.7546771E-02  0.1133734E+00
         21   -1    0    0  503  502  0.00000000000E+00  0.00000000000E+00  0.75181367248E+03  0.75181367248E+03  0.00000000000E+00 0. -1.
         21   -1    0    0  501  503 -0.00000000000E+00 -0.00000000000E+00 -0.73502392765E+02  0.73502392765E+02  0.00000000000E+00 0. -1.
          6    1    1    2  501    0  0.67411057680E+02 -0.11838459479E+03  0.19469782764E+03  0.29393095630E+03  0.17300000000E+03 0. -1.
         -6    1    1    2    0  502 -0.67411057680E+02  0.11838459479E+03  0.48361345208E+03  0.53138510895E+03  0.17300000000E+03 0. -1.
<mgrwt>
<rscale>  2 0.22020028E+03</rscale>
<asrwt>0</asrwt>
<pdfrwt beam="1">  1       21 0.11566364E+00 0.22020028E+03</pdfrwt>
<pdfrwt beam="2">  1       21 0.11308061E-01 0.22020028E+03</pdfrwt>
<totfact> 0.37155976E+04</totfact>
</mgrwt>
</event>
<event>
 4    2  0.4024741E+000  0.3112478E+03  0.7546771E-02  0.1079749E+00
         21   -1    0    0  503  502  0.00000000000E+00  0.00000000000E+00  0.16964603985E+03  0.16964603985E+03  0.00000000000E+00 0.  1.
         21   -1    0    0  501  503 -0.00000000000E+00 -0.00000000000E+00 -0.57801551814E+03  0.57801551814E+03  0.00000000000E+00 0. -1.
          6    1    1    2  501    0  0.64080244716E+02  0.25067890904E+03 -0.24524279287E+03  0.39625650866E+03  0.17300000000E+03 0. -1.
         -6    1    1    2    0  502 -0.64080244716E+02 -0.25067890904E+03 -0.16312668542E+03  0.35140504933E+03  0.17300000000E+03 0.  1.
<mgrwt>
<rscale>  2 0.31124780E+03</rscale>
<asrwt>0</asrwt>
<pdfrwt beam="1">  1       21 0.26099390E-01 0.31124780E+03</pdfrwt>
<pdfrwt beam="2">  1       21 0.88925465E-01 0.31124780E+03</pdfrwt>
<totfact> 0.14157173E+04</totfact>
</mgrwt>
</event>
<event>
 4    2  0.4024741E+000  0.1780309E+03  0.7546771E-02  0.1169722E+00
         21   -1    0    0  501  502  0.00000000000E+00  0.00000000000E+00  0.62059249646E+02  0.62059249646E+02  0.00000000000E+00 0. -1.
         21   -1    0    0  502  503 -0.00000000000E+00 -0.00000000000E+00 -0.64116556760E+03  0.64116556760E+03  0.00000000000E+00 0. -1.
          6    1    1    2  501    0 -0.41166888016E+02  0.84429430968E+01 -0.13095753995E+03  0.22100876278E+03  0.17300000000E+03 0. -1.
         -6    1    1    2    0  503  0.41166888016E+02 -0.84429430968E+01 -0.44814877800E+03  0.48221605446E+03  0.17300000000E+03 0. -1.
<mgrwt>
<rscale>  2 0.17803088E+03</rscale>
<asrwt>0</asrwt>
<pdfrwt beam="1">  1       21 0.95475771E-02 0.17803088E+03</pdfrwt>
<pdfrwt beam="2">  1       21 0.98640854E-01 0.17803088E+03</pdfrwt>
<totfact> 0.75153589E+04</totfact>
</mgrwt>
</event>
<event>
 4    2  0.4024741E+000  0.1937547E+03  0.7546771E-02  0.1155118E+00
         21   -1    0    0  503  502  0.00000000000E+00  0.00000000000E+00  0.51668825861E+03  0.51668825861E+03  0.00000000000E+00 0. -1.
         21   -1    0    0  501  503 -0.00000000000E+00 -0.00000000000E+00 -0.88427037130E+02  0.88427037130E+02  0.00000000000E+00 0.  1.
          6    1    1    2  501    0 -0.31985115994E+02 -0.81171749383E+02  0.86358782789E+02  0.21212906427E+03  0.17300000000E+03 0.  1.
         -6    1    1    2    0  502  0.31985115994E+02  0.81171749383E+02  0.34190243870E+03  0.39298623147E+03  0.17300000000E+03 0. -1.
<mgrwt>
<rscale>  2 0.19375474E+03</rscale>
<asrwt>0</asrwt>
<pdfrwt beam="1">  1       21 0.79490500E-01 0.19375474E+03</pdfrwt>
<pdfrwt beam="2">  1       21 0.13604160E-01 0.19375474E+03</pdfrwt>
<totfact> 0.65317309E+04</totfact>
</mgrwt>
</event>
<event>
 4    2  0.4024741E+000  0.2125614E+03  0.7546771E-02  0.1139554E+00
         21   -1    0    0  501  502  0.00000000000E+00  0.00000000000E+00  0.15013023469E+02  0.15013023469E+02  0.00000000000E+00 0.  1.
         21   -1    0    0  502  503 -0.00000000000E+00 -0.00000000000E+00 -0.31008049668E+04  0.31008049668E+04  0.00000000000E+00 0.  1.
          6    1    1    2  501    0 -0.16547086659E+01  0.12349331238E+03 -0.12756259096E+04  0.12932145211E+04  0.17300000000E+03 0.  1.
         -6    1    1    2    0  503  0.16547086659E+01 -0.12349331238E+03 -0.18101660337E+04  0.18226034692E+04  0.17300000000E+03 0.  1.
<mgrwt>
<rscale>  2 0.21256137E+03</rscale>
<asrwt>0</asrwt>
<pdfrwt beam="1">  1       21 0.23096936E-02 0.21256137E+03</pdfrwt>
<pdfrwt beam="2">  1       21 0.47704740E+00 0.21256137E+03</pdfrwt>
<totfact> 0.25862688E+03</totfact>
</mgrwt>
</event>
<event>
 4    2  0.4024741E+000  0.1962031E+03  0.7546771E-02  0.1152983E+00
         21   -1    0    0  501  502  0.00000000000E+00  0.00000000000E+00  0.19034562993E+03  0.19034562993E+03  0.00000000000E+00 0.  1.
         21   -1    0    0  502  503 -0.00000000000E+00 -0.00000000000E+00 -0.39292631822E+03  0.39292631822E+03  0.00000000000E+00 0.  1.
          6    1    1    2  501    0  0.92305177856E+02 -0.68129045980E+01  0.10187252452E+03  0.22107390796E+03  0.17300000000E+03 0.  1.
         -6    1    1    2    0  503 -0.92305177856E+02  0.68129045980E+01 -0.30445321281E+03  0.36219804020E+03  0.17300000000E+03 0.  1.
<mgrwt>
<rscale>  2 0.19620311E+03</rscale>
<asrwt>0</asrwt>
<pdfrwt beam="1">  1       21 0.29283944E-01 0.19620311E+03</pdfrwt>
<pdfrwt beam="2">  1       21 0.60450202E-01 0.19620311E+03</pdfrwt>
<totfact> 0.28424662E+04</totfact>
</mgrwt>
</event>
<event>
 4    2  0.4024741E+000  0.2794991E+03  0.7546771E-02  0.1095963E+00
         21   -1    0    0  503  502  0.00000000000E+00  0.00000000000E+00  0.55349606495E+03  0.55349606495E+03  0.00000000000E+00 0.  1.
         21   -1    0    0  501  503 -0.00000000000E+00 -0.00000000000E+00 -0.14835143638E+03  0.14835143638E+03  0.00000000000E+00 0.  1.
          6    1    1    2  501    0 -0.86147034248E+02 -0.20191435759E+03  0.12519445983E+03  0.30625703597E+03  0.17300000000E+03 0.  1.
         -6    1    1    2    0  502  0.86147034248E+02  0.20191435759E+03  0.27995016873E+03  0.39559046536E+03  0.17300000000E+03 0.  1.
<mgrwt>
<rscale>  2 0.27949905E+03</rscale>
<asrwt>0</asrwt>
<pdfrwt beam="1">  1       21 0.85153240E-01 0.27949905E+03</pdfrwt>
<pdfrwt beam="2">  1       21 0.22823298E-01 0.27949905E+03</pdfrwt>
<totfact> 0.20542142E+04</totfact>
</mgrwt>
</event>
<event>
 4    2  0.4024741E+000  0.1740934E+03  0.7546771E-02  0.1173645E+00
         21   -1    0    0  501  502  0.00000000000E+00  0.00000000000E+00  0.20039057957E+03  0.20039057957E+03  0.00000000000E+00 0. -1.
         21   -1    0    0  502  503 -0.00000000000E+00 -0.00000000000E+00 -0.15757480889E+03  0.15757480889E+03  0.00000000000E+00 0. -1.
          6    1    1    2  501    0 -0.19479905101E+02 -0.22809513156E+00  0.57274192361E+02  0.18327261618E+03  0.17300000000E+03 0. -1.
         -6    1    1    2    0  503  0.19479905101E+02  0.22809513156E+00 -0.14458421684E+02  0.17469277228E+03  0.17300000000E+03 0. -1.
<mgrwt>
<rscale>  2 0.17409342E+03</rscale>
<asrwt>0</asrwt>
<pdfrwt beam="1">  1       21 0.30829320E-01 0.17409342E+03</pdfrwt>
<pdfrwt beam="2">  1       21 0.24242278E-01 0.17409342E+03</pdfrwt>
<totfact> 0.16323154E+05</totfact>
</mgrwt>
</event>
<event>
 4    2  0.4024741E+000  0.2224697E+03  0.7546771E-02  0.1132055E+00
         21   -1    0    0  501  502  0.00000000000E+00  0.00000000000E+00  0.63643757962E+02  0.63643757962E+02  0.00000000000E+00 0. -1.
         21   -1    0    0  502  503 -0.00000000000E+00 -0.00000000000E+00 -0.78543203224E+03  0.78543203224E+03  0.00000000000E+00 0.  1.
          6    1    1    2  501    0 -0.13574098430E+03  0.33736657924E+02 -0.31864506018E+03  0.38862250486E+03  0.17300000000E+03 0. -1.
         -6    1    1    2    0  503  0.13574098430E+03 -0.33736657924E+02 -0.40314321411E+03  0.46045328535E+03  0.17300000000E+03 0. -1.
<mgrwt>
<rscale>  2 0.22246972E+03</rscale>
<asrwt>0</asrwt>
<pdfrwt beam="1">  1       21 0.97913463E-02 0.22246972E+03</pdfrwt>
<pdfrwt beam="2">  1       21 0.12083571E+00 0.22246972E+03</pdfrwt>
<totfact> 0.43031446E+04</totfact>
</mgrwt>
</event>
<event>
 4    2  0.4024741E+000  0.1878863E+03  0.7546771E-02  0.1160382E+00
         21   -1    0    0  503  502  0.00000000000E+00  0.00000000000E+00  0.19097021680E+03  0.19097021680E+03  0.00000000000E+00 0. -1.
         21   -1    0    0  501  503 -0.00000000000E+00 -0.00000000000E+00 -0.21787616127E+03  0.21787616127E+03  0.00000000000E+00 0. -1.
          6    1    1    2  501    0  0.59949694881E+02  0.42169831075E+02 -0.93039586085E+02  0.20966073821E+03  0.17300000000E+03 0. -1.
         -6    1    1    2    0  502 -0.59949694881E+02 -0.42169831075E+02  0.66133641617E+02  0.19918563985E+03  0.17300000000E+03 0. -1.
<mgrwt>
<rscale>  2 0.18788630E+03</rscale>
<asrwt>0</asrwt>
<pdfrwt beam="1">  1       21 0.29380033E-01 0.18788630E+03</pdfrwt>
<pdfrwt beam="2">  1       21 0.33519409E-01 0.18788630E+03</pdfrwt>
<totfact> 0.95312606E+04</totfact>
</mgrwt>
</event>
<event>
 4    2  0.4024741E+000  0.3219695E+03  0.7546771E-02  0.1074746E+00
         21   -1    0    0  503  502  0.00000000000E+00  0.00000000000E+00  0.17701664181E+03  0.17701664181E+03  0.00000000000E+00 0.  1.
         21   -1    0    0  501  503 -0.00000000000E+00 -0.00000000000E+00 -0.88675596235E+03  0.88675596235E+03  0.00000000000E+00 0.  1.
          6    1    1    2  501    0  0.10092497127E+03 -0.25209029598E+03 -0.66482458568E+03  0.73868538423E+03  0.17300000000E+03 0.  1.
         -6    1    1    2    0  502 -0.10092497127E+03  0.25209029598E+03 -0.44914734863E+02  0.32508721993E+03  0.17300000000E+03 0.  1.
<mgrwt>
<rscale>  2 0.32196951E+03</rscale>
<asrwt>0</asrwt>
<pdfrwt beam="1">  1       21 0.27233330E-01 0.32196951E+03</pdfrwt>
<pdfrwt beam="2">  1       21 0.13642399E+00 0.32196951E+03</pdfrwt>
<totfact> 0.45192684E+03</totfact>
</mgrwt>
</event>
<event>
 4    2  0.4024741E+000  0.1780431E+03  0.7546771E-02  0.1169711E+00
         21   -1    0    0  501  502  0.00000000000E+00  0.00000000000E+00  0.43278156364E+03  0.43278156364E+03  0.00000000000E+00 0.  1.
         21   -1    0    0  502  503 -0.00000000000E+00 -0.00000000000E+00 -0.92225924111E+02  0.92225924111E+02  0.00000000000E+00 0.  1.
          6    1    1    2  501    0 -0.29061387467E+02  0.30426361486E+02  0.28936397414E+03  0.33975114017E+03  0.17300000000E+03 0.  1.
         -6    1    1    2    0  503  0.29061387467E+02 -0.30426361486E+02  0.51191665390E+02  0.18525634758E+03  0.17300000000E+03 0.  1.
<mgrwt>
<rscale>  2 0.17804305E+03</rscale>
<asrwt>0</asrwt>
<pdfrwt beam="1">  1       21 0.66581778E-01 0.17804305E+03</pdfrwt>
<pdfrwt beam="2">  1       21 0.14188604E-01 0.17804305E+03</pdfrwt>
<totfact> 0.90282709E+04</totfact>
</mgrwt>
</event>
<event>
 4    2  0.4024741E+000  0.2077987E+03  0.7546771E-02  0.1143321E+00
         21   -1    0    0  503  502  0.00000000000E+00  0.00000000000E+00  0.10582428170E+04  0.10582428170E+04  0.00000000000E+00 0.  1.
         21   -1    0    0  501  503 -0.00000000000E+00 -0.00000000000E+00 -0.41525227284E+02  0.41525227284E+02  0.00000000000E+00 0.  1.
          6    1    1    2  501    0  0.22787155470E+02  0.11283633593E+03  0.43587826570E+03  0.48287695708E+03  0.17300000000E+03 0.  1.
         -6    1    1    2    0  502 -0.22787155470E+02 -0.11283633593E+03  0.58083932403E+03  0.61689108723E+03  0.17300000000E+03 0.  1.
<mgrwt>
<rscale>  2 0.20779868E+03</rscale>
<asrwt>0</asrwt>
<pdfrwt beam="1">  1       21 0.16280657E+00 0.20779868E+03</pdfrwt>
<pdfrwt beam="2">  1       21 0.63884973E-02 0.20779868E+03</pdfrwt>
<totfact> 0.42132182E+04</totfact>
</mgrwt>
</event>
<event>
 4    2  0.4024741E+000  0.1857479E+03  0.7546771E-02  0.1162353E+00
         21   -1    0    0  503  502  0.00000000000E+00  0.00000000000E+00  0.26960647400E+04  0.26960647400E+04  0.00000000000E+00 0. -1.
         21   -1    0    0  501  503 -0.00000000000E+00 -0.00000000000E+00 -0.13319407876E+02  0.13319407876E+02  0.00000000000E+00 0. -1.
          6    1    1    2  501    0 -0.67358914069E+02 -0.60038581246E+01  0.10731530451E+04  0.10891096032E+04  0.17300000000E+03 0. -1.
         -6    1    1    2    0  502  0.67358914069E+02  0.60038581246E+01  0.16095922870E+04  0.16202745446E+04  0.17300000000E+03 0. -1.
<mgrwt>
<rscale>  2 0.18574787E+03</rscale>
<asrwt>0</asrwt>
<pdfrwt beam="1">  1       21 0.41477876E+00 0.18574787E+03</pdfrwt>
<pdfrwt beam="2">  1       21 0.20491418E-02 0.18574787E+03</pdfrwt>
<totfact> 0.84044281E+03</totfact>
</mgrwt>
</event>
<event>
 4    2  0.4024741E+000  0.3321682E+03  0.7546771E-02  0.1070182E+00
         21   -1    0    0  503  502  0.00000000000E+00  0.00000000000E+00  0.77459623248E+03  0.77459623248E+03  0.00000000000E+00 0.  1.
         21   -1    0    0  501  503 -0.00000000000E+00 -0.00000000000E+00 -0.14257159538E+03  0.14257159538E+03  0.00000000000E+00 0. -1.
          6    1    1    2  501    0  0.18023492595E+03  0.21891108126E+03  0.32979325905E+03  0.46808042444E+03  0.17300000000E+03 0.  1.
         -6    1    1    2    0  502 -0.18023492595E+03 -0.21891108126E+03  0.30223137805E+03  0.44908740342E+03  0.17300000000E+03 0. -1.
<mgrwt>
<rscale>  2 0.33216817E+03</rscale>
<asrwt>0</asrwt>
<pdfrwt beam="1">  1       21 0.11916865E+00 0.33216817E+03</pdfrwt>
<pdfrwt beam="2">  1       21 0.21934092E-01 0.33216817E+03</pdfrwt>
<totfact> 0.96481640E+03</totfact>
</mgrwt>
</event>
<event>
 4    2  0.4024741E+000  0.1985706E+03  0.7546771E-02  0.1150951E+00
         21   -1    0    0  501  502  0.00000000000E+00  0.00000000000E+00  0.12053452782E+03  0.12053452782E+03  0.00000000000E+00 0. -1.
         21   -1    0    0  502  503 -0.00000000000E+00 -0.00000000000E+00 -0.33160729632E+03  0.33160729632E+03  0.00000000000E+00 0.  1.
          6    1    1    2  501    0 -0.94358945479E+02 -0.24447676011E+02 -0.79263654996E+02  0.21380604869E+03  0.17300000000E+03 0. -1.
         -6    1    1    2    0  503  0.94358945479E+02  0.24447676011E+02 -0.13180911351E+03  0.23833577545E+03  0.17300000000E+03 0.  1.
<mgrwt>
<rscale>  2 0.19857064E+03</rscale>
<asrwt>0</asrwt>
<pdfrwt beam="1">  1       21 0.18543774E-01 0.19857064E+03</pdfrwt>
<pdfrwt beam="2">  1       21 0.51016507E-01 0.19857064E+03</pdfrwt>
<totfact> 0.96844178E+04</totfact>
</mgrwt>
</event>
<event>
 4    2  0.4024741E+000  0.2171412E+03  0.7546771E-02  0.1136033E+00
         21   -1    0    0  501  502  0.00000000000E+00  0.00000000000E+00  0.42658734806E+03  0.42658734806E+03  0.00000000000E+00 0. -1.
         21   -1    0    0  502  503 -0.00000000000E+00 -0.00000000000E+00 -0.18989483462E+03  0.18989483462E+03  0.00000000000E+00 0. -1.
          6    1    1    2  501    0  0.49856636540E+02 -0.12139034526E+03  0.31762022885E+03  0.38475045147E+03  0.17300000000E+03 0. -1.
         -6    1    1    2    0  503 -0.49856636540E+02  0.12139034526E+03 -0.80927715415E+02  0.23173173122E+03  0.17300000000E+03 0. -1.
<mgrwt>
<rscale>  2 0.21714120E+03</rscale>
<asrwt>0</asrwt>
<pdfrwt beam="1">  1       21 0.65628823E-01 0.21714120E+03</pdfrwt>
<pdfrwt beam="2">  1       21 0.29214590E-01 0.21714120E+03</pdfrwt>
<totfact> 0.23616686E+04</totfact>
</mgrwt>
</event>
<event>
 4    2  0.4024741E+000  0.2105679E+03  0.7546771E-02  0.1141117E+00
         21   -1    0    0  503  502  0.00000000000E+00  0.00000000000E+00  0.23031978219E+03  0.23031978219E+03  0.00000000000E+00 0.  1.
         21   -1    0    0  501  503 -0.00000000000E+00 -0.00000000000E+00 -0.44738056541E+03  0.44738056541E+03  0.00000000000E+00 0.  1.
          6    1    1    2  501    0 -0.40385590285E+02  0.11304357574E+03 -0.36428828947E+03  0.42076692332E+03  0.17300000000E+03 0.  1.
         -6    1    1    2    0  502  0.40385590285E+02 -0.11304357574E+03  0.14722750624E+03  0.25693342428E+03  0.17300000000E+03 0.  1.
<mgrwt>
<rscale>  2 0.21056791E+03</rscale>
<asrwt>0</asrwt>
<pdfrwt beam="1">  1       21 0.35433813E-01 0.21056791E+03</pdfrwt>
<pdfrwt beam="2">  1       21 0.68827779E-01 0.21056791E+03</pdfrwt>
<totfact> 0.14600655E+04</totfact>
</mgrwt>
</event>
<event>
 4    2  0.4024741E+000  0.1884122E+03  0.7546771E-02  0.1159901E+00
         21   -1    0    0  503  502  0.00000000000E+00  0.00000000000E+00  0.25906885167E+03  0.25906885167E+03  0.00000000000E+00 0.  1.
         21   -1    0    0  501  503 -0.00000000000E+00 -0.00000000000E+00 -0.14369323420E+03  0.14369323420E+03  0.00000000000E+00 0.  1.
          6    1    1    2  501    0 -0.12020408362E+02  0.73659177020E+02  0.10106623285E+03  0.21380726835E+03  0.17300000000E+03 0.  1.
         -6    1    1    2    0  502  0.12020408362E+02 -0.73659177020E+02  0.14309384624E+02  0.18895481752E+03  0.17300000000E+03 0.  1.
<mgrwt>
<rscale>  2 0.18841222E+03</rscale>
<asrwt>0</asrwt>
<pdfrwt beam="1">  1       21 0.39856746E-01 0.18841222E+03</pdfrwt>
<pdfrwt beam="2">  1       21 0.22106651E-01 0.18841222E+03</pdfrwt>
<totfact> 0.11623205E+05</totfact>
</mgrwt>
</event>
<event>
 4    2  0.4024741E+000  0.2757330E+03  0.7546771E-02  0.1098043E+00
         21   -1    0    0  503  502  0.00000000000E+00  0.00000000000E+00  0.51902565896E+03  0.51902565896E+03  0.00000000000E+00 0.  1.
         21   -1    0    0  501  503 -0.00000000000E+00 -0.00000000000E+00 -0.40274325380E+03  0.40274325380E+03  0.00000000000E+00 0. -1.
          6    1    1    2  501    0  0.13581387067E+03 -0.16629570628E+03 -0.30949491287E+03  0.41450665915E+03  0.17300000000E+03 0. -1.
         -6    1    1    2    0  502 -0.13581387067E+03  0.16629570628E+03  0.42577731803E+03  0.50726225361E+03  0.17300000000E+03 0.  1.
<mgrwt>
<rscale>  2 0.27573297E+03</rscale>
<asrwt>0</asrwt>
<pdfrwt beam="1">  1       21 0.79850101E-01 0.27573297E+03</pdfrwt>
<pdfrwt beam="2">  1       21 0.61960501E-01 0.27573297E+03</pdfrwt>
<totfact> 0.31465208E+03</totfact>
</mgrwt>
</event>
